G2DPncore-PETIM in water
135445
    1aaa     N1    1   3.326   8.052   9.212 -0.4173  0.0200  0.0156
    1aaa     C1    2   3.413   8.147   9.302 -0.5107 -0.0508  0.3549
    1aaa     H1    3   3.457   8.092   9.385  1.3158  1.5182  0.5025
    1aaa     H2    4   3.496   8.175   9.237 -0.7781 -0.4341 -0.1598
    1aaa     C2    5   3.271   8.124   9.088  0.5111 -0.9185  0.1022
    1aaa     H3    6   3.219   8.052   9.024  1.3033  1.7016 -3.8451
    1aaa     H4    7   3.204   8.200   9.129  1.5059  0.5451 -0.8977
    1aaa     C3    8   3.406   7.926   9.161  0.4893 -0.3935  0.0683
    1aaa     H5    9   3.334   7.866   9.105  0.2805  0.2635 -0.3728
    1aaa     H6   10   3.479   7.965   9.090  1.9647 -2.0944  0.5771
    1aaa     C4   11   3.473   7.848   9.272  1.2084 -0.8039  0.3127
    1aaa     H7   12   3.541   7.777   9.223  1.6360  0.7938 -1.5403
    1aaa     H8   13   3.538   7.921   9.322 -0.7044  0.5572  0.9287
    1aaa     C5   14   3.336   8.271   9.356  0.6311  0.2768  0.1462
    1aaa     H9   15   3.322   8.346   9.277  2.8457  0.0055 -0.5878
    1aaa    H10   16   3.238   8.230   9.381  0.6962 -0.0035 -0.0574
    1aaa     C6   17   3.370   8.194   8.993 -0.1282 -0.1421 -0.4312
    1aaa    H11   18   3.413   8.284   9.039  0.8232 -0.9901  0.3874
    1aaa    H12   19   3.458   8.133   8.972 -0.1537  0.0286 -1.0854
    1aaa     C7   20   3.293   8.236   8.861  0.2994 -0.0855 -1.1687
    1aaa    H13   21   3.205   8.170   8.854  0.5791 -0.6630  0.3006
    1aaa    H14   22   3.256   8.334   8.890 -0.6377 -0.1629 -2.0707
    1aaa     C8   23   3.372   7.778   9.373  0.5143 -0.0074  0.0399
    1aaa    H15   24   3.336   7.849   9.448 -0.3692 -0.5980  0.1926
    1aaa    H16   25   3.286   7.749   9.311 -0.9880 -0.5022  2.2406
    1aaa     C9   26   3.407   8.335   9.471  0.2559  0.7238 -0.6308
    1aaa    H17   27   3.444   8.260   9.542  1.9955  2.2604  0.1890
    1aaa    H18   28   3.502   8.381   9.440  1.4346 -1.4224 -0.4078
    1aaa    H19   29   3.242   8.016   9.258  0.1660 -2.0151 -0.4449
    2bbb     N1   30   3.445   8.180   8.282 -0.1260 -0.3306  0.8847
    2bbb     C1   31   3.411   8.056   8.203  0.3057 -0.0388  0.0195
    2bbb     H1   32   3.477   8.049   8.117 -0.1276 -1.4745 -0.2299
    2bbb     H2   33   3.313   8.064   8.155  0.9103  1.3677 -1.0509
    2bbb     C2   34   3.439   8.307   8.196 -0.6973  0.1775  0.1676
    2bbb     H3   35   3.418   8.397   8.254 -3.3622  0.7575 -1.5135
    2bbb     H4   36   3.366   8.302   8.115  0.0308  2.6700 -0.7490
    2bbb     C3   37   3.349   8.195   8.395  0.0009 -0.0737 -0.2757
    2bbb     H5   38   3.365   8.104   8.453  0.3752 -0.0940 -0.4054
    2bbb     H6   39   3.249   8.200   8.353  0.5035 -1.1760 -1.6755
    2bbb     C4   40   3.372   8.311   8.497 -0.4421 -0.1650  0.3033
    2bbb     H7   41   3.370   8.410   8.451  2.4447 -0.5181 -0.7845
    2bbb     H8   42   3.473   8.299   8.540 -0.4546 -0.7786  0.1711
    2bbb     C5   43   3.416   7.924   8.280  0.2370 -0.4053  0.5863
    2bbb     H9   44   3.338   7.917   8.357  0.9261  2.7029  1.7174
    2bbb    H10   45   3.513   7.913   8.330 -0.1482  0.6364  1.6314
    2bbb     C6   46   3.580   8.338   8.127  0.0687  0.2771  0.1926
    2bbb    H11   47   3.567   8.433   8.073 -0.8702 -2.4486 -5.0126
    2bbb    H12   48   3.605   8.266   8.049  0.4100  1.0080 -0.3794
    2bbb     C7   49   3.286   8.287   8.624 -0.0326 -0.3175  0.0764
    2bbb    H13   50   3.200   8.224   8.599 -1.6552  1.5657  0.6635
    2bbb    H14   51   3.234   8.379   8.653 -1.8857 -1.9185  2.2365
    2bbb     C8   52   3.697   8.344   8.234 -0.2189 -0.6847  0.1415
    2bbb    H15   53   3.657   8.373   8.332 -0.4628  0.1223 -0.1908
    2bbb    H16   54   3.734   8.242   8.256 -1.1217 -0.9574  0.4380
    2bbb     C9   55   3.401   7.806   8.175  0.2025 -0.1335 -0.7470
    2bbb    H17   56   3.425   7.705   8.212  0.9921  0.2177 -0.2755
    2bbb    H18   57   3.479   7.814   8.097  1.9703 -2.4422  0.6470
    2bbb     O1   58   3.364   8.233   8.740 -0.7146 -0.2820 -0.4455
    2bbb    H19   59   3.540   8.170   8.321  1.6611  0.1197 -2.9384
    3bbb     N1   60   3.553   7.331   9.718 -0.1589  0.2210  0.4550
    3bbb     C1   61   3.522   7.187   9.678  0.0210  0.0988 -0.7011
    3bbb     H1   62   3.413   7.177   9.674  0.0060  0.1573 -0.4709
    3bbb     H2   63   3.552   7.120   9.759  1.7421  1.6927  0.0563
    3bbb     C2   64   3.696   7.347   9.778 -0.0344  0.2180  0.2946
    3bbb     H3   65   3.696   7.444   9.829 -1.0401  0.3957 -0.0327
    3bbb     H4   66   3.764   7.338   9.693 -0.5673 -1.5513  0.0092
    3bbb     C3   67   3.530   7.442   9.609 -0.5442 -0.9378  0.6597
    3bbb     H5   68   3.596   7.433   9.522 -0.3794  2.2659  0.3552
    3bbb     H6   69   3.556   7.538   9.652  2.3475  0.3744 -3.3638
    3bbb     C4   70   3.387   7.450   9.548  0.0876  0.6252 -0.2690
    3bbb     H7   71   3.328   7.403   9.628  0.6048  0.0370 -0.2223
    3bbb     H8   72   3.372   7.385   9.461 -0.3845  1.2907 -0.6949
    3bbb     C5   73   3.604   7.151   9.547  0.1315  0.3668  0.0748
    3bbb     H9   74   3.711   7.159   9.573  0.4987 -1.3110 -0.8156
    3bbb    H10   75   3.581   7.220   9.465 -0.0762 -0.9559 -1.0145
    3bbb     C6   76   3.742   7.239   9.880 -0.0081 -0.0687 -0.0671
    3bbb    H11   77   3.754   7.145   9.826 -0.9053 -0.5452  0.5492
    3bbb    H12   78   3.660   7.219   9.950 -1.5017  0.9372 -1.4481
    3bbb     C7   79   3.337   7.590   9.509  0.6788 -0.4079 -0.3324
    3bbb    H13   80   3.333   7.655   9.597  0.3533 -0.3066 -0.4221
    3bbb    H14   81   3.234   7.586   9.471  0.9009  0.2795 -1.0290
    3bbb     C8   82   3.877   7.277   9.943  0.2326 -0.5716  0.3169
    3bbb    H15   83   3.946   7.266   9.858 -1.5677 -0.4136 -1.2104
    3bbb    H16   84   3.869   7.382   9.974  0.9998 -1.0159  2.1940
    3bbb     C9   85   3.565   7.008   9.504 -0.3889  0.0036  0.1382
    3bbb    H17   86   3.459   7.012   9.478 -0.1250  1.1166 -0.8807
    3bbb    H18   87   3.569   6.935   9.586 -1.2377 -1.5442 -1.1373
    3bbb     O1   88   3.433   7.653   9.426 -0.4602 -0.0076  0.4137
    3bbb    H19   89   3.488   7.346   9.796 -2.9856 -2.0202 -1.2936
    4bbb     N1   90   3.071   8.588   9.895 -0.3065 -0.3291  0.3534
    4bbb     C1   91   2.926   8.622   9.881 -0.3554 -0.2203 -0.1470
    4bbb     H1   92   2.923   8.671   9.784  0.8307 -1.3702 -0.8089
    4bbb     H2   93   2.913   8.696   9.960  0.2441  0.6131 -0.8181
    4bbb     C2   94   3.097   8.507  10.019 -0.7023  0.4110 -0.2605
    4bbb     H3   95   3.181   8.440  10.002 -2.3026 -2.1968  1.3869
    4bbb     H4   96   3.017   8.436  10.040  0.9351 -0.5138  3.7665
    4bbb     C3   97   3.127   8.528   9.770 -0.6368  0.0518 -0.6941
    4bbb     H5   98   3.063   8.553   9.685 -1.3453 -1.7239 -0.7163
    4bbb     H6   99   3.121   8.420   9.783  0.8890 -0.2763 -2.3416
    4bbb     C4  100   3.275   8.572   9.742  0.1194 -0.7328 -0.6937
    4bbb     H7  101   3.322   8.599   9.838  0.1134  0.2028 -0.9472
    4bbb     H8  102   3.272   8.664   9.683  1.6680 -1.0445 -1.3167
    4bbb     C5  103   2.824   8.501   9.893 -0.0936  0.0230 -0.2929
    4bbb     H9  104   2.834   8.432   9.978  1.5960 -0.4580 -0.8308
    4bbb    H10  105   2.852   8.436   9.810 -1.5721  1.6982 -2.1807
    4bbb     C6  106   3.128   8.597  10.140 -0.7698  0.5798 -0.4908
    4bbb    H11  107   3.168   8.530  10.217 -2.0628 -0.3755 -0.6219
    4bbb    H12  108   3.036   8.643  10.177 -1.6861  1.4639 -3.5502
    4bbb     C7  109   3.366   8.469   9.669  0.2392  0.0836  0.2513
    4bbb    H13  110   3.372   8.382   9.736  0.3260  0.6687  1.0216
    4bbb    H14  111   3.467   8.508   9.652  1.1058 -2.5481 -1.2182
    4bbb     C8  112   3.244   8.699  10.127 -0.1724  0.5744  0.0553
    4bbb    H15  113   3.279   8.728  10.226  1.0886 -1.2341  0.1935
    4bbb    H16  114   3.324   8.645  10.075 -1.2040 -0.6834 -0.2958
    4bbb     C9  115   2.673   8.537   9.880 -1.3920 -0.8146  0.5222
    4bbb    H17  116   2.621   8.446   9.847 -1.0577 -0.4231 -1.1768
    4bbb    H18  117   2.658   8.614   9.803  0.5242 -0.2303  0.7028
    4bbb     O1  118   3.316   8.431   9.538 -0.6485 -0.9375 -0.0570
    4bbb    H19  119   3.129   8.673   9.907 -0.0576 -0.4353 -0.0767
    5bbb     N1  120   4.169   8.736   8.254 -0.1793  0.4656  0.3967
    5bbb     C1  121   4.258   8.807   8.359  0.3219 -0.1661  0.6263
    5bbb     H1  122   4.301   8.728   8.422 -2.4641 -2.7282 -0.4167
    5bbb     H2  123   4.194   8.876   8.415  1.1555  1.3154 -0.1861
    5bbb     C2  124   4.252   8.668   8.149  0.4078 -0.1723  1.0205
    5bbb     H3  125   4.305   8.741   8.087 -1.2318  1.8912  1.9494
    5bbb     H4  126   4.183   8.628   8.075  0.8968  0.1074  0.4015
    5bbb     C3  127   4.086   8.630   8.329 -0.2335  0.6096  0.0652
    5bbb     H5  128   4.032   8.681   8.410 -1.6153 -1.0544  0.2711
    5bbb     H6  129   4.143   8.547   8.370 -1.4674  0.4527  1.5694
    5bbb     C4  130   3.984   8.568   8.230  0.3403 -0.8086 -1.1114
    5bbb     H7  131   4.030   8.494   8.163 -0.6576 -2.2791 -0.2347
    5bbb     H8  132   3.945   8.651   8.169 -0.7933 -0.5353 -0.0686
    5bbb     C5  133   4.369   8.894   8.305  0.3845  0.4304 -0.1198
    5bbb     H9  134   4.431   8.844   8.229 -0.2804 -1.4109  0.5003
    5bbb    H10  135   4.430   8.918   8.392 -1.8338 -1.4159  2.1006
    5bbb     C6  136   4.351   8.557   8.180 -0.5193 -0.5226 -0.5475
    5bbb    H11  137   4.297   8.478   8.233 -0.4820 -0.8006 -0.9196
    5bbb    H12  138   4.431   8.594   8.246  0.0801 -0.1307 -1.4562
    5bbb     C7  139   3.869   8.491   8.303  0.1246 -0.2230 -0.3612
    5bbb    H13  140   3.794   8.544   8.364  1.5838 -0.2245  1.5162
    5bbb    H14  141   3.917   8.417   8.367 -0.4764 -0.7727 -0.5326
    5bbb     C8  142   4.393   8.467   8.055  0.8256  0.1741  0.1350
    5bbb    H15  143   4.464   8.388   8.081 -1.4593 -1.5957  1.3463
    5bbb    H16  144   4.303   8.417   8.017 -0.1901 -0.1070  2.6765
    5bbb     C9  145   4.314   9.032   8.252 -0.4688 -0.3868  0.1657
    5bbb    H17  146   4.240   9.068   8.324 -0.1900 -0.1051  0.3166
    5bbb    H18  147   4.271   9.009   8.154 -0.2498 -0.7998  0.1672
    5bbb     O1  148   3.801   8.441   8.190  0.0043  1.1569 -0.4583
    5bbb    H19  149   4.114   8.809   8.206 -0.6422  0.5054  0.9742
    6bbb     N1  150   2.903   7.859   7.889  0.1608  0.1823  0.0804
    6bbb     C1  151   2.869   8.009   7.877 -0.0773  0.4815  0.3196
    6bbb     H1  152   2.950   8.054   7.819 -0.4915  0.6705 -0.1236
    6bbb     H2  153   2.865   8.047   7.979  0.8009  0.6286  0.3084
    6bbb     C2  154   2.895   7.781   7.752 -0.2465 -0.5854  0.3273
    6bbb     H3  155   2.789   7.773   7.726 -0.5435 -0.1321  1.3616
    6bbb     H4  156   2.939   7.683   7.769 -1.3642 -1.3042 -0.7883
    6bbb     C3  157   3.051   7.854   7.940  0.2847  0.4298 -0.5400
    6bbb     H5  158   3.066   7.916   8.028  3.7698 -0.2258 -0.5264
    6bbb     H6  159   3.113   7.888   7.857 -0.6474 -1.8061 -2.2440
    6bbb     C4  160   3.099   7.712   7.986 -0.2369 -0.6614  0.2739
    6bbb     H7  161   3.094   7.644   7.900  0.8026  0.3329 -0.6004
    6bbb     H8  162   3.032   7.679   8.066 -0.0771  0.3238  0.8297
    6bbb     C5  163   2.741   8.046   7.795  0.1560  0.8035 -0.1557
    6bbb     H9  164   2.738   7.986   7.703 -0.1359 -1.6866  1.3778
    6bbb    H10  165   2.739   8.153   7.775  0.0005  1.0214  0.9438
    6bbb     C6  166   2.968   7.840   7.631 -0.2948 -0.1848  0.0584
    6bbb    H11  167   3.077   7.839   7.644 -0.2107  2.1552 -0.0642
    6bbb    H12  168   2.940   7.944   7.610 -2.9101 -0.3425  2.2532
    6bbb     C7  169   3.246   7.709   8.032 -0.0715 -0.0521 -0.0392
    6bbb    H13  170   3.304   7.730   7.941 -0.0134 -0.7394 -0.1660
    6bbb    H14  171   3.275   7.613   8.076  3.0784  0.8727  0.1183
    6bbb     C8  172   2.950   7.745   7.508  0.6460 -0.0317 -0.8507
    6bbb    H15  173   3.012   7.776   7.424  2.4119 -1.1266 -0.0015
    6bbb    H16  174   2.988   7.648   7.542  1.2715  0.3678 -0.4006
    6bbb     C9  175   2.607   8.004   7.870  0.5547 -0.0761  0.7720
    6bbb    H17  176   2.601   7.903   7.913 -2.6811 -1.0396 -1.6244
    6bbb    H18  177   2.523   8.015   7.800  1.1802 -0.0295  0.0136
    6bbb     O1  178   3.261   7.808   8.134 -0.3602  0.4788  0.5661
    6bbb    H19  179   2.836   7.814   7.953 -1.8782  3.3477  0.4089
    7bbb     N1  180   4.259   7.041  10.397  0.4223  0.7279  0.0964
    7bbb     C1  181   4.222   6.899  10.364  0.3232  0.9605 -0.5296
    7bbb     H1  182   4.311   6.840  10.385  1.3241  2.8101  0.7072
    7bbb     H2  183   4.196   6.893  10.258  0.4290  0.5129 -0.5290
    7bbb     C2  184   4.406   7.047  10.435  0.5540  0.4797 -0.3861
    7bbb     H3  185   4.456   7.044  10.338  0.3793 -1.2033 -0.4400
    7bbb     H4  186   4.432   6.952  10.480  1.9621  0.9181 -0.2114
    7bbb     C3  187   4.213   7.140  10.282  0.3417  0.4078  0.4054
    7bbb     H5  188   4.289   7.147  10.204  1.1640  3.2833  1.3458
    7bbb     H6  189   4.219   7.238  10.330 -1.6064 -0.2827  2.2327
    7bbb     C4  190   4.081   7.113  10.207 -0.5163 -0.0864  0.0200
    7bbb     H7  191   3.996   7.107  10.276 -0.8536 -2.2274 -0.5004
    7bbb     H8  192   4.092   7.013  10.163  1.1329  1.1390 -2.5864
    7bbb     C5  193   4.104   6.843  10.454  0.1459  0.0103  0.5085
    7bbb     H9  194   4.100   6.735  10.435  0.4660  0.1689 -0.5598
    7bbb    H10  195   4.005   6.883  10.428 -1.1998 -2.3916  1.6473
    7bbb     C6  196   4.444   7.176  10.518  0.5036 -0.1511 -0.1621
    7bbb    H11  197   4.390   7.180  10.613  0.4466 -0.6173 -0.1718
    7bbb    H12  198   4.410   7.263  10.460  0.6806  0.1179  0.1366
    7bbb     C7  199   4.033   7.223  10.107  0.1571  0.2556  0.1413
    7bbb    H13  200   4.102   7.247  10.026  1.3738  0.2208  1.1352
    7bbb    H14  201   4.025   7.313  10.171  2.9778  0.4206  0.3891
    7bbb     C8  202   4.592   7.201  10.539 -1.1908 -0.2007  0.0488
    7bbb    H15  203   4.624   7.226  10.437 -0.7389 -1.2312 -0.0756
    7bbb    H16  204   4.610   7.286  10.605 -2.2652 -0.7998  1.1511
    7bbb     C9  205   4.124   6.870  10.603  0.5468  0.2837 -0.0338
    7bbb    H17  206   4.222   6.829  10.631  0.8279 -1.2928 -2.9302
    7bbb    H18  207   4.049   6.814  10.659  0.4052 -0.1371 -0.6339
    7bbb     O1  208   3.907   7.186  10.049  0.3277  0.1916 -0.0692
    7bbb    H19  209   4.209   7.066  10.484 -0.4493 -1.2544  0.2148
    8bbb     N1  210   3.884   6.631   9.193  0.0557  0.6374  0.4931
    8bbb     C1  211   4.030   6.622   9.221  0.7889  0.2209 -0.0541
    8bbb     H1  212   4.042   6.581   9.322  0.8124 -0.7366 -0.4420
    8bbb     H2  213   4.047   6.730   9.222 -0.7931  0.4833  0.1246
    8bbb     C2  214   3.830   6.485   9.200  0.0170  0.9222 -0.3314
    8bbb     H3  215   3.889   6.420   9.136 -1.7202  0.3139 -1.3857
    8bbb     H4  216   3.724   6.486   9.173  0.1720  0.2418 -0.9759
    8bbb     C3  217   3.813   6.725   9.291 -0.9255  0.4821 -0.3527
    8bbb     H5  218   3.831   6.694   9.394 -2.1421  1.0235  0.0466
    8bbb     H6  219   3.704   6.715   9.286 -1.0731  1.6570  0.1853
    8bbb     C4  220   3.845   6.879   9.289  0.0513  0.3447  0.1295
    8bbb     H7  221   3.811   6.922   9.194  1.1925  1.2892  0.1217
    8bbb     H8  222   3.954   6.891   9.276  0.4239 -3.2559 -1.2487
    8bbb     C5  223   4.116   6.541   9.120 -0.0591 -0.0368 -0.0215
    8bbb     H9  224   4.075   6.559   9.019 -0.6970  0.2978  0.2869
    8bbb    H10  225   4.097   6.436   9.145 -0.2161  0.6575  3.1404
    8bbb     C6  226   3.842   6.413   9.334  0.3941  0.6615 -1.1874
    8bbb    H11  227   3.771   6.460   9.403  0.8103  0.1776 -0.4106
    8bbb    H12  228   3.939   6.427   9.383  0.4124 -1.6705 -0.3900
    8bbb     C7  229   3.797   6.960   9.414  0.4465  0.6328 -0.3152
    8bbb    H13  230   3.852   7.055   9.417  0.2587  0.7121  1.3812
    8bbb    H14  231   3.830   6.897   9.498 -3.3171  1.0561  1.6710
    8bbb     C8  232   3.795   6.261   9.323 -0.5631 -0.3775 -0.2136
    8bbb    H15  233   3.880   6.208   9.278 -2.4525 -0.6875 -3.7902
    8bbb    H16  234   3.773   6.224   9.424  0.0635 -0.4577 -0.1073
    8bbb     C9  235   4.266   6.570   9.141  0.3107 -0.0018 -0.1978
    8bbb    H17  236   4.304   6.528   9.235  0.3521 -1.5732 -0.8828
    8bbb    H18  237   4.278   6.679   9.146  1.6057 -0.1840  2.8176
    8bbb     O1  238   3.651   6.970   9.395  0.3392 -0.0927  0.5071
    8bbb    H19  239   3.869   6.669   9.098 -1.3775  1.6200  1.0828
    9bbb     N1  240   3.395   9.094  10.312  0.4196 -0.0221 -0.4673
    9bbb     C1  241   3.501   8.994  10.362 -0.2704 -0.3969 -0.5596
    9bbb     H1  242   3.567   9.055  10.424 -1.1697 -0.7058  0.7443
    9bbb     H2  243   3.555   8.945  10.282 -0.8815 -0.5416 -0.8834
    9bbb     C2  244   3.471   9.219  10.256 -0.0365 -0.2916  0.1639
    9bbb     H3  245   3.528   9.178  10.173  0.8540  2.4330 -0.6752
    9bbb     H4  246   3.547   9.249  10.328 -1.3093 -1.8150  2.2842
    9bbb     C3  247   3.303   9.026  10.207  0.0052 -0.1450  0.0571
    9bbb     H5  248   3.245   9.111  10.171  1.2164  0.0709 -1.4775
    9bbb     H6  249   3.247   8.946  10.257  2.6507 -1.9683  0.2997
    9bbb     C4  250   3.376   8.966  10.089  0.3368  0.4076 -0.1069
    9bbb     H7  251   3.454   8.896  10.121 -0.2909  0.7107  2.2366
    9bbb     H8  252   3.434   9.042  10.037  2.0595 -1.8727 -1.7505
    9bbb     C5  253   3.449   8.890  10.461 -0.3113 -0.6569 -0.0701
    9bbb     H9  254   3.523   8.811  10.482  0.7713  0.6097  1.1206
    9bbb    H10  255   3.362   8.841  10.417 -1.8425 -0.0814  2.1336
    9bbb     C6  256   3.384   9.328  10.198  0.1363  0.3335  0.1007
    9bbb    H11  257   3.320   9.381  10.271 -0.3478  1.8328 -1.3485
    9bbb    H12  258   3.315   9.281  10.126  1.2019  0.1069 -0.7941
    9bbb     C7  259   3.278   8.899   9.989 -0.6707 -0.5578 -0.5728
    9bbb    H13  260   3.332   8.855   9.905 -0.8187  0.8548 -1.4555
    9bbb    H14  261   3.215   8.981   9.952 -1.4514 -0.9739 -0.1889
    9bbb     C8  262   3.471   9.424  10.118  0.2871 -0.9111 -0.1268
    9bbb    H15  263   3.511   9.378  10.027  0.6687  0.4290 -0.6535
    9bbb    H16  264   3.410   9.510  10.090  0.6282 -1.5674 -3.2833
    9bbb     C9  265   3.404   8.962  10.589  0.0419 -0.8251  0.3505
    9bbb    H17  266   3.356   8.887  10.655 -2.1335  1.2124  1.2225
    9bbb    H18  267   3.322   9.026  10.553  0.6394 -1.6556 -2.7737
    9bbb     O1  268   3.186   8.806  10.050 -0.7548  0.1146  0.0469
    9bbb    H19  269   3.342   9.125  10.395  0.2745 -0.6342 -0.3268
   10bbb     N1  270   2.348   8.761  10.251  0.5940 -0.3200 -0.1880
   10bbb     C1  271   2.453   8.854  10.306 -0.1070 -0.0888 -0.3972
   10bbb     H1  272   2.420   8.953  10.274  1.3155  0.7946  0.7647
   10bbb     H2  273   2.547   8.833  10.255 -0.5802 -0.6903 -1.0351
   10bbb     C2  274   2.248   8.843  10.163  0.5304  0.2594 -0.3831
   10bbb     H3  275   2.195   8.779  10.092 -2.0565  2.1171 -0.2665
   10bbb     H4  276   2.293   8.921  10.102  1.0437  0.2403 -0.0330
   10bbb     C3  277   2.418   8.674  10.153  0.1228  0.6261 -0.2451
   10bbb     H5  278   2.455   8.730  10.067  1.1988  1.2085  0.5798
   10bbb     H6  279   2.353   8.598  10.109  3.7632 -1.9002 -1.7683
   10bbb     C4  280   2.519   8.577  10.216  0.3832  0.3291  0.1166
   10bbb     H7  281   2.462   8.512  10.284 -1.2004  1.6051  0.0840
   10bbb     H8  282   2.592   8.630  10.277 -0.7260  3.1994 -0.8812
   10bbb     C5  283   2.484   8.844  10.456 -0.0487  0.1935  0.8763
   10bbb     H9  284   2.563   8.911  10.489  0.9828 -0.7117  0.3126
   10bbb    H10  285   2.511   8.739  10.474  2.8918  0.8505  0.8261
   10bbb     C6  286   2.124   8.903  10.238  0.5424  0.0848 -0.2767
   10bbb    H11  287   2.163   8.972  10.314 -1.0815  0.0154  0.6580
   10bbb    H12  288   2.063   8.827  10.288 -0.6882  0.8644 -0.5629
   10bbb     C7  289   2.595   8.502  10.106 -0.0250  0.4457 -0.5462
   10bbb    H13  290   2.534   8.423  10.061 -1.4358  1.0410  0.2796
   10bbb    H14  291   2.682   8.454  10.153 -1.0545 -0.3827  0.5501
   10bbb     C8  292   2.038   8.985  10.139  0.0532 -0.3140  0.6422
   10bbb    H15  293   2.109   9.046  10.081 -1.3725 -0.1438 -0.9717
   10bbb    H16  294   1.974   8.935  10.067  2.3809  0.7650 -2.3931
   10bbb     C9  295   2.362   8.883  10.542  0.2607 -0.3244  0.1013
   10bbb    H17  296   2.323   8.974  10.495 -1.0504 -0.1490  1.4725
   10bbb    H18  297   2.401   8.904  10.642 -1.3586 -2.0681  1.1659
   10bbb     O1  298   2.635   8.595  10.003  0.2950 -0.1342 -0.1770
   10bbb    H19  299   2.299   8.712  10.328  0.9140 -1.6989 -0.8210
   11bbb     N1  300   4.586   8.418   7.721 -0.2657 -0.1521  0.7438
   11bbb     C1  301   4.499   8.510   7.628  0.0970  0.4510 -0.3111
   11bbb     H1  302   4.559   8.540   7.542 -0.6040  0.3840 -0.8326
   11bbb     H2  303   4.462   8.594   7.687 -1.6395  0.4885 -1.3679
   11bbb     C2  304   4.649   8.299   7.645  0.1560  0.0690 -0.0222
   11bbb     H3  305   4.562   8.238   7.620  0.2002 -0.3306  0.7692
   11bbb     H4  306   4.701   8.243   7.723  0.2476 -1.6916 -1.2931
   11bbb     C3  307   4.706   8.493   7.786  0.7553  0.2061 -0.2101
   11bbb     H5  308   4.791   8.517   7.720  0.7124 -2.9469 -1.5637
   11bbb     H6  309   4.753   8.427   7.859  2.1232  2.7026  1.3066
   11bbb     C4  310   4.663   8.622   7.854 -0.1380 -0.6431 -0.3815
   11bbb     H7  311   4.602   8.696   7.801  1.4447  2.0309  1.3576
   11bbb     H8  312   4.745   8.685   7.888  0.2788  0.8310 -3.7098
   11bbb     C5  313   4.372   8.445   7.579 -0.2234  0.3077 -0.8102
   11bbb     H9  314   4.304   8.412   7.659 -1.1463  0.0945 -1.6599
   11bbb    H10  315   4.399   8.357   7.520  1.1099  0.7759 -0.9350
   11bbb     C6  316   4.738   8.323   7.526 -1.0907 -0.1741 -0.1640
   11bbb    H11  317   4.829   8.366   7.571 -0.6568  0.3565 -1.5049
   11bbb    H12  318   4.684   8.385   7.454 -0.4556 -0.0193 -0.5127
   11bbb     C7  319   4.594   8.583   7.983  0.8763  0.0287  0.2368
   11bbb    H13  320   4.604   8.665   8.055  0.2810  0.2986  0.0177
   11bbb    H14  321   4.655   8.505   8.031  1.7433  1.1032  0.9356
   11bbb     C8  322   4.776   8.183   7.462 -0.7721  0.9842 -0.3718
   11bbb    H15  323   4.829   8.117   7.531 -1.3687  0.2588 -0.6008
   11bbb    H16  324   4.688   8.126   7.430  1.3013 -1.1569 -2.8090
   11bbb     C9  325   4.290   8.545   7.500  0.4176  0.0107  0.2720
   11bbb    H17  326   4.272   8.632   7.564  0.4068 -0.3824  0.8083
   11bbb    H18  327   4.192   8.515   7.462  1.8565 -1.5072 -2.6243
   11bbb     O1  328   4.453   8.555   7.956 -0.4321 -0.5572  0.3377
   11bbb    H19  329   4.531   8.388   7.803  0.1430 -0.7070  0.8293
   12bbb     N1  330   4.736   9.441   8.123 -0.0712  0.4157  0.3876
   12bbb     C1  331   4.834   9.388   8.222  0.0923 -0.0371  0.9437
   12bbb     H1  332   4.791   9.405   8.321  2.2377 -2.7840  2.5023
   12bbb     H2  333   4.921   9.454   8.219 -1.2761  1.8277  1.0098
   12bbb     C2  334   4.808   9.453   7.987 -0.3797 -0.2701 -0.1591
   12bbb     H3  335   4.841   9.350   7.976  1.1373  0.0797  0.7782
   12bbb     H4  336   4.889   9.525   7.998 -1.3024  1.1120 -1.9040
   12bbb     C3  337   4.614   9.356   8.112  0.2892 -0.2647  0.3047
   12bbb     H5  338   4.641   9.251   8.125 -1.2772 -0.5170  1.8841
   12bbb     H6  339   4.568   9.376   8.015  0.1232 -0.1154  0.4130
   12bbb     C4  340   4.507   9.369   8.222  0.4468  0.2779 -0.1004
   12bbb     H7  341   4.450   9.459   8.198  2.0203  0.9293 -1.5971
   12bbb     H8  342   4.556   9.377   8.320 -0.5698 -4.2798  1.0078
   12bbb     C5  343   4.880   9.242   8.217  0.6617  0.5770  0.2410
   12bbb     H9  344   4.915   9.226   8.115  0.4305  0.6721  0.1466
   12bbb    H10  345   4.797   9.173   8.238  1.3402 -0.1966  0.4477
   12bbb     C6  346   4.726   9.510   7.862  0.3741  0.5622  0.1083
   12bbb    H11  347   4.674   9.597   7.905 -0.2778 -0.8946  2.4407
   12bbb    H12  348   4.652   9.438   7.826  2.0201 -0.0896 -2.2364
   12bbb     C7  349   4.395   9.263   8.206  0.4289 -0.4253  0.7832
   12bbb    H13  350   4.343   9.264   8.110 -0.7428  0.2024  1.4000
   12bbb    H14  351   4.317   9.296   8.276  1.6984  0.3697  1.8700
   12bbb     C8  352   4.829   9.546   7.756  0.4836 -0.2987  0.4786
   12bbb    H15  353   4.888   9.454   7.756 -0.8918 -1.2153 -0.8216
   12bbb    H16  354   4.782   9.551   7.658  0.2025 -2.1716  0.4849
   12bbb     C9  355   4.993   9.218   8.320  0.1489  0.4509 -0.1228
   12bbb    H17  356   5.017   9.111   8.324 -2.5033 -0.1732  0.9215
   12bbb    H18  357   4.952   9.252   8.416  2.1529 -0.5076  1.1245
   12bbb     O1  358   4.427   9.127   8.239 -0.0126  0.1969  0.9041
   12bbb    H19  359   4.708   9.534   8.158 -0.5249 -0.0782  1.3729
   13bbb     N1  360   2.496   7.507   7.181 -0.2214 -0.3246  0.2808
   13bbb     C1  361   2.566   7.382   7.236  0.0146 -0.5242 -0.2963
   13bbb     H1  362   2.495   7.301   7.251  0.4214 -1.0570 -1.1615
   13bbb     H2  363   2.601   7.390   7.339 -0.5625  0.4570 -0.1573
   13bbb     C2  364   2.358   7.528   7.227 -1.4140  0.0758 -0.5259
   13bbb     H3  365   2.368   7.552   7.333  1.3245 -1.4353 -0.3631
   13bbb     H4  366   2.306   7.433   7.220 -1.5306  0.1821 -1.1342
   13bbb     C3  367   2.596   7.626   7.198  0.5791 -0.0525  0.0768
   13bbb     H5  368   2.561   7.713   7.143 -3.8388 -1.1214  0.8234
   13bbb     H6  369   2.686   7.584   7.152  0.3853  0.6138 -0.9325
   13bbb     C4  370   2.626   7.670   7.340  0.9025  0.1569 -0.4105
   13bbb     H7  371   2.595   7.593   7.412 -1.5070 -0.7731 -2.2856
   13bbb     H8  372   2.568   7.759   7.366 -2.7017 -1.8951 -0.8289
   13bbb     C5  373   2.689   7.334   7.148 -0.2987  0.5354  0.2259
   13bbb     H9  374   2.733   7.246   7.196 -1.0745 -1.1045 -1.9074
   13bbb    H10  375   2.764   7.413   7.138  0.3180 -0.1603 -0.7779
   13bbb     C6  376   2.269   7.624   7.150 -0.3291  0.5480 -0.2176
   13bbb    H11  377   2.315   7.723   7.138 -1.8836  1.3432  0.1241
   13bbb    H12  378   2.173   7.641   7.198 -1.1071 -1.0689 -1.1443
   13bbb     C7  379   2.776   7.674   7.369 -0.1818  0.2709 -0.1006
   13bbb    H13  380   2.841   7.719   7.294 -0.7497 -2.8490 -2.6750
   13bbb    H14  381   2.810   7.570   7.365 -2.4135 -0.4730 -3.0681
   13bbb     C8  382   2.243   7.582   7.009  0.0654 -0.0256  0.1959
   13bbb    H15  383   2.173   7.655   6.966  0.8598 -0.4398 -1.9396
   13bbb    H16  384   2.339   7.558   6.963  0.4134 -2.3815  2.0095
   13bbb     C9  385   2.650   7.290   7.008  0.1674 -0.0640 -0.0297
   13bbb    H17  386   2.577   7.209   7.022 -0.1128  0.5816  3.2611
   13bbb    H18  387   2.747   7.256   6.971  0.5826 -0.7310  1.5948
   13bbb     O1  388   2.809   7.743   7.492  0.1591 -0.1223 -0.0308
   13bbb    H19  389   2.481   7.501   7.079 -2.0418 -0.0992  0.5055
   14bbb     N1  390   2.321   8.384   8.171 -0.3426 -0.1820  0.0042
   14bbb     C1  391   2.440   8.453   8.235 -0.4303 -0.1515 -0.1414
   14bbb     H1  392   2.501   8.491   8.153 -2.0818  0.6737 -1.0466
   14bbb     H2  393   2.510   8.385   8.283 -0.1031  0.5480  0.3911
   14bbb     C2  394   2.236   8.465   8.072  0.0048 -0.2627 -0.0171
   14bbb     H3  395   2.298   8.503   7.991 -0.8914  1.4603  0.0607
   14bbb     H4  396   2.194   8.548   8.129  1.4139 -1.0854  2.3497
   14bbb     C3  397   2.369   8.263   8.096 -0.3363  0.1398  0.3061
   14bbb     H5  398   2.414   8.305   8.006 -1.2472 -1.6750 -1.0863
   14bbb     H6  399   2.279   8.208   8.067 -0.3155  0.4214 -0.2990
   14bbb     C4  400   2.451   8.156   8.167 -0.5886  0.0756 -0.5360
   14bbb     H7  401   2.397   8.109   8.250 -1.5272  0.6493 -0.8042
   14bbb     H8  402   2.537   8.202   8.216 -0.5830  1.2327 -1.5884
   14bbb     C5  403   2.407   8.567   8.335 -0.4400 -0.0101  0.1282
   14bbb     H9  404   2.362   8.656   8.289 -0.7505  0.8992  2.0988
   14bbb    H10  405   2.503   8.595   8.380 -1.3159  0.7573  1.5854
   14bbb     C6  406   2.118   8.398   8.002  0.2177 -0.1578  0.4822
   14bbb    H11  407   2.070   8.349   8.087  1.8183  0.6110  1.9065
   14bbb    H12  408   2.159   8.322   7.935 -0.7339  0.1024 -0.4248
   14bbb     C7  409   2.496   8.041   8.071  0.3463 -0.6935 -0.0908
   14bbb    H13  410   2.407   8.000   8.021  0.3823  0.6556 -1.3332
   14bbb    H14  411   2.544   7.961   8.128  0.3942 -0.1726  0.6113
   14bbb     C8  412   2.034   8.500   7.913  0.6723  0.0289 -0.4616
   14bbb    H15  413   1.977   8.433   7.847  0.6291 -0.9914  0.5860
   14bbb    H16  414   1.971   8.558   7.982  2.0301 -1.5039  2.2244
   14bbb     C9  415   2.312   8.508   8.442 -0.4334 -0.4331  0.1855
   14bbb    H17  416   2.330   8.564   8.535  0.3627 -1.5993  0.7627
   14bbb    H18  417   2.339   8.406   8.471  0.3623 -0.8186 -1.7516
   14bbb     O1  418   2.588   8.105   7.974  0.0784  0.3558  0.6500
   14bbb    H19  419   2.256   8.356   8.246 -1.9996  0.7361 -1.0053
   15bbb     N1  420   4.907   6.733  10.729  0.5934 -0.1836 -0.0436
   15bbb     C1  421   4.884   6.593  10.684 -0.3617  0.1876  0.2480
   15bbb     H1  422   4.792   6.561  10.732  0.6004 -1.1769  1.2761
   15bbb     H2  423   4.964   6.536  10.731  0.2155  1.2906  0.6461
   15bbb     C2  424   5.035   6.803  10.682 -0.8734 -0.5039  0.1208
   15bbb     H3  425   5.053   6.894  10.741  2.4312 -0.4067 -0.7921
   15bbb     H4  426   5.022   6.844  10.581  2.3611 -0.6734 -0.4758
   15bbb     C3  427   4.790   6.818  10.684  0.4312 -0.0589 -0.2627
   15bbb     H5  428   4.705   6.751  10.697  2.3376 -2.6563 -0.5277
   15bbb     H6  429   4.816   6.848  10.582  0.2822  2.3867  0.3470
   15bbb     C4  430   4.754   6.945  10.765 -0.3078 -0.2314  0.4839
   15bbb     H7  431   4.852   6.995  10.764  0.2781 -1.3461  0.1065
   15bbb     H8  432   4.746   6.915  10.870  2.2284 -1.6439  0.3661
   15bbb     C5  433   4.887   6.584  10.529 -0.1056  0.2342 -0.0719
   15bbb     H9  434   4.960   6.652  10.485  1.6352 -0.8984  0.9566
   15bbb    H10  435   4.790   6.619  10.490 -0.9056 -0.4763  1.1812
   15bbb     C6  436   5.172   6.720  10.681  0.1537 -0.1938  0.8108
   15bbb    H11  437   5.158   6.628  10.623  1.8852  0.2192 -0.3055
   15bbb    H12  438   5.205   6.686  10.780  2.2407 -0.8493 -0.0689
   15bbb     C7  439   4.637   7.041  10.711 -0.2610 -0.4707 -0.1289
   15bbb    H13  440   4.638   7.126  10.780  2.1067 -0.8914  0.4506
   15bbb    H14  441   4.537   6.998  10.721 -0.2419  0.0162  3.8822
   15bbb     C8  442   5.293   6.793  10.611 -0.4155 -0.5609  0.4821
   15bbb    H15  443   5.364   6.710  10.618  0.0722 -0.3626 -1.5785
   15bbb    H16  444   5.279   6.829  10.508  2.5078  2.3085  0.9029
   15bbb     C9  445   4.907   6.438  10.473  0.7381 -0.4326  0.2496
   15bbb    H17  446   5.000   6.389  10.503  0.6452  0.5102  2.2491
   15bbb    H18  447   4.911   6.446  10.363  1.6830  1.9433  0.3973
   15bbb     O1  448   4.668   7.084  10.581  0.6732  0.6160 -0.0063
   15bbb    H19  449   4.904   6.729  10.832 -2.7242  0.6536  0.0338
   16bbb     N1  450   3.872   6.993  11.006  1.2224  0.1775 -0.2052
   16bbb     C1  451   3.901   7.055  11.142  0.1095 -0.0526  0.4360
   16bbb     H1  452   3.879   7.161  11.134  0.4110 -0.0446 -0.3556
   16bbb     H2  453   4.001   7.023  11.171 -0.6898 -0.8426  2.4810
   16bbb     C2  454   3.725   7.032  10.961  0.0707 -0.3247 -0.1208
   16bbb     H3  455   3.667   7.027  11.053 -0.0329  0.1557 -0.1593
   16bbb     H4  456   3.687   6.951  10.899 -3.1239  0.6218  0.4314
   16bbb     C3  457   3.958   7.044  10.899 -0.3767 -1.0130 -0.1564
   16bbb     H5  458   3.951   7.153  10.903 -0.4977 -0.7678 -3.5715
   16bbb     H6  459   3.914   7.013  10.804 -1.5748  2.3974 -0.8558
   16bbb     C4  460   4.106   7.012  10.892 -0.0728  0.3776 -0.1872
   16bbb     H7  461   4.109   6.903  10.886  2.2793  0.3113  1.0730
   16bbb     H8  462   4.167   7.046  10.977  0.5845  3.4986 -1.7685
   16bbb     C5  463   3.829   6.999  11.263 -0.3807 -0.7181 -0.2573
   16bbb     H9  464   3.730   7.046  11.265  0.4494  1.1248 -0.7123
   16bbb    H10  465   3.888   7.030  11.350 -0.7287  0.2248 -0.3431
   16bbb     C6  466   3.711   7.175  10.904 -0.6689 -0.0322  0.3048
   16bbb    H11  467   3.766   7.183  10.810 -0.0039  0.8812  0.7522
   16bbb    H12  468   3.739   7.258  10.971 -0.4965 -1.1555  1.6701
   16bbb     C7  469   4.177   7.055  10.764  0.3487 -0.1903  0.1093
   16bbb    H13  470   4.284   7.028  10.767  0.5717  0.6696  0.0331
   16bbb    H14  471   4.190   7.164  10.767  0.6822 -0.2415  0.6719
   16bbb     C8  472   3.565   7.203  10.869  0.3118  0.4360  0.4653
   16bbb    H15  473   3.553   7.290  10.804 -3.1587  0.8427  1.4390
   16bbb    H16  474   3.528   7.114  10.816 -1.7336 -0.0612  2.5718
   16bbb     C9  475   3.834   6.850  11.261  0.0999  0.1751  0.6977
   16bbb    H17  476   3.759   6.813  11.189  2.1587  1.2630 -2.2174
   16bbb    H18  477   3.806   6.804  11.356  2.6067  0.5277  1.6981
   16bbb     O1  478   4.120   7.013  10.637 -0.2290 -0.2467 -0.4543
   16bbb    H19  479   3.879   6.890  11.009 -2.4343 -0.2330  3.6977
   17bbb     N1  480   3.348   6.118   8.980 -0.0667  0.2803  0.5905
   17bbb     C1  481   3.353   5.980   8.906  0.3060 -1.0446 -0.2765
   17bbb     H1  482   3.281   5.978   8.824  2.4760  4.8763 -2.9275
   17bbb     H2  483   3.332   5.909   8.985  0.4136 -0.1439  0.5854
   17bbb     C2  484   3.204   6.154   9.016  0.5278  0.1145 -0.0378
   17bbb     H3  485   3.144   6.148   8.924 -0.4404  1.7304  0.4537
   17bbb     H4  486   3.201   6.255   9.056 -1.3262  1.3937 -3.0612
   17bbb     C3  487   3.435   6.120   9.106 -0.7705 -0.4836  0.4699
   17bbb     H5  488   3.537   6.087   9.085 -0.2324  1.1042  0.4581
   17bbb     H6  489   3.386   6.053   9.176  0.4988 -0.3118  1.5511
   17bbb     C4  490   3.445   6.262   9.169 -0.1046  0.1753 -0.3310
   17bbb     H7  491   3.353   6.275   9.226 -0.3843 -1.2575 -0.4214
   17bbb     H8  492   3.452   6.336   9.088 -2.2516  1.3348  0.4585
   17bbb     C5  493   3.501   5.948   8.851  0.0712 -0.6718 -0.1042
   17bbb     H9  494   3.578   5.960   8.928  0.4601  0.3220 -0.6355
   17bbb    H10  495   3.522   6.018   8.768 -3.5502  0.2210 -0.4492
   17bbb     C6  496   3.137   6.049   9.110  0.4208  0.1662 -1.3583
   17bbb    H11  497   3.179   6.048   9.211  1.1851  0.4008 -1.6682
   17bbb    H12  498   3.159   5.946   9.078 -0.5879 -0.7641  0.7584
   17bbb     C7  499   3.553   6.265   9.280 -0.0081  0.3470 -0.2216
   17bbb    H13  500   3.521   6.182   9.345  0.8013  0.2347  0.0486
   17bbb    H14  501   3.552   6.359   9.335  0.8504  0.2976 -0.1153
   17bbb     C8  502   2.980   6.062   9.121  0.0773  0.0705 -0.1378
   17bbb    H15  503   2.930   6.032   9.028  0.0479 -2.4272  0.6284
   17bbb    H16  504   2.936   5.992   9.193 -1.3379 -1.0725 -2.0175
   17bbb     C9  505   3.517   5.801   8.805  0.1419  0.2080 -0.1914
   17bbb    H17  506   3.620   5.795   8.766 -0.1941 -0.2237 -1.0612
   17bbb    H18  507   3.454   5.775   8.718 -1.6964  1.5677  0.6842
   17bbb     O1  508   3.683   6.242   9.233  0.2010  0.0224 -0.1979
   17bbb    H19  509   3.384   6.184   8.910  1.0195 -1.1475 -0.2643
   18bbb     N1  510   4.769   6.565   8.803 -0.1555  0.0232  0.7353
   18bbb     C1  511   4.729   6.709   8.811  0.3657  0.0654  0.1153
   18bbb     H1  512   4.756   6.740   8.912 -1.9799 -0.2311  0.8974
   18bbb     H2  513   4.621   6.701   8.804  0.4512 -2.4581  0.6852
   18bbb     C2  514   4.926   6.559   8.791 -0.4547  0.1200 -0.0114
   18bbb     H3  515   4.972   6.645   8.840  0.8195 -0.8592  0.5621
   18bbb     H4  516   4.951   6.574   8.686 -2.0150 -0.1942 -0.4500
   18bbb     C3  517   4.716   6.486   8.923  0.6897 -0.1216  0.7612
   18bbb     H5  518   4.752   6.543   9.009  0.7252  1.3288 -0.1771
   18bbb     H6  519   4.772   6.393   8.929 -0.7722 -0.9952  1.5710
   18bbb     C4  520   4.560   6.460   8.935  0.5104  0.1823 -0.2282
   18bbb     H7  521   4.554   6.352   8.957 -1.0849 -0.7059 -4.0274
   18bbb     H8  522   4.516   6.464   8.834  1.3473 -2.8769 -0.8389
   18bbb     C5  523   4.790   6.796   8.697  0.1436 -1.0105 -1.0397
   18bbb     H9  524   4.740   6.763   8.605 -1.4265  0.6762 -0.8553
   18bbb    H10  525   4.894   6.779   8.669 -0.0227 -0.9487 -1.7050
   18bbb     C6  526   5.002   6.436   8.840 -0.0895  0.0965 -0.6777
   18bbb    H11  527   4.946   6.345   8.816 -1.6411  0.1164  2.3587
   18bbb    H12  528   5.006   6.442   8.950 -1.4294 -0.1975 -0.5973
   18bbb     C7  529   4.480   6.550   9.033 -0.2589 -0.0895 -0.0570
   18bbb    H13  530   4.514   6.651   9.008 -0.1064 -0.0649  0.2488
   18bbb    H14  531   4.536   6.525   9.124  1.3405  0.6509 -0.7917
   18bbb     C8  532   5.151   6.440   8.794  0.3928  0.3793 -0.3402
   18bbb    H15  533   5.167   6.471   8.690 -0.8884 -2.1266 -1.3535
   18bbb    H16  534   5.205   6.517   8.851  2.5942  0.4952 -2.4488
   18bbb     C9  535   4.786   6.947   8.727 -0.0523 -0.0902  0.4058
   18bbb    H17  536   4.681   6.975   8.740 -0.0830 -0.8650  2.0066
   18bbb    H18  537   4.830   7.006   8.645 -0.0657  1.5262  1.5265
   18bbb     O1  538   4.336   6.525   9.028 -0.3745 -0.5413 -0.2624
   18bbb    H19  539   4.736   6.524   8.715  2.6513 -1.1091  0.0933
   19bbb     N1  540   3.988   9.580  10.349  0.0248 -0.5866 -1.0797
   19bbb     C1  541   3.997   9.696  10.447 -0.2701 -0.0551 -0.0201
   19bbb     H1  542   3.956   9.653  10.538 -0.9454  0.3649 -0.1205
   19bbb     H2  543   3.937   9.778  10.407  1.3721  1.0133 -0.4002
   19bbb     C2  544   4.055   9.462  10.413 -0.0504  0.3650  0.3389
   19bbb     H3  545   3.999   9.449  10.506  1.1173  0.0534  1.0148
   19bbb     H4  546   4.158   9.490  10.436  0.4710 -1.1611 -0.0216
   19bbb     C3  547   3.843   9.545  10.307  0.0280  0.5190 -0.0842
   19bbb     H5  548   3.791   9.510  10.396 -0.4846 -0.0480 -0.5996
   19bbb     H6  549   3.861   9.462  10.239  1.7373  1.5291 -0.9630
   19bbb     C4  550   3.760   9.644  10.222  0.3769 -0.0309 -0.0291
   19bbb     H7  551   3.821   9.697  10.147 -1.6609  1.6355 -0.6057
   19bbb     H8  552   3.708   9.714  10.289  1.1541 -0.3803  0.9580
   19bbb     C5  553   4.147   9.756  10.464  0.4806 -0.0948 -0.7037
   19bbb     H9  554   4.174   9.793  10.365 -0.0282 -0.7863 -1.1085
   19bbb    H10  555   4.224   9.683  10.491  0.6904  1.0796  2.3019
   19bbb     C6  556   4.064   9.323  10.342  0.3558 -0.2920  0.4132
   19bbb    H11  557   4.104   9.335  10.241  0.9703 -0.0890  0.6737
   19bbb    H12  558   3.963   9.284  10.327 -0.5543  1.7614  0.7969
   19bbb     C7  559   3.651   9.577  10.134 -0.6633  0.6095  0.1879
   19bbb    H13  560   3.695   9.535  10.043 -1.2270 -3.3536  1.5094
   19bbb    H14  561   3.579   9.653  10.102 -1.2794 -0.5529 -1.3586
   19bbb     C8  562   4.149   9.225  10.431 -0.2656  0.2325  0.1254
   19bbb    H15  563   4.249   9.268  10.451 -0.3594  0.3993  0.2411
   19bbb    H16  564   4.104   9.216  10.530  1.5208 -0.0175  0.9597
   19bbb     C9  565   4.149   9.875  10.560 -0.5545 -0.3774 -0.0375
   19bbb    H17  566   4.253   9.895  10.586 -0.3073 -2.9506  1.3205
   19bbb    H18  567   4.087   9.869  10.651 -0.0967  3.0351  0.6284
   19bbb     O1  568   3.579   9.476  10.202 -0.4185  0.1631 -0.5810
   19bbb    H19  569   4.037   9.597  10.260 -0.1783  0.1353 -1.0636
   20bbb     N1  570   3.448   9.281  11.025 -0.1498  0.0633 -0.7183
   20bbb     C1  571   3.403   9.270  11.170 -0.1336  0.0616 -0.4425
   20bbb     H1  572   3.335   9.354  11.179  0.4902  0.5592 -0.2811
   20bbb     H2  573   3.493   9.287  11.230 -1.0019  1.8967  0.4012
   20bbb     C2  574   3.498   9.419  11.001  0.6575  0.3153  0.3008
   20bbb     H3  575   3.550   9.415  10.905  1.7672 -0.8242  0.9133
   20bbb     H4  576   3.574   9.433  11.078 -0.0500 -0.1332  1.0995
   20bbb     C3  577   3.559   9.184  10.997  0.5785 -0.2790  0.1617
   20bbb     H5  578   3.527   9.089  11.039 -0.3976 -1.4278 -2.8783
   20bbb     H6  579   3.645   9.215  11.056  1.2735 -0.5857 -0.6581
   20bbb     C4  580   3.583   9.162  10.851  0.4093  1.2813  0.2482
   20bbb     H7  581   3.671   9.097  10.843 -0.9987 -0.7461  0.5345
   20bbb     H8  582   3.602   9.253  10.792 -0.9502  2.1281  1.0619
   20bbb     C5  583   3.327   9.137  11.209 -0.4593  0.6102  0.3957
   20bbb     H9  584   3.393   9.050  11.198 -0.9510  0.4943 -2.2215
   20bbb    H10  585   3.238   9.116  11.148 -0.0571  0.3354 -0.0975
   20bbb     C6  586   3.400   9.542  11.003  0.3937  0.0104  0.5926
   20bbb    H11  587   3.369   9.571  11.104  0.4069 -0.3777  0.7116
   20bbb    H12  588   3.314   9.488  10.961  0.7328 -1.1193  1.3112
   20bbb     C7  589   3.465   9.085  10.785 -0.6393  0.1219 -0.5536
   20bbb    H13  590   3.392   9.166  10.769  0.4119  0.9622 -1.2261
   20bbb    H14  591   3.417   9.016  10.855  0.9546 -0.6293 -0.1814
   20bbb     C8  592   3.470   9.659  10.937  0.8091 -0.0944  0.0596
   20bbb    H15  593   3.493   9.641  10.831  0.4765  1.3025 -0.2690
   20bbb    H16  594   3.406   9.748  10.932  1.1732  0.1015 -2.9569
   20bbb     C9  595   3.286   9.138  11.356  0.5668 -0.1011  0.6294
   20bbb    H17  596   3.267   9.243  11.384  1.1060  0.3415 -0.5906
   20bbb    H18  597   3.373   9.101  11.412  1.3347  0.6202 -0.0589
   20bbb     O1  598   3.510   9.026  10.662 -0.2981 -0.1290  0.9130
   20bbb    H19  599   3.371   9.268  10.957  0.4137 -1.1058 -1.1543
   21bbb     N1  600   1.807   9.461  10.378 -0.0408  0.4827 -0.2373
   21bbb     C1  601   1.916   9.548  10.426  0.2168 -0.8350  0.1257
   21bbb     H1  602   1.875   9.639  10.471  1.9004 -0.4322  0.9462
   21bbb     H2  603   1.987   9.581  10.350 -1.1527 -0.6208 -1.0789
   21bbb     C2  604   1.693   9.536  10.303  0.7163  0.4346 -0.4810
   21bbb     H3  605   1.624   9.460  10.267  1.7983 -0.5364 -0.5660
   21bbb     H4  606   1.740   9.583  10.217  1.2209 -1.5407 -1.3456
   21bbb     C3  607   1.884   9.370  10.278 -0.2858  0.1332 -0.1680
   21bbb     H5  608   1.964   9.324  10.336  0.9846 -0.8265 -2.5393
   21bbb     H6  609   1.918   9.426  10.191 -4.5498 -0.8423 -2.7612
   21bbb     C4  610   1.786   9.263  10.225 -0.4191 -0.8028  0.0918
   21bbb     H7  611   1.701   9.302  10.169  0.3416  1.1325  0.1906
   21bbb     H8  612   1.750   9.205  10.311  1.2726 -0.0876  1.3377
   21bbb     C5  613   1.992   9.469  10.538 -0.1796  0.0746 -0.6045
   21bbb     H9  614   2.088   9.520  10.554 -1.2309  1.5952  1.1834
   21bbb    H10  615   2.030   9.370  10.507  1.2229  0.3703  0.0711
   21bbb     C6  616   1.616   9.632  10.387  0.1027 -0.2848  0.0678
   21bbb    H11  617   1.690   9.711  10.407  2.4126 -2.4867  0.8671
   21bbb    H12  618   1.593   9.596  10.488 -0.6414  2.9211  1.1488
   21bbb     C7  619   1.867   9.152  10.145  0.0177 -0.6734 -0.4989
   21bbb    H13  620   1.922   9.199  10.063  0.0365  0.5489  0.1760
   21bbb    H14  621   1.791   9.088  10.100  0.5912 -1.9477  0.2978
   21bbb     C8  622   1.491   9.704  10.336  0.2126 -0.5658  0.0922
   21bbb    H15  623   1.526   9.773  10.258 -1.7621  0.0723 -0.2883
   21bbb    H16  624   1.421   9.637  10.285  0.6624 -2.1402  1.4808
   21bbb     C9  625   1.914   9.465  10.676  0.2471 -0.0521  0.2460
   21bbb    H17  626   1.984   9.451  10.760  1.4674 -1.2874 -0.9133
   21bbb    H18  627   1.848   9.378  10.681  1.0237 -1.1073 -3.9012
   21bbb     O1  628   1.967   9.078  10.216  0.3942  0.2875  0.0441
   21bbb    H19  629   1.777   9.411  10.463  0.1805  0.0631 -0.4003
   22bbb     N1  630   1.818   8.576  10.679 -0.2518  0.4000 -0.5995
   22bbb     C1  631   1.888   8.440  10.686  0.3249  0.7163  0.2460
   22bbb     H1  632   1.924   8.431  10.788 -1.3620  0.8656  0.8808
   22bbb     H2  633   1.963   8.431  10.607  2.4497 -2.2362  2.3427
   22bbb     C2  634   1.711   8.595  10.786 -0.0331  0.1607 -0.3169
   22bbb     H3  635   1.763   8.618  10.879  0.6260 -3.3339  0.3511
   22bbb     H4  636   1.653   8.504  10.806 -1.9414  1.1153 -1.1911
   22bbb     C3  637   1.920   8.685  10.706  0.1779  0.5706 -0.1440
   22bbb     H5  638   1.964   8.671  10.804 -0.2819 -3.9620 -0.3935
   22bbb     H6  639   1.867   8.781  10.698  2.0500  1.5117 -2.2807
   22bbb     C4  640   2.035   8.701  10.602 -0.6033  0.3448  0.1000
   22bbb     H7  641   1.992   8.718  10.503  1.1064  1.5269 -0.4906
   22bbb     H8  642   2.095   8.609  10.605  0.3986  0.9389 -0.8700
   22bbb     C5  643   1.796   8.321  10.671 -0.2633  1.0564  0.4199
   22bbb     H9  644   1.769   8.313  10.565  1.7767  1.6605 -0.1770
   22bbb    H10  645   1.706   8.336  10.733  0.7271  0.2782  2.1266
   22bbb     C6  646   1.598   8.699  10.764  0.2818 -0.3832 -0.6904
   22bbb    H11  647   1.533   8.658  10.686 -0.7059  0.2465 -0.2068
   22bbb    H12  648   1.634   8.777  10.696 -1.9226 -1.5473 -3.3587
   22bbb     C7  649   2.136   8.815  10.626 -0.7625 -0.2513  0.7190
   22bbb    H13  650   2.174   8.817  10.728  2.5697 -0.8366 -0.3824
   22bbb    H14  651   2.097   8.913  10.596  1.1222  0.3952  0.2292
   22bbb     C8  652   1.526   8.748  10.891  0.7858  0.5065  0.0716
   22bbb    H15  653   1.594   8.800  10.959  2.1353 -1.4922  0.3100
   22bbb    H16  654   1.452   8.815  10.844 -0.7061 -2.9995 -3.1344
   22bbb     C9  655   1.863   8.189  10.707 -0.2527 -0.4297  0.5266
   22bbb    H17  656   1.945   8.195  10.780  0.0178  0.1489  0.1894
   22bbb    H18  657   1.914   8.145  10.621 -2.3505 -0.7679 -0.5832
   22bbb     O1  658   2.257   8.784  10.545 -0.4260  0.3894 -0.7747
   22bbb    H19  659   1.773   8.583  10.587  0.2903 -1.3087 -1.0218
   23bbb     N1  660   5.101   8.436   7.047 -0.0043 -0.1630 -0.4103
   23bbb     C1  661   5.201   8.374   7.140 -0.7790 -0.2163  0.0135
   23bbb     H1  662   5.184   8.266   7.141  1.8091 -0.7123 -0.9853
   23bbb     H2  663   5.180   8.419   7.237  2.0796 -1.5824  1.3971
   23bbb     C2  664   5.099   8.372   6.914 -0.8711 -0.5282  0.4633
   23bbb     H3  665   5.059   8.272   6.932  0.9511 -1.3547  0.1508
   23bbb     H4  666   5.205   8.368   6.889 -0.4865  0.6898  1.7832
   23bbb     C3  667   4.968   8.417   7.113 -0.0444  0.0522  0.0260
   23bbb     H5  668   4.902   8.493   7.072  2.3078  1.3446 -1.5001
   23bbb     H6  669   4.984   8.436   7.219  0.1808  1.7120 -0.2925
   23bbb     C4  670   4.906   8.272   7.114 -0.1818 -0.4640 -0.0594
   23bbb     H7  671   4.981   8.195   7.135 -2.1237 -1.9413  2.0057
   23bbb     H8  672   4.860   8.253   7.016  0.6174  2.9642 -1.2655
   23bbb     C5  673   5.350   8.406   7.118  0.3793 -0.3220 -0.3289
   23bbb     H9  674   5.370   8.507   7.157 -0.9139 -0.1197 -0.1432
   23bbb    H10  675   5.372   8.415   7.011 -2.1470 -1.0867 -0.9781
   23bbb     C6  676   5.023   8.455   6.804  0.5483  0.3004 -0.1576
   23bbb    H11  677   5.076   8.549   6.786  1.3202  0.2024  1.4458
   23bbb    H12  678   4.920   8.476   6.837  0.0091 -4.0547  1.6934
   23bbb     C7  679   4.793   8.258   7.222 -0.2900 -0.2569 -0.0583
   23bbb    H13  680   4.702   8.204   7.197 -0.2946  0.0234 -0.6587
   23bbb    H14  681   4.759   8.355   7.262  1.6406  0.1660  0.6690
   23bbb     C8  682   5.024   8.386   6.671 -0.3569  0.3025 -0.0054
   23bbb    H15  683   4.965   8.294   6.674 -1.1451  0.7588 -0.8582
   23bbb    H16  684   4.987   8.444   6.585 -1.4417 -1.9300 -1.1271
   23bbb     C9  685   5.433   8.299   7.198 -0.4837 -1.1204  0.3601
   23bbb    H17  686   5.424   8.307   7.307  0.9474 -0.1994  0.4508
   23bbb    H18  687   5.542   8.306   7.185  0.0921 -1.3375  3.8980
   23bbb     O1  688   4.857   8.206   7.346 -0.7972 -0.7026  0.4701
   23bbb    H19  689   5.116   8.537   7.029  0.0769  0.2157  1.5803
   24bbb     N1  690   4.434   8.907   7.024  0.1706  0.5490  0.2818
   24bbb     C1  691   4.434   8.806   6.899  0.5019 -0.3026 -0.0375
   24bbb     H1  692   4.365   8.842   6.822  0.8549 -0.6282 -0.5153
   24bbb     H2  693   4.385   8.716   6.936 -0.7507 -0.7880 -2.6353
   24bbb     C2  694   4.375   9.037   6.974 -0.1341 -0.1759 -0.3439
   24bbb     H3  695   4.266   9.027   6.969 -0.1925  0.5326 -0.5882
   24bbb     H4  696   4.410   9.046   6.871  1.1152 -2.4229 -0.1760
   24bbb     C3  697   4.345   8.861   7.143 -0.4942  0.1033  0.0060
   24bbb     H5  698   4.242   8.848   7.107 -0.0484  0.4062 -1.4574
   24bbb     H6  699   4.351   8.942   7.216  1.8067 -0.1367  0.1310
   24bbb     C4  700   4.409   8.744   7.216  0.2770 -0.2082 -0.3466
   24bbb     H7  701   4.509   8.782   7.238  0.2250  0.3139 -0.9493
   24bbb     H8  702   4.419   8.658   7.148  0.7227  0.2752 -0.9043
   24bbb     C5  703   4.572   8.782   6.844  0.5065  1.0530  0.7415
   24bbb     H9  704   4.649   8.770   6.921 -0.1013  2.5483  1.6299
   24bbb    H10  705   4.602   8.870   6.785  1.8598 -1.4419 -2.6412
   24bbb     C6  706   4.422   9.165   7.053 -0.0271  0.2373 -0.0418
   24bbb    H11  707   4.531   9.166   7.065 -0.0731 -1.9064  1.2243
   24bbb    H12  708   4.378   9.164   7.154  0.5105 -1.5826  0.2199
   24bbb     C7  709   4.312   8.712   7.324  0.0020 -0.7346 -0.1168
   24bbb    H13  710   4.206   8.706   7.298 -0.3174  1.5595  0.4236
   24bbb    H14  711   4.317   8.788   7.403 -0.1331 -0.0697 -0.7367
   24bbb     C8  712   4.396   9.297   6.974  0.5145  0.5218  0.1239
   24bbb    H15  713   4.419   9.392   7.022  0.5719  1.4243 -1.6146
   24bbb    H16  714   4.456   9.291   6.882  0.8206  1.0707  0.2871
   24bbb     C9  715   4.573   8.660   6.740  0.2906  0.3240 -1.2668
   24bbb    H17  716   4.671   8.655   6.690  1.9626  1.3659  1.6444
   24bbb    H18  717   4.490   8.680   6.671 -0.3062  1.0683 -0.3613
   24bbb     O1  718   4.361   8.593   7.383  0.2425  0.3139 -0.2363
   24bbb    H19  719   4.530   8.914   7.061  0.7707 -0.2895 -1.0302
   25bbb     N1  720   5.016  10.045   7.588 -0.6545  0.0854  0.2524
   25bbb     C1  721   4.967  10.185   7.623  0.5857  0.0889 -0.0760
   25bbb     H1  722   5.030  10.223   7.704  0.8446  1.6837 -0.9744
   25bbb     H2  723   4.867  10.178   7.664  0.6857 -0.9940  0.0079
   25bbb     C2  724   5.160  10.055   7.535  0.1958  0.5994  0.4534
   25bbb     H3  725   5.174  10.142   7.472  1.4845  2.0031  2.5727
   25bbb     H4  726   5.170   9.966   7.472  0.9858  1.3020 -0.4289
   25bbb     C3  727   5.005   9.964   7.716  0.4370 -0.3876  0.0987
   25bbb     H5  728   4.899   9.950   7.737 -0.4262  3.2108 -1.1902
   25bbb     H6  729   5.039  10.031   7.795 -0.8808  2.1102 -1.3341
   25bbb     C4  730   5.073   9.824   7.727 -0.7587  0.6312  0.3182
   25bbb     H7  731   5.102   9.808   7.832  0.2370 -0.0648 -0.0556
   25bbb     H8  732   5.161   9.802   7.665 -1.8063  0.9716 -1.3373
   25bbb     C5  733   4.974  10.296   7.515 -0.1992 -0.6522 -0.4637
   25bbb     H9  734   4.914  10.259   7.431 -0.1190 -1.6186 -0.1062
   25bbb    H10  735   5.079  10.305   7.484  0.1149  0.0899  0.7608
   25bbb     C6  736   5.275  10.064   7.639  0.0062 -0.2670 -0.1271
   25bbb    H11  737   5.301   9.976   7.699  1.0426  0.4664  0.5377
   25bbb    H12  738   5.239  10.145   7.704  0.0102 -1.7552  1.8087
   25bbb     C7  739   4.979   9.710   7.686 -0.1367  0.4124  0.4945
   25bbb    H13  740   5.039   9.627   7.645 -0.9860 -1.0072  2.0130
   25bbb    H14  741   4.916   9.731   7.599  1.0269 -1.9789 -1.0289
   25bbb     C8  742   5.403  10.115   7.570  0.0232 -0.4128 -0.4591
   25bbb    H15  743   5.475  10.137   7.649  1.7200 -0.4993 -1.9220
   25bbb    H16  744   5.449  10.040   7.504 -2.8321 -0.3096 -2.7753
   25bbb     C9  745   4.910  10.419   7.563  0.4883  0.0844  0.6457
   25bbb    H17  746   4.813  10.394   7.607  0.3835 -1.2666 -0.3126
   25bbb    H18  747   4.898  10.489   7.480 -0.2553 -0.4078  0.3348
   25bbb     O1  748   4.898   9.664   7.790 -0.4572  0.3690  0.2361
   25bbb    H19  749   4.952  10.004   7.519 -2.7457  4.0772 -0.4603
   26bbb     N1  750   5.296   9.540   8.534 -0.4111  0.0614  0.9203
   26bbb     C1  751   5.234   9.674   8.562  0.0316 -0.0589 -0.0253
   26bbb     H1  752   5.205   9.669   8.667  1.3378  0.2535  0.3707
   26bbb     H2  753   5.142   9.679   8.504 -0.4289 -1.5564  0.5510
   26bbb     C2  754   5.411   9.502   8.623  0.2516 -0.6620  0.3521
   26bbb     H3  755   5.475   9.590   8.621 -0.6205 -0.0226 -0.1083
   26bbb     H4  756   5.460   9.411   8.591  0.6377 -1.5561  3.1644
   26bbb     C3  757   5.188   9.435   8.528 -0.5162 -0.2190 -0.3632
   26bbb     H5  758   5.114   9.474   8.458 -0.2001 -0.5972 -0.9165
   26bbb     H6  759   5.147   9.435   8.629  2.6921  2.1964  1.1136
   26bbb     C4  760   5.226   9.292   8.502  0.6191  0.0205 -0.0702
   26bbb     H7  761   5.155   9.224   8.551  0.5978  0.8440  1.0683
   26bbb     H8  762   5.325   9.268   8.545 -0.6867 -2.1795  1.9766
   26bbb     C5  763   5.323   9.792   8.531 -0.1985 -0.4434 -0.0243
   26bbb     H9  764   5.421   9.782   8.580  0.7683 -0.3278 -1.8424
   26bbb    H10  765   5.264   9.876   8.569 -1.7409 -0.6682 -1.7710
   26bbb     C6  766   5.378   9.488   8.770  0.2926 -0.8171  0.0965
   26bbb    H11  767   5.291   9.421   8.771 -1.8683  1.8120  1.6083
   26bbb    H12  768   5.339   9.578   8.819 -0.7503 -0.1863 -1.7627
   26bbb     C7  769   5.223   9.266   8.351 -0.6761 -0.4265 -0.1005
   26bbb    H13  770   5.250   9.162   8.328  2.0092  0.0407  0.5600
   26bbb    H14  771   5.306   9.324   8.309  0.0872 -0.8315  0.8106
   26bbb     C8  772   5.491   9.425   8.855  0.9311 -0.3146  0.1130
   26bbb    H15  773   5.437   9.382   8.940 -0.1342  0.4210 -0.1643
   26bbb    H16  774   5.543   9.346   8.800  1.1560 -0.8358  1.0484
   26bbb     C9  775   5.355   9.800   8.378 -0.2025  0.9602  0.0587
   26bbb    H17  776   5.409   9.893   8.358  1.7977 -0.1977 -0.1138
   26bbb    H18  777   5.261   9.796   8.321  0.7609  0.4916 -1.5364
   26bbb     O1  778   5.099   9.301   8.283 -0.4852  0.1930 -0.1874
   26bbb    H19  779   5.338   9.547   8.440  0.0043 -0.4048  1.0687
   27bbb     N1  780   2.096   6.987   6.844 -0.4845  0.1602 -0.0333
   27bbb     C1  781   1.945   6.975   6.846 -0.6742  0.7694  0.7851
   27bbb     H1  782   1.905   6.944   6.750 -0.7203 -0.0780  1.0764
   27bbb     H2  783   1.900   7.074   6.857 -3.7002 -0.0534 -2.2831
   27bbb     C2  784   2.162   6.881   6.752 -0.3822 -0.2620 -0.0097
   27bbb     H3  785   2.267   6.877   6.783 -0.8725  0.7278  1.9989
   27bbb     H4  786   2.160   6.918   6.650  0.3180  0.7788  0.3334
   27bbb     C3  787   2.140   7.123   6.804 -0.6027  0.9077  0.1491
   27bbb     H5  788   2.080   7.143   6.716 -1.4179  1.0808  0.7361
   27bbb     H6  789   2.243   7.109   6.770 -0.7717 -0.1844  0.0590
   27bbb     C4  790   2.138   7.232   6.922  0.6903 -0.6539  0.1623
   27bbb     H7  791   2.217   7.214   6.995 -0.8959  2.1780  2.8602
   27bbb     H8  792   2.046   7.213   6.979  0.3064 -0.8367 -0.5069
   27bbb     C5  793   1.890   6.882   6.952  0.0491 -0.1036  0.0835
   27bbb     H9  794   1.934   6.902   7.051  1.7721 -1.4309 -0.3687
   27bbb    H10  795   1.909   6.779   6.922  1.7368  0.7649 -2.0654
   27bbb     C6  796   2.112   6.740   6.750 -0.5998  0.0234 -0.3710
   27bbb    H11  797   2.011   6.741   6.707 -0.8826  0.0430  0.2856
   27bbb    H12  798   2.116   6.704   6.854  0.4201 -1.7544 -0.9923
   27bbb     C7  799   2.162   7.379   6.890  0.0537 -0.0000  0.0823
   27bbb    H13  800   2.078   7.417   6.830  1.4871  1.4429 -1.0873
   27bbb    H14  801   2.248   7.384   6.823  0.9290  0.5535  1.2131
   27bbb     C8  802   2.204   6.643   6.667  0.8886  0.2017 -0.0779
   27bbb    H15  803   2.310   6.641   6.696  1.3212  1.7084 -1.4590
   27bbb    H16  804   2.158   6.544   6.672 -2.8361  1.8054  0.0412
   27bbb     C9  805   1.742   6.898   6.985  0.7165 -0.2551  0.6906
   27bbb    H17  806   1.708   7.001   6.965 -0.1156 -0.8320 -1.0759
   27bbb    H18  807   1.738   6.870   7.091 -1.1856 -2.3374  0.1214
   27bbb     O1  808   2.172   7.458   7.013 -0.2980  0.2744 -0.3850
   27bbb    H19  809   2.122   6.975   6.942 -1.4597  3.9280  0.8224
   28bbb     N1  810   2.839   7.575   6.594 -0.3211 -0.5725 -0.5169
   28bbb     C1  811   2.768   7.599   6.461 -0.4065  0.0265 -0.5436
   28bbb     H1  812   2.701   7.684   6.475 -0.9552 -0.2476 -1.4559
   28bbb     H2  813   2.698   7.516   6.450 -2.3735  1.8331 -2.5933
   28bbb     C2  814   2.931   7.700   6.626 -0.0476  0.4547  0.3894
   28bbb     H3  815   2.866   7.778   6.663 -0.5774 -0.8835  2.4758
   28bbb     H4  816   2.966   7.736   6.529 -0.0585  1.1796  0.6562
   28bbb     C3  817   2.746   7.539   6.710 -0.2966  0.9103  0.0052
   28bbb     H5  818   2.663   7.610   6.715 -0.4147  0.7792 -0.0939
   28bbb     H6  819   2.794   7.556   6.806 -0.6573  1.7769  0.0480
   28bbb     C4  820   2.691   7.393   6.706  0.0917  0.4024 -0.2967
   28bbb     H7  821   2.763   7.320   6.745  1.2931  1.6562 -0.0896
   28bbb     H8  822   2.679   7.346   6.607  2.7158 -4.8616  1.5051
   28bbb     C5  823   2.847   7.603   6.333 -0.8696 -0.3720 -0.4517
   28bbb     H9  824   2.928   7.677   6.327 -0.5291 -0.7111 -0.0781
   28bbb    H10  825   2.776   7.645   6.260  0.3097  0.9625 -0.8793
   28bbb     C6  826   3.050   7.659   6.706  0.5682  0.1137  0.9091
   28bbb    H11  827   3.099   7.575   6.655  0.2121  0.5678 -0.1932
   28bbb    H12  828   3.026   7.635   6.811 -1.6753 -2.4987 -0.0866
   28bbb     C7  829   2.565   7.373   6.800 -0.4979  0.0246 -0.2866
   28bbb    H13  830   2.529   7.269   6.794  0.1350 -0.1851 -0.6344
   28bbb    H14  831   2.483   7.436   6.766 -0.8454 -0.7916 -0.9934
   28bbb     C8  832   3.158   7.770   6.718 -0.2267 -0.2768  0.5516
   28bbb    H15  833   3.247   7.726   6.764 -1.0548 -0.8593  1.6331
   28bbb    H16  834   3.183   7.819   6.623 -1.5727 -0.4262  0.0923
   28bbb     C9  835   2.895   7.465   6.300  0.0606  0.5035  0.0261
   28bbb    H17  836   2.965   7.464   6.214 -0.3574 -0.4231 -0.3100
   28bbb    H18  837   2.806   7.414   6.261 -1.7699  2.5840  1.2406
   28bbb     O1  838   2.599   7.404   6.935  0.2138 -0.3042 -0.4529
   28bbb    H19  839   2.897   7.497   6.560 -0.0242  0.1880 -1.8289
   29bbb     N1  840   2.383   8.789   7.545  0.4670  0.0446  0.0499
   29bbb     C1  841   2.306   8.915   7.483 -0.5038 -0.6530  0.5826
   29bbb     H1  842   2.303   8.996   7.557 -0.3486  1.2777 -1.4187
   29bbb     H2  843   2.207   8.890   7.447 -1.9181  4.5579  0.0434
   29bbb     C2  844   2.512   8.842   7.608  0.1893  0.2222  0.6590
   29bbb     H3  845   2.574   8.867   7.522  1.1065 -0.5610  1.0860
   29bbb     H4  846   2.560   8.753   7.647 -0.3132 -0.7226 -0.8173
   29bbb     C3  847   2.300   8.716   7.644  0.0861  0.4116  0.2438
   29bbb     H5  848   2.290   8.761   7.743  2.8290 -0.0368  0.7914
   29bbb     H6  849   2.340   8.618   7.668 -0.0263  0.8975  2.6047
   29bbb     C4  850   2.153   8.681   7.599  0.0586  0.6165 -0.0273
   29bbb     H7  851   2.165   8.650   7.495  2.0872 -1.5972  0.7881
   29bbb     H8  852   2.081   8.764   7.605 -2.8071 -1.4353 -3.0258
   29bbb     C5  853   2.379   8.994   7.371 -0.2591  0.3561 -0.2525
   29bbb     H9  854   2.403   8.913   7.301  1.0462 -0.0724  0.6688
   29bbb    H10  855   2.467   9.038   7.418  0.2818  0.3809 -1.2542
   29bbb     C6  856   2.507   8.949   7.726  0.5729  0.5164  0.2470
   29bbb    H11  857   2.436   8.909   7.800 -1.5614  0.5501 -1.6970
   29bbb    H12  858   2.462   9.042   7.689  1.1483  0.6354 -0.1565
   29bbb     C7  859   2.094   8.567   7.687 -0.4069  0.1231 -1.0937
   29bbb    H13  860   2.149   8.475   7.663 -1.0195 -1.2981  2.2397
   29bbb    H14  861   1.987   8.548   7.673 -0.5849  0.1746  0.0426
   29bbb     C8  862   2.642   8.991   7.790 -0.1302 -0.1754 -0.0794
   29bbb    H15  863   2.618   9.075   7.856 -0.4969  1.3780 -2.0983
   29bbb    H16  864   2.694   8.912   7.845  0.9803  0.2877 -0.4170
   29bbb     C9  865   2.290   9.094   7.295  0.0661  0.1796  0.3948
   29bbb    H17  866   2.243   9.171   7.357  1.2448  0.8740  0.4662
   29bbb    H18  867   2.208   9.040   7.247  1.0525 -0.9697 -0.0647
   29bbb     O1  868   2.117   8.589   7.836  0.3688 -0.1182 -0.6668
   29bbb    H19  869   2.417   8.726   7.471 -0.5070 -1.3535  0.7609
   30bbb     N1  870   1.717   8.355   8.417 -0.1010  0.1772  0.1653
   30bbb     C1  871   1.759   8.209   8.391  0.5431  0.0623 -0.3981
   30bbb     H1  872   1.731   8.155   8.481  2.3008  0.1349  0.2200
   30bbb     H2  873   1.867   8.199   8.378  0.3818 -1.7370 -0.6742
   30bbb     C2  874   1.585   8.361   8.492 -0.2104  0.2958  0.3428
   30bbb     H3  875   1.598   8.332   8.596  0.9326  1.0325  0.4279
   30bbb     H4  876   1.523   8.289   8.440 -0.8278  0.3467  0.9969
   30bbb     C3  877   1.825   8.419   8.501  0.7434 -0.1606 -0.6586
   30bbb     H5  878   1.870   8.343   8.565  1.0898  0.0724 -0.6200
   30bbb     H6  879   1.779   8.490   8.571 -0.7158 -0.8488 -0.8814
   30bbb     C4  880   1.935   8.488   8.404  0.0278  0.1941 -0.1841
   30bbb     H7  881   1.892   8.579   8.360  0.0715 -1.0912 -3.1311
   30bbb     H8  882   1.959   8.429   8.315  1.6149  1.5159 -0.6777
   30bbb     C5  883   1.698   8.140   8.266 -0.0541  0.0526 -0.1527
   30bbb     H9  884   1.589   8.142   8.274 -0.0617  1.8676 -0.1638
   30bbb    H10  885   1.740   8.039   8.266 -0.0681  0.0276  1.3768
   30bbb     C6  886   1.516   8.498   8.485  0.2181 -0.1372  0.4460
   30bbb    H11  887   1.504   8.524   8.379  0.0354  0.7535  0.6719
   30bbb    H12  888   1.580   8.581   8.517  1.0367  0.2231 -1.9007
   30bbb     C7  889   2.067   8.504   8.483  0.1026  0.1705  0.1984
   30bbb    H13  890   2.086   8.406   8.528 -0.5315 -0.1986 -0.3218
   30bbb    H14  891   2.062   8.583   8.559  1.9221 -0.3333  0.9052
   30bbb     C8  892   1.382   8.499   8.553  0.5929  0.0929 -0.0750
   30bbb    H15  893   1.346   8.602   8.550 -1.6718 -0.6520 -1.8774
   30bbb    H16  894   1.309   8.450   8.487  0.1158  1.2665 -0.4334
   30bbb     C9  895   1.730   8.219   8.134  0.7097 -0.1241  0.1686
   30bbb    H17  896   1.682   8.166   8.050  0.1435 -0.6148  0.7938
   30bbb    H18  897   1.838   8.229   8.121  0.6515  0.7102  0.2689
   30bbb     O1  898   2.178   8.525   8.390  0.4371 -0.0754 -0.4542
   30bbb    H19  899   1.706   8.398   8.324  0.5714 -1.2518 -0.6166
   31bbb     N1  900   5.709   7.227  10.787  0.2266  0.5003  0.5535
   31bbb     C1  901   5.852   7.231  10.733  0.1644 -0.0166 -0.2884
   31bbb     H1  902   5.847   7.280  10.635  0.5125  0.3513 -0.1268
   31bbb     H2  903   5.888   7.131  10.711  1.6044  0.5381 -0.5917
   31bbb     C2  904   5.645   7.364  10.797 -0.3411 -0.0107 -0.1371
   31bbb     H3  905   5.690   7.421  10.878 -0.8407  0.1696  0.0174
   31bbb     H4  906   5.539   7.346  10.813 -0.0072 -0.1760  2.2396
   31bbb     C3  907   5.631   7.142  10.689 -0.1369 -0.5087  0.7183
   31bbb     H5  908   5.693   7.061  10.650  0.9733  0.9778 -0.7269
   31bbb     H6  909   5.619   7.195  10.595 -0.8026 -0.9459  0.5424
   31bbb     C4  910   5.503   7.078  10.743 -0.3706 -0.2418 -0.5398
   31bbb     H7  911   5.429   7.156  10.763 -0.1121 -0.0867 -0.1833
   31bbb     H8  912   5.535   7.026  10.834  0.2309  1.7953  0.4709
   31bbb     C5  913   5.960   7.309  10.819  0.2321  0.9129  0.9188
   31bbb     H9  914   5.985   7.250  10.908 -2.5386  0.6519  1.6263
   31bbb    H10  915   5.923   7.406  10.853 -0.7498  1.4827 -1.5655
   31bbb     C6  916   5.643   7.451  10.670  0.1795 -0.9253  0.4364
   31bbb    H11  917   5.598   7.404  10.582 -4.5895 -0.9046  2.5449
   31bbb    H12  918   5.743   7.482  10.636 -0.7234  0.1102 -1.4534
   31bbb     C7  919   5.455   6.980  10.633  0.5618  0.0585  0.2026
   31bbb    H13  920   5.527   6.909  10.590 -1.6480 -1.6667 -0.8389
   31bbb    H14  921   5.421   7.041  10.548  0.2146 -0.1562  0.1883
   31bbb     C8  922   5.555   7.578  10.692 -0.5775  0.0575  0.3839
   31bbb    H15  923   5.559   7.657  10.616 -1.2618 -0.8147 -0.5832
   31bbb    H16  924   5.447   7.558  10.696 -0.4920 -0.6273 -0.3690
   31bbb     C9  925   6.085   7.334  10.736 -0.6396  0.6632  0.2984
   31bbb    H17  926   6.170   7.357  10.801 -0.2446  2.7131 -0.8723
   31bbb    H18  927   6.070   7.423  10.674  0.5277  2.3690  2.3434
   31bbb     O1  928   5.344   6.902  10.690  0.5285  0.0037 -0.0328
   31bbb    H19  929   5.712   7.182  10.880 -0.4713 -0.6224  0.0404
   32bbb     N1  930   4.833   6.025  10.668 -0.2126 -0.3991  0.8505
   32bbb     C1  931   4.949   6.122  10.684  0.8288 -0.8209 -0.2486
   32bbb     H1  932   4.960   6.137  10.791  0.7598  1.3074 -0.4952
   32bbb     H2  933   4.915   6.216  10.639  1.6799 -1.4905 -2.4532
   32bbb     C2  934   4.835   5.923  10.778 -0.4113 -0.4225  0.1698
   32bbb     H3  935   4.937   5.884  10.788 -0.1967 -0.1361 -0.7580
   32bbb     H4  936   4.780   5.837  10.740 -0.2130  0.3935 -2.1934
   32bbb     C3  937   4.699   6.107  10.642  0.2618  0.4670 -0.6725
   32bbb     H5  938   4.702   6.195  10.707  0.9878  1.6354 -2.2278
   32bbb     H6  939   4.611   6.049  10.671  0.7226  0.4337  0.6891
   32bbb     C4  940   4.677   6.149  10.497  0.0362  0.2669  0.1574
   32bbb     H7  941   4.579   6.199  10.501 -0.7855 -1.3230  2.1488
   32bbb     H8  942   4.666   6.057  10.438  0.7951  1.4925 -2.0041
   32bbb     C5  943   5.083   6.086  10.618 -0.6785 -0.2978  0.3880
   32bbb     H9  944   5.156   6.022  10.669  0.8751  0.0573 -1.2734
   32bbb    H10  945   5.148   6.174  10.610  2.3111 -2.2897  1.3213
   32bbb     C6  946   4.782   5.967  10.918  0.2059 -0.7000  0.1480
   32bbb    H11  947   4.672   5.960  10.922 -0.1180  1.3768 -2.2586
   32bbb    H12  948   4.788   6.076  10.930  0.1342 -0.8027  1.1405
   32bbb     C7  949   4.771   6.244  10.433  0.3404  0.0127  0.3851
   32bbb    H13  950   4.740   6.278  10.334 -1.2740  2.2944  1.5716
   32bbb    H14  951   4.866   6.196  10.405  0.7966  1.4067 -0.5599
   32bbb     C8  952   4.843   5.879  11.022  0.8858  0.1671  0.0978
   32bbb    H15  953   4.952   5.876  11.012  0.8001 -1.6603 -0.6425
   32bbb    H16  954   4.818   5.924  11.119 -1.5720  1.1120 -0.8734
   32bbb     C9  955   5.077   6.042  10.466  0.2410  0.3112 -0.0168
   32bbb    H17  956   5.171   5.996  10.431 -0.4815 -0.8353 -0.5396
   32bbb    H18  957   5.055   6.125  10.399  0.0159 -0.5695 -1.0735
   32bbb     O1  958   4.787   6.368  10.502  0.2234  0.8154  0.3992
   32bbb    H19  959   4.860   5.970  10.585  1.0682 -1.6528  2.0464
   33bbb     N1  960   3.367   7.454  11.335  0.4675  0.6940  0.4405
   33bbb     C1  961   3.371   7.320  11.400 -0.4285  0.7069  0.1436
   33bbb     H1  962   3.477   7.293  11.403 -0.5046  0.4451  0.5516
   33bbb     H2  963   3.320   7.257  11.328  1.8976 -0.6943 -0.3737
   33bbb     C2  964   3.476   7.544  11.386 -0.2283  0.5160  0.0673
   33bbb     H3  965   3.564   7.502  11.337 -0.2307  1.1418 -0.4915
   33bbb     H4  966   3.492   7.534  11.493  0.6704  2.6357  0.1862
   33bbb     C3  967   3.395   7.424  11.188 -0.7451 -0.7617  0.3089
   33bbb     H5  968   3.488   7.367  11.180  0.2841  0.7439  1.0567
   33bbb     H6  969   3.413   7.520  11.139  1.9591 -1.5419 -0.3839
   33bbb     C4  970   3.294   7.343  11.098  0.1722  0.0887 -0.2478
   33bbb     H7  971   3.200   7.398  11.084  0.2615  0.3282  0.0942
   33bbb     H8  972   3.264   7.246  11.141  1.5759  0.0311  0.6569
   33bbb     C5  973   3.302   7.316  11.542  0.1706  0.0309  0.1465
   33bbb     H9  974   3.193   7.309  11.536 -0.5835  4.4804  3.0348
   33bbb    H10  975   3.316   7.410  11.598 -2.6692 -1.0828  3.0813
   33bbb     C6  976   3.471   7.698  11.356 -0.2770 -0.1421  0.0662
   33bbb    H11  977   3.447   7.716  11.250 -1.7658  0.7728  0.5356
   33bbb    H12  978   3.566   7.750  11.372  0.4709 -0.5309 -2.5813
   33bbb     C7  979   3.353   7.308  10.959 -0.2867 -0.3814  0.4646
   33bbb    H13  980   3.367   7.403  10.905  0.2803  0.1170  1.4548
   33bbb    H14  981   3.282   7.243  10.908 -1.5965  0.0987  1.6031
   33bbb     C8  982   3.366   7.768  11.429 -0.9392 -0.4529  0.0716
   33bbb    H15  983   3.361   7.872  11.396 -0.8421 -0.5951 -0.3916
   33bbb    H16  984   3.265   7.729  11.411 -0.7285 -1.0254  0.1056
   33bbb     C9  985   3.340   7.190  11.622  0.5827 -0.2534 -0.0275
   33bbb    H17  986   3.298   7.213  11.721  0.5450  1.6403 -0.4439
   33bbb    H18  987   3.449   7.186  11.630  0.6257 -0.8626 -0.8771
   33bbb     O1  988   3.477   7.230  10.982 -0.4424  0.0388 -0.2621
   33bbb    H19  989   3.278   7.505  11.344  1.2921  2.3083 -0.1302
   34bbb     N1  990   4.326   6.636  11.451  0.0632 -0.2765  0.1275
   34bbb     C1  991   4.444   6.687  11.364 -0.1855 -0.0537  0.2461
   34bbb     H1  992   4.420   6.791  11.341  1.0222 -0.5294 -4.0045
   34bbb     H2  993   4.451   6.626  11.274 -0.3707  0.5560 -0.1927
   34bbb     C2  994   4.339   6.656  11.607 -0.7190 -0.2035  0.2886
   34bbb     H3  995   4.280   6.742  11.642 -0.4808  0.1834 -0.2459
   34bbb     H4  996   4.442   6.686  11.627 -0.0764 -1.5536 -0.8283
   34bbb     C3  997   4.190   6.689  11.400  0.5623  0.9276 -0.2755
   34bbb     H5  998   4.195   6.797  11.391  1.1531  1.1084  1.7250
   34bbb     H6  999   4.116   6.656  11.474  0.7741 -1.1841 -0.9417
   34bbb     C4 1000   4.154   6.644  11.259 -0.1075  0.1235 -0.1006
   34bbb     H7 1001   4.176   6.539  11.235  0.3690  0.1055  0.3875
   34bbb     H8 1002   4.220   6.698  11.191  0.7371 -0.4957  0.2027
   34bbb     C5 1003   4.583   6.691  11.421 -0.0658 -0.0841 -0.2803
   34bbb     H9 1004   4.594   6.761  11.504 -0.5014 -0.5808  0.2049
   34bbb    H10 1005   4.647   6.722  11.337  2.1373 -2.7833  0.2536
   34bbb     C6 1006   4.285   6.534  11.689 -0.3487 -0.4833  0.1148
   34bbb    H11 1007   4.285   6.555  11.797 -0.6555 -3.6772  0.8217
   34bbb    H12 1008   4.347   6.444  11.681  0.5859  0.0370  1.1942
   34bbb     C7 1009   4.004   6.666  11.220  0.3725  0.6345 -0.8587
   34bbb    H13 1010   3.930   6.606  11.275  1.3709 -1.1916 -1.4310
   34bbb    H14 1011   3.986   6.630  11.117 -0.6469  0.3014 -0.5792
   34bbb     C8 1012   4.135   6.505  11.669  0.0666 -0.4054  0.0887
   34bbb    H15 1013   4.111   6.486  11.564 -0.0590  2.0210 -0.3851
   34bbb    H16 1014   4.111   6.412  11.721 -0.7067 -0.1451  0.2137
   34bbb     C9 1015   4.619   6.546  11.445  0.3547  0.5877 -0.5906
   34bbb    H17 1016   4.647   6.493  11.353  1.0613 -1.2394  0.6196
   34bbb    H18 1017   4.540   6.487  11.494  1.6351 -0.1208  0.6935
   34bbb     O1 1018   3.971   6.811  11.227 -0.5059  0.4200  0.1475
   34bbb    H19 1019   4.320   6.534  11.441 -1.1179 -0.1293 -0.8475
   35bbb     N1 1020   2.540   6.170   9.383 -0.3472 -0.3738 -0.3903
   35bbb     C1 1021   2.517   6.021   9.403 -0.4501 -0.5336 -0.0349
   35bbb     H1 1022   2.577   5.988   9.488 -0.3287 -1.0817 -0.3249
   35bbb     H2 1023   2.560   5.970   9.316  2.2529 -0.7158  1.3183
   35bbb     C2 1024   2.522   6.242   9.520 -0.0529 -0.6013  0.0232
   35bbb     H3 1025   2.415   6.236   9.540 -0.0590 -0.0692  0.1573
   35bbb     H4 1026   2.553   6.344   9.498  0.1244 -0.0928  2.3277
   35bbb     C3 1027   2.681   6.194   9.319 -0.1321 -0.5350 -0.7541
   35bbb     H5 1028   2.750   6.135   9.379 -1.6560 -0.4841  1.1645
   35bbb     H6 1029   2.706   6.299   9.338  0.4059 -0.4610 -1.7648
   35bbb     C4 1030   2.705   6.162   9.172 -0.0259 -0.2891 -0.1105
   35bbb     H7 1031   2.616   6.197   9.119 -1.3381  0.5582  2.4490
   35bbb     H8 1032   2.718   6.056   9.148 -0.9146 -0.0994 -1.5465
   35bbb     C5 1033   2.369   5.982   9.416  0.5192  0.4602 -0.0499
   35bbb     H9 1034   2.318   6.037   9.496 -0.9485  2.1467 -2.0472
   35bbb    H10 1035   2.378   5.874   9.437  0.4448  0.1579 -1.4559
   35bbb     C6 1036   2.606   6.200   9.642  0.3434  0.5821 -0.3219
   35bbb    H11 1037   2.701   6.233   9.600  0.3415  0.1470 -0.6802
   35bbb    H12 1038   2.604   6.096   9.679  0.0873  1.2701  1.7453
   35bbb     C7 1039   2.816   6.241   9.109  0.5500 -0.3880  0.1509
   35bbb    H13 1040   2.808   6.348   9.135  1.0842 -0.8010  2.1752
   35bbb    H14 1041   2.804   6.228   9.001  0.1321  1.1189 -0.0098
   35bbb     C8 1042   2.569   6.296   9.759  0.2050 -0.1636  0.4009
   35bbb    H15 1043   2.473   6.260   9.800  0.3564 -0.8728  0.1468
   35bbb    H16 1044   2.635   6.293   9.846 -0.7969 -2.0558  1.1509
   35bbb     C9 1045   2.305   5.996   9.277 -0.4868 -0.7886 -0.3212
   35bbb    H17 1046   2.202   5.959   9.273 -1.0691  0.9084 -2.3336
   35bbb    H18 1047   2.378   5.944   9.214  2.5678  0.0264  2.2324
   35bbb     O1 1048   2.947   6.198   9.149  0.2787 -0.9784 -0.4232
   35bbb    H19 1049   2.467   6.208   9.321  1.1278  2.6221 -0.5006
   36bbb     N1 1050   3.105   5.399   8.928 -0.5720 -0.1011  0.4154
   36bbb     C1 1051   3.076   5.421   9.073  0.2425 -0.1138  0.1336
   36bbb     H1 1052   2.967   5.424   9.072  0.2175  0.2880  1.5517
   36bbb     H2 1053   3.130   5.514   9.094  0.5723 -0.1728 -0.4370
   36bbb     C2 1054   3.013   5.485   8.839  0.4251  0.0187 -0.3019
   36bbb     H3 1055   3.059   5.583   8.834  3.2725 -1.1947  0.0410
   36bbb     H4 1056   2.914   5.486   8.886  1.0896  0.2213  1.1508
   36bbb     C3 1057   3.254   5.426   8.903  0.1557 -0.2544 -0.1882
   36bbb     H5 1058   3.271   5.413   8.796  0.3598 -2.1065  0.0417
   36bbb     H6 1059   3.313   5.353   8.958  0.0317 -1.0302 -1.0444
   36bbb     C4 1060   3.310   5.567   8.928  1.0359  0.2655 -0.0083
   36bbb     H7 1061   3.300   5.598   9.033  0.3645  0.1228 -0.0230
   36bbb     H8 1062   3.253   5.636   8.864 -0.7485 -1.4855 -0.3852
   36bbb     C5 1063   3.126   5.317   9.172  0.4176  0.4651 -0.1008
   36bbb     H9 1064   3.234   5.311   9.190  0.3377 -0.0502  0.2325
   36bbb    H10 1065   3.082   5.222   9.137 -0.7650  0.9637 -0.0146
   36bbb     C6 1066   3.000   5.431   8.693  0.1794  0.3029 -0.8470
   36bbb    H11 1067   3.100   5.415   8.650 -1.1732 -1.6168 -3.5334
   36bbb    H12 1068   2.946   5.507   8.636  1.1927  0.8159 -1.1626
   36bbb     C7 1069   3.458   5.581   8.903  0.0371  0.5173  0.5377
   36bbb    H13 1070   3.481   5.567   8.797 -2.5869 -2.5498  0.2104
   36bbb    H14 1071   3.505   5.503   8.965  0.6062  0.4051 -0.0292
   36bbb     C8 1072   2.927   5.302   8.695  0.7794  0.0974  0.2982
   36bbb    H15 1073   2.833   5.316   8.748 -0.1459  1.1318 -1.4974
   36bbb    H16 1074   2.909   5.276   8.590  3.8605  1.7041 -0.7636
   36bbb     C9 1075   3.059   5.339   9.309  0.8974 -0.3557  0.9631
   36bbb    H17 1076   3.043   5.236   9.342  0.4338 -1.2358 -1.7450
   36bbb    H18 1077   2.966   5.396   9.294  1.9325  0.8240 -1.7071
   36bbb     O1 1078   3.499   5.716   8.924 -0.4929  0.1750 -0.4482
   36bbb    H19 1079   3.078   5.301   8.910  0.0635 -0.5813  1.9607
   37bbb     N1 1080   5.430   5.986   9.023  0.0016 -0.0609  1.2151
   37bbb     C1 1081   5.433   5.971   9.174  0.1075 -0.0972 -0.2204
   37bbb     H1 1082   5.509   6.040   9.212 -0.5098  1.6739 -2.0063
   37bbb     H2 1083   5.474   5.870   9.187  2.1680  0.6417 -0.6120
   37bbb     C2 1084   5.337   5.881   8.969  0.3096 -0.1912  0.1953
   37bbb     H3 1085   5.303   5.906   8.868 -3.2639 -0.0984  1.2841
   37bbb     H4 1086   5.246   5.877   9.028 -1.9749  2.0538 -2.8774
   37bbb     C3 1087   5.384   6.118   8.979 -0.0750  0.1388 -0.2130
   37bbb     H5 1088   5.411   6.191   9.055  0.9768 -1.0833  0.6370
   37bbb     H6 1089   5.275   6.111   8.982 -0.0136 -0.6056  1.2115
   37bbb     C4 1090   5.425   6.163   8.838 -0.3525 -0.0571 -0.3206
   37bbb     H7 1091   5.405   6.084   8.765  1.7454  0.8864 -2.0329
   37bbb     H8 1092   5.533   6.183   8.834 -0.7768  2.4380 -3.8178
   37bbb     C5 1093   5.313   5.990   9.268 -0.0363  0.6914 -0.1119
   37bbb     H9 1094   5.226   5.927   9.246  1.1031 -1.0463  0.2349
   37bbb    H10 1095   5.264   6.088   9.253  1.7089  1.8769  1.4308
   37bbb     C6 1096   5.401   5.738   8.962  0.8506 -0.2603 -0.5475
   37bbb    H11 1097   5.346   5.670   8.895 -0.8470 -0.0838  0.5908
   37bbb    H12 1098   5.380   5.692   9.059 -2.3416  0.2102 -0.9028
   37bbb     C7 1099   5.358   6.298   8.788  0.2548 -0.5014  0.4700
   37bbb    H13 1100   5.370   6.303   8.679  2.2310 -0.9400  0.6213
   37bbb    H14 1101   5.400   6.394   8.823 -2.1819 -0.6619  4.4733
   37bbb     C8 1102   5.552   5.740   8.935 -0.9045 -0.9464 -0.0633
   37bbb    H15 1103   5.601   5.765   9.030 -0.1729 -0.3836 -0.5814
   37bbb    H16 1104   5.583   5.637   8.915 -0.2647 -0.2842 -2.9237
   37bbb     C9 1105   5.350   5.968   9.420  0.0072  0.5295  0.1032
   37bbb    H17 1106   5.268   6.012   9.477 -1.3563 -0.7962 -0.7471
   37bbb    H18 1107   5.446   6.018   9.442  0.3007 -0.2032  0.5163
   37bbb     O1 1108   5.207   6.305   8.806 -0.0374 -0.7113 -0.1236
   37bbb    H19 1109   5.518   5.965   8.974 -0.6713  1.3465 -0.6656
   38bbb     N1 1110   5.221   7.141   8.790 -0.2629 -0.6453 -0.5213
   38bbb     C1 1111   5.269   7.271   8.851  0.1721 -0.2994  0.1303
   38bbb     H1 1112   5.333   7.247   8.936 -2.0677 -1.9152  1.4845
   38bbb     H2 1113   5.189   7.331   8.894  1.1566 -0.7615  2.8055
   38bbb     C2 1114   5.326   7.031   8.784  0.1132  0.6360 -0.1161
   38bbb     H3 1115   5.332   6.985   8.883  1.3697  1.1849  0.0814
   38bbb     H4 1116   5.426   7.073   8.771  0.7836 -1.0539 -0.6762
   38bbb     C3 1117   5.097   7.093   8.857 -0.1233 -0.1360  0.6351
   38bbb     H5 1118   5.117   7.091   8.964  0.4955  1.7271  0.5934
   38bbb     H6 1119   5.081   6.992   8.819 -1.5215 -0.3100  1.6264
   38bbb     C4 1120   4.969   7.169   8.837 -0.0959 -0.1188  0.0827
   38bbb     H7 1121   4.946   7.176   8.730 -1.1746 -1.0775  0.2390
   38bbb     H8 1122   4.991   7.263   8.888  0.4085 -0.9669  1.5108
   38bbb     C5 1123   5.345   7.351   8.745  0.4764 -0.2478 -1.1062
   38bbb     H9 1124   5.277   7.405   8.678  1.6141  1.8001 -0.6967
   38bbb    H10 1125   5.409   7.287   8.684 -0.0018 -1.1221 -0.7099
   38bbb     C6 1126   5.298   6.922   8.682  0.7012  0.2492 -0.7133
   38bbb    H11 1127   5.306   6.963   8.581  2.7493 -0.0960 -0.7361
   38bbb    H12 1128   5.197   6.883   8.696  1.5472 -2.5649 -1.7160
   38bbb     C7 1129   4.861   7.098   8.910  0.0668 -0.1386 -0.4740
   38bbb    H13 1130   4.765   7.150   8.900 -1.1314 -1.7371  1.8035
   38bbb    H14 1131   4.875   7.085   9.018  0.6839 -0.1838 -0.5504
   38bbb     C8 1132   5.395   6.808   8.690 -0.2661 -0.3386  0.0435
   38bbb    H15 1133   5.399   6.772   8.793 -2.4834 -0.7188  0.0527
   38bbb    H16 1134   5.348   6.720   8.643 -2.6278  0.6089  0.4756
   38bbb     C9 1135   5.418   7.466   8.831 -1.0995  0.2917  0.6839
   38bbb    H17 1136   5.510   7.440   8.884 -0.2296 -1.4562 -1.5330
   38bbb    H18 1137   5.351   7.517   8.901 -0.6666  0.4957  0.9526
   38bbb     O1 1138   4.855   6.965   8.855 -0.2390 -0.0021  0.5155
   38bbb    H19 1139   5.201   7.152   8.689  2.0760  0.2200 -0.9535
   39bbb     N1 1140   4.565   9.109  10.243 -0.8870 -0.5156  0.9049
   39bbb     C1 1141   4.600   9.126  10.098  0.2286  0.5041  0.0610
   39bbb     H1 1142   4.669   9.209  10.084 -0.7818  1.0206 -2.1283
   39bbb     H2 1143   4.507   9.149  10.047 -0.9493 -0.9221  1.4455
   39bbb     C2 1144   4.580   9.246  10.314  0.1492 -0.0088  0.1850
   39bbb     H3 1145   4.549   9.228  10.417  0.9444 -0.1698  0.4057
   39bbb     H4 1146   4.508   9.316  10.271  0.0699  1.2955  2.2413
   39bbb     C3 1147   4.428   9.048  10.261 -0.0794  0.0387 -0.5741
   39bbb     H5 1148   4.419   8.960  10.198  1.3383 -0.1826 -0.5072
   39bbb     H6 1149   4.356   9.122  10.228 -0.3912  1.3768  2.6999
   39bbb     C4 1150   4.384   9.011  10.405 -0.5561 -0.0267  0.2908
   39bbb     H7 1151   4.419   9.075  10.487 -1.4879 -0.4713  1.0651
   39bbb     H8 1152   4.413   8.907  10.426  1.4656  0.4431  0.0332
   39bbb     C5 1153   4.664   8.998  10.030  0.6337 -0.0642 -0.4536
   39bbb     H9 1154   4.657   9.015   9.922 -0.0942 -0.6229 -0.5096
   39bbb    H10 1155   4.602   8.907  10.030 -0.0707  0.4049 -0.5104
   39bbb     C6 1156   4.707   9.331  10.305  0.0493 -0.1180 -0.0998
   39bbb    H11 1157   4.737   9.362  10.204  0.2228  1.3043  0.3582
   39bbb    H12 1158   4.791   9.277  10.348  1.5137  0.5637 -1.9610
   39bbb     C7 1159   4.232   8.995  10.410  0.1868 -0.0002  0.2711
   39bbb    H13 1160   4.200   8.974  10.513  1.2135 -1.9959  0.2240
   39bbb    H14 1161   4.203   8.902  10.360 -2.2510  1.4908 -1.2895
   39bbb     C8 1162   4.691   9.462  10.380  0.4445  0.1175  0.0430
   39bbb    H15 1163   4.629   9.530  10.322 -2.0421 -2.0693 -0.0341
   39bbb    H16 1164   4.625   9.453  10.468  0.8636  0.9387  0.4604
   39bbb     C9 1165   4.809   8.975  10.077  0.5436 -0.5270  0.2001
   39bbb    H17 1166   4.873   8.931   9.999  0.6062  0.5405 -0.3602
   39bbb    H18 1167   4.802   8.907  10.163 -2.3327  0.3520  0.7589
   39bbb     O1 1168   4.145   9.098  10.361  0.0406 -0.5987 -0.3468
   39bbb    H19 1169   4.632   9.050  10.295 -1.7943 -0.5864  2.0620
   40bbb     N1 1170   3.730  10.207  10.612  0.2811  0.5168 -0.9941
   40bbb     C1 1171   3.699  10.248  10.472 -0.2381  0.6849  0.6797
   40bbb     H1 1172   3.599  10.220  10.439 -0.4347  1.5997  0.4771
   40bbb     H2 1173   3.769  10.193  10.410 -0.9891  0.2741  0.1843
   40bbb     C2 1174   3.609  10.132  10.666 -0.2532 -0.3205 -0.0985
   40bbb     H3 1175   3.653  10.064  10.739 -1.2944  1.3586  2.2393
   40bbb     H4 1176   3.560  10.077  10.586  0.1442 -0.7993 -0.0156
   40bbb     C3 1177   3.848  10.117  10.613  0.0017 -0.0984 -0.0642
   40bbb     H5 1178   3.830  10.024  10.558  0.1886  1.1515 -2.3950
   40bbb     H6 1179   3.860  10.113  10.721  2.4501  0.9565 -0.2385
   40bbb     C4 1180   3.975  10.190  10.567 -0.0067 -0.4548 -0.4187
   40bbb     H7 1181   3.980  10.280  10.629 -1.3921  0.2779 -1.3251
   40bbb     H8 1182   3.969  10.228  10.464  0.1910 -0.3835 -0.4042
   40bbb     C5 1183   3.724  10.395  10.445 -0.2610  0.3345  0.6330
   40bbb     H9 1184   3.819  10.438  10.480  0.2036 -0.8390  0.8560
   40bbb    H10 1185   3.645  10.443  10.504 -0.0196  1.1012  0.3558
   40bbb     C6 1186   3.511  10.219  10.743  0.2449  1.3915  0.5931
   40bbb    H11 1187   3.465  10.301  10.686 -0.2465  0.2858 -0.6506
   40bbb    H12 1188   3.553  10.252  10.838  1.1190  1.1958  0.2820
   40bbb     C7 1189   4.107  10.110  10.577 -0.0837 -0.1698  0.8423
   40bbb    H13 1190   4.136  10.091  10.681 -0.2208  0.3648  0.9798
   40bbb    H14 1191   4.181  10.182  10.538 -1.4993  2.1368  2.1467
   40bbb     C8 1192   3.396  10.126  10.777 -0.1838 -0.1660 -0.3797
   40bbb    H15 1193   3.360  10.091  10.679  0.5600  0.8638 -1.0489
   40bbb    H16 1194   3.426  10.046  10.846 -1.2858 -1.8240 -1.7431
   40bbb     C9 1195   3.706  10.429  10.296  0.1121 -0.3055  0.1462
   40bbb    H17 1196   3.766  10.364  10.231  0.7106 -0.7407  1.0973
   40bbb    H18 1197   3.757  10.526  10.291  1.4703 -1.0147 -0.4332
   40bbb     O1 1198   4.088   9.985  10.499 -0.5054  0.0368 -0.2617
   40bbb    H19 1199   3.742  10.284  10.679 -0.3161 -1.8637  2.0953
   41bbb     N1 1200   3.910   9.789  11.226  0.6581  0.8131 -0.5837
   41bbb     C1 1201   4.004   9.903  11.212 -0.3831 -0.4888 -0.4039
   41bbb     H1 1202   4.027   9.916  11.106 -1.6799 -3.1593 -1.1102
   41bbb     H2 1203   4.100   9.871  11.253 -0.5423 -0.9775 -0.4061
   41bbb     C2 1204   3.878   9.755  11.366  0.4451 -0.4883 -0.2269
   41bbb     H3 1205   3.809   9.671  11.362 -0.7388  0.3900  0.8491
   41bbb     H4 1206   3.838   9.834  11.429  3.3209  1.1254 -0.2275
   41bbb     C3 1207   3.776   9.825  11.157  0.3565  0.0061 -0.0936
   41bbb     H5 1208   3.735   9.917  11.197  1.0882 -0.0924  0.9224
   41bbb     H6 1209   3.717   9.735  11.173 -2.8377  2.1131  0.9622
   41bbb     C4 1210   3.789   9.840  11.001  1.3360  0.7037  0.3423
   41bbb     H7 1211   3.846   9.756  10.961  1.8868  1.2821 -0.0944
   41bbb     H8 1212   3.830   9.930  10.954 -1.1941  1.5287 -0.4828
   41bbb     C5 1213   3.957  10.031  11.285  0.3000  0.2541 -0.7179
   41bbb     H9 1214   3.939  10.021  11.392 -0.3713 -0.6172 -0.9049
   41bbb    H10 1215   3.868  10.062  11.229 -0.1942  0.7086  0.3057
   41bbb     C6 1216   4.001   9.722  11.452 -0.5581  0.0588 -0.1626
   41bbb    H11 1217   4.074   9.803  11.459 -1.4366  0.9306 -0.8749
   41bbb    H12 1218   4.063   9.646  11.402  0.2073  0.4396  0.1930
   41bbb     C7 1219   3.648   9.817  10.947  0.4717  0.4629 -0.1015
   41bbb    H13 1220   3.655   9.803  10.838 -0.9978  0.7686 -0.2482
   41bbb    H14 1221   3.586   9.903  10.974 -0.7390 -0.7774  1.2417
   41bbb     C8 1222   3.966   9.672  11.594  0.3207 -0.3520 -0.5146
   41bbb    H15 1223   3.892   9.593  11.581  0.8287 -0.8460 -0.4392
   41bbb    H16 1224   4.054   9.628  11.644 -0.2179 -0.9941 -0.1093
   41bbb     C9 1225   4.062  10.143  11.257  0.3842  0.3086  0.1489
   41bbb    H17 1226   4.040  10.234  11.314 -0.5940  1.7029 -2.2986
   41bbb    H18 1227   4.049  10.164  11.151  0.5486 -1.2411 -0.2022
   41bbb     O1 1228   3.592   9.689  11.002 -0.3630  0.4877  0.4677
   41bbb    H19 1229   3.953   9.703  11.188  3.0736  1.0154  1.4203
   42bbb     N1 1230   2.994   9.055  11.669 -0.2785 -0.8303  0.2732
   42bbb     C1 1231   2.890   9.149  11.733 -0.0590 -0.5080  0.1769
   42bbb     H1 1232   2.855   9.216  11.655  1.7656  0.6728  0.3131
   42bbb     H2 1233   2.941   9.215  11.804 -2.5087  1.7517 -0.0128
   42bbb     C2 1234   3.039   8.965  11.780 -0.9312 -0.0028 -1.0211
   42bbb     H3 1235   2.955   8.897  11.794  0.9559 -2.5361 -1.4008
   42bbb     H4 1236   3.044   9.031  11.867 -1.7957  0.7198 -1.4970
   42bbb     C3 1237   2.939   8.976  11.550  0.2205  0.3132  0.0149
   42bbb     H5 1238   2.852   8.919  11.585  0.9844  0.1889  1.8019
   42bbb     H6 1239   3.009   8.893  11.543  2.5720  2.0391  1.7289
   42bbb     C4 1240   2.928   9.041  11.415 -0.2924 -0.3084  0.0733
   42bbb     H7 1241   2.847   9.111  11.440  0.1331 -0.5983  2.5413
   42bbb     H8 1242   2.907   8.963  11.341  0.0422 -1.4164  1.1184
   42bbb     C5 1243   2.775   9.079  11.807 -0.2633 -0.0458  0.0992
   42bbb     H9 1244   2.813   9.000  11.873 -0.7971 -0.1664  0.2714
   42bbb    H10 1245   2.711   9.033  11.730  1.1886 -1.1539 -0.4869
   42bbb     C6 1246   3.176   8.886  11.769  0.6692 -0.1566  1.1269
   42bbb    H11 1247   3.160   8.816  11.687 -4.2136  1.2468  0.5956
   42bbb    H12 1248   3.198   8.833  11.862  0.8755 -2.1547 -0.0190
   42bbb     C7 1249   3.042   9.126  11.369  0.3935  0.9965  0.2636
   42bbb    H13 1250   3.051   9.211  11.438  1.5000  3.5345 -2.7755
   42bbb    H14 1251   3.011   9.160  11.269  1.9222 -0.0992 -0.6172
   42bbb     C8 1252   3.287   8.979  11.741 -0.1492 -0.4112  0.4545
   42bbb    H15 1253   3.369   8.918  11.702 -1.4857 -1.9831 -0.0480
   42bbb    H16 1254   3.262   9.048  11.659  0.8680 -1.7712 -1.0595
   42bbb     C9 1255   2.679   9.171  11.894 -0.0057  0.7052 -0.7064
   42bbb    H17 1256   2.594   9.109  11.928 -0.7947  3.0330  1.9390
   42bbb    H18 1257   2.630   9.245  11.831 -1.1412  1.2379  0.7301
   42bbb     O1 1258   3.168   9.053  11.366 -0.3120  0.1597  0.4293
   42bbb    H19 1259   3.075   9.110  11.636  0.9187 -2.0680  1.0204
   43bbb     N1 1260   1.031   9.860  10.668 -0.2766  0.1071  0.6880
   43bbb     C1 1261   1.117   9.908  10.789 -0.5192  0.3265  0.4217
   43bbb     H1 1262   1.045   9.927  10.868 -2.3146 -2.2299 -0.4556
   43bbb     H2 1263   1.153  10.004  10.750 -0.5417  0.0087 -0.3937
   43bbb     C2 1264   0.940   9.973  10.623  0.4637 -0.7557  0.0929
   43bbb     H3 1265   0.904   9.942  10.524  3.0588  1.9524 -1.8832
   43bbb     H4 1266   1.008  10.056  10.601  0.7122 -0.7187  0.9641
   43bbb     C3 1267   1.125   9.821  10.554  0.4564 -0.1115 -0.8620
   43bbb     H5 1268   1.071   9.781  10.468  0.8408  0.0331 -1.1697
   43bbb     H6 1269   1.188   9.742  10.596 -0.4548 -0.0744  0.6488
   43bbb     C4 1270   1.223   9.931  10.507 -0.8099  0.3288 -0.2623
   43bbb     H7 1271   1.276   9.974  10.593  0.9398 -1.4395 -0.3793
   43bbb     H8 1272   1.168  10.018  10.470  2.4406  2.0127 -1.5682
   43bbb     C5 1273   1.237   9.822  10.840 -0.6778  0.1272  0.1559
   43bbb     H9 1274   1.304   9.800  10.756  1.8592 -1.1476  2.3335
   43bbb    H10 1275   1.209   9.733  10.898  0.7433  0.3279  1.2044
   43bbb     C6 1276   0.815  10.008  10.721 -0.6176 -0.3419 -0.0078
   43bbb    H11 1277   0.774  10.109  10.707  0.6634  0.4964  1.9145
   43bbb    H12 1278   0.857  10.013  10.822  2.6606 -1.1219 -1.2069
   43bbb     C7 1279   1.325   9.872  10.397 -0.2564  0.4032  0.5302
   43bbb    H13 1280   1.380   9.952  10.346 -0.4405  0.0474 -0.2432
   43bbb    H14 1281   1.261   9.826  10.321  0.1422  0.8243 -0.0695
   43bbb     C8 1282   0.705   9.907  10.709 -0.0894  0.5193  0.2606
   43bbb    H15 1283   0.616   9.929  10.770  0.6166  3.2278  0.4587
   43bbb    H16 1284   0.677   9.911  10.603 -0.0309  1.0001  0.2582
   43bbb     C9 1285   1.333   9.895  10.941  0.6296 -0.3104 -0.2178
   43bbb    H17 1286   1.409   9.835  10.993  0.1160  1.2794  2.5859
   43bbb    H18 1287   1.263   9.913  11.024  1.0788 -0.2839  0.1562
   43bbb     O1 1288   1.416   9.775  10.444 -0.6439  0.0553 -0.1319
   43bbb    H19 1289   0.970   9.781  10.694 -2.7325  1.6456  0.0072
   44bbb     N1 1290   1.635   9.963  10.706  0.1905 -0.3273 -0.0630
   44bbb     C1 1291   1.769  10.027  10.747  0.4839  0.1280 -0.2470
   44bbb     H1 1292   1.849  10.019  10.673  0.2310  1.1979 -0.6501
   44bbb     H2 1293   1.790   9.966  10.835  0.8432  1.7086  0.8034
   44bbb     C2 1294   1.575  10.035  10.588 -0.0179 -0.2544  0.7678
   44bbb     H3 1295   1.558  10.141  10.608 -0.3997  0.3323 -2.2224
   44bbb     H4 1296   1.472  10.003  10.573  0.1815 -1.4685  1.8072
   44bbb     C3 1297   1.646   9.813  10.686  0.2758 -0.4402 -0.4273
   44bbb     H5 1298   1.718   9.795  10.606  0.4228  3.2560 -1.2953
   44bbb     H6 1299   1.547   9.782  10.650  0.5402  0.1982 -1.7732
   44bbb     C4 1300   1.671   9.721  10.807  0.7994 -0.1965 -0.0089
   44bbb     H7 1301   1.575   9.704  10.857  0.5102  0.1541 -0.4321
   44bbb     H8 1302   1.729   9.779  10.880 -0.6784 -0.7858  1.7065
   44bbb     C5 1303   1.763  10.176  10.781 -0.6878  0.2571 -0.2919
   44bbb     H9 1304   1.686  10.203  10.854  0.8543  0.5356  1.2884
   44bbb    H10 1305   1.756  10.239  10.691  0.6673  1.4779  0.4004
   44bbb     C6 1306   1.666  10.038  10.463 -0.4178  0.4287 -0.3261
   44bbb    H11 1307   1.672   9.935  10.425 -0.7091 -0.1445  1.0873
   44bbb    H12 1308   1.765  10.074  10.494 -0.1604 -0.0090 -0.6236
   44bbb     C7 1309   1.739   9.590  10.793  0.6237  0.7943  1.0819
   44bbb    H13 1310   1.658   9.522  10.766 -0.3929  2.9534 -1.7918
   44bbb    H14 1311   1.776   9.557  10.891  1.8654 -0.2622  0.2909
   44bbb     C8 1312   1.622  10.138  10.354 -0.2403  0.4056 -0.3835
   44bbb    H15 1313   1.683  10.123  10.264  0.4687  1.1960 -0.0533
   44bbb    H16 1314   1.522  10.113  10.316 -1.1865  2.8954  0.2452
   44bbb     C9 1315   1.894  10.215  10.847 -0.0151 -0.0247  0.0777
   44bbb    H17 1316   1.975  10.161  10.797 -0.0126  0.5556 -0.5710
   44bbb    H18 1317   1.904  10.183  10.951 -0.7788  0.2665  0.2473
   44bbb     O1 1318   1.843   9.585  10.699 -0.4951 -0.4117 -0.1936
   44bbb    H19 1319   1.566   9.964  10.783  0.2011  2.1220  0.0037
   45bbb     N1 1320   1.417   8.464  11.380  0.1778  1.0616  0.2202
   45bbb     C1 1321   1.529   8.378  11.436  0.1036 -0.2318  0.0498
   45bbb     H1 1322   1.537   8.295  11.365 -2.4980  0.7558 -1.5183
   45bbb     H2 1323   1.492   8.342  11.532  1.6835  0.9146  1.1448
   45bbb     C2 1324   1.376   8.563  11.490 -0.7471 -0.8015 -0.1646
   45bbb     H3 1325   1.336   8.651  11.438 -0.0008  0.5008  1.3950
   45bbb     H4 1326   1.463   8.588  11.551 -1.0428 -1.0628  0.3666
   45bbb     C3 1327   1.453   8.533  11.252  0.3186 -0.3055  0.3553
   45bbb     H5 1328   1.502   8.470  11.178  1.4616  0.4890  0.4017
   45bbb     H6 1329   1.523   8.610  11.286 -1.6018  3.3726 -3.2117
   45bbb     C4 1330   1.341   8.605  11.173 -0.6509 -0.0382  0.0273
   45bbb     H7 1331   1.272   8.659  11.239 -2.5345 -2.4798  0.1655
   45bbb     H8 1332   1.281   8.532  11.119 -0.6164 -0.1776  0.1788
   45bbb     C5 1333   1.671   8.450  11.461 -0.5716 -0.6581  0.3583
   45bbb     H9 1334   1.659   8.535  11.529  1.7003 -1.0712  1.3645
   45bbb    H10 1335   1.702   8.505  11.371 -0.0725 -0.3838  0.6945
   45bbb     C6 1336   1.277   8.512  11.598 -0.0291 -0.7225  0.4756
   45bbb    H11 1337   1.261   8.596  11.666  0.2678 -0.9035  0.7683
   45bbb    H12 1338   1.319   8.425  11.648  1.2569 -1.3869 -1.6053
   45bbb     C7 1339   1.399   8.711  11.082  0.2818 -0.0737  0.2709
   45bbb    H13 1340   1.476   8.772  11.132 -0.1793 -0.7223  1.8132
   45bbb    H14 1341   1.318   8.779  11.053 -0.7961 -1.0840  0.8459
   45bbb     C8 1342   1.142   8.482  11.539 -0.0118 -0.0364 -0.0118
   45bbb    H15 1343   1.079   8.454  11.625 -0.8497 -0.4539 -0.7468
   45bbb    H16 1344   1.097   8.574  11.500 -0.1638 -0.3627 -0.6175
   45bbb     C9 1345   1.786   8.348  11.495 -0.6188  0.1371 -0.9866
   45bbb    H17 1346   1.875   8.405  11.464 -0.2803 -0.3187 -0.8653
   45bbb    H18 1347   1.780   8.258  11.433 -1.0846  0.6253 -1.6679
   45bbb     O1 1348   1.459   8.645  10.963  0.1025  0.4442 -0.4455
   45bbb    H19 1349   1.328   8.415  11.363 -0.3409  1.7081  1.0152
   46bbb     N1 1350   1.509   7.715  10.685  0.1184 -0.1604  0.1834
   46bbb     C1 1351   1.425   7.736  10.556 -0.1336  0.6177 -0.3079
   46bbb     H1 1352   1.365   7.646  10.543 -1.7289  1.3360  1.4222
   46bbb     H2 1353   1.490   7.751  10.470  0.3494  1.1167  0.1312
   46bbb     C2 1354   1.559   7.569  10.695 -0.2934 -0.4583  0.4982
   46bbb     H3 1355   1.641   7.585  10.766 -1.9927  0.7182  2.3111
   46bbb     H4 1356   1.596   7.538  10.597 -0.0649 -1.0809  0.7821
   46bbb     C3 1357   1.628   7.811  10.677  0.0840 -0.4898 -0.4745
   46bbb     H5 1358   1.592   7.899  10.623 -0.9680 -1.2755 -1.0805
   46bbb     H6 1359   1.709   7.770  10.616 -0.8312  1.1141 -2.9343
   46bbb     C4 1360   1.692   7.869  10.813 -1.2534  1.1660 -0.1901
   46bbb     H7 1361   1.728   7.784  10.871 -1.6361 -0.0860 -1.7107
   46bbb     H8 1362   1.604   7.901  10.870 -2.6520 -1.5536 -0.6586
   46bbb     C5 1363   1.321   7.847  10.563 -0.2794 -0.2713 -0.3265
   46bbb     H9 1364   1.361   7.939  10.607 -1.3415  0.0310  0.0195
   46bbb    H10 1365   1.244   7.810  10.631 -0.4529  0.4305 -0.1339
   46bbb     C6 1366   1.447   7.466  10.736  0.0899 -0.2223  0.0394
   46bbb    H11 1367   1.353   7.470  10.681 -0.9474 -1.1466  1.6615
   46bbb    H12 1368   1.428   7.514  10.833  2.5206 -0.1990  0.5881
   46bbb     C7 1369   1.810   7.980  10.806  0.1717 -0.4835  0.1428
   46bbb    H13 1370   1.888   7.934  10.744  0.1959  0.5943 -0.6352
   46bbb    H14 1371   1.852   7.988  10.907 -0.9295 -0.9064  0.6478
   46bbb     C8 1372   1.492   7.313  10.751 -0.3361 -0.1543 -0.1045
   46bbb    H15 1373   1.589   7.306  10.799 -0.9692 -0.9381  1.0931
   46bbb    H16 1374   1.416   7.264  10.813 -0.5750  1.0974  0.6249
   46bbb     C9 1375   1.248   7.886  10.433 -0.6736  0.2561 -0.2288
   46bbb    H17 1376   1.313   7.938  10.362  0.6490 -1.3823 -0.2787
   46bbb    H18 1377   1.173   7.958  10.466 -0.5565 -0.3753  1.4858
   46bbb     O1 1378   1.755   8.101  10.744 -0.1033  0.2527  0.2218
   46bbb    H19 1379   1.449   7.733  10.767 -0.6089 -1.7025  0.0204
   47bbb     N1 1380   5.494   8.350   6.353 -0.3368 -0.0497 -0.2575
   47bbb     C1 1381   5.495   8.493   6.299  0.8348 -0.7066 -0.0400
   47bbb     H1 1382   5.598   8.518   6.271  1.3365 -1.7968  0.7382
   47bbb     H2 1383   5.470   8.563   6.379 -1.0840  0.0597 -1.2532
   47bbb     C2 1384   5.614   8.341   6.454 -0.5069  0.0387 -0.4733
   47bbb     H3 1385   5.633   8.236   6.476 -0.4977  0.5955  2.7997
   47bbb     H4 1386   5.580   8.389   6.546 -1.8394 -1.7769  0.0277
   47bbb     C3 1387   5.349   8.338   6.408 -0.1765 -0.5873 -0.3770
   47bbb     H5 1388   5.281   8.322   6.325 -1.0194 -0.9869  0.3787
   47bbb     H6 1389   5.325   8.436   6.450 -0.6241 -0.7748 -0.1913
   47bbb     C4 1390   5.329   8.229   6.517  0.2805 -0.5666  0.4550
   47bbb     H7 1391   5.391   8.257   6.603  0.3403  1.0275 -0.0716
   47bbb     H8 1392   5.356   8.131   6.478 -0.3386 -0.6378  0.2003
   47bbb     C5 1393   5.420   8.529   6.175  0.4565 -0.4640 -0.0291
   47bbb     H9 1394   5.469   8.619   6.135  1.2606 -1.4345 -1.3360
   47bbb    H10 1395   5.318   8.559   6.202  0.2455 -1.9177  0.8980
   47bbb     C6 1396   5.749   8.417   6.420 -0.2393 -0.0209  0.2637
   47bbb    H11 1397   5.741   8.526   6.427  0.5116  0.0518  0.1019
   47bbb    H12 1398   5.765   8.395   6.313 -1.4736  0.1219  0.0298
   47bbb     C7 1399   5.186   8.228   6.570 -0.9815 -0.4641  1.0002
   47bbb    H13 1400   5.173   8.144   6.639  0.2873 -1.4650  0.0709
   47bbb    H14 1401   5.124   8.221   6.480  1.5369 -0.2140 -0.8610
   47bbb     C8 1402   5.878   8.375   6.505 -0.9454 -0.5745 -0.4716
   47bbb    H15 1403   5.880   8.266   6.513 -4.1026 -0.6323  1.5054
   47bbb    H16 1404   5.969   8.416   6.459 -1.4410  1.2477  0.0626
   47bbb     C9 1405   5.406   8.413   6.072 -0.0394 -0.3565 -0.3591
   47bbb    H17 1406   5.361   8.448   5.978  1.4990  1.1507 -0.5758
   47bbb    H18 1407   5.350   8.326   6.107  0.3713 -1.2462 -1.8230
   47bbb     O1 1408   5.163   8.356   6.636  0.0463 -0.0356  0.0953
   47bbb    H19 1409   5.523   8.279   6.285  0.5961 -0.6899  0.7803
   48bbb     N1 1410   5.761   7.989   6.948  0.2267  0.0184 -0.1548
   48bbb     C1 1411   5.863   7.910   7.036  0.3143 -0.3315  0.4846
   48bbb     H1 1412   5.869   7.972   7.126 -2.2099 -1.8253  1.7985
   48bbb     H2 1413   5.960   7.915   6.987  0.0728  0.4288  0.0624
   48bbb     C2 1414   5.747   7.933   6.810 -0.1793  0.4565  0.5794
   48bbb     H3 1415   5.728   7.825   6.810  0.3310  0.3655  0.2190
   48bbb     H4 1416   5.842   7.938   6.757 -0.5903 -2.0957 -0.5510
   48bbb     C3 1417   5.622   7.987   7.021 -0.2448  0.4291 -0.0875
   48bbb     H5 1418   5.575   7.889   7.011  1.3711 -0.1523 -2.7404
   48bbb     H6 1419   5.564   8.065   6.970 -0.8914 -0.4282 -0.6835
   48bbb     C4 1420   5.614   8.038   7.169 -0.1095  0.4846 -0.4708
   48bbb     H7 1421   5.661   8.137   7.170  2.4196 -0.5954  1.7544
   48bbb     H8 1422   5.677   7.964   7.221 -1.6841 -1.3331 -1.0346
   48bbb     C5 1423   5.838   7.756   7.059 -0.1541  0.0902 -0.1643
   48bbb     H9 1424   5.838   7.703   6.963 -0.5655 -0.9583  0.4031
   48bbb    H10 1425   5.742   7.749   7.111  0.5083  1.0679  1.2500
   48bbb     C6 1426   5.634   7.996   6.724 -0.8106  0.2910  0.0782
   48bbb    H11 1427   5.633   8.106   6.720  0.2394  0.2786 -2.2102
   48bbb    H12 1428   5.540   7.961   6.769  0.3242 -0.7113  1.7779
   48bbb     C7 1429   5.467   8.061   7.214  0.7992  0.3454  0.4459
   48bbb    H13 1430   5.461   8.070   7.323  0.6532  1.4996  0.3647
   48bbb    H14 1431   5.412   7.968   7.198  2.5570 -0.7976  0.7308
   48bbb     C8 1432   5.632   7.947   6.578  0.1798  0.1078  0.3015
   48bbb    H15 1433   5.652   7.840   6.568  1.2882  0.3729 -0.4690
   48bbb    H16 1434   5.535   7.960   6.529  0.9933 -0.0018 -1.4200
   48bbb     C9 1435   5.941   7.692   7.154 -0.3628  0.3108  0.9985
   48bbb    H17 1436   6.031   7.674   7.094 -1.8090  0.4394 -1.3140
   48bbb    H18 1437   5.905   7.597   7.197  1.0718 -0.4245  0.6195
   48bbb     O1 1438   5.400   8.167   7.146  0.1316  0.2512 -0.5038
   48bbb    H19 1439   5.792   8.088   6.943 -0.6846  0.2934 -0.4896
   49bbb     N1 1440   3.990   9.557   7.210  0.5976 -0.3737 -0.0379
   49bbb     C1 1441   3.957   9.701   7.176  0.2476 -0.1507 -0.1794
   49bbb     H1 1442   3.866   9.715   7.119 -0.2068 -2.4714 -0.1418
   49bbb     H2 1443   4.039   9.739   7.116  2.0905  0.0609  2.2851
   49bbb     C2 1444   3.872   9.482   7.278  0.5822  0.3278 -0.5378
   49bbb     H3 1445   3.794   9.471   7.203  0.5342 -0.3063 -0.3965
   49bbb     H4 1446   3.841   9.543   7.363  0.5891 -1.6014  0.9078
   49bbb     C3 1447   4.025   9.488   7.078 -0.3127  0.7596  0.5565
   49bbb     H5 1448   3.947   9.510   7.004 -0.3699  2.7363  1.1643
   49bbb     H6 1449   4.019   9.381   7.098 -0.1367  1.2239  3.5440
   49bbb     C4 1450   4.162   9.516   7.019 -0.3667 -0.2143  0.2075
   49bbb     H7 1451   4.234   9.497   7.100 -2.0138 -0.0981  1.7638
   49bbb     H8 1452   4.166   9.622   6.993 -2.5924  0.3505  1.9105
   49bbb     C5 1453   3.959   9.789   7.300  0.0082  0.5590  0.0151
   49bbb     H9 1454   4.063   9.778   7.334  0.3878  0.3793 -1.1512
   49bbb    H10 1455   3.891   9.764   7.382  0.7844  1.0822  0.8432
   49bbb     C6 1456   3.913   9.342   7.329 -0.4599 -0.3328 -0.5241
   49bbb    H11 1457   4.021   9.341   7.346 -0.4661  1.4031 -0.1713
   49bbb    H12 1458   3.892   9.285   7.238  0.9218  0.9264 -1.6854
   49bbb     C7 1459   4.203   9.424   6.901  0.2201  0.0412  0.1631
   49bbb    H13 1460   4.289   9.470   6.851 -0.7473  0.4291 -1.2096
   49bbb    H14 1461   4.134   9.419   6.815  3.1338  0.6518 -2.4019
   49bbb     C8 1462   3.832   9.284   7.447  0.4232  0.2801  0.0773
   49bbb    H15 1463   3.882   9.193   7.483 -2.2335 -1.1963  0.3077
   49bbb    H16 1464   3.819   9.350   7.533 -2.0213  0.2679 -0.2096
   49bbb     C9 1465   3.937   9.937   7.265 -0.1608  0.0702 -0.0236
   49bbb    H17 1466   3.830   9.957   7.275 -0.2312 -1.0138  1.6950
   49bbb    H18 1467   3.980   9.951   7.165 -1.4446  0.2686 -0.5685
   49bbb     O1 1468   4.250   9.295   6.945  0.7412  0.2680 -0.0388
   49bbb    H19 1469   4.068   9.563   7.277  1.1459  1.5273 -0.7790
   50bbb     N1 1470   4.272   8.257   6.970  0.1378  0.0656 -0.2247
   50bbb     C1 1471   4.137   8.314   6.992  0.3164  0.2396  0.7650
   50bbb     H1 1472   4.093   8.249   7.069 -0.7964 -3.1770 -2.4585
   50bbb     H2 1473   4.070   8.302   6.907  2.0385 -0.2735 -0.5769
   50bbb     C2 1474   4.271   8.102   6.964  0.5711 -0.1735  1.4953
   50bbb     H3 1475   4.230   8.064   7.058  0.6184  0.7195  1.8911
   50bbb     H4 1476   4.375   8.073   6.956  0.4808 -0.2042  0.1542
   50bbb     C3 1477   4.327   8.335   6.851 -0.3173  0.2322  0.0842
   50bbb     H5 1478   4.315   8.441   6.869 -0.0416  0.9046 -3.0923
   50bbb     H6 1479   4.277   8.307   6.757 -1.1970  0.8198  0.3632
   50bbb     C4 1480   4.477   8.321   6.828  0.8390  0.5632  0.5992
   50bbb     H7 1481   4.500   8.231   6.768 -0.2677 -0.0220  1.0347
   50bbb     H8 1482   4.529   8.319   6.925 -0.6274 -2.2184  1.4334
   50bbb     C5 1483   4.145   8.465   7.044 -0.6274  0.4440  0.5632
   50bbb     H9 1484   4.154   8.528   6.954 -0.6269 -1.0623 -0.5429
   50bbb    H10 1485   4.228   8.479   7.114 -0.8062  2.0859  0.4820
   50bbb     C6 1486   4.212   8.038   6.836  0.5686  0.2618 -0.2749
   50bbb    H11 1487   4.278   8.061   6.752  0.4820  0.5027 -0.2763
   50bbb    H12 1488   4.110   8.075   6.819  0.3697 -0.0125  0.2989
   50bbb     C7 1489   4.525   8.430   6.742 -0.5434  0.0875  0.4115
   50bbb    H13 1490   4.448   8.466   6.673  0.2521  2.0894  0.5095
   50bbb    H14 1491   4.612   8.387   6.691 -0.9873 -0.5281  0.1600
   50bbb     C8 1492   4.214   7.883   6.841 -1.0676  0.4815  0.1047
   50bbb    H15 1493   4.321   7.862   6.853 -1.4834 -1.1139  1.4320
   50bbb    H16 1494   4.163   7.838   6.927  2.1019 -1.0433  1.3249
   50bbb     C9 1495   4.016   8.502   7.109 -0.7563  0.3391  0.9189
   50bbb    H17 1496   4.009   8.468   7.213 -1.3781 -0.3874  0.6501
   50bbb    H18 1497   3.926   8.453   7.069 -2.1781  1.1209  3.0052
   50bbb     O1 1498   4.544   8.545   6.824  0.2589 -0.3281  0.2308
   50bbb    H19 1499   4.330   8.272   7.054 -1.5210  1.6262  0.7259
   51bbb     N1 1500   5.301  10.627   7.302 -0.2145 -0.1333 -0.3047
   51bbb     C1 1501   5.386  10.732   7.364 -0.1664  0.5351 -0.0897
   51bbb     H1 1502   5.345  10.822   7.319 -2.7141  0.5330  1.9838
   51bbb     H2 1503   5.490  10.720   7.332 -1.0594 -1.0268 -2.7471
   51bbb     C2 1504   5.332  10.619   7.153  0.3245 -0.2730 -0.2835
   51bbb     H3 1505   5.439  10.598   7.153  0.6728  1.3479  0.2619
   51bbb     H4 1506   5.309  10.719   7.115 -1.3459  0.1498  1.6659
   51bbb     C3 1507   5.314  10.494   7.375 -0.4270  0.1970 -0.6634
   51bbb     H5 1508   5.226  10.435   7.348 -0.2560 -0.6429  0.5029
   51bbb     H6 1509   5.294  10.522   7.479 -3.1014  1.7382 -1.4901
   51bbb     C4 1510   5.442  10.415   7.345 -0.1909  0.1564 -0.5445
   51bbb     H7 1511   5.526  10.486   7.337  2.5130 -2.4174  2.2517
   51bbb     H8 1512   5.427  10.366   7.248 -1.1005 -0.2030 -0.2285
   51bbb     C5 1513   5.378  10.750   7.521  0.3744  0.2947  0.1385
   51bbb     H9 1514   5.418  10.667   7.580 -1.2433 -0.0706  0.7627
   51bbb    H10 1515   5.273  10.758   7.553 -0.3478  0.9836 -2.1383
   51bbb     C6 1516   5.248  10.519   7.070 -0.8900  0.0255 -0.2164
   51bbb    H11 1517   5.222  10.440   7.142  0.4068  0.0410  0.2847
   51bbb    H12 1518   5.312  10.466   6.999 -0.1015  1.0937 -0.3270
   51bbb     C7 1519   5.481  10.306   7.447 -0.5763 -0.2221 -0.2884
   51bbb    H13 1520   5.526  10.367   7.526 -2.1734  1.7616 -0.8128
   51bbb    H14 1521   5.555  10.233   7.414 -1.0452 -0.5496 -0.6359
   51bbb     C8 1522   5.126  10.580   6.997 -0.3542  0.3297 -0.2612
   51bbb    H15 1523   5.046  10.505   6.992  1.6822 -2.2381  2.3132
   51bbb    H16 1524   5.091  10.666   7.055 -0.9986  0.1500 -0.3737
   51bbb     C9 1525   5.463  10.864   7.565 -0.7770 -0.2427  0.2015
   51bbb    H17 1526   5.571  10.864   7.544 -0.4794 -0.4792  1.6074
   51bbb    H18 1527   5.473  10.857   7.674 -0.6838 -1.5320  0.1306
   51bbb     O1 1528   5.369  10.231   7.497 -0.1411  0.2315  0.1438
   51bbb    H19 1529   5.210  10.671   7.317  1.4169  3.4666  0.0487
   52bbb     N1 1530   4.936  10.425   8.091 -0.7712 -0.2962 -0.4568
   52bbb     C1 1531   5.085  10.404   8.106 -0.3020  0.5271  0.0285
   52bbb     H1 1532   5.107  10.388   8.212 -0.1148 -0.1773 -0.1131
   52bbb     H2 1533   5.127  10.499   8.075  0.0785 -0.0562 -1.2958
   52bbb     C2 1534   4.892  10.539   8.183 -0.3664 -0.0350 -0.0311
   52bbb     H3 1535   4.915  10.634   8.136 -0.4292 -1.7393 -3.8573
   52bbb     H4 1536   4.948  10.525   8.276  0.8020  0.4225 -0.6578
   52bbb     C3 1537   4.910  10.450   7.941 -0.1374 -0.4966 -0.2741
   52bbb     H5 1538   4.803  10.455   7.925 -0.2157 -0.2730  0.2720
   52bbb     H6 1539   4.949  10.363   7.888  0.5569 -0.9472  0.9219
   52bbb     C4 1540   4.975  10.579   7.880 -0.8320 -0.1510 -0.3308
   52bbb     H7 1541   5.083  10.565   7.896 -0.9208 -1.0795 -0.4855
   52bbb     H8 1542   4.947  10.667   7.939  2.4768  1.0208 -0.3246
   52bbb     C5 1543   5.146  10.277   8.038 -0.4616  0.0210  0.1192
   52bbb     H9 1544   5.130  10.273   7.930  1.5230  1.6200 -0.2998
   52bbb    H10 1545   5.102  10.188   8.084  0.3226 -0.5607 -0.2538
   52bbb     C6 1546   4.743  10.532   8.221  0.6301  0.7129  0.2634
   52bbb    H11 1547   4.730  10.605   8.301 -1.4408  2.2815 -1.3912
   52bbb    H12 1548   4.720  10.431   8.257  1.8516 -0.8636 -2.9555
   52bbb     C7 1549   4.934  10.597   7.741  0.0520 -0.2658  0.1005
   52bbb    H13 1550   4.964  10.696   7.703 -0.4670  1.1132  2.9660
   52bbb    H14 1551   4.825  10.588   7.743  0.0810 -0.5756  0.7149
   52bbb     C8 1552   4.638  10.566   8.110 -0.2166 -0.5844 -0.0689
   52bbb    H15 1553   4.638  10.475   8.048 -0.4396 -2.5729  2.6282
   52bbb    H16 1554   4.542  10.568   8.162  0.6284 -0.4444  1.5770
   52bbb     C9 1555   5.292  10.269   8.065  0.1846  0.0606 -0.8412
   52bbb    H17 1556   5.344  10.184   8.018  0.0907 -0.7602  0.4949
   52bbb    H18 1557   5.315  10.268   8.172  2.7709 -1.0339 -1.3217
   52bbb     O1 1558   4.995  10.478   7.669  0.2939 -0.1667 -0.7476
   52bbb    H19 1559   4.889  10.339   8.123 -1.4053  0.4037  0.5591
   53bbb     N1 1560   5.993   9.643   9.179 -0.2675 -0.8191  0.8315
   53bbb     C1 1561   6.050   9.704   9.047 -0.0475 -0.3731 -0.6057
   53bbb     H1 1562   6.143   9.759   9.065 -0.1967 -0.2906 -0.0907
   53bbb     H2 1563   5.980   9.773   8.999 -1.7642 -1.7957 -0.2256
   53bbb     C2 1564   5.944   9.766   9.250  0.5433 -0.0932 -0.0459
   53bbb     H3 1565   5.860   9.811   9.196 -0.1195 -0.2998  0.7930
   53bbb     H4 1566   6.029   9.834   9.260 -1.5699  2.4283  2.6335
   53bbb     C3 1567   5.871   9.548   9.147  0.1009 -0.0330  0.2679
   53bbb     H5 1568   5.825   9.521   9.243  2.1181  0.7011  1.5012
   53bbb     H6 1569   5.919   9.463   9.099 -0.1419 -0.6352  1.0621
   53bbb     C4 1570   5.761   9.607   9.055  0.2686 -0.2225 -0.7338
   53bbb     H7 1571   5.807   9.651   8.966  3.1238 -1.5449 -0.0163
   53bbb     H8 1572   5.712   9.689   9.109 -0.8600 -1.4108  0.1138
   53bbb     C5 1573   6.084   9.594   8.949 -0.2108 -0.7469 -0.7066
   53bbb     H9 1574   5.993   9.555   8.902 -2.1975  1.3254  1.1895
   53bbb    H10 1575   6.137   9.515   9.004 -1.9765  0.9401  3.8714
   53bbb     C6 1576   5.896   9.748   9.394 -0.6396 -0.1633 -0.3339
   53bbb    H11 1577   5.982   9.701   9.444 -1.2053 -2.6631 -1.5629
   53bbb    H12 1578   5.821   9.669   9.393 -0.8923  0.0744 -0.3029
   53bbb     C7 1579   5.662   9.490   9.016  0.4769  0.2770  0.2109
   53bbb    H13 1580   5.597   9.468   9.102 -0.3893  0.8684 -0.2729
   53bbb    H14 1581   5.714   9.397   8.987 -0.4368 -0.0859 -0.3095
   53bbb     C8 1582   5.859   9.882   9.466 -0.1866 -0.7802  0.3486
   53bbb    H15 1583   5.811   9.858   9.561 -0.4908 -3.9029 -0.4914
   53bbb    H16 1584   5.952   9.937   9.484 -0.6852  0.1600  0.1432
   53bbb     C9 1585   6.180   9.655   8.844  0.0540 -0.0378  1.0195
   53bbb    H17 1586   6.142   9.754   8.814  2.7685  0.7165 -0.2522
   53bbb    H18 1587   6.181   9.591   8.754 -0.0995 -0.1332  1.0849
   53bbb     O1 1588   5.573   9.532   8.907  0.0789 -0.0387  0.1075
   53bbb    H19 1589   6.071   9.602   9.232 -0.3007  0.4517  1.9107
   54bbb     N1 1590   5.732   9.608   8.286  0.1901 -0.1042 -0.3565
   54bbb     C1 1591   5.733   9.524   8.410  0.3022 -0.0522 -0.0890
   54bbb     H1 1592   5.805   9.443   8.400 -0.4732 -0.5938 -1.6578
   54bbb     H2 1593   5.632   9.481   8.408  0.6638 -0.9078 -0.6054
   54bbb     C2 1594   5.876   9.652   8.253 -0.1907 -0.4672 -0.1847
   54bbb     H3 1595   5.927   9.561   8.223  0.5383 -0.1135 -0.0332
   54bbb     H4 1596   5.924   9.699   8.339 -0.5902 -1.3424  0.5358
   54bbb     C3 1597   5.671   9.541   8.165  0.2497  0.3216 -0.0822
   54bbb     H5 1598   5.718   9.444   8.152  1.1514  1.0327 -2.7334
   54bbb     H6 1599   5.710   9.593   8.078 -0.4743 -0.9638 -1.2058
   54bbb     C4 1600   5.522   9.535   8.159  0.8655 -0.1637 -0.1875
   54bbb     H7 1601   5.490   9.454   8.226  1.7736 -1.3611 -1.1717
   54bbb     H8 1602   5.486   9.517   8.057  0.3122 -1.4194  0.2147
   54bbb     C5 1603   5.750   9.590   8.552  0.1076  0.9516  0.1039
   54bbb     H9 1604   5.654   9.627   8.590  0.2877 -0.5170  2.2309
   54bbb    H10 1605   5.827   9.666   8.541  0.2847  0.4760 -2.4223
   54bbb     C6 1606   5.900   9.750   8.142  0.1177  0.2993  0.1493
   54bbb    H11 1607   5.847   9.844   8.163 -1.5595 -0.6061  0.1414
   54bbb    H12 1608   5.856   9.714   8.049  0.4069 -2.7881  1.0965
   54bbb     C7 1609   5.442   9.661   8.202  0.0078 -0.5984  0.9433
   54bbb    H13 1610   5.342   9.650   8.158 -0.0352 -0.5665  1.0301
   54bbb    H14 1611   5.491   9.746   8.155  0.9614 -0.2204  2.5348
   54bbb     C8 1612   6.052   9.771   8.130 -0.4451  0.1838 -0.4624
   54bbb    H15 1613   6.070   9.836   8.044  0.0524  2.3952  1.2121
   54bbb    H16 1614   6.087   9.818   8.223 -2.6393 -1.0975  1.1183
   54bbb     C9 1615   5.796   9.479   8.653 -0.6197 -0.3685 -0.4561
   54bbb    H17 1616   5.740   9.389   8.624 -0.3329 -0.1949 -1.6085
   54bbb    H18 1617   5.786   9.514   8.756  0.9666  2.5217 -1.1645
   54bbb     O1 1618   5.446   9.688   8.343 -0.1531  0.0941 -0.1051
   54bbb    H19 1619   5.663   9.684   8.297 -0.3748 -0.3951 -1.6860
   55bbb     N1 1620   2.479   6.862   6.210 -0.2607  0.3137  0.5772
   55bbb     C1 1621   2.586   6.962   6.252  1.1044  0.0473 -0.3805
   55bbb     H1 1622   2.638   6.998   6.163 -2.4735  2.6397 -1.6657
   55bbb     H2 1623   2.649   6.916   6.329  0.4279 -0.3605 -0.0617
   55bbb     C2 1624   2.540   6.772   6.107  0.1230 -0.2525  0.4736
   55bbb     H3 1625   2.488   6.676   6.106  1.4485 -0.9841  0.2560
   55bbb     H4 1626   2.645   6.757   6.130  0.2834 -0.6298 -0.4563
   55bbb     C3 1627   2.449   6.772   6.329 -0.5137  0.1308 -0.3741
   55bbb     H5 1628   2.434   6.832   6.419 -2.8776 -1.3970  0.3448
   55bbb     H6 1629   2.537   6.709   6.344 -1.5391 -1.3091 -0.1317
   55bbb     C4 1630   2.321   6.678   6.310 -0.1545 -0.2422 -0.0393
   55bbb     H7 1631   2.353   6.603   6.237 -0.4947  0.6368 -1.1136
   55bbb     H8 1632   2.235   6.733   6.270  0.1174 -0.1183 -0.4613
   55bbb     C5 1633   2.520   7.088   6.298  0.0128  0.3826  0.3486
   55bbb     H9 1634   2.460   7.063   6.386  0.0412  0.6792  0.4547
   55bbb    H10 1635   2.442   7.132   6.233 -0.7356  2.0676  2.2813
   55bbb     C6 1636   2.551   6.828   5.965  0.8473 -0.1428  0.0305
   55bbb    H11 1637   2.574   6.936   5.964 -0.0104  0.0934  1.7386
   55bbb    H12 1638   2.455   6.839   5.914  0.0962 -0.5367  1.3120
   55bbb     C7 1639   2.290   6.604   6.437 -0.4094 -0.2738 -0.0046
   55bbb    H13 1640   2.382   6.575   6.489  1.0451  1.7392 -1.2991
   55bbb    H14 1641   2.243   6.510   6.407  1.3348 -1.5062  1.0076
   55bbb     C8 1642   2.641   6.750   5.871  0.4806  0.5889 -0.3717
   55bbb    H15 1643   2.645   6.805   5.776  0.0373 -1.1470 -1.4425
   55bbb    H16 1644   2.742   6.739   5.912  0.4910  1.6213 -0.0781
   55bbb     C9 1645   2.609   7.200   6.340 -0.5091  0.5453  0.2809
   55bbb    H17 1646   2.650   7.254   6.253 -2.1381  2.3647  0.5690
   55bbb    H18 1647   2.690   7.161   6.403 -0.9519 -0.3725  0.3008
   55bbb     O1 1648   2.200   6.679   6.527  0.0909  0.1993 -0.0880
   55bbb    H19 1649   2.393   6.908   6.175 -1.1754 -2.4508 -1.1681
   56bbb     N1 1650   1.456   6.495   6.676  0.1999  0.0492 -0.1889
   56bbb     C1 1651   1.564   6.401   6.621 -0.0589  0.3750 -0.0865
   56bbb     H1 1652   1.513   6.320   6.568 -0.9160  0.5574  0.4256
   56bbb     H2 1653   1.602   6.361   6.715 -2.5026 -0.3227  0.6791
   56bbb     C2 1654   1.343   6.420   6.755 -0.0706 -0.4973  0.3891
   56bbb     H3 1655   1.269   6.496   6.780  2.1549  2.1116 -0.4963
   56bbb     H4 1656   1.394   6.375   6.841 -2.1812 -0.0023  1.9998
   56bbb     C3 1657   1.522   6.585   6.772 -0.2245 -0.2797 -0.4572
   56bbb     H5 1658   1.619   6.614   6.731 -0.0706 -1.8320 -1.2869
   56bbb     H6 1659   1.547   6.533   6.865  2.0384  0.8854 -0.3371
   56bbb     C4 1660   1.449   6.712   6.820 -0.2833 -0.3264  0.1624
   56bbb     H7 1661   1.358   6.676   6.871 -1.0903  1.9126  0.3919
   56bbb     H8 1662   1.417   6.766   6.730  0.5128 -1.1540 -0.6377
   56bbb     C5 1663   1.685   6.450   6.532  0.1570  0.0451  0.3695
   56bbb     H9 1664   1.750   6.364   6.513 -0.1492  0.1789 -1.4431
   56bbb    H10 1665   1.745   6.526   6.582 -2.6572  1.8864  1.1805
   56bbb     C6 1666   1.278   6.304   6.674  0.5287 -0.2944  0.2033
   56bbb    H11 1667   1.346   6.222   6.648 -0.7100 -0.6667 -2.1896
   56bbb    H12 1668   1.252   6.331   6.570 -1.7876 -1.2821  0.4713
   56bbb     C7 1669   1.529   6.801   6.922  0.7265 -0.0299  0.4001
   56bbb    H13 1670   1.514   6.781   7.029 -2.6170  0.7568  0.1910
   56bbb    H14 1671   1.491   6.904   6.916  1.6627  0.3014 -0.0782
   56bbb     C8 1672   1.149   6.265   6.744 -0.3071 -0.3481  0.1028
   56bbb    H15 1673   1.087   6.353   6.766 -0.9395  0.2490 -3.3971
   56bbb    H16 1674   1.097   6.195   6.678 -0.4958 -0.6983  0.6145
   56bbb     C9 1675   1.645   6.508   6.394  0.2995  0.5535  0.1298
   56bbb    H17 1676   1.572   6.441   6.347  1.1045 -0.2029 -0.0669
   56bbb    H18 1677   1.724   6.511   6.317 -2.5501  1.0474 -2.9850
   56bbb     O1 1678   1.674   6.809   6.900  0.2079  0.0551 -0.0705
   56bbb    H19 1679   1.414   6.540   6.593  1.9115  1.9216 -0.0916
   57bbb     N1 1680   3.059   8.252   6.988  0.1107 -0.1738 -0.0008
   57bbb     C1 1681   3.107   8.374   6.911  0.2592  0.6579 -0.5126
   57bbb     H1 1682   3.052   8.463   6.943 -2.1787 -0.7902 -0.3974
   57bbb     H2 1683   3.085   8.355   6.806 -0.1626 -0.2772 -0.2592
   57bbb     C2 1684   2.910   8.240   6.984  0.0085  0.6145 -0.1344
   57bbb     H3 1685   2.887   8.155   7.048  0.9328 -0.9366 -1.7575
   57bbb     H4 1686   2.876   8.210   6.884 -2.3427 -1.3905  1.1589
   57bbb     C3 1687   3.125   8.129   6.943 -0.1895  0.8117  0.1399
   57bbb     H5 1688   3.231   8.148   6.962 -0.1168 -0.6289  1.4548
   57bbb     H6 1689   3.113   8.109   6.837 -4.0167  0.0145  0.5753
   57bbb     C4 1690   3.089   7.995   7.010 -0.2386  0.0638 -0.1455
   57bbb     H7 1691   2.981   7.975   7.015  0.3723 -3.8331  0.5187
   57bbb     H8 1692   3.112   7.982   7.117 -2.7407 -5.5289  0.0496
   57bbb     C5 1693   3.259   8.402   6.921  0.3151  0.2317 -0.0233
   57bbb     H9 1694   3.308   8.325   6.860 -1.8889 -0.4145 -1.0658
   57bbb    H10 1695   3.295   8.389   7.024  0.0017 -0.0355  0.0548
   57bbb     C6 1696   2.829   8.354   7.057 -0.3190 -0.0058  0.4931
   57bbb    H11 1697   2.724   8.326   7.042 -0.7284  1.4869  0.3911
   57bbb    H12 1698   2.823   8.447   6.999 -2.1057 -0.3970 -0.0108
   57bbb     C7 1699   3.150   7.873   6.936 -0.3274 -0.9964  0.5319
   57bbb    H13 1700   3.128   7.780   6.990  0.5014 -2.1341 -1.0086
   57bbb    H14 1701   3.260   7.881   6.939 -0.2213 -2.1119  0.1065
   57bbb     C8 1702   2.864   8.380   7.203  0.3007  0.6230  0.3281
   57bbb    H15 1703   2.790   8.452   7.242  0.0752  0.7748 -0.3724
   57bbb    H16 1704   2.848   8.285   7.255 -2.3311  0.2325 -1.0256
   57bbb     C9 1705   3.288   8.549   6.878 -0.3274 -0.1513  0.6986
   57bbb    H17 1706   3.235   8.563   6.783 -0.4245 -0.9075  0.6377
   57bbb    H18 1707   3.396   8.564   6.864 -0.3451 -1.5859 -1.4482
   57bbb     O1 1708   3.107   7.873   6.797 -0.2806 -0.1514  0.1444
   57bbb    H19 1709   3.081   8.261   7.089 -0.8252 -0.2014  0.2101
   58bbb     N1 1710   3.340   7.197   6.427  0.8139  0.0232 -0.1828
   58bbb     C1 1711   3.438   7.273   6.353 -0.1646 -0.5075 -0.1581
   58bbb     H1 1712   3.502   7.328   6.422  0.9500  0.1740 -1.6600
   58bbb     H2 1713   3.394   7.347   6.286 -1.8467 -0.4090  1.0176
   58bbb     C2 1714   3.411   7.103   6.535 -0.5503 -0.2461 -0.3686
   58bbb     H3 1715   3.476   7.036   6.479 -1.2940  0.1843 -1.8039
   58bbb     H4 1716   3.333   7.046   6.586 -0.5889 -1.4143 -1.6520
   58bbb     C3 1717   3.248   7.289   6.495 -0.4092  0.2910  0.0468
   58bbb     H5 1718   3.245   7.381   6.437 -1.7144  0.9992  1.1771
   58bbb     H6 1719   3.301   7.310   6.588  0.8833  0.4346 -0.6974
   58bbb     C4 1720   3.104   7.243   6.516  0.0498 -0.2651 -1.1012
   58bbb     H7 1721   3.065   7.278   6.612  0.4559 -0.8651 -0.7083
   58bbb     H8 1722   3.108   7.134   6.517  0.5097 -0.2718 -2.2640
   58bbb     C5 1723   3.525   7.179   6.275  0.2286  0.2022 -0.3670
   58bbb     H9 1724   3.465   7.094   6.239  1.7825 -1.3118  0.4578
   58bbb    H10 1725   3.594   7.124   6.341  0.3675  0.0844 -0.6116
   58bbb     C6 1726   3.500   7.172   6.645  0.9275 -0.7824  0.3901
   58bbb    H11 1727   3.434   7.233   6.709  0.7645 -0.4354 -0.1074
   58bbb    H12 1728   3.568   7.242   6.595 -0.3871  0.2595 -0.0098
   58bbb     C7 1729   3.014   7.280   6.395  0.2776 -0.2813 -0.1846
   58bbb    H13 1730   2.929   7.212   6.378  0.0408  0.3170 -1.5691
   58bbb    H14 1731   3.061   7.272   6.296 -1.9639 -0.2307 -1.3319
   58bbb     C8 1732   3.592   7.076   6.719 -0.3454  0.7658 -0.3955
   58bbb    H15 1733   3.635   7.130   6.804  0.0225 -1.1321  0.6803
   58bbb    H16 1734   3.519   7.000   6.751 -0.7143  0.2890 -2.2361
   58bbb     C9 1735   3.605   7.248   6.167 -0.5540  0.3396  0.1519
   58bbb    H17 1736   3.545   7.275   6.079 -1.8147 -1.0902  0.5212
   58bbb    H18 1737   3.684   7.190   6.119 -1.4518 -0.2935 -0.5951
   58bbb     O1 1738   2.961   7.410   6.416  0.0563  0.0906 -0.4047
   58bbb    H19 1739   3.295   7.139   6.354  0.4964 -1.1728  0.9368
   59bbb     N1 1740   2.702   9.229   7.490 -0.1417 -0.0545 -0.1735
   59bbb     C1 1741   2.594   9.328   7.502  0.2885  0.0288 -0.3871
   59bbb     H1 1742   2.507   9.312   7.438 -2.1176 -1.9537  3.0485
   59bbb     H2 1743   2.633   9.419   7.456  2.2665 -0.3914  0.3790
   59bbb     C2 1744   2.727   9.194   7.346 -0.3207 -0.2754 -0.2092
   59bbb     H3 1745   2.806   9.245   7.291  0.1242 -2.5240 -1.7824
   59bbb     H4 1746   2.635   9.212   7.289 -1.5713  1.2347  2.0903
   59bbb     C3 1747   2.830   9.286   7.553 -0.3919 -0.1696  0.6370
   59bbb     H5 1748   2.798   9.355   7.631 -0.1536 -0.6531  1.1676
   59bbb     H6 1749   2.879   9.346   7.475  0.7102 -0.7513  0.8615
   59bbb     C4 1750   2.924   9.184   7.629 -0.1655  0.0211  0.4629
   59bbb     H7 1751   3.016   9.233   7.662  1.1427 -2.1211  0.2293
   59bbb     H8 1752   2.948   9.093   7.572 -0.3112  0.0944  0.2843
   59bbb     C5 1753   2.543   9.338   7.652 -0.1753  0.1988  0.3286
   59bbb     H9 1754   2.621   9.323   7.727 -1.7317 -0.5929  1.8731
   59bbb    H10 1755   2.469   9.258   7.664  1.0619 -1.5723 -2.7014
   59bbb     C6 1756   2.753   9.050   7.327  0.4479 -0.1179 -0.2374
   59bbb    H11 1757   2.679   8.989   7.382 -0.3488 -0.7065 -1.8924
   59bbb    H12 1758   2.848   9.030   7.377  1.5966  1.7202 -1.5586
   59bbb     C7 1759   2.844   9.114   7.743  0.2330  0.8846 -0.9112
   59bbb    H13 1760   2.818   9.186   7.821 -1.0196 -3.8473  3.6377
   59bbb    H14 1761   2.903   9.036   7.793  0.6912  2.0542  0.4292
   59bbb     C8 1762   2.751   9.014   7.177  0.3214  0.7192 -0.8658
   59bbb    H15 1763   2.801   9.094   7.121  1.3377  0.6628 -0.0635
   59bbb    H16 1764   2.801   8.916   7.169  0.8587  0.5280  2.9508
   59bbb     C9 1765   2.476   9.481   7.662  0.1858  0.0487  0.5617
   59bbb    H17 1766   2.536   9.567   7.631  3.6573 -2.5446 -0.5759
   59bbb    H18 1767   2.449   9.499   7.767 -0.1441  0.9367  0.3338
   59bbb     O1 1768   2.727   9.047   7.690  0.0774  0.8113  0.1864
   59bbb    H19 1769   2.678   9.144   7.543 -3.4137  1.9287  1.8944
   60bbb     N1 1770   2.031   9.271   6.945 -0.4025  0.7122 -0.0698
   60bbb     C1 1771   2.021   9.425   6.927  0.1621  0.5854 -0.0991
   60bbb     H1 1772   2.119   9.455   6.889  0.4444  0.4690  0.5150
   60bbb     H2 1773   2.009   9.460   7.030  0.5077 -0.8723  0.4594
   60bbb     C2 1774   2.024   9.185   6.823 -0.3714 -0.4083 -0.5864
   60bbb     H3 1775   2.090   9.098   6.830 -2.0437 -1.6004  1.8725
   60bbb     H4 1776   2.057   9.253   6.744 -2.3827  2.1011  0.5763
   60bbb     C3 1777   2.161   9.242   7.015 -0.1112  0.4721 -0.0929
   60bbb     H5 1778   2.245   9.252   6.947  0.7253  1.4417  1.0277
   60bbb     H6 1779   2.152   9.138   7.047  1.7368  0.2699 -0.0926
   60bbb     C4 1780   2.193   9.331   7.141 -0.3778 -0.6360 -0.1841
   60bbb     H7 1781   2.121   9.311   7.222  0.5767 -0.6822  0.6834
   60bbb     H8 1782   2.182   9.438   7.120 -1.3628 -0.7361 -0.2306
   60bbb     C5 1783   1.901   9.475   6.834  0.5376 -0.9156 -0.3277
   60bbb     H9 1784   1.802   9.445   6.870  1.3955 -3.7602 -0.0694
   60bbb    H10 1785   1.909   9.428   6.735  0.7896 -2.1515  0.2635
   60bbb     C6 1786   1.883   9.132   6.791  0.2054 -0.0657  0.1692
   60bbb    H11 1787   1.889   9.084   6.692 -1.3429  1.1596 -0.5752
   60bbb    H12 1788   1.808   9.211   6.777 -1.2944 -1.6187 -0.9563
   60bbb     C7 1789   2.342   9.309   7.186  0.3594  0.3577  0.5177
   60bbb    H13 1790   2.360   9.357   7.283 -0.5278 -1.8192  1.8566
   60bbb    H14 1791   2.404   9.351   7.106  1.4195 -1.8227  0.1141
   60bbb     C8 1792   1.830   9.031   6.896 -0.6802 -0.0237  0.5880
   60bbb    H15 1793   1.829   9.069   6.999  2.3422  0.7928  0.4302
   60bbb    H16 1794   1.729   9.004   6.864 -1.4440  1.4312  1.6720
   60bbb     C9 1795   1.916   9.626   6.811  1.1584 -0.8286 -0.2572
   60bbb    H17 1796   1.921   9.681   6.905  1.2063  0.3423 -0.9188
   60bbb    H18 1797   1.828   9.667   6.758  0.3049  0.9943  2.3819
   60bbb     O1 1798   2.370   9.162   7.195  0.4699 -0.3069  0.1195
   60bbb    H19 1799   1.955   9.241   7.009  0.4923 -0.4401  0.4782
   61bbb     N1 1800   1.140   8.461   8.844  0.1149  0.2844 -0.0035
   61bbb     C1 1801   1.009   8.526   8.792  0.0562  0.0358 -0.4305
   61bbb     H1 1802   0.935   8.482   8.858 -0.2481 -0.1555 -0.8986
   61bbb     H2 1803   0.981   8.500   8.690 -1.3441  0.2167 -0.1058
   61bbb     C2 1804   1.156   8.488   8.991  0.7855 -0.3959 -0.3250
   61bbb     H3 1805   1.079   8.436   9.048  0.5336  1.0284  0.6936
   61bbb     H4 1806   1.132   8.592   9.011 -0.2530 -0.7862  0.5430
   61bbb     C3 1807   1.142   8.317   8.820  0.1015 -0.6044 -0.1728
   61bbb     H5 1808   1.039   8.281   8.821 -1.9934  4.4745 -1.2972
   61bbb     H6 1809   1.200   8.271   8.900  2.8692  2.1423 -0.4389
   61bbb     C4 1810   1.216   8.262   8.691 -0.4532 -0.5974  0.1459
   61bbb     H7 1811   1.176   8.300   8.597  1.0162 -0.0942 -0.3146
   61bbb     H8 1812   1.206   8.153   8.684 -1.4841 -0.4045 -2.2374
   61bbb     C5 1813   0.985   8.678   8.809 -0.2088 -0.2924  0.3921
   61bbb     H9 1814   0.972   8.699   8.915  1.0615  0.5987  0.3882
   61bbb    H10 1815   0.884   8.687   8.767 -0.1950 -3.2852 -0.5387
   61bbb     C6 1816   1.295   8.458   9.055  0.5113 -0.1815 -0.1096
   61bbb    H11 1817   1.366   8.529   9.013  0.9297 -1.0058 -0.8249
   61bbb    H12 1818   1.328   8.357   9.028  1.0676  0.6985 -3.0276
   61bbb     C7 1819   1.365   8.292   8.693 -0.2378 -0.2586 -0.6517
   61bbb    H13 1820   1.416   8.234   8.615  1.3568  1.4760 -0.9596
   61bbb    H14 1821   1.410   8.256   8.787 -1.3114 -2.0295 -0.7597
   61bbb     C8 1822   1.286   8.466   9.206  0.6661  0.5281  0.1233
   61bbb    H15 1823   1.217   8.402   9.263  1.8580 -0.9139  0.0026
   61bbb    H16 1824   1.383   8.431   9.244 -0.3834 -1.9775  0.7169
   61bbb     C9 1825   1.097   8.767   8.751  1.4480 -0.0840  0.2374
   61bbb    H17 1826   1.045   8.863   8.741 -1.7501 -1.6520  0.4226
   61bbb    H18 1827   1.110   8.747   8.644 -1.4665 -0.0695 -0.2157
   61bbb     O1 1828   1.381   8.438   8.684 -0.0882 -0.2642  0.0111
   61bbb    H19 1829   1.221   8.499   8.793  1.2660 -2.6639 -0.5679
   62bbb     N1 1830   1.609   8.810   7.928 -0.7816  0.4493  0.2291
   62bbb     C1 1831   1.656   8.874   7.796 -0.6205  0.5608  0.7859
   62bbb     H1 1832   1.642   8.982   7.802  0.5327  0.7780 -0.0527
   62bbb     H2 1833   1.584   8.836   7.724  1.1634 -0.9704 -0.2742
   62bbb     C2 1834   1.464   8.850   7.956  0.7768  0.6141  0.5739
   62bbb     H3 1835   1.420   8.798   8.042 -0.6964  1.0638  0.1321
   62bbb     H4 1836   1.399   8.825   7.872  0.9836 -2.2583  1.1640
   62bbb     C3 1837   1.622   8.660   7.910 -0.1941  0.5429  0.0758
   62bbb     H5 1838   1.712   8.632   7.855  0.2068  0.1106  0.9371
   62bbb     H6 1839   1.542   8.634   7.841  0.8354 -0.0227 -0.9455
   62bbb     C4 1840   1.627   8.571   8.043 -0.3810  0.0056 -0.0275
   62bbb     H7 1841   1.534   8.587   8.099 -0.9336  1.3549 -1.2799
   62bbb     H8 1842   1.701   8.614   8.112  0.2390 -2.7467  1.1750
   62bbb     C5 1843   1.793   8.847   7.735 -0.5516 -0.2757 -0.6989
   62bbb     H9 1844   1.813   8.928   7.664  0.7426  0.3087  0.2928
   62bbb    H10 1845   1.785   8.747   7.690 -0.6593 -1.8777  2.5583
   62bbb     C6 1846   1.450   8.995   7.987 -0.0059  1.2405 -0.6445
   62bbb    H11 1847   1.495   9.056   7.907 -0.8702  2.1641 -0.4455
   62bbb    H12 1848   1.516   9.007   8.074  1.2414 -2.0073 -1.0259
   62bbb     C7 1849   1.654   8.423   8.022 -0.5417 -0.5651 -0.1796
   62bbb    H13 1850   1.745   8.412   7.962 -0.4660  1.5644 -0.5058
   62bbb    H14 1851   1.580   8.370   7.960  1.1612 -0.7374 -2.1316
   62bbb     C8 1852   1.307   9.049   8.017  0.0819  0.9242 -1.1769
   62bbb    H15 1853   1.308   9.134   8.086 -1.6061 -0.4489  0.6692
   62bbb    H16 1854   1.261   9.086   7.925  1.2387  0.7429 -1.8478
   62bbb     C9 1855   1.912   8.854   7.842  0.2156  0.1827 -0.0589
   62bbb    H17 1856   2.003   8.825   7.789 -1.2961 -2.7331 -1.2879
   62bbb    H18 1857   1.882   8.789   7.925 -1.7153  2.7957  1.4551
   62bbb     O1 1858   1.673   8.354   8.148 -0.1575 -0.1802 -0.1383
   62bbb    H19 1859   1.670   8.840   8.006 -0.9392 -0.0261  0.5390
   63bbb     N1 1860   5.635   8.010  11.070 -0.6527 -0.1008 -0.4435
   63bbb     C1 1861   5.776   8.073  11.095  0.3439 -0.7436  0.5190
   63bbb     H1 1862   5.823   8.104  11.001  1.7318  1.1809  1.7769
   63bbb     H2 1863   5.827   7.983  11.128  0.7108 -0.6675  0.1743
   63bbb     C2 1864   5.531   8.115  11.061  0.7125 -0.2521 -0.7745
   63bbb     H3 1865   5.564   8.192  10.991  0.1360 -1.3826 -2.3741
   63bbb     H4 1866   5.518   8.160  11.159 -2.6328  0.2819 -1.3230
   63bbb     C3 1867   5.635   7.929  10.941 -0.0737  0.0803 -0.0726
   63bbb     H5 1868   5.662   7.994  10.857 -1.5797 -0.2578 -0.8612
   63bbb     H6 1869   5.536   7.883  10.928 -0.2750  1.0188 -2.4018
   63bbb     C4 1870   5.736   7.807  10.923  0.4725  0.4745 -0.4533
   63bbb     H7 1871   5.723   7.745  11.013 -1.9541 -0.3096 -1.2787
   63bbb     H8 1872   5.840   7.842  10.919  0.6094  0.1046 -0.2204
   63bbb     C5 1873   5.786   8.187  11.202  0.5297 -0.0359  0.2077
   63bbb     H9 1874   5.747   8.144  11.295  0.8922  0.5199  0.6221
   63bbb    H10 1875   5.732   8.274  11.163  0.5368 -0.0679  0.1271
   63bbb     C6 1876   5.392   8.080  11.015  1.3242  0.1751 -0.0376
   63bbb    H11 1877   5.386   8.034  10.915 -0.3927 -0.3284  0.2577
   63bbb    H12 1878   5.333   8.172  11.002  3.5095  1.5884 -0.4590
   63bbb     C7 1879   5.722   7.713  10.799 -0.5474  0.0107 -0.6051
   63bbb    H13 1880   5.803   7.639  10.800 -1.9155 -1.5593 -1.2528
   63bbb    H14 1881   5.731   7.762  10.701 -2.6106 -2.3092 -2.0529
   63bbb     C8 1882   5.315   7.975  11.091  0.2090  0.3471  0.1634
   63bbb    H15 1883   5.318   8.004  11.197  0.9144  1.0942 -0.0500
   63bbb    H16 1884   5.217   7.955  11.047  0.6543 -1.3752 -0.0957
   63bbb     C9 1885   5.932   8.229  11.214 -0.0768  0.5030 -0.0128
   63bbb    H17 1886   5.983   8.144  11.262  0.3548 -0.3771 -1.9144
   63bbb    H18 1887   5.943   8.325  11.265  0.0481  1.3214 -1.5297
   63bbb     O1 1888   5.601   7.644  10.806  0.1360 -0.3164 -0.2530
   63bbb    H19 1889   5.610   7.944  11.145  0.8950 -3.2966 -2.5346
   64bbb     N1 1890   6.564   7.236  10.695  0.0002  0.2273  0.2863
   64bbb     C1 1891   6.622   7.145  10.811  0.1210  0.3154  0.6299
   64bbb     H1 1892   6.582   7.175  10.907  0.4071  0.1801  0.7931
   64bbb     H2 1893   6.728   7.167  10.802  0.0176  1.3887  1.8282
   64bbb     C2 1894   6.649   7.219  10.567 -0.2820  0.4952 -0.7128
   64bbb     H3 1895   6.599   7.250  10.475  1.2917  2.8463 -0.8615
   64bbb     H4 1896   6.670   7.113  10.554 -1.7717  0.2835 -1.6833
   64bbb     C3 1897   6.420   7.201  10.667  0.9609 -0.2926 -0.0621
   64bbb     H5 1898   6.371   7.184  10.764  1.3061  0.9393  0.3483
   64bbb     H6 1899   6.414   7.101  10.625  1.3599  0.1255 -1.1464
   64bbb     C4 1900   6.338   7.302  10.575 -0.0567 -0.1111 -0.2621
   64bbb     H7 1901   6.398   7.329  10.487 -0.4398 -1.8254 -1.0800
   64bbb     H8 1902   6.332   7.397  10.630 -0.4509 -0.4182  0.2298
   64bbb     C5 1903   6.592   6.995  10.800  0.3231 -0.6936 -1.4087
   64bbb     H9 1904   6.628   6.962  10.702  0.8708 -0.6121 -1.2356
   64bbb    H10 1905   6.486   6.966  10.808  0.7539 -1.7721  1.7319
   64bbb     C6 1906   6.778   7.306  10.581  0.1624 -0.2493 -0.9048
   64bbb    H11 1907   6.843   7.268  10.501 -0.8506 -0.2569 -1.7417
   64bbb    H12 1908   6.828   7.288  10.677 -0.7308  0.0898 -0.3655
   64bbb     C7 1909   6.201   7.256  10.528  0.1915 -0.2306  0.0680
   64bbb    H13 1910   6.219   7.171  10.462  1.4124 -0.8216  1.1097
   64bbb    H14 1911   6.144   7.326  10.466  0.8498 -0.8730 -1.3073
   64bbb     C8 1912   6.755   7.461  10.554 -0.1104  0.4796 -0.2173
   64bbb    H15 1913   6.708   7.500  10.645 -0.1805  0.8406 -0.4080
   64bbb    H16 1914   6.848   7.513  10.531  0.6135 -0.5159  0.3904
   64bbb     C9 1915   6.671   6.913  10.904 -0.1828 -0.5280 -0.2216
   64bbb    H17 1916   6.771   6.893  10.861 -0.7147  0.8206 -2.2232
   64bbb    H18 1917   6.633   6.812  10.924 -0.1320 -0.4871  0.0894
   64bbb     O1 1918   6.119   7.220  10.647 -0.6927 -0.1070 -0.7401
   64bbb    H19 1919   6.574   7.335  10.721 -0.7568 -0.3605  3.1557
   65bbb     N1 1920   4.858   5.260  11.140 -0.5364  0.0930  0.3246
   65bbb     C1 1921   4.774   5.203  11.025 -0.4810  0.4373  0.0224
   65bbb     H1 1922   4.833   5.128  10.972 -0.5815  1.6108 -1.8323
   65bbb     H2 1923   4.763   5.290  10.961  3.4292  0.3110 -1.1069
   65bbb     C2 1924   4.977   5.164  11.168 -0.2405 -0.4743 -0.0600
   65bbb     H3 1925   5.042   5.165  11.080 -1.3224 -1.5439 -0.9132
   65bbb     H4 1926   4.937   5.063  11.160 -1.0720 -0.1024 -0.8662
   65bbb     C3 1927   4.914   5.395  11.098  0.4562 -0.8904  0.1400
   65bbb     H5 1928   4.939   5.391  10.992  0.0848  1.6809 -0.1156
   65bbb     H6 1929   5.004   5.424  11.151  0.8873  0.7381 -1.3525
   65bbb     C4 1930   4.819   5.515  11.109 -0.2565  0.3927  0.2027
   65bbb     H7 1931   4.786   5.529  11.212 -0.2583  2.5303 -0.0351
   65bbb     H8 1932   4.730   5.487  11.052 -0.1931 -2.5514  1.3879
   65bbb     C5 1933   4.643   5.147  11.073 -0.1330  0.2010  0.1947
   65bbb     H9 1934   4.587   5.206  11.146  1.2669 -0.3424  1.7717
   65bbb    H10 1935   4.654   5.046  11.115 -0.3021  0.8522  1.8559
   65bbb     C6 1936   5.059   5.179  11.304  0.5528  0.1875  0.5725
   65bbb    H11 1937   5.030   5.099  11.373 -0.7060  0.2004  0.0779
   65bbb    H12 1938   5.040   5.281  11.340  2.4079  0.8164 -0.0714
   65bbb     C7 1939   4.880   5.649  11.072  0.2445 -0.5864 -0.7245
   65bbb    H13 1940   4.966   5.634  11.006  0.6037  0.6732 -0.5730
   65bbb    H14 1941   4.925   5.690  11.164 -1.2902 -1.6329  0.5597
   65bbb     C8 1942   5.210   5.154  11.288  0.3677 -0.1847  0.4020
   65bbb    H15 1943   5.235   5.066  11.227  2.6059  0.8371 -0.2806
   65bbb    H16 1944   5.246   5.239  11.228 -1.5639  0.2050 -0.2794
   65bbb     C9 1945   4.543   5.129  10.955 -0.4253  0.4435  0.7047
   65bbb    H17 1946   4.451   5.085  10.995  0.8139 -2.2064  0.8402
   65bbb    H18 1947   4.583   5.055  10.885 -2.6859  0.5577 -0.7980
   65bbb     O1 1948   4.791   5.747  11.017 -0.4428 -0.5440 -0.0686
   65bbb    H19 1949   4.801   5.263  11.226  1.7355 -2.4986  2.1104
   66bbb     N1 1950   4.672   5.724  10.097 -0.3313  0.3220  0.0581
   66bbb     C1 1951   4.607   5.846  10.028 -0.2514 -0.0004  0.1058
   66bbb     H1 1952   4.664   5.867   9.937  0.3960 -0.4370  0.3981
   66bbb     H2 1953   4.622   5.928  10.099  1.9769 -1.6046  1.6683
   66bbb     C2 1954   4.678   5.613   9.995 -0.3317 -0.0982  0.4960
   66bbb     H3 1955   4.753   5.639   9.920 -0.3304 -0.7362  0.2713
   66bbb     H4 1956   4.581   5.605   9.946  0.1159  0.1486 -0.4393
   66bbb     C3 1957   4.810   5.760  10.141 -0.5308 -0.1168 -0.2762
   66bbb     H5 1958   4.853   5.828  10.068 -2.7780 -0.0745 -1.6632
   66bbb     H6 1959   4.869   5.669  10.155 -0.1993  0.1937  0.3454
   66bbb     C4 1960   4.821   5.840  10.280  0.3732 -0.2677  0.1911
   66bbb     H7 1961   4.787   5.774  10.360 -1.4905  2.2403  1.6119
   66bbb     H8 1962   4.749   5.922  10.277  3.3944  2.5642 -0.0785
   66bbb     C5 1963   4.462   5.829   9.993 -0.0061  0.3025  0.0597
   66bbb     H9 1964   4.439   5.770   9.904 -1.3943  2.2323 -0.9474
   66bbb    H10 1965   4.440   5.929   9.953 -1.1193  0.1047  0.1520
   66bbb     C6 1966   4.723   5.473  10.042 -0.5657  0.2900  0.0552
   66bbb    H11 1967   4.821   5.476  10.090  0.0275  0.1103 -1.0956
   66bbb    H12 1968   4.740   5.400   9.961  0.2775  1.2445 -0.6633
   66bbb     C7 1969   4.959   5.885  10.314  0.0507 -0.3250 -0.6402
   66bbb    H13 1970   4.995   5.954  10.236 -3.3080  0.4243 -1.6916
   66bbb    H14 1971   5.033   5.804  10.317  0.4350  0.0375  0.3030
   66bbb     C8 1972   4.613   5.409  10.127 -0.3033  0.0901  0.0648
   66bbb    H15 1973   4.633   5.301  10.130  2.1149  0.4882  0.0667
   66bbb    H16 1974   4.622   5.453  10.227  3.6961  1.8766 -0.8641
   66bbb     C9 1975   4.363   5.807  10.108 -1.0933 -0.2095 -0.0069
   66bbb    H17 1976   4.392   5.710  10.149  1.9424 -0.1056 -1.6302
   66bbb    H18 1977   4.262   5.811  10.066 -0.9977 -0.5018 -0.2670
   66bbb     O1 1978   4.969   5.946  10.448  0.0450  0.2733 -0.3575
   66bbb    H19 1979   4.623   5.686  10.179  0.3212  1.5553  1.0438
   67bbb     N1 1980   3.516   7.829  11.984  0.0894  0.1962 -0.3071
   67bbb     C1 1981   3.652   7.775  11.937 -0.6203 -0.4023  0.0407
   67bbb     H1 1982   3.644   7.681  11.882 -2.4148 -0.1196 -0.2368
   67bbb     H2 1983   3.696   7.745  12.033 -0.3757  0.6276  0.2605
   67bbb     C2 1984   3.534   7.967  12.034 -0.4202  0.0613  0.4882
   67bbb     H3 1985   3.445   8.024  12.009 -0.1076  0.2491 -0.2589
   67bbb     H4 1986   3.619   8.014  11.983 -0.1386 -1.8451 -0.9186
   67bbb     C3 1987   3.421   7.838  11.864  0.3040  0.1243 -0.1238
   67bbb     H5 1988   3.478   7.888  11.786  1.1910 -0.5002  0.1033
   67bbb     H6 1989   3.337   7.902  11.890  1.6463  1.4411  1.1146
   67bbb     C4 1990   3.371   7.701  11.798  0.9298 -0.2604  0.0213
   67bbb     H7 1991   3.290   7.665  11.864  0.4482  1.5686  0.4880
   67bbb     H8 1992   3.449   7.624  11.798 -1.1668 -2.5013 -1.5647
   67bbb     C5 1993   3.758   7.868  11.871 -0.4909 -0.3182  0.1420
   67bbb     H9 1994   3.795   7.943  11.943  0.1177  0.3344 -0.8302
   67bbb    H10 1995   3.722   7.918  11.781 -0.1372 -2.4545 -1.2543
   67bbb     C6 1996   3.570   7.979  12.187 -0.0767 -0.6776 -0.1660
   67bbb    H11 1997   3.676   7.953  12.185 -0.5362 -2.7079 -1.1182
   67bbb    H12 1998   3.508   7.907  12.242 -2.0185  0.8814 -0.1824
   67bbb     C7 1999   3.307   7.718  11.659 -0.0746  0.2716 -0.4598
   67bbb    H13 2000   3.222   7.786  11.664 -0.0062  0.3206  0.0888
   67bbb    H14 2001   3.260   7.623  11.631  1.1990 -0.8767  1.0817
   67bbb     C8 2002   3.552   8.131  12.230 -0.4567 -0.7322 -0.1270
   67bbb    H15 2003   3.604   8.149  12.325 -3.1096  0.5554  1.1917
   67bbb    H16 2004   3.586   8.194  12.147 -1.2774  0.6609  0.5578
   67bbb     C9 2005   3.877   7.784  11.819  0.8010  0.8810 -0.0423
   67bbb    H17 2006   3.949   7.850  11.770  0.8590  0.6585 -0.2586
   67bbb    H18 2007   3.840   7.721  11.738  0.7623  0.6652  0.1424
   67bbb     O1 2008   3.413   7.756  11.566  0.8520 -0.3200  0.9680
   67bbb    H19 2009   3.474   7.769  12.056 -0.8196 -0.2830 -1.2166
   68bbb     N1 2010   3.064   6.787  11.306  0.4937  0.0319 -0.1153
   68bbb     C1 2011   3.021   6.819  11.164 -0.4643  0.1745 -1.0455
   68bbb     H1 2012   3.114   6.860  11.123 -0.8599  0.6865 -1.4441
   68bbb     H2 2013   2.945   6.897  11.171 -2.6217 -1.9979  1.5786
   68bbb     C2 2014   3.171   6.679  11.328 -0.8048  0.4426 -0.1575
   68bbb     H3 2015   3.130   6.592  11.278 -1.1029  0.0541  0.7340
   68bbb     H4 2016   3.161   6.657  11.435 -2.4521  2.0868  0.0856
   68bbb     C3 2017   3.101   6.917  11.380 -0.0288 -0.0171 -0.0996
   68bbb     H5 2018   3.048   7.008  11.352  0.9116  0.2338 -1.1206
   68bbb     H6 2019   3.205   6.934  11.354 -0.1187  1.1856  0.2782
   68bbb     C4 2020   3.092   6.906  11.532 -0.6291  0.7976  0.0242
   68bbb     H7 2021   3.149   6.818  11.564  0.0601  0.6975 -1.3739
   68bbb     H8 2022   2.988   6.890  11.559 -0.5564  1.8593  1.0335
   68bbb     C5 2023   2.954   6.699  11.082 -0.0717 -0.8547 -0.5240
   68bbb     H9 2024   3.014   6.608  11.087  1.6318 -0.1807 -4.5794
   68bbb    H10 2025   2.952   6.735  10.978  1.7508  1.6992  0.2134
   68bbb     C6 2026   3.320   6.700  11.284 -0.2623 -0.7042 -0.0006
   68bbb    H11 2027   3.369   6.768  11.355 -1.1094  0.5423 -0.5839
   68bbb    H12 2028   3.321   6.740  11.182  0.2446 -1.4905 -0.3097
   68bbb     C7 2029   3.144   7.038  11.598 -0.1176  0.7829  0.4891
   68bbb    H13 2030   3.133   7.018  11.705 -0.6807 -0.1526  0.2713
   68bbb    H14 2031   3.083   7.127  11.581  0.3098  0.8695 -0.7054
   68bbb     C8 2032   3.397   6.568  11.284 -0.2184 -0.0270 -0.3281
   68bbb    H15 2033   3.350   6.488  11.226  0.2610  0.3873 -1.3048
   68bbb    H16 2034   3.503   6.581  11.257 -0.2490  0.9363 -0.0112
   68bbb     C9 2035   2.805   6.665  11.117 -0.4679  1.0040 -0.6202
   68bbb    H17 2036   2.787   6.645  11.223  0.9080 -1.6432 -0.8023
   68bbb    H18 2037   2.767   6.575  11.069 -0.6362  0.0705  1.1845
   68bbb     O1 2038   3.280   7.069  11.561  0.0292  0.1306 -1.0024
   68bbb    H19 2039   2.980   6.746  11.350 -1.1022  2.6738 -0.4657
   69bbb     N1 2040   3.863   6.559  12.102 -0.5616  0.1755 -0.0088
   69bbb     C1 2041   4.003   6.529  12.161  0.2399  0.0058 -0.5052
   69bbb     H1 2042   3.983   6.508  12.266  0.4497  1.5419 -0.1465
   69bbb     H2 2043   4.054   6.625  12.157  0.0031  0.2173  0.9594
   69bbb     C2 2044   3.792   6.649  12.191 -0.4138  0.3699  0.4079
   69bbb     H3 2045   3.858   6.736  12.194 -1.9035  1.5314  1.3898
   69bbb     H4 2046   3.775   6.606  12.290 -1.3663 -0.3323 -0.0444
   69bbb     C3 2047   3.886   6.625  11.961  0.4753 -0.2346  0.0397
   69bbb     H5 2048   3.990   6.658  11.962  0.1192  0.9826 -0.8033
   69bbb     H6 2049   3.826   6.715  11.947  1.1710  0.4741  1.4934
   69bbb     C4 2050   3.858   6.529  11.843  0.0720 -0.7469 -0.3636
   69bbb     H7 2051   3.750   6.521  11.828 -0.3330  1.2456  1.0693
   69bbb     H8 2052   3.906   6.430  11.853  0.9936 -0.3196 -0.4430
   69bbb     C5 2053   4.088   6.421  12.106 -0.0013 -0.4218  0.5560
   69bbb     H9 2054   4.084   6.418  11.997  1.0167 -1.2355  0.5205
   69bbb    H10 2055   4.040   6.329  12.142 -1.9039  0.1999 -0.2662
   69bbb     C6 2056   3.658   6.713  12.145  0.3981  0.3081 -0.1042
   69bbb    H11 2057   3.678   6.780  12.061 -3.5429  0.4595 -1.1448
   69bbb    H12 2058   3.613   6.768  12.228 -1.7923  0.8074 -1.5106
   69bbb     C7 2059   3.914   6.593  11.715 -0.6172 -0.5771 -0.6170
   69bbb    H13 2060   3.850   6.678  11.691 -0.6351 -0.0128  1.2377
   69bbb    H14 2061   3.892   6.513  11.643  2.2640 -1.1122 -1.0221
   69bbb     C8 2062   3.552   6.621  12.088  0.7427 -0.8237 -0.0721
   69bbb    H15 2063   3.462   6.682  12.075  0.1291 -1.5269  0.8233
   69bbb    H16 2064   3.574   6.574  11.992 -0.6286 -2.5497  0.4228
   69bbb     C9 2065   4.235   6.436  12.154  0.8963  0.1845 -0.3026
   69bbb    H17 2066   4.299   6.352  12.124  0.5012  0.6123 -2.5827
   69bbb    H18 2067   4.232   6.434  12.263 -1.0765 -0.5644 -0.3369
   69bbb     O1 2068   4.064   6.621  11.721  0.6632 -0.3712  0.1484
   69bbb    H19 2069   3.818   6.466  12.096 -0.2069  0.0439 -0.6825
   70bbb     N1 2070   5.078   6.201  11.712  0.8091  0.2616  0.3002
   70bbb     C1 2071   5.101   6.267  11.857  0.6422 -0.4089  0.7069
   70bbb     H1 2072   5.024   6.220  11.919 -0.7640 -1.1649 -1.4739
   70bbb     H2 2073   5.079   6.371  11.832  4.0957  0.2887  0.0349
   70bbb     C2 2074   5.076   6.053  11.725  0.0578 -0.6012  0.9890
   70bbb     H3 2075   4.977   6.022  11.759 -1.0889  1.9836  0.2047
   70bbb     H4 2076   5.150   6.019  11.798  0.2004  1.1661  1.6993
   70bbb     C3 2077   4.939   6.233  11.655 -0.4495  0.6326 -0.6157
   70bbb     H5 2078   4.870   6.173  11.714  0.4473  0.1833 -0.0065
   70bbb     H6 2079   4.963   6.197  11.554  0.3058  1.5594 -0.7807
   70bbb     C4 2080   4.901   6.389  11.656 -0.8547  0.2122  0.0473
   70bbb     H7 2081   4.985   6.446  11.616 -0.2201  0.6226  1.8701
   70bbb     H8 2082   4.893   6.432  11.756  3.5060  3.0590 -0.5834
   70bbb     C5 2083   5.231   6.262  11.931 -0.9537 -0.1848  0.5217
   70bbb     H9 2084   5.274   6.162  11.926  1.7581  0.9453 -1.8244
   70bbb    H10 2085   5.202   6.283  12.034  0.1754 -0.6745  0.9478
   70bbb     C6 2086   5.102   5.982  11.589  0.1664  0.0355 -0.8175
   70bbb    H11 2087   5.177   6.031  11.525  1.7911 -1.8816 -0.4755
   70bbb    H12 2088   5.010   5.987  11.530 -0.2372 -0.0897 -0.2090
   70bbb     C7 2089   4.774   6.409  11.565  0.2023  0.3086 -0.0758
   70bbb    H13 2090   4.697   6.349  11.615  0.1147 -0.8542 -1.5256
   70bbb    H14 2091   4.805   6.364  11.470  0.8587  0.3255  0.1285
   70bbb     C8 2092   5.129   5.832  11.613  0.3128 -0.2400  0.5181
   70bbb    H15 2093   5.061   5.794  11.689  1.4985 -2.5665  0.5024
   70bbb    H16 2094   5.119   5.777  11.518  1.9301  1.7771 -0.9321
   70bbb     C9 2095   5.324   6.373  11.877 -0.4621  0.0502  0.4300
   70bbb    H17 2096   5.401   6.387  11.954  0.3714  1.6475 -0.6566
   70bbb    H18 2097   5.271   6.465  11.849 -0.5849  0.1511  0.9767
   70bbb     O1 2098   4.730   6.548  11.544 -0.0464  0.1359 -0.3050
   70bbb    H19 2099   5.158   6.225  11.651 -1.6228  2.4151 -2.2848
   71bbb     N1 2100   2.682   6.875   9.783 -0.3051  0.1435 -0.2670
   71bbb     C1 2101   2.829   6.905   9.798 -0.4907  0.3817 -0.1325
   71bbb     H1 2102   2.851   7.011   9.799  2.0660 -0.0810 -0.5088
   71bbb     H2 2103   2.882   6.876   9.707 -0.5659 -0.7642  0.1738
   71bbb     C2 2104   2.629   6.920   9.646 -0.4273 -0.4105  0.3886
   71bbb     H3 2105   2.632   7.029   9.646  2.6918 -0.3739 -1.2585
   71bbb     H4 2106   2.523   6.900   9.634 -0.4992 -1.1393  1.9831
   71bbb     C3 2107   2.653   6.725   9.797  0.5076 -0.6834 -0.0074
   71bbb     H5 2108   2.684   6.696   9.898  2.9842 -0.1336 -0.5450
   71bbb     H6 2109   2.718   6.674   9.725  1.0813  1.7369 -1.2938
   71bbb     C4 2110   2.505   6.680   9.778  0.1024  0.1506  0.3116
   71bbb     H7 2111   2.465   6.698   9.678 -0.3553  0.1228  0.4897
   71bbb     H8 2112   2.442   6.738   9.847 -2.7510 -0.6469 -1.4802
   71bbb     C5 2113   2.906   6.845   9.926 -0.0129 -0.2011  0.1836
   71bbb     H9 2114   3.010   6.880   9.923 -0.7377  2.4716  1.8647
   71bbb    H10 2115   2.905   6.737   9.909 -0.1068 -0.4116  1.4183
   71bbb     C6 2116   2.699   6.877   9.519 -0.2596  0.2975  0.2451
   71bbb    H11 2117   2.718   6.769   9.524  0.7298  0.4926  1.1386
   71bbb    H12 2118   2.792   6.931   9.499  1.3110 -2.2975  0.0154
   71bbb     C7 2119   2.486   6.529   9.810 -0.0577 -0.2103  1.0254
   71bbb    H13 2120   2.377   6.514   9.816 -0.1393 -0.4398 -0.5931
   71bbb    H14 2121   2.523   6.510   9.912 -1.1217 -0.2950  1.4131
   71bbb     C8 2122   2.608   6.903   9.397 -0.2625 -0.1236 -0.1518
   71bbb    H15 2123   2.591   7.011   9.406 -2.3200 -0.4759  0.4987
   71bbb    H16 2124   2.652   6.867   9.303  0.0763  1.3049 -0.5634
   71bbb     C9 2125   2.849   6.894  10.062 -0.3854 -0.2717  0.0213
   71bbb    H17 2126   2.869   7.002  10.050 -0.0221 -0.3989 -0.5213
   71bbb    H18 2127   2.905   6.865  10.152 -1.1211 -0.2269  0.5017
   71bbb     O1 2128   2.552   6.433   9.711 -0.7125  0.0178  0.1634
   71bbb    H19 2129   2.626   6.923   9.856 -1.1287  0.3614 -1.0246
   72bbb     N1 2130   2.070   6.407   9.331  0.4467 -0.6356 -0.2844
   72bbb     C1 2131   1.920   6.365   9.333 -0.2401 -0.2034 -0.3787
   72bbb     H1 2132   1.892   6.355   9.438 -1.0174 -0.9235 -0.6482
   72bbb     H2 2133   1.911   6.267   9.286 -0.1931 -0.0421 -0.7247
   72bbb     C2 2134   2.143   6.309   9.426  0.7821 -0.8819  0.0664
   72bbb     H3 2135   2.250   6.326   9.415  0.4021  1.2161 -0.7282
   72bbb     H4 2136   2.125   6.213   9.378  0.1093 -0.1601 -1.1643
   72bbb     C3 2137   2.120   6.387   9.186  0.3543 -0.5511 -0.3861
   72bbb     H5 2138   2.220   6.429   9.185 -0.9246  2.7908 -0.7609
   72bbb     H6 2139   2.058   6.448   9.119 -0.7658 -1.9483 -0.6762
   72bbb     C4 2140   2.123   6.244   9.114 -0.2071 -0.3950 -1.1624
   72bbb     H7 2141   2.086   6.268   9.014 -1.2805 -1.6962 -1.1084
   72bbb     H8 2142   2.051   6.172   9.156  0.2696  0.4134  1.1867
   72bbb     C5 2143   1.831   6.469   9.263 -0.1860  0.0110  0.5295
   72bbb     H9 2144   1.847   6.444   9.157 -2.1724  1.5862 -0.2073
   72bbb    H10 2145   1.861   6.573   9.282 -0.2298  0.9913 -3.6317
   72bbb     C6 2146   2.089   6.306   9.574 -0.1305 -0.0935 -0.0771
   72bbb    H11 2147   2.155   6.235   9.625 -0.7042 -0.7207 -0.1935
   72bbb    H12 2148   1.984   6.275   9.575 -0.0676 -0.3286  1.1573
   72bbb     C7 2149   2.265   6.175   9.116  0.2319 -0.0661  0.3882
   72bbb    H13 2150   2.339   6.240   9.067  0.5825  0.2310  1.2743
   72bbb    H14 2151   2.252   6.092   9.047 -1.8235  1.9077 -1.7924
   72bbb     C8 2152   2.098   6.439   9.656 -0.1076  0.0306  0.4088
   72bbb    H15 2153   2.072   6.416   9.760 -0.2413 -1.2245  0.1082
   72bbb    H16 2154   2.203   6.468   9.644 -0.0219 -1.0442 -1.8119
   72bbb     C9 2155   1.685   6.442   9.309 -0.1912 -0.9930  0.3523
   72bbb    H17 2156   1.653   6.340   9.286 -0.7829 -0.4841 -1.1963
   72bbb    H18 2157   1.628   6.517   9.251  0.5694 -1.7571 -1.4681
   72bbb     O1 2158   2.303   6.141   9.253 -0.2610 -0.0196  0.7263
   72bbb    H19 2159   2.084   6.507   9.353 -1.2727 -0.2781 -0.6476
   73bbb     N1 2160   3.263   4.854   8.681 -0.9108  0.3912 -0.2597
   73bbb     C1 2161   3.337   4.841   8.552  0.0741  0.0976  0.3974
   73bbb     H1 2162   3.414   4.766   8.569 -0.7908 -0.7657  0.5788
   73bbb     H2 2163   3.394   4.930   8.525  0.5138 -0.9094 -2.2666
   73bbb     C2 2164   3.353   4.889   8.794 -0.1759 -0.1135  0.3277
   73bbb     H3 2165   3.286   4.920   8.874 -1.9775 -0.9599 -0.7900
   73bbb     H4 2166   3.406   4.977   8.756 -2.0834  0.8865 -0.1654
   73bbb     C3 2167   3.139   4.945   8.671 -0.6006  0.9497 -0.6109
   73bbb     H5 2168   3.074   4.908   8.591  0.2459 -2.5603  0.1905
   73bbb     H6 2169   3.172   5.047   8.651 -0.8851  1.1895  0.1021
   73bbb     C4 2170   3.039   4.954   8.787 -0.5027 -0.0563 -0.6650
   73bbb     H7 2171   3.093   4.947   8.882  1.0632 -1.6108 -1.6122
   73bbb     H8 2172   2.974   4.865   8.787  0.6788 -0.9364 -1.1015
   73bbb     C5 2173   3.256   4.797   8.425  0.0988  0.3526 -0.2506
   73bbb     H9 2174   3.194   4.871   8.373  0.6239 -0.5552 -2.2718
   73bbb    H10 2175   3.192   4.711   8.449  1.2074 -0.3900  0.1484
   73bbb     C6 2176   3.439   4.769   8.831 -0.0304  0.3524  0.2853
   73bbb    H11 2177   3.501   4.786   8.920  0.0057 -0.0628  0.3449
   73bbb    H12 2178   3.518   4.743   8.759  1.3638  0.5558  1.6880
   73bbb     C7 2179   2.944   5.073   8.777 -0.3937  0.2310  0.1939
   73bbb    H13 2180   2.874   5.079   8.861  1.0687  0.0184  1.4748
   73bbb    H14 2181   2.890   5.041   8.687  0.8553  1.2581 -0.9619
   73bbb     C8 2182   3.359   4.640   8.874 -0.2759 -0.4415 -0.3980
   73bbb    H15 2183   3.307   4.592   8.790  0.6536 -0.3573 -1.0402
   73bbb    H16 2184   3.445   4.578   8.900  0.4455  0.7770  0.2226
   73bbb     C9 2185   3.356   4.751   8.314  1.1974 -0.2714  0.4406
   73bbb    H17 2186   3.439   4.823   8.322  2.0209 -1.0543 -0.8302
   73bbb    H18 2187   3.317   4.762   8.212 -2.3886  0.8607  1.7445
   73bbb     O1 2188   3.014   5.198   8.749 -0.0185 -0.0852  0.2501
   73bbb    H19 2189   3.231   4.759   8.704 -1.0874  0.4238 -0.3681
   74bbb     N1 2190   3.449   5.511   9.669  0.3494  1.2989  0.0818
   74bbb     C1 2191   3.577   5.424   9.682  0.4897  0.7961 -0.5344
   74bbb     H1 2192   3.661   5.492   9.668  2.5689 -1.9814 -2.9615
   74bbb     H2 2193   3.579   5.354   9.598 -0.5504 -0.8229  0.7178
   74bbb     C2 2194   3.477   5.617   9.576  0.7965  0.8363  0.2598
   74bbb     H3 2195   3.377   5.641   9.540 -0.4935 -0.1971  2.8514
   74bbb     H4 2196   3.533   5.575   9.493 -1.8046  0.7728 -1.5813
   74bbb     C3 2197   3.335   5.423   9.614 -0.2670  0.2149  0.3566
   74bbb     H5 2198   3.359   5.324   9.653  1.0048  0.6327  0.6778
   74bbb     H6 2199   3.351   5.416   9.507  0.4348 -0.9936  0.5213
   74bbb     C4 2200   3.191   5.471   9.638 -0.0207 -0.1296 -0.3443
   74bbb     H7 2201   3.174   5.578   9.622 -0.3270 -0.2805 -1.0653
   74bbb     H8 2202   3.148   5.453   9.738 -1.6949 -0.6539 -1.1201
   74bbb     C5 2203   3.578   5.337   9.811 -0.2955 -0.4417  0.1250
   74bbb     H9 2204   3.652   5.257   9.794 -0.9006 -0.6767 -1.6221
   74bbb    H10 2205   3.483   5.284   9.827 -1.0129  0.8869  0.3521
   74bbb     C6 2206   3.554   5.733   9.637  0.0805  0.0163  0.4946
   74bbb    H11 2207   3.578   5.803   9.556 -1.5796  0.9997  0.8015
   74bbb    H12 2208   3.645   5.701   9.688  1.8907  0.9877 -1.9330
   74bbb     C7 2209   3.106   5.399   9.533  0.3573 -0.6552 -0.3941
   74bbb    H13 2210   3.002   5.431   9.545  0.9908  0.7687  2.0191
   74bbb    H14 2211   3.113   5.291   9.552 -0.1736 -0.7110 -0.5145
   74bbb     C8 2212   3.487   5.825   9.740 -0.1060  0.5943  0.3692
   74bbb    H15 2213   3.485   5.779   9.839  1.5447  0.0005  0.1570
   74bbb    H16 2214   3.552   5.913   9.746  0.7939 -0.0977  0.9355
   74bbb     C9 2215   3.607   5.435   9.928  0.0820  0.2804 -0.2618
   74bbb    H17 2216   3.616   5.368  10.014  0.4942 -1.2279 -1.4329
   74bbb    H18 2217   3.521   5.502   9.941 -0.0776 -0.0672  0.5034
   74bbb     O1 2218   3.147   5.414   9.391  0.1341  0.6175 -0.0787
   74bbb    H19 2219   3.413   5.545   9.759  1.7903 -0.4948  1.4212
   75bbb     N1 2220   5.856   5.880   8.717 -0.2522  0.1911  0.4261
   75bbb     C1 2221   5.951   5.758   8.698 -0.2674 -1.2907  0.4664
   75bbb     H1 2222   6.053   5.770   8.733  0.5439 -2.3673 -1.3617
   75bbb     H2 2223   5.969   5.762   8.590  1.2605  0.6000  0.7478
   75bbb     C2 2224   5.952   6.000   8.725  0.1637  0.2895  0.1094
   75bbb     H3 2225   5.937   6.049   8.629 -1.0537 -1.1895 -0.4993
   75bbb     H4 2226   6.057   5.972   8.723  0.6543  2.0139  0.2444
   75bbb     C3 2227   5.776   5.880   8.590  0.7901 -0.3862 -0.7034
   75bbb     H5 2228   5.760   5.775   8.566 -2.0334 -0.4671  1.0271
   75bbb     H6 2229   5.826   5.930   8.507  1.0081  0.7241  0.0720
   75bbb     C4 2230   5.627   5.921   8.610  0.2070 -0.7221  0.1227
   75bbb     H7 2231   5.580   5.922   8.511  0.3736  1.9198  0.0092
   75bbb     H8 2232   5.626   6.026   8.641 -0.4221 -0.7016  0.0389
   75bbb     C5 2233   5.888   5.627   8.735 -0.0892  0.5113 -0.0750
   75bbb     H9 2234   5.792   5.622   8.681 -0.7441  0.7921  1.0390
   75bbb    H10 2235   5.847   5.635   8.836  1.3464  2.0296  0.4285
   75bbb     C6 2236   5.911   6.103   8.836 -0.3988 -0.1497  0.0365
   75bbb    H11 2237   5.802   6.116   8.837 -0.7726 -2.7729  1.0925
   75bbb    H12 2238   5.971   6.195   8.828 -2.2010  1.1100  0.3145
   75bbb     C7 2239   5.546   5.825   8.706 -0.4838  0.0269  0.0326
   75bbb    H13 2240   5.553   5.722   8.671 -1.3470  0.3316 -1.0980
   75bbb    H14 2241   5.440   5.848   8.691 -0.7306  0.0464  1.6833
   75bbb     C8 2242   5.946   6.052   8.982  0.0393 -0.2669 -0.1647
   75bbb    H15 2243   6.054   6.033   8.994  0.0527 -0.5205 -0.6632
   75bbb    H16 2244   5.919   6.136   9.046  0.3555  2.2296 -3.0518
   75bbb     C9 2245   5.988   5.502   8.718 -0.8784 -0.5863 -0.3430
   75bbb    H17 2246   6.034   5.500   8.618  0.1405  0.9403  0.0750
   75bbb    H18 2247   5.934   5.408   8.735 -0.2434 -0.7393  0.9166
   75bbb     O1 2248   5.592   5.841   8.843 -0.8353  0.1227  0.0413
   75bbb    H19 2249   5.806   5.866   8.806  0.3938 -3.9378  0.3181
   76bbb     N1 2250   5.412   5.382   9.368  0.7100 -0.1737 -0.2652
   76bbb     C1 2251   5.403   5.304   9.240 -0.0323  0.0270 -0.7869
   76bbb     H1 2252   5.411   5.369   9.153 -0.5204 -0.1572 -0.9748
   76bbb     H2 2253   5.296   5.283   9.232 -0.6338  1.6587  1.7487
   76bbb     C2 2254   5.551   5.395   9.424  0.2121  0.0821 -0.4478
   76bbb     H3 2255   5.559   5.496   9.465  0.5646 -0.3884  0.6847
   76bbb     H4 2256   5.617   5.371   9.340  0.3982  1.2475 -0.6530
   76bbb     C3 2257   5.357   5.524   9.344  0.9627  0.4119  0.5556
   76bbb     H5 2258   5.270   5.515   9.280  0.0769  1.5701  1.5420
   76bbb     H6 2259   5.435   5.589   9.304  1.1067 -0.1243 -0.0517
   76bbb     C4 2260   5.312   5.597   9.474 -0.0608 -0.3500  1.0403
   76bbb     H7 2261   5.396   5.595   9.545 -0.3445 -2.2019  1.3848
   76bbb     H8 2262   5.229   5.545   9.524 -0.9269  0.3052  0.3217
   76bbb     C5 2263   5.480   5.168   9.230 -0.2729 -0.1937  0.0250
   76bbb     H9 2264   5.441   5.099   9.306  0.0058 -1.2652 -0.7822
   76bbb    H10 2265   5.587   5.176   9.250 -0.4404 -1.5971  1.6465
   76bbb     C6 2266   5.587   5.301   9.544 -0.4566 -0.4867 -0.3255
   76bbb    H11 2267   5.590   5.198   9.506  2.4470 -0.0734 -1.4740
   76bbb    H12 2268   5.510   5.314   9.621  2.1105  1.7931  2.1197
   76bbb     C7 2269   5.270   5.746   9.443  0.3948 -0.2963 -0.0099
   76bbb    H13 2270   5.199   5.777   9.520  0.0836  1.2793 -0.8954
   76bbb    H14 2271   5.212   5.739   9.350  0.6070 -0.9114 -0.1007
   76bbb     C8 2272   5.730   5.324   9.612  0.2935  0.0328 -0.4308
   76bbb    H15 2273   5.745   5.430   9.634  0.4029 -0.3953  1.8180
   76bbb    H16 2274   5.733   5.265   9.705  0.3411 -1.4239 -1.3212
   76bbb     C9 2275   5.458   5.086   9.096 -0.4338 -0.2697  0.2714
   76bbb    H17 2276   5.350   5.073   9.085 -0.8782  2.7257  0.1965
   76bbb    H18 2277   5.498   4.984   9.104  1.0506  0.2691  0.1818
   76bbb     O1 2278   5.380   5.829   9.443  0.2588 -0.4767 -0.4257
   76bbb    H19 2279   5.352   5.333   9.436  0.6990 -1.8633 -1.4216
   77bbb     N1 2280   5.925   6.951   8.517  0.0828 -0.5078 -0.5732
   77bbb     C1 2281   6.037   6.853   8.491 -0.2535 -0.0405  0.1340
   77bbb     H1 2282   6.030   6.826   8.385  1.1562  2.4159 -0.6595
   77bbb     H2 2283   6.026   6.778   8.570  0.6700  1.3705  1.6549
   77bbb     C2 2284   5.939   7.065   8.418  0.0657 -0.0226 -0.4941
   77bbb     H3 2285   5.938   7.026   8.316 -0.3541 -0.2237 -0.4128
   77bbb     H4 2286   6.034   7.114   8.441 -1.1300  3.2042 -1.9334
   77bbb     C3 2287   5.789   6.894   8.500 -0.6489 -0.2015  0.3931
   77bbb     H5 2288   5.782   6.865   8.395  1.7437 -1.1769  0.4350
   77bbb     H6 2289   5.727   6.979   8.527  0.4217  0.3906  1.0682
   77bbb     C4 2290   5.745   6.767   8.583  0.1395 -0.7531  0.0498
   77bbb     H7 2291   5.762   6.782   8.690  0.3382 -3.6898  0.5268
   77bbb     H8 2292   5.809   6.684   8.550  0.3223 -0.2653 -0.8503
   77bbb     C5 2293   6.182   6.914   8.510  0.5846  0.2091 -0.1994
   77bbb     H9 2294   6.199   6.991   8.433 -0.7676  0.6197 -0.1094
   77bbb    H10 2295   6.251   6.832   8.485 -0.0983 -1.0769  1.8676
   77bbb     C6 2296   5.827   7.174   8.434 -0.1795  0.4549 -0.4237
   77bbb    H11 2297   5.802   7.195   8.539 -1.0293  0.3570 -0.5983
   77bbb    H12 2298   5.737   7.131   8.389 -0.6676 -1.4246  2.1441
   77bbb     C7 2299   5.593   6.733   8.565 -0.3895 -0.5274 -0.4665
   77bbb    H13 2300   5.591   6.634   8.611  2.0232 -0.1929  0.5129
   77bbb    H14 2301   5.561   6.734   8.460  0.4197 -1.0849 -0.7267
   77bbb     C8 2302   5.872   7.308   8.360  0.4580  0.4376 -0.7491
   77bbb    H15 2303   5.876   7.284   8.253  0.7686 -3.1233 -0.0840
   77bbb    H16 2304   5.810   7.396   8.380  1.7122  1.6510 -1.9488
   77bbb     C9 2305   6.219   6.954   8.660 -0.0877  0.0589 -0.3459
   77bbb    H17 2306   6.151   7.030   8.700  1.9196  1.1054  1.2792
   77bbb    H18 2307   6.321   6.990   8.676  0.5155 -0.3738 -2.7745
   77bbb     O1 2308   5.525   6.837   8.643 -0.0226 -0.5594  0.6277
   77bbb    H19 2309   5.928   6.986   8.614 -1.2686 -0.3800 -0.5610
   78bbb     N1 2310   5.560   7.903   8.679 -0.4384 -0.0246  0.4055
   78bbb     C1 2311   5.643   8.007   8.758  0.1951 -0.3150  0.7092
   78bbb     H1 2312   5.700   7.943   8.824  4.2351  2.0185 -0.1753
   78bbb     H2 2313   5.573   8.065   8.819  0.3370 -0.2720  0.8317
   78bbb     C2 2314   5.470   7.970   8.574 -0.5718  0.3126  0.6189
   78bbb     H3 2315   5.424   7.884   8.527  2.8087 -1.8146  0.8376
   78bbb     H4 2316   5.537   8.013   8.500 -0.1825  0.3899  1.0113
   78bbb     C3 2317   5.659   7.800   8.621 -0.4196  0.3034  0.2154
   78bbb     H5 2318   5.716   7.767   8.708  0.1256 -0.6723 -0.4984
   78bbb     H6 2319   5.732   7.853   8.559  0.7651  0.4897  1.7212
   78bbb     C4 2320   5.600   7.672   8.551 -0.2524  0.5971 -0.2398
   78bbb     H7 2321   5.676   7.644   8.476  0.0891  0.4805  0.1429
   78bbb     H8 2322   5.514   7.691   8.486 -0.3753 -1.6605 -0.8220
   78bbb     C5 2323   5.740   8.100   8.676 -0.5430 -0.4226 -0.3694
   78bbb     H9 2324   5.686   8.172   8.613 -1.0243 -1.1234 -0.7788
   78bbb    H10 2325   5.795   8.033   8.609  0.5659 -0.3312  0.4398
   78bbb     C6 2326   5.361   8.070   8.631 -0.3227 -0.6080 -0.7049
   78bbb    H11 2327   5.412   8.165   8.646 -2.6118  0.5860  0.0367
   78bbb    H12 2328   5.326   8.033   8.729 -0.6274  0.3147 -0.4627
   78bbb     C7 2329   5.566   7.558   8.647 -0.1670 -0.5043 -0.4383
   78bbb    H13 2330   5.650   7.544   8.716 -1.3774 -1.3944  0.9257
   78bbb    H14 2331   5.557   7.461   8.598  0.5921 -1.3939  1.1082
   78bbb     C8 2332   5.245   8.100   8.543  0.8494  0.0339 -0.3302
   78bbb    H15 2333   5.276   8.151   8.450 -0.9675  0.6308 -0.6518
   78bbb    H16 2334   5.192   8.009   8.513  1.6571  0.2221 -2.5734
   78bbb     C9 2335   5.853   8.175   8.752  0.7598 -0.7091 -0.0498
   78bbb    H17 2336   5.812   8.238   8.832 -0.5478 -1.2374 -0.2803
   78bbb    H18 2337   5.892   8.235   8.668  2.7815 -1.9982 -0.0874
   78bbb     O1 2338   5.449   7.572   8.731  0.0874 -0.0332  0.1506
   78bbb    H19 2339   5.501   7.849   8.745 -0.0537  0.8485  1.4887
   79bbb     N1 2340   4.990   9.612  10.712  0.2745 -0.8212  0.2416
   79bbb     C1 2341   5.102   9.550  10.789 -0.5582  0.1181 -0.6061
   79bbb     H1 2342   5.151   9.486  10.715  1.6448  0.5627  0.3958
   79bbb     H2 2343   5.059   9.501  10.876 -1.6531 -0.4989 -1.4746
   79bbb     C2 2344   4.920   9.732  10.781 -0.3667  0.1751  0.3421
   79bbb     H3 2345   4.838   9.765  10.718  0.1893 -0.5214 -0.7816
   79bbb     H4 2346   4.979   9.823  10.786 -2.8484  1.8134  2.1643
   79bbb     C3 2347   5.036   9.640  10.568 -0.2277 -0.1717  0.2544
   79bbb     H5 2348   5.069   9.547  10.522  2.4505  1.2490 -0.9423
   79bbb     H6 2349   5.120   9.706  10.590  1.3286 -2.1679  0.6048
   79bbb     C4 2350   4.949   9.724  10.466 -0.1664  0.1798  0.4902
   79bbb     H7 2351   4.990   9.728  10.364  0.2420  1.3079  0.6899
   79bbb     H8 2352   4.947   9.829  10.499  2.0008  0.8518 -1.2608
   79bbb     C5 2353   5.217   9.645  10.837 -0.8735  0.1629 -0.0024
   79bbb     H9 2354   5.191   9.708  10.923 -3.4660 -1.1095  0.2544
   79bbb    H10 2355   5.250   9.718  10.762 -0.7103  0.0517 -0.0401
   79bbb     C6 2356   4.863   9.709  10.929 -0.3506  0.3901  0.2645
   79bbb    H11 2357   4.820   9.804  10.962  1.6056  1.2575  0.4622
   79bbb    H12 2358   4.939   9.694  11.008 -0.6468  0.1218  0.5015
   79bbb     C7 2359   4.799   9.666  10.451  0.6037 -0.3077  0.5710
   79bbb    H13 2360   4.738   9.714  10.374 -0.8058  0.6547  2.2223
   79bbb    H14 2361   4.741   9.675  10.544 -0.1617  1.0428 -0.0041
   79bbb     C8 2362   4.748   9.609  10.941 -0.7192 -0.1377 -0.1327
   79bbb    H15 2363   4.785   9.507  10.930  2.1724  0.8708 -0.7170
   79bbb    H16 2364   4.713   9.622  11.044 -1.2624 -0.2524 -0.2994
   79bbb     C9 2365   5.333   9.558  10.899  0.3883 -0.9909  0.6546
   79bbb    H17 2366   5.378   9.491  10.824 -1.0849 -0.0224 -1.1594
   79bbb    H18 2367   5.289   9.505  10.985 -0.6512  1.8379  1.9947
   79bbb     O1 2368   4.811   9.523  10.415  0.0183 -0.8823 -0.3601
   79bbb    H19 2369   4.917   9.540  10.712 -0.5743  0.0189  0.0683
   80bbb     N1 2370   5.286   9.093   9.947 -0.3158  0.3149 -0.3312
   80bbb     C1 2371   5.297   9.167   9.817  0.5176 -0.0504 -0.6856
   80bbb     H1 2372   5.231   9.125   9.741  2.8457  0.5037 -3.1657
   80bbb     H2 2373   5.398   9.163   9.777  0.6295 -0.5733 -0.3648
   80bbb     C2 2374   5.397   9.134  10.042 -0.5944 -0.3038  0.5900
   80bbb     H3 2375   5.372   9.102  10.143  0.5746 -0.1072  0.9546
   80bbb     H4 2376   5.395   9.243  10.040  0.3432 -0.2800 -1.0834
   80bbb     C3 2377   5.153   9.114  10.011 -0.1821  0.1037 -0.1104
   80bbb     H5 2378   5.083   9.080   9.935  1.0046  1.9067 -2.0953
   80bbb     H6 2379   5.144   9.220  10.034  1.0210  0.1456  0.2377
   80bbb     C4 2380   5.106   9.030  10.136  0.1327  0.3935 -0.7147
   80bbb     H7 2381   5.184   9.022  10.213  0.2623 -0.7718 -0.9549
   80bbb     H8 2382   5.088   8.928  10.101  0.9300  0.6256 -1.8790
   80bbb     C5 2383   5.271   9.321   9.820 -0.5844  0.4501  0.0332
   80bbb     H9 2384   5.329   9.367   9.901  1.7738  1.6328 -2.1719
   80bbb    H10 2385   5.166   9.338   9.845 -0.9108 -0.6178 -0.5629
   80bbb     C6 2386   5.538   9.084   9.992  0.2965 -0.3665 -0.0173
   80bbb    H11 2387   5.539   9.062   9.884  1.1465  0.6511 -0.2321
   80bbb    H12 2388   5.556   8.990  10.045 -0.8130 -0.6215 -0.0581
   80bbb     C7 2389   4.986   9.102  10.203 -0.7156  0.3276  0.5054
   80bbb    H13 2390   5.012   9.208  10.207  0.5040  0.2014 -1.9283
   80bbb    H14 2391   4.962   9.056  10.299  0.2436  0.6189  0.8961
   80bbb     C8 2392   5.655   9.183  10.024 -0.0610 -0.1406  0.3532
   80bbb    H15 2393   5.654   9.216  10.129 -0.4721  1.1155 -0.0270
   80bbb    H16 2394   5.753   9.136  10.008 -0.7081 -1.7745  0.9878
   80bbb     C9 2395   5.310   9.388   9.690 -0.5388 -0.2328  0.2165
   80bbb    H17 2396   5.277   9.320   9.610  2.1778 -2.1965  0.6137
   80bbb    H18 2397   5.418   9.403   9.673 -0.2943 -0.7172  1.2446
   80bbb     O1 2398   4.871   9.103  10.112 -0.2679  0.2444 -0.1984
   80bbb    H19 2399   5.298   8.992   9.930  3.7842  0.9514 -2.5454
   81bbb     N1 2400   2.971  10.323  10.560  0.0850  0.5945  0.2894
   81bbb     C1 2401   2.909  10.461  10.568  0.7382  0.3003  0.3702
   81bbb     H1 2402   2.889  10.498  10.467 -2.4930  2.5701  1.6829
   81bbb     H2 2403   2.986  10.523  10.614 -1.0047  2.0443  1.0794
   81bbb     C2 2404   3.082  10.308  10.456  0.2748  0.3067  0.8569
   81bbb     H3 2405   3.097  10.205  10.422 -1.1933 -0.2092  1.6713
   81bbb     H4 2406   3.174  10.332  10.510 -0.8585  0.1541  2.9310
   81bbb     C3 2407   3.029  10.285  10.694 -0.2718  0.3189  0.5873
   81bbb     H5 2408   2.948  10.309  10.762 -1.7734 -0.3648 -0.8768
   81bbb     H6 2409   3.109  10.357  10.709 -1.9126  2.9653 -2.2486
   81bbb     C4 2410   3.078  10.141  10.725  0.4210  0.0620 -0.3900
   81bbb     H7 2411   3.123  10.092  10.638 -0.6079 -0.8059 -0.4571
   81bbb     H8 2412   2.994  10.072  10.739 -1.0652  1.5922 -1.3989
   81bbb     C5 2413   2.779  10.471  10.647 -0.3016  0.1768 -0.1198
   81bbb     H9 2414   2.778  10.441  10.752 -2.5134 -1.1801 -0.4638
   81bbb    H10 2415   2.713  10.395  10.603  1.0030 -0.6142 -0.7724
   81bbb     C6 2416   3.070  10.382  10.317 -0.3143 -1.0020 -0.0268
   81bbb    H11 2417   3.167  10.375  10.267  0.3624 -0.7050  1.1889
   81bbb    H12 2418   3.055  10.489  10.338  0.0777 -1.0218  0.3674
   81bbb     C7 2419   3.162  10.148  10.853 -0.5154 -0.1290 -0.4484
   81bbb    H13 2420   3.163  10.045  10.890 -0.2160 -0.2027 -0.6657
   81bbb    H14 2421   3.113  10.214  10.926  0.2179  0.8496 -0.8238
   81bbb     C8 2422   2.965  10.320  10.218  0.5403 -0.2099 -0.2642
   81bbb    H15 2423   2.973  10.371  10.121 -1.3444  0.4417 -0.1112
   81bbb    H16 2424   2.995  10.217  10.198  2.0349  0.0208  0.6095
   81bbb     C9 2425   2.699  10.602  10.644 -0.1502  0.6733  0.1783
   81bbb    H17 2426   2.729  10.666  10.728 -3.9777  0.9859  1.4828
   81bbb    H18 2427   2.594  10.587  10.672  0.3125 -0.1438  1.5578
   81bbb     O1 2428   3.294  10.205  10.844  0.8654 -0.4415 -0.3681
   81bbb    H19 2429   2.909  10.249  10.523  1.6020 -0.9098  0.6213
   82bbb     N1 2430   3.445  10.783  10.189 -0.2934  0.7178 -0.3295
   82bbb     C1 2431   3.336  10.876  10.116  0.2407  0.3816 -0.3504
   82bbb     H1 2432   3.280  10.918  10.199  0.7790 -1.1727  0.8465
   82bbb     H2 2433   3.267  10.817  10.054 -0.2924  0.2744  0.3378
   82bbb     C2 2434   3.476  10.836  10.323  0.1984  0.9181  0.1236
   82bbb     H3 2435   3.383  10.824  10.378  0.7725  0.3139  0.9776
   82bbb     H4 2436   3.501  10.942  10.315  0.4702  0.8635  0.2371
   82bbb     C3 2437   3.388  10.643  10.208 -0.4820 -0.1692  0.0718
   82bbb     H5 2438   3.281  10.666  10.205 -0.4056  0.0860 -1.2121
   82bbb     H6 2439   3.410  10.607  10.308 -2.4267 -1.3496  0.1289
   82bbb     C4 2440   3.420  10.544  10.095 -0.1919  0.3118  0.6823
   82bbb     H7 2441   3.435  10.596  10.000  0.2028  1.7043  1.4789
   82bbb     H8 2442   3.339  10.470  10.082 -0.1884  0.3310  0.5479
   82bbb     C5 2443   3.384  10.988  10.023 -0.0352 -0.9224 -0.0865
   82bbb     H9 2444   3.406  10.942   9.926 -0.1631 -2.6901  0.6935
   82bbb    H10 2445   3.477  11.031  10.062 -0.2914 -1.9540  1.7824
   82bbb     C6 2446   3.582  10.772  10.409  1.0718  0.2213 -0.1567
   82bbb    H11 2447   3.671  10.741  10.353  2.4441  1.2596  1.3798
   82bbb    H12 2448   3.549  10.678  10.456 -1.6751  1.5070  0.7212
   82bbb     C7 2449   3.550  10.471  10.121 -0.2310  0.4904  0.4326
   82bbb    H13 2450   3.636  10.531  10.089  0.5071 -0.9514 -0.4020
   82bbb    H14 2451   3.547  10.386  10.051  0.1046  0.8605 -0.0469
   82bbb     C8 2452   3.624  10.866  10.527 -0.1331  0.7357  0.2148
   82bbb    H15 2453   3.641  10.807  10.617 -1.8852 -0.3195 -0.0870
   82bbb    H16 2454   3.719  10.914  10.501  0.3558 -1.0554 -1.5305
   82bbb     C9 2455   3.278  11.100  10.001  0.2249 -0.3641  0.3148
   82bbb    H17 2456   3.189  11.056   9.954 -0.3207 -1.9307  2.6267
   82bbb    H18 2457   3.323  11.180   9.940 -0.0267  0.3886  1.0998
   82bbb     O1 2458   3.567  10.429  10.258  0.3526  1.0885  0.0799
   82bbb    H19 2459   3.537  10.779  10.142 -0.8224  0.2463 -1.3594
   83bbb     N1 2460   3.940   9.880  12.061 -0.3087  0.3294 -0.0435
   83bbb     C1 2461   4.025   9.974  12.136 -0.7016 -0.1221 -0.5146
   83bbb     H1 2462   4.069   9.910  12.213  0.2935  0.3792 -0.6489
   83bbb     H2 2463   3.970  10.055  12.184  0.9814 -0.0139  1.3086
   83bbb     C2 2464   3.835   9.827  12.159 -0.0494  0.0466  0.0559
   83bbb     H3 2465   3.755   9.782  12.099  0.6211 -3.4984  1.5720
   83bbb     H4 2466   3.798   9.921  12.200  1.4088  1.4406 -1.6806
   83bbb     C3 2467   3.879   9.948  11.941  0.4262 -0.3283 -0.3557
   83bbb     H5 2468   3.957   9.983  11.874 -0.1160  2.3658  0.2939
   83bbb     H6 2469   3.832  10.038  11.981 -1.2875 -1.6723  0.8164
   83bbb     C4 2470   3.778   9.869  11.857 -0.8081 -0.7123  0.4275
   83bbb     H7 2471   3.729   9.934  11.783  0.4367  1.2704  1.2609
   83bbb     H8 2472   3.691   9.846  11.920  0.4422 -0.6421  2.2534
   83bbb     C5 2473   4.148  10.026  12.066  1.0853 -0.6859 -0.1308
   83bbb     H9 2474   4.127  10.088  11.978 -1.6498 -1.0689  0.1502
   83bbb    H10 2475   4.209   9.945  12.026  0.2763 -1.1990 -0.3313
   83bbb     C6 2476   3.884   9.719  12.264  0.4080 -0.1095 -0.5258
   83bbb    H11 2477   3.953   9.779  12.325  0.9078  2.8884 -3.7075
   83bbb    H12 2478   3.932   9.633  12.215 -1.0873 -0.1680 -1.9735
   83bbb     C7 2479   3.826   9.747  11.779  1.3926 -0.2705 -0.1080
   83bbb    H13 2480   3.745   9.686  11.737 -0.9557  1.5642  1.5158
   83bbb    H14 2481   3.891   9.700  11.855  2.0536  0.1435 -0.4128
   83bbb     C8 2482   3.770   9.682  12.359 -0.1371 -0.3570  0.0310
   83bbb    H15 2483   3.679   9.638  12.316 -0.0596 -2.2356  1.6537
   83bbb    H16 2484   3.807   9.614  12.437 -1.5902 -0.3355  0.7946
   83bbb     C9 2485   4.229  10.117  12.169  0.2941  0.6875  0.1067
   83bbb    H17 2486   4.162  10.188  12.217 -1.8420 -0.1598 -1.4556
   83bbb    H18 2487   4.304  10.174  12.113  0.8926  2.6781  2.7346
   83bbb     O1 2488   3.907   9.783  11.670 -0.9436 -0.0619  0.2656
   83bbb    H19 2489   3.999   9.801  12.028  1.7184  0.8416  2.0875
   84bbb     N1 2490   4.601  10.253  11.450 -0.2432  0.1104 -1.0448
   84bbb     C1 2491   4.603  10.316  11.590 -0.2172 -0.0654 -0.4082
   84bbb     H1 2492   4.709  10.329  11.615 -0.8400  1.2850  1.8762
   84bbb     H2 2493   4.562  10.244  11.661  0.1821 -0.9204 -1.0203
   84bbb     C2 2494   4.682  10.130  11.457 -0.1482  0.1160  0.1973
   84bbb     H3 2495   4.686  10.095  11.354  1.5117  1.7673 -0.3383
   84bbb     H4 2496   4.635  10.056  11.522 -0.4998 -0.5433 -0.7889
   84bbb     C3 2497   4.457  10.216  11.410 -0.6291  0.7470 -0.3368
   84bbb     H5 2498   4.395  10.306  11.412  0.3994  1.5038 -1.5042
   84bbb     H6 2499   4.439  10.141  11.487  2.7175 -1.0810 -1.1653
   84bbb     C4 2500   4.437  10.153  11.274  0.5396  0.3081 -0.2490
   84bbb     H7 2501   4.446  10.044  11.281  1.1360  0.2818 -1.1420
   84bbb     H8 2502   4.506  10.194  11.199  0.6962  0.1391 -0.1973
   84bbb     C5 2503   4.545  10.453  11.593  0.9934 -0.5384  0.3493
   84bbb     H9 2504   4.555  10.503  11.690 -0.5502 -0.9374  0.7543
   84bbb    H10 2505   4.436  10.453  11.583  0.7253  0.3443  2.5941
   84bbb     C6 2506   4.824  10.146  11.497 -0.2255 -0.2477  0.0482
   84bbb    H11 2507   4.831  10.194  11.595 -1.4389 -0.2250  0.1316
   84bbb    H12 2508   4.882  10.211  11.430  1.4098 -0.3388  1.3133
   84bbb     C7 2509   4.293  10.176  11.221  0.6019 -0.7034  0.0790
   84bbb    H13 2510   4.302  10.140  11.118 -0.8374  1.2390 -0.7991
   84bbb    H14 2511   4.266  10.283  11.225  0.2793 -0.7958  0.4200
   84bbb     C8 2512   4.892  10.010  11.490 -0.8852  0.0373 -0.7697
   84bbb    H15 2513   4.836   9.935  11.547  1.4407 -0.1312  1.4575
   84bbb    H16 2514   4.912   9.976  11.387  0.1760  2.3589 -1.3992
   84bbb     C9 2515   4.607  10.553  11.484 -0.1393 -0.0216 -0.1145
   84bbb    H17 2516   4.546  10.643  11.503 -1.3727 -1.0866  1.2340
   84bbb    H18 2517   4.589  10.522  11.380  1.7493  2.7880 -1.4184
   84bbb     O1 2518   4.192  10.094  11.289  0.0247 -0.4564  0.2053
   84bbb    H19 2519   4.638  10.321  11.381  0.8591  1.2637  0.6069
   85bbb     N1 2520   3.640   9.038  12.137 -0.1536 -0.3844  0.1434
   85bbb     C1 2521   3.773   9.110  12.136 -0.0007  0.5211  0.1299
   85bbb     H1 2522   3.794   9.157  12.040 -0.0941  2.1933  0.9026
   85bbb     H2 2523   3.843   9.030  12.159 -1.4695 -0.7693  0.2843
   85bbb     C2 2524   3.619   8.974  12.273  0.2856  0.4687  0.4885
   85bbb     H3 2525   3.635   9.044  12.355 -0.0827 -1.7985  2.6231
   85bbb     H4 2526   3.703   8.905  12.283 -0.9347 -1.3438 -1.0146
   85bbb     C3 2527   3.533   9.135  12.092  0.3930 -1.1715 -0.6871
   85bbb     H5 2528   3.526   9.216  12.164 -4.3169 -3.0847  1.4848
   85bbb     H6 2529   3.436   9.090  12.115 -0.3308  0.9196  0.6630
   85bbb     C4 2530   3.539   9.178  11.949 -0.6740  0.1185  0.3880
   85bbb     H7 2531   3.642   9.198  11.915 -0.4900 -1.5655 -0.1715
   85bbb     H8 2532   3.480   9.270  11.940  1.4507  1.4567 -0.8414
   85bbb     C5 2533   3.799   9.231  12.227  0.0459  0.3423 -0.0741
   85bbb     H9 2534   3.754   9.205  12.323 -0.9736  1.0989 -0.3291
   85bbb    H10 2535   3.750   9.324  12.196 -1.2609 -0.3009  0.0086
   85bbb     C6 2536   3.487   8.896  12.309 -0.5589 -0.2543 -0.0720
   85bbb    H11 2537   3.417   8.968  12.354  0.9739  0.4150  1.3626
   85bbb    H12 2538   3.508   8.825  12.389 -1.2554 -0.2556  0.1134
   85bbb     C7 2539   3.493   9.073  11.844  0.3115  0.6862  0.6702
   85bbb    H13 2540   3.558   8.986  11.853  0.3213  0.7164  0.9092
   85bbb    H14 2541   3.516   9.124  11.750  0.3862  0.8476  0.7738
   85bbb     C8 2542   3.416   8.821  12.195 -0.0490 -0.0467 -0.2075
   85bbb    H15 2543   3.323   8.780  12.236  0.0956  0.5336  0.7259
   85bbb    H16 2544   3.392   8.892  12.114  2.6383  0.2005 -0.9013
   85bbb     C9 2545   3.956   9.262  12.238  0.0345  0.2463  1.3266
   85bbb    H17 2546   3.996   9.173  12.288 -0.5809 -0.0426  1.3079
   85bbb    H18 2547   3.969   9.357  12.292 -1.4185  2.3106 -1.6659
   85bbb     O1 2548   3.348   9.037  11.865  0.2073  0.2744  0.1104
   85bbb    H19 2549   3.642   8.956  12.074  0.2461 -1.0726  1.0414
   86bbb     N1 2550   2.869   9.483  12.143 -0.2210  0.3942  0.0245
   86bbb     C1 2551   2.841   9.558  12.268 -0.0418 -0.2412 -0.1936
   86bbb     H1 2552   2.786   9.502  12.343 -0.3501 -1.6802 -1.4463
   86bbb     H2 2553   2.770   9.637  12.240 -2.6539 -1.6839  1.9310
   86bbb     C2 2554   2.948   9.563  12.039  0.3730  0.6002 -0.6594
   86bbb     H3 2555   3.052   9.550  12.071 -0.1664 -4.0605 -0.0646
   86bbb     H4 2556   2.915   9.666  12.048  0.3136  0.7305 -2.1853
   86bbb     C3 2557   2.955   9.365  12.178  0.3076 -0.4257  0.4742
   86bbb     H5 2558   3.021   9.389  12.262  0.1945 -0.5387  0.5961
   86bbb     H6 2559   3.013   9.332  12.092  1.1754  0.6260  0.6336
   86bbb     C4 2560   2.871   9.241  12.219  0.6640 -0.6480 -0.4871
   86bbb     H7 2561   2.787   9.280  12.278  1.8329  0.1098  0.7357
   86bbb     H8 2562   2.926   9.170  12.281  2.3276  2.6569  2.1440
   86bbb     C5 2563   2.963   9.623  12.341  0.0713  0.3212  0.0403
   86bbb     H9 2564   2.995   9.702  12.272  2.4672 -0.1220  0.5414
   86bbb    H10 2565   3.048   9.560  12.371  0.1870  1.0951  1.4498
   86bbb     C6 2566   2.912   9.522  11.891 -0.6296  0.4283 -0.3497
   86bbb    H11 2567   2.945   9.420  11.868 -0.6392  0.5259 -0.8095
   86bbb    H12 2568   2.982   9.582  11.831 -0.6744  0.3369 -0.4941
   86bbb     C7 2569   2.820   9.165  12.097  0.0916  0.4185  0.1573
   86bbb    H13 2570   2.757   9.084  12.135  0.0519 -0.7530 -2.2190
   86bbb    H14 2571   2.912   9.120  12.056  0.5091 -0.0932  1.5695
   86bbb     C8 2572   2.770   9.540  11.839  0.3290 -0.6824 -0.0603
   86bbb    H15 2573   2.748   9.498  11.741 -0.9312 -2.5146  0.9497
   86bbb    H16 2574   2.702   9.491  11.911  0.4303  1.0789  1.3175
   86bbb     C9 2575   2.912   9.685  12.472 -0.0866  0.1521  0.2431
   86bbb    H17 2576   2.864   9.609  12.534 -0.2038 -0.2081 -0.2778
   86bbb    H18 2577   2.835   9.759  12.444  0.5187  1.5545  2.0630
   86bbb     O1 2578   2.738   9.243  12.007 -0.4431 -0.1824 -0.2532
   86bbb    H19 2579   2.777   9.446  12.112 -0.4362 -0.2593  1.3619
   87bbb     N1 2580   0.475   9.631  11.056 -0.7298 -0.1119 -0.3232
   87bbb     C1 2581   0.531   9.655  11.196 -0.9389  0.7862  0.7826
   87bbb     H1 2582   0.461   9.630  11.276 -1.0157  0.2568  0.5528
   87bbb     H2 2583   0.554   9.762  11.201 -0.4152  0.6394  1.9088
   87bbb     C2 2584   0.341   9.706  11.057  0.1295  0.2324 -0.5528
   87bbb     H3 2585   0.302   9.689  10.956 -2.2457  1.4632  0.0796
   87bbb     H4 2586   0.347   9.815  11.065 -2.9707  0.7012 -2.6571
   87bbb     C3 2587   0.582   9.684  10.955 -0.4377  0.3235  0.3276
   87bbb     H5 2588   0.678   9.634  10.968 -1.4550 -1.9968 -0.4738
   87bbb     H6 2589   0.589   9.793  10.964 -1.6413  0.6214 -1.6966
   87bbb     C4 2590   0.562   9.653  10.811 -0.2186 -0.2772 -0.1450
   87bbb     H7 2591   0.490   9.731  10.782 -0.2450 -0.4870 -0.6402
   87bbb     H8 2592   0.523   9.551  10.805 -0.9441 -0.4357  4.0865
   87bbb     C5 2593   0.665   9.569  11.223  0.2969 -0.1600 -0.1629
   87bbb     H9 2594   0.726   9.574  11.131 -1.6232  0.2466 -1.4728
   87bbb    H10 2595   0.629   9.466  11.226  2.7817 -1.0640  1.8653
   87bbb     C6 2596   0.231   9.668  11.157  0.7759  0.0460 -0.8533
   87bbb    H11 2597   0.142   9.728  11.133  0.9286  0.9637  0.7488
   87bbb    H12 2598   0.253   9.704  11.258 -0.5390 -1.4726  0.0169
   87bbb     C7 2599   0.691   9.664  10.721 -0.1250 -0.0499 -0.5949
   87bbb    H13 2600   0.663   9.655  10.615  1.0582  1.3422 -1.0480
   87bbb    H14 2601   0.748   9.580  10.763 -3.6582 -2.7352 -0.6740
   87bbb     C8 2602   0.182   9.522  11.161  0.1376  0.4682  0.2892
   87bbb    H15 2603   0.142   9.508  11.262 -0.0707  0.7174  0.2426
   87bbb    H16 2604   0.099   9.497  11.095  1.3455 -1.2233 -0.6698
   87bbb     C9 2605   0.738   9.613  11.348 -0.1899  0.0140 -0.0747
   87bbb    H17 2606   0.819   9.542  11.369 -0.4024 -0.4568 -0.8548
   87bbb    H18 2607   0.673   9.606  11.436  0.5024 -0.5287  0.4042
   87bbb     O1 2608   0.766   9.781  10.747 -0.2597 -0.0794  0.6336
   87bbb    H19 2609   0.462   9.529  11.046  1.9419 -0.4016 -1.9049
   88bbb     N1 2610   1.174  10.423  10.931  0.8519  0.3340  0.0213
   88bbb     C1 2611   1.262  10.543  10.966 -0.0950  0.0012  0.1938
   88bbb     H1 2612   1.303  10.521  11.064  1.6356 -0.4261 -0.5821
   88bbb     H2 2613   1.197  10.628  10.983  0.1416  0.1377  0.4258
   88bbb     C2 2614   1.080  10.464  10.814  0.4475 -0.3285  0.5530
   88bbb     H3 2615   1.137  10.465  10.721 -0.1094 -0.1410  0.2094
   88bbb     H4 2616   1.031  10.556  10.844 -0.1564 -0.3826 -0.2265
   88bbb     C3 2617   1.261  10.298  10.886  0.3312  0.0654  0.3401
   88bbb     H5 2618   1.335  10.337  10.816 -0.1852  2.6159  1.1002
   88bbb     H6 2619   1.197  10.228  10.833  0.1687  1.6553 -1.6640
   88bbb     C4 2620   1.323  10.213  10.995 -0.5109  0.3204  0.0546
   88bbb     H7 2621   1.249  10.155  11.051  0.0091 -0.1571  0.2606
   88bbb     H8 2622   1.370  10.281  11.067  2.9523 -1.2678 -0.4632
   88bbb     C5 2623   1.375  10.576  10.863  0.0861 -0.0325  0.2881
   88bbb     H9 2624   1.327  10.563  10.765 -1.8896 -0.6864  1.2878
   88bbb    H10 2625   1.463  10.511  10.860 -0.5253 -0.8286 -1.0698
   88bbb     C6 2626   0.962  10.369  10.787  0.5074 -0.6022 -0.8828
   88bbb    H11 2627   0.997  10.265  10.777 -0.9242 -1.1508 -0.4811
   88bbb    H12 2628   0.917  10.405  10.693  0.9305  3.8269  0.3818
   88bbb     C7 2629   1.438  10.116  10.949  0.1274 -0.4079  0.5509
   88bbb    H13 2630   1.491  10.082  11.039  1.0448  3.9912  1.8957
   88bbb    H14 2631   1.499  10.178  10.883 -0.6219 -1.0371 -0.7637
   88bbb     C8 2632   0.845  10.372  10.892  0.3704 -0.5769  0.3296
   88bbb    H15 2633   0.781  10.461  10.887  0.4871 -0.4882  0.4247
   88bbb    H16 2634   0.776  10.290  10.869  0.1024 -0.5998  1.1667
   88bbb     C9 2635   1.423  10.721  10.861 -0.0812 -0.6148 -0.8173
   88bbb    H17 2636   1.337  10.774  10.818 -0.6264 -0.5268  0.3544
   88bbb    H18 2637   1.514  10.732  10.800  0.3848  1.1013  0.1268
   88bbb     O1 2638   1.384  10.010  10.871  0.1778  0.3316  0.2032
   88bbb    H19 2639   1.123  10.404  11.018 -0.4328  0.9367 -0.5757
   89bbb     N1 2640   1.937  10.417  10.221 -0.5233  0.2935 -0.0118
   89bbb     C1 2641   2.031  10.384  10.337 -0.1580 -0.3133 -0.4484
   89bbb     H1 2642   2.119  10.449  10.334  1.0749 -1.9560 -1.1695
   89bbb     H2 2643   2.069  10.283  10.322 -0.4556 -0.4677 -0.1814
   89bbb     C2 2644   2.032  10.451  10.099 -0.0191 -0.1777 -0.4707
   89bbb     H3 2645   2.072  10.354  10.070  3.0033  0.8752 -0.1815
   89bbb     H4 2646   2.115  10.511  10.136 -1.0882 -0.4034  2.6048
   89bbb     C3 2647   1.840  10.300  10.193  1.0482 -0.4872 -0.3355
   89bbb     H5 2648   1.836  10.237  10.283 -2.2089  0.0847  0.0473
   89bbb     H6 2649   1.866  10.245  10.103 -1.3223  2.2493 -2.9091
   89bbb     C4 2650   1.691  10.344  10.171 -0.1129 -0.0416 -0.4326
   89bbb     H7 2651   1.644  10.281  10.094 -0.2982 -0.1813 -0.2071
   89bbb     H8 2652   1.700  10.430  10.103  1.1934 -2.5483 -3.7101
   89bbb     C5 2653   1.965  10.389  10.477  0.3104 -0.8132 -0.2308
   89bbb     H9 2654   2.035  10.337  10.544 -0.6797 -0.6584  0.9616
   89bbb    H10 2655   1.875  10.326  10.477  0.6497 -1.3363 -1.2913
   89bbb     C6 2656   1.969  10.516   9.974  0.8758  0.1701 -0.4298
   89bbb    H11 2657   1.912  10.606  10.000 -0.2625 -0.7903  0.4632
   89bbb    H12 2658   1.905  10.440   9.927  0.3022  0.9539 -0.9476
   89bbb     C7 2659   1.594  10.369  10.288 -0.0029 -0.0853 -0.7678
   89bbb    H13 2660   1.493  10.361  10.245 -0.2425  1.5775 -0.6111
   89bbb    H14 2661   1.603  10.475  10.315  1.7433 -0.3932 -0.0438
   89bbb     C8 2662   2.079  10.558   9.882  0.2000 -0.3315  1.2365
   89bbb    H15 2663   2.122  10.470   9.833  2.8635  1.6325 -0.2025
   89bbb    H16 2664   2.035  10.620   9.802  3.5901 -0.4008 -0.8907
   89bbb     C9 2665   1.914  10.530  10.517  0.3238  0.7584  0.6800
   89bbb    H17 2666   1.850  10.521  10.606 -2.7326 -0.9269 -1.4692
   89bbb    H18 2667   1.846  10.577  10.444 -1.8371 -0.2796  1.9414
   89bbb     O1 2668   1.620  10.282  10.399 -0.4716 -0.5786  0.2878
   89bbb    H19 2669   1.889  10.505  10.245 -1.8792  0.0038 -1.5448
   90bbb     N1 2670   2.103  10.720  11.157 -0.1789  0.0636  0.0863
   90bbb     C1 2671   2.004  10.667  11.262 -0.2833  0.3966 -0.3723
   90bbb     H1 2672   2.062  10.604  11.330 -0.9500  0.5477  0.3552
   90bbb     H2 2673   1.926  10.610  11.211 -1.5249  0.9528  0.8357
   90bbb     C2 2674   2.235  10.785  11.201  0.1661 -0.6696 -0.5797
   90bbb     H3 2675   2.201  10.882  11.237 -1.0897 -1.0501 -0.6872
   90bbb     H4 2676   2.303  10.807  11.118  0.9184 -1.2090 -0.1219
   90bbb     C3 2677   2.136  10.607  11.059 -1.5874  1.1043 -0.3794
   90bbb     H5 2678   2.142  10.522  11.126 -0.8105  1.7216  0.3624
   90bbb     H6 2679   2.233  10.632  11.016 -0.5984 -0.7235  0.6681
   90bbb     C4 2680   2.030  10.560  10.955 -0.4490  0.4633  0.1583
   90bbb     H7 2681   2.030  10.621  10.864  0.8068  0.1451 -0.0639
   90bbb     H8 2682   1.929  10.559  10.999 -0.6979 -2.5970 -0.2690
   90bbb     C5 2683   1.952  10.783  11.350 -0.1466  0.7511  0.3874
   90bbb     H9 2684   1.905  10.853  11.280 -0.5143 -1.5463 -1.8213
   90bbb    H10 2685   2.038  10.824  11.403 -0.9583  1.2337  1.3778
   90bbb     C6 2686   2.325  10.710  11.306  0.4292  0.2285 -0.0662
   90bbb    H11 2687   2.326  10.606  11.273  1.1055  1.1731 -3.4046
   90bbb    H12 2688   2.290  10.714  11.410  1.3032  2.3294  0.2107
   90bbb     C7 2689   2.037  10.404  10.919  0.1933 -0.1701 -0.1897
   90bbb    H13 2690   2.042  10.353  11.016  1.8175  0.3537  0.0298
   90bbb    H14 2691   2.125  10.384  10.857 -0.0767 -2.8316  0.1675
   90bbb     C8 2692   2.468  10.761  11.300  0.3615  0.5459 -0.1816
   90bbb    H15 2693   2.529  10.720  11.381 -0.1019 -1.1619 -0.6473
   90bbb    H16 2694   2.523  10.718  11.215  0.3340 -2.6974  1.2914
   90bbb     C9 2695   1.843  10.737  11.458 -0.0339  0.2026  0.0527
   90bbb    H17 2696   1.809  10.821  11.519 -0.3238 -0.7505  1.2486
   90bbb    H18 2697   1.880  10.657  11.523 -0.6173 -0.9611 -1.0024
   90bbb     O1 2698   1.915  10.358  10.846  0.0008 -0.2788 -0.3128
   90bbb    H19 2699   2.047  10.785  11.101 -0.0766  0.3851  0.3582
   91bbb     N1 2700   0.705   8.256  11.429 -0.3033 -0.1905 -0.1294
   91bbb     C1 2701   0.672   8.117  11.486 -0.2186 -0.2260  0.2050
   91bbb     H1 2702   0.572   8.116  11.529 -1.5578 -0.6715 -2.6652
   91bbb     H2 2703   0.753   8.091  11.554 -0.0935  0.4591  0.3161
   91bbb     C2 2704   0.664   8.359  11.530 -0.4529  0.1203 -0.1917
   91bbb     H3 2705   0.566   8.333  11.568 -0.1237  0.0952  0.6618
   91bbb     H4 2706   0.652   8.451  11.473 -1.8362  0.0918  0.0208
   91bbb     C3 2707   0.858   8.262  11.394 -0.6305  0.5765 -0.0153
   91bbb     H5 2708   0.881   8.188  11.317 -1.7001 -1.4678  1.5330
   91bbb     H6 2709   0.915   8.220  11.477 -0.6059 -2.9061 -1.6329
   91bbb     C4 2710   0.911   8.398  11.349  0.4224  0.0998 -0.3195
   91bbb     H7 2711   0.876   8.472  11.422 -0.8347 -1.7726  1.0605
   91bbb     H8 2712   0.861   8.428  11.257 -3.7238 -0.8738  1.3795
   91bbb     C5 2713   0.676   8.004  11.374 -0.3940  0.1959  0.0774
   91bbb     H9 2714   0.663   7.903  11.415 -1.7979  0.8931  1.4958
   91bbb    H10 2715   0.760   8.014  11.305  1.7950 -0.1402  2.5678
   91bbb     C6 2716   0.744   8.378  11.659 -0.5479 -0.0594  0.5086
   91bbb    H11 2717   0.837   8.435  11.646  0.5761 -1.0963  3.2874
   91bbb    H12 2718   0.787   8.286  11.699  0.4446  0.5671  0.9082
   91bbb     C7 2719   1.064   8.412  11.318  0.6535 -0.7356  0.2111
   91bbb    H13 2720   1.078   8.518  11.294 -1.1599  0.0010  2.1226
   91bbb    H14 2721   1.088   8.350  11.230 -2.8187 -2.0405  0.0098
   91bbb     C8 2722   0.658   8.445  11.762  0.5614 -0.2433 -0.3576
   91bbb    H15 2723   0.583   8.370  11.793 -0.7501  1.1241 -0.1084
   91bbb    H16 2724   0.717   8.480  11.847 -2.3486  0.2252  1.6309
   91bbb     C9 2725   0.557   8.014  11.281  0.1348  0.5316 -0.3930
   91bbb    H17 2726   0.563   7.930  11.211  1.5269 -0.2599  0.6104
   91bbb    H18 2727   0.574   8.106  11.223  2.3445  0.4655  0.0557
   91bbb     O1 2728   1.149   8.384  11.430  0.3183  0.2045 -0.5582
   91bbb    H19 2729   0.644   8.271  11.347  0.0905  0.1924 -0.3513
   92bbb     N1 2730   1.653   8.290  11.881  0.8985  0.2754 -0.3976
   92bbb     C1 2731   1.552   8.182  11.915 -0.5143  0.6217 -0.0384
   92bbb     H1 2732   1.462   8.227  11.874  0.0745  1.7216 -0.1613
   92bbb     H2 2733   1.553   8.164  12.022 -0.2870 -1.2187 -0.3187
   92bbb     C2 2734   1.601   8.416  11.941 -0.1339  0.1710 -0.6472
   92bbb     H3 2735   1.695   8.470  11.956  1.3707 -2.1988 -1.1233
   92bbb     H4 2736   1.561   8.383  12.037 -0.8587  0.8371 -0.7052
   92bbb     C3 2737   1.791   8.256  11.928  0.9152 -0.2017  0.4645
   92bbb     H5 2738   1.815   8.156  11.890  4.0343  0.6993 -0.2194
   92bbb     H6 2739   1.811   8.262  12.035 -1.8963  0.0191  1.0475
   92bbb     C4 2740   1.899   8.340  11.851  0.1036  0.9408 -0.4628
   92bbb     H7 2741   1.996   8.324  11.899 -1.1402  0.6642  2.1471
   92bbb     H8 2742   1.872   8.446  11.847 -2.7728  0.3153 -0.0704
   92bbb     C5 2743   1.589   8.045  11.842  0.1166 -0.0565  0.5805
   92bbb     H9 2744   1.523   7.961  11.867  1.0715 -1.7544 -2.1437
   92bbb    H10 2745   1.689   8.004  11.861 -0.7337 -2.1922  0.6647
   92bbb     C6 2746   1.521   8.514  11.858  0.5977 -1.2977  0.5190
   92bbb    H11 2747   1.428   8.470  11.820 -0.8577  0.8538  1.3878
   92bbb    H12 2748   1.583   8.551  11.776 -1.5940 -0.1017 -0.7103
   92bbb     C7 2749   1.913   8.303  11.705 -0.5957  0.3965  0.3396
   92bbb    H13 2750   1.962   8.206  11.691 -1.0208  0.3263 -0.7294
   92bbb    H14 2751   1.986   8.374  11.662 -0.0602  0.0349  0.6371
   92bbb     C8 2752   1.478   8.630  11.952  0.7621 -0.2870  0.1083
   92bbb    H15 2753   1.562   8.669  12.011  0.7328  0.4912 -0.3517
   92bbb    H16 2754   1.438   8.714  11.894  1.8127  1.0188  1.1867
   92bbb     C9 2755   1.579   8.068  11.691 -0.7792  0.2082 -0.3981
   92bbb    H17 2756   1.622   7.981  11.640 -1.7821 -0.2456 -0.4821
   92bbb    H18 2757   1.652   8.146  11.665  0.4578  0.1347  2.4518
   92bbb     O1 2758   1.787   8.326  11.639  0.0777  0.3860 -0.1730
   92bbb    H19 2759   1.655   8.300  11.778 -0.9962  0.8237 -0.4159
   93bbb     N1 2760   1.667   7.077  10.236  0.4320  0.5849 -0.2713
   93bbb     C1 2761   1.779   7.148  10.157 -0.5413 -0.2018  0.1827
   93bbb     H1 2762   1.868   7.087  10.171 -1.2625 -0.8621  2.2913
   93bbb     H2 2763   1.790   7.244  10.209 -0.7339 -0.5859  0.9477
   93bbb     C2 2764   1.692   6.924  10.239 -0.4126 -0.0074  0.4255
   93bbb     H3 2765   1.676   6.885  10.139 -4.8316  0.2863  0.8427
   93bbb     H4 2766   1.610   6.877  10.292 -0.2559 -0.3486  0.3647
   93bbb     C3 2767   1.656   7.137  10.377 -0.1472 -0.0101 -0.3201
   93bbb     H5 2768   1.607   7.234  10.363 -0.8114 -0.1966  0.5873
   93bbb     H6 2769   1.758   7.137  10.414  0.9376  0.7436 -3.0749
   93bbb     C4 2770   1.548   7.062  10.466 -0.1204 -0.9322 -0.3098
   93bbb     H7 2771   1.585   6.958  10.467  1.0471 -0.5522  1.8400
   93bbb     H8 2772   1.446   7.057  10.426 -0.4389 -5.4986  0.5255
   93bbb     C5 2773   1.751   7.176  10.006 -0.2948  0.4310 -0.3401
   93bbb     H9 2774   1.654   7.227   9.993 -0.4892 -0.2670 -1.8676
   93bbb    H10 2775   1.743   7.082   9.950  0.8430  0.7465 -1.0571
   93bbb     C6 2776   1.821   6.865  10.298  0.1187  0.1497  0.8705
   93bbb    H11 2777   1.843   6.915  10.394 -0.7975  0.4165  0.9477
   93bbb    H12 2778   1.906   6.894  10.236 -0.0114 -1.2244  0.0070
   93bbb     C7 2779   1.543   7.118  10.618  0.1208 -0.0646 -0.1467
   93bbb    H13 2780   1.638   7.103  10.670  0.0740 -1.3646 -0.3914
   93bbb    H14 2781   1.478   7.057  10.682  1.5252 -0.3272  1.0950
   93bbb     C8 2782   1.823   6.711  10.293  0.7778  0.7533 -0.2317
   93bbb    H15 2783   1.909   6.676  10.351 -0.5922  0.4909  1.7747
   93bbb    H16 2784   1.727   6.673  10.333  1.8995 -1.9826  0.1076
   93bbb     C9 2785   1.861   7.262   9.937  0.4378  0.3267 -0.4100
   93bbb    H17 2786   1.847   7.367   9.967 -0.4131 -0.5759  2.7275
   93bbb    H18 2787   1.845   7.254   9.828 -0.3250 -1.2504 -0.2120
   93bbb     O1 2788   1.497   7.251  10.621 -0.0576 -0.2304  0.2434
   93bbb    H19 2789   1.580   7.093  10.184 -1.0846  0.0453  1.9145
   94bbb     N1 2790   0.838   7.559  10.179  0.6048 -0.3600  0.1378
   94bbb     C1 2791   0.763   7.629  10.061 -0.3214  0.9161 -0.3840
   94bbb     H1 2792   0.674   7.571  10.037 -0.1184 -0.3451  1.6520
   94bbb     H2 2793   0.833   7.630   9.977 -1.1105 -0.4321 -1.0833
   94bbb     C2 2794   0.883   7.428  10.123  0.3910  0.1208  0.1932
   94bbb     H3 2795   0.797   7.361  10.108 -0.5685  1.4037 -0.1623
   94bbb     H4 2796   0.929   7.385  10.212 -2.1441 -0.7562  1.1855
   94bbb     C3 2797   0.951   7.640  10.243 -0.0789  0.0166 -0.3503
   94bbb     H5 2798   0.911   7.740  10.261  0.8679  0.3354  0.0673
   94bbb     H6 2799   1.032   7.659  10.173 -0.5286  1.2925 -0.5547
   94bbb     C4 2800   1.001   7.597  10.385 -0.0185 -0.0122  0.7192
   94bbb     H7 2801   1.058   7.503  10.389 -2.0150 -1.2639  3.5584
   94bbb     H8 2802   0.910   7.584  10.446 -0.1910  2.6030  1.1303
   94bbb     C5 2803   0.728   7.773  10.081  0.1347  0.6359 -0.7064
   94bbb     H9 2804   0.810   7.834  10.121 -0.2922  0.8581 -0.1383
   94bbb    H10 2805   0.640   7.775  10.147  1.5699 -0.2703  1.3757
   94bbb     C6 2806   0.974   7.426  10.000 -0.2246 -0.1687  0.1403
   94bbb    H11 2807   1.062   7.489  10.016 -0.1518 -0.1718 -0.2277
   94bbb    H12 2808   0.925   7.469   9.911  1.5497  2.0689  0.1405
   94bbb     C7 2809   1.080   7.711  10.455 -0.0692  0.2910 -0.1329
   94bbb    H13 2810   1.105   7.673  10.555  0.9539 -0.5742 -0.6968
   94bbb    H14 2811   1.019   7.800  10.473  0.2862  0.1111  2.2182
   94bbb     C8 2812   1.011   7.279   9.966 -0.3228 -0.4323  0.4219
   94bbb    H15 2813   0.920   7.219   9.953 -1.7069  1.7428 -0.4745
   94bbb    H16 2814   1.078   7.292   9.880 -1.2404  0.2840 -0.2111
   94bbb     C9 2815   0.705   7.850   9.949  0.3665  0.1632  0.4996
   94bbb    H17 2816   0.797   7.852   9.889  0.5078 -1.2007  0.6310
   94bbb    H18 2817   0.677   7.953   9.972  0.7422 -0.0249  1.8999
   94bbb     O1 2818   1.196   7.759  10.384 -0.4879 -0.3588  0.1916
   94bbb    H19 2819   0.762   7.549  10.248 -1.1619 -0.8418 -1.7725
   95ccc     C1 2820   6.189   8.438   6.789 -0.6908 -0.4046  0.2264
   95ccc     C2 2821   6.203   8.290   6.842  0.2013  0.3604 -0.2264
   95ccc     H1 2822   6.174   8.496   6.880 -0.8045 -0.1696  0.0589
   95ccc     H2 2823   6.283   8.291   6.916  0.0071 -2.5634  0.1466
   95ccc     C3 2824   6.070   8.255   6.909 -0.0063  0.1448  0.0042
   95ccc     C4 2825   5.946   8.271   6.813 -0.3045 -0.0289 -0.1774
   95ccc     C5 2826   5.945   8.416   6.758  0.1119  0.3379 -0.5361
   95ccc     H3 2827   5.953   8.203   6.726 -2.9392 -0.1478 -0.3977
   95ccc     H4 2828   6.057   8.325   6.993 -2.1220 -1.0478  0.7623
   95ccc     H5 2829   5.922   8.495   6.830 -2.4259  0.6436 -1.6012
   95ccc     O1 2830   5.851   8.425   6.640  0.0538  0.4584  0.2916
   95ccc     O2 2831   5.823   8.249   6.888 -0.3260 -0.0806  0.5720
   95ccc     O3 2832   6.074   8.120   6.968  0.2238 -0.3983  0.2069
   95ccc     O4 2833   6.246   8.214   6.738  0.0246  0.1987 -0.1890
   95ccc     C6 2834   6.313   8.492   6.710  0.2919 -0.4652  0.0510
   95ccc     H6 2835   6.080   8.064   6.889  0.6887 -0.7045  0.4562
   95ccc     H7 2836   6.289   8.280   6.681  0.4350  0.8579  0.8494
   95ccc     H8 2837   5.825   8.306   6.967  0.0541  0.7316 -0.0140
   95ccc     H9 2838   6.401   8.498   6.776  0.3571 -2.9642  0.2635
   95ccc    H10 2839   6.284   8.593   6.677 -0.6568 -1.0540 -0.9688
   95ccc     O5 2840   6.344   8.407   6.596 -0.0372 -0.4307  0.5290
   95ccc    H11 2841   6.322   8.467   6.522  0.0111  1.9976  2.3705
   95ccc     O6 2842   6.080   8.440   6.699 -0.3245 -0.2361 -0.0923
   96ccc     C1 2843   5.527   8.082   5.844  0.4873  0.2653 -0.1369
   96ccc     C2 2844   5.671   8.031   5.863 -0.0133 -0.1935 -0.4511
   96ccc     H1 2845   5.528   8.143   5.753  0.4575  1.0518  0.3843
   96ccc     H2 2846   5.701   7.959   5.787 -0.0952 -0.0747 -0.5977
   96ccc     C3 2847   5.773   8.147   5.871 -0.3690 -0.0050  0.1225
   96ccc     C4 2848   5.726   8.247   5.980 -0.1407  0.3741 -0.2993
   96ccc     C5 2849   5.581   8.298   5.948  0.0970 -0.0357 -0.2365
   96ccc     H3 2850   5.712   8.197   6.077  0.1062 -0.8114 -0.8620
   96ccc     H4 2851   5.773   8.197   5.773  0.2493 -1.2204 -0.5109
   96ccc     H5 2852   5.574   8.351   5.853 -2.5106 -0.1045 -0.1500
   96ccc     O1 2853   5.546   8.377   6.053 -0.0114 -0.1358 -0.8983
   96ccc     O2 2854   5.816   8.360   5.988  0.0469 -0.5464  0.0530
   96ccc     O3 2855   5.906   8.103   5.904 -0.0708  0.5631 -0.1046
   96ccc     O4 2856   5.670   7.956   5.989  0.6030  0.5340  0.0905
   96ccc     C6 2857   5.417   7.982   5.817  0.4316  0.3459  0.3815
   96ccc     H6 2858   5.940   8.035   5.844  0.0876  0.6397 -0.1013
   96ccc     H7 2859   5.760   7.921   6.001 -0.4228 -2.1095  0.8951
   96ccc     H8 2860   5.902   8.332   6.025  0.0169  0.2333  0.7297
   96ccc     H9 2861   5.441   7.907   5.741 -2.4458 -0.3510  0.0552
   96ccc    H10 2862   5.324   8.031   5.785 -0.4690 -0.9529  0.9160
   96ccc     O5 2863   5.400   7.909   5.940  0.1859  0.3786  0.0668
   96ccc    H11 2864   5.492   7.916   5.972  0.0709  0.5582  0.3607
   96ccc     O6 2865   5.492   8.187   5.940 -0.0573  0.0540 -0.1364
   97ccc     C1 2866   6.068   8.047   6.367  0.3918  0.3513  0.6251
   97ccc     C2 2867   6.023   8.017   6.222 -0.1262  0.0632  0.3967
   97ccc     H1 2868   6.127   7.962   6.402  2.3574  1.2994 -0.2492
   97ccc     H2 2869   6.114   8.012   6.161 -0.6930  2.5294 -0.7234
   97ccc     C3 2870   5.941   7.886   6.219  0.2731 -0.1958 -0.4302
   97ccc     C4 2871   5.810   7.901   6.302 -0.5308 -0.5721  0.2415
   97ccc     C5 2872   5.843   7.948   6.449 -0.3435 -0.2576  0.3268
   97ccc     H3 2873   5.753   7.982   6.254  1.9735  0.5973 -0.9380
   97ccc     H4 2874   5.997   7.806   6.271 -1.4831 -1.3766 -0.2648
   97ccc     H5 2875   5.865   7.861   6.512 -0.5226 -0.6073 -0.0894
   97ccc     O1 2876   5.728   8.019   6.501  0.2770  0.7877  0.6656
   97ccc     O2 2877   5.737   7.778   6.301 -0.6463  0.5997  0.3384
   97ccc     O3 2878   5.908   7.843   6.088 -0.3868  0.6619  0.8953
   97ccc     O4 2879   5.939   8.119   6.166  0.6366 -0.0338  0.3301
   97ccc     C6 2880   6.159   8.168   6.377  0.5935 -0.6007 -0.2603
   97ccc     H6 2881   5.999   7.824   6.060  0.2965  0.7066  2.9451
   97ccc     H7 2882   5.938   8.105   6.070  2.3309  2.8864 -0.2441
   97ccc     H8 2883   5.733   7.749   6.208  2.0467 -0.0288  0.3490
   97ccc     H9 2884   6.265   8.147   6.356  0.2195  0.3812 -3.6410
   97ccc    H10 2885   6.150   8.206   6.480 -2.1633  0.4647 -0.8156
   97ccc     O5 2886   6.111   8.272   6.293 -0.5579 -0.1158  0.4526
   97ccc    H11 2887   6.039   8.227   6.245  0.1630  0.8270 -1.6056
   97ccc     O6 2888   5.951   8.050   6.456 -0.7203  0.1329  0.0087
   98ccc     C1 2889   5.862   7.624   7.579  0.1175 -0.6658 -0.7103
   98ccc     C2 2890   5.901   7.740   7.680  0.3928  0.0502 -0.2324
   98ccc     H1 2891   5.934   7.542   7.587  1.1161 -0.0913 -2.9646
   98ccc     H2 2892   5.897   7.696   7.780 -0.9063 -0.8986 -0.6881
   98ccc     C3 2893   6.038   7.803   7.632  0.1593  0.4506  0.2075
   98ccc     C4 2894   6.031   7.859   7.485 -1.0520 -0.2831  0.4540
   98ccc     C5 2895   5.987   7.734   7.396  0.4151 -0.5852  0.7687
   98ccc     H3 2896   5.965   7.947   7.486  0.6862  1.0721  1.9003
   98ccc     H4 2897   6.112   7.722   7.635 -0.2583  0.0695  0.2887
   98ccc     H5 2898   6.067   7.659   7.392 -0.0194 -1.0111 -0.0676
   98ccc     O1 2899   5.956   7.782   7.263 -0.5892 -0.6161  0.4992
   98ccc     O2 2900   6.173   7.895   7.447  0.4608  0.2055  0.4117
   98ccc     O3 2901   6.078   7.907   7.729  0.1918  0.1257 -0.2184
   98ccc     O4 2902   5.799   7.840   7.677  0.5895 -0.0976  0.1056
   98ccc     C6 2903   5.719   7.573   7.610  0.5769  0.7783  0.1264
   98ccc     H6 2904   6.155   7.882   7.783 -1.6323  1.9701  3.6829
   98ccc     H7 2905   5.815   7.894   7.756  1.1346  1.5110 -1.0576
   98ccc     H8 2906   6.208   7.925   7.533  0.5390 -0.5598  0.6484
   98ccc     H9 2907   5.652   7.652   7.572 -0.0975  1.2289  2.1325
   98ccc    H10 2908   5.691   7.566   7.716  2.3085  2.0498  0.7121
   98ccc     O5 2909   5.711   7.444   7.544 -0.4457  0.0886 -0.1193
   98ccc    H11 2910   5.615   7.430   7.532 -0.4468  1.1920 -1.7529
   98ccc     O6 2911   5.862   7.676   7.442 -0.1345  1.2088  0.2582
   99ccc     C1 2912   3.547   9.077   7.659 -0.8839 -0.1143  0.1908
   99ccc     C2 2913   3.458   8.973   7.581 -0.2586 -0.0355  0.5776
   99ccc     H1 2914   3.492   9.165   7.696  1.8043  1.5078  0.5719
   99ccc     H2 2915   3.376   8.939   7.645 -0.5227 -0.6062 -0.0418
   99ccc     C3 2916   3.390   9.053   7.467 -0.5446 -0.5050  0.1578
   99ccc     C4 2917   3.496   9.127   7.377 -0.1991  0.1243  0.1501
   99ccc     C5 2918   3.597   9.204   7.467 -0.5630 -0.0116 -0.3657
   99ccc     H3 2919   3.561   9.055   7.325  1.3453  1.7479 -0.2781
   99ccc     H4 2920   3.321   9.122   7.518 -1.4191 -1.3942  0.2192
   99ccc     H5 2921   3.551   9.292   7.514  1.1025 -1.0308  3.5583
   99ccc     O1 2922   3.704   9.255   7.383  0.3444  0.1888 -0.2224
   99ccc     O2 2923   3.436   9.219   7.280 -0.0313 -0.1482 -0.2236
   99ccc     O3 2924   3.310   8.965   7.388  0.3904  0.6133  0.2250
   99ccc     O4 2925   3.535   8.858   7.543 -0.0639  0.6958  0.0782
   99ccc     C6 2926   3.614   9.008   7.776  0.0748 -0.4365 -0.4263
   99ccc     H6 2927   3.247   9.016   7.335 -0.7797  1.0685  1.9702
   99ccc     H7 2928   3.468   8.801   7.501 -0.8826  1.0358  0.8735
   99ccc     H8 2929   3.420   9.158   7.206 -3.1969  0.2176  0.0417
   99ccc     H9 2930   3.691   8.937   7.745 -1.4330 -2.5555  0.4245
   99ccc    H10 2931   3.543   8.959   7.846 -2.8809 -0.5147 -3.2344
   99ccc     O5 2932   3.687   9.118   7.842 -0.0752  0.2874  0.0225
   99ccc    H11 2933   3.724   9.165   7.766  3.5336 -1.0711  0.7392
   99ccc     O6 2934   3.649   9.120   7.572 -0.1927 -0.2384  0.2478
  100ccc     C1 2935   4.069  10.338   7.186  0.2560  0.6947 -0.1234
  100ccc     C2 2936   4.165  10.406   7.288  0.2501  0.0753 -0.5833
  100ccc     H1 2937   3.973  10.388   7.202 -0.7777 -1.4156  0.6154
  100ccc     H2 2938   4.150  10.514   7.277 -0.7422  0.3626  2.5143
  100ccc     C3 2939   4.125  10.363   7.431  0.5332 -0.3439 -0.3476
  100ccc     C4 2940   4.120  10.211   7.451 -0.1522  0.0760 -0.9720
  100ccc     C5 2941   4.017  10.156   7.350  0.4434 -0.3673  0.8761
  100ccc     H3 2942   4.219  10.165   7.441 -0.6444 -1.4622  0.7899
  100ccc     H4 2943   4.024  10.402   7.446  0.8121  0.0358  0.6446
  100ccc     H5 2944   3.916  10.195   7.370  0.1429 -0.3035 -0.6097
  100ccc     O1 2945   4.013  10.012   7.356 -0.1354 -0.2949 -0.1926
  100ccc     O2 2946   4.071  10.170   7.584 -0.5135 -0.0032 -0.1554
  100ccc     O3 2947   4.213  10.422   7.526 -0.6067 -0.9338  0.1892
  100ccc     O4 2948   4.307  10.368   7.272  0.3555  0.3775  0.0232
  100ccc     C6 2949   4.116  10.348   7.046 -0.6693 -0.1082 -0.2384
  100ccc     H6 2950   4.287  10.359   7.526 -1.4140 -1.9212 -1.0381
  100ccc     H7 2951   4.351  10.407   7.349  0.8419  0.8718 -0.5034
  100ccc     H8 2952   4.117  10.217   7.656 -2.1540  0.2409  0.7773
  100ccc     H9 2953   4.190  10.270   7.023  0.6844  1.8567 -3.1543
  100ccc    H10 2954   4.176  10.439   7.033  0.9033 -1.2293 -1.1611
  100ccc     O5 2955   4.005  10.337   6.960  0.1539 -0.2007 -0.4203
  100ccc    H11 2956   3.972  10.429   6.958  0.4735  0.0682  2.3493
  100ccc     O6 2957   4.052  10.197   7.213 -0.2655  0.4069 -0.2229
  101ccc     C1 2958   4.320   7.514   6.717 -0.1436 -0.1424  0.3272
  101ccc     C2 2959   4.261   7.440   6.591 -0.1117  0.2582 -0.7808
  101ccc     H1 2960   4.265   7.471   6.802 -1.2120 -0.1832 -0.3646
  101ccc     H2 2961   4.269   7.331   6.598  2.4120  0.2577 -2.3107
  101ccc     C3 2962   4.120   7.476   6.552 -0.4302 -0.0273 -0.1054
  101ccc     C4 2963   4.115   7.634   6.551 -0.1375 -0.9982  0.0315
  101ccc     C5 2964   4.166   7.690   6.695 -0.0342 -0.0285 -0.0517
  101ccc     H3 2965   4.189   7.665   6.476  1.6829  1.6387  2.6916
  101ccc     H4 2966   4.056   7.431   6.629 -0.1845 -1.1469 -0.5326
  101ccc     H5 2967   4.114   7.631   6.771  2.8428 -1.2339  1.1404
  101ccc     O1 2968   4.155   7.838   6.715  0.0210 -0.0218 -0.1381
  101ccc     O2 2969   3.982   7.673   6.512 -0.0384 -0.0436  0.2301
  101ccc     O3 2970   4.088   7.412   6.429 -0.3002  0.0424  0.3424
  101ccc     O4 2971   4.339   7.486   6.484 -0.8686 -0.0958  0.5885
  101ccc     C6 2972   4.462   7.483   6.749 -0.4026  0.4501 -1.1346
  101ccc     H6 2973   4.164   7.436   6.374  0.8205  1.1910  2.2978
  101ccc     H7 2974   4.423   7.510   6.528 -0.0889 -0.1177 -0.8219
  101ccc     H8 2975   3.917   7.615   6.557  1.9026 -0.3264  2.8517
  101ccc     H9 2976   4.473   7.375   6.766  1.4672  0.7922  0.1645
  101ccc    H10 2977   4.493   7.540   6.837 -1.2636 -1.4300  0.4544
  101ccc     O5 2978   4.543   7.519   6.642  0.4421 -0.0918 -0.6622
  101ccc    H11 2979   4.630   7.483   6.668  1.5421  0.7474 -2.9388
  101ccc     O6 2980   4.300   7.650   6.702 -0.2427  0.1650  0.2023
  102ccc     C1 2981   3.646   8.713   7.164 -0.4621 -0.2456  0.3282
  102ccc     C2 2982   3.648   8.847   7.095  0.0639  0.1774  0.2194
  102ccc     H1 2983   3.635   8.734   7.271  1.7354  1.6870  0.2540
  102ccc     H2 2984   3.558   8.898   7.131 -0.1928 -0.9864  1.2932
  102ccc     C3 2985   3.764   8.939   7.138 -0.0487 -0.0243 -0.1667
  102ccc     C4 2986   3.902   8.865   7.104 -0.0012  0.2949 -0.8335
  102ccc     C5 2987   3.906   8.719   7.169 -0.1414 -0.1619 -0.2830
  102ccc     H3 2988   3.918   8.856   6.996  1.1549 -1.1827 -0.5696
  102ccc     H4 2989   3.765   8.941   7.248  0.1267  1.4774 -0.1667
  102ccc     H5 2990   3.927   8.719   7.277  1.7935 -0.1365 -0.6175
  102ccc     O1 2991   4.005   8.647   7.090 -0.0455  0.6244 -0.0280
  102ccc     O2 2992   4.009   8.955   7.148  0.6671 -0.0591 -0.0276
  102ccc     O3 2993   3.750   9.074   7.075  0.6595  0.1866  0.8730
  102ccc     O4 2994   3.644   8.824   6.951 -0.1612  0.1903 -0.8730
  102ccc     C6 2995   3.523   8.630   7.122  0.8334 -0.2393  0.1146
  102ccc     H6 2996   3.765   9.052   6.981  0.9567 -0.8121  1.1404
  102ccc     H7 2997   3.591   8.891   6.904  0.7522  0.4496 -1.5732
  102ccc     H8 2998   3.992   9.031   7.088 -0.9479  0.6535  1.2392
  102ccc     H9 2999   3.543   8.584   7.024  1.8014 -0.8780  0.5936
  102ccc    H10 3000   3.439   8.700   7.111 -0.0771 -1.2502  0.4961
  102ccc     O5 3001   3.507   8.538   7.225  0.2078  0.0032  0.2678
  102ccc    H11 3002   3.583   8.477   7.224  0.8587  0.7477  1.5509
  102ccc     O6 3003   3.777   8.652   7.139  0.6347  0.7838 -0.0581
  103ccc     C1 3004   4.836  10.710   6.721  1.1454 -0.0825  0.3503
  103ccc     C2 3005   4.876  10.704   6.571 -0.0365 -0.9337 -0.2503
  103ccc     H1 3006   4.820  10.816   6.745 -2.2973  0.4352 -3.2438
  103ccc     H2 3007   4.804  10.759   6.510 -0.0297  0.2715  0.7790
  103ccc     C3 3008   5.025  10.747   6.542 -0.0956 -0.3230 -0.1433
  103ccc     C4 3009   5.121  10.686   6.635 -0.4215 -0.2028 -0.5523
  103ccc     C5 3010   5.076  10.693   6.783 -0.1335 -0.1720 -0.2433
  103ccc     H3 3011   5.133  10.581   6.605  2.1408  0.0472 -0.6579
  103ccc     H4 3012   5.042  10.855   6.556  1.9354 -0.6767  0.3569
  103ccc     H5 3013   5.083  10.801   6.804  1.8570 -0.5075  1.1830
  103ccc     O1 3014   5.174  10.627   6.869 -0.2883  0.4369  0.1568
  103ccc     O2 3015   5.252  10.745   6.621  1.0722  0.1796  0.4882
  103ccc     O3 3016   5.069  10.704   6.411 -0.1965  0.0703  0.0044
  103ccc     O4 3017   4.872  10.571   6.522  0.1417  0.2732 -0.0178
  103ccc     C6 3018   4.700  10.649   6.753 -0.2656  0.3008 -0.4151
  103ccc     H6 3019   5.044  10.771   6.344  3.0198  0.5706 -0.8809
  103ccc     H7 3020   4.952  10.564   6.466  0.2207  2.2594 -0.2466
  103ccc     H8 3021   5.241  10.780   6.531 -0.0880 -1.7790 -0.2036
  103ccc     H9 3022   4.708  10.550   6.799  2.3971  0.6332  0.0475
  103ccc    H10 3023   4.633  10.656   6.667 -0.2962  1.4174 -0.3166
  103ccc     O5 3024   4.638  10.731   6.855  0.2688  0.5172  0.1164
  103ccc    H11 3025   4.595  10.801   6.802 -0.7314 -0.1554  0.0177
  103ccc     O6 3026   4.941  10.638   6.796 -0.5880 -0.4260  0.0635
  104ccc     C1 3027   5.532  11.232   7.745 -0.8362  0.7428 -0.7254
  104ccc     C2 3028   5.416  11.335   7.728  0.2726  0.3679  0.5275
  104ccc     H1 3029   5.618  11.264   7.685 -0.7875  0.2070 -0.9439
  104ccc     H2 3030   5.454  11.434   7.755 -1.5027  0.9968  0.8397
  104ccc     C3 3031   5.369  11.352   7.573 -0.0256 -0.4774  0.3236
  104ccc     C4 3032   5.340  11.214   7.514  1.1907  0.3234 -0.0337
  104ccc     C5 3033   5.458  11.110   7.546  0.5148 -0.1099 -0.2183
  104ccc     H3 3034   5.251  11.176   7.565  1.1861  1.0109  0.4912
  104ccc     H4 3035   5.442  11.390   7.501  1.5528  0.7955  2.4625
  104ccc     H5 3036   5.545  11.138   7.485  1.5339 -1.2036  0.6751
  104ccc     O1 3037   5.405  10.980   7.511 -0.4668  0.2931  0.0169
  104ccc     O2 3038   5.313  11.230   7.368 -0.1633 -0.0099  0.2312
  104ccc     O3 3039   5.251  11.442   7.566 -0.2438 -0.2400  0.1016
  104ccc     O4 3040   5.306  11.309   7.814  0.0205 -0.2783 -0.7823
  104ccc     C6 3041   5.579  11.210   7.897 -0.2224  0.2731 -0.8539
  104ccc     H6 3042   5.253  11.491   7.482  1.7640 -0.4981 -0.0554
  104ccc     H7 3043   5.270  11.397   7.835  2.1858  0.4055  0.3395
  104ccc     H8 3044   5.221  11.259   7.365 -0.5315 -1.1737 -0.3108
  104ccc     H9 3045   5.615  11.302   7.944 -0.2221 -0.4589  0.6167
  104ccc    H10 3046   5.654  11.131   7.891 -0.1736  0.2080  0.4082
  104ccc     O5 3047   5.462  11.162   7.965 -0.5277 -0.1141 -0.2745
  104ccc    H11 3048   5.398  11.215   7.915 -2.8968 -1.5161  1.0704
  104ccc     O6 3049   5.492  11.104   7.685  0.2757 -0.1163 -0.4288
  105ccc     C1 3050   4.498  10.670   7.743  0.1464 -0.2740 -0.3302
  105ccc     C2 3051   4.546  10.791   7.668 -0.3091  0.2291 -0.5690
  105ccc     H1 3052   4.410  10.702   7.800  1.8314 -0.9289  2.8984
  105ccc     H2 3053   4.465  10.826   7.602 -0.2929 -0.2514 -0.8525
  105ccc     C3 3054   4.584  10.905   7.765  0.2987 -0.1876  0.1515
  105ccc     C4 3055   4.673  10.857   7.882 -0.4077  0.1196  0.5472
  105ccc     C5 3056   4.607  10.732   7.947 -0.3974 -0.2606 -0.0886
  105ccc     H3 3057   4.772  10.831   7.841  0.5527 -1.1550  3.3760
  105ccc     H4 3058   4.492  10.938   7.816 -0.4483 -1.5905 -0.2282
  105ccc     H5 3059   4.511  10.760   7.993  0.0363  0.2554  0.5326
  105ccc     O1 3060   4.694  10.685   8.052  0.2825 -0.1848  0.0294
  105ccc     O2 3061   4.682  10.962   7.981 -0.1234 -0.0415  0.0593
  105ccc     O3 3062   4.643  11.017   7.707 -0.3080 -0.5877  0.2057
  105ccc     O4 3063   4.656  10.756   7.582 -0.2272  0.7457 -0.1335
  105ccc     C6 3064   4.464  10.558   7.653  0.3564 -0.1563 -0.1940
  105ccc     H6 3065   4.681  11.060   7.786 -1.5235 -0.6461  0.8499
  105ccc     H7 3066   4.660  10.830   7.519 -0.8613  1.0072  0.1134
  105ccc     H8 3067   4.743  10.940   8.054  1.1326  0.0458 -0.9394
  105ccc     H9 3068   4.412  10.598   7.565  0.7478 -1.3443 -0.9851
  105ccc    H10 3069   4.392  10.490   7.701 -0.4291  0.1949 -0.8440
  105ccc     O5 3070   4.586  10.492   7.623  0.1071 -0.4385  0.9991
  105ccc    H11 3071   4.638  10.572   7.602  2.5706 -2.0619  0.5859
  105ccc     O6 3072   4.592  10.629   7.852 -0.2177 -0.0705  0.2902
  106ccc     C1 3073   5.597  10.530   8.209  0.0322 -0.2709 -0.4235
  106ccc     C2 3074   5.605  10.669   8.137 -0.0579  0.5032 -0.5447
  106ccc     H1 3075   5.685  10.469   8.187  0.8071  0.8377 -0.4602
  106ccc     H2 3076   5.701  10.712   8.166 -0.7117  0.6329  1.6415
  106ccc     C3 3077   5.594  10.657   7.984 -0.0417 -0.3320 -0.3491
  106ccc     C4 3078   5.481  10.559   7.927 -0.6340 -0.1807  0.1415
  106ccc     C5 3079   5.464  10.435   8.022 -0.1446 -0.0680 -0.1914
  106ccc     H3 3080   5.390  10.619   7.914 -2.2725 -1.8922  2.7915
  106ccc     H4 3081   5.689  10.603   7.968  0.7420  0.7602  0.4111
  106ccc     H5 3082   5.540  10.358   7.999 -0.0131 -0.0013  0.0156
  106ccc     O1 3083   5.328  10.388   8.002  0.4673 -0.6215 -0.0246
  106ccc     O2 3084   5.519  10.508   7.795  0.2156  0.8061 -0.1086
  106ccc     O3 3085   5.600  10.786   7.920 -0.2882 -0.0680 -0.4016
  106ccc     O4 3086   5.500  10.754   8.185 -0.2058  0.0846 -0.5686
  106ccc     C6 3087   5.595  10.543   8.359 -0.7331  0.1150  0.3375
  106ccc     H6 3088   5.512  10.826   7.932 -0.4060 -1.0183  3.3351
  106ccc     H7 3089   5.537  10.844   8.188 -0.3421  0.1274 -0.0892
  106ccc     H8 3090   5.448  10.449   7.765  1.3238 -0.0954 -1.0878
  106ccc     H9 3091   5.680  10.603   8.394 -1.2379  1.1524 -0.1899
  106ccc    H10 3092   5.595  10.441   8.401  2.3948  0.9799  2.8712
  106ccc     O5 3093   5.477  10.608   8.393  0.0685  0.4947 -0.0432
  106ccc    H11 3094   5.454  10.634   8.302  0.3769 -1.2200 -0.6511
  106ccc     O6 3095   5.480  10.462   8.163  0.2504 -0.3659  0.3983
  107ccc     C1 3096   5.618  10.201   9.617  0.0010 -0.3725 -0.2653
  107ccc     C2 3097   5.502  10.254   9.531 -0.8907 -0.1120 -0.4342
  107ccc     H1 3098   5.689  10.283   9.632 -0.4534  0.2168 -1.3044
  107ccc     H2 3099   5.467  10.350   9.572  2.3755  0.9694  0.1694
  107ccc     C3 3100   5.553  10.279   9.383 -0.5694  0.4385  0.0966
  107ccc     C4 3101   5.658  10.169   9.334  0.5379 -0.0411 -0.0975
  107ccc     C5 3102   5.741  10.092   9.436 -0.1214  0.2699  0.1344
  107ccc     H3 3103   5.600  10.084   9.296  1.7141 -1.1894  0.5658
  107ccc     H4 3104   5.607  10.375   9.379 -0.0653  0.2183  1.2536
  107ccc     H5 3105   5.828  10.159   9.438 -0.2873  0.4748  1.8382
  107ccc     O1 3106   5.766   9.954   9.386 -0.0560 -0.4841  0.0449
  107ccc     O2 3107   5.739  10.222   9.224 -0.9778 -0.2400 -0.1483
  107ccc     O3 3108   5.450  10.293   9.288  0.2433  0.2417 -0.0157
  107ccc     O4 3109   5.389  10.170   9.541  0.2134 -0.6400 -0.7644
  107ccc     C6 3110   5.565  10.164   9.758  0.0147  0.5412  0.1364
  107ccc     H6 3111   5.490  10.285   9.200  2.8620 -1.7111  1.2056
  107ccc     H7 3112   5.310  10.223   9.521  1.2221  0.1730 -2.7640
  107ccc     H8 3113   5.683  10.252   9.149 -0.9263 -1.1573 -0.5694
  107ccc     H9 3114   5.473  10.109   9.737  0.1443  0.8141 -1.2968
  107ccc    H10 3115   5.543  10.257   9.812 -0.1441  0.7355 -0.2539
  107ccc     O5 3116   5.668  10.096   9.829 -0.4072  0.1641 -0.3516
  107ccc    H11 3117   5.627  10.038   9.896 -0.3000  1.0604  0.5228
  107ccc     O6 3118   5.671  10.081   9.554 -0.7220  0.1600 -0.3824
  108ccc     C1 3119   6.524   9.742   8.616 -0.3142  0.0671 -0.0630
  108ccc     C2 3120   6.659   9.691   8.678  0.2879  0.6840 -0.5740
  108ccc     H1 3121   6.527   9.852   8.608 -2.9226  0.1055 -1.4779
  108ccc     H2 3122   6.743   9.734   8.622  1.7213 -0.1335  0.8753
  108ccc     C3 3123   6.669   9.751   8.827 -0.3266 -0.0076  0.7595
  108ccc     C4 3124   6.541   9.720   8.913 -0.2847  0.1600 -0.0767
  108ccc     C5 3125   6.407   9.747   8.837 -0.4151 -0.3152 -0.2408
  108ccc     H3 3126   6.544   9.613   8.936 -1.3344 -0.1868 -1.4160
  108ccc     H4 3127   6.666   9.858   8.803 -0.8758 -0.2856 -0.5089
  108ccc     H5 3128   6.378   9.853   8.841  2.9455  0.7147  0.5538
  108ccc     O1 3129   6.311   9.663   8.903 -0.9126 -0.1508 -0.0975
  108ccc     O2 3130   6.541   9.787   9.035 -0.1067  0.0775 -0.3195
  108ccc     O3 3131   6.793   9.728   8.897 -0.2204  0.4124 -0.6756
  108ccc     O4 3132   6.661   9.548   8.688  0.3893  0.2232 -0.3361
  108ccc     C6 3133   6.509   9.676   8.481  0.2600  0.1210 -0.3585
  108ccc     H6 3134   6.839   9.814   8.893 -2.7229  1.8861 -0.0896
  108ccc     H7 3135   6.757   9.537   8.697  0.4651  0.4518 -0.8532
  108ccc     H8 3136   6.474   9.738   9.086  1.2982 -0.0527  1.5094
  108ccc     H9 3137   6.514   9.568   8.496  0.9939  0.1331 -0.4720
  108ccc    H10 3138   6.594   9.700   8.416  1.0498 -1.4604  0.0530
  108ccc     O5 3139   6.389   9.719   8.420  0.5559  0.0631 -0.5221
  108ccc    H11 3140   6.314   9.683   8.471  1.0243  1.0683  0.9212
  108ccc     O6 3141   6.419   9.697   8.703  0.3023  0.8736  0.2857
  109ccc     C1 3142   6.455   9.658   7.976 -0.4617 -0.6947 -0.5174
  109ccc     C2 3143   6.493   9.507   7.992  0.3920  1.1775 -0.2982
  109ccc     H1 3144   6.523   9.709   8.044  2.4585 -2.1015 -2.2022
  109ccc     H2 3145   6.603   9.502   7.988  0.3489 -0.3132 -0.2527
  109ccc     C3 3146   6.433   9.443   8.120  0.0594  0.0709 -0.4160
  109ccc     C4 3147   6.282   9.473   8.138  0.2824  0.2006 -0.2714
  109ccc     C5 3148   6.258   9.626   8.119  0.1066  0.0858 -0.2530
  109ccc     H3 3149   6.223   9.425   8.060 -0.9258  0.4182  0.4813
  109ccc     H4 3150   6.491   9.492   8.198  1.8684 -0.2001 -1.5392
  109ccc     H5 3151   6.293   9.684   8.205 -0.4882  0.6263 -0.3673
  109ccc     O1 3152   6.117   9.643   8.105  0.3776 -0.0080 -0.1188
  109ccc     O2 3153   6.247   9.427   8.268  0.6203 -0.2492  0.1023
  109ccc     O3 3154   6.455   9.296   8.136 -0.0133 -0.2241 -0.2349
  109ccc     O4 3155   6.434   9.433   7.875  0.4524 -0.2039 -0.1918
  109ccc     C6 3156   6.507   9.718   7.844 -0.1971 -0.5226  0.0459
  109ccc     H6 3157   6.550   9.273   8.131  0.0860  0.3986 -2.3833
  109ccc     H7 3158   6.495   9.363   7.846 -0.6284 -0.9160 -0.8189
  109ccc     H8 3159   6.306   9.353   8.290  0.3145 -0.2078  1.1036
  109ccc     H9 3160   6.471   9.667   7.754  1.7578  1.1102 -1.7402
  109ccc    H10 3161   6.617   9.715   7.843 -0.1231  0.5626  1.6749
  109ccc     O5 3162   6.467   9.857   7.853  0.1220 -0.4179 -0.1116
  109ccc    H11 3163   6.533   9.913   7.810 -1.1618  1.4050  0.1539
  109ccc     O6 3164   6.315   9.677   7.995  0.1452  0.5863  0.4397
  110ccc     C1 3165   5.960   9.167   8.881  0.2843  0.1304  0.2879
  110ccc     C2 3166   6.117   9.150   8.889  0.0451  0.2306  0.7269
  110ccc     H1 3167   5.918   9.087   8.820 -0.8114 -1.3854  2.8468
  110ccc     H2 3168   6.134   9.048   8.927  1.5023  0.3695  0.5040
  110ccc     C3 3169   6.171   9.162   8.746 -0.5851  0.2684 -0.2410
  110ccc     C4 3170   6.124   9.303   8.686  0.0546  0.2123  0.6049
  110ccc     C5 3171   5.973   9.317   8.689 -0.1665 -0.2223  0.2240
  110ccc     H3 3172   6.167   9.379   8.753 -2.0771 -0.4883  2.9550
  110ccc     H4 3173   6.130   9.084   8.680 -0.4370  0.6416 -0.7854
  110ccc     H5 3174   5.929   9.235   8.632  0.4460  0.0379 -0.6518
  110ccc     O1 3175   5.940   9.443   8.632  0.1743  0.4246 -0.1497
  110ccc     O2 3176   6.164   9.315   8.546 -0.2651  0.1986 -0.3397
  110ccc     O3 3177   6.320   9.155   8.747  0.8193 -0.5458 -0.4130
  110ccc     O4 3178   6.165   9.243   8.980 -0.0696  0.6454  0.3432
  110ccc     C6 3179   5.879   9.139   9.017 -0.4714  0.1403  0.4114
  110ccc     H6 3180   6.360   9.243   8.734 -2.0517  0.9932  0.3407
  110ccc     H7 3181   6.097   9.235   9.050 -0.2410 -0.6089  0.0495
  110ccc     H8 3182   6.254   9.280   8.535  0.0644  1.6055 -2.9246
  110ccc     H9 3183   5.881   9.032   9.043 -0.2165  0.0610  0.0757
  110ccc    H10 3184   5.775   9.174   9.013 -0.9276 -1.1683  0.2357
  110ccc     O5 3185   5.944   9.214   9.122 -0.6306  0.7657  0.1915
  110ccc    H11 3186   5.886   9.223   9.199 -0.2372 -0.4663  0.6475
  110ccc     O6 3187   5.936   9.299   8.827  0.0836 -0.0706  0.4610
  111ccc     C1 3188   2.798   6.492   5.591 -0.0688  0.7107  0.0197
  111ccc     C2 3189   2.713   6.388   5.524 -0.1703 -0.2255 -0.1065
  111ccc     H1 3190   2.864   6.428   5.651 -0.6273 -2.3017 -2.2937
  111ccc     H2 3191   2.783   6.316   5.479  0.9077  0.6028  0.2050
  111ccc     C3 3192   2.616   6.322   5.623  0.0437 -0.0535 -0.0416
  111ccc     C4 3193   2.559   6.419   5.740  0.0122 -0.1679  0.2158
  111ccc     C5 3194   2.657   6.523   5.787  0.2102  0.3033  0.4435
  111ccc     H3 3195   2.477   6.471   5.690  0.1888 -0.2292 -0.1378
  111ccc     H4 3196   2.671   6.245   5.677  1.4997  0.4517 -0.7596
  111ccc     H5 3197   2.732   6.472   5.849 -1.3316 -1.9907  0.5371
  111ccc     O1 3198   2.580   6.623   5.860 -0.2350  0.3141 -0.0532
  111ccc     O2 3199   2.504   6.338   5.850 -0.1612 -0.1814  0.4879
  111ccc     O3 3200   2.504   6.271   5.551  0.7086  0.1623 -0.6521
  111ccc     O4 3201   2.632   6.462   5.428  0.3106  0.0860  0.4895
  111ccc     C6 3202   2.884   6.571   5.489 -0.0305  0.3074 -0.1677
  111ccc     H6 3203   2.526   6.184   5.513 -1.8416 -0.1546 -1.6305
  111ccc     H7 3204   2.556   6.401   5.421 -0.2604  0.9301 -1.1879
  111ccc     H8 3205   2.581   6.296   5.893  0.6122  0.3970 -0.2784
  111ccc     H9 3206   2.827   6.604   5.401 -0.1445  0.0059 -0.2090
  111ccc    H10 3207   2.955   6.495   5.454 -1.2258 -0.4490 -1.0414
  111ccc     O5 3208   2.949   6.676   5.558 -0.4090  0.6357  0.7461
  111ccc    H11 3209   2.883   6.746   5.546  0.6114  1.3726 -1.1102
  111ccc     O6 3210   2.721   6.583   5.670  0.3565 -0.2042  0.5778
  112ccc     C1 3211   2.450   7.560   6.156 -0.5007  0.1052 -0.0584
  112ccc     C2 3212   2.410   7.676   6.243 -0.3462  0.8655  0.3806
  112ccc     H1 3213   2.364   7.520   6.102 -0.4171 -1.9648  1.2438
  112ccc     H2 3214   2.347   7.749   6.191 -2.4125 -1.2263 -0.2397
  112ccc     C3 3215   2.329   7.620   6.358  0.1675  0.7435  0.6998
  112ccc     C4 3216   2.407   7.505   6.440 -0.1122 -0.6987  0.1036
  112ccc     C5 3217   2.439   7.393   6.341 -0.1997  0.4457 -0.2215
  112ccc     H3 3218   2.496   7.554   6.480 -0.7051 -0.2596  0.9018
  112ccc     H4 3219   2.243   7.572   6.310 -0.3297 -0.4116  2.6210
  112ccc     H5 3220   2.351   7.340   6.302  0.0456  0.7407 -1.1877
  112ccc     O1 3221   2.530   7.300   6.411  0.2285 -0.2982 -0.1492
  112ccc     O2 3222   2.323   7.453   6.546 -0.2721 -0.7398  0.0289
  112ccc     O3 3223   2.268   7.719   6.444 -0.0419 -0.0405 -0.1142
  112ccc     O4 3224   2.529   7.738   6.288 -0.1844  0.4374  0.8479
  112ccc     C6 3225   2.546   7.612   6.043 -0.5891  0.5449  0.2639
  112ccc     H6 3226   2.230   7.689   6.528 -0.0539  1.9030  0.6293
  112ccc     H7 3227   2.567   7.810   6.236  1.4608 -0.0120  1.3517
  112ccc     H8 3228   2.246   7.511   6.558 -0.4922 -1.1989  0.9658
  112ccc     H9 3229   2.646   7.632   6.083  0.1997  3.8905 -2.8314
  112ccc    H10 3230   2.512   7.710   6.006  0.5076  2.0478  2.9251
  112ccc     O5 3231   2.547   7.509   5.946  0.5111  0.2075  0.1771
  112ccc    H11 3232   2.457   7.494   5.912  0.7613 -3.0940  0.6735
  112ccc     O6 3233   2.517   7.460   6.236 -1.1392  0.5312 -0.1861
  113ccc     C1 3234   0.920   6.290   7.108  0.1188  0.2272  0.6912
  113ccc     C2 3235   0.992   6.223   7.225  0.2310 -0.5069  0.0914
  113ccc     H1 3236   0.828   6.236   7.087  0.1429  0.3586  0.2446
  113ccc     H2 3237   0.915   6.228   7.304 -1.2410 -1.4197 -1.2365
  113ccc     C3 3238   1.033   6.084   7.185 -0.6025 -0.2431  0.3267
  113ccc     C4 3239   1.129   6.092   7.062 -0.2138 -0.0261 -0.6688
  113ccc     C5 3240   1.068   6.172   6.945  0.0925  0.0049 -0.0815
  113ccc     H3 3241   1.220   6.141   7.096 -0.3462 -0.2492  0.0161
  113ccc     H4 3242   0.940   6.036   7.151 -1.1212  0.5690  0.5848
  113ccc     H5 3243   0.993   6.108   6.898 -0.5407 -0.9801  2.1490
  113ccc     O1 3244   1.182   6.199   6.859 -0.0804 -0.4740  0.0449
  113ccc     O2 3245   1.157   5.952   7.020 -0.1193  0.5789  0.0442
  113ccc     O3 3246   1.089   6.006   7.292  0.2523  0.5022 -0.1837
  113ccc     O4 3247   1.114   6.298   7.254 -0.4913 -0.1986 -0.1993
  113ccc     C6 3248   0.872   6.430   7.138  0.1505  0.9612 -0.2847
  113ccc     H6 3249   1.174   6.045   7.316  0.2182  0.7889 -0.5199
  113ccc     H7 3250   1.122   6.280   7.350  0.4598  0.9388 -0.0478
  113ccc     H8 3251   1.210   5.913   7.092 -1.8880 -0.0637  1.0512
  113ccc     H9 3252   0.954   6.502   7.129  1.3005 -0.1388  0.8207
  113ccc    H10 3253   0.841   6.443   7.242  0.4939  1.0146 -0.1862
  113ccc     O5 3254   0.764   6.457   7.050 -0.1147 -0.6219 -0.1774
  113ccc    H11 3255   0.743   6.551   7.065 -2.8466 -0.8362 -1.9584
  113ccc     O6 3256   1.014   6.294   6.991  0.3467 -0.1468  0.5470
  114ccc     C1 3257   1.680   6.775   6.096 -0.7240  0.1774 -0.2056
  114ccc     C2 3258   1.643   6.925   6.113 -0.5727  0.0506 -0.3216
  114ccc     H1 3259   1.604   6.724   6.036 -0.8686 -1.3130  1.1718
  114ccc     H2 3260   1.607   6.956   6.014  1.5701 -1.6469 -1.7214
  114ccc     C3 3261   1.518   6.950   6.214  0.1345  1.2320  0.7127
  114ccc     C4 3262   1.535   6.870   6.342 -0.3856  0.1172  0.1452
  114ccc     C5 3263   1.570   6.724   6.301 -0.2527  0.7206 -0.6793
  114ccc     H3 3264   1.626   6.910   6.389 -0.0740 -0.2174 -0.1723
  114ccc     H4 3265   1.432   6.910   6.160  0.9435  1.3509 -0.7286
  114ccc     H5 3266   1.491   6.687   6.235  0.6992 -0.2759 -1.3003
  114ccc     O1 3267   1.588   6.639   6.416 -0.3062 -0.2816  0.1724
  114ccc     O2 3268   1.415   6.885   6.427 -1.0462  0.4919 -0.5566
  114ccc     O3 3269   1.504   7.094   6.223 -0.1974  0.2712 -0.0782
  114ccc     O4 3270   1.747   7.008   6.167 -0.4632 -0.1757 -0.2144
  114ccc     C6 3271   1.811   6.758   6.018 -0.5715 -0.3819  0.0982
  114ccc     H6 3272   1.438   7.097   6.295  0.2359  0.0596  0.3387
  114ccc     H7 3273   1.683   7.060   6.217 -0.9500 -0.7035 -0.2828
  114ccc     H8 3274   1.401   6.975   6.460 -0.7891  1.3608 -2.6685
  114ccc     H9 3275   1.895   6.806   6.070 -0.8049  1.0813 -0.8338
  114ccc    H10 3276   1.805   6.795   5.915 -2.6832 -2.0446 -0.4368
  114ccc     O5 3277   1.823   6.619   6.013 -0.3979  0.2752 -0.0023
  114ccc    H11 3278   1.898   6.598   5.955  0.9998  1.5829  1.2109
  114ccc     O6 3279   1.686   6.706   6.219 -0.0185  0.1675 -0.4534
  115ccc     C1 3280   3.005   8.615   7.526 -0.1766  0.1400  0.4436
  115ccc     C2 3281   3.135   8.690   7.510  0.0254 -0.7616  0.0732
  115ccc     H1 3282   3.022   8.540   7.605 -2.3858 -3.0242 -1.8609
  115ccc     H2 3283   3.162   8.724   7.611 -1.0865 -0.1959  0.1939
  115ccc     C3 3284   3.244   8.586   7.455 -0.0104  0.3015 -0.1486
  115ccc     C4 3285   3.198   8.515   7.327 -0.1413  0.1997  0.1347
  115ccc     C5 3286   3.050   8.464   7.337  0.2193 -0.8197 -0.4337
  115ccc     H3 3287   3.194   8.590   7.247 -1.2027 -0.8463 -0.8420
  115ccc     H4 3288   3.249   8.505   7.528 -0.9450 -2.1509 -2.6223
  115ccc     H5 3289   3.035   8.368   7.389 -2.8943 -0.7511 -1.0415
  115ccc     O1 3290   2.993   8.439   7.204  0.6001 -0.3168 -0.2694
  115ccc     O2 3291   3.288   8.417   7.291  0.3249  0.2270  0.2544
  115ccc     O3 3292   3.379   8.645   7.441 -0.0327  0.4409  0.3291
  115ccc     O4 3293   3.118   8.799   7.422  0.2053 -0.2564  0.3306
  115ccc     C6 3294   2.891   8.710   7.574 -0.3011  0.3360 -0.8357
  115ccc     H6 3295   3.425   8.596   7.371 -1.2456 -1.3848  0.7659
  115ccc     H7 3296   3.201   8.849   7.418  0.3886 -0.1081  3.4635
  115ccc     H8 3297   3.372   8.461   7.265  0.9843 -1.8057 -1.2925
  115ccc     H9 3298   2.838   8.750   7.487 -1.1645 -2.1557 -1.5437
  115ccc    H10 3299   2.935   8.784   7.641  1.3391 -1.5408  0.2618
  115ccc     O5 3300   2.807   8.616   7.646 -0.9830 -0.5057  0.5264
  115ccc    H11 3301   2.780   8.551   7.579  0.4644  1.2428 -1.8852
  115ccc     O6 3302   2.968   8.562   7.396  0.5805 -0.1961 -0.0932
  116ccc     C1 3303   3.269   8.983   6.860 -0.1850 -0.1953 -0.5303
  116ccc     C2 3304   3.251   9.054   6.993  0.4239 -0.6581 -0.2621
  116ccc     H1 3305   3.176   8.983   6.800  1.0485  1.4814 -2.5935
  116ccc     H2 3306   3.218   9.157   6.978  0.9295 -0.2578  1.1782
  116ccc     C3 3307   3.143   8.988   7.086 -0.0557  0.2989 -0.5031
  116ccc     C4 3308   3.173   8.839   7.094  0.1051 -0.0968 -0.0133
  116ccc     C5 3309   3.193   8.777   6.955  0.4224  0.3302  0.2808
  116ccc     H3 3310   3.262   8.816   7.154 -0.0697  1.3219  0.8143
  116ccc     H4 3311   3.040   8.997   7.047 -0.0794  2.0965 -0.0994
  116ccc     H5 3312   3.103   8.797   6.896 -0.4401 -0.0086  1.4408
  116ccc     O1 3313   3.223   8.638   6.976  0.3147  0.1705 -0.9918
  116ccc     O2 3314   3.050   8.780   7.162 -0.7059  0.1770 -0.2247
  116ccc     O3 3315   3.141   9.044   7.224 -0.4083  0.1477 -0.4163
  116ccc     O4 3316   3.375   9.050   7.060 -0.3375 -0.7635 -0.6477
  116ccc     C6 3317   3.369   9.050   6.761 -0.0526 -0.2917 -0.0679
  116ccc     H6 3318   3.097   9.131   7.219 -1.6404 -0.4758 -0.7502
  116ccc     H7 3319   3.436   9.054   6.984 -0.4201 -2.1505 -0.7942
  116ccc     H8 3320   3.064   8.796   7.257  0.5060  3.6028 -0.8564
  116ccc     H9 3321   3.354   9.158   6.748 -1.8157 -0.6748 -1.7332
  116ccc    H10 3322   3.376   9.007   6.660  0.9625 -0.6634  0.1441
  116ccc     O5 3323   3.498   9.036   6.831  0.0864  0.2178 -0.1606
  116ccc    H11 3324   3.560   9.099   6.790  1.1959 -0.8474 -0.1923
  116ccc     O6 3325   3.306   8.845   6.884  0.0445 -0.0031 -0.1139
  117ccc     C1 3326   3.997   7.006   6.823 -0.3376  0.2829  0.3053
  117ccc     C2 3327   4.097   6.973   6.712 -0.1477 -0.6602 -0.5856
  117ccc     H1 3328   3.986   6.910   6.875  1.4517  0.6344  1.4155
  117ccc     H2 3329   4.196   6.950   6.752  1.0408 -0.5712 -3.3139
  117ccc     C3 3330   4.036   6.857   6.628 -0.6028 -0.0139 -0.3142
  117ccc     C4 3331   3.897   6.895   6.578  1.0448 -0.4966 -0.3789
  117ccc     C5 3332   3.805   6.951   6.691  0.3664 -0.3151 -0.1637
  117ccc     H3 3333   3.903   6.974   6.503  0.1703  0.0880  0.1410
  117ccc     H4 3334   4.019   6.774   6.697  0.7527  0.0137  0.0834
  117ccc     H5 3335   3.762   6.873   6.754  0.9014 -1.2407 -0.9191
  117ccc     O1 3336   3.694   7.022   6.632  0.1988 -0.3368  0.2868
  117ccc     O2 3337   3.839   6.781   6.518 -0.2478  0.5001 -0.0328
  117ccc     O3 3338   4.139   6.819   6.521  0.4177 -0.6433  0.3843
  117ccc     O4 3339   4.104   7.097   6.642 -0.4892  0.3582 -0.0206
  117ccc     C6 3340   4.045   7.101   6.932 -0.1382 -0.6560  0.3117
  117ccc     H6 3341   4.222   6.829   6.569 -0.4712  2.1327  1.5463
  117ccc     H7 3342   4.169   7.075   6.573  0.1289  1.6846  0.1040
  117ccc     H8 3343   3.896   6.759   6.441  0.6981  0.7969  0.5670
  117ccc     H9 3344   4.125   7.060   6.994  0.4939  1.1547  0.7527
  117ccc    H10 3345   3.955   7.116   6.994 -0.1385 -3.8339  1.2626
  117ccc     O5 3346   4.083   7.227   6.868 -0.4289  0.0258  0.0264
  117ccc    H11 3347   4.083   7.203   6.774 -1.0698  0.1679 -0.0188
  117ccc     O6 3348   3.873   7.044   6.769 -0.2641 -0.3315  0.1826
  118ccc     C1 3349   3.836   7.508   5.926 -0.1970  0.1294  0.2690
  118ccc     C2 3350   3.954   7.570   6.011  0.4160 -0.3580  0.1828
  118ccc     H1 3351   3.774   7.592   5.892 -0.3569 -0.5693 -1.2468
  118ccc     H2 3352   4.005   7.643   5.947  1.1072 -0.9645  0.0306
  118ccc     C3 3353   3.903   7.642   6.140 -0.3507  0.2425  0.0854
  118ccc     C4 3354   3.816   7.549   6.227  0.1373  0.0155 -0.3664
  118ccc     C5 3355   3.706   7.479   6.137  0.1676  0.1169 -1.1401
  118ccc     H3 3356   3.869   7.465   6.274  0.8055  1.3128  1.2987
  118ccc     H4 3357   3.853   7.733   6.105  2.0684  0.5068 -3.1294
  118ccc     H5 3358   3.628   7.554   6.117  0.7744  1.2611  0.5590
  118ccc     O1 3359   3.666   7.367   6.217 -0.2895 -0.3053  0.1253
  118ccc     O2 3360   3.753   7.627   6.336 -0.4462  0.6022  0.2485
  118ccc     O3 3361   4.023   7.674   6.217 -0.2787 -0.0225 -0.0831
  118ccc     O4 3362   4.045   7.470   6.052  0.3873  0.0268 -0.6473
  118ccc     C6 3363   3.897   7.431   5.809  0.0051  0.4936  0.1100
  118ccc     H6 3364   3.989   7.683   6.308  0.8611  0.4794  0.3095
  118ccc     H7 3365   4.084   7.511   6.131  0.5556  0.8003 -1.1287
  118ccc     H8 3366   3.668   7.587   6.361 -0.6839  0.9729  0.0273
  118ccc     H9 3367   3.929   7.334   5.847 -0.0836 -0.2527 -1.6207
  118ccc    H10 3368   3.983   7.483   5.763  3.2969 -3.8478  0.6794
  118ccc     O5 3369   3.796   7.406   5.717 -0.6040  0.2934 -0.0065
  118ccc    H11 3370   3.736   7.337   5.751 -3.3258  1.5115 -1.8903
  118ccc     O6 3371   3.765   7.420   6.014  0.5478  0.4177  0.3357
  119ccc     C1 3372   2.698   8.957   6.781  0.7836 -0.0709  0.1535
  119ccc     C2 3373   2.577   9.038   6.714  0.5772 -0.1549 -0.5157
  119ccc     H1 3374   2.689   8.849   6.761 -0.6820 -0.0570  0.6359
  119ccc     H2 3375   2.554   9.007   6.612 -1.1269  1.7055 -0.7586
  119ccc     C3 3376   2.448   9.012   6.792  0.1068 -0.2994 -0.3756
  119ccc     C4 3377   2.463   9.039   6.943  0.4371 -0.0359 -0.2269
  119ccc     C5 3378   2.586   8.961   7.008 -0.0814 -0.5162 -0.2757
  119ccc     H3 3379   2.477   9.146   6.963  1.2334 -0.2089  0.1786
  119ccc     H4 3380   2.428   8.906   6.775  0.6268 -0.4426 -0.1217
  119ccc     H5 3381   2.560   8.854   7.011  1.8400 -1.0305 -0.7427
  119ccc     O1 3382   2.612   9.010   7.142 -0.3249  0.4294 -0.0350
  119ccc     O2 3383   2.340   8.993   7.006 -0.1283  0.0592  0.2378
  119ccc     O3 3384   2.341   9.096   6.737 -0.5554  0.1609  0.1677
  119ccc     O4 3385   2.587   9.182   6.717 -0.1877 -0.1366 -0.2393
  119ccc     C6 3386   2.831   9.019   6.729 -0.1471  0.7128  0.0959
  119ccc     H6 3387   2.281   9.025   6.709  1.4257 -0.8679 -1.8066
  119ccc     H7 3388   2.494   9.204   6.700  0.1296  2.8960  1.1628
  119ccc     H8 3389   2.334   9.056   7.080  1.7813  1.5989 -0.8093
  119ccc     H9 3390   2.857   9.108   6.788  1.0136 -0.2593  1.1205
  119ccc    H10 3391   2.816   9.049   6.625 -0.4810 -0.3641 -0.1770
  119ccc     O5 3392   2.929   8.912   6.741 -0.4770 -0.1728 -0.4859
  119ccc    H11 3393   3.000   8.934   6.679 -0.4047 -1.3863 -0.8395
  119ccc     O6 3394   2.704   8.982   6.926  0.2468  0.4314 -0.0561
  120ccc     C1 3395   2.166   9.749   7.741  0.0011  0.7054  0.1332
  120ccc     C2 3396   2.037   9.728   7.667  0.2660 -0.2177  0.3651
  120ccc     H1 3397   2.211   9.838   7.697  1.0826  0.4974  0.7697
  120ccc     H2 3398   1.975   9.817   7.684  1.4904  1.2748 -2.3413
  120ccc     C3 3399   2.054   9.701   7.513 -0.0251  0.1445 -0.3696
  120ccc     C4 3400   2.148   9.583   7.484 -0.8865  0.3369 -0.2052
  120ccc     C5 3401   2.277   9.600   7.568 -0.7306 -0.3399 -1.0770
  120ccc     H3 3402   2.102   9.487   7.513  1.6367 -0.8735  0.0307
  120ccc     H4 3403   2.096   9.797   7.479 -1.2421  1.2139  1.0159
  120ccc     H5 3404   2.330   9.687   7.528  0.1596  0.8695  2.3232
  120ccc     O1 3405   2.361   9.479   7.570  0.2628 -0.1715 -0.1208
  120ccc     O2 3406   2.191   9.583   7.345  0.3122 -0.6001  0.8092
  120ccc     O3 3407   1.929   9.685   7.447  0.0212  0.2353 -0.2946
  120ccc     O4 3408   1.972   9.610   7.719  0.2541  0.1494 -0.1498
  120ccc     C6 3409   2.151   9.769   7.896 -0.0052  0.1770 -0.3855
  120ccc     H6 3410   1.866   9.751   7.480  0.8390  1.0103 -0.2516
  120ccc     H7 3411   2.006   9.614   7.810  1.4833 -2.4623 -0.4097
  120ccc     H8 3412   2.107   9.585   7.297 -0.1824 -2.1419  1.5573
  120ccc     H9 3413   2.117   9.870   7.921  0.5464  0.2562  0.0754
  120ccc    H10 3414   2.245   9.755   7.951 -1.7201  1.2462  3.1137
  120ccc     O5 3415   2.054   9.681   7.954 -0.2712 -0.7794 -0.1426
  120ccc    H11 3416   2.043   9.686   8.050 -0.9378 -1.0749 -0.2050
  120ccc     O6 3417   2.253   9.629   7.709 -0.7341  0.2271 -1.2396
  121ccc     C1 3418   1.871   8.755   7.211 -0.0506 -0.2285  0.1798
  121ccc     C2 3419   1.990   8.663   7.207 -0.1115 -0.1669  0.4848
  121ccc     H1 3420   1.787   8.698   7.170 -0.9387 -0.0993  1.7220
  121ccc     H2 3421   1.962   8.572   7.261 -0.2491 -0.8504 -0.6893
  121ccc     C3 3422   2.028   8.611   7.065  0.1102 -0.1205  1.0807
  121ccc     C4 3423   2.023   8.725   6.959 -0.7169 -0.4369  0.2740
  121ccc     C5 3424   1.897   8.814   6.973  0.0934 -0.1038  0.2512
  121ccc     H3 3425   2.104   8.798   6.971  0.0313 -1.2219  0.1262
  121ccc     H4 3426   1.957   8.531   7.044  1.2616 -1.2420  1.3434
  121ccc     H5 3427   1.816   8.743   6.949  0.9009 -1.2143  0.7562
  121ccc     O1 3428   1.921   8.920   6.886  0.4931  0.0552 -0.2697
  121ccc     O2 3429   2.036   8.682   6.820 -0.2753 -0.3987 -0.1650
  121ccc     O3 3430   2.161   8.551   7.070 -0.2975 -0.0229  0.1694
  121ccc     O4 3431   2.100   8.729   7.266  0.3093  0.0828  0.3938
  121ccc     C6 3432   1.843   8.817   7.350 -0.2175 -0.4500 -0.4191
  121ccc     H6 3433   2.154   8.454   7.065  0.2773 -0.1470  1.4361
  121ccc     H7 3434   2.178   8.681   7.232  0.7769  1.3480 -0.4080
  121ccc     H8 3435   2.112   8.621   6.824 -1.0776 -1.3818  0.6318
  121ccc     H9 3436   1.829   8.738   7.424  0.0754  0.3284  0.4946
  121ccc    H10 3437   1.756   8.883   7.347 -1.2979 -1.8163 -0.1604
  121ccc     O5 3438   1.954   8.901   7.395 -0.2276  0.6876  0.2291
  121ccc    H11 3439   2.019   8.843   7.353 -0.2753  0.4606  0.4647
  121ccc     O6 3440   1.887   8.859   7.114  0.3701  0.0790 -0.0345
  122ccc     C1 3441   1.928   9.977   6.592  0.5233 -0.0885 -0.3934
  122ccc     C2 3442   2.037  10.002   6.480  0.7190 -0.7275 -0.4456
  122ccc     H1 3443   1.948  10.040   6.680 -2.0703 -1.5953  1.3975
  122ccc     H2 3444   2.052  10.110   6.466  1.8738 -1.0535 -2.0152
  122ccc     C3 3445   2.174   9.942   6.519  0.0603  0.1500  0.3673
  122ccc     C4 3446   2.173   9.802   6.597  0.4638 -0.4318  0.2318
  122ccc     C5 3447   2.053   9.791   6.699 -0.0598  0.1460  0.3925
  122ccc     H3 3448   2.145   9.723   6.526 -1.6069  0.0542  0.4313
  122ccc     H4 3449   2.220  10.014   6.587  2.4928 -0.9066 -0.0595
  122ccc     H5 3450   2.085   9.850   6.786  0.5986 -0.0005  0.2567
  122ccc     O1 3451   2.035   9.648   6.730 -0.2158  0.2908  0.0175
  122ccc     O2 3452   2.308   9.781   6.660  0.6732  0.9937  0.6870
  122ccc     O3 3453   2.249   9.933   6.397 -0.1859 -0.6792  0.2373
  122ccc     O4 3454   2.005   9.947   6.353 -0.0152  0.1942  0.2371
  122ccc     C6 3455   1.782  10.003   6.550  0.3973  0.2984 -0.2366
  122ccc     H6 3456   2.337   9.908   6.429 -1.0426 -3.0114  0.9890
  122ccc     H7 3457   2.094   9.939   6.315 -0.2998  1.7012 -0.8760
  122ccc     H8 3458   2.359   9.718   6.606  0.4759  1.3431  0.0778
  122ccc     H9 3459   1.773  10.094   6.489 -0.7852 -0.0428 -0.6076
  122ccc    H10 3460   1.712  10.012   6.634  0.8042 -2.4252  0.4881
  122ccc     O5 3461   1.744   9.902   6.463  0.2559  0.1017 -0.0224
  122ccc    H11 3462   1.828   9.895   6.414 -0.5475 -1.6535 -1.2275
  122ccc     O6 3463   1.932   9.843   6.641 -0.0271 -0.2901  0.0898
  123ccc     C1 3464   1.057   8.650   9.562 -0.0766  0.0144  0.7357
  123ccc     C2 3465   1.091   8.799   9.586  0.2094  0.2165  0.3307
  123ccc     H1 3466   1.110   8.598   9.643 -0.7406 -0.0714  1.1206
  123ccc     H2 3467   1.053   8.823   9.686 -0.1315 -0.3158  0.3317
  123ccc     C3 3468   1.246   8.821   9.575  0.1280 -0.1787 -0.2480
  123ccc     C4 3469   1.301   8.768   9.434 -0.2369  0.0107 -0.1962
  123ccc     C5 3470   1.249   8.616   9.410 -0.5391 -0.2890 -0.3443
  123ccc     H3 3471   1.265   8.837   9.357  0.6923 -0.3462 -0.9830
  123ccc     H4 3472   1.292   8.755   9.650  0.2304  0.0862 -0.0792
  123ccc     H5 3473   1.301   8.540   9.469 -0.0619  1.9576  2.3659
  123ccc     O1 3474   1.269   8.597   9.258 -0.0255 -0.7022 -0.2884
  123ccc     O2 3475   1.448   8.776   9.435 -0.0646  0.3950 -0.2829
  123ccc     O3 3476   1.287   8.955   9.613  0.4526  0.6221  0.5203
  123ccc     O4 3477   1.013   8.868   9.485  0.4664 -0.2988  0.0036
  123ccc     C6 3478   0.904   8.625   9.572 -0.5143 -0.1054 -0.1556
  123ccc     H6 3479   1.381   8.934   9.629  0.4142 -2.4863 -2.1725
  123ccc     H7 3480   1.052   8.957   9.493  2.9919 -1.3866  1.0064
  123ccc     H8 3481   1.477   8.869   9.427  0.7907  0.1271 -0.3775
  123ccc     H9 3482   0.847   8.670   9.490 -0.5433 -0.6709 -0.4519
  123ccc    H10 3483   0.877   8.670   9.668  0.0322  2.1586 -1.0085
  123ccc     O5 3484   0.877   8.492   9.586 -0.0745 -0.1939  0.5742
  123ccc    H11 3485   0.930   8.446   9.519  0.8305  1.7386 -0.1065
  123ccc     O6 3486   1.105   8.604   9.438  0.3235 -0.4909 -0.1572
  124ccc     C1 3487   1.445   8.948   8.613 -0.5527 -0.1158 -0.1391
  124ccc     C2 3488   1.576   8.958   8.695 -0.2682  0.2762  0.0684
  124ccc     H1 3489   1.387   9.038   8.636 -1.6810 -0.8241 -0.1499
  124ccc     H2 3490   1.636   9.048   8.675 -0.8635  0.7315  0.2999
  124ccc     C3 3491   1.549   8.956   8.847  0.5660 -0.0149 -0.1658
  124ccc     C4 3492   1.435   8.860   8.901 -0.1678  0.6783  0.8388
  124ccc     C5 3493   1.315   8.866   8.800 -0.0086 -0.1774  0.3480
  124ccc     H3 3494   1.465   8.755   8.895  3.0839  1.5791 -1.5588
  124ccc     H4 3495   1.515   9.055   8.881 -2.4878 -0.7101 -0.9084
  124ccc     H5 3496   1.273   8.968   8.799  0.6260  0.1102 -1.6281
  124ccc     O1 3497   1.215   8.772   8.836 -0.5521  0.3332 -0.5621
  124ccc     O2 3498   1.398   8.902   9.038 -0.1934 -0.5494 -0.2985
  124ccc     O3 3499   1.670   8.927   8.915  0.1385 -0.3408  0.5036
  124ccc     O4 3500   1.649   8.841   8.662  0.0617 -0.1859  0.4827
  124ccc     C6 3501   1.473   8.956   8.463  0.3006  0.0708  0.5282
  124ccc     H6 3502   1.738   8.991   8.887  2.1774 -2.3653  0.5435
  124ccc     H7 3503   1.718   8.826   8.729  1.0124  0.9547 -0.1917
  124ccc     H8 3504   1.460   8.848   9.090 -0.2674  0.7812  1.2885
  124ccc     H9 3505   1.542   9.038   8.443  0.1255 -0.3143 -2.0235
  124ccc    H10 3506   1.377   8.977   8.414 -0.3616 -1.5848  1.0320
  124ccc     O5 3507   1.522   8.828   8.430 -0.0134 -0.4227  0.6837
  124ccc    H11 3508   1.566   8.808   8.514  2.1405  0.1090 -0.2571
  124ccc     O6 3509   1.368   8.839   8.668 -0.4441  0.9529 -0.6111
  125ccc     C1 3510   0.890   9.067   8.097  0.9547 -0.0804  0.3484
  125ccc     C2 3511   0.829   8.957   8.175  0.4957  0.0828 -0.9279
  125ccc     H1 3512   0.850   9.061   7.996 -1.5471 -1.3944  1.3228
  125ccc     H2 3513   0.721   8.965   8.157 -0.2945 -0.8824  2.6451
  125ccc     C3 3514   0.872   8.817   8.121  0.2914 -0.1035 -0.1864
  125ccc     C4 3515   1.025   8.812   8.094  0.4418  0.2641 -0.1428
  125ccc     C5 3516   1.089   8.936   8.036  0.2974  0.2417 -0.1381
  125ccc     H3 3517   1.072   8.799   8.193  1.3740  2.4687 -0.2348
  125ccc     H4 3518   0.825   8.804   8.023  0.8336  0.1314 -0.4802
  125ccc     H5 3519   1.081   8.936   7.926 -1.3200 -0.0322 -0.0403
  125ccc     O1 3520   1.228   8.935   8.072 -0.2985 -0.1654 -0.1556
  125ccc     O2 3521   1.050   8.691   8.016 -0.2724  0.5861 -0.6221
  125ccc     O3 3522   0.832   8.715   8.213  0.5651 -0.1139 -0.1616
  125ccc     O4 3523   0.859   8.973   8.321 -0.1141  0.5023  0.0662
  125ccc     C6 3524   0.852   9.202   8.154 -0.6639  1.2321 -0.1555
  125ccc     H6 3525   0.799   8.646   8.153 -1.7619 -1.0509  1.9878
  125ccc     H7 3526   0.849   8.879   8.346 -0.9525  0.4275 -0.5011
  125ccc     H8 3527   1.143   8.668   8.032 -0.4438 -1.0187 -1.6631
  125ccc     H9 3528   0.742   9.198   8.160 -0.6642 -0.6554 -0.7023
  125ccc    H10 3529   0.875   9.286   8.088  1.2736  1.4208  0.7093
  125ccc     O5 3530   0.918   9.217   8.280  0.2278  0.2044 -0.3377
  125ccc    H11 3531   0.891   9.134   8.323 -0.0326  0.9945  1.0618
  125ccc     O6 3532   1.033   9.054   8.097  0.3580  0.0499  0.0538
  126ccc     C1 3533   2.049   8.977   8.210  0.3900 -0.2280 -0.3720
  126ccc     C2 3534   1.989   9.105   8.269 -0.1311 -0.1158 -0.0569
  126ccc     H1 3535   2.151   9.013   8.191 -0.3885  2.3424 -0.0699
  126ccc     H2 3536   2.039   9.131   8.364  1.1470 -3.1162  0.2150
  126ccc     C3 3537   1.983   9.226   8.167  0.1688 -0.1045  0.2267
  126ccc     C4 3538   1.930   9.172   8.036  0.0793  0.4848  0.0816
  126ccc     C5 3539   1.990   9.041   7.984 -0.1300  0.4318  0.5281
  126ccc     H3 3540   1.825   9.146   8.052  0.1592 -0.3210 -0.6554
  126ccc     H4 3541   2.083   9.264   8.145 -0.9039  1.6986 -2.0991
  126ccc     H5 3542   2.094   9.059   7.954 -0.2759  1.4788  0.6142
  126ccc     O1 3543   1.909   8.993   7.876 -0.0949 -0.2875  0.5230
  126ccc     O2 3544   1.935   9.277   7.935 -0.3633  0.8640  1.0176
  126ccc     O3 3545   1.917   9.345   8.220  0.3251  0.0136 -0.1133
  126ccc     O4 3546   1.854   9.063   8.306 -0.1499 -0.6227 -0.0138
  126ccc     C6 3547   2.059   8.855   8.307 -0.4500 -0.2853 -0.1999
  126ccc     H6 3548   1.822   9.338   8.201  0.4494 -1.0562 -0.4438
  126ccc     H7 3549   1.809   9.135   8.353 -2.5813 -2.3216  0.4350
  126ccc     H8 3550   1.879   9.350   7.965  1.2285  1.4059  2.9024
  126ccc     H9 3551   1.971   8.825   8.366  0.3530 -2.6914 -0.1268
  126ccc    H10 3552   2.132   8.885   8.383 -0.8639  1.0550 -0.3083
  126ccc     O5 3553   2.124   8.749   8.235 -0.3394  0.2798 -0.0106
  126ccc    H11 3554   2.157   8.695   8.309 -1.6805  0.5996  0.8705
  126ccc     O6 3555   1.976   8.947   8.091 -0.0323  0.5194 -0.1416
  127ccc     C1 3556   5.245   7.652  11.366  0.3044 -0.1376  0.5659
  127ccc     C2 3557   5.351   7.540  11.369  0.5764 -0.4849 -0.8168
  127ccc     H1 3558   5.151   7.619  11.320  0.3832 -1.7077  1.4634
  127ccc     H2 3559   5.321   7.459  11.436 -3.8769  1.8887  0.4769
  127ccc     C3 3560   5.385   7.499  11.220 -0.1311  0.4158  0.0725
  127ccc     C4 3561   5.407   7.616  11.121 -0.0535  0.0038 -0.5089
  127ccc     C5 3562   5.313   7.738  11.147  0.2311 -0.2214  0.6080
  127ccc     H3 3563   5.505   7.659  11.145 -0.0471 -0.7801  1.0187
  127ccc     H4 3564   5.288   7.460  11.188 -0.4790  1.1026  0.2798
  127ccc     H5 3565   5.213   7.737  11.102  0.7465 -2.2009 -0.6144
  127ccc     O1 3566   5.380   7.847  11.085 -0.3837  0.1653 -0.4345
  127ccc     O2 3567   5.391   7.560  10.984 -0.1691 -0.3901 -0.3827
  127ccc     O3 3568   5.487   7.403  11.207  0.0540  0.0316 -0.5216
  127ccc     O4 3569   5.469   7.591  11.430  0.2264  0.8011 -0.0003
  127ccc     C6 3570   5.216   7.695  11.512  0.1663 -0.6248 -0.3364
  127ccc     H6 3571   5.571   7.444  11.179  1.5582 -1.7435  1.0659
  127ccc     H7 3572   5.522   7.510  11.426 -0.9246  0.0890 -3.1736
  127ccc     H8 3573   5.464   7.598  10.933  0.5540 -0.2573  0.7316
  127ccc     H9 3574   5.301   7.755  11.546  0.3132  0.6895 -2.7911
  127ccc    H10 3575   5.211   7.609  11.581 -2.2680 -1.7310 -1.7283
  127ccc     O5 3576   5.093   7.760  11.513  0.4271 -0.3502  0.0962
  127ccc    H11 3577   5.099   7.814  11.594 -0.4360 -0.7530  0.4390
  127ccc     O6 3578   5.295   7.761  11.286 -0.2698  0.2801 -0.9780
  128ccc     C1 3579   6.278   8.435  11.193  0.0333  0.0617 -0.4096
  128ccc     C2 3580   6.303   8.497  11.055 -0.4358 -0.2822  0.2791
  128ccc     H1 3581   6.363   8.367  11.202 -0.1209 -0.0902 -0.0864
  128ccc     H2 3582   6.403   8.543  11.061 -0.5600 -0.0507  0.5847
  128ccc     C3 3583   6.309   8.393  10.944  0.5418 -1.1873 -0.2435
  128ccc     C4 3584   6.172   8.317  10.939 -0.4610 -0.4203  0.4400
  128ccc     C5 3585   6.131   8.261  11.080  0.0028  0.0341  0.1700
  128ccc     H3 3586   6.101   8.396  10.915  1.1254  1.1457  0.7092
  128ccc     H4 3587   6.398   8.333  10.965  2.4398 -0.0656 -4.0817
  128ccc     H5 3588   6.183   8.166  11.096  0.8898 -0.1009 -2.8901
  128ccc     O1 3589   5.990   8.241  11.076  0.1389 -0.0822 -0.2917
  128ccc     O2 3590   6.195   8.208  10.850 -0.2484  0.2798  0.2719
  128ccc     O3 3591   6.349   8.445  10.816 -0.2147  0.1607  0.1051
  128ccc     O4 3592   6.203   8.597  11.032  0.1315  0.8936  0.3845
  128ccc     C6 3593   6.281   8.532  11.312  0.4636 -0.5729 -0.7479
  128ccc     H6 3594   6.446   8.453  10.819 -0.2603  0.8546 -0.1023
  128ccc     H7 3595   6.248   8.655  10.969 -1.1222  0.8437 -0.5936
  128ccc     H8 3596   6.215   8.244  10.762 -1.5273 -2.1317 -1.1153
  128ccc     H9 3597   6.190   8.594  11.319  2.3760  2.6711 -2.2174
  128ccc    H10 3598   6.361   8.607  11.306 -2.7315  3.5740  2.1975
  128ccc     O5 3599   6.297   8.458  11.432  0.7863 -0.0602 -0.4123
  128ccc    H11 3600   6.301   8.530  11.496 -0.1615  0.1042 -0.5232
  128ccc     O6 3601   6.149   8.361  11.184 -0.0769  0.0666  0.3447
  129ccc     C1 3602   6.435   7.734  10.492 -0.1700 -0.3015 -0.2798
  129ccc     C2 3603   6.345   7.714  10.369  0.6777 -0.1044 -0.3692
  129ccc     H1 3604   6.502   7.815  10.463 -1.7184  1.5242  0.9385
  129ccc     H2 3605   6.293   7.809  10.353 -1.7112 -0.5300  3.6421
  129ccc     C3 3606   6.416   7.679  10.242  0.1363 -1.6798 -0.0999
  129ccc     C4 3607   6.520   7.560  10.261  0.5130  0.1105  0.0363
  129ccc     C5 3608   6.601   7.585  10.399  0.0094 -1.5087 -0.2939
  129ccc     H3 3609   6.463   7.468  10.280  0.4960 -0.2553 -1.6401
  129ccc     H4 3610   6.471   7.771  10.217  0.2577 -0.2391  4.5232
  129ccc     H5 3611   6.683   7.656  10.382  1.9544 -3.6720 -0.4539
  129ccc     O1 3612   6.665   7.464  10.441 -0.4548  0.7152  0.2519
  129ccc     O2 3613   6.611   7.539  10.147 -0.1191  0.0219 -0.7263
  129ccc     O3 3614   6.324   7.646  10.131 -0.5081 -0.2147 -0.1919
  129ccc     O4 3615   6.245   7.610  10.400 -0.0913  0.4867 -0.2120
  129ccc     C6 3616   6.358   7.757  10.629  0.0111  0.9080  0.2843
  129ccc     H6 3617   6.375   7.651  10.048  1.4526  0.4564  0.9978
  129ccc     H7 3618   6.207   7.588  10.313  0.3850  1.2755 -0.6332
  129ccc     H8 3619   6.652   7.451  10.149 -0.3234 -0.0917  1.6594
  129ccc     H9 3620   6.311   7.856  10.622 -0.3250  0.7214 -0.1568
  129ccc    H10 3621   6.430   7.762  10.712  1.8509  1.8016 -1.2867
  129ccc     O5 3622   6.271   7.646  10.648 -0.5183  0.0887 -0.4140
  129ccc    H11 3623   6.253   7.618  10.557  1.8729  1.0677 -1.2667
  129ccc     O6 3624   6.514   7.616  10.509 -0.1165  0.0857 -0.6710
  130ccc     C1 3625   6.667   6.733  11.284  0.6043 -0.0603  0.8766
  130ccc     C2 3626   6.647   6.828  11.408  0.2956 -0.0842 -0.7661
  130ccc     H1 3627   6.770   6.698  11.292  0.8519  0.5925  0.5859
  130ccc     H2 3628   6.685   6.788  11.503 -0.1535  0.9989 -0.1100
  130ccc     C3 3629   6.734   6.956  11.389 -0.1857  0.9424 -0.3233
  130ccc     C4 3630   6.707   7.039  11.259 -0.6872 -0.1612 -0.5270
  130ccc     C5 3631   6.722   6.934  11.143 -0.4922  0.8859 -0.1513
  130ccc     H3 3632   6.603   7.073  11.260 -0.1913  1.4396 -0.4245
  130ccc     H4 3633   6.839   6.928  11.374 -0.2126 -0.0989  1.1628
  130ccc     H5 3634   6.829   6.908  11.136  0.4459  4.6594 -2.5757
  130ccc     O1 3635   6.681   6.993  11.022 -0.2547 -0.4293  0.8744
  130ccc     O2 3636   6.803   7.145  11.238  0.0241 -0.1135 -0.3058
  130ccc     O3 3637   6.726   7.039  11.508 -0.1803 -0.1784 -0.3042
  130ccc     O4 3638   6.505   6.869  11.418 -0.1119 -0.2061  0.3283
  130ccc     C6 3639   6.577   6.602  11.274 -0.1925 -0.0419 -0.5562
  130ccc     H6 3640   6.798   7.104  11.502  0.0342 -0.4898 -1.4175
  130ccc     H7 3641   6.504   6.907  11.507  1.4766  0.4070  0.1244
  130ccc     H8 3642   6.764   7.208  11.175 -2.4939 -0.3636  0.8928
  130ccc     H9 3643   6.599   6.537  11.360  1.2528 -1.0586 -1.6512
  130ccc    H10 3644   6.594   6.544  11.183  0.6231  1.3023 -1.2796
  130ccc     O5 3645   6.444   6.644  11.280  0.1162 -0.2228  0.4432
  130ccc    H11 3646   6.456   6.728  11.329  0.4579 -0.1104  0.1659
  130ccc     O6 3647   6.651   6.816  11.164  0.5251  0.2364 -0.4230
  131ccc     C1 3648   5.597   4.973  11.376 -0.0586  0.0924  0.3410
  131ccc     C2 3649   5.654   4.985  11.510  0.6170  0.3990  0.7676
  131ccc     H1 3650   5.644   5.045  11.307 -1.3395 -0.2579 -0.9380
  131ccc     H2 3651   5.760   4.956  11.512 -0.0433 -2.2592  0.1970
  131ccc     C3 3652   5.627   5.128  11.566 -0.3313  0.0559 -0.5553
  131ccc     C4 3653   5.474   5.162  11.562  0.6380 -0.1045  1.1966
  131ccc     C5 3654   5.420   5.142  11.417 -0.1652  0.2142 -0.5004
  131ccc     H3 3655   5.424   5.090  11.628 -0.1000 -1.8794 -1.1817
  131ccc     H4 3656   5.681   5.199  11.502 -0.2129  1.9768  1.5531
  131ccc     H5 3657   5.460   5.216  11.346  1.1274  0.1793  0.1665
  131ccc     O1 3658   5.276   5.151  11.415  0.3220 -0.3615 -0.6747
  131ccc     O2 3659   5.449   5.298  11.603 -0.7931 -0.3735  0.2006
  131ccc     O3 3660   5.675   5.149  11.707  0.6870  0.1690 -0.0740
  131ccc     O4 3661   5.601   4.881  11.595  0.3070  0.0111 -0.0295
  131ccc     C6 3662   5.615   4.826  11.314 -1.1822  0.3123 -0.8340
  131ccc     H6 3663   5.755   5.204  11.706  1.1559 -0.5070 -1.3026
  131ccc     H7 3664   5.506   4.881  11.573  0.2773 -2.9316 -0.2156
  131ccc     H8 3665   5.356   5.304  11.630 -0.8729  0.4920 -0.2419
  131ccc     H9 3666   5.527   4.771  11.350 -0.1597  0.7807  2.7396
  131ccc    H10 3667   5.706   4.788  11.361 -1.6714 -0.1267 -0.2253
  131ccc     O5 3668   5.631   4.823  11.180  0.1252 -0.6301  0.2689
  131ccc    H11 3669   5.536   4.816  11.161  0.3116 -2.0481 -0.2286
  131ccc     O6 3670   5.452   5.007  11.379  0.5985  0.5906 -0.3952
  132ccc     C1 3671   4.257   5.170  10.652  0.4612 -0.8985  0.0863
  132ccc     C2 3672   4.278   5.273  10.541 -1.0554  0.2049 -0.2331
  132ccc     H1 3673   4.169   5.185  10.715  0.9351  1.2488  0.3212
  132ccc     H2 3674   4.187   5.286  10.482 -2.1044 -3.1675  0.4498
  132ccc     C3 3675   4.308   5.409  10.618  0.6069  0.0153  0.5737
  132ccc     C4 3676   4.424   5.403  10.726  0.4226 -0.0110 -0.5898
  132ccc     C5 3677   4.410   5.280  10.818  0.0801  0.2840 -0.1783
  132ccc     H3 3678   4.516   5.396  10.667  1.6999  2.2662  0.9899
  132ccc     H4 3679   4.212   5.428  10.667  0.1413  2.1395 -1.0005
  132ccc     H5 3680   4.332   5.293  10.894  0.1423 -0.7706  0.0828
  132ccc     O1 3681   4.530   5.258  10.888 -0.2681  0.6289 -0.9459
  132ccc     O2 3682   4.425   5.520  10.807 -0.2083 -0.0435  0.2093
  132ccc     O3 3683   4.334   5.520  10.518 -0.0612 -0.2612  0.1980
  132ccc     O4 3684   4.389   5.232  10.459  0.4261 -0.1398  0.4362
  132ccc     C6 3685   4.231   5.027  10.599 -0.6829 -0.3068 -0.5869
  132ccc     H6 3686   4.255   5.520  10.461 -1.8815  2.6576  2.4090
  132ccc     H7 3687   4.386   5.136  10.478 -0.9067  0.4139  3.5664
  132ccc     H8 3688   4.518   5.545  10.820 -0.2992  1.1767 -1.2243
  132ccc     H9 3689   4.143   5.011  10.536 -0.7523 -1.9893 -0.1058
  132ccc    H10 3690   4.217   4.958  10.684  0.5952 -1.4429 -1.2697
  132ccc     O5 3691   4.348   4.984  10.524 -0.1366 -0.2904 -0.2340
  132ccc    H11 3692   4.321   4.901  10.481  0.5336 -1.1767  1.0071
  132ccc     O6 3693   4.377   5.169  10.733  0.1529 -0.6549 -0.4269
  133ccc     C1 3694   4.301   5.140  10.140 -0.0494  0.6064 -0.4345
  133ccc     C2 3695   4.186   5.161  10.049  0.1710  0.0688 -0.0934
  133ccc     H1 3696   4.270   5.152  10.245  0.3042  1.7705 -0.4466
  133ccc     H2 3697   4.106   5.094  10.080 -0.0303  0.3361 -0.0321
  133ccc     C3 3698   4.130   5.300  10.073 -0.4672 -0.5522 -0.0774
  133ccc     C4 3699   4.238   5.414  10.065  0.0868  0.1301  0.2845
  133ccc     C5 3700   4.377   5.374  10.133  0.8710  0.1976 -0.4933
  133ccc     H3 3701   4.268   5.416   9.959 -0.5308 -2.8736 -0.0516
  133ccc     H4 3702   4.103   5.297  10.179  0.9689 -1.5559  0.2861
  133ccc     H5 3703   4.354   5.400  10.237 -3.3436  0.9865 -1.4116
  133ccc     O1 3704   4.484   5.445  10.075  0.1448 -0.0943 -0.5916
  133ccc     O2 3705   4.187   5.541  10.116  0.3562 -0.2215  0.3414
  133ccc     O3 3706   4.021   5.311   9.987  0.2893  0.6741  0.4280
  133ccc     O4 3707   4.230   5.144   9.915  0.6990  0.1238 -0.5607
  133ccc     C6 3708   4.360   5.001  10.145 -0.0776  0.4036 -0.5883
  133ccc     H6 3709   3.990   5.403   9.986 -3.5770 -0.4809 -0.2987
  133ccc     H7 3710   4.296   5.079   9.946 -0.2744  0.2293  2.0308
  133ccc     H8 3711   4.124   5.563  10.045  1.2140  3.8303  0.5984
  133ccc     H9 3712   4.279   4.933  10.172 -1.7107  2.6582  0.4726
  133ccc    H10 3713   4.447   4.990  10.211 -0.1892  1.2745 -0.2785
  133ccc     O5 3714   4.403   4.958  10.015 -0.3638 -0.0217 -0.0938
  133ccc    H11 3715   4.482   4.905  10.038 -0.1812  0.9873  1.8212
  133ccc     O6 3716   4.404   5.235  10.113  0.5892  0.2340  0.5096
  134ccc     C1 3717   4.109   5.747  10.436  0.1077  0.5581 -0.9055
  134ccc     C2 3718   4.021   5.865  10.479 -0.0507  0.2666 -0.2532
  134ccc     H1 3719   4.189   5.721  10.507 -1.0063  1.3288  0.6800
  134ccc     H2 3720   3.972   5.854  10.577  0.1364  1.1128 -0.0569
  134ccc     C3 3721   4.111   5.991  10.493  0.2016  0.2113  0.6163
  134ccc     C4 3722   4.218   6.015  10.379 -0.0797 -0.0469  0.5952
  134ccc     C5 3723   4.288   5.889  10.336  0.7661  0.3019 -0.3095
  134ccc     H3 3724   4.157   6.051  10.295 -0.5840  0.6246  1.2303
  134ccc     H4 3725   4.167   5.978  10.586 -0.0699 -1.4875  0.5743
  134ccc     H5 3726   4.347   5.866  10.425  0.2822  1.6913  0.3968
  134ccc     O1 3727   4.372   5.907  10.210 -0.6638  0.0825 -0.4134
  134ccc     O2 3728   4.326   6.115  10.421 -0.3998 -0.1130  0.4588
  134ccc     O3 3729   4.028   6.108  10.507  0.0766 -0.8822 -0.2516
  134ccc     O4 3730   3.932   5.873  10.373 -0.1354  0.5436 -0.5053
  134ccc     C6 3731   4.035   5.610  10.407  0.6214 -0.2545  0.5492
  134ccc     H6 3732   4.069   6.196  10.504 -3.7028  1.0717 -0.1658
  134ccc     H7 3733   3.907   5.967  10.364  0.3418  0.7450  0.2038
  134ccc     H8 3734   4.351   6.161  10.339  2.6615 -1.2565  0.6204
  134ccc     H9 3735   3.963   5.637  10.328  1.3751  1.3824  0.3766
  134ccc    H10 3736   3.970   5.581  10.491  0.2123  1.9063  1.0536
  134ccc     O5 3737   4.118   5.508  10.366 -0.1175  0.0038  0.2770
  134ccc    H11 3738   4.135   5.535  10.274 -0.8059  0.2484  0.2149
  134ccc     O6 3739   4.183   5.788  10.322  0.1745  0.2390  0.3648
  135ccc     C1 3740   3.405   8.455  12.461 -0.1483 -0.6941  0.8000
  135ccc     C2 3741   3.258   8.454  12.510 -0.3008  0.0625  0.1725
  135ccc     H1 3742   3.431   8.531  12.385 -0.8218  0.8041  2.0137
  135ccc     H2 3743   3.238   8.554  12.550 -1.9624  0.7839 -2.2123
  135ccc     C3 3744   3.167   8.428  12.391 -0.4215 -0.5057 -0.0296
  135ccc     C4 3745   3.212   8.302  12.313  0.3207  0.6831  0.4885
  135ccc     C5 3746   3.363   8.300  12.280 -0.3834  0.4483 -0.0154
  135ccc     H3 3747   3.191   8.220  12.382  0.4841 -2.2039 -2.6248
  135ccc     H4 3748   3.182   8.513  12.325 -0.4741 -0.1333  0.4305
  135ccc     H5 3749   3.387   8.373  12.201 -0.1223  2.0023  1.4448
  135ccc     O1 3750   3.406   8.167  12.247  0.2383 -0.1533 -0.2110
  135ccc     O2 3751   3.115   8.292  12.208  0.1479  0.0007  0.4391
  135ccc     O3 3752   3.030   8.430  12.442  0.3528  0.1243 -0.4752
  135ccc     O4 3753   3.250   8.345  12.603  0.1012 -0.3730  0.1046
  135ccc     C6 3754   3.514   8.484  12.566 -0.3352  0.4266 -0.3237
  135ccc     H6 3755   3.000   8.348  12.485 -2.0359  1.2653  0.2217
  135ccc     H7 3756   3.337   8.356  12.644 -0.7564 -0.6211  2.1206
  135ccc     H8 3757   3.032   8.263  12.250 -3.3058  3.3051 -3.0992
  135ccc     H9 3758   3.518   8.584  12.611  0.0158  0.9957 -1.5823
  135ccc    H10 3759   3.610   8.471  12.515 -0.2607  0.5469 -0.2156
  135ccc     O5 3760   3.502   8.384  12.673  0.2922 -0.2417 -0.3375
  135ccc    H11 3761   3.550   8.427  12.747  1.3016  1.7865 -2.0690
  135ccc     O6 3762   3.441   8.337  12.393 -0.0710  0.2477  0.0838
  136ccc     C1 3763   4.069   7.409  11.734 -0.3251  0.0942 -0.4961
  136ccc     C2 3764   4.076   7.306  11.846  0.3644  0.8673 -0.7310
  136ccc     H1 3765   4.173   7.440  11.720  0.0717 -1.1165 -0.3194
  136ccc     H2 3766   4.149   7.229  11.819 -0.4544 -0.4208  0.5596
  136ccc     C3 3767   4.115   7.369  11.978  0.4618 -0.0596  0.2180
  136ccc     C4 3768   4.038   7.500  12.008  0.2265  0.0024  0.5747
  136ccc     C5 3769   4.035   7.603  11.886  0.6255  0.7996 -1.0179
  136ccc     H3 3770   3.934   7.468  12.023  0.3533 -1.6217 -1.4897
  136ccc     H4 3771   4.222   7.394  11.976  1.4226 -3.6753 -2.2079
  136ccc     H5 3772   4.134   7.647  11.870  1.2257 -0.0495  0.1859
  136ccc     O1 3773   3.926   7.693  11.922  0.3857 -0.0769 -0.5576
  136ccc     O2 3774   4.090   7.561  12.122  0.0301 -0.5248 -0.4453
  136ccc     O3 3775   4.101   7.262  12.078 -0.0438 -0.2006  0.0823
  136ccc     O4 3776   3.947   7.246  11.859 -0.2970 -0.1624 -0.5840
  136ccc     C6 3777   4.016   7.343  11.598 -0.5059  0.9518  0.0642
  136ccc     H6 3778   4.187   7.217  12.084  0.9769  1.7128  0.4132
  136ccc     H7 3779   3.949   7.237  11.956  1.8685  3.9579 -0.0457
  136ccc     H8 3780   4.122   7.497  12.188 -0.9135 -0.5640 -0.0117
  136ccc     H9 3781   3.909   7.319  11.604 -0.4727  0.7194 -0.2347
  136ccc    H10 3782   4.054   7.241  11.580 -2.1143  0.0427  1.4430
  136ccc     O5 3783   4.040   7.432  11.491  0.2930  0.5221  0.0435
  136ccc    H11 3784   4.022   7.517  11.533 -1.4946 -0.6397  1.7837
  136ccc     O6 3785   3.987   7.522  11.778 -0.1582  0.4613  0.2758
  137ccc     C1 3786   3.352   6.169  11.489 -0.3760 -0.0033 -0.1492
  137ccc     C2 3787   3.428   6.148  11.613 -0.8863  0.5752  0.6315
  137ccc     H1 3788   3.416   6.136  11.406 -0.3926  1.9677 -0.9843
  137ccc     H2 3789   3.462   6.045  11.628  1.1258  1.1083 -0.0429
  137ccc     C3 3790   3.560   6.238  11.619  0.0143 -0.3467  0.0407
  137ccc     C4 3791   3.533   6.387  11.574 -0.0306 -1.2087 -0.1435
  137ccc     C5 3792   3.445   6.388  11.446 -0.1800 -0.2698 -0.1047
  137ccc     H3 3793   3.488   6.450  11.651  0.8150  0.8420 -1.2573
  137ccc     H4 3794   3.633   6.205  11.544  1.2487 -0.6067  1.2943
  137ccc     H5 3795   3.513   6.346  11.371  1.0488  1.5266 -0.0430
  137ccc     O1 3796   3.404   6.526  11.418  0.3116 -0.7201 -0.5317
  137ccc     O2 3797   3.656   6.450  11.541 -0.2282 -0.5391  0.0453
  137ccc     O3 3798   3.637   6.224  11.739  0.2052 -0.0927 -0.5044
  137ccc     O4 3799   3.323   6.186  11.703 -0.4187  0.0428 -0.3109
  137ccc     C6 3800   3.224   6.082  11.473  0.0089 -0.4938 -0.4239
  137ccc     H6 3801   3.730   6.231  11.711  0.9884 -0.1775  1.8401
  137ccc     H7 3802   3.243   6.173  11.649 -0.0882  0.4613 -0.9117
  137ccc     H8 3803   3.643   6.546  11.542  0.2165 -0.4806  0.0446
  137ccc     H9 3804   3.253   5.986  11.517  0.6894  0.4364  1.2510
  137ccc    H10 3805   3.199   6.069  11.367 -1.0311  0.1474 -0.2778
  137ccc     O5 3806   3.124   6.135  11.555  0.4077 -0.2475 -0.3113
  137ccc    H11 3807   3.044   6.096  11.516  0.4534  0.5981 -1.3043
  137ccc     O6 3808   3.322   6.309  11.466  0.1360 -0.0579 -0.4627
  138ccc     C1 3809   2.408   6.602  10.999 -0.1322 -0.4216  0.5475
  138ccc     C2 3810   2.320   6.721  10.974  0.3791 -0.5433  0.0310
  138ccc     H1 3811   2.388   6.571  11.102  1.4432  1.4386  1.4916
  138ccc     H2 3812   2.215   6.696  10.994  0.2815  0.3368  0.7387
  138ccc     C3 3813   2.348   6.841  11.076  0.4418  0.5094  0.3958
  138ccc     C4 3814   2.500   6.869  11.086  0.0630  0.4617  1.8696
  138ccc     C5 3815   2.584   6.738  11.097 -0.4967  0.1265 -0.0998
  138ccc     H3 3816   2.528   6.917  10.992 -1.5189 -0.8692  0.6581
  138ccc     H4 3817   2.321   6.800  11.174  0.3017  1.5378  0.7922
  138ccc     H5 3818   2.576   6.694  11.197 -1.0817 -3.6617 -1.6709
  138ccc     O1 3819   2.719   6.773  11.071  0.2285  0.0287 -0.1699
  138ccc     O2 3820   2.535   6.952  11.195 -0.4511 -0.4275 -0.1027
  138ccc     O3 3821   2.268   6.954  11.033  0.2516  0.1466 -0.0504
  138ccc     O4 3822   2.348   6.772  10.845  0.1085  0.0031 -0.2260
  138ccc     C6 3823   2.403   6.484  10.900  1.1446 -0.5444 -0.3361
  138ccc     H6 3824   2.274   7.023  11.102  0.1529  0.0064  0.0991
  138ccc     H7 3825   2.311   6.862  10.850  1.8697  0.6888  1.5557
  138ccc     H8 3826   2.518   7.043  11.165 -0.9311 -0.0530  1.2234
  138ccc     H9 3827   2.449   6.508  10.803 -2.4460 -0.6808 -2.2511
  138ccc    H10 3828   2.295   6.468  10.886  0.6477  0.2859  2.1636
  138ccc     O5 3829   2.458   6.366  10.959  0.0466 -0.2668  0.1347
  138ccc    H11 3830   2.549   6.396  10.978 -0.1304  1.5198 -1.5664
  138ccc     O6 3831   2.546   6.646  10.993  0.2528  0.4432  0.4237
  139ccc     C1 3832   3.292   6.248  12.267 -0.4930 -0.0128  0.1314
  139ccc     C2 3833   3.332   6.130  12.172 -0.3137 -0.1397  0.3121
  139ccc     H1 3834   3.201   6.288  12.221  0.5539  1.2905 -0.8820
  139ccc     H2 3835   3.253   6.055  12.166  0.1423 -0.5513 -0.8753
  139ccc     C3 3836   3.362   6.190  12.037 -0.0933 -0.4601  0.6196
  139ccc     C4 3837   3.471   6.307  12.049 -0.0051  0.6525 -0.4063
  139ccc     C5 3838   3.424   6.417  12.148  0.2525 -0.2171  0.1968
  139ccc     H3 3839   3.557   6.253  12.091 -1.0102 -0.8863 -0.2307
  139ccc     H4 3840   3.274   6.237  11.991  1.4832  1.3757 -0.6524
  139ccc     H5 3841   3.333   6.468  12.113 -0.0210 -1.0211 -0.2932
  139ccc     O1 3842   3.530   6.516  12.185 -0.4676  0.9060 -0.4373
  139ccc     O2 3843   3.490   6.362  11.918 -0.7253 -0.3313  0.0623
  139ccc     O3 3844   3.409   6.093  11.944 -1.0029  0.2634  0.3103
  139ccc     O4 3845   3.457   6.077  12.233 -0.0055  0.2302  0.4432
  139ccc     C6 3846   3.256   6.202  12.410 -0.0501  0.7613  0.1686
  139ccc     H6 3847   3.400   6.130  11.854  3.2200 -0.4118 -0.6398
  139ccc     H7 3848   3.441   6.115  12.321 -0.8485 -0.9445  0.8198
  139ccc     H8 3849   3.541   6.299  11.864  1.8299  0.9858  0.8208
  139ccc     H9 3850   3.173   6.130  12.411  0.4703  0.1511  0.4750
  139ccc    H10 3851   3.227   6.297  12.457  1.1445  0.7759  0.9111
  139ccc     O5 3852   3.370   6.145  12.470 -0.5130 -0.1232 -0.3942
  139ccc    H11 3853   3.331   6.095  12.544  0.4644 -0.2092  0.0771
  139ccc     O6 3854   3.396   6.343  12.272 -0.3593 -0.9301  0.5678
  140ccc     C1 3855   4.586   6.659  12.291 -0.4216  0.2578  0.9218
  140ccc     C2 3856   4.606   6.806  12.237 -0.8421 -0.0115 -0.1645
  140ccc     H1 3857   4.663   6.590  12.256 -0.5004  0.1668  0.9279
  140ccc     H2 3858   4.709   6.834  12.258 -0.0366 -1.6298 -1.6284
  140ccc     C3 3859   4.575   6.818  12.083  0.0096  0.2142  0.4737
  140ccc     C4 3860   4.446   6.739  12.046 -0.1851  1.0802  0.4400
  140ccc     C5 3861   4.419   6.600  12.116  0.1507  0.1982 -0.3010
  140ccc     H3 3862   4.366   6.803  12.085 -0.3908  0.5420  0.9244
  140ccc     H4 3863   4.664   6.785  12.028 -0.0183  2.7385 -1.2449
  140ccc     H5 3864   4.480   6.521  12.070 -2.0462 -1.6818 -0.2132
  140ccc     O1 3865   4.280   6.564  12.098  0.0047  0.2776 -0.5520
  140ccc     O2 3866   4.449   6.721  11.903 -0.2065 -0.6590  0.5757
  140ccc     O3 3867   4.572   6.963  12.035 -0.1945 -0.2690  0.0074
  140ccc     O4 3868   4.517   6.894  12.316  0.4052  0.3907 -0.6400
  140ccc     C6 3869   4.613   6.659  12.441 -0.2468  0.0475  0.0873
  140ccc     H6 3870   4.663   6.997  12.044  0.2471 -1.4676  0.3847
  140ccc     H7 3871   4.527   6.983  12.279 -1.9107  0.9388 -0.1365
  140ccc     H8 3872   4.408   6.803  11.871 -0.5709  0.2090  3.0726
  140ccc     H9 3873   4.533   6.704  12.501  0.1424  2.7428 -1.2800
  140ccc    H10 3874   4.702   6.717  12.467 -0.6355  0.3680  0.7427
  140ccc     O5 3875   4.629   6.522  12.484 -1.1281 -0.0089  0.0540
  140ccc    H11 3876   4.620   6.518  12.581 -0.2789 -0.3241  0.1307
  140ccc     O6 3877   4.454   6.616  12.261 -0.0395  0.8919  0.5462
  141ccc     C1 3878   5.270   5.583  11.947  0.4269 -0.1695  0.3498
  141ccc     C2 3879   5.422   5.579  11.965  0.0979  0.3221  0.7133
  141ccc     H1 3880   5.238   5.491  11.897  4.1884 -0.9242 -1.0332
  141ccc     H2 3881   5.442   5.484  12.015 -2.8308 -1.4407 -1.2169
  141ccc     C3 3882   5.494   5.580  11.823  0.7106  0.0054  0.2136
  141ccc     C4 3883   5.442   5.699  11.737 -0.8217  0.5052  0.4136
  141ccc     C5 3884   5.293   5.701  11.727  0.8097  0.5694  0.1324
  141ccc     H3 3885   5.464   5.796  11.782  0.1663 -0.5100  2.2233
  141ccc     H4 3886   5.469   5.484  11.779  0.9756  0.0413 -0.0222
  141ccc     H5 3887   5.251   5.612  11.679  1.3657 -0.5839  1.6891
  141ccc     O1 3888   5.262   5.820  11.665  0.0254  0.4865  0.5715
  141ccc     O2 3889   5.507   5.682  11.609  0.1024 -0.1869 -0.4884
  141ccc     O3 3890   5.636   5.595  11.843  0.0882 -0.1641  0.2558
  141ccc     O4 3891   5.458   5.683  12.047  0.3579 -0.6800  0.0228
  141ccc     C6 3892   5.199   5.575  12.085  0.0546 -0.2322  0.1205
  141ccc     H6 3893   5.663   5.540  11.918 -0.1066 -1.3809 -0.5377
  141ccc     H7 3894   5.438   5.763  11.995  2.3546  0.2833  0.6063
  141ccc     H8 3895   5.600   5.667  11.633  0.2673  2.8580  1.2934
  141ccc     H9 3896   5.244   5.651  12.152  1.4867  0.0850 -1.1390
  141ccc    H10 3897   5.230   5.476  12.120 -2.2581 -1.1109 -0.1632
  141ccc     O5 3898   5.061   5.572  12.077  0.1651  0.5089 -0.2363
  141ccc    H11 3899   5.041   5.535  12.165  3.4173  0.3193  0.5532
  141ccc     O6 3900   5.235   5.700  11.866 -0.0288 -0.1850 -0.0194
  142ccc     C1 3901   5.497   6.567  11.526 -0.0319  0.5596  0.1899
  142ccc     C2 3902   5.530   6.471  11.406 -0.0447  0.3211 -0.3697
  142ccc     H1 3903   5.588   6.595  11.581  0.8726 -0.5289 -0.7048
  142ccc     H2 3904   5.594   6.528  11.336 -0.1902  0.4108 -0.4319
  142ccc     C3 3905   5.593   6.333  11.449 -1.0361 -0.3288  0.9539
  142ccc     C4 3906   5.509   6.268  11.562 -0.6594 -0.9542  0.3350
  142ccc     C5 3907   5.471   6.376  11.676  0.3422  0.3172  0.3335
  142ccc     H3 3908   5.420   6.228  11.513 -1.0698 -0.1289  0.3891
  142ccc     H4 3909   5.699   6.347  11.472  0.0883 -4.6930 -0.5039
  142ccc     H5 3910   5.551   6.411  11.742 -0.4849 -0.3626  1.7310
  142ccc     O1 3911   5.377   6.305  11.758 -0.0095 -0.2564 -0.6212
  142ccc     O2 3912   5.585   6.167  11.632 -0.2627  0.0105  0.0013
  142ccc     O3 3913   5.595   6.245  11.333  0.6774  0.2980 -0.8465
  142ccc     O4 3914   5.413   6.427  11.342  0.1790 -0.4667 -0.5209
  142ccc     C6 3915   5.428   6.696  11.481 -0.2864 -0.3592  0.2072
  142ccc     H6 3916   5.689   6.235  11.306  1.0197 -3.2624  1.1360
  142ccc     H7 3917   5.451   6.395  11.258 -0.1575  1.5961 -1.5202
  142ccc     H8 3918   5.617   6.099  11.571 -0.7222  1.0507 -1.4470
  142ccc     H9 3919   5.332   6.666  11.438 -1.4425  2.5357  0.6033
  142ccc    H10 3920   5.495   6.742  11.408 -0.4129  1.8520  1.4133
  142ccc     O5 3921   5.418   6.783  11.594 -0.1381 -0.2772  0.1457
  142ccc    H11 3922   5.340   6.752  11.644  0.3104  0.6899  1.5232
  142ccc     O6 3923   5.403   6.489  11.614  0.0684 -1.0741  0.0143
  143ccc     C1 3924   2.294   7.010   9.155  0.4263  0.3801  0.2769
  143ccc     C2 3925   2.156   6.943   9.180 -0.3717  0.7299  0.3968
  143ccc     H1 3926   2.351   6.978   9.067  1.9507  0.8072  1.0687
  143ccc     H2 3927   2.096   6.952   9.089 -0.2477 -1.1850  0.0703
  143ccc     C3 3928   2.171   6.793   9.229 -0.2027 -0.1628 -1.1300
  143ccc     C4 3929   2.261   6.782   9.363  0.3248  0.0665  0.3074
  143ccc     C5 3930   2.396   6.846   9.313 -0.1051  0.3746 -0.4087
  143ccc     H3 3931   2.216   6.848   9.438  0.2673  1.2073 -0.7039
  143ccc     H4 3932   2.220   6.735   9.150  1.5073  0.8799 -0.9016
  143ccc     H5 3933   2.442   6.790   9.230  0.1856 -2.2634  1.4161
  143ccc     O1 3934   2.478   6.848   9.426  0.3517 -0.4500 -0.2775
  143ccc     O2 3935   2.277   6.644   9.411  0.5036  0.1488 -0.0126
  143ccc     O3 3936   2.045   6.735   9.246 -0.8615  0.4877 -0.4658
  143ccc     O4 3937   2.087   7.012   9.287 -0.1309 -0.6182  0.3489
  143ccc     C6 3938   2.288   7.167   9.126  0.4722 -0.2070  0.4441
  143ccc     H6 3939   2.001   6.763   9.329 -2.3769  0.0065 -1.0761
  143ccc     H7 3940   1.991   6.994   9.285 -0.4608  0.7364  1.9691
  143ccc     H8 3941   2.334   6.584   9.359 -2.7166 -2.7615 -0.5826
  143ccc     H9 3942   2.257   7.227   9.212 -1.5789  0.3901 -0.6395
  143ccc    H10 3943   2.207   7.170   9.052  0.2622  2.8280  0.6715
  143ccc     O5 3944   2.410   7.213   9.069  0.4798 -0.5992  0.6355
  143ccc    H11 3945   2.398   7.307   9.046 -1.2657 -0.7859  0.6810
  143ccc     O6 3946   2.379   6.986   9.268 -0.1128  0.3905  0.6670
  144ccc     C1 3947   2.604   6.984  10.409  0.0220 -0.0405  0.2091
  144ccc     C2 3948   2.464   6.912  10.419  0.5316 -0.1222 -0.0484
  144ccc     H1 3949   2.584   7.090  10.388  1.1527  0.0327 -0.5987
  144ccc     H2 3950   2.413   6.950  10.508  0.7983  1.4327 -0.5252
  144ccc     C3 3951   2.391   6.945  10.284  0.3908  0.2190 -0.3018
  144ccc     C4 3952   2.478   6.892  10.161  0.3435  0.1544 -0.2952
  144ccc     C5 3953   2.628   6.934  10.167  0.3841 -0.7936 -0.6979
  144ccc     H3 3954   2.463   6.783  10.150  0.0439  0.1410  0.2210
  144ccc     H4 3955   2.394   7.054  10.280  1.0481  0.3684  2.2932
  144ccc     H5 3956   2.634   7.041  10.144 -2.5166 -0.6109 -0.9182
  144ccc     O1 3957   2.707   6.858  10.072 -1.1026 -0.1159  0.4099
  144ccc     O2 3958   2.424   6.953  10.043 -0.6242 -0.5238 -0.3454
  144ccc     O3 3959   2.252   6.906  10.285 -0.1266 -0.5030 -0.3462
  144ccc     O4 3960   2.476   6.771  10.433 -0.1498  0.5947 -0.8473
  144ccc     C6 3961   2.680   6.974  10.538 -0.1072  0.2867 -0.4754
  144ccc     H6 3962   2.256   6.809  10.294  2.5639 -0.5446 -1.2458
  144ccc     H7 3963   2.382   6.755  10.450 -0.4417  2.2233 -0.8077
  144ccc     H8 3964   2.350   6.895  10.015 -1.2006  0.4272 -0.8420
  144ccc     H9 3965   2.698   6.867  10.554  1.6524  0.4537 -1.1134
  144ccc    H10 3966   2.616   7.008  10.621  0.2241 -1.6143  0.6294
  144ccc     O5 3967   2.794   7.061  10.537 -0.0266  0.0706 -0.3898
  144ccc    H11 3968   2.750   7.148  10.527 -0.6756  0.0972  2.0915
  144ccc     O6 3969   2.678   6.910  10.303 -0.9290  0.0110 -0.4144
  145ccc     C1 3970   2.072   6.799   9.851 -0.2607  0.3750 -0.8633
  145ccc     C2 3971   1.956   6.892   9.819 -0.1338 -0.0573 -0.2185
  145ccc     H1 3972   2.165   6.830   9.802  2.0424 -3.7480  0.4593
  145ccc     H2 3973   1.981   6.997   9.835  2.5514 -0.7266  0.4746
  145ccc     C3 3974   1.917   6.900   9.669 -0.2383  0.3696  0.1273
  145ccc     C4 3975   1.913   6.760   9.609 -0.6054  0.1978  0.1367
  145ccc     C5 3976   2.033   6.668   9.645 -0.6466 -0.0736  0.1895
  145ccc     H3 3977   1.824   6.703   9.636 -0.3662 -0.0451  0.4067
  145ccc     H4 3978   2.011   6.941   9.628  1.0711  0.2959  2.8701
  145ccc     H5 3979   2.127   6.700   9.597 -0.3094 -0.7021  0.4184
  145ccc     O1 3980   2.008   6.536   9.605  0.4922  0.1385  0.4022
  145ccc     O2 3981   1.911   6.774   9.466  0.5583  0.0204 -0.5291
  145ccc     O3 3982   1.813   6.994   9.652  0.4983  0.1775  0.1011
  145ccc     O4 3983   1.842   6.851   9.893  0.4693 -0.8214 -0.2060
  145ccc     C6 3984   2.105   6.775   9.993 -0.1492  0.0379  0.0648
  145ccc     H6 3985   1.831   7.030   9.563  4.2704  1.5406  1.2224
  145ccc     H7 3986   1.767   6.895   9.849 -0.8137 -1.6429  1.0562
  145ccc     H8 3987   1.817   6.791   9.448  0.8403  2.3557 -0.1220
  145ccc     H9 3988   2.033   6.703  10.034 -1.2737  1.2436  0.2939
  145ccc    H10 3989   2.081   6.869  10.045  2.3464  1.6658 -1.5083
  145ccc     O5 3990   2.237   6.746  10.008 -0.3524  0.1773  0.3971
  145ccc    H11 3991   2.238   6.649  10.008  2.2190  0.0976 -1.7564
  145ccc     O6 3992   2.051   6.670   9.791 -0.4280  0.1334  0.1949
  146ccc     C1 3993   1.326   6.601   9.468 -0.5308  0.1968  0.1148
  146ccc     C2 3994   1.338   6.679   9.599 -0.2373 -0.0798 -0.4657
  146ccc     H1 3995   1.260   6.514   9.483 -0.1395  0.0647  1.0986
  146ccc     H2 3996   1.235   6.689   9.636  0.0692 -1.0095  0.6682
  146ccc     C3 3997   1.410   6.578   9.694  0.1150 -0.6513  0.4502
  146ccc     C4 3998   1.552   6.534   9.643  0.7285  0.2990 -0.1135
  146ccc     C5 3999   1.543   6.476   9.500  0.1194  0.7446  0.1111
  146ccc     H3 4000   1.612   6.626   9.636 -0.2236  0.8483 -1.5214
  146ccc     H4 4001   1.345   6.490   9.689 -0.7332 -0.0108 -0.0822
  146ccc     H5 4002   1.498   6.376   9.495  3.1803 -0.7020 -0.7345
  146ccc     O1 4003   1.676   6.464   9.451  0.0832  0.2501 -0.4829
  146ccc     O2 4004   1.607   6.440   9.742 -0.0639 -0.1212  0.4729
  146ccc     O3 4005   1.416   6.630   9.827 -0.4509  0.6576 -0.4886
  146ccc     O4 4006   1.408   6.798   9.578  0.4310 -0.2321  0.1339
  146ccc     C6 4007   1.256   6.688   9.360 -1.0661  0.3422  0.0474
  146ccc     H6 4008   1.420   6.562   9.897  2.9720  1.3373  0.1484
  146ccc     H7 4009   1.331   6.858   9.573  0.2653 -0.5575 -2.9491
  146ccc     H8 4010   1.629   6.496   9.819 -2.2320  1.3383  0.1300
  146ccc     H9 4011   1.325   6.761   9.318 -0.1242 -0.6582 -0.1735
  146ccc    H10 4012   1.168   6.736   9.407  0.0206 -0.9353  3.7606
  146ccc     O5 4013   1.216   6.596   9.254 -0.2637 -0.1964  0.0413
  146ccc    H11 4014   1.182   6.651   9.181 -0.2043 -0.8051 -0.4563
  146ccc     O6 4015   1.456   6.566   9.418 -0.3166  0.2471 -0.9692
  147ccc     C1 4016   3.083   4.334   8.940  0.5353 -0.1819 -0.2902
  147ccc     C2 4017   2.961   4.357   9.033  0.1280  0.5222 -0.2978
  147ccc     H1 4018   3.152   4.264   8.987 -0.8736 -0.9361  0.7217
  147ccc     H2 4019   2.925   4.259   9.065 -0.6305  0.4576 -1.2964
  147ccc     C3 4020   3.000   4.448   9.158 -0.2665 -0.7836  0.9684
  147ccc     C4 4021   3.073   4.579   9.113  0.0971  0.2725  0.0699
  147ccc     C5 4022   3.199   4.537   9.028  0.1314 -0.3852 -0.0124
  147ccc     H3 4023   3.001   4.638   9.057  0.4653  0.8410  0.1893
  147ccc     H4 4024   3.075   4.388   9.211 -0.6600 -1.1212  1.1531
  147ccc     H5 4025   3.271   4.484   9.091  0.5512  1.0182  0.7417
  147ccc     O1 4026   3.265   4.662   8.984 -0.0172 -0.0103 -0.1474
  147ccc     O2 4027   3.111   4.649   9.237  0.3188 -0.2097  0.0292
  147ccc     O3 4028   2.897   4.486   9.249 -0.3904  0.2045  0.3194
  147ccc     O4 4029   2.855   4.427   8.962 -0.2350 -0.6012 -0.0218
  147ccc     C6 4030   3.041   4.281   8.796 -0.7793 -0.5949 -0.6237
  147ccc     H6 4031   2.874   4.410   9.307 -0.6589  2.3148  3.1877
  147ccc     H7 4032   2.779   4.436   9.021  0.4709 -1.1835  1.0153
  147ccc     H8 4033   3.049   4.611   9.300 -0.1350 -1.7479 -1.2878
  147ccc     H9 4034   3.004   4.364   8.734 -0.3482 -1.0225 -1.4721
  147ccc    H10 4035   2.961   4.206   8.791 -3.1960  1.7547  0.3407
  147ccc     O5 4036   3.162   4.224   8.743 -0.0760 -0.1059 -0.2111
  147ccc    H11 4037   3.213   4.301   8.711 -0.4182 -0.0435 -0.6160
  147ccc     O6 4038   3.158   4.457   8.910  0.4449 -0.1030 -0.6853
  148ccc     C1 4039   3.655   4.569   8.096 -0.0701  0.0651  0.2439
  148ccc     C2 4040   3.612   4.427   8.041 -0.8307 -0.6660  0.4708
  148ccc     H1 4041   3.744   4.555   8.158  1.2078 -0.0385 -1.5426
  148ccc     H2 4042   3.698   4.374   7.996 -0.8353 -0.7378  0.5459
  148ccc     C3 4043   3.555   4.339   8.153 -0.0069  0.3788  0.2582
  148ccc     C4 4044   3.446   4.421   8.227 -0.0262  0.0248  1.0342
  148ccc     C5 4045   3.500   4.555   8.284 -0.0261  0.1457 -0.5047
  148ccc     H3 4046   3.365   4.450   8.159 -0.0724 -0.3123  0.9428
  148ccc     H4 4047   3.636   4.307   8.220 -0.2325 -0.9766 -0.1068
  148ccc     H5 4048   3.572   4.541   8.366 -0.3607  0.2408 -0.1906
  148ccc     O1 4049   3.388   4.616   8.353 -0.0244  0.1786  0.4055
  148ccc     O2 4050   3.385   4.336   8.322  0.6449 -0.0775 -0.5507
  148ccc     O3 4051   3.499   4.217   8.099  0.2745  0.0895  0.0815
  148ccc     O4 4052   3.512   4.457   7.943 -0.0447  0.1655  0.4757
  148ccc     C6 4053   3.707   4.666   7.985 -0.4630  0.1963  0.4423
  148ccc     H6 4054   3.491   4.231   8.002  0.1002  1.5912  0.2844
  148ccc     H7 4055   3.536   4.547   7.914 -2.0129  0.5203 -0.1828
  148ccc     H8 4056   3.289   4.354   8.313  0.1308 -2.5912 -0.9996
  148ccc     H9 4057   3.796   4.619   7.941 -1.3567 -1.5830  0.4461
  148ccc    H10 4058   3.747   4.754   8.037  1.4102  0.0768 -0.6685
  148ccc     O5 4059   3.615   4.698   7.882  0.7754 -0.1546  0.1417
  148ccc    H11 4060   3.581   4.788   7.899 -0.0620 -0.4512  0.0836
  148ccc     O6 4061   3.554   4.634   8.176 -0.2994 -0.3487  0.1019
  149ccc     C1 4062   3.178   6.046   9.965 -0.0754  0.4111  0.9476
  149ccc     C2 4063   3.053   6.092   9.885  0.1734  0.1409 -0.0278
  149ccc     H1 4064   3.248   6.130   9.967  0.3203  0.0768  1.4737
  149ccc     H2 4065   3.011   6.173   9.947 -0.3033  0.2861 -0.5256
  149ccc     C3 4066   3.090   6.133   9.737 -1.1094 -0.3027 -0.0140
  149ccc     C4 4067   3.174   6.018   9.669 -0.2804  0.0038  0.3450
  149ccc     C5 4068   3.290   5.972   9.756 -0.2263  0.8809 -0.6279
  149ccc     H3 4069   3.104   5.934   9.660  0.9866 -1.0174 -0.1967
  149ccc     H4 4070   3.153   6.222   9.755  0.6222 -1.1726 -1.5061
  149ccc     H5 4071   3.367   6.050   9.767  0.1076  0.6730 -1.4445
  149ccc     O1 4072   3.359   5.863   9.686  0.4664  0.8893  0.0290
  149ccc     O2 4073   3.219   6.073   9.547 -1.0373 -0.1231 -0.9169
  149ccc     O3 4074   2.971   6.175   9.668  0.3124 -0.4426 -0.8044
  149ccc     O4 4075   2.962   5.982   9.900 -0.3506  0.1210  0.4095
  149ccc     C6 4076   3.163   6.007  10.107  0.3656  0.2136 -0.2614
  149ccc     H6 4077   2.988   6.162   9.573 -2.3936 -3.0293 -1.0798
  149ccc     H7 4078   2.875   6.026   9.907 -1.3638 -1.8929  1.4196
  149ccc     H8 4079   3.261   5.997   9.503  0.5367 -1.1646  2.0403
  149ccc     H9 4080   3.127   5.904  10.115  0.7451  0.2288  2.4182
  149ccc    H10 4081   3.104   6.074  10.170  0.7039  0.4416 -0.1829
  149ccc     O5 4082   3.293   6.015  10.156  0.5024  0.2010  0.2910
  149ccc    H11 4083   3.269   6.013  10.250  1.8435  1.3607  0.6964
  149ccc     O6 4084   3.251   5.936   9.888  0.1194  0.0252  0.1559
  150ccc     C1 4085   3.720   5.820  10.104  0.6036 -0.4071  0.7513
  150ccc     C2 4086   3.827   5.889  10.020  0.6183  0.1813 -0.0712
  150ccc     H1 4087   3.762   5.780  10.197 -1.7024 -1.7871  1.2765
  150ccc     H2 4088   3.854   5.973  10.085 -0.6776 -0.3810  1.2466
  150ccc     C3 4089   3.949   5.798  10.003  0.5103  1.1624  0.0165
  150ccc     C4 4090   3.898   5.668   9.937  0.3020 -0.2575 -0.0794
  150ccc     C5 4091   3.769   5.604   9.996 -0.6284  0.4607  0.1155
  150ccc     H3 4092   3.871   5.701   9.836 -1.9402  0.3730  0.6899
  150ccc     H4 4093   3.984   5.778  10.105  0.2882  0.9678  0.0547
  150ccc     H5 4094   3.793   5.555  10.091 -0.6145  1.6578  0.7536
  150ccc     O1 4095   3.730   5.502   9.900  0.6217  0.4173 -0.3445
  150ccc     O2 4096   4.002   5.567   9.929  0.3358 -0.3285  0.0920
  150ccc     O3 4097   4.063   5.852   9.936 -0.3093  0.6140 -0.2279
  150ccc     O4 4098   3.767   5.925   9.893  0.1496 -0.3657  0.0956
  150ccc     C6 4099   3.602   5.915  10.142 -0.2693 -0.1923 -0.0678
  150ccc     H6 4100   4.075   5.940   9.977 -0.8201  1.0255 -0.9311
  150ccc     H7 4101   3.675   5.941   9.921 -0.1140  0.0274 -0.9536
  150ccc     H8 4102   4.078   5.606   9.883  1.0245  0.5435  1.9035
  150ccc     H9 4103   3.646   5.998  10.200  2.1572 -0.8195 -0.9188
  150ccc    H10 4104   3.533   5.860  10.207 -0.8773 -1.1278 -1.4683
  150ccc     O5 4105   3.543   5.967  10.022  0.4151 -0.0308 -0.5518
  150ccc    H11 4106   3.452   5.969  10.058  0.9565 -0.2096  0.8883
  150ccc     O6 4107   3.670   5.706  10.023  0.0102 -0.2334 -0.2001
  151ccc     C1 4108   5.881   5.613   9.180  0.8766 -0.8801  0.5423
  151ccc     C2 4109   5.818   5.662   9.316 -0.4230 -0.7638 -0.7641
  151ccc     H1 4110   5.990   5.608   9.190  0.7821 -0.0180  2.4006
  151ccc     H2 4111   5.844   5.586   9.391  0.3200  2.3481  2.3255
  151ccc     C3 4112   5.860   5.808   9.357 -0.5878  0.4045 -0.2376
  151ccc     C4 4113   5.834   5.901   9.242  0.2811 -0.9123 -0.0630
  151ccc     C5 4114   5.900   5.854   9.112  0.2753  0.0512 -0.3255
  151ccc     H3 4115   5.726   5.905   9.229  0.3504  1.6697 -0.4676
  151ccc     H4 4116   5.968   5.814   9.378  0.2357 -0.7957 -3.4699
  151ccc     H5 4117   6.009   5.859   9.122  0.3016 -2.0572  0.9339
  151ccc     O1 4118   5.865   5.937   9.003  0.0130  0.0867  0.2876
  151ccc     O2 4119   5.883   6.034   9.273  0.6651 -0.1448  0.2485
  151ccc     O3 4120   5.804   5.851   9.477 -0.1396 -0.3293 -0.1425
  151ccc     O4 4121   5.676   5.656   9.287  0.4015  0.0618 -0.4167
  151ccc     C6 4122   5.837   5.468   9.136 -0.0878 -0.3713  0.0782
  151ccc     H6 4123   5.796   5.948   9.482  0.9729 -0.2840  1.4068
  151ccc     H7 4124   5.676   5.602   9.207  1.7218 -0.0309 -0.3675
  151ccc     H8 4125   5.818   6.089   9.226  1.0706 -0.0501 -0.2055
  151ccc     H9 4126   5.866   5.396   9.214 -1.3012 -0.2348  0.6889
  151ccc    H10 4127   5.884   5.437   9.042  0.1654 -1.2691  0.4834
  151ccc     O5 4128   5.689   5.463   9.120 -0.0946 -0.5373 -0.0599
  151ccc    H11 4129   5.687   5.424   9.031 -1.8227  2.3939 -1.4319
  151ccc     O6 4130   5.850   5.716   9.083  0.0912 -0.2244  0.2967
  152ccc     C1 4131   6.186   5.171   8.891 -0.4182 -0.3983  0.3967
  152ccc     C2 4132   6.272   5.180   9.020  0.8704  0.8174 -0.3860
  152ccc     H1 4133   6.255   5.164   8.806  1.0815 -0.0341  1.5249
  152ccc     H2 4134   6.342   5.097   9.032  1.0641  1.0862  0.4106
  152ccc     C3 4135   6.362   5.306   9.015  0.7004 -0.7686 -0.6582
  152ccc     C4 4136   6.279   5.434   8.965  0.4329  0.4642  0.6313
  152ccc     C5 4137   6.180   5.411   8.844  0.5070 -0.5061  0.2412
  152ccc     H3 4138   6.200   5.458   9.038 -2.1745 -1.3808 -1.3809
  152ccc     H4 4139   6.436   5.286   8.936  0.5255 -1.8831 -0.5573
  152ccc     H5 4140   6.243   5.413   8.755 -2.1326  0.0121 -1.7460
  152ccc     O1 4141   6.089   5.519   8.827  0.1526  0.2188 -0.8997
  152ccc     O2 4142   6.371   5.540   8.952 -0.2563  0.2403 -0.1915
  152ccc     O3 4143   6.427   5.332   9.147 -0.3148  0.9599  0.4310
  152ccc     O4 4144   6.185   5.188   9.140 -0.0819  0.0817  0.2228
  152ccc     C6 4145   6.102   5.037   8.884 -0.0464 -0.6606  0.5311
  152ccc     H6 4146   6.507   5.384   9.129  0.9212 -0.7440  0.7540
  152ccc     H7 4147   6.243   5.191   9.218 -2.3809  3.8791  2.0937
  152ccc     H8 4148   6.382   5.578   9.041 -2.1706  0.4711 -0.0240
  152ccc     H9 4149   6.025   5.029   8.962 -1.3644 -0.1987 -0.6661
  152ccc    H10 4150   6.176   4.958   8.898  0.4782 -0.5009 -1.0726
  152ccc     O5 4151   6.048   5.030   8.752 -0.2108 -0.3861 -0.1209
  152ccc    H11 4152   5.993   4.950   8.756  0.0964 -0.5635  3.3917
  152ccc     O6 4153   6.109   5.293   8.866 -0.1384  0.2526 -0.3202
  153ccc     C1 4154   6.145   5.459   9.554 -0.2530  0.6748  0.2171
  153ccc     C2 4155   6.237   5.371   9.455  0.5709  0.4137 -0.0029
  153ccc     H1 4156   6.185   5.424   9.650 -1.7343 -1.4568  0.1344
  153ccc     H2 4157   6.339   5.380   9.493 -0.1570  1.2774  1.8824
  153ccc     C3 4158   6.195   5.216   9.471 -0.3365  0.3613  0.3500
  153ccc     C4 4159   6.048   5.195   9.456 -0.3378 -0.8502 -0.0008
  153ccc     C5 4160   5.972   5.285   9.554 -0.2764  0.2913 -0.1829
  153ccc     H3 4161   6.018   5.229   9.356  1.1895  1.0398  0.1151
  153ccc     H4 4162   6.220   5.183   9.573 -1.7329 -0.5396  0.4176
  153ccc     H5 4163   5.988   5.246   9.655  0.7439 -2.5875 -1.3459
  153ccc     O1 4164   5.829   5.270   9.520 -0.4055 -0.1698  0.1991
  153ccc     O2 4165   6.006   5.062   9.477  0.0033 -0.1043  0.0191
  153ccc     O3 4166   6.278   5.131   9.383 -0.1675  0.4810  0.4461
  153ccc     O4 4167   6.223   5.413   9.319 -0.1156 -0.3442 -1.1469
  153ccc     C6 4168   6.161   5.608   9.544 -0.3768 -0.2525 -0.4436
  153ccc     H6 4169   6.274   5.039   9.415 -0.1634  0.0118 -0.8294
  153ccc     H7 4170   6.285   5.370   9.257  1.3006  1.2212 -0.9156
  153ccc     H8 4171   6.033   5.008   9.401  0.0211  0.6734 -0.5404
  153ccc     H9 4172   6.268   5.634   9.550 -0.5371  0.3942 -0.3230
  153ccc    H10 4173   6.107   5.659   9.625  0.8210  0.5470 -0.1090
  153ccc     O5 4174   6.120   5.649   9.412  0.0357  0.4257 -0.2323
  153ccc    H11 4175   6.142   5.578   9.350  1.9805  0.0290  0.8636
  153ccc     O6 4176   6.007   5.423   9.536 -0.6003  0.4548 -0.1284
  154ccc     C1 4177   5.474   4.883   8.744  0.4638 -0.1488 -0.1801
  154ccc     C2 4178   5.612   4.815   8.749 -0.4169  0.1906  0.6486
  154ccc     H1 4179   5.465   4.944   8.653 -0.5887  0.1237  0.0955
  154ccc     H2 4180   5.632   4.757   8.659 -0.6006 -1.7218  1.7777
  154ccc     C3 4181   5.724   4.924   8.765  0.1479 -0.3162  0.0440
  154ccc     C4 4182   5.699   5.038   8.867 -0.3214  0.4147 -0.1993
  154ccc     C5 4183   5.551   5.080   8.868 -0.0267 -0.2796 -0.2075
  154ccc     H3 4184   5.704   4.994   8.968 -3.2127  1.4354  0.4893
  154ccc     H4 4185   5.725   4.963   8.663  1.9683  2.1808  0.9424
  154ccc     H5 4186   5.537   5.144   8.781 -1.4286  0.3244  0.4330
  154ccc     O1 4187   5.530   5.157   8.987  0.5797  0.0990 -0.6917
  154ccc     O2 4188   5.792   5.147   8.848  0.0258 -0.1469  0.1089
  154ccc     O3 4189   5.849   4.864   8.799  0.5051  0.1664  0.6716
  154ccc     O4 4190   5.620   4.738   8.867 -0.3045  0.0845 -0.2881
  154ccc     C6 4191   5.362   4.782   8.754 -0.2572  0.0965 -0.4011
  154ccc     H6 4192   5.827   4.774   8.827  1.0652 -1.4433 -3.3917
  154ccc     H7 4193   5.524   4.724   8.867 -0.5293  1.2811 -2.2438
  154ccc     H8 4194   5.871   5.102   8.815 -2.0345 -2.7433 -1.6543
  154ccc     H9 4195   5.359   4.722   8.662  2.4375  0.2314 -0.6440
  154ccc    H10 4196   5.265   4.834   8.759 -1.0603 -1.2795 -0.9866
  154ccc     O5 4197   5.371   4.693   8.866  0.6210  0.2287 -0.5176
  154ccc    H11 4198   5.279   4.688   8.898  0.1614 -0.5846 -1.8592
  154ccc     O6 4199   5.458   4.972   8.859  0.3230  0.0382 -0.2110
  155ccc     C1 4200   6.069   7.700   8.348 -0.0870 -0.0517 -0.0997
  155ccc     C2 4201   6.133   7.693   8.208  0.5869 -0.8571  0.4039
  155ccc     H1 4202   6.150   7.699   8.423  0.5490 -1.6712 -0.7613
  155ccc     H2 4203   6.204   7.776   8.205  2.2910 -2.2477  0.5972
  155ccc     C3 4204   6.201   7.560   8.173 -0.5422  0.1435 -0.3096
  155ccc     C4 4205   6.124   7.434   8.217 -0.2683 -0.4562 -0.5709
  155ccc     C5 4206   6.077   7.453   8.370 -0.0922  0.2351  0.4692
  155ccc     H3 4207   6.025   7.448   8.173 -1.4061  2.3795  2.4253
  155ccc     H4 4208   6.295   7.558   8.229 -0.2419 -0.6797 -0.8204
  155ccc     H5 4209   6.169   7.469   8.427 -0.7086 -1.1343  1.9190
  155ccc     O1 4210   6.002   7.336   8.415 -0.3568 -0.1493 -0.3760
  155ccc     O2 4211   6.196   7.309   8.193  0.4280  0.6362  0.1326
  155ccc     O3 4212   6.251   7.553   8.033 -0.0488  0.6041  0.1924
  155ccc     O4 4213   6.024   7.706   8.113 -0.1426 -0.2874 -0.4255
  155ccc     C6 4214   5.981   7.823   8.373  0.7268 -0.9205  0.2460
  155ccc     H6 4215   6.169   7.541   7.983 -0.4091  1.1080  0.6487
  155ccc     H7 4216   6.068   7.744   8.035 -0.2619 -0.2660 -0.4832
  155ccc     H8 4217   6.135   7.238   8.168  3.1879 -1.4219 -1.2279
  155ccc     H9 4218   5.877   7.806   8.341  1.2439 -1.1941 -1.3835
  155ccc    H10 4219   6.017   7.914   8.323 -3.1614  3.3218  4.1362
  155ccc     O5 4220   5.985   7.851   8.517 -0.0073  0.0901 -0.0641
  155ccc    H11 4221   6.076   7.883   8.532 -0.6956  2.3277 -0.2787
  155ccc     O6 4222   6.000   7.572   8.371 -0.2476 -0.2260  0.6002
  156ccc     C1 4223   6.325   6.898   9.060  0.3635  0.8448 -0.4732
  156ccc     C2 4224   6.286   6.757   9.125  0.6400 -0.3733 -0.6242
  156ccc     H1 4225   6.257   6.971   9.107 -0.1445 -1.4688  2.6866
  156ccc     H2 4226   6.292   6.768   9.234 -0.6487 -0.4094 -0.5288
  156ccc     C3 4227   6.142   6.723   9.089  0.3981 -0.0131 -0.7128
  156ccc     C4 4228   6.120   6.723   8.940 -0.0182 -0.7040 -0.3160
  156ccc     C5 4229   6.181   6.854   8.875  0.4269 -0.6747 -0.1188
  156ccc     H3 4230   6.187   6.640   8.912  1.2842 -0.8015  2.7436
  156ccc     H4 4231   6.075   6.801   9.128  0.5242 -0.4122  0.3507
  156ccc     H5 4232   6.110   6.937   8.890 -0.0503 -1.3912  1.8288
  156ccc     O1 4233   6.197   6.838   8.731 -0.1721 -0.2072 -0.3747
  156ccc     O2 4234   5.976   6.701   8.900  0.9334 -0.0777  0.9626
  156ccc     O3 4235   6.096   6.601   9.156 -0.3387  0.5705 -0.0448
  156ccc     O4 4236   6.380   6.661   9.077  0.5112  0.4560  0.1221
  156ccc     C6 4237   6.473   6.934   9.104  0.3649  0.3481  0.0117
  156ccc     H6 4238   6.031   6.639   9.218  0.4417  0.1794  1.0240
  156ccc     H7 4239   6.376   6.586   9.139 -1.2178  0.4335  0.0342
  156ccc     H8 4240   5.922   6.743   8.970 -2.8238 -3.3729  0.3492
  156ccc     H9 4241   6.545   6.855   9.078  1.7801  0.8909  2.0598
  156ccc    H10 4242   6.489   6.927   9.212  0.2662 -0.0773  0.0029
  156ccc     O5 4243   6.500   7.054   9.042  0.5199  0.3513  0.5537
  156ccc    H11 4244   6.527   7.018   8.955 -1.6344 -3.0350  1.1092
  156ccc     O6 4245   6.313   6.884   8.916 -0.1184  0.3899 -0.6756
  157ccc     C1 4246   5.079   8.454   8.393 -0.5096 -0.0679 -0.8687
  157ccc     C2 4247   5.027   8.555   8.497 -0.2734 -0.5237  0.4650
  157ccc     H1 4248   4.990   8.405   8.350 -0.7113  0.7486 -1.4166
  157ccc     H2 4249   4.957   8.612   8.434 -0.0036 -2.1478 -1.4394
  157ccc     C3 4250   4.943   8.483   8.616 -0.5849  0.2389  0.1201
  157ccc     C4 4251   5.027   8.371   8.682 -0.0458 -0.0406 -0.2256
  157ccc     C5 4252   5.081   8.278   8.564  0.1070 -0.0686 -0.1964
  157ccc     H3 4253   5.121   8.410   8.723  0.4154  0.7778 -1.9432
  157ccc     H4 4254   4.862   8.434   8.561 -0.2919  1.3393 -1.3491
  157ccc     H5 4255   4.991   8.231   8.522 -0.2645  0.0730  0.4393
  157ccc     O1 4256   5.171   8.181   8.632  0.1512 -0.4133 -0.3261
  157ccc     O2 4257   4.953   8.296   8.782  0.7889  0.2357 -0.7427
  157ccc     O3 4258   4.900   8.588   8.709  0.1102 -0.1640  0.1128
  157ccc     O4 4259   5.136   8.628   8.550 -0.6770  0.2914 -0.2007
  157ccc     C6 4260   5.166   8.523   8.284 -0.4717  0.3070  0.0040
  157ccc     H6 4261   4.842   8.549   8.777 -0.1938 -0.1042 -0.1103
  157ccc     H7 4262   5.108   8.693   8.617  0.5681  0.4791  0.1470
  157ccc     H8 4263   5.009   8.256   8.850 -0.5075  0.0840  0.2741
  157ccc     H9 4264   5.126   8.622   8.258  0.2714  1.1540  1.9064
  157ccc    H10 4265   5.175   8.458   8.196  2.3293  1.3583 -0.5732
  157ccc     O5 4266   5.290   8.542   8.352 -0.0901  0.4628 -0.1365
  157ccc    H11 4267   5.249   8.582   8.430 -0.0239  1.0214 -0.3800
  157ccc     O6 4268   5.156   8.350   8.461 -0.5342 -0.0063  0.2889
  158ccc     C1 4269   6.246   8.114   8.591  0.8953 -0.4767  0.2974
  158ccc     C2 4270   6.319   7.986   8.630 -0.3112  0.0141 -0.6666
  158ccc     H1 4271   6.303   8.188   8.648  0.6118 -1.1807  1.5168
  158ccc     H2 4272   6.421   8.007   8.595 -1.0344  1.8259 -1.8052
  158ccc     C3 4273   6.307   7.974   8.785 -0.4262 -0.3266 -0.3045
  158ccc     C4 4274   6.159   7.978   8.842 -0.3426 -0.3211  0.1877
  158ccc     C5 4275   6.085   8.098   8.780 -0.2337  0.1015 -0.0448
  158ccc     H3 4276   6.111   7.888   8.801 -0.8346 -1.4827  3.0865
  158ccc     H4 4277   6.346   8.066   8.832 -0.5507 -0.7364  0.6199
  158ccc     H5 4278   6.127   8.187   8.829  0.8241 -1.1993  1.4909
  158ccc     O1 4279   5.946   8.085   8.808  0.1679  0.0338  0.3193
  158ccc     O2 4280   6.153   7.970   8.990 -0.1101  0.6535  0.1518
  158ccc     O3 4281   6.370   7.854   8.831  0.6910  0.3479 -0.1699
  158ccc     O4 4282   6.247   7.877   8.568  0.3116 -0.0420 -0.4149
  158ccc     C6 4283   6.245   8.142   8.436  0.1087 -0.4110  0.5433
  158ccc     H6 4284   6.398   7.877   8.921 -0.5400  2.7579 -0.3354
  158ccc     H7 4285   6.305   7.815   8.521 -1.1314 -2.4060  0.7330
  158ccc     H8 4286   6.057   7.968   9.011 -0.1342  1.9485  0.2237
  158ccc     H9 4287   6.180   8.067   8.387  0.6814 -0.2410 -0.5153
  158ccc    H10 4288   6.342   8.133   8.387  1.1931 -2.0308  2.7946
  158ccc     O5 4289   6.191   8.269   8.408 -0.5005  0.1088  0.4750
  158ccc    H11 4290   6.094   8.257   8.410 -0.7339  1.4523 -0.9659
  158ccc     O6 4291   6.112   8.109   8.637 -0.0178 -0.1617  0.1041
  159ccc     C1 4292   4.518   9.302  10.841 -0.5417 -0.4273 -0.1721
  159ccc     C2 4293   4.395   9.316  10.748 -0.4731  0.1796 -1.0604
  159ccc     H1 4294   4.497   9.302  10.949  0.9442  2.0112  0.1927
  159ccc     H2 4295   4.326   9.237  10.781  0.7424 -0.0949  1.0463
  159ccc     C3 4296   4.322   9.444  10.762  0.5270 -0.8342  0.3563
  159ccc     C4 4297   4.414   9.566  10.762 -0.0238 -0.9160  0.0980
  159ccc     C5 4298   4.535   9.541  10.859  0.4737 -0.0111  0.1568
  159ccc     H3 4299   4.450   9.577  10.659  0.5075  0.2080  0.3893
  159ccc     H4 4300   4.270   9.447  10.858  0.2120  1.5462  0.1721
  159ccc     H5 4301   4.511   9.529  10.965  2.0210 -0.9630  0.4301
  159ccc     O1 4302   4.641   9.634  10.848  0.2597  0.1387  0.3498
  159ccc     O2 4303   4.356   9.693  10.787  0.0055  0.1480  0.0294
  159ccc     O3 4304   4.229   9.451  10.657  0.6715 -0.1675 -0.3080
  159ccc     O4 4305   4.439   9.308  10.611  0.2495  0.5780 -0.5093
  159ccc     C6 4306   4.614   9.180  10.819 -0.0221  0.4252  0.4697
  159ccc     H6 4307   4.158   9.507  10.694 -0.2620 -0.7574 -1.1347
  159ccc     H7 4308   4.387   9.377  10.566  1.9254  1.1567 -1.6659
  159ccc     H8 4309   4.401   9.765  10.740 -1.5193  0.1814 -1.5124
  159ccc     H9 4310   4.554   9.091  10.839  0.9470 -0.4197 -0.3110
  159ccc    H10 4311   4.699   9.178  10.888  0.6746 -0.4666 -0.3861
  159ccc     O5 4312   4.660   9.175  10.682  0.0506  0.1817  0.2565
  159ccc    H11 4313   4.583   9.222  10.647  0.0930 -1.2911 -2.0676
  159ccc     O6 4314   4.589   9.422  10.816 -0.4173  0.3171 -0.0232
  160ccc     C1 4315   5.638   9.450  11.187  0.2749  0.0986 -0.6642
  160ccc     C2 4316   5.711   9.573  11.247  0.5090 -0.0556 -0.5289
  160ccc     H1 4317   5.706   9.401  11.115 -2.6766  0.7846 -4.1842
  160ccc     H2 4318   5.794   9.538  11.309  0.1814 -0.4569 -0.3160
  160ccc     C3 4319   5.759   9.667  11.138 -0.8103 -0.8941  0.1777
  160ccc     C4 4320   5.648   9.709  11.039  0.0435 -0.0691  0.0945
  160ccc     C5 4321   5.563   9.590  10.991 -0.1233 -0.1217 -0.7611
  160ccc     H3 4322   5.578   9.774  11.094 -0.4484  1.5633 -2.3295
  160ccc     H4 4323   5.819   9.607  11.068 -1.5098  0.4800 -1.7058
  160ccc     H5 4324   5.613   9.545  10.904  1.4642  0.4572 -0.1861
  160ccc     O1 4325   5.432   9.645  10.942 -0.4403 -0.3512 -0.7469
  160ccc     O2 4326   5.702   9.778  10.918 -0.1710  0.0972  0.4948
  160ccc     O3 4327   5.819   9.782  11.197 -0.5592  0.0378  0.4560
  160ccc     O4 4328   5.610   9.637  11.329 -0.2462  0.2004  0.6802
  160ccc     C6 4329   5.572   9.347  11.283  0.3073  0.6051  0.0253
  160ccc     H6 4330   5.879   9.824  11.132  1.3395 -0.0952  2.0226
  160ccc     H7 4331   5.562   9.556  11.351 -0.2188  0.1283  0.4808
  160ccc     H8 4332   5.795   9.797  10.939  0.7551 -1.0966 -2.0425
  160ccc     H9 4333   5.648   9.284  11.331 -0.0622 -0.9360 -1.3054
  160ccc    H10 4334   5.509   9.292  11.212  0.4106  1.6206 -0.8775
  160ccc     O5 4335   5.497   9.421  11.377 -0.3246  0.0183 -0.0377
  160ccc    H11 4336   5.407   9.420  11.339 -0.3720 -1.0077  0.0738
  160ccc     O6 4337   5.525   9.498  11.102  0.2163 -0.1275 -0.1292
  161ccc     C1 4338   5.711   9.656   9.846  0.2092  0.5841 -0.2482
  161ccc     C2 4339   5.867   9.651   9.833 -0.4706  0.1577  0.6767
  161ccc     H1 4340   5.700   9.704   9.944  1.5075  2.0036 -0.7697
  161ccc     H2 4341   5.915   9.749   9.843 -0.3486  0.1106  0.5634
  161ccc     C3 4342   5.926   9.560   9.949 -0.6012  0.0642 -0.3076
  161ccc     C4 4343   5.856   9.419   9.950  0.0953  0.2525 -0.1009
  161ccc     C5 4344   5.700   9.429   9.955 -0.7556 -0.0127  0.4669
  161ccc     H3 4345   5.878   9.360   9.860 -1.7172  0.2945 -0.6067
  161ccc     H4 4346   5.915   9.619  10.040 -0.1998 -0.3395  0.0090
  161ccc     H5 4347   5.679   9.474  10.053  0.5968  2.3478 -0.2477
  161ccc     O1 4348   5.630   9.298   9.933  0.1984  0.7400 -0.0841
  161ccc     O2 4349   5.910   9.354  10.061 -0.1350  0.7389  0.5256
  161ccc     O3 4350   6.068   9.542   9.914 -0.2794 -0.0998  0.2939
  161ccc     O4 4351   5.905   9.608   9.700  0.0275 -0.3247 -0.1322
  161ccc     C6 4352   5.647   9.745   9.740  0.0853 -0.1536  0.5635
  161ccc     H6 4353   6.090   9.477   9.984 -0.1118 -2.2921 -1.6587
  161ccc     H7 4354   6.002   9.604   9.695  0.0405  0.9695 -3.7064
  161ccc     H8 4355   5.878   9.403  10.139 -1.0816  0.7376  0.1520
  161ccc     H9 4356   5.631   9.699   9.642 -1.2822  0.2762  0.5674
  161ccc    H10 4357   5.704   9.838   9.728 -0.9290  0.5700  1.1424
  161ccc     O5 4358   5.520   9.789   9.779  0.2751 -0.1246 -0.2217
  161ccc    H11 4359   5.481   9.826   9.698 -0.4312  1.0133  0.6151
  161ccc     O6 4360   5.662   9.521   9.839 -0.2380  0.0823 -0.3493
  162ccc     C1 4361   5.395   9.714   9.429  0.0444  0.1701 -0.5068
  162ccc     C2 4362   5.338   9.852   9.461  0.4826 -0.0642 -0.3064
  162ccc     H1 4363   5.325   9.665   9.360 -1.7890  1.4335  0.3945
  162ccc     H2 4364   5.355   9.909   9.369 -2.3887  2.4643  0.5360
  162ccc     C3 4365   5.188   9.837   9.495  0.6897 -0.3642  0.1881
  162ccc     C4 4366   5.164   9.730   9.611 -0.1971 -0.1014 -0.0459
  162ccc     C5 4367   5.243   9.596   9.574 -0.1156 -0.2742  0.1065
  162ccc     H3 4368   5.216   9.763   9.702 -0.8331 -0.5055  0.4681
  162ccc     H4 4369   5.144   9.796   9.403  0.9838 -2.4140  0.8932
  162ccc     H5 4370   5.200   9.544   9.488  1.3513 -0.3477 -0.6142
  162ccc     O1 4371   5.237   9.511   9.687 -0.5726  0.1901 -0.4938
  162ccc     O2 4372   5.024   9.699   9.646 -0.9004  0.3714 -0.1929
  162ccc     O3 4373   5.125   9.968   9.526  0.2020 -0.7485 -0.3871
  162ccc     O4 4374   5.416   9.915   9.571  0.4076 -0.1305  0.7341
  162ccc     C6 4375   5.529   9.715   9.350  0.0573 -0.3429 -0.1741
  162ccc     H6 4376   5.137   9.983   9.622 -1.4533 -1.8066  0.0400
  162ccc     H7 4377   5.399  10.009   9.552  0.2454 -0.6825 -2.3775
  162ccc     H8 4378   4.988   9.648   9.571  0.0762  1.1135 -1.2035
  162ccc     H9 4379   5.600   9.776   9.407 -0.1955 -0.4590  0.2670
  162ccc    H10 4380   5.534   9.764   9.251  1.1275  0.5899  0.3136
  162ccc     O5 4381   5.582   9.584   9.346  0.1507  0.1329 -0.1522
  162ccc    H11 4382   5.513   9.535   9.299  2.0125 -1.3428 -1.4921
  162ccc     O6 4383   5.380   9.627   9.542  0.2894  0.0249 -0.6472
  163ccc     C1 4384   2.619  10.375   9.977  0.2716  0.2046  0.1861
  163ccc     C2 4385   2.486  10.412  10.051 -0.5413 -0.6282  0.8717
  163ccc     H1 4386   2.602  10.270   9.948  0.0698 -0.1198  1.3957
  163ccc     H2 4387   2.399  10.401   9.986 -0.1007  0.2344  0.1177
  163ccc     C3 4388   2.464  10.323  10.172  0.4119  0.5516  0.3871
  163ccc     C4 4389   2.584  10.330  10.273 -0.1387  0.7825 -0.3594
  163ccc     C5 4390   2.720  10.304  10.200  0.0365 -0.2005  0.4829
  163ccc     H3 4391   2.600  10.429  10.318 -1.8630  1.4346 -1.0855
  163ccc     H4 4392   2.471  10.219  10.139 -0.4442  0.4281  0.5846
  163ccc     H5 4393   2.721  10.198  10.169 -0.2730  0.2521 -1.2005
  163ccc     O1 4394   2.835  10.333  10.281 -0.1865  0.2135 -0.3384
  163ccc     O2 4395   2.559  10.231  10.380 -0.0863 -0.4691 -0.2195
  163ccc     O3 4396   2.340  10.344  10.245 -0.7535  0.0276 -0.0645
  163ccc     O4 4397   2.506  10.542  10.088  0.1696  0.4648  0.3503
  163ccc     C6 4398   2.661  10.460   9.854  0.1206 -0.5232 -0.2414
  163ccc     H6 4399   2.329  10.263  10.298 -2.2144 -0.0188 -0.3829
  163ccc     H7 4400   2.562  10.561  10.011  0.0717 -1.6184 -0.3041
  163ccc     H8 4401   2.498  10.268  10.446  0.0966  0.2867 -0.4643
  163ccc     H9 4402   2.600  10.435   9.766  2.1038 -2.4596 -1.1414
  163ccc    H10 4403   2.769  10.450   9.840  0.6941  2.0851  1.5585
  163ccc     O5 4404   2.655  10.604   9.884  0.0098  0.4961 -0.5504
  163ccc    H11 4405   2.701  10.647   9.810  3.2206 -1.3751  0.1498
  163ccc     O6 4406   2.732  10.381  10.075  0.3796  0.0793 -0.4350
  164ccc     C1 4407   2.668  11.012  10.675 -0.6255 -0.1440 -0.0155
  164ccc     C2 4408   2.515  11.027  10.639 -0.2421  0.4208  0.0094
  164ccc     H1 4409   2.730  11.069  10.605  0.2014 -1.1144 -0.1151
  164ccc     H2 4410   2.471  11.124  10.664 -2.4981  0.0968 -2.2435
  164ccc     C3 4411   2.490  10.990  10.490 -0.2442 -0.3331  0.9474
  164ccc     C4 4412   2.538  10.839  10.475  0.6225  0.1775  0.2919
  164ccc     C5 4413   2.681  10.818  10.529 -0.1181 -0.1317  0.0695
  164ccc     H3 4414   2.481  10.769  10.536 -0.8155 -1.1723 -2.4334
  164ccc     H4 4415   2.533  11.058  10.416  0.5655 -0.5790  1.1733
  164ccc     H5 4416   2.752  10.872  10.465 -2.5713 -0.2701 -3.0091
  164ccc     O1 4417   2.716  10.677  10.525 -0.9076  0.0038 -0.5769
  164ccc     O2 4418   2.551  10.809  10.330 -0.1107 -0.1272  0.1805
  164ccc     O3 4419   2.351  11.002  10.468 -0.5036  0.4446 -0.2748
  164ccc     O4 4420   2.447  10.931  10.721  0.2592  0.2426  0.1335
  164ccc     C6 4421   2.694  11.053  10.819 -0.4270  0.7808  0.3934
  164ccc     H6 4422   2.351  11.037  10.377  1.0950  1.4748  0.0758
  164ccc     H7 4423   2.507  10.939  10.797 -0.2396  0.8220  0.4718
  164ccc     H8 4424   2.467  10.809  10.281 -0.3701 -2.5736  0.5094
  164ccc     H9 4425   2.687  11.163  10.820  0.9673  0.9528 -1.7852
  164ccc    H10 4426   2.797  11.032  10.851 -0.9129 -2.3127  0.1457
  164ccc     O5 4427   2.605  10.992  10.922  0.2517 -0.2716 -0.2537
  164ccc    H11 4428   2.560  11.066  10.966 -1.1820 -1.0038 -0.4476
  164ccc     O6 4429   2.703  10.877  10.665  0.2044  0.2635 -0.2152
  165ccc     C1 4430   3.528  10.966  10.920  0.0283 -0.1462  0.3248
  165ccc     C2 4431   3.391  11.041  10.941 -0.1543  0.8207  0.2356
  165ccc     H1 4432   3.606  11.040  10.938  0.6273 -0.7375  0.1941
  165ccc     H2 4433   3.377  11.092  11.037  0.7286 -1.1103  1.4325
  165ccc     C3 4434   3.393  11.164  10.843  0.1950  0.3375 -0.2497
  165ccc     C4 4435   3.391  11.107  10.699  0.0981  0.4458  0.6314
  165ccc     C5 4436   3.518  11.021  10.676 -0.2105  0.1212  0.0464
  165ccc     H3 4437   3.297  11.051  10.696  0.6970 -0.5750  0.6750
  165ccc     H4 4438   3.482  11.220  10.872  0.0975  0.8429 -0.9080
  165ccc     H5 4439   3.602  11.092  10.675 -0.6217  0.7486 -3.6437
  165ccc     O1 4440   3.513  10.949  10.552  0.5466 -0.5275  0.4806
  165ccc     O2 4441   3.397  11.218  10.607 -0.0572  0.1118  1.0686
  165ccc     O3 4442   3.282  11.253  10.864  0.1806 -0.1855 -0.1012
  165ccc     O4 4443   3.286  10.949  10.924  0.0181  0.2127  0.4612
  165ccc     C6 4444   3.536  10.842  11.005  1.2218  0.4807 -0.5941
  165ccc     H6 4445   3.275  11.291  10.775  2.0221 -3.2467 -1.7380
  165ccc     H7 4446   3.201  10.992  10.944 -1.7430 -1.8372 -1.9186
  165ccc     H8 4447   3.429  11.199  10.517 -0.5070  1.8947  0.4791
  165ccc     H9 4448   3.471  10.761  10.968  2.2381 -0.6984  0.1516
  165ccc    H10 4449   3.504  10.876  11.104  1.0173  1.5888 -1.0130
  165ccc     O5 4450   3.669  10.800  11.006 -0.6859 -0.9596  0.0998
  165ccc    H11 4451   3.676  10.713  11.049 -0.0025 -1.2072 -0.4904
  165ccc     O6 4452   3.528  10.923  10.781  0.4711  0.1252 -0.2512
  166ccc     C1 4453   3.093  11.500  10.047 -0.8327 -0.2444 -0.1892
  166ccc     C2 4454   3.095  11.564  10.186  0.2598  0.7327 -0.5419
  166ccc     H1 4455   2.989  11.473  10.026 -0.2710 -0.9593 -2.2557
  166ccc     H2 4456   3.021  11.644  10.199 -0.1483  0.0693  1.8043
  166ccc     C3 4457   3.046  11.457  10.285  0.2339 -0.2742 -0.2788
  166ccc     C4 4458   3.120  11.323  10.271 -0.3133 -0.0778  0.2160
  166ccc     C5 4459   3.139  11.268  10.123  0.2001  0.6017 -0.5958
  166ccc     H3 4460   3.222  11.342  10.307 -0.8142  0.9124  1.1986
  166ccc     H4 4461   2.948  11.434  10.240  1.0004 -1.8184 -1.2566
  166ccc     H5 4462   3.046  11.220  10.092 -0.2697  1.8461 -1.1404
  166ccc     O1 4463   3.243  11.164  10.126 -0.4697 -0.2522 -0.4670
  166ccc     O2 4464   3.044  11.227  10.350 -0.8724  0.0547  0.6436
  166ccc     O3 4465   3.037  11.500  10.420  0.4074 -0.5018 -0.6789
  166ccc     O4 4466   3.219  11.624  10.215  0.1150  0.8821 -0.2044
  166ccc     C6 4467   3.141  11.594   9.927  0.5069  0.8575 -0.5488
  166ccc     H6 4468   2.987  11.582  10.412  0.7491  0.1031  2.2301
  166ccc     H7 4469   3.260  11.636  10.128 -0.7113  1.3220 -0.5557
  166ccc     H8 4470   3.028  11.282  10.429  0.4341 -1.0533  1.7327
  166ccc     H9 4471   3.072  11.680   9.925 -0.3530  0.2569  1.3343
  166ccc    H10 4472   3.129  11.539   9.832  1.4558 -1.0231  0.3681
  166ccc     O5 4473   3.281  11.624   9.945 -0.2641 -0.8093 -0.3227
  166ccc    H11 4474   3.287  11.690   9.873  0.3215 -1.4123 -0.8356
  166ccc     O6 4475   3.168  11.377  10.039 -0.0055 -0.1555  0.4963
  167ccc     C1 4476   3.411   9.733  12.570 -0.6185 -0.5731 -0.2254
  167ccc     C2 4477   3.366   9.877  12.601 -0.4593 -0.1135  0.5819
  167ccc     H1 4478   3.441   9.687  12.665  2.1634  0.7098 -0.4039
  167ccc     H2 4479   3.284   9.864  12.672  0.2969  0.4827  1.5944
  167ccc     C3 4480   3.483   9.959  12.670  0.0513  0.3276  0.0716
  167ccc     C4 4481   3.609   9.944  12.572 -0.4598  0.2324 -0.2060
  167ccc     C5 4482   3.641   9.797  12.535  0.4233  0.8211  0.0868
  167ccc     H3 4483   3.566   9.994  12.484 -0.7334  0.5207  0.0925
  167ccc     H4 4484   3.504   9.906  12.764 -0.5721 -3.7826 -1.8559
  167ccc     H5 4485   3.688   9.734  12.612 -1.4563 -2.4774 -1.2931
  167ccc     O1 4486   3.728   9.800  12.427 -1.2709  0.2260  0.0210
  167ccc     O2 4487   3.733  10.010  12.606  0.2669  0.0645 -0.6154
  167ccc     O3 4488   3.441  10.094  12.680  0.4057  0.0692  0.2980
  167ccc     O4 4489   3.308   9.951  12.489 -0.3686  0.8586 -0.7557
  167ccc     C6 4490   3.303   9.639  12.514  0.1522 -0.5942  0.0884
  167ccc     H6 4491   3.513  10.152  12.708  2.2051 -2.3155  0.9627
  167ccc     H7 4492   3.229   9.984  12.535  1.3704  0.6736  2.7287
  167ccc     H8 4493   3.800   9.983  12.541  0.6204  0.3198 -0.3631
  167ccc     H9 4494   3.279   9.675  12.414  0.0641  2.4112  1.0934
  167ccc    H10 4495   3.215   9.654  12.578 -0.7251  0.7453 -1.3559
  167ccc     O5 4496   3.351   9.508  12.525  0.2948 -0.2371  0.2772
  167ccc    H11 4497   3.406   9.497  12.445  3.4801 -1.1166  2.3885
  167ccc     O6 4498   3.523   9.740  12.478 -0.5867 -0.3614 -0.6099
  168ccc     C1 4499   4.502  10.243  12.451 -0.4188 -0.4754  0.0394
  168ccc     C2 4500   4.600  10.139  12.508 -0.0672  0.5770  0.3576
  168ccc     H1 4501   4.440  10.277  12.535 -0.4706 -1.7436  0.5380
  168ccc     H2 4502   4.640  10.194  12.595 -1.9520  0.6110  1.2427
  168ccc     C3 4503   4.535  10.006  12.549  0.3066 -0.1897  1.0440
  168ccc     C4 4504   4.422   9.960  12.448  0.3968 -0.3590 -0.0568
  168ccc     C5 4505   4.341  10.076  12.386  0.0860  0.6448  0.1272
  168ccc     H3 4506   4.471   9.904  12.367 -1.0932  0.8882 -1.8720
  168ccc     H4 4507   4.475  10.019  12.640  2.3909  2.1826  2.1817
  168ccc     H5 4508   4.273  10.119  12.460 -0.0824  1.2281 -0.3535
  168ccc     O1 4509   4.282  10.027  12.264 -0.7129 -0.0278  0.0462
  168ccc     O2 4510   4.335   9.859  12.515 -0.6113 -0.5056 -0.8348
  168ccc     O3 4511   4.641   9.902  12.569  0.4759 -0.0614 -0.4699
  168ccc     O4 4512   4.709  10.106  12.418 -0.2893  0.2158  0.2443
  168ccc     C6 4513   4.575  10.365  12.395 -0.2563 -0.1204  0.7589
  168ccc     H6 4514   4.642   9.904  12.666  0.1949 -0.5927 -0.4522
  168ccc     H7 4515   4.753  10.030  12.461  1.0986  0.9642  0.1922
  168ccc     H8 4516   4.289   9.897  12.592 -1.6390 -1.1341 -1.1239
  168ccc     H9 4517   4.635  10.356  12.303 -0.2639  3.2830  0.2877
  168ccc    H10 4518   4.638  10.415  12.469 -0.0849 -0.8696  1.1246
  168ccc     O5 4519   4.470  10.464  12.368  0.2864  0.1872 -0.3280
  168ccc    H11 4520   4.514  10.539  12.325 -2.7421  1.9938 -0.6246
  168ccc     O6 4521   4.431  10.187  12.345  0.4266 -0.1753 -0.6047
  169ccc     C1 4522   5.248   9.802  11.354 -0.5250  0.2925 -0.4751
  169ccc     C2 4523   5.218   9.671  11.436  0.3615 -0.1092 -0.3078
  169ccc     H1 4524   5.350   9.828  11.384  0.4431 -2.1479 -1.4098
  169ccc     H2 4525   5.305   9.606  11.420 -1.4012 -2.4794 -0.8373
  169ccc     C3 4526   5.197   9.694  11.587 -0.2664 -0.1671 -0.0976
  169ccc     C4 4527   5.107   9.819  11.618  0.2307 -0.7136  0.7146
  169ccc     C5 4528   5.136   9.946  11.528  0.6143 -0.1821  0.1665
  169ccc     H3 4529   5.000   9.794  11.613 -0.4457  1.4971  2.5422
  169ccc     H4 4530   5.296   9.723  11.625 -0.1043 -1.0184  0.1433
  169ccc     H5 4531   5.230   9.984  11.568  1.1471 -2.0365  0.7286
  169ccc     O1 4532   5.027  10.045  11.539 -0.1823 -0.1534  0.5492
  169ccc     O2 4533   5.116   9.856  11.757 -0.0939 -0.0702  0.5026
  169ccc     O3 4534   5.143   9.591  11.673 -0.2778 -0.1708  0.1156
  169ccc     O4 4535   5.089   9.628  11.384  0.5062  0.1167  0.0591
  169ccc     C6 4536   5.272   9.784  11.201  0.3850 -0.5900  0.9449
  169ccc     H6 4537   5.139   9.628  11.763  0.8045 -0.1394  0.1550
  169ccc     H7 4538   5.073   9.538  11.419 -0.6846  0.6579  1.0096
  169ccc     H8 4539   5.089   9.949  11.772  1.8621  0.1365  3.4321
  169ccc     H9 4540   5.183   9.739  11.155  0.2688 -0.1327  0.7193
  169ccc    H10 4541   5.362   9.720  11.195  1.9693  1.5105  1.2760
  169ccc     O5 4542   5.298   9.914  11.146 -0.1008  0.4433 -0.1474
  169ccc    H11 4543   5.340   9.911  11.058 -0.5018 -1.4504 -0.3273
  169ccc     O6 4544   5.153   9.909  11.387  0.0486  0.1610  0.4033
  170ccc     C1 4545   4.860  10.738  11.204 -0.7073  0.4483 -0.6261
  170ccc     C2 4546   5.015  10.752  11.233  0.0022 -0.1222 -0.2492
  170ccc     H1 4547   4.821  10.840  11.213  0.5523  0.9164 -0.2429
  170ccc     H2 4548   5.071  10.832  11.182 -2.2078  2.1441  0.6876
  170ccc     C3 4549   5.029  10.796  11.381 -0.2632  0.3171  0.3300
  170ccc     C4 4550   4.955  10.701  11.476 -0.2795 -0.6412  0.4884
  170ccc     C5 4551   4.811  10.683  11.438  0.9147 -0.8920 -0.3101
  170ccc     H3 4552   4.996  10.600  11.464  0.9537 -0.1385  0.3397
  170ccc     H4 4553   4.987  10.896  11.392  3.0844  1.7405  1.3726
  170ccc     H5 4554   4.755  10.774  11.461 -0.5202 -1.1026 -2.6674
  170ccc     O1 4555   4.745  10.574  11.517  0.7747  0.0952  0.4262
  170ccc     O2 4556   4.964  10.743  11.613 -0.6699  0.2856 -0.3689
  170ccc     O3 4557   5.173  10.799  11.413  0.4869 -0.2393  0.6325
  170ccc     O4 4558   5.071  10.624  11.208 -0.6994  0.2854 -0.0395
  170ccc     C6 4559   4.825  10.693  11.062  0.2371  0.0997 -0.0657
  170ccc     H6 4560   5.213  10.863  11.352  0.3789 -2.0399 -1.4451
  170ccc     H7 4561   5.166  10.633  11.226 -0.8037 -0.0301  0.7199
  170ccc     H8 4562   5.061  10.739  11.621 -0.7401 -0.3711  0.2875
  170ccc     H9 4563   4.884  10.757  10.996  0.9033  1.8303  2.0726
  170ccc    H10 4564   4.717  10.706  11.045 -0.0884 -0.9963  1.0061
  170ccc     O5 4565   4.839  10.555  11.043  0.2479  0.1076  0.5780
  170ccc    H11 4566   4.810  10.557  10.950 -1.7422  1.4618  1.1616
  170ccc     O6 4567   4.805  10.648  11.298  0.0686  0.4983 -0.0524
  171ccc     C1 4568   3.313   8.524  11.898 -0.9655  0.0381  0.0713
  171ccc     C2 4569   3.429   8.427  11.866 -0.1784  0.0109  0.1050
  171ccc     H1 4570   3.296   8.588  11.810 -1.4371  1.1896  0.9796
  171ccc     H2 4571   3.421   8.388  11.764  2.1369 -0.8196  0.1789
  171ccc     C3 4572   3.567   8.493  11.864 -0.4181 -0.1281  0.1777
  171ccc     C4 4573   3.596   8.560  11.998  0.6360  0.6267  0.4390
  171ccc     C5 4574   3.477   8.659  12.019  0.1558 -0.6884 -0.5585
  171ccc     H3 4575   3.586   8.482  12.075 -2.9683  1.2487  0.7652
  171ccc     H4 4576   3.559   8.567  11.784 -1.7326 -0.3664  0.0665
  171ccc     H5 4577   3.472   8.741  11.946  2.0021  0.5230  0.5780
  171ccc     O1 4578   3.504   8.720  12.148  0.6513 -0.6828  0.1135
  171ccc     O2 4579   3.728   8.620  11.996  0.2263  0.0632 -0.1657
  171ccc     O3 4580   3.666   8.396  11.820  0.2130  0.0867 -0.3631
  171ccc     O4 4581   3.433   8.318  11.963 -0.0813  0.0083  0.3740
  171ccc     C6 4582   3.187   8.446  11.925  0.1484 -0.2319 -0.8466
  171ccc     H6 4583   3.653   8.404  11.724 -1.1001  1.4385 -0.1252
  171ccc     H7 4584   3.458   8.242  11.908  0.2370 -0.0332  0.5777
  171ccc     H8 4585   3.779   8.574  11.928  2.0580 -1.2145  1.9632
  171ccc     H9 4586   3.195   8.399  12.024 -0.8539 -1.0506 -1.1405
  171ccc    H10 4587   3.173   8.366  11.852  0.2120  0.5183 -1.6940
  171ccc     O5 4588   3.082   8.541  11.921 -0.0753  0.0294 -0.0462
  171ccc    H11 4589   3.108   8.603  11.992  0.9924 -0.9026  0.4018
  171ccc     O6 4590   3.352   8.593  12.022  0.7607  0.3865 -0.4149
  172ccc     C1 4591   4.258   9.554  12.162  0.0882  0.1907  0.7224
  172ccc     C2 4592   4.264   9.610  12.015 -0.0545 -0.2632  0.9214
  172ccc     H1 4593   4.356   9.507  12.164  0.5642  1.1612  1.0754
  172ccc     H2 4594   4.356   9.671  12.013  1.4666 -2.4067  2.1494
  172ccc     C3 4595   4.261   9.491  11.914  0.0371  0.3466  0.0987
  172ccc     C4 4596   4.143   9.393  11.941 -0.5309 -0.6650 -0.1182
  172ccc     C5 4597   4.129   9.355  12.091  0.1948  0.0076 -0.1760
  172ccc     H3 4598   4.045   9.435  11.919  0.4497  1.6441 -0.3146
  172ccc     H4 4599   4.351   9.432  11.939 -1.0564 -1.8165 -0.8192
  172ccc     H5 4600   4.213   9.288  12.113  1.5467  0.9385 -2.1580
  172ccc     O1 4601   4.004   9.285  12.107 -0.1021  0.4501  0.5069
  172ccc     O2 4602   4.178   9.275  11.864  0.1059  0.0682  0.2248
  172ccc     O3 4603   4.268   9.539  11.774 -0.1686  0.5053 -0.2591
  172ccc     O4 4604   4.145   9.683  11.997  0.4419  0.2781 -0.7002
  172ccc     C6 4605   4.245   9.679  12.252 -0.1670 -0.2885 -0.8486
  172ccc     H6 4606   4.280   9.463  11.715 -1.0325 -0.1172  0.3449
  172ccc     H7 4607   4.164   9.723  11.911 -1.0721  1.1544 -0.6482
  172ccc     H8 4608   4.100   9.220  11.848 -0.3086 -0.0785  2.4109
  172ccc     H9 4609   4.147   9.728  12.244 -0.3588 -0.0468  1.9298
  172ccc    H10 4610   4.322   9.754  12.233  0.8081 -0.4890  1.7983
  172ccc     O5 4611   4.267   9.646  12.390  0.1735  0.2211  0.1994
  172ccc    H11 4612   4.295   9.724  12.440  1.2765 -0.8143  1.2846
  172ccc     O6 4613   4.140   9.470  12.178  0.1105  0.0725  0.1519
  173ccc     C1 4614   2.452   9.666  11.615  0.4540 -0.0349  0.5591
  173ccc     C2 4615   2.454   9.813  11.563 -0.2904  0.1127  0.1612
  173ccc     H1 4616   2.363   9.658  11.678 -0.9389 -0.0389 -1.2986
  173ccc     H2 4617   2.361   9.846  11.516 -0.9652 -0.5473  0.9955
  173ccc     C3 4618   2.484   9.909  11.682 -0.0332 -0.2251  0.1214
  173ccc     C4 4619   2.616   9.866  11.749  0.0821 -0.0650  0.0214
  173ccc     C5 4620   2.614   9.721  11.794  0.4267 -0.5103  0.3020
  173ccc     H3 4621   2.703   9.873  11.683 -0.0482  2.6428  0.0201
  173ccc     H4 4622   2.416   9.891  11.766  0.5167 -0.2219  0.5692
  173ccc     H5 4623   2.542   9.708  11.875 -2.3192 -2.2853 -2.1881
  173ccc     O1 4624   2.748   9.684  11.838  0.6668  0.1835  0.7475
  173ccc     O2 4625   2.635   9.952  11.865  0.4438  0.2845  0.4043
  173ccc     O3 4626   2.488  10.045  11.642  0.3333  0.5414 -0.1973
  173ccc     O4 4627   2.564   9.808  11.476 -0.5782 -0.1218  0.2199
  173ccc     C6 4628   2.437   9.555  11.505  0.3261 -0.1113 -0.1568
  173ccc     H6 4629   2.554  10.095  11.693  1.4158 -0.7355 -0.2837
  173ccc     H7 4630   2.534   9.847  11.392  1.3745 -0.5464 -0.7090
  173ccc     H8 4631   2.709  10.012  11.846  0.3241  0.3427  0.1182
  173ccc     H9 4632   2.536   9.554  11.459 -0.2832  3.4213 -1.9450
  173ccc    H10 4633   2.349   9.597  11.454 -1.0878  0.0669  2.2404
  173ccc     O5 4634   2.401   9.432  11.567  0.1892 -0.7340  0.1053
  173ccc    H11 4635   2.350   9.386  11.497 -1.9534  0.6892  0.6608
  173ccc     O6 4636   2.569   9.639  11.687 -0.4460  0.3584 -0.0054
  174ccc     C1 4637   2.785   9.849  12.816  0.0781  0.0591  0.3354
  174ccc     C2 4638   2.782   9.997  12.819 -0.4248 -0.2381 -0.7400
  174ccc     H1 4639   2.857   9.823  12.895  1.7685 -0.8113 -1.4009
  174ccc     H2 4640   2.758  10.026  12.922  0.7694 -1.1762 -0.1712
  174ccc     C3 4641   2.919  10.044  12.775 -0.0415 -0.2421 -0.4622
  174ccc     C4 4642   2.965   9.994  12.637  0.1794  0.3406  0.3882
  174ccc     C5 4643   2.976   9.836  12.656  0.3406 -0.3492  1.0414
  174ccc     H3 4644   2.882  10.018  12.568  1.4053  0.0066 -1.2613
  174ccc     H4 4645   2.993  10.005  12.846  0.4792 -0.2168 -0.9837
  174ccc     H5 4646   3.047   9.817  12.736  0.6412 -0.2846  0.7912
  174ccc     O1 4647   3.017   9.757  12.542  0.3783  0.5640  0.1553
  174ccc     O2 4648   3.087  10.058  12.601  0.6012  0.2122  0.4587
  174ccc     O3 4649   2.925  10.188  12.776 -0.2493 -0.0624 -0.6669
  174ccc     O4 4650   2.684  10.031  12.728  0.3887 -0.0756 -0.6752
  174ccc     C6 4651   2.648   9.783  12.860 -0.5713 -0.0528  0.9010
  174ccc     H6 4652   2.894  10.211  12.865  1.5778 -1.6882  0.4472
  174ccc     H7 4653   2.629   9.951  12.736  2.0081 -1.1698  0.2766
  174ccc     H8 4654   3.062  10.152  12.598 -0.9426 -0.1865 -0.9319
  174ccc     H9 4655   2.620   9.822  12.958  1.6605 -0.0602  1.6023
  174ccc    H10 4656   2.667   9.677  12.885 -0.2484 -0.0364  0.7427
  174ccc     O5 4657   2.556   9.806  12.753 -0.3112  0.1999  0.2573
  174ccc    H11 4658   2.572   9.719  12.712  1.3987  0.3750  0.4937
  174ccc     O6 4659   2.848   9.794  12.698 -0.2853  0.6380  0.0630
  175ccc     C1 4660   0.185   9.088  11.158 -0.7148  0.1151  0.2884
  175ccc     C2 4661   0.325   9.018  11.119  0.2503  0.7777 -1.0220
  175ccc     H1 4662   0.131   9.096  11.063  1.3458  1.7256 -0.8375
  175ccc     H2 4663   0.289   8.923  11.077 -3.7451  2.2567 -1.3822
  175ccc     C3 4664   0.399   9.094  11.011 -0.3680  0.0952 -0.4025
  175ccc     C4 4665   0.414   9.242  11.056 -0.6861  0.6745  0.4646
  175ccc     C5 4666   0.273   9.302  11.086  0.3068  0.5397  0.1772
  175ccc     H3 4667   0.461   9.232  11.154 -0.3772 -1.8036  0.1337
  175ccc     H4 4668   0.336   9.087  10.921 -0.4853 -0.9764 -0.2583
  175ccc     H5 4669   0.215   9.313  10.994 -0.4872 -1.3005  0.4201
  175ccc     O1 4670   0.297   9.430  11.148  0.3674 -0.5585 -0.4666
  175ccc     O2 4671   0.483   9.331  10.968 -0.0258  0.2980  0.2973
  175ccc     O3 4672   0.521   9.031  10.972 -0.0116  0.1677  0.6703
  175ccc     O4 4673   0.405   8.996  11.234 -0.5231  0.4874 -0.6392
  175ccc     C6 4674   0.116   9.007  11.264 -0.1398 -0.2817 -0.5824
  175ccc     H6 4675   0.584   9.104  10.958  1.3333 -1.3894 -2.3740
  175ccc     H7 4676   0.482   8.957  11.190 -0.0844  0.3462  0.2383
  175ccc     H8 4677   0.481   9.288  10.881  0.5966  2.7673 -1.0286
  175ccc     H9 4678   0.156   9.034  11.362  0.5459 -0.7992 -0.7054
  175ccc    H10 4679   0.146   8.903  11.244  1.8330 -0.0276  0.8009
  175ccc     O5 4680  -0.026   9.022  11.249  0.3964  0.0221  0.4281
  175ccc    H11 4681  -0.051   9.116  11.252  0.7536  0.1527 -0.4028
  175ccc     O6 4682   0.210   9.228  11.191 -0.0034  0.0250 -0.0170
  176ccc     C1 4683   0.853   9.876  11.676  0.2312 -0.7399  0.3163
  176ccc     C2 4684   0.902  10.012  11.628  0.3597  0.5735  0.2498
  176ccc     H1 4685   0.942   9.820  11.707  0.0076 -0.2464  1.9361
  176ccc     H2 4686   0.943  10.069  11.712 -0.5417  1.0912  0.3540
  176ccc     C3 4687   1.015   9.989  11.522 -0.5364 -0.7054 -0.0701
  176ccc     C4 4688   0.953   9.915  11.404 -0.6901 -0.5936  0.5545
  176ccc     C5 4689   0.879   9.785  11.449  0.6578 -0.5856  0.4225
  176ccc     H3 4690   0.879   9.971  11.345  1.1894 -0.9541 -2.3395
  176ccc     H4 4691   1.087   9.922  11.572 -1.7687 -3.0949 -1.3050
  176ccc     H5 4692   0.952   9.705  11.469 -0.6062 -1.9219 -0.1303
  176ccc     O1 4693   0.795   9.742  11.333 -0.2462 -0.0746 -0.2589
  176ccc     O2 4694   1.067   9.891  11.312  0.9477  0.4158 -0.3509
  176ccc     O3 4695   1.067  10.116  11.492 -0.5433  0.1101 -0.2963
  176ccc     O4 4696   0.792  10.094  11.578 -0.1217  0.3757 -0.0271
  176ccc     C6 4697   0.756   9.873  11.796 -0.2966 -0.0189 -0.2067
  176ccc     H6 4698   1.140  10.099  11.431  0.2104 -1.5747  0.9843
  176ccc     H7 4699   0.725  10.095  11.649  0.2014 -0.2102  0.3022
  176ccc     H8 4700   1.130   9.828  11.350  0.7818 -0.6916 -1.8443
  176ccc     H9 4701   0.662   9.914  11.759 -1.3219 -0.2562  1.9954
  176ccc    H10 4702   0.791   9.934  11.880 -0.2791  0.2043 -0.3757
  176ccc     O5 4703   0.737   9.746  11.846  0.1378  0.3577  0.2825
  176ccc    H11 4704   0.820   9.699  11.826 -0.2794  0.1739 -1.1559
  176ccc     O6 4705   0.792   9.805  11.565 -0.2936  0.2783  0.2605
  177ccc     C1 4706   0.918  10.651  11.206  0.2261 -0.1143 -0.7370
  177ccc     C2 4707   1.010  10.603  11.319 -0.8722 -0.1461  0.1925
  177ccc     H1 4708   0.817  10.652  11.249  0.3958  0.3270 -0.3347
  177ccc     H2 4709   1.004  10.674  11.403  0.8965  1.2450 -0.7699
  177ccc     C3 4710   0.968  10.464  11.371 -0.2332 -0.1886  0.2350
  177ccc     C4 4711   0.966  10.355  11.256  0.9854 -0.2423  0.4321
  177ccc     C5 4712   0.881  10.411  11.135  0.4990 -0.2670  0.2768
  177ccc     H3 4713   1.065  10.339  11.211  0.8037 -0.9789  0.2748
  177ccc     H4 4714   0.861  10.463  11.396 -0.8650 -1.0032 -2.1945
  177ccc     H5 4715   0.773  10.406  11.148  0.1272  1.0970 -1.8058
  177ccc     O1 4716   0.910  10.335  11.014  0.3967 -0.0802 -0.3297
  177ccc     O2 4717   0.916  10.227  11.304 -0.5032 -0.2064 -0.4241
  177ccc     O3 4718   1.048  10.423  11.478  0.1945  0.1518  0.3222
  177ccc     O4 4719   1.150  10.602  11.271  0.0030 -0.3643  0.3883
  177ccc     C6 4720   0.950  10.790  11.143 -0.4790 -0.0236 -0.1105
  177ccc     H6 4721   1.142  10.428  11.454  0.2864  0.4744  0.7330
  177ccc     H7 4722   1.147  10.677  11.210 -0.5691 -1.8186 -1.4749
  177ccc     H8 4723   0.977  10.205  11.377 -0.4367  0.8311 -0.1622
  177ccc     H9 4724   0.905  10.871  11.202  1.9952  0.8746  0.6414
  177ccc    H10 4725   0.907  10.798  11.042  0.3959  2.9429 -0.3418
  177ccc     O5 4726   1.091  10.798  11.135  0.0167  0.1824 -0.1207
  177ccc    H11 4727   1.111  10.884  11.093  2.2328  0.3929  1.2068
  177ccc     O6 4728   0.917  10.551  11.101  0.8313  0.3893  0.3212
  178ccc     C1 4729   1.575  11.100  10.923  0.4845  0.6464 -0.1591
  178ccc     C2 4730   1.617  11.144  11.067 -1.1860  0.1809  0.3393
  178ccc     H1 4731   1.476  11.137  10.896 -1.3161 -2.5278  1.4339
  178ccc     H2 4732   1.620  11.254  11.068 -2.0544  0.2331 -0.8721
  178ccc     C3 4733   1.522  11.087  11.172  0.4915  0.0349 -0.6618
  178ccc     C4 4734   1.502  10.933  11.154 -0.7686 -0.3121 -0.7439
  178ccc     C5 4735   1.456  10.904  11.009 -0.4977  0.2740 -0.5683
  178ccc     H3 4736   1.597  10.878  11.161 -0.0093  1.0141 -0.2695
  178ccc     H4 4737   1.422  11.129  11.157  0.1224 -1.5172 -2.9862
  178ccc     H5 4738   1.361  10.951  10.982 -0.2530  1.8467  1.1545
  178ccc     O1 4739   1.449  10.761  10.990  0.3836 -0.5059  0.5166
  178ccc     O2 4740   1.403  10.894  11.250  0.0421  0.1726 -0.3764
  178ccc     O3 4741   1.572  11.110  11.310  0.4254 -0.3406  0.4451
  178ccc     O4 4742   1.750  11.095  11.085 -0.4903  0.2427  0.0184
  178ccc     C6 4743   1.679  11.143  10.818  0.3673  0.4923 -0.3660
  178ccc     H6 4744   1.533  11.033  11.355 -0.6945  0.2268  0.4830
  178ccc     H7 4745   1.802  11.171  11.116  0.1967  0.8956 -2.4448
  178ccc     H8 4746   1.412  10.798  11.262  0.2468  0.3610  1.3455
  178ccc     H9 4747   1.771  11.083  10.820 -0.4483 -0.8359  2.0934
  178ccc    H10 4748   1.724  11.239  10.848  1.2539 -0.7105  2.5532
  178ccc     O5 4749   1.607  11.150  10.696 -0.1244  0.5165 -0.1407
  178ccc    H11 4750   1.579  11.058  10.679  0.7006  0.3974 -0.8774
  178ccc     O6 4751   1.557  10.958  10.921  0.4776  0.2391  0.1817
  179ccc     C1 4752   2.045  10.972   9.987 -0.4454 -0.4028  0.2413
  179ccc     C2 4753   2.160  11.046  10.054 -0.7088  0.2998  0.8367
  179ccc     H1 4754   1.953  10.976  10.046 -0.4045  1.3422  0.2532
  179ccc     H2 4755   2.125  11.132  10.113  1.6642  2.4919 -0.7294
  179ccc     C3 4756   2.234  10.951  10.159 -0.5496 -0.4513  0.4566
  179ccc     C4 4757   2.269  10.813  10.091  0.2457 -0.1119 -0.1040
  179ccc     C5 4758   2.147  10.750  10.026  0.0672 -0.2046 -0.1630
  179ccc     H3 4759   2.334  10.835  10.006  0.4358 -1.4022 -0.3242
  179ccc     H4 4760   2.163  10.930  10.240 -0.3257  0.1255  0.8042
  179ccc     H5 4761   2.067  10.735  10.100 -0.3395  2.7166  0.1371
  179ccc     O1 4762   2.181  10.626   9.955 -0.6005 -0.0277 -0.1340
  179ccc     O2 4763   2.336  10.721  10.189 -0.0785  0.0792  0.1587
  179ccc     O3 4764   2.355  11.024  10.208  0.0151 -0.1085 -0.2791
  179ccc     O4 4765   2.255  11.088   9.957 -0.2906  0.5392 -0.3049
  179ccc     C6 4766   1.996  11.058   9.869 -0.6933 -0.0981  0.1991
  179ccc     H6 4767   2.397  11.064  10.130  0.5542 -0.6212 -0.2591
  179ccc     H7 4768   2.251  11.185   9.954  2.1888  0.7517  0.9042
  179ccc     H8 4769   2.388  10.655  10.140 -1.2622  0.0060 -1.0642
  179ccc     H9 4770   2.073  11.060   9.791 -1.0063  1.1555 -0.1055
  179ccc    H10 4771   1.988  11.164   9.894 -0.1095 -0.3385  1.4764
  179ccc     O5 4772   1.881  11.005   9.814 -0.0212  0.8946  0.2339
  179ccc    H11 4773   1.826  10.993   9.893 -0.1092  1.5525  0.2858
  179ccc     O6 4774   2.081  10.836   9.933  0.0587 -0.3198 -0.7723
  180ccc     C1 4775   1.852  10.938  10.497 -0.5627  0.9896 -0.0188
  180ccc     C2 4776   1.970  11.038  10.516  0.4006  0.6953  0.3538
  180ccc     H1 4777   1.789  10.951  10.585  0.0816  2.4776  0.2475
  180ccc     H2 4778   1.927  11.136  10.540  1.1584  1.0094  0.4407
  180ccc     C3 4779   2.061  10.984  10.622 -0.6246 -0.2136  0.1882
  180ccc     C4 4780   2.110  10.836  10.607  0.2609  0.1190  0.6271
  180ccc     C5 4781   1.983  10.750  10.584  0.0412  0.8365  0.5547
  180ccc     H3 4782   2.166  10.828  10.513 -2.3403 -0.1439 -0.9983
  180ccc     H4 4783   2.007  10.987  10.718  2.0717  0.3426  1.7943
  180ccc     H5 4784   1.920  10.735  10.673 -1.7864 -0.1246 -0.8297
  180ccc     O1 4785   2.025  10.619  10.543  0.3751 -0.6638 -0.0282
  180ccc     O2 4786   2.189  10.804  10.723 -0.4611 -0.3816 -0.4106
  180ccc     O3 4787   2.166  11.080  10.637 -0.2566  0.2170 -0.5158
  180ccc     O4 4788   2.019  11.060  10.376  0.3724  0.0731  0.0352
  180ccc     C6 4789   1.755  10.960  10.373 -0.2577 -0.1800  0.1120
  180ccc     H6 4790   2.242  11.051  10.585  1.5884  0.7832  1.7157
  180ccc     H7 4791   2.078  11.138  10.376  1.4350 -0.6807  1.5715
  180ccc     H8 4792   2.265  10.865  10.715 -1.0043  0.4534  0.5789
  180ccc     H9 4793   1.697  11.052  10.389  1.8011  1.0833  0.7701
  180ccc    H10 4794   1.681  10.880  10.387  0.8988 -1.1606  0.8090
  180ccc     O5 4795   1.826  10.946  10.253  0.0110 -0.2133  0.3795
  180ccc    H11 4796   1.909  10.978  10.293  1.9967 -1.5153 -2.4248
  180ccc     O6 4797   1.902  10.803  10.478  0.1864 -0.2294  0.2437
  181ccc     C1 4798   2.828  10.947  11.270  0.6398  0.1937 -0.2411
  181ccc     C2 4799   2.867  10.960  11.424  0.4514 -0.0491  0.8001
  181ccc     H1 4800   2.831  11.045  11.220  1.3933 -0.6186 -1.8210
  181ccc     H2 4801   2.971  10.996  11.433  0.8448 -1.0071  0.2428
  181ccc     C3 4802   2.758  11.047  11.493  0.6506  0.2614  0.0591
  181ccc     C4 4803   2.610  11.007  11.452 -0.6347  0.1987  0.4497
  181ccc     C5 4804   2.591  10.977  11.301 -0.3768 -0.4681  0.0843
  181ccc     H3 4805   2.588  10.916  11.510  0.3733  0.1047  0.6968
  181ccc     H4 4806   2.777  11.149  11.457  0.0021  0.1067 -0.7501
  181ccc     H5 4807   2.578  11.063  11.235 -1.5565 -2.0591 -1.9058
  181ccc     O1 4808   2.469  10.906  11.304  0.5285  0.0583  0.4762
  181ccc     O2 4809   2.516  11.104  11.506 -0.5843  0.3950  0.8433
  181ccc     O3 4810   2.780  11.043  11.634  0.2668 -0.3235 -0.2119
  181ccc     O4 4811   2.859  10.829  11.484  0.0344  0.1625  0.2539
  181ccc     C6 4812   2.928  10.860  11.193 -0.2347  0.2134  0.1010
  181ccc     H6 4813   2.716  11.112  11.658  0.4995 -0.3589  0.5226
  181ccc     H7 4814   2.849  10.853  11.577 -2.1301  1.7437 -0.3132
  181ccc     H8 4815   2.430  11.070  11.476 -1.6876  2.5858  1.3197
  181ccc     H9 4816   2.936  10.762  11.242 -0.0973  0.9776  1.6823
  181ccc    H10 4817   3.032  10.883  11.219 -0.1818 -1.9808  2.1454
  181ccc     O5 4818   2.902  10.852  11.048  0.2425 -0.0714  0.9066
  181ccc    H11 4819   2.811  10.819  11.045 -0.6036  2.1312  0.6461
  181ccc     O6 4820   2.692  10.897  11.252 -0.7141  0.1188 -0.2517
  182ccc     C1 4821   1.563  10.558  11.693 -0.1397 -0.5618 -0.1064
  182ccc     C2 4822   1.445  10.483  11.631  0.0694  0.0080  0.3876
  182ccc     H1 4823   1.518  10.648  11.736 -0.2536 -1.3912  1.5662
  182ccc     H2 4824   1.372  10.464  11.711 -0.7023 -1.0613 -0.5393
  182ccc     C3 4825   1.395  10.551  11.496  0.2881  0.2206 -0.5366
  182ccc     C4 4826   1.516  10.572  11.399 -0.8893 -0.1672 -0.7257
  182ccc     C5 4827   1.624  10.661  11.473  0.0149  0.4807  0.8770
  182ccc     H3 4828   1.558  10.473  11.379  1.0346  0.0657  1.7008
  182ccc     H4 4829   1.354  10.650  11.519  3.5553  1.8647 -1.2858
  182ccc     H5 4830   1.580  10.759  11.491 -1.4056 -0.1160  0.8166
  182ccc     O1 4831   1.733  10.687  11.388 -0.7396  0.3376  0.1973
  182ccc     O2 4832   1.465  10.630  11.280  0.1615 -0.6647  0.4689
  182ccc     O3 4833   1.299  10.467  11.426 -0.2627 -0.5612 -0.1052
  182ccc     O4 4834   1.488  10.356  11.595  0.1322  0.2810  0.4100
  182ccc     C6 4835   1.625  10.475  11.808 -0.1981 -0.5810  0.1800
  182ccc     H6 4836   1.268  10.526  11.354  1.4196  1.8049  0.9839
  182ccc     H7 4837   1.405  10.305  11.589 -0.2071  0.7958  0.6523
  182ccc     H8 4838   1.509  10.585  11.206  0.8185  1.4372 -0.5041
  182ccc     H9 4839   1.682  10.385  11.782  0.5196  0.0061 -0.3237
  182ccc    H10 4840   1.545  10.436  11.873 -0.7495  0.3412  0.0693
  182ccc     O5 4841   1.703  10.558  11.896  0.5576 -0.1311  0.5928
  182ccc    H11 4842   1.788  10.568  11.849 -0.9936 -1.3169 -2.8262
  182ccc     O6 4843   1.666  10.591  11.594 -0.6389  0.4758  0.2187
  183ccc     C1 4844   0.336   8.637  11.961  0.5019 -0.2410  0.4130
  183ccc     C2 4845   0.230   8.713  11.877  0.3110 -0.2697 -0.2922
  183ccc     H1 4846   0.416   8.699  12.004 -0.6972  1.6635  0.0133
  183ccc     H2 4847   0.165   8.780  11.936  0.2849  0.7860 -1.4764
  183ccc     C3 4848   0.299   8.804  11.772 -0.3588 -0.5046 -0.4091
  183ccc     C4 4849   0.408   8.734  11.690  0.5023  0.1394  0.7795
  183ccc     C5 4850   0.504   8.648  11.780 -0.9765 -0.0953 -0.1442
  183ccc     H3 4851   0.354   8.669  11.620  1.4245  0.8698 -0.6702
  183ccc     H4 4852   0.352   8.876  11.834  0.4183  0.4284 -2.0868
  183ccc     H5 4853   0.556   8.723  11.840  0.6474  0.4593 -2.1492
  183ccc     O1 4854   0.601   8.567  11.697  0.2991 -0.1987  0.1484
  183ccc     O2 4855   0.484   8.840  11.625 -0.2899 -0.4570  0.0064
  183ccc     O3 4856   0.205   8.881  11.697  0.6504 -0.0531  0.0799
  183ccc     O4 4857   0.150   8.616  11.803 -0.3340 -0.2911 -0.0858
  183ccc     C6 4858   0.288   8.548  12.078  0.0588 -0.3728  0.9974
  183ccc     H6 4859   0.168   8.837  11.618  0.2185 -1.3145  0.9630
  183ccc     H7 4860   0.085   8.673  11.759  0.6300 -0.2745 -1.5702
  183ccc     H8 4861   0.415   8.902  11.593 -1.6852 -2.0611 -0.2357
  183ccc     H9 4862   0.230   8.615  12.143 -2.1078  0.2035 -1.3398
  183ccc    H10 4863   0.379   8.510  12.125 -0.0390 -3.7478 -1.2578
  183ccc     O5 4864   0.218   8.443  12.012  0.1395  0.0864  0.5519
  183ccc    H11 4865   0.183   8.482  11.930 -0.2480  1.4599  1.3474
  183ccc     O6 4866   0.424   8.563  11.870 -0.2537  0.5784  0.2761
  184ccc     C1 4867   0.206   8.224  11.149  0.0613  0.0410  0.4169
  184ccc     C2 4868   0.110   8.262  11.261  0.1178  0.3427 -0.2383
  184ccc     H1 4869   0.156   8.144  11.094  0.2051  0.1976  0.0558
  184ccc     H2 4870   0.015   8.291  11.214  0.4537  3.0774  0.6018
  184ccc     C3 4871   0.071   8.140  11.351  0.3318  0.0277 -0.3597
  184ccc     C4 4872   0.200   8.067  11.400 -0.1638  0.5496 -0.3525
  184ccc     C5 4873   0.312   8.043  11.287 -0.0010 -0.0127  0.5993
  184ccc     H3 4874   0.249   8.127  11.477  1.0440  1.8231 -2.0279
  184ccc     H4 4875   0.018   8.081  11.275  0.7716  0.2192 -0.8266
  184ccc     H5 4876   0.300   7.952  11.226  0.4701  0.0517  0.4077
  184ccc     O1 4877   0.437   8.027  11.355  0.3768  0.1902  0.2915
  184ccc     O2 4878   0.174   7.933  11.449 -0.0371  0.4705 -0.2282
  184ccc     O3 4879  -0.019   8.178  11.462 -0.1768  0.0543  0.3191
  184ccc     O4 4880   0.156   8.376  11.323 -0.7515  0.0472  0.1425
  184ccc     C6 4881   0.240   8.341  11.046  0.5187 -0.5905 -0.4879
  184ccc     H6 4882  -0.082   8.104  11.474  0.8678 -0.9288 -0.0347
  184ccc     H7 4883   0.092   8.401  11.392  0.1875  1.3336  0.5688
  184ccc     H8 4884   0.252   7.895  11.494 -0.7123 -0.7768 -0.0517
  184ccc     H9 4885   0.317   8.405  11.091 -2.1625  2.5616 -0.0719
  184ccc    H10 4886   0.151   8.402  11.026  0.6115  0.2703  1.5629
  184ccc     O5 4887   0.289   8.285  10.918  0.2463 -0.0628 -0.2980
  184ccc    H11 4888   0.303   8.357  10.853  3.3111 -1.2261 -1.0910
  184ccc     O6 4889   0.329   8.169  11.202  0.0932  0.0313 -0.3779
  185ccc     C1 4890   1.370   8.818  12.327  0.0522 -0.1446  0.7239
  185ccc     C2 4891   1.286   8.744  12.425  0.0357  0.6594 -0.3239
  185ccc     H1 4892   1.316   8.903  12.283 -0.6826 -0.2240  1.4618
  185ccc     H2 4893   1.252   8.807  12.507 -0.1013 -1.9337  1.7617
  185ccc     C3 4894   1.166   8.685  12.352  0.9159  0.0621  0.4954
  185ccc     C4 4895   1.221   8.599  12.233 -0.6164  0.3376  0.0543
  185ccc     C5 4896   1.320   8.677  12.142 -0.6071  0.4605 -0.1962
  185ccc     H3 4897   1.285   8.520  12.273  2.2806  1.3320 -2.2602
  185ccc     H4 4898   1.128   8.778  12.306 -0.1412 -0.8491 -0.5215
  185ccc     H5 4899   1.273   8.762  12.092  0.0159  1.6807  1.2028
  185ccc     O1 4900   1.379   8.575  12.048  0.5467 -0.4610 -0.4829
  185ccc     O2 4901   1.113   8.548  12.151  0.5646  0.1859 -0.0155
  185ccc     O3 4902   1.073   8.610  12.437  0.5603  0.1365 -0.1951
  185ccc     O4 4903   1.370   8.640  12.485 -0.4111 -0.1738  0.2806
  185ccc     C6 4904   1.487   8.883  12.404 -0.1042 -0.8975  0.2714
  185ccc     H6 4905   0.983   8.635  12.408 -0.4352  1.6894  3.5755
  185ccc     H7 4906   1.303   8.603  12.545 -1.4261  1.1522  0.0166
  185ccc     H8 4907   1.087   8.462  12.187 -2.6889  0.9518 -0.2608
  185ccc     H9 4908   1.552   8.812  12.456  1.4122  1.7122  2.1539
  185ccc    H10 4909   1.452   8.958  12.475  0.1036  1.1839 -1.6947
  185ccc     O5 4910   1.554   8.963  12.310 -0.5229  0.8516  0.0222
  185ccc    H11 4911   1.597   8.897  12.253  0.1255  0.1692  1.2447
  185ccc     O6 4912   1.422   8.727  12.224 -0.3206  0.5151  0.5606
  186ccc     C1 4913   1.491   8.050  11.280  0.6559  0.8764  1.0271
  186ccc     C2 4914   1.343   8.075  11.236 -0.3341  0.5691 -0.9304
  186ccc     H1 4915   1.512   7.942  11.275 -1.1579  0.4364  2.0720
  186ccc     H2 4916   1.324   8.032  11.137 -3.7751  2.3633 -1.2067
  186ccc     C3 4917   1.241   8.023  11.338  0.2186  0.7818  0.2331
  186ccc     C4 4918   1.275   8.065  11.479  0.4579  0.3144 -0.3546
  186ccc     C5 4919   1.421   8.031  11.517 -0.1508 -0.2885 -0.3174
  186ccc     H3 4920   1.271   8.174  11.490 -0.7945  0.1778  0.7000
  186ccc     H4 4921   1.256   7.914  11.345  0.5185  0.9106  2.0551
  186ccc     H5 4922   1.444   7.926  11.538 -0.3607  0.1375  2.3908
  186ccc     O1 4923   1.448   8.096  11.643 -0.0544 -0.8343 -0.2508
  186ccc     O2 4924   1.201   7.991  11.576  0.7061  0.6307  0.1237
  186ccc     O3 4925   1.111   8.062  11.300  0.1993  0.1957 -0.0411
  186ccc     O4 4926   1.318   8.217  11.230 -0.3065  0.2411  0.2871
  186ccc     C6 4927   1.577   8.129  11.181 -0.2699  1.1110 -0.2026
  186ccc     H6 4928   1.044   7.996  11.324 -0.0658 -0.0338 -1.3419
  186ccc     H7 4929   1.221   8.220  11.241 -0.4708 -1.8368 -0.2299
  186ccc     H8 4930   1.111   8.029  11.577  0.8353  0.9386  1.2813
  186ccc     H9 4931   1.566   8.237  11.201 -3.9529  0.9990 -0.8310
  186ccc    H10 4932   1.551   8.112  11.076  0.8739  3.0616 -0.8725
  186ccc     O5 4933   1.709   8.082  11.197 -0.4574 -0.1047 -0.6421
  186ccc    H11 4934   1.771   8.136  11.146  0.7560  0.4852  1.3534
  186ccc     O6 4935   1.510   8.092  11.415  0.0961 -0.0383  0.4482
  187ccc     C1 4936   1.842   6.305  10.187  0.0676 -0.6369 -0.1936
  187ccc     C2 4937   1.874   6.271  10.043  0.5406  0.4462  0.7813
  187ccc     H1 4938   1.735   6.287  10.209 -0.4494  0.9041 -1.3439
  187ccc     H2 4939   1.846   6.167  10.021  1.7003  0.2485  0.1590
  187ccc     C3 4940   1.802   6.358   9.949  0.3314 -0.3342 -0.4118
  187ccc     C4 4941   1.837   6.507   9.976  0.1582 -0.2631  0.0725
  187ccc     C5 4942   1.805   6.539  10.126  0.4513 -0.2729  0.5151
  187ccc     H3 4943   1.945   6.525   9.968  0.0748  0.3566  0.2765
  187ccc     H4 4944   1.701   6.340   9.988  1.7503 -3.4597  2.3599
  187ccc     H5 4945   1.696   6.532  10.143  0.2467  1.7038  0.2892
  187ccc     O1 4946   1.833   6.679  10.153 -0.2578  0.1432 -0.5471
  187ccc     O2 4947   1.761   6.593   9.887  0.1549 -0.1986  0.6875
  187ccc     O3 4948   1.821   6.313   9.812  0.2114  0.3013  0.2172
  187ccc     O4 4949   2.017   6.288  10.030 -0.2925 -0.2734  0.0521
  187ccc     C6 4950   1.926   6.218  10.281  0.1583  0.0041  0.4232
  187ccc     H6 4951   1.770   6.356   9.742 -0.4025 -1.1245 -0.2491
  187ccc     H7 4952   2.033   6.249   9.942  0.1353  1.1329 -0.5100
  187ccc     H8 4953   1.780   6.684   9.917  4.7486 -1.1097  1.3156
  187ccc     H9 4954   2.034   6.233  10.276  0.2045  1.3509  3.3856
  187ccc    H10 4955   1.934   6.114  10.247  1.1195  0.1701  0.0971
  187ccc     O5 4956   1.873   6.231  10.412 -0.1480  0.1866 -0.5681
  187ccc    H11 4957   1.930   6.184  10.476  1.2994  0.9248 -1.2791
  187ccc     O6 4958   1.872   6.448  10.215  0.1471 -0.0224  0.4262
  188ccc     C1 4959   2.207   7.238   9.678  0.6749 -0.4714  0.8073
  188ccc     C2 4960   2.329   7.175   9.734 -0.3804 -0.4854 -0.2724
  188ccc     H1 4961   2.218   7.346   9.692 -1.0851 -0.4272  2.3078
  188ccc     H2 4962   2.420   7.201   9.678 -0.9835 -0.6451 -1.3362
  188ccc     C3 4963   2.345   7.226   9.876  0.6114  0.2072 -1.1136
  188ccc     C4 4964   2.225   7.198   9.968 -0.9982 -0.0875 -0.0324
  188ccc     C5 4965   2.103   7.257   9.901 -0.1872  0.3189  0.0562
  188ccc     H3 4966   2.209   7.090   9.983  1.0738 -0.6042 -1.1777
  188ccc     H4 4967   2.353   7.335   9.870  0.7834  0.2547 -0.2497
  188ccc     H5 4968   2.105   7.366   9.913 -0.3612  0.3570 -0.2413
  188ccc     O1 4969   1.993   7.207   9.970  0.7268 -0.8863 -0.0841
  188ccc     O2 4970   2.241   7.265  10.098 -0.1101  0.1076  0.0903
  188ccc     O3 4971   2.468   7.184   9.941 -0.6492 -0.7246  0.0991
  188ccc     O4 4972   2.303   7.037   9.737 -0.2290  0.4086  0.3188
  188ccc     C6 4973   2.181   7.206   9.535 -0.4691  0.7485 -0.0564
  188ccc     H6 4974   2.445   7.097   9.977  0.5696 -0.8873  0.4984
  188ccc     H7 4975   2.249   7.035   9.656 -0.2206  1.1411  0.2871
  188ccc     H8 4976   2.191   7.210  10.160  1.0918 -0.4399  0.6224
  188ccc     H9 4977   2.260   7.254   9.477  2.6209 -1.3753  2.0544
  188ccc    H10 4978   2.079   7.243   9.517 -1.0349 -1.0969 -0.8681
  188ccc     O5 4979   2.191   7.061   9.519  0.2730 -0.2310  0.2818
  188ccc    H11 4980   2.160   7.058   9.427  1.6810 -2.1006 -0.1694
  188ccc     O6 4981   2.100   7.211   9.764 -0.0037  0.1531  0.0636
  189ccc     C1 4982   1.165   6.886   9.931  0.3714 -0.6209 -0.1157
  189ccc     C2 4983   1.229   6.823  10.056 -0.4796 -1.0439  0.2883
  189ccc     H1 4984   1.244   6.912   9.859  1.3240 -1.0710  0.7389
  189ccc     H2 4985   1.291   6.742  10.016  0.6145  0.5932 -1.5049
  189ccc     C3 4986   1.334   6.930  10.119 -0.0593  0.4596  0.4339
  189ccc     C4 4987   1.266   7.065  10.138  0.2526 -0.5126 -0.2402
  189ccc     C5 4988   1.183   7.109  10.017  0.1442 -0.4315  0.2862
  189ccc     H3 4989   1.200   7.059  10.225  1.5016  3.8830  1.2488
  189ccc     H4 4990   1.419   6.932  10.050  1.4544  1.0646  2.2388
  189ccc     H5 4991   1.250   7.132   9.934 -0.9718  1.8732 -0.0531
  189ccc     O1 4992   1.107   7.229  10.056 -0.2270  0.0850 -0.1161
  189ccc     O2 4993   1.367   7.163  10.177 -0.7131  0.4473  0.4155
  189ccc     O3 4994   1.382   6.865  10.240  0.5933 -0.2676 -0.1872
  189ccc     O4 4995   1.133   6.782  10.153  0.3259 -0.0907  0.1332
  189ccc     C6 4996   1.067   6.790   9.856  0.3128 -0.5140  1.0739
  189ccc     H6 4997   1.311   6.861  10.306  1.3628 -2.2923  0.6082
  189ccc     H7 4998   1.170   6.715  10.213  0.0655  0.8130  1.3336
  189ccc     H8 4999   1.332   7.214  10.252 -0.7305  1.7807 -0.4690
  189ccc     H9 5000   1.125   6.702   9.828 -0.0384 -0.6489  0.7585
  189ccc    H10 5001   1.021   6.835   9.767 -1.1320 -2.4129  0.7983
  189ccc     O5 5002   0.971   6.756   9.952  0.5043  0.3159 -0.7572
  189ccc    H11 5003   1.018   6.779  10.033  1.3068 -0.2863 -1.0359
  189ccc     O6 5004   1.090   6.998   9.985  0.1065 -0.1752  0.8611
  190ccc     C1 5005   0.492   8.042   9.644  0.1412 -0.4706  0.0084
  190ccc     C2 5006   0.395   7.961   9.561  0.3726  0.1960  0.0421
  190ccc     H1 5007   0.588   8.057   9.593  1.0432  0.9516  1.9995
  190ccc     H2 5008   0.378   8.002   9.460 -2.1604 -0.8360 -0.0203
  190ccc     C3 5009   0.434   7.811   9.545 -0.0821  0.0888  0.1099
  190ccc     C4 5010   0.469   7.747   9.682  0.1336  0.7828  0.5546
  190ccc     C5 5011   0.577   7.833   9.747 -0.6468  0.3721  0.2145
  190ccc     H3 5012   0.377   7.743   9.742  0.4928 -3.4670  1.0914
  190ccc     H4 5013   0.526   7.805   9.485 -0.7102  0.5671 -0.9231
  190ccc     H5 5014   0.669   7.849   9.690  0.1628 -0.5215  1.2239
  190ccc     O1 5015   0.603   7.776   9.879 -0.1047 -0.3928 -0.3724
  190ccc     O2 5016   0.508   7.612   9.652  0.4013 -0.4971  0.0788
  190ccc     O3 5017   0.319   7.733   9.489  1.5131 -0.2302  0.0075
  190ccc     O4 5018   0.264   7.962   9.626 -0.3072 -0.6961 -0.6533
  190ccc     C6 5019   0.441   8.184   9.675 -0.4404 -0.7047 -0.1657
  190ccc     H6 5020   0.231   7.772   9.508 -0.3116 -3.6670 -0.5453
  190ccc     H7 5021   0.210   8.042   9.615 -1.6143 -1.1992  1.5312
  190ccc     H8 5022   0.447   7.585   9.581 -0.2636 -1.8040  1.1237
  190ccc     H9 5023   0.348   8.179   9.734 -2.6909  1.8945 -3.1311
  190ccc    H10 5024   0.427   8.244   9.585  1.1653  0.4446  0.3135
  190ccc     O5 5025   0.545   8.252   9.750  0.0013 -0.2993 -0.3137
  190ccc    H11 5026   0.509   8.336   9.785  0.3660 -1.0960  2.2429
  190ccc     O6 5027   0.517   7.962   9.769 -0.1765 -0.4328 -0.1408
  191SOL     OW 5028   4.605   8.236  10.497  0.2252 -0.2535 -0.7169
  191SOL    HW1 5029   4.593   8.313  10.552  1.5693  0.4266 -1.3249
  191SOL    HW2 5030   4.528   8.182  10.514 -0.3492  0.8477  0.3255
  192SOL     OW 5031   0.807   9.768  10.385 -0.1157 -0.6091 -0.1522
  192SOL    HW1 5032   0.828   9.675  10.380 -1.7301 -0.9478 -1.3316
  192SOL    HW2 5033   0.713   9.773  10.372  0.0321  1.2548 -0.9003
  193SOL     OW 5034   0.219   5.520   1.920 -0.2580  0.9536 -0.0027
  193SOL    HW1 5035   0.159   5.496   1.991  1.0751 -0.7086  0.6430
  193SOL    HW2 5036   0.247   5.609   1.941 -1.8459  1.4761  0.0976
  194SOL     OW 5037  10.920   9.107   5.760 -0.5244  0.0589 -0.0195
  194SOL    HW1 5038  10.878   9.021   5.759 -2.3102  0.8798  0.0122
  194SOL    HW2 5039  10.851   9.167   5.789  0.7801  1.4600  0.3364
  195SOL     OW 5040   2.401   5.562   5.311  0.6385 -0.5109  0.3390
  195SOL    HW1 5041   2.367   5.492   5.254 -0.6179 -0.7267  1.3121
  195SOL    HW2 5042   2.413   5.520   5.396  2.1002 -0.0896  0.3610
  196SOL     OW 5043  10.592   8.621   5.826  1.0538  0.6079 -0.8166
  196SOL    HW1 5044  10.528   8.691   5.843 -1.7699 -2.0851  0.6686
  196SOL    HW2 5045  10.548   8.562   5.766  2.1495 -1.3111  0.1686
  197SOL     OW 5046   2.306  11.018   9.436 -0.7791 -0.5317 -0.1799
  197SOL    HW1 5047   2.256  10.980   9.509  0.1180 -1.2274  0.0899
  197SOL    HW2 5048   2.397  10.999   9.457 -0.3343  1.1835 -0.3952
  198SOL     OW 5049   5.985   1.844   6.845 -0.3395 -0.0008  0.5547
  198SOL    HW1 5050   6.047   1.807   6.908 -1.3303 -0.6277  1.1843
  198SOL    HW2 5051   5.951   1.768   6.798 -0.7823  0.3145  0.3647
  199SOL     OW 5052   7.112   1.881   7.070 -0.2520 -0.2019 -0.3382
  199SOL    HW1 5053   7.162   1.816   7.118 -0.4062  0.8685  1.3550
  199SOL    HW2 5054   7.174   1.952   7.052 -0.0249 -0.8580 -2.3668
  200SOL     OW 5055   2.107   4.631   7.458 -0.5045 -0.1875 -0.4252
  200SOL    HW1 5056   2.107   4.723   7.429 -1.1443 -0.3875 -1.0821
  200SOL    HW2 5057   2.015   4.612   7.477 -0.1598 -0.1635  1.4752
  201SOL     OW 5058   2.734   7.364   2.465 -0.1262  0.5397  0.1674
  201SOL    HW1 5059   2.826   7.386   2.449  0.1395 -0.3748  0.3886
  201SOL    HW2 5060   2.703   7.329   2.381 -1.1498  3.5809 -0.8549
  202SOL     OW 5061   8.096   1.312  10.755  0.4625 -0.0235  0.2740
  202SOL    HW1 5062   8.034   1.371  10.712 -0.8321 -0.2872  1.7045
  202SOL    HW2 5063   8.106   1.239  10.695  1.3462  1.1565 -1.0871
  203SOL     OW 5064   4.410   4.436  10.041  0.5446 -0.4036  0.2459
  203SOL    HW1 5065   4.454   4.514  10.009 -0.8787  0.1258 -0.5196
  203SOL    HW2 5066   4.471   4.365  10.023  0.6391  0.1359 -1.8481
  204SOL     OW 5067   0.852   2.143   9.203  0.7112 -0.3047 -0.4053
  204SOL    HW1 5068   0.799   2.163   9.280  0.6727 -0.9352 -0.2602
  204SOL    HW2 5069   0.883   2.054   9.218  3.3776  0.6532  0.4015
  205SOL     OW 5070   5.098   1.753   4.947 -0.3696 -0.2961  0.3647
  205SOL    HW1 5071   5.107   1.671   4.995 -0.7301 -0.2163  0.5742
  205SOL    HW2 5072   5.147   1.816   4.999  1.5960 -0.7623 -0.8156
  206SOL     OW 5073  10.081   9.098   4.806 -0.4529  0.2386  0.0440
  206SOL    HW1 5074  10.039   9.061   4.728  0.2822 -0.0480 -0.2278
  206SOL    HW2 5075  10.170   9.121   4.777 -0.1570  0.0901  0.8015
  207SOL     OW 5076   6.894   4.489  10.802 -0.2229 -0.3149  0.0944
  207SOL    HW1 5077   6.817   4.436  10.822 -0.1329 -0.3567  0.3305
  207SOL    HW2 5078   6.858   4.573  10.773 -0.3546 -0.2541  0.4287
  208SOL     OW 5079   1.005   0.070  10.558 -0.3234 -0.0800  0.2543
  208SOL    HW1 5080   0.919   0.033  10.534 -0.3385 -0.0150  0.2085
  208SOL    HW2 5081   0.985   0.159  10.586 -0.4450 -0.4644  1.4724
  209SOL     OW 5082   1.114   1.834   1.676  0.7588 -0.8290  0.0571
  209SOL    HW1 5083   1.200   1.839   1.634  0.6045 -0.3671 -0.2197
  209SOL    HW2 5084   1.064   1.906   1.636  0.5256 -0.5423  0.8479
  210SOL     OW 5085   2.135   6.439   0.554  0.0358 -0.4896  0.2197
  210SOL    HW1 5086   2.051   6.458   0.596 -0.4681 -0.5388 -0.7529
  210SOL    HW2 5087   2.133   6.345   0.538  0.4318 -0.5504  0.5075
  211SOL     OW 5088  10.790   4.935   2.480  0.2718 -0.0912  0.1929
  211SOL    HW1 5089  10.865   4.921   2.422 -0.1551 -1.6580 -0.0347
  211SOL    HW2 5090  10.724   4.977   2.425  0.7447  0.7043  0.2223
  212SOL     OW 5091   7.465  10.305   8.880  0.2190  0.0675  0.7348
  212SOL    HW1 5092   7.480  10.387   8.833 -4.1898  1.0812  0.6620
  212SOL    HW2 5093   7.403  10.329   8.950 -0.1194 -2.9465  1.5835
  213SOL     OW 5094   6.736   7.705   6.511  0.0539  0.1094  0.4158
  213SOL    HW1 5095   6.728   7.629   6.453  0.6747  0.6049 -0.3461
  213SOL    HW2 5096   6.824   7.697   6.550 -0.5310 -0.4681  1.6735
  214SOL     OW 5097   6.591   5.035  10.575 -0.1591 -0.0443 -0.4991
  214SOL    HW1 5098   6.505   4.992  10.572 -0.0392 -0.2737 -0.6626
  214SOL    HW2 5099   6.572   5.126  10.598 -0.4192 -0.1789 -0.1687
  215SOL     OW 5100   3.997   9.565   6.119  0.1441 -0.3153 -0.0318
  215SOL    HW1 5101   4.045   9.578   6.038 -0.6443 -0.2273 -0.4956
  215SOL    HW2 5102   3.971   9.473   6.118 -0.8224 -0.0513 -0.4288
  216SOL     OW 5103   5.219  10.230   5.279 -0.3673  0.2045 -0.0566
  216SOL    HW1 5104   5.302  10.237   5.327  0.1431  0.0008 -0.8961
  216SOL    HW2 5105   5.189  10.320   5.270  0.0085  0.3204 -0.1702
  217SOL     OW 5106   9.533   3.476   1.614 -0.0873 -0.6611 -0.3258
  217SOL    HW1 5107   9.445   3.500   1.585 -0.4183 -1.0654  0.3236
  217SOL    HW2 5108   9.574   3.558   1.638 -1.2021 -0.6840  1.8705
  218SOL     OW 5109   6.636   3.474   7.630 -0.2852 -0.1150 -0.9597
  218SOL    HW1 5110   6.660   3.393   7.675  3.1671  0.1158 -2.0785
  218SOL    HW2 5111   6.630   3.539   7.700 -1.3644 -0.9343 -0.2441
  219SOL     OW 5112   9.375   9.960   3.618 -0.3195 -0.0940  0.2115
  219SOL    HW1 5113   9.425   9.937   3.540  1.4577  0.3551  1.1689
  219SOL    HW2 5114   9.312   9.889   3.629  1.5007 -1.7846  0.1182
  220SOL     OW 5115   7.006   7.357  10.189 -0.2523  0.0394  0.3322
  220SOL    HW1 5116   7.068   7.361  10.116  0.1645  0.7159  0.7071
  220SOL    HW2 5117   7.049   7.407  10.259 -1.5686  1.2327  0.3387
  221SOL     OW 5118   2.587   7.105   4.869  0.0338  0.4244 -0.1227
  221SOL    HW1 5119   2.654   7.170   4.890  1.0502 -0.8991  0.8792
  221SOL    HW2 5120   2.507   7.157   4.858  1.2230  2.0563 -1.5713
  222SOL     OW 5121   2.404   6.299   1.168  0.0660 -0.7556  0.0572
  222SOL    HW1 5122   2.411   6.386   1.128 -0.2263 -0.7512  0.0135
  222SOL    HW2 5123   2.493   6.277   1.194 -0.0464  0.2056  1.4099
  223SOL     OW 5124   5.746   1.392   1.866 -0.0137 -0.0628  0.3036
  223SOL    HW1 5125   5.761   1.322   1.803 -1.1759  0.4813 -0.6034
  223SOL    HW2 5126   5.691   1.352   1.934 -1.4384  0.1730 -0.6721
  224SOL     OW 5127   2.932   8.453   8.183  0.5491  0.0300 -0.6170
  224SOL    HW1 5128   2.871   8.387   8.150  0.4449 -0.2387  0.0884
  224SOL    HW2 5129   2.881   8.534   8.185  0.5376  0.0346 -1.0422
  225SOL     OW 5130   1.922   9.540   7.226 -0.0588  0.6388  0.3398
  225SOL    HW1 5131   1.902   9.570   7.315 -1.9693  2.0697 -0.5230
  225SOL    HW2 5132   1.866   9.464   7.213 -0.1325  0.7190  0.1897
  226SOL     OW 5133   4.406   5.437   8.180 -0.5049  0.8322 -0.0170
  226SOL    HW1 5134   4.376   5.514   8.228  1.3050  1.1722  0.6484
  226SOL    HW2 5135   4.497   5.456   8.159  0.2837 -1.4803  0.9864
  227SOL     OW 5136   8.917   6.198   3.909 -0.1126 -0.1315 -0.1081
  227SOL    HW1 5137   8.849   6.142   3.872  0.9119 -0.6842 -1.2220
  227SOL    HW2 5138   8.974   6.137   3.957 -0.2765  0.2980  0.6514
  228SOL     OW 5139   9.203   1.961   3.274 -0.7436  0.2522  0.2864
  228SOL    HW1 5140   9.167   1.916   3.350  0.8057 -0.4368  0.6629
  228SOL    HW2 5141   9.130   1.968   3.212 -1.7544 -0.1209  1.4092
  229SOL     OW 5142   0.782   8.815   3.790  0.3951  0.6085 -0.6535
  229SOL    HW1 5143   0.770   8.775   3.876  0.0804  1.1191 -0.4531
  229SOL    HW2 5144   0.829   8.749   3.738  1.7600  0.7925  0.2951
  230SOL     OW 5145   2.122  10.535   4.139 -0.3828 -0.1836 -0.1446
  230SOL    HW1 5146   2.140  10.531   4.233  0.7555 -0.5968 -0.3661
  230SOL    HW2 5147   2.208  10.534   4.097 -0.7973  1.4912 -1.1698
  231SOL     OW 5148  10.703   0.773   5.206  0.2168 -0.1579 -0.4366
  231SOL    HW1 5149  10.662   0.850   5.167  0.2956  0.4957  0.7229
  231SOL    HW2 5150  10.796   0.780   5.182 -0.2671 -1.7465 -3.2368
  232SOL     OW 5151   1.132   0.026   1.806 -0.4588 -0.0853 -0.1515
  232SOL    HW1 5152   1.068   0.037   1.876  0.1241 -1.2302  0.6067
  232SOL    HW2 5153   1.096  -0.043   1.751  0.2798 -1.0116  0.4999
  233SOL     OW 5154   9.566   0.406   7.784 -0.5999 -0.4083 -0.1645
  233SOL    HW1 5155   9.567   0.352   7.705  1.5854 -1.2809  0.3737
  233SOL    HW2 5156   9.610   0.487   7.758  3.6735 -2.1001  0.8669
  234SOL     OW 5157   8.245   3.941   4.755  0.6492  0.2181  0.2005
  234SOL    HW1 5158   8.281   3.996   4.686 -0.0524 -0.1457 -0.4750
  234SOL    HW2 5159   8.244   3.997   4.832  1.2437  0.6997 -0.1283
  235SOL     OW 5160   0.147   2.102   1.459  0.2897  0.1836  0.2966
  235SOL    HW1 5161   0.077   2.044   1.487  0.8303 -1.2074 -1.0787
  235SOL    HW2 5162   0.127   2.122   1.368  1.6658 -0.2408 -0.1239
  236SOL     OW 5163  10.325   4.039   6.498 -0.5116  0.4173 -0.6179
  236SOL    HW1 5164  10.420   4.049   6.486 -0.4972 -0.4559 -1.3724
  236SOL    HW2 5165  10.287   4.108   6.444 -0.3250 -0.1019 -1.4261
  237SOL     OW 5166   7.637   2.075   5.932  0.5684  0.5230  0.0359
  237SOL    HW1 5167   7.559   2.127   5.913  1.8632  2.2068 -0.8969
  237SOL    HW2 5168   7.675   2.117   6.010 -1.2170 -2.4042  2.7291
  238SOL     OW 5169   3.223   4.755   1.115  0.2265 -0.0412 -0.1744
  238SOL    HW1 5170   3.297   4.805   1.149  1.4737 -0.6343 -1.8880
  238SOL    HW2 5171   3.247   4.664   1.130 -0.9309 -0.2256  0.7237
  239SOL     OW 5172   4.782   0.342   7.179  0.8764  0.2143 -0.6324
  239SOL    HW1 5173   4.787   0.375   7.089 -1.7543  2.7007 -0.0292
  239SOL    HW2 5174   4.844   0.396   7.228  0.8860  0.2014 -0.6302
  240SOL     OW 5175  10.677   7.794   7.427  0.1458  0.1600 -0.2815
  240SOL    HW1 5176  10.599   7.768   7.476  1.5969 -1.7010  1.2251
  240SOL    HW2 5177  10.644   7.824   7.342 -2.1974 -0.2204  0.4382
  241SOL     OW 5178   6.632   1.712   2.493 -0.6728 -0.0538  0.2209
  241SOL    HW1 5179   6.588   1.701   2.409 -1.3826  1.7333  0.3048
  241SOL    HW2 5180   6.586   1.652   2.552 -1.1032 -0.2982 -0.3545
  242SOL     OW 5181   1.990   0.457   6.060 -0.6854  0.5847  0.6882
  242SOL    HW1 5182   2.012   0.540   6.017  0.2930  0.3374  0.6779
  242SOL    HW2 5183   1.895   0.449   6.051 -0.9704  2.3242  1.7982
  243SOL     OW 5184   5.950   1.626   9.746  0.3854  0.3869  0.0289
  243SOL    HW1 5185   6.001   1.657   9.671  1.0852 -0.0621  0.3138
  243SOL    HW2 5186   5.925   1.537   9.723  0.5962  0.2516  0.3249
  244SOL     OW 5187   7.001   8.606  10.034 -0.2508 -0.0918 -0.6758
  244SOL    HW1 5188   6.941   8.620   9.961 -0.2604  1.0297 -0.4746
  244SOL    HW2 5189   7.021   8.512  10.032  1.8195  0.2564 -3.7574
  245SOL     OW 5190  10.989  10.034  10.991  0.0732 -0.1840 -0.2950
  245SOL    HW1 5191  11.012  10.033  10.898 -1.7444  0.8295 -0.8229
  245SOL    HW2 5192  10.947  10.119  11.004  0.7022 -0.1174  1.5877
  246SOL     OW 5193   9.378   9.680   2.042 -0.0982  0.5150 -0.9073
  246SOL    HW1 5194   9.402   9.608   1.983  0.4028 -0.7189  0.7343
  246SOL    HW2 5195   9.302   9.647   2.090  0.5961  0.7731  0.3882
  247SOL     OW 5196   5.171   4.030   4.123 -0.3349  0.2801  0.3358
  247SOL    HW1 5197   5.196   4.069   4.039 -0.4626  1.3625  0.7945
  247SOL    HW2 5198   5.076   4.042   4.128 -0.2320  0.8829  0.9639
  248SOL     OW 5199  10.463   1.915  11.039  0.1403  0.6753 -0.2385
  248SOL    HW1 5200  10.406   1.843  11.067  1.2751  0.1078  0.7111
  248SOL    HW2 5201  10.552   1.879  11.043  0.6624  1.8502 -0.6480
  249SOL     OW 5202   4.019   2.682   1.192  0.1759  0.2635  0.7767
  249SOL    HW1 5203   4.002   2.763   1.144 -0.1468  0.7953  1.7796
  249SOL    HW2 5204   3.932   2.652   1.219  0.1265 -1.2177 -0.8150
  250SOL     OW 5205   2.661   9.293   0.114 -0.4915 -0.0596  0.0526
  250SOL    HW1 5206   2.696   9.219   0.065 -0.7515 -0.5341  0.5660
  250SOL    HW2 5207   2.709   9.290   0.197 -0.1820  0.6239 -0.0952
  251SOL     OW 5208   9.065   9.819   3.914  0.3255  0.4260 -0.2227
  251SOL    HW1 5209   9.076   9.728   3.942 -2.7749  0.2156  0.6995
  251SOL    HW2 5210   9.050   9.868   3.994  3.8269  2.2726 -0.4739
  252SOL     OW 5211  10.047   6.974   0.702 -0.0403 -0.3814  0.6535
  252SOL    HW1 5212  10.118   6.956   0.640 -0.3823 -0.5794  0.3168
  252SOL    HW2 5213  10.008   6.889   0.719  0.7858 -0.5197  2.0625
  253SOL     OW 5214   4.418  11.070   3.153 -0.0899 -0.2390  0.2138
  253SOL    HW1 5215   4.366  11.002   3.195  0.3105 -0.6788  0.0073
  253SOL    HW2 5216   4.475  11.023   3.093  0.2638  0.2745  0.1395
  254SOL     OW 5217   9.817   3.551   2.280 -0.3464  1.0975 -0.3316
  254SOL    HW1 5218   9.798   3.546   2.374 -0.8545 -0.5702 -0.4896
  254SOL    HW2 5219   9.911   3.534   2.274 -0.3644  0.9335 -0.1504
  255SOL     OW 5220   2.393  10.225   8.615  0.0486 -0.1671 -0.5567
  255SOL    HW1 5221   2.487  10.222   8.593  0.8152  0.9740  2.1085
  255SOL    HW2 5222   2.361  10.137   8.596  1.7899 -0.7448 -1.0351
  256SOL     OW 5223   2.507   2.936  10.944 -0.8330 -0.0097  0.3697
  256SOL    HW1 5224   2.553   2.962  11.024 -0.6051  0.4415  0.0885
  256SOL    HW2 5225   2.423   2.902  10.976 -1.8290  2.5386  0.6528
  257SOL     OW 5226   7.372   5.423   8.222 -0.4182  0.0490  0.1215
  257SOL    HW1 5227   7.286   5.381   8.223 -0.1654 -0.6363 -1.8411
  257SOL    HW2 5228   7.394   5.436   8.314 -1.7127 -1.6676  0.7217
  258SOL     OW 5229   3.966   9.356   0.339 -0.2490  0.2384  0.1526
  258SOL    HW1 5230   4.031   9.373   0.271  0.8387  0.9471  1.3256
  258SOL    HW2 5231   4.011   9.300   0.402 -1.6517 -1.4774 -0.2965
  259SOL     OW 5232  10.374  10.912   3.818  0.2678  0.3310 -0.3075
  259SOL    HW1 5233  10.432  10.880   3.887 -0.8277  2.3394  1.6855
  259SOL    HW2 5234  10.311  10.841   3.806 -0.1026  0.2942  1.5258
  260SOL     OW 5235   4.306   0.738   3.720 -0.2395 -0.1249 -0.6757
  260SOL    HW1 5236   4.223   0.716   3.764 -0.6310  1.6510 -0.4461
  260SOL    HW2 5237   4.287   0.726   3.627 -0.8462  0.4977 -0.6413
  261SOL     OW 5238   5.488   2.195   5.334  0.6433  0.2216  0.2152
  261SOL    HW1 5239   5.462   2.103   5.346  1.3930 -0.1661 -0.9059
  261SOL    HW2 5240   5.418   2.245   5.376 -0.3951 -0.8441 -0.1509
  262SOL     OW 5241   4.234   6.431   7.140  0.2376 -0.4643 -0.3825
  262SOL    HW1 5242   4.262   6.428   7.049 -2.5828 -0.2374 -1.3541
  262SOL    HW2 5243   4.232   6.339   7.168 -0.5142 -0.6781 -1.1203
  263SOL     OW 5244   3.855   3.511   4.500 -0.3343  0.3781 -0.5597
  263SOL    HW1 5245   3.781   3.472   4.545 -1.0779  1.1712 -1.0492
  263SOL    HW2 5246   3.907   3.437   4.468  0.5362 -0.2143  2.0486
  264SOL     OW 5247   9.485   0.653   6.076 -0.1415  0.3478  0.2928
  264SOL    HW1 5248   9.469   0.574   6.023 -0.2233 -0.4590  1.4729
  264SOL    HW2 5249   9.401   0.673   6.116 -0.0272  0.8009  0.3128
  265SOL     OW 5250  10.201   4.664   9.559  0.3590 -0.1032  0.1799
  265SOL    HW1 5251  10.244   4.609   9.625  1.5465 -0.0441 -0.5134
  265SOL    HW2 5252  10.212   4.753   9.591  0.9613 -0.0720 -0.0874
  266SOL     OW 5253   5.025   2.812   2.682  0.6346 -0.2902  0.5431
  266SOL    HW1 5254   5.053   2.887   2.735  1.5861  0.6994 -1.2553
  266SOL    HW2 5255   4.988   2.851   2.603 -1.4946 -1.7137  0.7852
  267SOL     OW 5256  10.770   0.693   4.933  0.6746  0.1139 -0.2682
  267SOL    HW1 5257  10.845   0.751   4.922 -0.9824  2.4370 -0.0413
  267SOL    HW2 5258  10.799   0.628   4.998  2.2183  1.4323  0.4279
  268SOL     OW 5259   7.736   0.446   4.857 -0.0263  0.3836 -0.0628
  268SOL    HW1 5260   7.646   0.428   4.886 -0.3776  1.7559 -0.2206
  268SOL    HW2 5261   7.779   0.479   4.936  0.1514  0.3551 -0.1494
  269SOL     OW 5262   1.717   1.087   2.701  0.2937 -0.5359 -0.4330
  269SOL    HW1 5263   1.770   1.137   2.763  0.5783 -0.5602 -0.6515
  269SOL    HW2 5264   1.782   1.042   2.646  0.0435 -0.7129 -0.5840
  270SOL     OW 5265   0.658   2.221   7.886  0.8075 -0.2367  0.3235
  270SOL    HW1 5266   0.742   2.233   7.931  1.4700  0.8547 -1.1295
  270SOL    HW2 5267   0.598   2.280   7.932  1.1420 -0.1373  0.6367
  271SOL     OW 5268   8.816   5.552   7.252  0.0116 -0.3782 -0.3785
  271SOL    HW1 5269   8.727   5.587   7.252  0.7456  1.6093 -0.9442
  271SOL    HW2 5270   8.818   5.492   7.327 -1.4350  0.5287  0.4403
  272SOL     OW 5271   4.388   9.505  10.408 -0.0964 -0.3424 -0.3667
  272SOL    HW1 5272   4.319   9.523  10.344 -1.8387  1.2347  1.7702
  272SOL    HW2 5273   4.432   9.589  10.420  1.1646 -0.9553 -0.4803
  273SOL     OW 5274  10.049   1.064   1.622 -0.0310 -0.3687 -0.0812
  273SOL    HW1 5275  10.042   1.058   1.717 -2.6548  0.2474 -0.1639
  273SOL    HW2 5276  10.012   1.150   1.600  0.5526 -0.4840 -1.6699
  274SOL     OW 5277   3.143   2.274   7.401 -0.5380  0.4441 -0.0477
  274SOL    HW1 5278   3.079   2.295   7.469  0.4652 -0.6443  1.2895
  274SOL    HW2 5279   3.091   2.266   7.321 -2.0031  0.1369  0.8889
  275SOL     OW 5280   3.581   5.139   3.348  0.2511  0.2884  0.0736
  275SOL    HW1 5281   3.630   5.197   3.405  0.9994 -0.1668 -0.0861
  275SOL    HW2 5282   3.626   5.055   3.354 -0.8038 -0.2804  0.2937
  276SOL     OW 5283   0.837   5.469   2.057 -0.9352 -0.2256 -0.1358
  276SOL    HW1 5284   0.858   5.411   1.984  0.1974 -1.3281  1.0293
  276SOL    HW2 5285   0.745   5.450   2.077 -1.1434 -0.1864 -1.0106
  277SOL     OW 5286   1.410   4.972   9.924 -0.1282  0.0974  0.5273
  277SOL    HW1 5287   1.318   4.979   9.898 -0.3734 -0.5394  1.2204
  277SOL    HW2 5288   1.436   5.062   9.945 -0.1428  0.5228 -1.1197
  278SOL     OW 5289   0.305   2.295  10.547 -0.2523  1.1882 -0.4486
  278SOL    HW1 5290   0.234   2.232  10.540  0.7592 -0.1324  0.5674
  278SOL    HW2 5291   0.335   2.286  10.638  1.8410  0.9719 -1.1178
  279SOL     OW 5292  10.661   8.119   5.881  0.3106 -0.0520  0.2854
  279SOL    HW1 5293  10.711   8.200   5.895  0.1797 -0.0368  0.6859
  279SOL    HW2 5294  10.724   8.049   5.900  0.0471 -0.0303  1.3301
  280SOL     OW 5295   8.034   2.287   5.962  0.8082  0.1420 -0.7783
  280SOL    HW1 5296   7.946   2.292   5.925  1.1301 -1.9344 -2.0178
  280SOL    HW2 5297   8.022   2.250   6.049  0.2699  2.5088  0.2216
  281SOL     OW 5298   7.330   2.238   2.666  0.1191 -0.3251  0.2700
  281SOL    HW1 5299   7.357   2.227   2.757 -0.5435 -2.1251  0.2806
  281SOL    HW2 5300   7.239   2.269   2.671 -0.3696 -1.7134  0.2397
  282SOL     OW 5301   6.239   2.035   9.913 -1.2076 -0.2089  0.0554
  282SOL    HW1 5302   6.261   2.079   9.996 -2.1600  0.1760  0.1170
  282SOL    HW2 5303   6.188   2.100   9.864  0.4626  0.0564 -1.4237
  283SOL     OW 5304   4.495   2.010   2.986 -0.1579  0.0271 -0.4281
  283SOL    HW1 5305   4.545   1.947   2.935 -1.5959 -1.0636 -0.5398
  283SOL    HW2 5306   4.537   2.010   3.072  2.1894  1.7672 -1.4537
  284SOL     OW 5307   7.525   8.448   7.239  0.2285  0.0793  0.2084
  284SOL    HW1 5308   7.450   8.496   7.204  1.0475  1.9101  0.8437
  284SOL    HW2 5309   7.576   8.514   7.286  1.6840 -1.3337  0.7055
  285SOL     OW 5310   7.564  10.938   3.068 -0.1951  0.1303  0.0586
  285SOL    HW1 5311   7.522  11.015   3.028 -0.6346  0.7409  1.6368
  285SOL    HW2 5312   7.520  10.863   3.029  0.6918  0.6224 -2.0177
  286SOL     OW 5313   9.422   3.555   3.367 -0.5099  0.7311  0.8035
  286SOL    HW1 5314   9.481   3.526   3.298 -2.8544 -0.6443 -0.7565
  286SOL    HW2 5315   9.479   3.599   3.430  1.8811  1.1540 -1.4733
  287SOL     OW 5316   3.874   8.691   4.381  0.4114 -0.1797 -0.7182
  287SOL    HW1 5317   3.855   8.785   4.390  1.5252 -0.0437  0.5028
  287SOL    HW2 5318   3.895   8.680   4.288  1.9563  1.1341 -0.5654
  288SOL     OW 5319   9.143   2.393   7.613  0.2911 -0.1868  0.0653
  288SOL    HW1 5320   9.180   2.480   7.598 -1.6905  0.4214 -1.9630
  288SOL    HW2 5321   9.207   2.333   7.577 -0.2415  0.7864 -2.7786
  289SOL     OW 5322   5.282   7.003   2.962  0.9004  0.5315  0.5899
  289SOL    HW1 5323   5.244   6.967   3.042  0.7634 -0.6145  0.0347
  289SOL    HW2 5324   5.358   6.947   2.945  1.4232  1.2940  0.3746
  290SOL     OW 5325   6.867   0.417   9.024  0.4429 -0.4982  0.3019
  290SOL    HW1 5326   6.909   0.499   9.050 -0.5245  0.3509 -0.7043
  290SOL    HW2 5327   6.930   0.376   8.965  0.3727  0.2065 -0.2811
  291SOL     OW 5328   4.855   6.333   2.261 -0.6505 -0.0026 -0.0025
  291SOL    HW1 5329   4.881   6.392   2.190  0.5881  1.7577  1.8095
  291SOL    HW2 5330   4.889   6.247   2.234  1.8039  1.0432 -0.5521
  292SOL     OW 5331   6.585   7.343   0.721 -0.2848 -0.3740  0.1207
  292SOL    HW1 5332   6.547   7.429   0.740 -0.2439 -0.5997  1.3056
  292SOL    HW2 5333   6.584   7.337   0.626 -0.3030  0.9326  0.0168
  293SOL     OW 5334   5.918   4.239   9.960 -0.2744 -0.0550 -0.2930
  293SOL    HW1 5335   5.998   4.255  10.010 -1.1850  1.8330  0.6832
  293SOL    HW2 5336   5.934   4.280   9.875 -0.3465  0.6739  0.0422
  294SOL     OW 5337   1.358   7.566   8.673  0.3441  0.1149 -0.2296
  294SOL    HW1 5338   1.445   7.594   8.701  0.7658 -2.3082  1.2073
  294SOL    HW2 5339   1.302   7.580   8.750 -0.0276 -0.3542 -0.4055
  295SOL     OW 5340   0.093   6.555   6.859 -0.0518  0.4832  0.1697
  295SOL    HW1 5341   0.023   6.541   6.922 -0.4511 -0.0245 -0.3707
  295SOL    HW2 5342   0.059   6.520   6.777 -0.2266  2.6345 -0.7592
  296SOL     OW 5343  10.854   6.334   7.695 -0.0285 -0.5103  0.2227
  296SOL    HW1 5344  10.880   6.365   7.608  1.4629 -0.2083  0.7584
  296SOL    HW2 5345  10.824   6.245   7.680  2.4534 -1.3271 -0.2933
  297SOL     OW 5346   8.654   1.749  10.443  0.2913 -0.1036 -0.5807
  297SOL    HW1 5347   8.596   1.720  10.372  1.0787  0.2969 -1.4133
  297SOL    HW2 5348   8.741   1.746  10.404  0.8160 -0.5198  0.5918
  298SOL     OW 5349   9.545   6.534  11.014  0.1020  0.1803  0.1382
  298SOL    HW1 5350   9.535   6.463  11.077 -0.9382 -1.1053 -1.3752
  298SOL    HW2 5351   9.480   6.600  11.041  0.1441 -0.0502  0.7936
  299SOL     OW 5352   1.633   7.568   2.599  0.3025 -0.1797  0.2775
  299SOL    HW1 5353   1.715   7.540   2.558 -0.1182  0.1263 -0.7916
  299SOL    HW2 5354   1.570   7.573   2.528 -0.4055  0.5556  0.9241
  300SOL     OW 5355   6.859   8.393   4.545  0.1603  0.1121  0.5821
  300SOL    HW1 5356   6.772   8.364   4.572 -0.0777 -0.4757 -0.7662
  300SOL    HW2 5357   6.913   8.315   4.551  0.2364  0.1119 -0.0572
  301SOL     OW 5358   4.778   0.154   0.631  0.4919 -0.4349  0.0491
  301SOL    HW1 5359   4.815   0.242   0.630  0.9328 -0.6153 -1.1620
  301SOL    HW2 5360   4.696   0.162   0.582  0.1919 -0.5625  0.5250
  302SOL     OW 5361   4.811   1.259   0.750 -0.0212 -0.8583  0.2351
  302SOL    HW1 5362   4.820   1.293   0.839  0.5659 -0.0193 -0.1276
  302SOL    HW2 5363   4.770   1.173   0.761 -0.5231 -0.5066  1.2621
  303SOL     OW 5364   8.331   5.019   3.198  0.1173 -0.0353 -0.2617
  303SOL    HW1 5365   8.299   4.997   3.286 -1.0055 -0.8645 -0.8485
  303SOL    HW2 5366   8.253   5.047   3.150  1.0483  2.7602 -0.3708
  304SOL     OW 5367   1.617   8.012   5.919 -0.2340  0.4172 -0.2799
  304SOL    HW1 5368   1.617   7.976   5.830  0.4628  1.5946 -0.7785
  304SOL    HW2 5369   1.524   8.016   5.943 -0.3796 -0.7114 -0.6009
  305SOL     OW 5370   2.769   5.905  10.871  0.2344 -0.5225 -0.4473
  305SOL    HW1 5371   2.768   5.810  10.869 -0.5715 -0.6503  1.9877
  305SOL    HW2 5372   2.693   5.929  10.925  0.3986  1.4936 -1.0166
  306SOL     OW 5373   3.000   0.165   4.708 -0.2646  0.1221 -0.0276
  306SOL    HW1 5374   2.982   0.111   4.785 -1.1809  1.1451  0.5069
  306SOL    HW2 5375   3.065   0.230   4.738  1.0122 -0.7907 -0.7293
  307SOL     OW 5376   3.296   6.745   0.768 -0.2144 -0.4772  0.4625
  307SOL    HW1 5377   3.210   6.785   0.755  0.2101  0.0368 -0.9882
  307SOL    HW2 5378   3.281   6.651   0.757 -0.4408 -0.3098 -0.7696
  308SOL     OW 5379   5.631   0.253   6.586  0.5498 -0.8982 -0.1940
  308SOL    HW1 5380   5.712   0.302   6.570  1.0731 -0.3205  3.4045
  308SOL    HW2 5381   5.662   0.169   6.622 -0.4478 -1.7507 -1.2604
  309SOL     OW 5382   3.484   7.868   7.088  0.4048 -0.4154  0.2605
  309SOL    HW1 5383   3.492   7.923   7.010 -0.4216  0.5633  0.8414
  309SOL    HW2 5384   3.541   7.909   7.153  0.0700 -0.4478  0.5823
  310SOL     OW 5385   9.911   9.600   2.752 -0.3916  0.0037  0.3609
  310SOL    HW1 5386   9.846   9.644   2.697 -0.5055 -0.5628  0.0325
  310SOL    HW2 5387   9.895   9.507   2.739  0.0876 -0.1432  0.7565
  311SOL     OW 5388   9.503   6.294   0.132  1.3502 -0.0863  0.3770
  311SOL    HW1 5389   9.569   6.344   0.179  3.2315 -0.9176 -1.2305
  311SOL    HW2 5390   9.510   6.206   0.167 -0.3579  0.2002  1.5819
  312SOL     OW 5391   0.558   5.653   4.106  0.0669 -0.0376  0.1837
  312SOL    HW1 5392   0.594   5.685   4.189 -1.1186 -0.5035  0.9137
  312SOL    HW2 5393   0.629   5.664   4.043  0.8335  0.7883  1.1506
  313SOL     OW 5394   3.758   6.338   5.707 -0.0466 -0.5580 -0.5404
  313SOL    HW1 5395   3.750   6.291   5.789  0.5115 -0.0158 -0.1625
  313SOL    HW2 5396   3.671   6.371   5.688  0.3336  1.7961  1.3559
  314SOL     OW 5397   5.204   5.788   7.917 -0.1745 -0.0095 -0.3271
  314SOL    HW1 5398   5.269   5.773   7.986 -0.2711 -0.8604 -0.4120
  314SOL    HW2 5399   5.137   5.721   7.932 -0.2223 -0.1687 -1.2162
  315SOL     OW 5400   3.943   4.891   8.205 -0.6145 -0.2440 -0.3852
  315SOL    HW1 5401   3.981   4.978   8.197  0.0747 -0.4790  0.2628
  315SOL    HW2 5402   3.942   4.874   8.299  0.1294 -1.3105 -0.5542
  316SOL     OW 5403   0.964   4.148   4.657 -0.6605 -0.4932 -0.1250
  316SOL    HW1 5404   1.051   4.116   4.681 -1.5120 -2.4199  0.6402
  316SOL    HW2 5405   0.975   4.242   4.645  0.9414 -0.1574  2.8782
  317SOL     OW 5406  10.869   8.171   9.752 -0.7093 -0.2135  0.0863
  317SOL    HW1 5407  10.847   8.262   9.772  2.0613  0.5125  0.2653
  317SOL    HW2 5408  10.821   8.119   9.817 -1.2773  1.2179  0.8379
  318SOL     OW 5409   3.564   0.834   2.814  0.3272  0.2750  0.3340
  318SOL    HW1 5410   3.521   0.888   2.747  0.2556  0.8147  0.8108
  318SOL    HW2 5411   3.493   0.808   2.873  0.3655 -0.3308  0.1254
  319SOL     OW 5412   3.105   8.853   2.621  0.0497 -0.8218  0.2515
  319SOL    HW1 5413   3.025   8.884   2.665 -1.1914 -2.0411 -1.0384
  319SOL    HW2 5414   3.153   8.933   2.599 -1.3380  0.0075  0.1186
  320SOL     OW 5415  10.037   4.091  10.611  0.0584  0.0938  0.2896
  320SOL    HW1 5416   9.957   4.063  10.656  0.5334  0.6317  1.5143
  320SOL    HW2 5417  10.104   4.030  10.642 -0.0758 -1.1589 -1.6949
  321SOL     OW 5418   0.189   6.762   6.704  0.4411  0.3317  0.4275
  321SOL    HW1 5419   0.283   6.758   6.687  0.5868  0.5783  1.1296
  321SOL    HW2 5420   0.174   6.694   6.771  0.2968  0.9677  1.0502
  322SOL     OW 5421   2.406   4.611   1.820  0.1181  0.3159  0.2662
  322SOL    HW1 5422   2.443   4.694   1.851 -0.1231  0.1447  1.0149
  322SOL    HW2 5423   2.312   4.619   1.837 -0.1051  0.4301 -0.9066
  323SOL     OW 5424   0.033   4.188   4.486  0.0098 -0.3683 -0.4382
  323SOL    HW1 5425  -0.006   4.259   4.434  0.0303 -0.3258 -0.3964
  323SOL    HW2 5426   0.082   4.136   4.424 -0.2439 -0.5127 -0.5190
  324SOL     OW 5427   8.304   1.736   9.356 -0.3425 -0.2197 -0.1112
  324SOL    HW1 5428   8.252   1.806   9.317  1.3568  0.7328 -0.7884
  324SOL    HW2 5429   8.292   1.662   9.297 -0.5277  0.1369 -0.5323
  325SOL     OW 5430   3.058   5.142   6.896 -0.2017  0.4758  0.1987
  325SOL    HW1 5431   3.128   5.196   6.931  0.1169 -1.6352  3.2052
  325SOL    HW2 5432   2.978   5.181   6.932  0.0331 -0.9132  2.4449
  326SOL     OW 5433   3.375   5.637   5.533 -0.0002  0.0867  0.0217
  326SOL    HW1 5434   3.317   5.699   5.578  0.8950 -0.1909  1.6541
  326SOL    HW2 5435   3.347   5.639   5.442 -0.1132  2.7774  0.0449
  327SOL     OW 5436   2.214   7.685   0.886 -0.0329 -0.5250  0.2204
  327SOL    HW1 5437   2.272   7.744   0.837  0.7323 -0.0797  1.6101
  327SOL    HW2 5438   2.271   7.611   0.910 -0.1819 -0.3408  1.1444
  328SOL     OW 5439   1.155   7.409   0.046  0.4597  0.3703 -0.2203
  328SOL    HW1 5440   1.092   7.354   0.093 -0.5677  1.2553 -0.5093
  328SOL    HW2 5441   1.147   7.382  -0.046  0.0288  0.9137 -0.3480
  329SOL     OW 5442   1.745   3.220   8.539 -0.1837  0.3918  0.0997
  329SOL    HW1 5443   1.751   3.132   8.577 -0.8492 -0.1864 -1.0917
  329SOL    HW2 5444   1.737   3.206   8.445 -0.4148  1.7262 -0.1042
  330SOL     OW 5445   2.528  10.380   8.246 -0.4125  0.1286 -0.8638
  330SOL    HW1 5446   2.456  10.321   8.223 -0.6330  0.2981 -0.6168
  330SOL    HW2 5447   2.546  10.429   8.166  0.4449 -0.9574 -1.3758
  331SOL     OW 5448   9.793   6.447   2.406  0.2380  0.4684  0.2232
  331SOL    HW1 5449   9.704   6.417   2.388  0.7366 -0.0594 -1.5930
  331SOL    HW2 5450   9.782   6.526   2.459 -1.2330 -0.6231  1.6533
  332SOL     OW 5451   1.300   4.000   0.516 -0.1906 -0.3114 -0.0974
  332SOL    HW1 5452   1.206   4.007   0.501  0.1822  0.5955 -2.3904
  332SOL    HW2 5453   1.312   3.915   0.559 -2.1873  0.3447  1.9354
  333SOL     OW 5454   2.861   6.095   1.470 -0.0865  0.7039  0.4259
  333SOL    HW1 5455   2.895   6.140   1.547  0.3570  0.8220  0.1635
  333SOL    HW2 5456   2.894   6.145   1.395  1.7390 -0.9260  0.0661
  334SOL     OW 5457   6.865   0.857   5.469 -0.1651  0.1296 -0.0022
  334SOL    HW1 5458   6.846   0.801   5.393 -0.0444 -1.4230  1.0600
  334SOL    HW2 5459   6.779   0.872   5.509 -0.0670 -0.3699  0.4131
  335SOL     OW 5460   5.004  10.654   5.011  0.0290 -0.2731  0.4000
  335SOL    HW1 5461   4.940  10.722   5.032 -0.0242 -0.6986  1.6810
  335SOL    HW2 5462   5.088  10.692   5.038 -0.0762 -0.9430  1.7222
  336SOL     OW 5463   6.081   1.329   8.722  0.0044 -0.3719  0.4241
  336SOL    HW1 5464   6.018   1.264   8.691  0.1397 -0.0204 -0.5996
  336SOL    HW2 5465   6.034   1.412   8.720  0.0341 -0.3274  1.1209
  337SOL     OW 5466   6.804   4.469   8.937  0.4687 -0.3993  1.2582
  337SOL    HW1 5467   6.739   4.413   8.895 -0.4349 -0.0820  2.1831
  337SOL    HW2 5468   6.855   4.506   8.864 -2.9587  2.5514  0.0416
  338SOL     OW 5469   4.103   9.890   7.594 -0.3933  0.5579 -0.3252
  338SOL    HW1 5470   4.194   9.874   7.620 -1.1944 -1.9679  1.2783
  338SOL    HW2 5471   4.093   9.985   7.601  1.5055  0.7074  1.7558
  339SOL     OW 5472   8.894   7.511   3.317 -0.0036 -0.3405 -0.5997
  339SOL    HW1 5473   8.965   7.515   3.253  0.2033 -0.7610 -0.4005
  339SOL    HW2 5474   8.873   7.418   3.324 -0.8132 -0.1900 -0.9066
  340SOL     OW 5475   7.778  10.886   3.235  0.1264 -0.5616 -0.3597
  340SOL    HW1 5476   7.707  10.908   3.174 -0.3910 -1.2529 -0.0184
  340SOL    HW2 5477   7.838  10.960   3.229  0.0586 -0.5937 -1.6722
  341SOL     OW 5478   8.869   5.786   5.328  0.2183  0.1492  0.0024
  341SOL    HW1 5479   8.783   5.781   5.285 -0.8072  0.8490  1.8523
  341SOL    HW2 5480   8.853   5.755   5.417  1.6249  1.3735  0.7193
  342SOL     OW 5481   8.933   4.088   7.529  0.2872  0.2860  0.4715
  342SOL    HW1 5482   8.875   4.064   7.601  0.8878 -0.0848  0.8421
  342SOL    HW2 5483   9.013   4.120   7.571  0.5373  0.3428 -0.0297
  343SOL     OW 5484   6.774   9.559   6.477 -0.0258 -0.6700 -0.1073
  343SOL    HW1 5485   6.862   9.577   6.445 -0.4310 -1.1552 -1.6081
  343SOL    HW2 5486   6.717   9.580   6.402 -1.6803  3.7732  2.0234
  344SOL     OW 5487   6.467   3.405  10.764 -0.3035 -0.0663 -0.4070
  344SOL    HW1 5488   6.434   3.443  10.682 -0.4675 -3.0205 -1.8259
  344SOL    HW2 5489   6.557   3.438  10.772 -0.4267  0.5838 -1.5498
  345SOL     OW 5490   5.650   4.274   7.389  0.3899 -0.4434  0.1917
  345SOL    HW1 5491   5.598   4.350   7.415  0.6774 -0.0010 -0.5356
  345SOL    HW2 5492   5.691   4.299   7.307  1.1800 -1.0650  0.3869
  346SOL     OW 5493   5.451   7.205   9.473  0.1891  0.2725  0.0160
  346SOL    HW1 5494   5.435   7.146   9.546 -2.0419  1.1625  0.3483
  346SOL    HW2 5495   5.501   7.154   9.410  1.5700 -0.7354  1.8482
  347SOL     OW 5496   6.770  10.155   4.465 -0.0952 -0.3931  0.1870
  347SOL    HW1 5497   6.838  10.154   4.532  0.6554  1.5129 -0.4996
  347SOL    HW2 5498   6.697  10.106   4.504 -0.1284  1.6090  2.8855
  348SOL     OW 5499   9.747   4.499  10.397  0.1513 -0.5319  0.4449
  348SOL    HW1 5500   9.739   4.450  10.480 -0.5490 -0.2789  0.5333
  348SOL    HW2 5501   9.712   4.439  10.331  0.2996 -0.5629  0.3944
  349SOL     OW 5502   9.664   8.709   8.560  0.7827 -0.0715 -0.5779
  349SOL    HW1 5503   9.714   8.780   8.601 -0.0723 -0.2674  0.9015
  349SOL    HW2 5504   9.689   8.631   8.610 -1.8548  0.0272  1.0741
  350SOL     OW 5505  10.541   6.871   8.090 -0.0771  0.2470 -0.3599
  350SOL    HW1 5506  10.480   6.817   8.039  1.4661 -1.7677 -0.1811
  350SOL    HW2 5507  10.532   6.839   8.179  2.3621 -1.2393 -0.5814
  351SOL     OW 5508   1.702   6.099   9.566 -0.3829 -0.1884 -0.0570
  351SOL    HW1 5509   1.635   6.066   9.506 -1.1785 -1.4183  1.4236
  351SOL    HW2 5510   1.660   6.095   9.653  1.8016 -1.6805  1.0220
  352SOL     OW 5511  11.020   8.871  11.023  0.2412 -0.1259  0.0283
  352SOL    HW1 5512  11.025   8.930  11.098  0.2772  0.8146 -0.6977
  352SOL    HW2 5513  10.966   8.918  10.959 -1.8060 -1.8891  0.3294
  353SOL     OW 5514   3.699   1.117   5.756 -0.2071  0.1194 -0.3506
  353SOL    HW1 5515   3.761   1.058   5.713 -1.0921 -0.9889 -0.1406
  353SOL    HW2 5516   3.643   1.060   5.808 -0.8388  1.1887  0.1776
  354SOL     OW 5517   2.068   5.064   5.759 -0.5754 -0.5240  0.0888
  354SOL    HW1 5518   1.988   5.046   5.709  0.1166  0.5517 -1.4913
  354SOL    HW2 5519   2.091   5.154   5.735 -0.0748 -0.0122  2.2229
  355SOL     OW 5520   8.589   3.064   8.611  0.1027 -0.8422 -0.5299
  355SOL    HW1 5521   8.597   2.970   8.597  2.7537 -0.8926  0.7479
  355SOL    HW2 5522   8.643   3.103   8.542 -0.0593 -0.3038 -0.3553
  356SOL     OW 5523   7.637   4.288   4.739 -0.4674  0.2021 -0.3430
  356SOL    HW1 5524   7.636   4.384   4.740 -1.5228  0.2114  0.8316
  356SOL    HW2 5525   7.665   4.265   4.651  1.2384  1.5808 -0.2202
  357SOL     OW 5526   2.214   0.312   3.163 -0.0609  0.1502  0.0018
  357SOL    HW1 5527   2.151   0.321   3.234 -0.0225 -0.7738  0.1704
  357SOL    HW2 5528   2.299   0.326   3.204 -0.1647  2.1826 -0.3741
  358SOL     OW 5529   5.996   0.563   0.221  0.5186  0.9808  0.1387
  358SOL    HW1 5530   6.008   0.504   0.296 -3.1649 -0.8779 -0.5004
  358SOL    HW2 5531   5.954   0.640   0.258 -1.9166 -0.2124  0.0410
  359SOL     OW 5532   6.908   7.770   4.682  0.6032  0.4068 -0.2943
  359SOL    HW1 5533   6.866   7.818   4.754  0.7086 -0.1599  0.1554
  359SOL    HW2 5534   6.901   7.678   4.708  2.8960  0.3201  0.2614
  360SOL     OW 5535   6.649   6.563   3.631 -0.1695 -0.1466 -1.0888
  360SOL    HW1 5536   6.698   6.599   3.705  0.3336  0.3675 -1.6702
  360SOL    HW2 5537   6.622   6.476   3.661 -3.3360  1.4124  1.2300
  361SOL     OW 5538   6.137  10.823   9.037  0.4541  0.3457  0.4959
  361SOL    HW1 5539   6.229  10.845   9.055  0.0146  2.0809  0.7873
  361SOL    HW2 5540   6.109  10.888   8.973 -0.7571  0.2556  0.9166
  362SOL     OW 5541  10.325  11.063   9.462  0.3514  0.0032 -0.5809
  362SOL    HW1 5542  10.271  11.016   9.525 -0.0749  1.6375  0.3360
  362SOL    HW2 5543  10.355  11.140   9.510  1.1653  0.5735 -1.9643
  363SOL     OW 5544   6.542   7.184   1.366  0.5696  0.0349  0.5267
  363SOL    HW1 5545   6.567   7.102   1.324  0.4276  0.5113 -0.5136
  363SOL    HW2 5546   6.606   7.195   1.437  0.8871 -0.7202  0.3676
  364SOL     OW 5547   2.245   1.878   4.413 -0.3274 -0.3481 -0.4914
  364SOL    HW1 5548   2.272   1.928   4.489  0.0028 -0.6327 -0.4188
  364SOL    HW2 5549   2.175   1.930   4.373  0.3584  0.4231 -0.7095
  365SOL     OW 5550   8.267   2.675   5.288  0.7052  0.1922 -0.1192
  365SOL    HW1 5551   8.256   2.581   5.270  2.2900  0.2283 -1.4678
  365SOL    HW2 5552   8.282   2.714   5.202 -0.1170  1.7375  0.4053
  366SOL     OW 5553  10.966  10.491   3.050  0.1178 -0.5603  0.5217
  366SOL    HW1 5554  10.885  10.454   3.085  0.5234 -1.2815  0.7295
  366SOL    HW2 5555  11.026  10.490   3.125  0.2079  0.3376  0.4754
  367SOL     OW 5556   7.689   3.131   3.290 -0.1913  0.0119 -0.3620
  367SOL    HW1 5557   7.654   3.110   3.204 -0.6144 -2.2226  0.2801
  367SOL    HW2 5558   7.611   3.151   3.342 -0.2079 -1.1309  0.0918
  368SOL     OW 5559   3.712   5.505   2.519  0.1710  0.1797 -0.0486
  368SOL    HW1 5560   3.713   5.502   2.423  0.2639 -0.1937 -0.0350
  368SOL    HW2 5561   3.764   5.582   2.540 -2.9231  2.5726 -0.3842
  369SOL     OW 5562   7.083  10.168   1.442 -0.6111  0.1460 -0.1981
  369SOL    HW1 5563   7.103  10.257   1.412 -2.1680  0.8666  0.7904
  369SOL    HW2 5564   7.161  10.142   1.493 -0.5188  1.3248  0.2987
  370SOL     OW 5565   8.771   1.437   3.046  0.5982 -0.1797 -0.3246
  370SOL    HW1 5566   8.787   1.391   2.963 -1.3005 -0.7366 -0.4277
  370SOL    HW2 5567   8.692   1.488   3.030  1.1069  0.9773  0.6850
  371SOL     OW 5568   2.734   8.060   2.617  0.2125  0.3672 -0.4774
  371SOL    HW1 5569   2.723   7.969   2.590  0.4927  0.1419  0.1473
  371SOL    HW2 5570   2.659   8.077   2.675  0.7073  0.2064  0.2269
  372SOL     OW 5571   0.011   4.533   3.676 -0.1246 -0.3659 -0.5238
  372SOL    HW1 5572  -0.081   4.555   3.663  0.1276  2.4028  1.5255
  372SOL    HW2 5573   0.058   4.586   3.612  0.1445 -0.6949 -0.6048
  373SOL     OW 5574  10.407   2.919   0.593  0.1903  0.3925  0.1731
  373SOL    HW1 5575  10.489   2.953   0.557  0.5372 -1.5103 -0.9640
  373SOL    HW2 5576  10.397   2.833   0.553 -2.3980  0.5785  0.2381
  374SOL     OW 5577  11.022   6.922   7.786 -0.0912 -0.6413  0.3272
  374SOL    HW1 5578  11.000   6.844   7.735 -0.5672 -0.4059  0.1715
  374SOL    HW2 5579  10.948   6.934   7.845  0.3321 -0.7510  0.8887
  375SOL     OW 5580  10.985   2.465   3.682  0.0235  0.2073 -0.5530
  375SOL    HW1 5581  10.903   2.515   3.688  1.8487  3.2574  1.3512
  375SOL    HW2 5582  10.959   2.375   3.703 -2.9203  0.9037 -0.7091
  376SOL     OW 5583   9.828   9.594   5.587 -0.4309  0.6526  0.3920
  376SOL    HW1 5584   9.821   9.606   5.682 -1.7232 -0.9131  0.5451
  376SOL    HW2 5585   9.794   9.505   5.572 -1.3223  1.2872 -1.6570
  377SOL     OW 5586   3.450  10.437   5.140  0.0163  0.3486  0.2191
  377SOL    HW1 5587   3.498  10.364   5.180  2.7442  1.1969 -1.2269
  377SOL    HW2 5588   3.403  10.398   5.067  1.3415 -0.0152 -0.4604
  378SOL     OW 5589   6.070   4.087   8.535 -0.1277 -0.1165  0.6844
  378SOL    HW1 5590   6.098   4.161   8.481  1.0965 -1.0012  0.0665
  378SOL    HW2 5591   6.136   4.081   8.604 -0.8916  0.1054  1.4464
  379SOL     OW 5592   1.097   0.584   5.536  0.0614 -0.1642 -0.1130
  379SOL    HW1 5593   1.079   0.553   5.625 -1.9314  0.4023 -0.2879
  379SOL    HW2 5594   1.093   0.679   5.542 -0.4032 -0.1267 -0.8626
  380SOL     OW 5595   3.561   5.269   0.647  0.0401 -0.1034  0.2483
  380SOL    HW1 5596   3.568   5.258   0.742 -0.6952 -1.1203  0.1999
  380SOL    HW2 5597   3.470   5.248   0.627  0.2127  0.0091 -0.6959
  381SOL     OW 5598   4.346   3.684   5.862 -0.3351 -0.8469  0.2221
  381SOL    HW1 5599   4.393   3.609   5.826  1.3130 -1.4829  3.3244
  381SOL    HW2 5600   4.293   3.648   5.933 -0.1032  0.7723  1.2792
  382SOL     OW 5601   7.926   7.759   4.779  0.0689  0.0338 -0.3903
  382SOL    HW1 5602   8.005   7.706   4.767 -0.2139 -0.1533 -1.5390
  382SOL    HW2 5603   7.857   7.695   4.794  0.2773  0.2345  1.6365
  383SOL     OW 5604   5.882   4.534   0.720  0.2892 -0.2994 -0.5813
  383SOL    HW1 5605   5.808   4.591   0.702 -0.5113 -1.2057 -0.2738
  383SOL    HW2 5606   5.955   4.572   0.671 -0.1141  1.1877 -0.0480
  384SOL     OW 5607   3.618   5.448   8.578 -0.3062 -0.2768  0.3939
  384SOL    HW1 5608   3.704   5.486   8.595  0.4020 -1.5736 -0.1345
  384SOL    HW2 5609   3.598   5.474   8.488 -1.5860  2.0086  1.2549
  385SOL     OW 5610   4.849   3.145   2.375  0.1939  0.3279  0.0437
  385SOL    HW1 5611   4.817   3.221   2.327 -1.3184 -0.7642 -0.7747
  385SOL    HW2 5612   4.772   3.111   2.419  1.1551  0.1136  1.6300
  386SOL     OW 5613   2.069   5.332   6.116  0.2905  0.2187 -0.0855
  386SOL    HW1 5614   2.010   5.306   6.186 -0.6528  0.1150 -0.9029
  386SOL    HW2 5615   2.157   5.312   6.150 -0.0424  1.3569  1.5507
  387SOL     OW 5616   5.008   6.291   9.225 -0.8612  0.2012 -0.0838
  387SOL    HW1 5617   5.017   6.240   9.305  1.1660  0.9356  0.2215
  387SOL    HW2 5618   4.946   6.242   9.172 -2.2296 -0.3255  1.9031
  388SOL     OW 5619   5.283  10.615   0.524  0.0429  0.3947  0.7330
  388SOL    HW1 5620   5.329  10.677   0.582  1.2934 -0.1733  0.3895
  388SOL    HW2 5621   5.264  10.665   0.445  2.0087  0.1070  0.0218
  389SOL     OW 5622   8.613   4.061   5.299 -0.1849 -0.5316  0.0236
  389SOL    HW1 5623   8.584   4.112   5.224 -1.7797  0.9826  1.5762
  389SOL    HW2 5624   8.705   4.041   5.280 -0.5886 -0.4158 -2.3897
  390SOL     OW 5625   4.450   4.770   8.037 -0.0519  0.3747 -0.2101
  390SOL    HW1 5626   4.366   4.815   8.041 -0.3444 -0.0137 -1.6584
  390SOL    HW2 5627   4.506   4.829   7.987 -0.0544 -0.2544 -0.9707
  391SOL     OW 5628   6.329   1.517   3.630  0.0282 -0.3993  0.4114
  391SOL    HW1 5629   6.238   1.545   3.637  0.4322  0.6298  1.8958
  391SOL    HW2 5630   6.346   1.469   3.711  0.9589 -0.0840  0.4158
  392SOL     OW 5631   5.413   9.948  10.919  0.4253  0.8566 -0.2442
  392SOL    HW1 5632   5.335   9.980  10.873 -0.3693 -0.9740 -0.2641
  392SOL    HW2 5633   5.452   9.885  10.858  0.4994 -0.0821  0.7346
  393SOL     OW 5634   9.028   9.575   9.769 -0.6214 -0.0315 -0.5110
  393SOL    HW1 5635   9.123   9.562   9.767 -0.5426  0.0201  1.2585
  393SOL    HW2 5636   8.998   9.550   9.681  0.7182 -2.5333 -0.3413
  394SOL     OW 5637   2.176   8.639   2.389  0.3054 -0.3950  0.3607
  394SOL    HW1 5638   2.157   8.562   2.442 -1.4405 -0.0292  0.3255
  394SOL    HW2 5639   2.156   8.611   2.299 -4.0568  1.0389  0.6538
  395SOL     OW 5640  10.688   6.111   7.713 -0.1358 -0.2406 -0.3329
  395SOL    HW1 5641  10.617   6.172   7.733  1.9924  1.7286  1.7546
  395SOL    HW2 5642  10.677   6.040   7.775 -0.7098 -0.3462 -0.5473
  396SOL     OW 5643   0.329   3.318   0.368  0.2146  0.1104  0.2860
  396SOL    HW1 5644   0.417   3.337   0.400  0.2532  0.3234  0.0618
  396SOL    HW2 5645   0.271   3.370   0.424  0.0404 -1.6533  1.8436
  397SOL     OW 5646   2.741   4.356   1.249 -0.0646  0.4855 -0.3019
  397SOL    HW1 5647   2.745   4.334   1.156 -0.0260 -1.7537  0.1822
  397SOL    HW2 5648   2.769   4.276   1.294 -0.8641  1.2566  1.6642
  398SOL     OW 5649   7.121   2.218   8.320  0.0407  0.2122  0.0964
  398SOL    HW1 5650   7.141   2.142   8.375 -1.7895 -1.1634 -1.0188
  398SOL    HW2 5651   7.073   2.277   8.378 -0.6406 -0.5880  0.3650
  399SOL     OW 5652   5.152   2.429   7.615 -0.0568  0.1445 -0.1749
  399SOL    HW1 5653   5.169   2.522   7.601  0.2428  0.2482  0.8401
  399SOL    HW2 5654   5.222   2.384   7.566  1.1222  0.5056  1.1342
  400SOL     OW 5655   1.756   7.826   2.664  0.1943 -0.5054 -0.0243
  400SOL    HW1 5656   1.836   7.801   2.710 -0.4367 -0.4712  1.1455
  400SOL    HW2 5657   1.706   7.744   2.659 -0.6525 -0.0919  1.2734
  401SOL     OW 5658   6.474   6.403   8.519 -0.0579 -0.2932  0.2012
  401SOL    HW1 5659   6.497   6.311   8.504 -0.6538 -0.4969  0.5036
  401SOL    HW2 5660   6.433   6.431   8.437 -0.9125 -0.6382  0.4966
  402SOL     OW 5661   3.256   0.738   2.035  0.1775  0.3424 -0.0302
  402SOL    HW1 5662   3.194   0.719   1.965  0.4249  0.8693 -0.3985
  402SOL    HW2 5663   3.261   0.657   2.086  0.4032 -0.2300 -0.9377
  403SOL     OW 5664   7.859   4.458   4.827 -0.0409  0.3584  0.5707
  403SOL    HW1 5665   7.884   4.396   4.759 -0.0011  0.9696  0.0234
  403SOL    HW2 5666   7.828   4.535   4.780 -0.0739  0.7674  1.2447
  404SOL     OW 5667  10.874  10.727  10.736 -0.1967  0.1922 -0.4857
  404SOL    HW1 5668  10.862  10.641  10.776  2.3053  1.1657  2.7202
  404SOL    HW2 5669  10.792  10.773  10.755  0.2338  0.0243  2.2081
  405SOL     OW 5670   8.227   8.617   1.854  0.1037  0.2516  0.0396
  405SOL    HW1 5671   8.187   8.531   1.860  2.7483 -1.0198  1.1160
  405SOL    HW2 5672   8.205   8.659   1.937  1.2862 -0.6339  0.8422
  406SOL     OW 5673   2.102  11.042   8.347  0.4095 -0.7775 -0.1579
  406SOL    HW1 5674   2.182  11.026   8.397  0.7946  2.1286  0.3052
  406SOL    HW2 5675   2.114  10.993   8.266  1.3967 -2.6048  1.0122
  407SOL     OW 5676   0.313   8.807   8.663 -0.2761  0.0322  0.9157
  407SOL    HW1 5677   0.363   8.850   8.732  2.1144 -0.1104 -0.6199
  407SOL    HW2 5678   0.224   8.841   8.673  0.0304  0.1787  3.8666
  408SOL     OW 5679   6.529  10.825   0.632  0.4071  0.5294  0.7865
  408SOL    HW1 5680   6.476  10.801   0.556  0.7985  0.7766  0.4350
  408SOL    HW2 5681   6.613  10.852   0.596  0.0446  2.2850  1.1703
  409SOL     OW 5682   7.735   0.926   6.175 -0.1022 -0.0040  0.5685
  409SOL    HW1 5683   7.701   0.906   6.088  1.2917 -1.2543  0.2721
  409SOL    HW2 5684   7.830   0.917   6.167 -0.0172 -2.3397  2.6996
  410SOL     OW 5685   4.819   3.860   4.649  0.3011 -0.7659  0.0880
  410SOL    HW1 5686   4.803   3.847   4.742  0.6701 -0.1085  0.2511
  410SOL    HW2 5687   4.861   3.780   4.620  3.2058  0.2368  1.2090
  411SOL     OW 5688   4.792   0.748   8.724 -0.0810  0.3358 -0.0189
  411SOL    HW1 5689   4.704   0.783   8.741 -0.1033  0.7451 -0.9336
  411SOL    HW2 5690   4.796   0.668   8.776 -0.8967  0.4590  0.2537
  412SOL     OW 5691   4.323   0.315   9.595  0.6584  0.3915 -0.0585
  412SOL    HW1 5692   4.325   0.408   9.614 -0.4954  0.5080 -0.4579
  412SOL    HW2 5693   4.245   0.302   9.541  1.0878 -0.7213 -0.4448
  413SOL     OW 5694   5.994   2.485   0.219  0.0606  0.0927  0.5003
  413SOL    HW1 5695   6.073   2.530   0.190  0.7067  0.0809  2.1861
  413SOL    HW2 5696   6.013   2.392   0.207 -0.6355  0.1323 -1.3447
  414SOL     OW 5697   4.739   3.848   4.999  0.0014  0.1477 -0.4261
  414SOL    HW1 5698   4.691   3.815   5.075  1.2348  1.1519  0.8566
  414SOL    HW2 5699   4.688   3.923   4.969  0.1588  0.5370  0.2464
  415SOL     OW 5700   0.541   1.795   6.549  0.4344 -0.2243 -0.5356
  415SOL    HW1 5701   0.578   1.715   6.586 -2.0829 -1.4656 -0.4495
  415SOL    HW2 5702   0.534   1.777   6.455 -1.9999 -1.0357 -0.2754
  416SOL     OW 5703   6.664  10.216   6.652 -0.3465 -0.0361  0.4239
  416SOL    HW1 5704   6.738  10.242   6.596  0.8130 -0.4617  1.6958
  416SOL    HW2 5705   6.640  10.129   6.620  0.0285 -0.1001  0.3115
  417SOL     OW 5706   2.685   5.690   8.641 -0.0550 -0.4828  0.0220
  417SOL    HW1 5707   2.680   5.785   8.633 -0.0926 -0.5521 -0.8872
  417SOL    HW2 5708   2.671   5.673   8.734  0.3317  0.4228  0.2569
  418SOL     OW 5709   1.522   6.748   4.586  0.0104  0.1818  0.1424
  418SOL    HW1 5710   1.614   6.749   4.613 -0.2123 -1.4562  1.0560
  418SOL    HW2 5711   1.516   6.676   4.523 -0.8421 -0.4177  0.8876
  419SOL     OW 5712   6.621   0.608   4.002  0.4301 -0.0560 -0.2390
  419SOL    HW1 5713   6.716   0.614   3.993  0.4962 -1.6081 -0.8597
  419SOL    HW2 5714   6.586   0.657   3.928  0.7403  0.2959 -0.1562
  420SOL     OW 5715   6.277   3.877   7.342  0.1494 -0.0985  0.1529
  420SOL    HW1 5716   6.260   3.811   7.409 -1.6361 -1.7587 -1.8039
  420SOL    HW2 5717   6.293   3.827   7.263 -0.5997  1.7983 -1.2746
  421SOL     OW 5718   0.435   6.557   6.829  0.3946 -0.0943  0.6791
  421SOL    HW1 5719   0.399   6.468   6.836  1.2937 -0.6678 -1.4708
  421SOL    HW2 5720   0.455   6.581   6.920 -2.1375 -1.0849  1.5933
  422SOL     OW 5721  10.021   3.918   1.578  0.6030 -0.4651  0.1053
  422SOL    HW1 5722  10.096   3.876   1.534 -0.3983 -1.1289 -1.0302
  422SOL    HW2 5723   9.967   3.845   1.607  0.4788  0.0119  1.0901
  423SOL     OW 5724   5.638   2.752   6.506  0.0208  0.5852 -0.1189
  423SOL    HW1 5725   5.659   2.670   6.463  1.5169  0.6442  0.4202
  423SOL    HW2 5726   5.660   2.819   6.442 -1.0131  0.5820 -0.4874
  424SOL     OW 5727   2.130  11.038   7.837 -0.3204 -0.4905 -0.0465
  424SOL    HW1 5728   2.133  10.957   7.786  0.3822  0.9027 -2.3974
  424SOL    HW2 5729   2.055  11.085   7.801 -1.9401 -0.8241  2.6239
  425SOL     OW 5730   9.176  10.745   6.377  0.0847 -0.5771  0.0462
  425SOL    HW1 5731   9.254  10.755   6.431  0.6984 -0.0207 -0.9179
  425SOL    HW2 5732   9.179  10.818   6.315 -0.4851 -1.2921 -0.8646
  426SOL     OW 5733   0.627   9.726   7.062  0.7442 -0.0212 -0.0652
  426SOL    HW1 5734   0.574   9.802   7.037 -0.2669 -0.6374  0.1281
  426SOL    HW2 5735   0.564   9.653   7.066  1.7732 -0.9746 -0.7116
  427SOL     OW 5736   0.003   1.073   6.357 -0.0059  0.1271 -0.8026
  427SOL    HW1 5737   0.053   1.126   6.419 -0.4203  0.3547 -0.6551
  427SOL    HW2 5738  -0.037   1.005   6.411 -1.4177  1.0727 -0.5742
  428SOL     OW 5739  10.543   3.228   7.105  0.2291 -0.5201  1.2585
  428SOL    HW1 5740  10.470   3.284   7.134  0.0517 -0.8751  1.4957
  428SOL    HW2 5741  10.500   3.152   7.064  0.4719 -0.2614  0.4948
  429SOL     OW 5742   0.394   3.249   5.390 -0.0433 -0.1240  0.0275
  429SOL    HW1 5743   0.405   3.283   5.479  0.6843 -1.0363  0.3106
  429SOL    HW2 5744   0.412   3.324   5.333  1.6274 -0.0169  0.6199
  430SOL     OW 5745   0.371   1.362   9.898 -0.1094  0.0015 -0.0078
  430SOL    HW1 5746   0.293   1.317   9.929 -0.7443 -0.1623 -1.7273
  430SOL    HW2 5747   0.408   1.404   9.976 -1.5286 -0.4830  0.9516
  431SOL     OW 5748   2.803   9.272  10.411 -0.0689  0.0502  0.1114
  431SOL    HW1 5749   2.713   9.299  10.397 -0.2213 -0.8222 -0.6954
  431SOL    HW2 5750   2.855   9.334  10.360 -0.2871 -0.0827 -0.2768
  432SOL     OW 5751   2.580   6.736   5.392 -0.1566  0.2424  0.6855
  432SOL    HW1 5752   2.584   6.730   5.296  1.1049 -0.3538  0.7534
  432SOL    HW2 5753   2.579   6.645   5.422 -0.1586  0.4241  1.2502
  433SOL     OW 5754   5.454   4.591   8.286  0.0572 -0.3401  0.3001
  433SOL    HW1 5755   5.547   4.577   8.271 -0.0929  0.5035 -1.6577
  433SOL    HW2 5756   5.415   4.504   8.281  0.6180 -0.5908  0.2453
  434SOL     OW 5757   9.802   7.483   1.014  0.2336 -0.3918  0.3346
  434SOL    HW1 5758   9.894   7.457   1.007  0.3372  0.1210 -0.2682
  434SOL    HW2 5759   9.805   7.574   1.043  0.0255  0.5867 -2.3819
  435SOL     OW 5760   3.721   8.086   4.969 -0.5619  0.1820 -0.1949
  435SOL    HW1 5761   3.648   8.024   4.962  0.3604 -0.9120 -0.5032
  435SOL    HW2 5762   3.711   8.142   4.892 -2.5993  1.8314  1.1531
  436SOL     OW 5763   2.891   7.364   7.542 -0.4000  0.1680  0.4136
  436SOL    HW1 5764   2.981   7.389   7.525  0.2127 -2.3095 -0.4041
  436SOL    HW2 5765   2.890   7.338   7.634  0.6081 -2.8861 -0.3443
  437SOL     OW 5766   8.366   8.877   2.382  0.3269 -0.0306 -0.5015
  437SOL    HW1 5767   8.436   8.938   2.408 -0.0226  0.8190 -1.4725
  437SOL    HW2 5768   8.287   8.931   2.379 -0.2944 -0.8743  0.0895
  438SOL     OW 5769   7.619   5.329   8.955 -0.1305 -0.1923  0.5481
  438SOL    HW1 5770   7.684   5.263   8.932  0.6609  0.1052  1.8303
  438SOL    HW2 5771   7.601   5.315   9.048 -0.7837  0.6818  0.5744
  439SOL     OW 5772   0.416   7.669   1.410 -0.5384 -0.5681 -0.3897
  439SOL    HW1 5773   0.379   7.642   1.494 -0.4475  0.6670  0.0714
  439SOL    HW2 5774   0.343   7.663   1.348 -0.6120 -1.4641 -0.2301
  440SOL     OW 5775   6.345   9.190   1.720  0.1755 -0.3772 -0.3525
  440SOL    HW1 5776   6.363   9.272   1.766  2.4105 -1.4531  0.8843
  440SOL    HW2 5777   6.370   9.207   1.629 -0.4406  0.6190 -0.3462
  441SOL     OW 5778   0.359   6.019   5.293  0.0466 -0.2779 -0.3469
  441SOL    HW1 5779   0.412   5.997   5.216  0.2360  0.1209 -0.3298
  441SOL    HW2 5780   0.367   5.942   5.349 -2.6862 -1.9979 -2.0866
  442SOL     OW 5781   8.895  10.766   9.686 -0.6229 -0.3346  0.2169
  442SOL    HW1 5782   8.868  10.827   9.617 -0.1139  0.2975  0.5581
  442SOL    HW2 5783   8.897  10.680   9.643 -0.1244  0.0723 -0.6125
  443SOL     OW 5784   9.089   7.770   3.198 -0.3086 -0.1779  0.6432
  443SOL    HW1 5785   9.133   7.788   3.281 -1.4115 -3.1800  1.9863
  443SOL    HW2 5786   9.038   7.849   3.180  1.3776  1.2431  1.8117
  444SOL     OW 5787   2.846  10.085   0.717  0.3838  0.3244  0.0420
  444SOL    HW1 5788   2.910  10.058   0.783  0.3798 -1.5754 -0.6944
  444SOL    HW2 5789   2.898  10.130   0.651  0.8262 -0.3414 -0.0712
  445SOL     OW 5790   5.429   2.585   1.499  0.1479 -0.1962  0.2273
  445SOL    HW1 5791   5.342   2.556   1.473 -0.4733  1.1638  0.6938
  445SOL    HW2 5792   5.418   2.616   1.589  0.9506  0.6291  0.0551
  446SOL     OW 5793   0.893   0.442   6.886  0.3142  0.1685 -0.1541
  446SOL    HW1 5794   0.869   0.411   6.798 -0.6310 -0.3875  0.2769
  446SOL    HW2 5795   0.812   0.432   6.937  1.3694 -1.5435  1.3167
  447SOL     OW 5796   5.712   4.208   3.541  1.0073 -0.6584  0.3471
  447SOL    HW1 5797   5.798   4.240   3.568  0.6640  1.4982 -0.8960
  447SOL    HW2 5798   5.659   4.287   3.527 -1.0106 -1.8980  0.4962
  448SOL     OW 5799  10.585   2.821  10.153 -0.7484  0.0869 -0.4134
  448SOL    HW1 5800  10.503   2.870  10.152 -1.0449 -0.4161 -0.9226
  448SOL    HW2 5801  10.652   2.887  10.175 -1.0949  0.7927 -1.3871
  449SOL     OW 5802   6.097   8.279   4.748 -0.4157  0.1721  0.1411
  449SOL    HW1 5803   6.140   8.327   4.819  1.3680 -1.9906  0.6117
  449SOL    HW2 5804   6.060   8.201   4.790 -0.1435 -0.6825 -1.1478
  450SOL     OW 5805   9.981   5.706   2.914  0.3733 -0.0189  0.7240
  450SOL    HW1 5806   9.980   5.650   2.836  0.1352  1.4623 -0.3754
  450SOL    HW2 5807  10.074   5.716   2.935  0.4337 -0.5230  0.7181
  451SOL     OW 5808   7.768   8.939   5.898  0.4836  0.7869  0.3039
  451SOL    HW1 5809   7.749   8.882   5.972 -0.6788  0.4250 -0.2511
  451SOL    HW2 5810   7.742   9.026   5.928  3.3633  1.3251  1.5864
  452SOL     OW 5811   9.624   3.771  10.023  0.0136 -0.4145  0.0821
  452SOL    HW1 5812   9.603   3.830   9.950 -0.6558  1.0361  1.3721
  452SOL    HW2 5813   9.693   3.817  10.071 -0.5406 -0.6338  1.1346
  453SOL     OW 5814   2.248  10.229   9.416 -0.1963 -0.4578 -0.1415
  453SOL    HW1 5815   2.248  10.138   9.447  0.1473 -0.6017 -0.5406
  453SOL    HW2 5816   2.219  10.222   9.325 -1.3242 -0.0296  0.1691
  454SOL     OW 5817   3.914   2.738   6.260  0.3159  0.0778 -0.1901
  454SOL    HW1 5818   3.940   2.646   6.248  1.6626 -0.0403  2.8615
  454SOL    HW2 5819   3.915   2.774   6.171  2.1573 -2.2469 -1.2453
  455SOL     OW 5820   4.537   2.589   9.587 -0.1192 -0.1927 -0.4774
  455SOL    HW1 5821   4.557   2.653   9.654  0.3425 -0.3817 -0.4284
  455SOL    HW2 5822   4.622   2.571   9.544 -0.1976 -0.9152 -0.3531
  456SOL     OW 5823   2.795   5.943   3.928  0.3507  0.0419 -0.2197
  456SOL    HW1 5824   2.879   5.983   3.952  0.4302  0.9994 -1.8974
  456SOL    HW2 5825   2.729   6.004   3.961  0.4487  1.1666 -1.9891
  457SOL     OW 5826   7.225   6.433   8.031 -0.2836 -0.3757 -0.1109
  457SOL    HW1 5827   7.186   6.498   8.089  0.7447  0.1222  0.0559
  457SOL    HW2 5828   7.162   6.362   8.027 -0.3916 -0.4072  1.5925
  458SOL     OW 5829   9.634   8.229   1.663 -0.3711 -0.0057  0.0601
  458SOL    HW1 5830   9.605   8.265   1.747 -2.4234 -0.3478 -0.4292
  458SOL    HW2 5831   9.664   8.305   1.613  2.7281 -0.0048  1.6918
  459SOL     OW 5832   6.243   3.932   2.150 -0.3999 -0.0355 -0.3369
  459SOL    HW1 5833   6.300   4.007   2.168 -0.4076 -0.1931  0.3861
  459SOL    HW2 5834   6.191   3.922   2.230 -2.0081  0.5866 -1.2616
  460SOL     OW 5835   1.576   4.172   0.183 -0.1799  0.4378 -0.2625
  460SOL    HW1 5836   1.543   4.106   0.122  0.9767 -1.2533  0.8633
  460SOL    HW2 5837   1.649   4.129   0.227 -0.0236  2.1487  1.2322
  461SOL     OW 5838  10.590   3.169   7.691 -0.0699 -0.1762 -0.5634
  461SOL    HW1 5839  10.658   3.222   7.651  0.1448 -1.1066 -1.4711
  461SOL    HW2 5840  10.559   3.112   7.621 -0.0111 -1.5234  0.4544
  462SOL     OW 5841   6.116   4.246   9.160 -0.6265 -0.3904  0.3858
  462SOL    HW1 5842   6.115   4.210   9.071 -0.4047 -1.3954  0.7787
  462SOL    HW2 5843   6.065   4.327   9.153  0.7468  0.4116 -1.0109
  463SOL     OW 5844   5.684   5.610   4.125  0.3352 -0.0727  0.2584
  463SOL    HW1 5845   5.751   5.572   4.182  1.1432  0.6847 -0.1679
  463SOL    HW2 5846   5.663   5.694   4.166 -0.1463 -0.1798  0.2317
  464SOL     OW 5847   4.624   9.845   6.741 -0.3480  0.4568 -0.3976
  464SOL    HW1 5848   4.662   9.757   6.736  0.2406  0.5621  1.3693
  464SOL    HW2 5849   4.697   9.904   6.725 -0.0938  0.6294  1.1950
  465SOL     OW 5850   3.310   5.268   4.363  0.1027  0.1578 -0.1980
  465SOL    HW1 5851   3.257   5.239   4.290  0.9906  0.0099 -0.8011
  465SOL    HW2 5852   3.278   5.356   4.384 -0.2930  0.1132 -0.6143
  466SOL     OW 5853   5.243   4.074   1.901  0.9155 -0.5089 -0.0314
  466SOL    HW1 5854   5.153   4.046   1.889  1.4943 -2.8099  0.6089
  466SOL    HW2 5855   5.272   4.100   1.813  0.5776 -2.8685 -0.9027
  467SOL     OW 5856   2.632   9.779  10.695 -0.2848 -0.4492 -0.5331
  467SOL    HW1 5857   2.598   9.743  10.614  0.1275  1.3890 -1.5748
  467SOL    HW2 5858   2.623   9.874  10.686 -0.9723 -0.1967  1.9120
  468SOL     OW 5859   3.020   0.801   8.837 -0.2515  0.3411  0.2100
  468SOL    HW1 5860   2.928   0.775   8.840 -0.4524  1.1252  1.2394
  468SOL    HW2 5861   3.062   0.733   8.784 -1.8449  1.3045 -2.5286
  469SOL     OW 5862   9.855   0.722  10.563 -0.5023  0.0485  0.1098
  469SOL    HW1 5863   9.903   0.799  10.592 -0.7991  0.3111 -0.0862
  469SOL    HW2 5864   9.780   0.757  10.515 -1.2771 -0.3359  1.0051
  470SOL     OW 5865   1.467   7.522   2.396 -0.6856  0.3199  0.1951
  470SOL    HW1 5866   1.413   7.493   2.469 -1.4795 -0.1157 -0.5392
  470SOL    HW2 5867   1.427   7.481   2.319  0.0823  0.8238 -0.4921
  471SOL     OW 5868   5.687  10.636   9.332  0.3983  0.4589 -0.0411
  471SOL    HW1 5869   5.631  10.635   9.254  0.8192  1.3167 -0.3554
  471SOL    HW2 5870   5.627  10.618   9.404  0.0874 -0.9219 -0.5953
  472SOL     OW 5871   1.873   6.501   3.456 -0.1813  0.2263  0.8461
  472SOL    HW1 5872   1.967   6.486   3.455 -0.1617  0.1177 -1.2831
  472SOL    HW2 5873   1.864   6.595   3.472  0.2297  0.0644  2.0853
  473SOL     OW 5874   3.294   5.295   8.442 -0.7699  0.4739  0.7106
  473SOL    HW1 5875   3.284   5.389   8.454 -2.8060  0.5979 -1.2870
  473SOL    HW2 5876   3.331   5.286   8.354  2.0294 -0.5832  1.8873
  474SOL     OW 5877   9.545   0.217   6.322 -0.0905 -0.0681 -0.3753
  474SOL    HW1 5878   9.539   0.312   6.317  1.2236  0.0051 -0.7487
  474SOL    HW2 5879   9.522   0.197   6.413 -0.8199  0.5539 -0.4109
  475SOL     OW 5880  10.184  10.499   5.965 -0.5600  0.4500  0.0359
  475SOL    HW1 5881  10.219  10.475   6.051 -0.7996 -0.6368 -0.1590
  475SOL    HW2 5882  10.220  10.434   5.905 -1.4089  0.4404 -0.4724
  476SOL     OW 5883   1.527   6.121   0.412  0.3217  0.3713  0.2089
  476SOL    HW1 5884   1.507   6.211   0.384 -0.9481  0.2612  0.7105
  476SOL    HW2 5885   1.530   6.126   0.508  1.4579  0.1107  0.1975
  477SOL     OW 5886  10.243   2.034   5.440 -0.1130 -0.1670  0.3782
  477SOL    HW1 5887  10.299   1.978   5.386 -0.2043 -0.9777  1.1105
  477SOL    HW2 5888  10.217   1.979   5.514 -0.9208  0.5673  0.6632
  478SOL     OW 5889   6.211  10.599   8.907 -0.8431  0.5198  0.6321
  478SOL    HW1 5890   6.129  10.572   8.864 -0.3819  1.4877 -0.9283
  478SOL    HW2 5891   6.183  10.663   8.972 -1.2289  1.9619 -0.8966
  479SOL     OW 5892   5.559   7.640   9.353 -0.2180  0.0453  0.2431
  479SOL    HW1 5893   5.607   7.575   9.403 -1.3492 -1.0321 -0.0362
  479SOL    HW2 5894   5.567   7.611   9.262  1.0761  1.4960 -0.1507
  480SOL     OW 5895   7.803   0.261  10.146 -0.2938  0.3097 -0.3668
  480SOL    HW1 5896   7.795   0.181  10.094 -0.3621  0.3863 -0.4744
  480SOL    HW2 5897   7.723   0.310  10.128 -0.2063  0.4485 -0.3817
  481SOL     OW 5898   1.749   4.582   8.505 -0.0921  0.1460  0.7264
  481SOL    HW1 5899   1.751   4.677   8.516  1.2616  0.3235 -0.6582
  481SOL    HW2 5900   1.723   4.548   8.590  1.3141  1.6778  1.8349
  482SOL     OW 5901   9.456   0.185   1.547 -0.4660 -0.2674  0.1309
  482SOL    HW1 5902   9.512   0.248   1.501 -1.1381 -0.4947 -1.0453
  482SOL    HW2 5903   9.477   0.101   1.507 -0.7574 -0.5383  0.5446
  483SOL     OW 5904   4.943   9.099  11.041 -0.2973 -0.0498  0.1065
  483SOL    HW1 5905   4.992   9.040  11.099 -0.6662 -0.7373 -0.2653
  483SOL    HW2 5906   4.851   9.074  11.054 -0.4276  0.1847 -0.3451
  484SOL     OW 5907   6.399   1.328  10.140 -0.1450  0.3729 -0.1346
  484SOL    HW1 5908   6.434   1.410  10.175 -0.4148  1.0115 -1.3085
  484SOL    HW2 5909   6.341   1.295  10.208  1.4024  0.1630  1.1462
  485SOL     OW 5910   0.047   1.337   2.610  0.5707  0.2913 -0.1309
  485SOL    HW1 5911   0.033   1.250   2.646 -0.2126  0.1435 -0.7694
  485SOL    HW2 5912   0.129   1.367   2.650 -0.1127  0.0280  1.5176
  486SOL     OW 5913   9.759  10.992   8.575 -0.3646  0.4371 -0.0484
  486SOL    HW1 5914   9.723  10.908   8.544  0.7601  0.4656 -1.5482
  486SOL    HW2 5915   9.720  11.004   8.661 -0.6191 -1.5980  0.1751
  487SOL     OW 5916   4.892   7.542   2.629  0.0528 -0.2267 -0.7087
  487SOL    HW1 5917   4.957   7.488   2.674  0.9228  0.9281 -0.5217
  487SOL    HW2 5918   4.941   7.619   2.600 -0.6514 -0.5834 -3.0119
  488SOL     OW 5919   9.176   4.625  10.769 -0.0605  0.3121 -0.2017
  488SOL    HW1 5920   9.144   4.573  10.843 -3.2474  0.8686 -1.0580
  488SOL    HW2 5921   9.185   4.561  10.697  0.0069  0.2840 -0.1689
  489SOL     OW 5922   7.995   7.688   3.295 -0.5784  0.3589 -0.1645
  489SOL    HW1 5923   7.971   7.670   3.386  0.5256  1.0755  0.2869
  489SOL    HW2 5924   7.978   7.781   3.283  1.0486  0.6929 -0.0979
  490SOL     OW 5925   0.445   8.167   5.857  0.1309 -0.2315  0.5132
  490SOL    HW1 5926   0.369   8.172   5.799  0.8760 -1.1294 -0.5850
  490SOL    HW2 5927   0.413   8.118   5.933 -0.3410 -0.8384 -0.0547
  491SOL     OW 5928   7.705   8.484  10.242 -0.3023  0.2042 -0.0411
  491SOL    HW1 5929   7.704   8.411  10.305 -0.1615 -0.4609 -0.7954
  491SOL    HW2 5930   7.771   8.544  10.276  0.5172 -0.6417 -0.0876
  492SOL     OW 5931   3.748   3.268   7.787  0.3716 -0.6511  0.2666
  492SOL    HW1 5932   3.654   3.279   7.772  0.4811  0.7422  0.4660
  492SOL    HW2 5933   3.762   3.173   7.782 -0.8948 -0.8261 -0.6106
  493SOL     OW 5934   5.119   5.054  10.616  0.2335 -0.0752  0.1906
  493SOL    HW1 5935   5.153   5.036  10.704 -0.5641 -2.2389  0.1209
  493SOL    HW2 5936   5.031   5.090  10.631  0.2157 -0.1618  0.2976
  494SOL     OW 5937   9.455   0.955   7.260  0.3138 -0.0394  0.1695
  494SOL    HW1 5938   9.450   0.872   7.214  0.9624 -0.2310  0.4325
  494SOL    HW2 5939   9.455   1.021   7.191  2.1207 -0.3561 -0.1671
  495SOL     OW 5940   7.264   6.967  10.733 -0.5653 -0.4410 -0.3602
  495SOL    HW1 5941   7.280   6.893  10.675 -0.1025 -0.7669  0.1792
  495SOL    HW2 5942   7.169   6.979  10.730 -0.5888 -0.7059 -0.8703
  496SOL     OW 5943   7.715   0.764   5.159 -0.4867 -0.0204 -0.3689
  496SOL    HW1 5944   7.715   0.849   5.116  0.3710  0.5566  0.7067
  496SOL    HW2 5945   7.635   0.721   5.130 -0.8085  1.0584 -1.1057
  497SOL     OW 5946   8.880   3.140   1.342  0.4126 -0.0492  0.6646
  497SOL    HW1 5947   8.955   3.120   1.398  0.0135 -0.4195  1.0795
  497SOL    HW2 5948   8.899   3.096   1.259  2.2107  2.5919 -0.4349
  498SOL     OW 5949   3.511   1.390   3.844  0.4739 -0.2040  0.1558
  498SOL    HW1 5950   3.547   1.303   3.860 -2.0094 -1.4233 -0.3602
  498SOL    HW2 5951   3.507   1.398   3.749  0.6952  0.4943  0.1975
  499SOL     OW 5952  10.830   1.208   0.444 -1.1095  0.0708 -0.1719
  499SOL    HW1 5953  10.809   1.122   0.407 -1.0531  0.2760 -0.6927
  499SOL    HW2 5954  10.924   1.206   0.459 -0.4353  1.2096 -3.3993
  500SOL     OW 5955   0.288   1.198   2.926  0.7225 -0.8047 -0.4005
  500SOL    HW1 5956   0.212   1.240   2.968  1.0543 -0.5385 -0.0588
  500SOL    HW2 5957   0.267   1.105   2.929  0.8854 -0.8212  0.6807
  501SOL     OW 5958   1.283   5.666   0.737  0.5043  0.1812 -0.0292
  501SOL    HW1 5959   1.318   5.578   0.755  0.1944  0.1919  0.6740
  501SOL    HW2 5960   1.226   5.654   0.661 -1.0975 -0.6498  1.2383
  502SOL     OW 5961   9.381   1.840   5.499 -0.1120 -0.2095  0.7131
  502SOL    HW1 5962   9.304   1.785   5.484 -1.1159  0.8983  1.5562
  502SOL    HW2 5963   9.437   1.789   5.558 -0.3541 -0.8920  0.3623
  503SOL     OW 5964   5.983  10.305   6.609 -0.4702 -0.2637  0.4213
  503SOL    HW1 5965   6.071  10.275   6.632  0.7107  1.7127 -1.1058
  503SOL    HW2 5966   5.981  10.300   6.513 -1.8350  0.2417  0.4024
  504SOL     OW 5967   2.358   9.970   6.137  0.2385 -0.6353 -0.2860
  504SOL    HW1 5968   2.356   9.975   6.232  0.3431 -0.0256 -0.3113
  504SOL    HW2 5969   2.276   9.926   6.114  0.5874 -1.5158  0.1217
  505SOL     OW 5970   4.640   2.133   9.111  0.1327 -0.2939 -0.3829
  505SOL    HW1 5971   4.721   2.114   9.158  0.7728 -0.8896 -1.6780
  505SOL    HW2 5972   4.667   2.157   9.023 -1.0862 -0.4718 -0.8373
  506SOL     OW 5973   8.004   0.422  10.437  0.0257  0.0687  0.5305
  506SOL    HW1 5974   8.067   0.458  10.499  0.4509  1.6140 -0.7374
  506SOL    HW2 5975   8.057   0.396  10.361 -0.7713  0.8166 -0.3088
  507SOL     OW 5976   2.533   1.399   4.906  0.3803  0.6124 -0.2562
  507SOL    HW1 5977   2.445   1.379   4.873  0.2992  0.5318  0.0084
  507SOL    HW2 5978   2.590   1.339   4.858  0.2318  0.3183 -0.0672
  508SOL     OW 5979   6.389   1.432   3.390  0.2367 -0.1083  0.0864
  508SOL    HW1 5980   6.394   1.340   3.419  1.6241  0.0475  0.4067
  508SOL    HW2 5981   6.383   1.482   3.471 -1.0013  0.0887 -0.1018
  509SOL     OW 5982   1.685   3.336   2.105  0.0000 -0.0255 -0.3111
  509SOL    HW1 5983   1.775   3.318   2.079  0.5953  0.7444  1.1167
  509SOL    HW2 5984   1.634   3.325   2.024  1.3776 -0.3170 -1.1701
  510SOL     OW 5985   4.443   3.122   5.739  0.0603  0.0871 -0.0876
  510SOL    HW1 5986   4.411   3.096   5.652  0.0413 -0.7260  0.1528
  510SOL    HW2 5987   4.393   3.068   5.800 -0.9458  1.6789  0.5292
  511SOL     OW 5988   8.938   0.696   8.350 -0.2652  0.4706 -0.6503
  511SOL    HW1 5989   8.845   0.710   8.333 -0.2856 -0.3877 -1.3320
  511SOL    HW2 5990   8.947   0.702   8.445 -0.9509  0.9248 -0.6136
  512SOL     OW 5991   4.210   6.853   2.304  0.5942  0.5923  0.2607
  512SOL    HW1 5992   4.173   6.809   2.228  1.4273 -0.5783  0.5053
  512SOL    HW2 5993   4.298   6.879   2.276 -0.3823  3.5271 -0.3873
  513SOL     OW 5994   7.772   4.397   1.080  0.5232  0.1477 -0.4509
  513SOL    HW1 5995   7.839   4.342   1.039  0.6848 -0.3406  0.4506
  513SOL    HW2 5996   7.716   4.424   1.007  1.0134 -0.4042 -1.0491
  514SOL     OW 5997   2.678   5.414   7.477  1.1156 -0.3378  0.3037
  514SOL    HW1 5998   2.583   5.424   7.466  1.1461  1.5047  1.4928
  514SOL    HW2 5999   2.692   5.319   7.470 -0.5136 -0.5034 -1.9711
  515SOL     OW 6000   8.856   7.220   8.885 -0.6189  0.0615 -0.1139
  515SOL    HW1 6001   8.868   7.306   8.926 -0.5580 -0.3123  0.6790
  515SOL    HW2 6002   8.828   7.240   8.795 -2.2160  0.9200  0.5269
  516SOL     OW 6003   4.265   6.686   2.657 -0.5015  0.3043  0.1143
  516SOL    HW1 6004   4.226   6.744   2.722 -1.2799  0.4387 -0.4643
  516SOL    HW2 6005   4.318   6.626   2.708  0.5095  1.6503  0.7189
  517SOL     OW 6006   7.830   2.260   7.721 -0.6153 -0.3760  0.6783
  517SOL    HW1 6007   7.882   2.253   7.641  1.0356 -0.7904  1.7192
  517SOL    HW2 6008   7.830   2.171   7.757 -0.3537  0.0252  1.7013
  518SOL     OW 6009   3.252   3.772   4.369 -0.1345 -0.3165 -0.2144
  518SOL    HW1 6010   3.289   3.693   4.408  0.1142  0.1422  0.4928
  518SOL    HW2 6011   3.193   3.739   4.301  1.2289 -1.0817 -1.0946
  519SOL     OW 6012   5.686   4.911   0.799  0.3334  0.0237  0.2870
  519SOL    HW1 6013   5.665   4.989   0.748 -1.0675 -0.9300 -0.6816
  519SOL    HW2 6014   5.704   4.844   0.733 -0.3858 -0.9499  1.0454
  520SOL     OW 6015   2.777   4.230   6.345  0.2749  0.0792  0.1052
  520SOL    HW1 6016   2.734   4.250   6.428 -1.7996  1.0119 -1.1241
  520SOL    HW2 6017   2.715   4.256   6.278  1.6667 -1.1156 -1.7829
  521SOL     OW 6018   6.117   3.374   3.506 -0.0071  0.3473  0.1619
  521SOL    HW1 6019   6.199   3.424   3.507 -0.6309  1.4128 -0.0632
  521SOL    HW2 6020   6.143   3.285   3.530  1.3379  0.4583 -0.7886
  522SOL     OW 6021   2.062  10.908   3.564 -0.2830  0.4881 -0.1085
  522SOL    HW1 6022   2.085  10.949   3.647 -0.3152  1.1289 -0.4060
  522SOL    HW2 6023   2.139  10.921   3.509  0.6779 -1.9772  0.5203
  523SOL     OW 6024   1.235   6.724   7.828  0.4412 -0.8497 -0.2970
  523SOL    HW1 6025   1.309   6.764   7.873  0.3334 -1.0878  0.1073
  523SOL    HW2 6026   1.195   6.667   7.894  0.3872 -1.3526 -0.7526
  524SOL     OW 6027   1.911   8.749   8.779 -0.1445 -0.0222 -0.5064
  524SOL    HW1 6028   1.937   8.665   8.742 -1.5074 -0.0362 -1.5200
  524SOL    HW2 6029   1.889   8.730   8.870  1.1220 -0.4237 -0.2669
  525SOL     OW 6030  10.681   1.245   2.638  0.3365 -0.1403 -0.1531
  525SOL    HW1 6031  10.646   1.157   2.625 -0.8862  0.0922  1.3438
  525SOL    HW2 6032  10.730   1.239   2.720  0.2720  0.5716 -0.0584
  526SOL     OW 6033   1.654   8.523   9.737  0.4835 -0.0724  0.0479
  526SOL    HW1 6034   1.677   8.577   9.661 -1.2380 -0.4516 -0.7787
  526SOL    HW2 6035   1.642   8.435   9.702  0.5019 -0.4286  0.9105
  527SOL     OW 6036   7.028   5.466   0.262 -0.3428  0.4144  0.0268
  527SOL    HW1 6037   7.064   5.465   0.350 -0.9555  2.6025  0.3811
  527SOL    HW2 6038   7.088   5.522   0.212 -0.1900 -0.5168 -0.8789
  528SOL     OW 6039   9.891   3.276   3.520  0.0427  0.2432 -0.1272
  528SOL    HW1 6040   9.931   3.333   3.454 -0.5446  0.5058 -0.2693
  528SOL    HW2 6041   9.925   3.189   3.501 -2.0000 -0.1776 -2.3973
  529SOL     OW 6042   2.481   8.294   6.146 -0.1161 -0.5205 -0.2812
  529SOL    HW1 6043   2.420   8.280   6.218 -1.7141 -0.3488 -1.5498
  529SOL    HW2 6044   2.500   8.206   6.113  1.0780 -0.6482  0.6702
  530SOL     OW 6045   2.710   0.922   4.862 -0.3872 -0.3898 -0.3246
  530SOL    HW1 6046   2.767   0.872   4.920 -0.9654  0.4835  1.0425
  530SOL    HW2 6047   2.745   1.011   4.865 -1.8879  0.1969  0.6724
  531SOL     OW 6048   4.644   8.051   5.854  0.2619  0.1519 -0.1113
  531SOL    HW1 6049   4.559   8.050   5.897  0.2178  0.6994 -0.1800
  531SOL    HW2 6050   4.696   7.986   5.901  0.1969  0.7091  0.7482
  532SOL     OW 6051   9.167   8.968   1.938 -0.4476 -0.1824 -0.2648
  532SOL    HW1 6052   9.253   8.931   1.958 -1.1243 -1.1370  1.0295
  532SOL    HW2 6053   9.128   8.988   2.023 -1.8523 -0.6205 -0.7619
  533SOL     OW 6054  11.000   8.068   6.217 -0.0446  0.0563  0.1728
  533SOL    HW1 6055  11.076   8.117   6.186  0.9007 -0.0653  2.1762
  533SOL    HW2 6056  10.987   8.097   6.307 -1.0316 -1.5123  0.5711
  534SOL     OW 6057   2.853   3.161   4.483 -0.4779 -0.0199 -0.5171
  534SOL    HW1 6058   2.773   3.109   4.494 -0.1024 -0.7718 -1.2818
  534SOL    HW2 6059   2.871   3.195   4.571  0.5202 -3.0204  0.5507
  535SOL     OW 6060   2.770   3.719   9.703  0.6028 -0.1307  0.1526
  535SOL    HW1 6061   2.728   3.637   9.677 -1.0175  0.4196  0.9198
  535SOL    HW2 6062   2.739   3.783   9.639  1.4669  0.0097 -0.1451
  536SOL     OW 6063   1.664   5.159   7.737  0.0088 -0.6000 -0.3910
  536SOL    HW1 6064   1.601   5.230   7.722  0.2272  0.0299  1.3723
  536SOL    HW2 6065   1.742   5.185   7.689 -0.8038 -1.0609 -2.0497
  537SOL     OW 6066   6.912   6.486   7.903  0.3112 -0.1004  0.2572
  537SOL    HW1 6067   6.835   6.429   7.901 -0.3992  0.8382  0.0782
  537SOL    HW2 6068   6.930   6.497   7.997 -0.5261  0.6368  0.3485
  538SOL     OW 6069  10.895   8.753   6.586 -0.1552  0.4131  0.0862
  538SOL    HW1 6070  10.897   8.744   6.491 -0.5512  0.4137  0.0763
  538SOL    HW2 6071  10.892   8.663   6.618 -1.0975  0.4288  0.0664
  539SOL     OW 6072   6.938   8.883  10.892 -0.2272 -0.7656  0.6132
  539SOL    HW1 6073   7.016   8.926  10.927 -0.1670 -0.2282 -0.1554
  539SOL    HW2 6074   6.973   8.809  10.842 -0.2252 -0.6177  0.3991
  540SOL     OW 6075   5.755   3.889   2.773 -0.4887  0.2516 -0.7950
  540SOL    HW1 6076   5.705   3.951   2.720  0.8799  1.1013 -1.1627
  540SOL    HW2 6077   5.766   3.933   2.858 -1.3312 -0.4284 -0.3216
  541SOL     OW 6078   5.215   1.851   1.982 -0.6730 -0.3487 -0.3045
  541SOL    HW1 6079   5.178   1.887   1.902  1.1080 -0.2055 -1.1095
  541SOL    HW2 6080   5.201   1.757   1.974 -1.2549 -0.2642 -0.3634
  542SOL     OW 6081   6.643   2.340   9.756  0.5225 -0.1232 -0.1579
  542SOL    HW1 6082   6.701   2.266   9.739  0.1208 -1.3194  2.9961
  542SOL    HW2 6083   6.694   2.396   9.815 -0.6261  0.0148  0.7342
  543SOL     OW 6084   4.572   3.059   0.469 -0.1276 -0.2836  0.7568
  543SOL    HW1 6085   4.665   3.071   0.446 -0.2546  2.1154  1.2568
  543SOL    HW2 6086   4.574   3.008   0.550  0.8937  1.5290  1.9174
  544SOL     OW 6087   7.075   1.640  10.541  0.5637  0.2931  0.6925
  544SOL    HW1 6088   7.154   1.668  10.588  1.0147 -0.2562  0.2850
  544SOL    HW2 6089   7.106   1.621  10.453 -0.2561  1.1885  0.2065
  545SOL     OW 6090   0.695  10.406   6.638  0.1239  0.3102  0.4373
  545SOL    HW1 6091   0.691  10.326   6.586 -1.4411  0.6241  0.0037
  545SOL    HW2 6092   0.677  10.378   6.727  1.9368 -0.1142  0.6928
  546SOL     OW 6093   9.822   8.310   7.908  0.0892 -0.3115 -0.1331
  546SOL    HW1 6094   9.875   8.369   7.855 -0.2492 -0.1843 -0.3332
  546SOL    HW2 6095   9.845   8.331   7.998 -0.7707  0.8497 -0.1555
  547SOL     OW 6096   3.938   5.831   0.231  0.0624 -0.6278 -0.2164
  547SOL    HW1 6097   4.009   5.799   0.175  1.1753  0.8026  0.2795
  547SOL    HW2 6098   3.910   5.913   0.190  0.2071 -0.0759  0.7411
  548SOL     OW 6099   4.361  10.695   4.000  0.6943 -0.5369 -0.1460
  548SOL    HW1 6100   4.365  10.790   3.987  1.3315 -0.5548 -0.1266
  548SOL    HW2 6101   4.310  10.663   3.925  1.3748 -0.2818 -0.7412
  549SOL     OW 6102   3.438   1.426  10.627  0.0426 -0.0784  0.2643
  549SOL    HW1 6103   3.451   1.370  10.551  1.2751 -1.4357  1.4121
  549SOL    HW2 6104   3.389   1.501  10.594  1.3336 -0.1688 -2.0425
  550SOL     OW 6105   1.149   4.771  10.542 -0.3309  0.5276  0.1087
  550SOL    HW1 6106   1.117   4.860  10.527 -2.9330 -0.5081 -1.2480
  550SOL    HW2 6107   1.158   4.733  10.454  1.6953 -0.2796  0.6155
  551SOL     OW 6108   3.627   8.026   5.619  0.2667  0.1937 -0.0289
  551SOL    HW1 6109   3.534   8.041   5.631  0.2926 -0.8563  1.8471
  551SOL    HW2 6110   3.635   7.994   5.529 -1.4377 -1.4627  0.3404
  552SOL     OW 6111   8.363   0.342   3.011 -0.5507 -0.5660 -0.2549
  552SOL    HW1 6112   8.410   0.262   3.035 -1.7888 -1.0340  0.6879
  552SOL    HW2 6113   8.404   0.410   3.065 -0.3317 -0.7890 -0.1366
  553SOL     OW 6114   1.143  10.290   9.023 -0.0307 -0.5858  0.2997
  553SOL    HW1 6115   1.055  10.280   9.059 -0.2054  0.8500  0.3249
  553SOL    HW2 6116   1.135  10.260   8.932 -0.1623 -1.9019  0.7203
  554SOL     OW 6117   6.928   6.293   2.422 -0.0289 -0.4061 -0.0524
  554SOL    HW1 6118   6.995   6.352   2.458  0.7644 -0.4165 -1.4106
  554SOL    HW2 6119   6.950   6.288   2.328 -0.6260 -2.1528 -0.1308
  555SOL     OW 6120  10.157   9.213   4.376 -0.6896  0.8429  0.1580
  555SOL    HW1 6121  10.065   9.190   4.364 -0.3836 -0.7270  0.5655
  555SOL    HW2 6122  10.203   9.128   4.378  0.6501  1.5500  0.7843
  556SOL     OW 6123   1.496   3.334   7.070 -0.7242  0.1373 -0.0300
  556SOL    HW1 6124   1.556   3.292   7.132 -0.5927  1.2466  0.6152
  556SOL    HW2 6125   1.441   3.262   7.037  1.0161 -0.9356 -0.7432
  557SOL     OW 6126   0.238   7.645   5.923  0.6330  0.0693 -0.1481
  557SOL    HW1 6127   0.259   7.735   5.948 -1.2093  0.8622 -1.1968
  557SOL    HW2 6128   0.196   7.654   5.837  1.9861 -1.9870 -1.0979
  558SOL     OW 6129   7.034   6.176   7.150 -0.5668 -0.5177 -0.4452
  558SOL    HW1 6130   7.110   6.149   7.201 -0.1195  1.0937 -0.2063
  558SOL    HW2 6131   7.071   6.206   7.067 -0.9897 -0.1845 -0.5132
  559SOL     OW 6132   3.595   8.454   7.632 -0.2370 -0.0071 -0.1224
  559SOL    HW1 6133   3.596   8.530   7.575 -0.4756 -0.9492 -1.4123
  559SOL    HW2 6134   3.674   8.405   7.609 -0.5297 -0.5856  0.0813
  560SOL     OW 6135   0.738   3.838   8.274  0.0963 -0.1254  0.1497
  560SOL    HW1 6136   0.737   3.742   8.282 -0.7679 -0.0362  1.3435
  560SOL    HW2 6137   0.728   3.854   8.180 -0.7949 -1.2081  0.0358
  561SOL     OW 6138   2.102   5.453   8.056 -0.3331  0.5078  0.4261
  561SOL    HW1 6139   2.064   5.541   8.058 -0.4461  0.4484  1.4061
  561SOL    HW2 6140   2.178   5.461   7.997 -1.1863  0.8929 -0.6523
  562SOL     OW 6141   3.839   0.388   5.436 -0.3157 -0.1922  0.3683
  562SOL    HW1 6142   3.781   0.445   5.486  0.1495  0.3937  0.2433
  562SOL    HW2 6143   3.785   0.360   5.361 -0.7007 -0.3164  0.6839
  563SOL     OW 6144   7.319  10.989   7.306  0.3671  0.5518  0.2313
  563SOL    HW1 6145   7.241  10.970   7.359  0.4386  0.7966  0.4220
  563SOL    HW2 6146   7.370  11.050   7.359  1.5818 -0.9764  0.9211
  564SOL     OW 6147   3.604   2.126   7.905 -0.2399 -0.7044  0.3610
  564SOL    HW1 6148   3.575   2.088   7.822 -0.2732  3.2948 -1.7137
  564SOL    HW2 6149   3.528   2.175   7.937  0.5525 -0.1080  1.3969
  565SOL     OW 6150   8.856   1.564   6.453 -0.3928  0.0908  0.6590
  565SOL    HW1 6151   8.904   1.569   6.536 -2.3787 -0.8122  1.9295
  565SOL    HW2 6152   8.885   1.641   6.404  3.1766 -0.9472  0.8045
  566SOL     OW 6153   1.182   7.291   5.028 -0.7585  0.3951  0.6074
  566SOL    HW1 6154   1.241   7.350   5.074 -0.4494  1.7826 -1.4555
  566SOL    HW2 6155   1.200   7.205   5.066  1.6374  1.0000  0.9703
  567SOL     OW 6156   1.709   4.475   8.265  0.0782  0.0006  0.2331
  567SOL    HW1 6157   1.746   4.540   8.205 -0.2234 -0.9904 -1.0910
  567SOL    HW2 6158   1.724   4.511   8.352  4.3492 -0.3343 -0.1153
  568SOL     OW 6159  10.440  10.544   0.249 -0.3802  0.1838 -0.1390
  568SOL    HW1 6160  10.490  10.489   0.188  0.1596  1.4366 -0.8526
  568SOL    HW2 6161  10.418  10.485   0.322  0.0339 -1.0126 -0.9536
  569SOL     OW 6162   5.359   2.664   2.414  0.6089  0.1898  0.4372
  569SOL    HW1 6163   5.299   2.590   2.407  0.7232  0.1657 -0.3730
  569SOL    HW2 6164   5.361   2.684   2.508  0.7866 -1.0045  0.7093
  570SOL     OW 6165   3.884   9.756   9.638 -0.4837  0.3466 -0.4600
  570SOL    HW1 6166   3.857   9.763   9.546 -1.7689  3.9002  0.0277
  570SOL    HW2 6167   3.979   9.758   9.635 -0.4617  3.4060 -1.7319
  571SOL     OW 6168   7.334   5.930   1.538 -0.3047 -0.0014 -0.1579
  571SOL    HW1 6169   7.342   5.845   1.493  0.8681 -0.2826  0.5449
  571SOL    HW2 6170   7.279   5.982   1.480 -0.8161 -1.1511 -0.7417
  572SOL     OW 6171   2.122   1.863   8.281 -0.3242 -0.0479  0.2973
  572SOL    HW1 6172   2.179   1.938   8.265  0.7841 -0.7996  0.5222
  572SOL    HW2 6173   2.174   1.788   8.249 -1.8495 -0.6132 -0.9926
  573SOL     OW 6174   8.636   4.713   2.449 -0.0300 -0.0265 -0.1103
  573SOL    HW1 6175   8.560   4.756   2.410  1.5378  1.4486 -1.6578
  573SOL    HW2 6176   8.625   4.621   2.426 -1.9765 -0.1072  0.8446
  574SOL     OW 6177   3.723   9.585   9.811  0.1093 -0.4502  0.0741
  574SOL    HW1 6178   3.758   9.645   9.745  1.6598 -0.8287  0.5083
  574SOL    HW2 6179   3.800   9.547   9.853 -0.8065 -0.1752  2.1688
  575SOL     OW 6180   2.968   8.448   0.355 -0.2372  0.3689 -0.5463
  575SOL    HW1 6181   2.918   8.371   0.382  1.3078 -0.9992 -1.4385
  575SOL    HW2 6182   2.974   8.501   0.435  0.0906 -1.2390  0.5522
  576SOL     OW 6183   6.112   0.587   1.609 -0.0735 -0.7102  0.2074
  576SOL    HW1 6184   6.182   0.579   1.543 -2.3468 -0.3125 -2.4333
  576SOL    HW2 6185   6.096   0.681   1.616 -0.2990 -0.7896  0.8742
  577SOL     OW 6186   4.171  10.493   8.511  0.6324  0.4090  0.3079
  577SOL    HW1 6187   4.179  10.588   8.519  1.0144  0.8176 -3.1911
  577SOL    HW2 6188   4.084  10.479   8.475  1.2124 -0.3353 -0.8994
  578SOL     OW 6189   8.631   2.638   0.128 -0.1381 -0.4243 -0.0768
  578SOL    HW1 6190   8.721   2.605   0.132  0.8445  2.1514  0.8403
  578SOL    HW2 6191   8.634   2.710   0.064 -1.3175  0.3394  0.6899
  579SOL     OW 6192   8.738   8.953   7.936 -0.1069 -0.0297  0.2267
  579SOL    HW1 6193   8.767   8.878   7.883 -1.3516 -2.0635  2.2035
  579SOL    HW2 6194   8.812   8.970   7.994  0.1774  0.2891 -0.2220
  580SOL     OW 6195   9.222   1.021   2.389  0.3684  0.3668 -0.0386
  580SOL    HW1 6196   9.299   1.049   2.339  0.6477  0.4561  0.4374
  580SOL    HW2 6197   9.257   0.993   2.473  0.1637 -1.8210 -0.6059
  581SOL     OW 6198  10.199   3.638   5.612  0.7507 -0.1466 -0.0227
  581SOL    HW1 6199  10.213   3.544   5.602  2.5882  0.0797 -0.0914
  581SOL    HW2 6200  10.240   3.677   5.534  0.6891  0.7379  0.3665
  582SOL     OW 6201   0.454   3.512  10.529  0.5265 -0.0186  0.2235
  582SOL    HW1 6202   0.387   3.538  10.593 -0.5267  0.1965 -0.9189
  582SOL    HW2 6203   0.463   3.588  10.471 -1.0758 -1.3245 -1.9104
  583SOL     OW 6204   3.215   2.320   9.150  0.4361 -0.3730  0.3618
  583SOL    HW1 6205   3.154   2.246   9.147  0.5033 -0.7987  4.2399
  583SOL    HW2 6206   3.190   2.368   9.229  0.7145  3.6085 -1.6973
  584SOL     OW 6207   4.545   5.421   6.354  0.0877 -0.2288  0.3798
  584SOL    HW1 6208   4.558   5.327   6.359  0.3494 -0.1541  1.5481
  584SOL    HW2 6209   4.530   5.439   6.261  1.3226 -1.2503 -0.0424
  585SOL     OW 6210  10.684   7.861   8.876 -0.0047  0.0091 -0.1494
  585SOL    HW1 6211  10.740   7.817   8.812 -2.2198 -1.8994 -0.9103
  585SOL    HW2 6212  10.668   7.948   8.839  0.0160 -0.5100 -1.4234
  586SOL     OW 6213  10.089   0.222   4.218 -0.5003 -0.1866  0.1733
  586SOL    HW1 6214  10.082   0.287   4.148 -2.4670 -1.8133 -1.3107
  586SOL    HW2 6215  10.007   0.172   4.211  0.1542 -1.6967  2.3619
  587SOL     OW 6216  10.385   3.286   3.243 -0.7376 -0.6012  0.0782
  587SOL    HW1 6217  10.364   3.365   3.293  0.3662 -0.3508  0.1633
  587SOL    HW2 6218  10.427   3.228   3.305 -0.7514 -0.9083 -0.1965
  588SOL     OW 6219   9.970   3.682   7.313  0.0034 -0.3729 -0.6862
  588SOL    HW1 6220   9.998   3.593   7.292 -1.0861 -1.2728  1.4153
  588SOL    HW2 6221  10.030   3.710   7.382 -0.6629 -0.0967 -0.2150
  589SOL     OW 6222   0.662   1.562  10.704  0.5882 -0.3018 -0.1036
  589SOL    HW1 6223   0.750   1.594  10.683 -0.3133  3.6529  1.2010
  589SOL    HW2 6224   0.661   1.556  10.800 -0.1985 -1.5674 -0.1745
  590SOL     OW 6225   3.952   3.377   2.798 -0.8729  0.3666  0.2710
  590SOL    HW1 6226   3.969   3.465   2.764 -0.2272 -0.1629 -0.8524
  590SOL    HW2 6227   4.023   3.323   2.763 -1.7437 -0.7851  0.1875
  591SOL     OW 6228   8.447   4.313   3.898 -0.8521 -0.0546 -0.0574
  591SOL    HW1 6229   8.482   4.298   3.810  0.4540  0.0912  0.4142
  591SOL    HW2 6230   8.475   4.402   3.920  0.0295 -0.5766  1.0291
  592SOL     OW 6231   5.702   1.217   0.878 -0.2272  0.1080  0.3835
  592SOL    HW1 6232   5.635   1.204   0.811 -0.1229 -1.4666  0.5597
  592SOL    HW2 6233   5.732   1.129   0.900  0.9342  0.7039  1.2964
  593SOL     OW 6234   3.315   1.510   5.835  0.1849 -0.2432 -0.1001
  593SOL    HW1 6235   3.280   1.433   5.790 -0.5245 -0.0007  0.0213
  593SOL    HW2 6236   3.362   1.475   5.910 -1.7821 -0.5071  1.0870
  594SOL     OW 6237  10.955   2.616   5.258  0.0688  0.0728  0.0768
  594SOL    HW1 6238  10.898   2.616   5.335 -0.5249 -0.3861 -0.3522
  594SOL    HW2 6239  10.896   2.602   5.184  0.6413  0.4409 -0.4619
  595SOL     OW 6240   1.947   2.103   7.790  0.8245 -0.3237 -0.3142
  595SOL    HW1 6241   1.898   2.049   7.728 -0.9847 -0.5076  1.1841
  595SOL    HW2 6242   2.024   2.051   7.812 -1.6081 -3.2431  2.3146
  596SOL     OW 6243   8.894   5.225   4.572 -0.1827 -0.2122 -0.6078
  596SOL    HW1 6244   8.823   5.180   4.618  0.5225 -1.5122 -0.7457
  596SOL    HW2 6245   8.903   5.176   4.490  1.2148 -0.4064 -0.3590
  597SOL     OW 6246   5.748   5.554   1.259  0.6452  0.5801  0.6580
  597SOL    HW1 6247   5.758   5.528   1.350 -1.4612 -1.3972  0.4131
  597SOL    HW2 6248   5.747   5.650   1.261 -0.1157  0.5774  2.7914
  598SOL     OW 6249   1.008   8.921   1.558  0.3589  0.2030 -0.4561
  598SOL    HW1 6250   0.960   8.936   1.639 -0.5055 -0.8998 -0.7230
  598SOL    HW2 6251   1.093   8.962   1.572 -0.3378  1.4403  0.3805
  599SOL     OW 6252   2.413   9.276   1.325 -1.1251  0.0171 -0.4821
  599SOL    HW1 6253   2.360   9.270   1.246  0.9858 -0.2974 -1.9695
  599SOL    HW2 6254   2.439   9.368   1.331 -1.5692  0.1144  0.0759
  600SOL     OW 6255   9.332   7.539   9.663 -0.1213 -0.4768  0.1735
  600SOL    HW1 6256   9.252   7.489   9.647 -0.2241 -0.8853  1.7283
  600SOL    HW2 6257   9.345   7.533   9.758  1.2464  0.3671  0.0714
  601SOL     OW 6258   3.184   1.069  10.535  0.2618  0.2823  0.0232
  601SOL    HW1 6259   3.192   1.164  10.545 -1.3366  0.3623  0.9135
  601SOL    HW2 6260   3.107   1.046  10.587  0.7410 -1.5430 -0.0124
  602SOL     OW 6261   0.431   5.693   6.502 -0.2281  0.0284  0.0555
  602SOL    HW1 6262   0.433   5.635   6.578  0.0668 -1.3056 -0.9333
  602SOL    HW2 6263   0.370   5.763   6.526 -1.0463 -0.9996  1.0714
  603SOL     OW 6264   8.434   6.785   9.272  0.7831 -0.1897 -0.4348
  603SOL    HW1 6265   8.526   6.760   9.283  0.7920  0.6745  1.9964
  603SOL    HW2 6266   8.385   6.716   9.316  0.4371  0.6130  0.4716
  604SOL     OW 6267  10.810   5.604   4.348  0.2554 -0.5906 -0.3147
  604SOL    HW1 6268  10.851   5.691   4.347 -0.0609 -0.3779  1.7067
  604SOL    HW2 6269  10.883   5.543   4.358  0.5519 -0.6716 -2.4462
  605SOL     OW 6270   7.328   3.447   3.006  0.1181 -0.2281  0.8342
  605SOL    HW1 6271   7.332   3.439   3.101  0.6219  0.8586  0.9316
  605SOL    HW2 6272   7.351   3.360   2.973  1.4363 -0.2541  1.7123
  606SOL     OW 6273   6.787   3.919   6.163 -0.9412  0.1812 -0.5594
  606SOL    HW1 6274   6.745   3.834   6.174 -1.5440  0.1120 -2.8054
  606SOL    HW2 6275   6.844   3.929   6.239 -1.3828 -1.9029  0.0897
  607SOL     OW 6276   0.124   2.604   4.462  0.6810 -0.0426 -0.0622
  607SOL    HW1 6277   0.192   2.621   4.527  1.0978  1.0798 -0.7581
  607SOL    HW2 6278   0.044   2.639   4.502  0.6657 -0.5965  0.4053
  608SOL     OW 6279  10.797  10.837   9.111 -0.3856  0.3403  0.4238
  608SOL    HW1 6280  10.824  10.925   9.087 -1.8164  0.6007 -0.3694
  608SOL    HW2 6281  10.702  10.836   9.098 -0.6176 -0.8789  1.8733
  609SOL     OW 6282   8.989   3.570   2.552  0.5635  0.6093  0.2170
  609SOL    HW1 6283   8.974   3.664   2.543  0.5404  0.6431  0.5979
  609SOL    HW2 6284   9.080   3.557   2.524  0.5639  0.7416  0.1584
  610SOL     OW 6285  10.407   5.174   9.426 -0.1657  0.1510 -0.2811
  610SOL    HW1 6286  10.420   5.105   9.490 -0.3762 -0.6586 -1.0918
  610SOL    HW2 6287  10.318   5.161   9.393 -0.4741  1.2525  0.0609
  611SOL     OW 6288   1.029   4.874   2.602 -0.9218  0.0400  0.3694
  611SOL    HW1 6289   1.013   4.895   2.510  0.2317  1.7483  0.4930
  611SOL    HW2 6290   1.071   4.788   2.600 -0.2869  0.3494 -0.7784
  612SOL     OW 6291   3.522   8.860   1.610 -0.4199  0.1344  0.1608
  612SOL    HW1 6292   3.537   8.886   1.701 -0.4975 -2.2151  0.9011
  612SOL    HW2 6293   3.609   8.864   1.570 -0.3955  1.2359  0.2870
  613SOL     OW 6294   6.327   2.138   5.376  0.4656  0.0706  0.2359
  613SOL    HW1 6295   6.346   2.044   5.373  1.7954  0.3518 -0.5398
  613SOL    HW2 6296   6.373   2.174   5.301  0.6235  1.4704  0.9804
  614SOL     OW 6297   9.246  10.569   9.985 -0.4309  0.0360 -0.2753
  614SOL    HW1 6298   9.261  10.476   9.967 -0.4853  0.1395 -0.8566
  614SOL    HW2 6299   9.334  10.604  10.000 -0.2216  0.2579 -1.8509
  615SOL     OW 6300   9.636   8.291   2.240 -0.3898  0.1629  0.3475
  615SOL    HW1 6301   9.576   8.224   2.274 -1.4696  0.6616 -0.5107
  615SOL    HW2 6302   9.723   8.257   2.261 -0.8927 -1.6340 -0.2304
  616SOL     OW 6303   7.058  10.389   6.509  0.5442  0.0624 -0.2900
  616SOL    HW1 6304   7.103  10.392   6.425 -0.5637  0.7324 -0.8803
  616SOL    HW2 6305   7.004  10.311   6.506 -3.1369  2.3980 -2.2158
  617SOL     OW 6306   2.483   4.998   7.332 -0.3689  0.1203 -0.1198
  617SOL    HW1 6307   2.563   5.009   7.281 -0.1081  1.5055  0.5341
  617SOL    HW2 6308   2.477   4.904   7.347  2.2386  0.1197  1.5217
  618SOL     OW 6309   5.083   2.038   2.870 -0.1808 -0.5403 -0.5932
  618SOL    HW1 6310   5.105   2.131   2.864  2.4095 -1.1131 -0.9152
  618SOL    HW2 6311   5.016   2.034   2.939  1.1558  1.3594  0.9276
  619SOL     OW 6312   8.888   7.583   8.278  0.1918  0.0846 -0.5673
  619SOL    HW1 6313   8.857   7.494   8.260 -0.8990  0.7921 -2.3622
  619SOL    HW2 6314   8.817   7.623   8.328  1.0167 -0.2522  0.9364
  620SOL     OW 6315   6.006   8.636   7.416  0.5127  0.0585 -0.6286
  620SOL    HW1 6316   5.965   8.714   7.452  0.9897  0.1292 -0.2267
  620SOL    HW2 6317   6.081   8.668   7.366 -0.0365 -0.0545 -1.5332
  621SOL     OW 6318  10.495   4.772   6.676  0.4215  0.2748 -0.4257
  621SOL    HW1 6319  10.407   4.785   6.713  1.1328  1.1752  1.0693
  621SOL    HW2 6320  10.480   4.732   6.591 -1.4422  0.4886 -0.2371
  622SOL     OW 6321   1.909   9.299   4.282 -0.1654  0.3207  0.1875
  622SOL    HW1 6322   1.816   9.307   4.261 -0.3995 -0.2908  0.9283
  622SOL    HW2 6323   1.914   9.223   4.341  0.7039  0.7454  0.6869
  623SOL     OW 6324   7.721   3.444   0.904  0.4192 -0.4716  0.1704
  623SOL    HW1 6325   7.647   3.504   0.905 -0.3233 -1.3582  1.3086
  623SOL    HW2 6326   7.702   3.382   0.834 -0.2950 -1.1201  0.9186
  624SOL     OW 6327   7.482   7.253   0.208  0.1575  0.4456 -0.4402
  624SOL    HW1 6328   7.386   7.253   0.212  0.1527  1.3761 -0.2138
  624SOL    HW2 6329   7.506   7.161   0.207 -0.7947  0.1806 -1.9851
  625SOL     OW 6330   0.866   6.025   0.952  0.2282  0.5564 -0.2638
  625SOL    HW1 6331   0.893   6.079   0.878  1.9239 -0.2407 -0.2885
  625SOL    HW2 6332   0.923   6.052   1.024  0.4760 -0.5533 -0.0275
  626SOL     OW 6333   9.267   3.551   1.583 -0.4217  0.0847 -0.2265
  626SOL    HW1 6334   9.210   3.487   1.539 -0.6717  0.4056 -0.3726
  626SOL    HW2 6335   9.221   3.634   1.574  0.4765  0.5138 -1.1136
  627SOL     OW 6336   9.167   5.101   8.511 -0.4472  0.2051 -0.5222
  627SOL    HW1 6337   9.228   5.144   8.452 -0.2192  0.2744 -0.2417
  627SOL    HW2 6338   9.165   5.157   8.589 -0.7105  0.0949 -0.4463
  628SOL     OW 6339   5.127   8.979   4.057  0.3346 -0.1250  0.3807
  628SOL    HW1 6340   5.048   9.032   4.051  1.2776  1.2338 -1.5970
  628SOL    HW2 6341   5.147   8.975   4.150 -0.9767  1.1963  0.7589
  629SOL     OW 6342   1.697   9.995   0.458 -0.7012  0.8640  0.3160
  629SOL    HW1 6343   1.683   9.912   0.503 -0.8939  0.0195 -1.2098
  629SOL    HW2 6344   1.788   9.993   0.429 -1.2907  0.0920 -1.6995
  630SOL     OW 6345   2.869   2.480   3.740 -0.2338  0.0959 -0.1077
  630SOL    HW1 6346   2.922   2.479   3.661  0.2621  2.1304  0.1195
  630SOL    HW2 6347   2.909   2.414   3.797  1.6734  1.0413 -0.2344
  631SOL     OW 6348  10.920   7.298   2.071  0.5609  0.4243 -0.0126
  631SOL    HW1 6349  10.837   7.291   2.118  0.9934 -0.6306  0.6398
  631SOL    HW2 6350  10.895   7.303   1.979 -0.2691  1.6987  0.2601
  632SOL     OW 6351   1.469   0.924   6.575  0.0319 -0.1418 -0.1069
  632SOL    HW1 6352   1.472   0.862   6.648  1.2816  0.4024  0.3192
  632SOL    HW2 6353   1.375   0.934   6.558 -0.3254  0.0468  1.7150
  633SOL     OW 6354   6.592   1.484   5.024 -0.2950  0.1927 -0.2569
  633SOL    HW1 6355   6.638   1.408   5.058  1.2361  0.8420 -0.7663
  633SOL    HW2 6356   6.563   1.457   4.937  0.7504  0.3370 -0.6742
  634SOL     OW 6357   6.425   4.783   1.378 -0.6252 -0.4082  0.1240
  634SOL    HW1 6358   6.514   4.787   1.344 -0.3294 -2.3428  0.5343
  634SOL    HW2 6359   6.435   4.796   1.472 -0.8879  0.2369  0.0663
  635SOL     OW 6360   9.125   9.552   3.930 -0.2143 -0.3533 -0.0117
  635SOL    HW1 6361   9.105   9.467   3.891  1.4470 -0.5900 -0.4376
  635SOL    HW2 6362   9.199   9.585   3.879 -0.7116  1.2828  0.2622
  636SOL     OW 6363  10.937   5.440   9.096 -0.7609 -0.0473  0.5566
  636SOL    HW1 6364  10.891   5.505   9.044  0.3164  1.4311  1.3873
  636SOL    HW2 6365  10.887   5.434   9.177 -0.4854  0.2404  0.7475
  637SOL     OW 6366   8.714   3.478  10.640 -0.5316 -0.3151 -0.2104
  637SOL    HW1 6367   8.807   3.457  10.647 -0.1880  1.3156  0.6174
  637SOL    HW2 6368   8.705   3.519  10.555 -0.5299 -0.5937 -0.3468
  638SOL     OW 6369   2.847   8.526   1.177  0.0446 -0.2832 -0.1033
  638SOL    HW1 6370   2.915   8.498   1.239  1.0621  0.5413 -0.8074
  638SOL    HW2 6371   2.880   8.608   1.141 -0.6877 -0.5708 -1.4945
  639SOL     OW 6372   3.256   8.060   5.309 -0.7665 -1.0599 -0.3162
  639SOL    HW1 6373   3.206   8.107   5.375  2.5786  1.6429  0.6170
  639SOL    HW2 6374   3.201   8.062   5.231 -2.1581  1.7005  0.5935
  640SOL     OW 6375   6.656   7.804   8.164 -0.1172 -0.0177 -0.3239
  640SOL    HW1 6376   6.740   7.758   8.173 -0.4540 -0.9087 -1.5149
  640SOL    HW2 6377   6.595   7.737   8.132 -0.7216  1.1658 -1.7548
  641SOL     OW 6378   7.844   3.230   9.539 -0.1624  0.5738 -0.4697
  641SOL    HW1 6379   7.897   3.306   9.563 -0.0435  0.5971 -0.8011
  641SOL    HW2 6380   7.844   3.175   9.617 -2.4776  2.1526  0.7429
  642SOL     OW 6381   1.113   7.014   4.100  0.2497 -0.0524  0.0848
  642SOL    HW1 6382   1.142   6.934   4.145  1.4456  2.0698  3.5437
  642SOL    HW2 6383   1.185   7.037   4.042  0.7609 -0.4836  0.5407
  643SOL     OW 6384   5.066   9.323   0.394  0.3010 -0.2326 -0.2376
  643SOL    HW1 6385   5.091   9.270   0.470  1.5676 -0.1621 -0.5705
  643SOL    HW2 6386   4.986   9.283   0.361  1.1796 -1.9299 -0.4427
  644SOL     OW 6387   1.733   9.876   1.369  0.1720  0.0689  0.5540
  644SOL    HW1 6388   1.667   9.822   1.413  1.1199 -0.8518  0.8976
  644SOL    HW2 6389   1.750   9.832   1.286  0.7492 -0.0303  0.7143
  645SOL     OW 6390   5.393   2.834  10.009 -0.8435  0.0981 -0.0279
  645SOL    HW1 6391   5.485   2.811  10.006 -1.0145 -0.4992 -1.0196
  645SOL    HW2 6392   5.374   2.846  10.103  0.5757  1.7303  0.0974
  646SOL     OW 6393   7.084   7.165   4.289 -0.6409  0.4004  0.7425
  646SOL    HW1 6394   6.998   7.205   4.298 -0.2774  0.9805  1.8618
  646SOL    HW2 6395   7.136   7.230   4.241 -0.2160  1.0629  2.0457
  647SOL     OW 6396   1.432   3.297   0.844 -0.2744 -0.3433  0.3841
  647SOL    HW1 6397   1.397   3.210   0.822  3.1418 -1.7632 -0.0747
  647SOL    HW2 6398   1.491   3.280   0.918 -1.1036  2.0174  1.6704
  648SOL     OW 6399   9.459   9.248   8.250 -0.4704  0.0060 -0.2237
  648SOL    HW1 6400   9.372   9.263   8.212 -0.0355  1.6916 -0.6283
  648SOL    HW2 6401   9.501   9.334   8.249  0.4094 -0.3232  2.0144
  649SOL     OW 6402   9.113   6.267   8.328  0.0941  0.2965 -0.0976
  649SOL    HW1 6403   9.207   6.264   8.343  0.2403  0.1011 -1.0134
  649SOL    HW2 6404   9.098   6.206   8.256 -0.5269  1.4146 -0.9474
  650SOL     OW 6405   6.451   0.238   7.776  0.0937  0.2262 -0.5282
  650SOL    HW1 6406   6.489   0.284   7.701 -0.9427  1.4621 -0.3174
  650SOL    HW2 6407   6.522   0.235   7.841 -0.0148  2.2180 -0.2547
  651SOL     OW 6408  10.010   1.616   1.540 -0.0032  0.4174 -0.2904
  651SOL    HW1 6409   9.953   1.692   1.555  1.4460  1.6274 -0.6374
  651SOL    HW2 6410   9.971   1.571   1.466 -0.8119  0.9187 -0.1774
  652SOL     OW 6411   2.358  10.698   7.499  0.8230 -0.1790  0.2908
  652SOL    HW1 6412   2.333  10.734   7.415 -0.6095 -1.5285  0.0950
  652SOL    HW2 6413   2.433  10.751   7.527 -0.9654  2.7104 -0.0691
  653SOL     OW 6414  10.099   0.920   9.721  0.2379  0.4301 -0.4325
  653SOL    HW1 6415  10.162   0.926   9.649  0.3945  1.4927 -0.2315
  653SOL    HW2 6416  10.018   0.890   9.681  1.0606 -1.7539 -0.5679
  654SOL     OW 6417  11.039   4.898  10.505  0.0069 -0.7110 -0.2777
  654SOL    HW1 6418  11.076   4.951  10.434 -1.2896 -1.1916 -1.3453
  654SOL    HW2 6419  10.981   4.837  10.461 -0.0733 -1.6814  1.1318
  655SOL     OW 6420   7.115   9.890   6.014  0.0512 -0.0208 -0.2369
  655SOL    HW1 6421   7.083   9.966   5.964  0.2271 -0.1628 -0.5632
  655SOL    HW2 6422   7.202   9.873   5.979  1.4095  1.6468  2.0324
  656SOL     OW 6423   4.145   3.644   2.172  0.5595 -0.7489  0.2380
  656SOL    HW1 6424   4.118   3.735   2.154  0.8817 -0.8671 -0.9114
  656SOL    HW2 6425   4.063   3.596   2.179  0.3982 -0.6442 -0.7320
  657SOL     OW 6426   0.138  10.061   7.154  0.1729 -0.0407 -0.1855
  657SOL    HW1 6427   0.102   9.985   7.108 -1.5472  0.4375  0.3109
  657SOL    HW2 6428   0.064  10.120   7.166  0.8414  0.4557  1.9862
  658SOL     OW 6429   1.416   1.413  11.047 -0.2963 -0.2889 -0.4416
  658SOL    HW1 6430   1.394   1.395  11.139  0.0456  0.7977 -0.1373
  658SOL    HW2 6431   1.351   1.478  11.020 -1.4372 -1.7829 -1.4880
  659SOL     OW 6432   3.977   9.975   5.564 -0.5279  0.4634 -0.3562
  659SOL    HW1 6433   3.991   9.880   5.571 -0.9907  0.4508  0.5245
  659SOL    HW2 6434   3.891   9.984   5.524  0.6577  0.5450 -3.1691
  660SOL     OW 6435   6.174   4.832   2.659 -0.0147 -0.4644 -0.1634
  660SOL    HW1 6436   6.098   4.855   2.606  0.9915  1.0413 -1.0277
  660SOL    HW2 6437   6.158   4.874   2.743 -0.8858 -1.5462  0.2345
  661SOL     OW 6438   3.877   4.382   6.875  0.1609  0.5410  0.2039
  661SOL    HW1 6439   3.861   4.467   6.832  0.5357  0.7739  0.5190
  661SOL    HW2 6440   3.824   4.320   6.825  2.9563  0.2035 -2.6961
  662SOL     OW 6441   2.599   4.213   5.443  0.5329  0.2669  0.2388
  662SOL    HW1 6442   2.614   4.188   5.535  2.4299 -0.6058 -0.2686
  662SOL    HW2 6443   2.686   4.221   5.406 -0.2076  0.8832 -1.4499
  663SOL     OW 6444   5.061   8.135   5.732  0.0065  0.2513 -0.2616
  663SOL    HW1 6445   4.981   8.186   5.736 -0.6150 -0.5649 -1.6898
  663SOL    HW2 6446   5.065   8.090   5.817 -0.1253  1.5956  0.4783
  664SOL     OW 6447   8.181   0.772   4.954  0.2803  1.0398  0.1367
  664SOL    HW1 6448   8.266   0.729   4.964  0.7825  2.1156  0.8578
  664SOL    HW2 6449   8.136   0.756   5.037  0.3163  1.5392  0.2611
  665SOL     OW 6450   0.555   6.291   1.733 -0.0362  0.7116  0.8264
  665SOL    HW1 6451   0.573   6.336   1.815 -0.8548  1.6504  0.5090
  665SOL    HW2 6452   0.639   6.291   1.686  1.2433 -2.4118  2.8046
  666SOL     OW 6453   6.056  11.064   2.737 -0.4004 -0.4530  0.0775
  666SOL    HW1 6454   6.103  10.982   2.720 -0.8097 -0.3873 -1.6202
  666SOL    HW2 6455   6.071  11.117   2.658  0.6294  1.5207  1.4944
  667SOL     OW 6456   1.040   0.213   6.257  0.4115  0.7613 -0.0101
  667SOL    HW1 6457   0.963   0.158   6.271  0.4780  0.7700  0.3925
  667SOL    HW2 6458   1.086   0.213   6.341  0.0740  1.9557  0.1967
  668SOL     OW 6459   7.725   5.761   4.454 -0.0188 -0.1339 -0.0300
  668SOL    HW1 6460   7.726   5.785   4.547 -1.8439  1.8965 -0.4711
  668SOL    HW2 6461   7.669   5.683   4.450  0.1075 -0.2631  0.5484
  669SOL     OW 6462   6.504   7.827   0.986  0.0716  0.3512  0.0950
  669SOL    HW1 6463   6.505   7.921   1.003 -0.3653  0.1439  1.3869
  669SOL    HW2 6464   6.555   7.816   0.905  0.3053  1.6608  0.0462
  670SOL     OW 6465   4.900   0.149   1.820  0.4246 -0.1974  0.8159
  670SOL    HW1 6466   4.870   0.143   1.911  0.0879 -1.1863  0.6543
  670SOL    HW2 6467   4.931   0.061   1.799 -0.9372 -0.4241 -0.4891
  671SOL     OW 6468   1.230   7.899   3.317 -0.9282 -0.0605 -0.5614
  671SOL    HW1 6469   1.188   7.968   3.266 -1.5091  0.3235  0.4101
  671SOL    HW2 6470   1.310   7.879   3.268 -1.7366 -0.1208 -1.9256
  672SOL     OW 6471   3.602   5.668  10.714  0.0359 -0.0783  0.0334
  672SOL    HW1 6472   3.520   5.623  10.695  0.9199 -0.7466 -2.5703
  672SOL    HW2 6473   3.613   5.731  10.643  1.3627  0.6069  0.7987
  673SOL     OW 6474  10.774   2.928   1.855  1.1577 -0.0437 -0.2343
  673SOL    HW1 6475  10.699   2.973   1.893  1.6702  0.5600  0.0914
  673SOL    HW2 6476  10.782   2.847   1.906  1.1026  0.1893  0.1475
  674SOL     OW 6477   2.190   7.490   2.592  0.4453 -0.3057  0.5896
  674SOL    HW1 6478   2.146   7.405   2.595  1.3783 -0.7928  1.0563
  674SOL    HW2 6479   2.119   7.554   2.586 -0.2547 -1.1410 -0.5017
  675SOL     OW 6480   2.067   4.170   2.354  0.3000 -0.0168  0.0893
  675SOL    HW1 6481   2.013   4.224   2.411 -0.6640 -2.2758  1.4859
  675SOL    HW2 6482   2.004   4.116   2.306  1.2230 -1.7549  0.7505
  676SOL     OW 6483   6.097   8.053   1.391 -0.6487  0.0470 -0.1869
  676SOL    HW1 6484   6.014   8.084   1.355 -0.7210  0.4254  0.2877
  676SOL    HW2 6485   6.136   8.131   1.431  0.0185 -0.0897 -0.5582
  677SOL     OW 6486   5.667   8.534  10.829  0.6828  0.6381  0.2787
  677SOL    HW1 6487   5.688   8.557  10.920  0.5574 -0.6040  0.6480
  677SOL    HW2 6488   5.736   8.472  10.804 -0.8149 -1.2293  0.5167
  678SOL     OW 6489   9.589   5.094   6.400 -0.4142 -0.3369 -0.3242
  678SOL    HW1 6490   9.585   5.065   6.491  0.1137  2.4943  0.7096
  678SOL    HW2 6491   9.659   5.041   6.361 -1.7702 -2.7957  0.3252
  679SOL     OW 6492   0.827  10.519   9.302  0.2000  0.8621 -0.0047
  679SOL    HW1 6493   0.918  10.549   9.313  0.2125  0.9496 -0.3259
  679SOL    HW2 6494   0.787  10.531   9.388  1.2298 -1.7572  0.9303
  680SOL     OW 6495   8.246   3.261   4.059 -0.5505  0.1126 -0.0902
  680SOL    HW1 6496   8.253   3.180   4.009 -0.7363  0.1526 -0.1816
  680SOL    HW2 6497   8.240   3.233   4.150  2.2671  0.0959  0.1788
  681SOL     OW 6498   3.044   7.300   2.907 -0.5087 -0.4448 -0.0031
  681SOL    HW1 6499   3.091   7.360   2.850  0.5122 -0.6986  0.5405
  681SOL    HW2 6500   2.989   7.356   2.962  0.6422  0.0248  0.6896
  682SOL     OW 6501   1.291   9.620   8.319 -0.1162 -0.7157 -0.6617
  682SOL    HW1 6502   1.349   9.616   8.243 -0.8863  3.7599 -1.7559
  682SOL    HW2 6503   1.210   9.659   8.286 -0.6767  0.9553  2.2698
  683SOL     OW 6504   2.420   9.373   2.809 -0.3572 -0.2146  0.0242
  683SOL    HW1 6505   2.479   9.302   2.786  0.1536  0.2215 -0.0280
  683SOL    HW2 6506   2.342   9.329   2.845  0.0529 -0.7864  0.2261
  684SOL     OW 6507   5.180   0.136   2.527 -0.1632 -0.2852 -0.2383
  684SOL    HW1 6508   5.230   0.204   2.482  1.2363 -1.3832 -0.4362
  684SOL    HW2 6509   5.091   0.170   2.532  0.3073  1.1555 -1.1329
  685SOL     OW 6510   5.999   5.070   2.434 -0.6183 -0.1159 -0.5762
  685SOL    HW1 6511   5.938   5.143   2.424  1.3137  1.3491 -2.7571
  685SOL    HW2 6512   6.049   5.093   2.513 -0.3464  0.7121 -0.9717
  686SOL     OW 6513   7.639   8.021   3.105 -0.5076  0.3215  0.8520
  686SOL    HW1 6514   7.548   8.028   3.135 -0.8041 -0.3714  0.1328
  686SOL    HW2 6515   7.662   8.109   3.077 -0.6287  0.7177  1.9447
  687SOL     OW 6516   5.819  10.393   3.467  0.3137  0.0453 -1.3315
  687SOL    HW1 6517   5.752  10.336   3.430 -0.9978 -0.4081  1.4855
  687SOL    HW2 6518   5.771  10.466   3.507  1.4351 -0.1612  0.5645
  688SOL     OW 6519   1.855   2.945   9.099  0.0733 -0.2083  0.7752
  688SOL    HW1 6520   1.876   2.853   9.079  0.6866  0.3893 -1.6289
  688SOL    HW2 6521   1.903   2.963   9.180 -0.0393 -1.9897  1.2784
  689SOL     OW 6522   0.517   4.276   5.963  0.4340 -0.9701  0.4621
  689SOL    HW1 6523   0.507   4.229   6.046  0.2993  0.5137  1.3122
  689SOL    HW2 6524   0.481   4.363   5.980  1.6944 -0.1821 -0.7267
  690SOL     OW 6525   4.114   1.202   7.837  0.6662 -0.2250  0.2949
  690SOL    HW1 6526   4.193   1.244   7.871  2.1532 -3.2722  0.8706
  690SOL    HW2 6527   4.088   1.257   7.763  1.5992  2.4593  1.8278
  691SOL     OW 6528   7.444   9.326  10.356 -0.2142 -0.3032  0.3985
  691SOL    HW1 6529   7.458   9.402  10.412 -0.0449  0.4183 -0.5908
  691SOL    HW2 6530   7.531   9.307  10.319 -0.2506 -0.9904  0.6453
  692SOL     OW 6531   7.159   2.185   9.838  0.0783 -0.7319  0.2153
  692SOL    HW1 6532   7.137   2.269   9.878  1.4292  1.4490 -3.2036
  692SOL    HW2 6533   7.079   2.156   9.794  0.0302 -0.4638  0.1292
  693SOL     OW 6534   0.674   4.351   4.684  0.0473  0.2331 -0.4416
  693SOL    HW1 6535   0.670   4.328   4.591 -1.0922 -0.7807 -0.1692
  693SOL    HW2 6536   0.674   4.266   4.729 -1.4536  0.7197  0.5330
  694SOL     OW 6537   5.026   0.465   4.252  0.3661  0.5233  0.1350
  694SOL    HW1 6538   4.949   0.410   4.238  1.4282 -0.8044 -0.8165
  694SOL    HW2 6539   5.018   0.535   4.188  1.1107 -0.9693 -1.6754
  695SOL     OW 6540   6.224   5.401   6.409  0.0736 -0.4474 -0.2749
  695SOL    HW1 6541   6.173   5.405   6.328  1.6747 -0.1094 -1.3005
  695SOL    HW2 6542   6.198   5.479   6.458  1.0706  0.8542 -1.7224
  696SOL     OW 6543   0.732   1.976   4.216 -0.2726  0.0332 -0.2709
  696SOL    HW1 6544   0.718   1.882   4.233  2.6046 -0.4319  0.0104
  696SOL    HW2 6545   0.757   2.012   4.301  0.5029  0.6246 -0.7343
  697SOL     OW 6546  10.155   8.973   5.033 -0.0854  0.1461  0.7891
  697SOL    HW1 6547  10.243   9.011   5.032 -0.2367  0.7688  3.4390
  697SOL    HW2 6548  10.115   9.003   4.951  0.7818  3.3740  1.4262
  698SOL     OW 6549   1.485   2.226   0.010  0.8073  0.4410  0.6859
  698SOL    HW1 6550   1.442   2.211   0.094 -0.7549  1.9704  0.2029
  698SOL    HW2 6551   1.472   2.144  -0.038 -0.5853  0.4590  0.9824
  699SOL     OW 6552   4.950   4.266  10.651 -0.0844  0.4767  0.1594
  699SOL    HW1 6553   4.935   4.213  10.572 -0.4563 -0.2376  0.6997
  699SOL    HW2 6554   5.042   4.290  10.646  0.9180 -2.5672  1.2652
  700SOL     OW 6555   9.652  10.750   5.023  0.2016 -0.3046  0.0952
  700SOL    HW1 6556   9.684  10.765   5.112  1.0794 -1.3408 -0.0231
  700SOL    HW2 6557   9.679  10.827   4.974  0.9246 -0.3438  0.4224
  701SOL     OW 6558   7.408   4.388   7.489  0.1839  0.1876  0.0954
  701SOL    HW1 6559   7.327   4.439   7.491  0.4096  0.5496 -0.0699
  701SOL    HW2 6560   7.451   4.413   7.408 -0.0125 -0.7506 -0.3094
  702SOL     OW 6561  10.531   1.998   4.718 -0.1570  0.4956  0.1228
  702SOL    HW1 6562  10.518   2.031   4.630 -0.7499 -0.9966 -0.3871
  702SOL    HW2 6563  10.574   1.913   4.706 -0.5520  0.1148  1.2314
  703SOL     OW 6564   7.006   5.649   1.382 -0.0494  0.2434  0.1830
  703SOL    HW1 6565   7.094   5.646   1.420  0.1004  0.9424 -0.1092
  703SOL    HW2 6566   7.020   5.674   1.290 -0.6434  1.6778  0.4616
  704SOL     OW 6567   2.540   4.093  10.381  0.1059 -0.0873  0.3937
  704SOL    HW1 6568   2.445   4.092  10.389 -0.1865 -0.3863 -2.2179
  704SOL    HW2 6569   2.571   4.069  10.469 -2.2228 -0.6358  1.1598
  705SOL     OW 6570   4.711   5.268   6.938  0.0380 -0.2659  0.2556
  705SOL    HW1 6571   4.754   5.274   6.853 -0.7531 -2.5475 -0.3733
  705SOL    HW2 6572   4.619   5.254   6.918 -0.1737 -0.8009  1.4792
  706SOL     OW 6573   4.855   7.624   4.956  0.7137 -0.0197 -0.3090
  706SOL    HW1 6574   4.770   7.662   4.975  0.3191 -0.9473 -0.1522
  706SOL    HW2 6575   4.918   7.689   4.986  0.0676  0.7147 -0.5091
  707SOL     OW 6576  10.379   7.785   2.462  0.2616  0.0623  0.3841
  707SOL    HW1 6577  10.475   7.781   2.463  0.5142  2.2324 -2.1941
  707SOL    HW2 6578  10.357   7.849   2.529  0.5592 -0.7299  1.2551
  708SOL     OW 6579   3.120  10.887   5.338 -0.2910  0.3183 -0.5960
  708SOL    HW1 6580   3.074  10.960   5.296 -0.3194  0.7429  0.1427
  708SOL    HW2 6581   3.095  10.810   5.287 -1.9266  0.5116 -0.1447
  709SOL     OW 6582   3.453   6.834  10.925  0.3379  0.7391 -0.3770
  709SOL    HW1 6583   3.478   6.743  10.934 -3.4538 -0.3490  1.0990
  709SOL    HW2 6584   3.403   6.838  10.844  0.6780  1.5626 -0.5556
  710SOL     OW 6585   5.361   1.346   7.584  0.2685 -0.1831 -0.0248
  710SOL    HW1 6586   5.301   1.373   7.515 -0.6221  0.1057  0.8425
  710SOL    HW2 6587   5.381   1.254   7.564 -1.7545 -0.7951  0.5479
  711SOL     OW 6588   8.864   3.760   7.202 -0.2480 -0.3612  0.3032
  711SOL    HW1 6589   8.832   3.672   7.222  0.9610 -0.7046  0.8169
  711SOL    HW2 6590   8.919   3.783   7.278  0.7691  0.1610 -0.5629
  712SOL     OW 6591   0.370   7.168   0.297 -0.1220  0.3457  0.4543
  712SOL    HW1 6592   0.299   7.135   0.242  0.1697 -0.6311  0.6545
  712SOL    HW2 6593   0.375   7.106   0.370  0.8226  0.5084  0.5407
  713SOL     OW 6594   1.881   7.836   0.074  0.0520 -0.4063  0.5386
  713SOL    HW1 6595   1.836   7.768   0.125 -0.9151  0.9460  1.5456
  713SOL    HW2 6596   1.839   7.918   0.099  1.5456  0.6604 -0.2436
  714SOL     OW 6597   6.750   7.408   1.968 -0.3043  0.6345 -0.2116
  714SOL    HW1 6598   6.758   7.502   1.952 -0.4273  0.4943 -1.1526
  714SOL    HW2 6599   6.691   7.402   2.043 -0.2241  1.3098 -0.0840
  715SOL     OW 6600   1.259   1.099   0.800 -0.0845 -0.0410  0.5763
  715SOL    HW1 6601   1.340   1.126   0.759 -1.5301  2.4701 -0.8685
  715SOL    HW2 6602   1.280   1.016   0.842  2.8390 -0.1446 -0.8466
  716SOL     OW 6603   6.378   3.504   7.920  0.2171 -0.6024  0.0495
  716SOL    HW1 6604   6.356   3.411   7.927  0.3678 -0.5808  0.8808
  716SOL    HW2 6605   6.360   3.526   7.829  0.4204 -1.5087 -0.2185
  717SOL     OW 6606   3.592   2.949   7.281 -0.6187 -0.0113 -0.5698
  717SOL    HW1 6607   3.590   2.854   7.265 -1.9649  0.0999 -1.1307
  717SOL    HW2 6608   3.590   2.957   7.376 -0.0476 -0.5465 -0.5034
  718SOL     OW 6609   2.438   3.395  10.415 -0.0008  0.3155  0.1812
  718SOL    HW1 6610   2.500   3.458  10.376  0.7972 -0.9537 -0.6755
  718SOL    HW2 6611   2.422   3.332  10.345  1.0421 -1.7459  1.7155
  719SOL     OW 6612   7.859   1.397   1.755  0.1247  0.0290  0.1493
  719SOL    HW1 6613   7.901   1.483   1.760  1.2741 -0.5429  0.5643
  719SOL    HW2 6614   7.924   1.340   1.714  0.0135 -1.0158  1.3647
  720SOL     OW 6615   4.004   1.990   4.490 -0.1232  0.5114  0.4642
  720SOL    HW1 6616   3.951   2.022   4.417  0.4977  0.1856 -0.1499
  720SOL    HW2 6617   4.085   2.041   4.484  0.3844 -0.3111  0.2238
  721SOL     OW 6618   9.241   6.189   9.206  0.3463 -0.1025  0.3538
  721SOL    HW1 6619   9.170   6.244   9.239 -1.2805 -2.0895  0.3149
  721SOL    HW2 6620   9.266   6.230   9.123 -1.6235 -0.0612 -0.2559
  722SOL     OW 6621   8.584   6.873   6.843 -0.1807  0.4936  0.0999
  722SOL    HW1 6622   8.567   6.957   6.887 -0.2466 -0.2385  1.5408
  722SOL    HW2 6623   8.520   6.813   6.881  0.7988 -0.5392  0.1683
  723SOL     OW 6624   2.792   5.198   9.200  0.2642 -0.6042 -0.1005
  723SOL    HW1 6625   2.764   5.235   9.117  0.6614 -0.4237 -0.1560
  723SOL    HW2 6626   2.767   5.106   9.195 -0.5472 -0.3945 -0.0401
  724SOL     OW 6627   2.861   0.616   1.096 -0.0107  0.2083 -0.1908
  724SOL    HW1 6628   2.902   0.690   1.052  1.0652  0.0779  0.5438
  724SOL    HW2 6629   2.916   0.602   1.174  0.3062 -1.8691 -0.7419
  725SOL     OW 6630   4.430   3.469  11.060  0.9676 -0.3220 -0.2144
  725SOL    HW1 6631   4.522   3.451  11.080  0.5232 -3.2273 -0.3288
  725SOL    HW2 6632   4.405   3.399  11.000 -1.9811 -1.1885  1.8156
  726SOL     OW 6633   5.732   9.838   5.088  0.5798  0.5399  0.8144
  726SOL    HW1 6634   5.807   9.892   5.114  1.3360  0.3371 -0.8369
  726SOL    HW2 6635   5.727   9.848   4.993 -0.2549 -1.0431  0.6589
  727SOL     OW 6636   9.532   4.581   6.028 -0.0867 -0.0291 -0.0027
  727SOL    HW1 6637   9.533   4.486   6.044  1.1917  0.4319  3.7069
  727SOL    HW2 6638   9.449   4.611   6.065  0.3189  0.4478  0.5551
  728SOL     OW 6639   6.200   3.259   3.075  0.4522  0.2130 -0.1444
  728SOL    HW1 6640   6.132   3.211   3.124 -0.3990  0.6649 -0.8440
  728SOL    HW2 6641   6.273   3.267   3.136 -0.5184  0.6373  1.0036
  729SOL     OW 6642   3.672   1.512   5.185 -0.0529  0.0653 -0.1493
  729SOL    HW1 6643   3.693   1.491   5.094  0.6653  1.2425 -0.2934
  729SOL    HW2 6644   3.578   1.527   5.186 -0.1346 -0.4162 -0.5990
  730SOL     OW 6645   3.082   9.945   8.213 -0.3491 -0.4362 -0.7160
  730SOL    HW1 6646   3.050   9.974   8.127  0.4252  1.8741 -0.2939
  730SOL    HW2 6647   3.014   9.973   8.275 -0.6227 -1.5585 -0.4941
  731SOL     OW 6648   8.425   5.604   9.827 -0.1729  0.2439 -0.3940
  731SOL    HW1 6649   8.490   5.551   9.872  0.6060  0.0455 -1.7137
  731SOL    HW2 6650   8.437   5.692   9.863 -0.0465 -0.0336  0.2675
  732SOL     OW 6651  10.117   2.717   3.015 -0.0552  0.3365  0.1143
  732SOL    HW1 6652  10.023   2.736   3.015 -0.2914 -0.6722 -1.2642
  732SOL    HW2 6653  10.149   2.756   3.096 -1.9528 -0.7617  1.4860
  733SOL     OW 6654   9.734   3.300   7.896 -0.2356 -0.1599 -0.0104
  733SOL    HW1 6655   9.665   3.347   7.942 -0.6677 -1.8816  1.2398
  733SOL    HW2 6656   9.793   3.271   7.966 -1.0565 -3.1086 -0.3985
  734SOL     OW 6657  10.718   6.651   7.257 -0.0445  0.6126  0.7486
  734SOL    HW1 6658  10.700   6.744   7.271  0.1335  0.6809  0.5252
  734SOL    HW2 6659  10.659   6.606   7.318 -1.4765  0.7980 -0.4398
  735SOL     OW 6660   9.545   0.438   5.133 -0.1242 -0.7454  0.0428
  735SOL    HW1 6661   9.584   0.493   5.065 -0.4430 -0.7245 -0.1247
  735SOL    HW2 6662   9.525   0.498   5.204 -1.5260 -0.4283 -0.5817
  736SOL     OW 6663   7.134   7.522   8.154  0.3058 -0.3484 -0.0731
  736SOL    HW1 6664   7.178   7.495   8.074  0.4236 -0.0166 -0.1246
  736SOL    HW2 6665   7.131   7.444   8.208 -0.7390 -0.8540 -0.8313
  737SOL     OW 6666   8.140   4.689   0.596  0.2707 -0.5842 -0.1284
  737SOL    HW1 6667   8.150   4.611   0.542 -2.0786 -0.3730 -0.9635
  737SOL    HW2 6668   8.069   4.739   0.555 -1.1808 -0.0721  2.7073
  738SOL     OW 6669   8.573   4.446  10.850 -0.1348  0.2753  0.4387
  738SOL    HW1 6670   8.507   4.486  10.906 -0.6648  1.3012 -0.8870
  738SOL    HW2 6671   8.583   4.506  10.777  1.8379 -0.1560  0.2915
  739SOL     OW 6672   1.325   4.619   3.911  0.4871 -0.3043  0.3112
  739SOL    HW1 6673   1.333   4.661   3.997  1.9895 -1.8203  0.9717
  739SOL    HW2 6674   1.409   4.574   3.899  0.1548 -0.4417 -1.7888
  740SOL     OW 6675   0.487   6.087   4.989  0.2489 -0.0400 -0.4964
  740SOL    HW1 6676   0.445   6.003   5.005  1.5039 -0.9031 -1.5413
  740SOL    HW2 6677   0.576   6.076   5.021 -0.0741  1.5625  1.1412
  741SOL     OW 6678   0.648   4.607   6.762  0.5296  0.1537 -0.5112
  741SOL    HW1 6679   0.714   4.633   6.826  1.2874  1.0746 -1.6315
  741SOL    HW2 6680   0.669   4.515   6.742  1.0097  0.2154 -0.3011
  742SOL     OW 6681   8.772   7.315   8.549 -0.1504 -0.1701 -0.0390
  742SOL    HW1 6682   8.860   7.350   8.539 -0.1606  0.4975  1.7607
  742SOL    HW2 6683   8.714   7.391   8.537 -0.3971 -0.3204  0.1820
  743SOL     OW 6684   3.955   3.051   7.209 -0.0966  0.1529  0.0805
  743SOL    HW1 6685   4.049   3.067   7.221  0.5254 -3.8299  1.7609
  743SOL    HW2 6686   3.916   3.068   7.295 -0.8552  0.9959 -0.4038
  744SOL     OW 6687   1.724   6.590   7.846  0.1865  0.3900  0.1246
  744SOL    HW1 6688   1.700   6.679   7.870  0.3849  0.0067  1.9353
  744SOL    HW2 6689   1.802   6.571   7.898  0.2479 -0.7820 -0.3474
  745SOL     OW 6690   6.980   3.930   4.769 -0.2312 -0.7641  0.0674
  745SOL    HW1 6691   7.024   3.904   4.688 -0.0391 -0.5078  0.0842
  745SOL    HW2 6692   6.920   4.000   4.743 -0.7516 -1.2264  0.0189
  746SOL     OW 6693   5.618   7.156  10.277 -0.8213  0.1514  0.3928
  746SOL    HW1 6694   5.562   7.211  10.331  0.9694  1.7088  0.7599
  746SOL    HW2 6695   5.704   7.160  10.318 -0.5352 -2.8010  0.2939
  747SOL     OW 6696  10.886   7.568   8.524 -0.5662  0.5172 -0.6800
  747SOL    HW1 6697  10.959   7.533   8.472  0.0081  0.3791  0.1864
  747SOL    HW2 6698  10.808   7.531   8.483  0.0030 -1.6578  0.0454
  748SOL     OW 6699   1.487  10.183   3.572 -0.3322  0.0977 -0.1594
  748SOL    HW1 6700   1.391  10.180   3.572 -0.3887  0.8243  1.2259
  748SOL    HW2 6701   1.510  10.177   3.665  0.9889 -0.4820 -0.5154
  749SOL     OW 6702   8.370   9.556   7.048 -0.4083  0.7275 -0.4941
  749SOL    HW1 6703   8.343   9.555   6.956 -0.6513  0.0901 -0.4201
  749SOL    HW2 6704   8.466   9.563   7.044 -0.3188 -0.5488 -0.8281
  750SOL     OW 6705  10.260  10.660   7.369 -0.3605 -0.6671  0.2273
  750SOL    HW1 6706  10.278  10.611   7.449  0.2939 -0.2930  0.3143
  750SOL    HW2 6707  10.314  10.618   7.302 -0.4675 -0.6190  0.1089
  751SOL     OW 6708   8.707  10.309   8.938 -0.4890  0.5383 -0.6192
  751SOL    HW1 6709   8.700  10.340   9.028  0.4324 -1.1160  0.0487
  751SOL    HW2 6710   8.633  10.250   8.926 -0.0672  0.0101 -0.6349
  752SOL     OW 6711   6.761  10.838   7.750 -0.0722 -0.1400 -0.2580
  752SOL    HW1 6712   6.683  10.858   7.699  1.2664  2.4075 -1.4978
  752SOL    HW2 6713   6.785  10.750   7.723 -2.9292 -1.3791  0.8355
  753SOL     OW 6714   1.152   0.449   6.460  0.2859  0.0440 -0.2053
  753SOL    HW1 6715   1.070   0.410   6.431  0.4298  0.5954 -1.4582
  753SOL    HW2 6716   1.127   0.529   6.506  0.0530 -0.7566  1.0786
  754SOL     OW 6717   8.955   0.969   8.046  0.3025 -0.0528 -0.3942
  754SOL    HW1 6718   8.982   1.016   7.967 -0.2701 -1.3555 -1.4247
  754SOL    HW2 6719   8.898   1.030   8.093  1.6174  1.1839 -0.3444
  755SOL     OW 6720   0.491   2.403   8.032  0.8084 -0.1001 -0.4376
  755SOL    HW1 6721   0.473   2.466   7.963  2.4304 -0.8987 -1.6455
  755SOL    HW2 6722   0.537   2.453   8.099 -0.0086  0.4919 -0.3065
  756SOL     OW 6723  10.558   6.205   8.060  0.8251  0.5925  0.0266
  756SOL    HW1 6724  10.528   6.295   8.045 -1.4156  0.0248  0.7471
  756SOL    HW2 6725  10.616   6.211   8.136  0.2174  1.3545  0.4417
  757SOL     OW 6726   3.909   5.261  10.752  0.0321 -0.7251 -0.7782
  757SOL    HW1 6727   3.827   5.290  10.791 -0.0651 -1.4975 -0.3859
  757SOL    HW2 6728   3.887   5.179  10.708  0.8575 -1.6924  0.5160
  758SOL     OW 6729   0.725   7.916   5.032 -0.3768 -0.6951  0.1264
  758SOL    HW1 6730   0.717   8.012   5.037 -1.0250 -0.7801  1.0017
  758SOL    HW2 6731   0.695   7.894   4.944  2.0347  0.0943 -0.9904
  759SOL     OW 6732   7.672   2.647   1.772  0.2536  0.4874  0.0983
  759SOL    HW1 6733   7.725   2.716   1.733  0.6340  0.0110 -0.2365
  759SOL    HW2 6734   7.632   2.603   1.697  0.8633 -0.3319  0.2483
  760SOL     OW 6735   6.619   1.390   0.605  0.2563  0.1172 -0.5991
  760SOL    HW1 6736   6.652   1.328   0.540  1.5888  0.9432 -0.7597
  760SOL    HW2 6737   6.608   1.472   0.556 -1.9634 -0.0671 -0.5068
  761SOL     OW 6738   4.471   6.806   3.291  0.5418 -0.3119 -0.2862
  761SOL    HW1 6739   4.424   6.870   3.344  1.1977 -2.1999  2.8147
  761SOL    HW2 6740   4.509   6.858   3.220 -1.2974  2.1990  0.3899
  762SOL     OW 6741   5.926   5.805  10.219  0.3358 -0.0685 -0.1105
  762SOL    HW1 6742   6.005   5.837  10.176  0.3608  0.7801  0.5282
  762SOL    HW2 6743   5.861   5.873  10.202 -0.3629 -0.8971 -0.8852
  763SOL     OW 6744   8.503  10.725   0.418  0.1333  0.2299  0.0021
  763SOL    HW1 6745   8.410  10.733   0.398  0.0000 -1.0340  0.0854
  763SOL    HW2 6746   8.516  10.783   0.493 -1.2131 -1.7587  1.8732
  764SOL     OW 6747   3.473   6.687   2.152  0.0134 -0.7730  0.5417
  764SOL    HW1 6748   3.407   6.703   2.085 -0.9585 -2.1522  1.1180
  764SOL    HW2 6749   3.505   6.774   2.176 -1.9373 -0.0181  0.5686
  765SOL     OW 6750   2.676   8.979   3.285 -0.3507 -0.4032  0.1454
  765SOL    HW1 6751   2.754   8.991   3.231 -1.3913  3.0464 -0.8328
  765SOL    HW2 6752   2.689   9.037   3.360 -1.5240 -0.5896  0.5165
  766SOL     OW 6753  10.733   1.317   5.075 -0.1908  0.8732  0.0114
  766SOL    HW1 6754  10.646   1.330   5.113 -0.3712 -0.1991 -0.0040
  766SOL    HW2 6755  10.753   1.400   5.032 -0.1507  1.9952  2.0795
  767SOL     OW 6756   9.923   8.624   9.408 -0.0563 -0.5969  0.2931
  767SOL    HW1 6757   9.927   8.543   9.357  1.2242  0.7562 -1.9227
  767SOL    HW2 6758   9.885   8.688   9.348 -0.7123  0.5497  1.8787
  768SOL     OW 6759   7.084  10.442  10.772  0.5643  0.7624  0.1464
  768SOL    HW1 6760   7.055  10.468  10.860  3.0908  1.0571  0.9723
  768SOL    HW2 6761   7.004  10.410  10.730 -1.5335  3.9691  1.2227
  769SOL     OW 6762   7.178   6.841   9.408 -0.0252 -0.1807  0.7434
  769SOL    HW1 6763   7.255   6.897   9.393  0.8255 -1.2368  1.0377
  769SOL    HW2 6764   7.130   6.843   9.325  0.7009 -0.0724  0.3175
  770SOL     OW 6765   0.864   7.911   8.107 -0.7847  0.1661 -0.6727
  770SOL    HW1 6766   0.944   7.869   8.075  0.7379  2.1084  0.3469
  770SOL    HW2 6767   0.830   7.959   8.031  0.4073  1.2580 -0.5622
  771SOL     OW 6768  10.738   0.044   6.295 -0.8311  0.0133 -0.2758
  771SOL    HW1 6769  10.783  -0.038   6.317 -2.6050 -1.3248 -1.4023
  771SOL    HW2 6770  10.777   0.071   6.212 -0.6575 -0.0112 -0.2027
  772SOL     OW 6771   3.318   2.739   8.943 -0.4139 -0.0353  0.1320
  772SOL    HW1 6772   3.310   2.752   8.849  0.9683 -1.5697 -0.2460
  772SOL    HW2 6773   3.261   2.665   8.962  0.8937 -1.0877  0.0946
  773SOL     OW 6774   1.697   8.238   2.539  0.0726  0.3019  0.2576
  773SOL    HW1 6775   1.737   8.172   2.483  2.8214  1.4181  0.7368
  773SOL    HW2 6776   1.732   8.221   2.626 -0.4208  1.4273  0.7081
  774SOL     OW 6777  10.100   3.260   2.671 -0.2695 -0.1457  0.6377
  774SOL    HW1 6778  10.192   3.266   2.644 -0.0879 -1.4736  0.8898
  774SOL    HW2 6779  10.103   3.253   2.766 -0.5348 -1.3938  0.5735
  775SOL     OW 6780   6.992   6.455   3.564 -0.0309 -0.1556 -0.1768
  775SOL    HW1 6781   6.953   6.515   3.500  1.4430  0.5111 -0.4952
  775SOL    HW2 6782   7.051   6.510   3.616 -0.8275 -0.7866  1.4531
  776SOL     OW 6783  10.396   8.372   3.735  0.1014 -0.0221 -0.6360
  776SOL    HW1 6784  10.471   8.351   3.678  1.0793 -1.1893  1.0008
  776SOL    HW2 6785  10.397   8.303   3.802 -1.7296  0.6399  0.1204
  777SOL     OW 6786   4.593  10.702   0.852  0.5170  0.0086 -0.5235
  777SOL    HW1 6787   4.590  10.771   0.919 -0.2504 -0.6953  0.1761
  777SOL    HW2 6788   4.540  10.736   0.780  2.3327  1.3057 -1.3350
  778SOL     OW 6789   3.931   2.975   4.847  0.6015  0.1455  0.0171
  778SOL    HW1 6790   3.859   2.955   4.906 -0.6836 -1.2145 -1.9106
  778SOL    HW2 6791   4.000   2.914   4.872  1.4799  1.9229  2.3417
  779SOL     OW 6792   2.014   2.444  10.684 -0.6157 -0.5386 -0.0118
  779SOL    HW1 6793   1.974   2.482  10.606 -1.4314 -1.7454 -0.1980
  779SOL    HW2 6794   2.070   2.374  10.650  0.5236  0.1604  0.3610
  780SOL     OW 6795  10.722   1.250   9.841 -0.6034  0.3324 -0.6001
  780SOL    HW1 6796  10.782   1.180   9.867  0.1518  0.3998 -2.0518
  780SOL    HW2 6797  10.642   1.204   9.814 -0.7268  0.1584  0.0307
  781SOL     OW 6798   8.162   6.568   8.672  0.7554  0.1539 -0.1175
  781SOL    HW1 6799   8.121   6.642   8.628  2.1300  1.4827  0.6895
  781SOL    HW2 6800   8.245   6.556   8.627 -0.5879 -2.8440 -2.0902
  782SOL     OW 6801   7.996   2.387   3.109  0.1748  0.5037  0.2580
  782SOL    HW1 6802   7.922   2.358   3.163 -0.6719 -1.7306 -1.9195
  782SOL    HW2 6803   7.965   2.468   3.068 -2.8159 -2.1137 -3.4195
  783SOL     OW 6804   1.176  10.332  10.524 -0.1517 -0.1416 -0.4288
  783SOL    HW1 6805   1.086  10.308  10.501  0.0392 -1.1784 -0.1323
  783SOL    HW2 6806   1.226  10.311  10.445  0.1043 -1.3053  0.0213
  784SOL     OW 6807   7.683   1.016   5.038 -0.5421  0.2121 -0.1708
  784SOL    HW1 6808   7.719   1.075   4.972  0.7906  0.2533  0.5519
  784SOL    HW2 6809   7.657   1.074   5.110  0.5198 -0.0248  0.4300
  785SOL     OW 6810   1.459   4.451   1.033 -0.2270  0.5241 -0.0167
  785SOL    HW1 6811   1.435   4.359   1.035  0.9675  0.1761 -0.7108
  785SOL    HW2 6812   1.529   4.459   1.099  0.2954  0.7325 -0.5864
  786SOL     OW 6813   0.386   8.080  10.367 -0.2418 -0.0921  1.1010
  786SOL    HW1 6814   0.323   8.084  10.295 -0.3924 -0.3715  1.2171
  786SOL    HW2 6815   0.452   8.146  10.345  1.1520 -1.9408 -0.6426
  787SOL     OW 6816   2.611   5.310   3.370 -0.4882  0.2436  0.0243
  787SOL    HW1 6817   2.698   5.277   3.392 -0.1797  0.8664 -0.2502
  787SOL    HW2 6818   2.602   5.390   3.422 -1.2923 -0.3408  0.8007
  788SOL     OW 6819  10.914  10.198   5.949  0.2343 -1.0948 -0.3542
  788SOL    HW1 6820  10.840  10.153   5.908 -0.5487  1.0364 -1.4275
  788SOL    HW2 6821  10.968  10.227   5.876  0.4466  0.0925  0.2454
  789SOL     OW 6822   9.773  10.119   1.201 -0.6144  0.3384  0.3360
  789SOL    HW1 6823   9.823  10.126   1.282  0.8371  0.1325 -0.5032
  789SOL    HW2 6824   9.765  10.209   1.170 -0.8164  0.3783  0.5048
  790SOL     OW 6825   7.707   0.108   9.236  0.4799 -0.3609 -0.0938
  790SOL    HW1 6826   7.726   0.124   9.143 -1.3653  0.5899 -0.3507
  790SOL    HW2 6827   7.772   0.160   9.283  0.8848 -0.1602 -0.8592
  791SOL     OW 6828   7.129   2.698   8.679  0.4563  0.3214  0.4709
  791SOL    HW1 6829   7.075   2.707   8.601 -0.3744 -1.1647  0.8373
  791SOL    HW2 6830   7.217   2.683   8.647  0.0158 -0.9003 -0.2006
  792SOL     OW 6831   0.442   4.351   6.847 -0.2821 -0.2053 -0.2675
  792SOL    HW1 6832   0.413   4.261   6.859 -0.3971 -0.1022  0.2687
  792SOL    HW2 6833   0.528   4.344   6.806  0.7373 -0.6474  1.8001
  793SOL     OW 6834   6.162   5.064   0.996 -0.1479 -0.5987  0.8093
  793SOL    HW1 6835   6.082   5.024   0.960  0.9177 -1.2131 -1.0408
  793SOL    HW2 6836   6.191   5.003   1.063 -1.7108  0.1093  2.1945
  794SOL     OW 6837   1.304   2.632   1.416 -0.0818 -0.1953 -0.2766
  794SOL    HW1 6838   1.228   2.584   1.447 -1.2477  0.6192 -1.7130
  794SOL    HW2 6839   1.267   2.702   1.362  1.6378  1.0738  0.1081
  795SOL     OW 6840   5.124   6.523   6.810 -0.0756 -0.1102  0.5642
  795SOL    HW1 6841   5.202   6.548   6.762 -1.1012  1.3444 -0.4030
  795SOL    HW2 6842   5.092   6.445   6.765 -0.8014  1.0069 -0.9345
  796SOL     OW 6843   3.574   5.885  10.924  0.4595  0.0670 -0.5652
  796SOL    HW1 6844   3.613   5.811  10.971  0.4185  0.1335 -0.4257
  796SOL    HW2 6845   3.485   5.891  10.960  0.4898  0.2349 -0.5192
  797SOL     OW 6846   6.890   2.539   9.323 -0.4294  0.2373 -0.4515
  797SOL    HW1 6847   6.850   2.602   9.263 -1.8909 -0.8466 -0.6530
  797SOL    HW2 6848   6.826   2.469   9.331  1.7179 -1.9757 -1.3641
  798SOL     OW 6849   9.537   2.374  10.707 -0.4399 -0.2687 -0.0116
  798SOL    HW1 6850   9.579   2.459  10.697 -1.2085 -0.0532 -2.1344
  798SOL    HW2 6851   9.605   2.317  10.742  0.4728  0.9189  0.2143
  799SOL     OW 6852   2.672   8.808  10.742 -0.5612  0.5130  0.3296
  799SOL    HW1 6853   2.658   8.897  10.774  0.2360  0.3598  1.1647
  799SOL    HW2 6854   2.601   8.757  10.780 -0.8396  0.7313  0.1048
  800SOL     OW 6855   1.846  10.318   3.407 -0.1452  0.2652 -0.2462
  800SOL    HW1 6856   1.755  10.289   3.398  0.2658 -1.4553  0.6427
  800SOL    HW2 6857   1.889  10.287   3.327 -0.2810  0.8663 -0.5556
  801SOL     OW 6858   6.416   6.287   6.555 -0.3724 -0.2364  0.0751
  801SOL    HW1 6859   6.461   6.365   6.523 -0.3950 -0.7862 -1.3523
  801SOL    HW2 6860   6.377   6.314   6.638 -1.0979  1.5108 -0.7981
  802SOL     OW 6861   7.683   3.420   3.816  0.5208  0.4037  0.4367
  802SOL    HW1 6862   7.668   3.330   3.845  0.0909  0.0750 -0.7571
  802SOL    HW2 6863   7.612   3.438   3.755 -0.2293  2.0820  1.7503
  803SOL     OW 6864   6.231   2.586   8.093  0.8889 -0.9089 -0.1606
  803SOL    HW1 6865   6.231   2.550   8.182 -1.3698 -1.1901 -0.1995
  803SOL    HW2 6866   6.155   2.545   8.051  0.3855  1.1312 -1.3991
  804SOL     OW 6867   9.934  10.065   3.497 -0.0904  0.0684 -0.5384
  804SOL    HW1 6868   9.970  10.149   3.524  0.1055 -0.1450 -0.1375
  804SOL    HW2 6869   9.843  10.066   3.527 -0.2213  0.3252 -0.9423
  805SOL     OW 6870   3.533   9.862   8.921 -0.4983  0.0375 -0.3316
  805SOL    HW1 6871   3.620   9.845   8.958 -1.0299 -0.2200  0.8545
  805SOL    HW2 6872   3.549   9.928   8.853  0.8809 -1.4475 -1.5300
  806SOL     OW 6873   1.267   7.542   3.984 -0.1685 -0.6002 -0.0258
  806SOL    HW1 6874   1.205   7.613   3.965  1.4288  0.5334 -1.2279
  806SOL    HW2 6875   1.319   7.575   4.057 -0.1208 -1.0069  0.1260
  807SOL     OW 6876   0.268   9.502   4.531  0.2351  0.5386  0.2095
  807SOL    HW1 6877   0.246   9.539   4.445  0.7506  1.1265  0.3189
  807SOL    HW2 6878   0.265   9.407   4.518  2.2367  0.5746 -1.0219
  808SOL     OW 6879  10.648   1.474  10.582  0.6488 -0.1002  0.6240
  808SOL    HW1 6880  10.654   1.482  10.486  1.9670  2.6801  0.8587
  808SOL    HW2 6881  10.679   1.386  10.600  0.9463 -0.4810 -1.4608
  809SOL     OW 6882   5.002   3.414   4.063  0.6905 -0.1850  0.5005
  809SOL    HW1 6883   5.021   3.320   4.064  1.7082 -0.0099 -0.0357
  809SOL    HW2 6884   4.996   3.436   3.970 -0.9482  0.0343  0.6347
  810SOL     OW 6885   4.783   7.338   9.869  0.2701 -0.3769 -0.0768
  810SOL    HW1 6886   4.726   7.412   9.893 -0.0416  0.0209 -1.8618
  810SOL    HW2 6887   4.740   7.300   9.792  2.4561  0.0095 -1.5701
  811SOL     OW 6888   5.611   4.062   2.634  0.1336 -0.8359 -0.0949
  811SOL    HW1 6889   5.536   4.085   2.690  0.4695 -0.7417  0.3210
  811SOL    HW2 6890   5.603   4.119   2.558 -0.8817 -1.6455 -0.6228
  812SOL     OW 6891  10.308   0.329   7.911 -0.7012  0.9834 -0.5469
  812SOL    HW1 6892  10.346   0.411   7.943  0.7803  0.0587  0.1704
  812SOL    HW2 6893  10.226   0.321   7.960 -0.4690  1.6324 -0.0195
  813SOL     OW 6894   4.168   0.072   8.054 -0.5292 -0.0187 -0.0241
  813SOL    HW1 6895   4.148   0.146   8.112  2.7917 -0.6837  2.2240
  813SOL    HW2 6896   4.195   0.001   8.112 -2.0203 -2.5786 -2.1852
  814SOL     OW 6897   6.327   3.119   3.481 -0.1001 -0.1611 -0.2716
  814SOL    HW1 6898   6.235   3.118   3.507 -0.2232  0.5624 -0.6614
  814SOL    HW2 6899   6.332   3.186   3.412  0.8722  0.4252  0.3479
  815SOL     OW 6900   9.469   0.049   8.293 -0.1442 -0.2570  0.7752
  815SOL    HW1 6901   9.392   0.105   8.280 -2.1284 -2.8272  0.7364
  815SOL    HW2 6902   9.501   0.072   8.380 -1.8868 -0.1438  1.4152
  816SOL     OW 6903   5.521  10.266   0.202  0.1221  0.1491  0.0688
  816SOL    HW1 6904   5.498  10.330   0.269  0.5434 -0.1198  0.4847
  816SOL    HW2 6905   5.532  10.317   0.122 -2.8584  0.1790 -0.4161
  817SOL     OW 6906   2.152   8.782   0.244  0.8210 -0.0554 -0.2058
  817SOL    HW1 6907   2.171   8.745   0.330  0.4308 -0.6749 -0.3783
  817SOL    HW2 6908   2.108   8.865   0.263  1.1066  0.0075  0.1890
  818SOL     OW 6909   6.364   8.262   1.852  0.0909  0.0297 -0.0723
  818SOL    HW1 6910   6.421   8.292   1.922  1.1977 -2.6214  0.3090
  818SOL    HW2 6911   6.275   8.277   1.884  0.5259  2.2131  0.2595
  819SOL     OW 6912   6.462   7.345   8.739  0.0340 -0.2974  0.5835
  819SOL    HW1 6913   6.480   7.439   8.745 -0.3341 -0.3244  2.8929
  819SOL    HW2 6914   6.531   7.311   8.681  1.0907  1.1699  0.9283
  820SOL     OW 6915   2.202   2.761   6.530  0.3484 -0.5405 -0.5832
  820SOL    HW1 6916   2.265   2.711   6.581  0.5766 -0.7746 -1.1006
  820SOL    HW2 6917   2.201   2.720   6.444 -0.9450 -0.9214 -0.4190
  821SOL     OW 6918   8.173   1.414   8.083  0.5126  0.4946 -0.1200
  821SOL    HW1 6919   8.168   1.464   8.165 -1.9017 -0.2690  0.2927
  821SOL    HW2 6920   8.174   1.322   8.111 -0.6403  0.2144 -0.8915
  822SOL     OW 6921   3.842   5.256   2.647 -0.3054  0.3210  0.1545
  822SOL    HW1 6922   3.929   5.286   2.675 -0.8351  0.5939  1.5731
  822SOL    HW2 6923   3.805   5.330   2.599 -0.0478  0.4748  0.1922
  823SOL     OW 6924   5.677   9.927   7.416  0.0577  0.9133 -0.1398
  823SOL    HW1 6925   5.656   9.871   7.341  2.1263 -0.3474  0.1302
  823SOL    HW2 6926   5.735   9.994   7.380  3.1725 -1.1375  0.5697
  824SOL     OW 6927  10.042   0.761   6.847 -0.5130  0.3950  0.4298
  824SOL    HW1 6928  10.025   0.682   6.899 -3.1584  1.3281  1.1727
  824SOL    HW2 6929   9.995   0.746   6.765 -0.3530  0.8560  0.2534
  825SOL     OW 6930   9.302   0.707   8.233  0.0821 -0.1790  0.0029
  825SOL    HW1 6931   9.269   0.781   8.285  0.0265  0.5169 -0.9947
  825SOL    HW2 6932   9.227   0.681   8.180  0.0346 -1.1223  0.5084
  826SOL     OW 6933   6.217   2.903   4.511  0.3760  0.2257  0.3719
  826SOL    HW1 6934   6.260   2.977   4.552  0.4528  0.7259 -0.5838
  826SOL    HW2 6935   6.172   2.858   4.582  3.2748 -0.9344  1.6550
  827SOL     OW 6936   6.347   0.368   0.082 -0.2272  0.2456 -0.4168
  827SOL    HW1 6937   6.324   0.460   0.068  0.6156  0.4053 -0.8042
  827SOL    HW2 6938   6.264   0.326   0.102 -0.7375  0.9623 -0.9448
  828SOL     OW 6939   6.782   4.308   5.005  0.0148  0.1322  0.7594
  828SOL    HW1 6940   6.707   4.273   5.052 -0.6112  0.9603  0.4044
  828SOL    HW2 6941   6.778   4.403   5.019  0.4215  0.2903 -0.0725
  829SOL     OW 6942   2.552   4.561   6.910  0.1837 -0.5714  0.4489
  829SOL    HW1 6943   2.471   4.533   6.952  0.4318  1.0405  2.1138
  829SOL    HW2 6944   2.621   4.524   6.964  0.5102  0.9737  1.1305
  830SOL     OW 6945   3.351   7.304   3.382  0.1255  0.1638 -0.1212
  830SOL    HW1 6946   3.288   7.232   3.374 -0.8270  0.5650  2.7594
  830SOL    HW2 6947   3.431   7.263   3.414 -0.5942  0.3455  2.0987
  831SOL     OW 6948   0.444   1.423   6.543 -0.6964 -0.5884 -0.1555
  831SOL    HW1 6949   0.384   1.427   6.468 -2.1446 -1.7706  0.8697
  831SOL    HW2 6950   0.390   1.447   6.618  0.0737 -1.8103  0.8239
  832SOL     OW 6951  10.236   4.323   4.052 -0.0598 -0.1277 -0.2439
  832SOL    HW1 6952  10.329   4.302   4.041 -0.7019 -1.9164 -3.2734
  832SOL    HW2 6953  10.220   4.396   3.993 -0.8300 -0.7193 -0.7870
  833SOL     OW 6954   9.202   2.482  10.489 -0.1094 -0.1622 -0.9059
  833SOL    HW1 6955   9.203   2.398  10.444 -2.5369 -0.3651 -0.7475
  833SOL    HW2 6956   9.134   2.533  10.443 -0.5169  0.7330  0.5975
  834SOL     OW 6957   2.614  10.801   3.724 -0.0019 -0.5728  0.1809
  834SOL    HW1 6958   2.519  10.810   3.711 -0.0074 -2.0089 -1.0145
  834SOL    HW2 6959   2.629  10.835   3.812 -1.6259 -0.2708  0.3717
  835SOL     OW 6960  10.013   4.352   2.350  0.0289 -0.3398  0.1777
  835SOL    HW1 6961   9.995   4.439   2.314 -0.5485 -0.4074  0.3013
  835SOL    HW2 6962   9.972   4.352   2.437  0.4841 -0.5530  0.3980
  836SOL     OW 6963   7.328   1.703   5.250  0.0836  0.4391 -0.1503
  836SOL    HW1 6964   7.248   1.751   5.231  1.8182  2.7505 -2.3853
  836SOL    HW2 6965   7.339   1.643   5.176  0.5615  0.4010 -0.0561
  837SOL     OW 6966   6.001   1.473   1.924 -0.4022  0.1998 -0.7028
  837SOL    HW1 6967   6.046   1.554   1.899 -1.1851  2.3102  3.7070
  837SOL    HW2 6968   5.911   1.485   1.893 -1.2262  2.4945  2.1107
  838SOL     OW 6969   8.210   8.367   9.539 -0.8441 -0.6011  0.6264
  838SOL    HW1 6970   8.295   8.334   9.512 -0.4966 -0.2444  1.2478
  838SOL    HW2 6971   8.154   8.289   9.544 -1.2744 -0.5614 -2.2097
  839SOL     OW 6972   5.722   0.843   2.390 -0.5047  0.2865  0.5545
  839SOL    HW1 6973   5.678   0.763   2.362 -0.8303 -0.3979  2.8234
  839SOL    HW2 6974   5.762   0.821   2.474  0.8478  2.0443  0.4453
  840SOL     OW 6975   2.115   8.585  10.300 -0.0091 -0.3016 -0.3733
  840SOL    HW1 6976   2.145   8.517  10.240 -1.5270 -0.1618 -1.3672
  840SOL    HW2 6977   2.039   8.624  10.256  0.2950  1.4622  0.5525
  841SOL     OW 6978   8.104   8.428   9.255  0.0557  0.0160  0.1664
  841SOL    HW1 6979   8.127   8.349   9.207  1.6088  0.5762 -0.0644
  841SOL    HW2 6980   8.093   8.398   9.346  1.4333 -0.3424  0.2277
  842SOL     OW 6981   3.868   5.904   6.905  0.4323 -0.3526 -0.2940
  842SOL    HW1 6982   3.956   5.939   6.892  0.1618  0.4904  0.1268
  842SOL    HW2 6983   3.811   5.960   6.852 -0.0951  0.3460  0.9534
  843SOL     OW 6984   5.028   0.706   5.716  0.1326  0.4101  0.1358
  843SOL    HW1 6985   4.944   0.668   5.742  0.8485 -0.6441  0.9736
  843SOL    HW2 6986   5.036   0.786   5.768  0.2444 -0.1932  1.0741
  844SOL     OW 6987   6.304   3.445   5.878  0.2516 -0.1522 -0.1975
  844SOL    HW1 6988   6.221   3.398   5.871  0.9302 -1.4099 -0.2039
  844SOL    HW2 6989   6.308   3.498   5.799 -1.5812  1.7417  0.8926
  845SOL     OW 6990   6.223   0.992   9.801 -0.4578 -0.2597  0.2008
  845SOL    HW1 6991   6.253   1.070   9.848 -0.2015 -0.6218  0.6530
  845SOL    HW2 6992   6.262   0.919   9.849  0.5894 -0.6221 -1.1288
  846SOL     OW 6993   9.136   7.896   1.387  0.8226  0.3757  0.1430
  846SOL    HW1 6994   9.050   7.933   1.407 -0.0085 -1.7245  0.7067
  846SOL    HW2 6995   9.118   7.810   1.351  2.7014  0.0630 -0.1632
  847SOL     OW 6996   0.793   0.792   5.488 -0.1149  0.1607 -0.3430
  847SOL    HW1 6997   0.821   0.703   5.467 -0.7169  0.4759 -2.8169
  847SOL    HW2 6998   0.843   0.847   5.428 -1.4399  1.2614 -0.4739
  848SOL     OW 6999   1.117   0.668  10.617 -0.0418 -0.3168  0.0535
  848SOL    HW1 7000   1.159   0.747  10.651  1.9209 -1.4296  0.3612
  848SOL    HW2 7001   1.117   0.681  10.522  1.6527 -0.5518 -0.0064
  849SOL     OW 7002   9.145   8.351   5.439 -0.2019 -0.3606 -0.6230
  849SOL    HW1 7003   9.186   8.265   5.443  0.1355 -0.1754 -0.0103
  849SOL    HW2 7004   9.053   8.332   5.419  0.3270 -0.7224 -3.0261
  850SOL     OW 7005   1.157   5.151   5.709  0.2854  0.7784 -0.1974
  850SOL    HW1 7006   1.163   5.200   5.627 -0.1137  0.9669 -0.1147
  850SOL    HW2 7007   1.232   5.091   5.706  1.2893  1.9777  0.0920
  851SOL     OW 7008   6.855   9.354   6.659  0.1056 -0.0518 -0.3789
  851SOL    HW1 7009   6.938   9.383   6.697  0.7822 -2.7056  0.3518
  851SOL    HW2 7010   6.835   9.419   6.592  1.6513  1.8261  0.8714
  852SOL     OW 7011   7.384   9.026   2.071 -0.3740 -0.4300 -0.1531
  852SOL    HW1 7012   7.323   8.961   2.105  0.9452 -1.6065  0.0369
  852SOL    HW2 7013   7.393   9.004   1.978 -1.7709  1.0239 -0.6973
  853SOL     OW 7014   0.041   1.169   6.628 -0.0847 -0.4360  0.3197
  853SOL    HW1 7015  -0.026   1.120   6.676  0.2274  0.3205  1.5888
  853SOL    HW2 7016   0.124   1.126   6.652 -0.0911 -1.4715 -1.3702
  854SOL     OW 7017   2.770   5.683   3.968  0.5360  0.2392 -0.1498
  854SOL    HW1 7018   2.757   5.766   3.923 -0.0586 -0.6344 -1.6740
  854SOL    HW2 7019   2.841   5.700   4.030 -2.0914  2.9424  2.4856
  855SOL     OW 7020   1.337   6.883   5.890 -0.4936  0.3909  0.2938
  855SOL    HW1 7021   1.306   6.828   5.962  0.5222  0.1346  0.5407
  855SOL    HW2 7022   1.264   6.882   5.827 -1.6625  1.1649  1.5757
  856SOL     OW 7023   4.789  11.000  10.952 -0.0457  0.1035 -0.4571
  856SOL    HW1 7024   4.732  11.018  11.028 -2.5596 -0.4372 -2.0916
  856SOL    HW2 7025   4.876  11.029  10.981 -1.0089  0.5879  2.3621
  857SOL     OW 7026   7.718   8.735   8.834 -0.2228 -0.4265 -0.6438
  857SOL    HW1 7027   7.632   8.735   8.792 -0.6429  0.1850  0.1815
  857SOL    HW2 7028   7.706   8.789   8.913  0.3209 -2.1921  0.6954
  858SOL     OW 7029   4.604   9.065   2.106 -0.0347 -0.4457  0.1936
  858SOL    HW1 7030   4.557   9.031   2.183  2.2700 -0.4895  1.6633
  858SOL    HW2 7031   4.683   9.012   2.101  0.4309  0.3505 -1.5465
  859SOL     OW 7032   6.979   9.106   9.972  0.2654  0.1152  0.1505
  859SOL    HW1 7033   6.936   9.165  10.033  0.0234 -0.6805  0.7651
  859SOL    HW2 7034   6.912   9.042   9.948  0.2233  0.6761 -1.3191
  860SOL     OW 7035   5.024   8.128   8.172 -0.6649  0.2319  0.3534
  860SOL    HW1 7036   5.020   8.079   8.091  0.2690  0.2463  0.2862
  860SOL    HW2 7037   5.095   8.088   8.222  0.2922  1.6400  0.1916
  861SOL     OW 7038   2.465   2.239   3.797  0.0699  0.0233 -0.1967
  861SOL    HW1 7039   2.511   2.321   3.778 -1.9957  1.1783 -0.6086
  861SOL    HW2 7040   2.399   2.264   3.861  0.1618 -1.6162  0.5850
  862SOL     OW 7041   3.208   8.587   5.230  0.3815 -0.2352 -0.5412
  862SOL    HW1 7042   3.201   8.524   5.159  1.0364 -0.9598  0.0187
  862SOL    HW2 7043   3.263   8.657   5.196 -0.6068  0.2222 -1.2743
  863SOL     OW 7044   8.022   4.180   0.404 -0.1547 -0.0999 -0.7099
  863SOL    HW1 7045   8.048   4.123   0.332  0.5604 -0.0458 -0.5042
  863SOL    HW2 7046   8.036   4.269   0.371  2.0960 -0.0754  0.1385
  864SOL     OW 7047   2.240   3.461   6.174 -0.4121 -0.0957  0.6701
  864SOL    HW1 7048   2.329   3.445   6.141 -0.0275  0.5727  1.3513
  864SOL    HW2 7049   2.248   3.454   6.269 -1.6676 -2.8353  0.6599
  865SOL     OW 7050   7.870   5.066  10.308 -0.2801 -0.1026  0.0043
  865SOL    HW1 7051   7.907   4.983  10.338 -0.0448  0.2979  0.8412
  865SOL    HW2 7052   7.783   5.042  10.274 -0.8423 -0.5038  1.6236
  866SOL     OW 7053   9.670   4.752   6.203 -0.3430  0.3115  0.1625
  866SOL    HW1 7054   9.610   4.713   6.140  1.0162 -2.0524  0.2205
  866SOL    HW2 7055   9.647   4.711   6.287  1.5191 -0.9378  0.1186
  867SOL     OW 7056   8.039   5.480   7.961 -0.4447 -0.0655 -0.3972
  867SOL    HW1 7057   8.111   5.499   8.021 -2.0836  0.6643  1.4686
  867SOL    HW2 7058   7.961   5.480   8.017 -2.0045 -0.0211 -2.4445
  868SOL     OW 7059   5.469   0.220   5.442  0.2753  0.0739  0.1762
  868SOL    HW1 7060   5.390   0.171   5.461  0.0040 -0.0064 -1.0482
  868SOL    HW2 7061   5.454   0.307   5.480  0.6153 -0.6464  2.0394
  869SOL     OW 7062   2.028   1.488  10.600  0.0267  0.5415 -0.6269
  869SOL    HW1 7063   1.952   1.442  10.635  0.4843 -1.6488 -2.2802
  869SOL    HW2 7064   2.037   1.455  10.510  3.0043  0.5685 -0.4501
  870SOL     OW 7065   9.801  10.635   5.721 -0.0648  0.4219 -0.0214
  870SOL    HW1 7066   9.707  10.638   5.739 -0.1898 -5.2537  1.9392
  870SOL    HW2 7067   9.842  10.660   5.804  0.1856  1.3864 -0.4216
  871SOL     OW 7068   0.796   0.184   0.456 -0.0820 -0.3011  0.0521
  871SOL    HW1 7069   0.891   0.182   0.466  0.0091  0.0018 -0.6643
  871SOL    HW2 7070   0.774   0.099   0.417 -0.3036 -1.0187  1.6655
  872SOL     OW 7071   5.191   7.956   4.474  0.1061  0.0102  0.6020
  872SOL    HW1 7072   5.241   8.037   4.469  1.1250 -0.5524  1.3318
  872SOL    HW2 7073   5.249   7.890   4.437  0.2356 -0.7837  2.1381
  873SOL     OW 7074   9.661   2.251   9.362  0.1260 -0.4789 -0.2776
  873SOL    HW1 7075   9.629   2.219   9.278 -1.3549 -0.5214  0.2776
  873SOL    HW2 7076   9.689   2.173   9.409 -0.1627 -0.5871 -0.2825
  874SOL     OW 7077   5.030   2.173   3.164  0.3812  0.1029 -0.7464
  874SOL    HW1 7078   5.012   2.186   3.258  0.3776 -1.6093 -0.4711
  874SOL    HW2 7079   5.116   2.212   3.150  0.5542  0.0435  0.0739
  875SOL     OW 7080   3.226   6.619   3.058  0.3738  0.0186  0.0530
  875SOL    HW1 7081   3.296   6.685   3.057  2.3358 -1.7881  2.6512
  875SOL    HW2 7082   3.262   6.545   3.009 -0.0525 -0.6216  0.6895
  876SOL     OW 7083   9.675   1.073   8.805 -0.3205 -0.2011 -0.6491
  876SOL    HW1 7084   9.716   0.986   8.804 -2.1569 -1.1676  1.2722
  876SOL    HW2 7085   9.666   1.095   8.712  1.8365 -1.2037 -1.1754
  877SOL     OW 7086   4.172   4.434   1.986  0.3180 -0.0307  0.3562
  877SOL    HW1 7087   4.128   4.366   2.036  0.2467 -0.2328  0.0193
  877SOL    HW2 7088   4.116   4.511   1.997 -0.6295 -0.5128 -0.8020
  878SOL     OW 7089  10.310   3.133   1.451 -0.1305 -0.2630 -0.1727
  878SOL    HW1 7090  10.250   3.149   1.378  2.2594  0.7671 -2.0397
  878SOL    HW2 7091  10.355   3.052   1.429 -1.9796 -2.1165  2.1628
  879SOL     OW 7092   0.991   6.983   8.924  0.5587  0.1396 -0.3537
  879SOL    HW1 7093   0.966   6.955   8.835  0.5705 -1.3029  0.0772
  879SOL    HW2 7094   1.008   6.901   8.971  0.5789  0.8912  0.9815
  880SOL     OW 7095   1.124   5.943   2.828 -0.3685  0.2826 -0.1233
  880SOL    HW1 7096   1.075   5.938   2.910 -0.8601 -0.1619 -0.4374
  880SOL    HW2 7097   1.064   5.910   2.762 -0.3324  1.5751 -0.8371
  881SOL     OW 7098   4.341   2.010  10.271  0.0407 -0.3257 -0.2304
  881SOL    HW1 7099   4.296   1.943  10.323 -1.3853  1.5044  1.0597
  881SOL    HW2 7100   4.351   2.084  10.332  3.3553 -0.0183 -1.0038
  882SOL     OW 7101   3.688   1.307   0.435 -0.2507  0.4222 -0.1869
  882SOL    HW1 7102   3.660   1.325   0.345 -1.2662 -0.0013  0.0358
  882SOL    HW2 7103   3.608   1.310   0.486 -0.1238 -2.1013  0.2783
  883SOL     OW 7104   7.508   1.675   6.893 -0.2551 -0.8131 -0.3347
  883SOL    HW1 7105   7.498   1.769   6.909 -1.0069 -0.9154 -0.2002
  883SOL    HW2 7106   7.595   1.667   6.854 -0.1807 -0.0622 -0.3397
  884SOL     OW 7107   1.346   3.521   6.023 -0.2594  0.1592 -0.2737
  884SOL    HW1 7108   1.299   3.463   5.963  0.9680  0.1895 -1.2933
  884SOL    HW2 7109   1.332   3.609   5.988 -1.2303  0.4038  0.6703
  885SOL     OW 7110   8.018  10.639   2.900 -0.0765  0.4502 -0.3152
  885SOL    HW1 7111   7.932  10.680   2.908 -1.3257 -1.4569 -2.5764
  885SOL    HW2 7112   8.043  10.616   2.989 -2.9741 -0.8719  0.2781
  886SOL     OW 7113   1.175   2.663   5.526  0.0421  0.4501 -0.5335
  886SOL    HW1 7114   1.120   2.651   5.603 -0.5066  0.8295 -0.8562
  886SOL    HW2 7115   1.136   2.605   5.460 -0.4256  1.2561 -0.9856
  887SOL     OW 7116  10.083   2.678   9.738  0.2517 -0.5339 -0.0483
  887SOL    HW1 7117  10.053   2.589   9.718  1.5018 -1.3315  1.4679
  887SOL    HW2 7118  10.006   2.722   9.775 -0.1556 -1.2243 -0.0637
  888SOL     OW 7119   2.511   7.946   8.463  0.2803 -0.2603 -0.7085
  888SOL    HW1 7120   2.530   8.039   8.472 -2.0758  0.3312 -1.1096
  888SOL    HW2 7121   2.578   7.913   8.403  1.7801  0.9094  0.2619
  889SOL     OW 7122   1.080   5.627   6.301  0.4176  0.2131 -0.0508
  889SOL    HW1 7123   0.993   5.662   6.320  0.5135  0.2197  0.3970
  889SOL    HW2 7124   1.097   5.566   6.374  0.2737 -0.7244 -0.7814
  890SOL     OW 7125   5.637   4.000   5.206 -0.0925  0.1265  0.0826
  890SOL    HW1 7126   5.678   3.990   5.293 -0.7483 -1.6926  0.2220
  890SOL    HW2 7127   5.601   4.088   5.207 -0.2135  0.0946  1.7299
  891SOL     OW 7128   9.450   1.583   4.390 -0.5398 -0.7172 -1.0836
  891SOL    HW1 7129   9.448   1.675   4.416  1.1434 -1.4422  2.2448
  891SOL    HW2 7130   9.543   1.562   4.381 -0.8183 -2.3084 -0.6119
  892SOL     OW 7131   0.956   3.255   9.346  0.3049 -0.4137  0.1236
  892SOL    HW1 7132   0.939   3.324   9.410  0.1234 -0.5016  0.1718
  892SOL    HW2 7133   1.004   3.188   9.396 -1.0666 -1.1219  0.5478
  893SOL     OW 7134   6.253   6.484   3.070  0.2840 -0.3745  0.3750
  893SOL    HW1 7135   6.269   6.390   3.063 -1.7704 -0.7077 -0.4705
  893SOL    HW2 7136   6.160   6.491   3.090  0.2709  1.5105 -0.1646
  894SOL     OW 7137   3.415  10.040   4.921  0.4624  0.0166 -0.5058
  894SOL    HW1 7138   3.326  10.065   4.943  0.7045  0.4878 -0.0630
  894SOL    HW2 7139   3.461  10.122   4.906  1.2316 -0.1366  0.8507
  895SOL     OW 7140  10.044   0.836  10.109 -0.5122  0.9405  0.4449
  895SOL    HW1 7141  10.121   0.782  10.091 -1.6526 -0.6623  0.1007
  895SOL    HW2 7142  10.079   0.916  10.148  1.1822 -0.7175  2.6106
  896SOL     OW 7143   6.527  10.878   8.957 -0.1389 -0.5089  0.4216
  896SOL    HW1 7144   6.559  10.964   8.984  1.2651 -0.0609 -2.2919
  896SOL    HW2 7145   6.489  10.840   9.036  0.4547  2.0248  2.0284
  897SOL     OW 7146   9.760   4.312   5.758  0.1656 -0.1140  0.1738
  897SOL    HW1 7147   9.746   4.407   5.753 -2.1954 -0.4261 -0.1538
  897SOL    HW2 7148   9.816   4.300   5.834  0.7866  1.5605  0.0271
  898SOL     OW 7149   0.432   0.519   7.668  0.7942 -0.1605 -0.2223
  898SOL    HW1 7150   0.408   0.458   7.737 -2.0198  0.9414 -0.1033
  898SOL    HW2 7151   0.502   0.573   7.705 -1.7142  1.4750  2.4893
  899SOL     OW 7152  10.221   0.268   9.844  0.1590  0.8570  0.2861
  899SOL    HW1 7153  10.140   0.238   9.885  0.8615  0.3962  1.3574
  899SOL    HW2 7154  10.206   0.361   9.826 -0.8495  0.6239 -0.1537
  900SOL     OW 7155   1.326   4.991   6.466  0.0927  0.8651 -0.1488
  900SOL    HW1 7156   1.361   5.079   6.448  1.3064  0.1310 -1.6071
  900SOL    HW2 7157   1.388   4.932   6.424 -1.3700 -0.6507 -0.2519
  901SOL     OW 7158   3.265   6.897   9.143 -0.1668  0.0935 -0.1219
  901SOL    HW1 7159   3.342   6.854   9.181 -0.6768 -0.7841 -0.0585
  901SOL    HW2 7160   3.231   6.952   9.214  1.0301  1.3659 -0.4915
  902SOL     OW 7161   4.484   7.133   3.006  0.0865  0.4401  0.5996
  902SOL    HW1 7162   4.566   7.182   3.007  1.1357 -1.2299 -0.1565
  902SOL    HW2 7163   4.474   7.105   2.915 -1.9454  1.5758  0.4217
  903SOL     OW 7164   9.960   7.844   2.390 -0.4064  0.0984 -0.0518
  903SOL    HW1 7165   9.990   7.924   2.345  0.7537 -1.1739 -1.6620
  903SOL    HW2 7166   9.865   7.846   2.383 -0.2979  0.4565 -1.7004
  904SOL     OW 7167   3.417   5.223   2.767 -0.1529  0.1409 -0.4462
  904SOL    HW1 7168   3.349   5.288   2.749 -1.1824 -0.8783 -0.3274
  904SOL    HW2 7169   3.410   5.160   2.696  0.0486 -0.4694  0.0669
  905SOL     OW 7170   4.648   2.662   5.160 -0.2834  0.4767  0.2862
  905SOL    HW1 7171   4.624   2.754   5.157 -1.4352  0.1937  0.5009
  905SOL    HW2 7172   4.590   2.620   5.097  0.7668  0.0005 -0.3941
  906SOL     OW 7173  10.991  10.015  10.007  0.6337 -0.2380 -0.1746
  906SOL    HW1 7174  10.938   9.992  10.083  1.0061  0.2686  0.2463
  906SOL    HW2 7175  10.990   9.937   9.952  1.9707 -1.3390  1.2749
  907SOL     OW 7176   9.398  10.302  10.000 -0.3680  0.0958 -0.2614
  907SOL    HW1 7177   9.480  10.278  10.042 -0.1680 -0.1987 -0.8056
  907SOL    HW2 7178   9.375  10.227   9.946 -2.1089 -0.6993  1.4704
  908SOL     OW 7179   5.573   3.538   5.891  0.1633 -0.6938 -0.3065
  908SOL    HW1 7180   5.486   3.498   5.894 -0.3850  0.0966 -2.8005
  908SOL    HW2 7181   5.559   3.628   5.920  0.4249 -0.9276  0.5601
  909SOL     OW 7182   4.652  10.599   3.545  0.4341 -0.1029  0.2913
  909SOL    HW1 7183   4.639  10.661   3.617  0.0680 -1.2338  1.2401
  909SOL    HW2 7184   4.580  10.536   3.555 -1.2134  1.1100 -2.6268
  910SOL     OW 7185   0.891  10.547   5.482  0.8506 -0.0703  0.8493
  910SOL    HW1 7186   0.813  10.553   5.537 -0.3031 -1.7100 -0.4652
  910SOL    HW2 7187   0.856  10.549   5.392  2.3467 -0.6549  0.2278
  911SOL     OW 7188   7.069   4.613  10.617  0.7013  0.6054  0.5627
  911SOL    HW1 7189   6.995   4.554  10.629  1.3856 -0.7137 -1.3602
  911SOL    HW2 7190   7.075   4.661  10.700  0.5045 -2.4610  2.4955
  912SOL     OW 7191   3.114   3.715   1.909  0.5966 -0.6861 -0.0912
  912SOL    HW1 7192   3.178   3.696   1.977 -0.4280 -1.3127  0.7358
  912SOL    HW2 7193   3.029   3.696   1.950 -0.0949 -0.2837 -1.2814
  913SOL     OW 7194   2.784   9.132   9.184 -0.3927 -0.1846  0.3845
  913SOL    HW1 7195   2.880   9.126   9.186 -0.2333  1.5475 -0.3267
  913SOL    HW2 7196   2.766   9.216   9.141 -2.2391 -0.5288  0.4016
  914SOL     OW 7197   5.370   9.126   7.113  0.3280 -0.0169 -0.1258
  914SOL    HW1 7198   5.407   9.040   7.096  0.9774  0.0491  0.8624
  914SOL    HW2 7199   5.380   9.139   7.208 -0.0512  1.0087 -0.2031
  915SOL     OW 7200   9.158   7.679   6.760  0.2460  0.8705 -0.0277
  915SOL    HW1 7201   9.178   7.603   6.815 -0.1432  0.7100 -0.1103
  915SOL    HW2 7202   9.156   7.752   6.822  1.2179  0.9154 -0.0336
  916SOL     OW 7203   9.454   1.454   1.574  0.6513 -0.2756 -0.0081
  916SOL    HW1 7204   9.427   1.535   1.530  1.6828  0.6988  1.0848
  916SOL    HW2 7205   9.404   1.385   1.529 -0.2379  0.9452 -0.9843
  917SOL     OW 7206   0.028   7.569  10.759 -1.1789 -0.4809 -0.3918
  917SOL    HW1 7207   0.022   7.612  10.844 -0.2342 -1.5663  0.2480
  917SOL    HW2 7208  -0.019   7.486  10.770  0.8156 -1.6643 -0.1927
  918SOL     OW 7209   7.813   9.611   4.438 -0.3362  0.3842  0.3118
  918SOL    HW1 7210   7.745   9.612   4.505 -0.9920 -0.3896 -0.3106
  918SOL    HW2 7211   7.889   9.652   4.479 -1.3791  1.9372  0.8060
  919SOL     OW 7212   2.542   3.233   8.581  0.5711 -0.5075  0.1863
  919SOL    HW1 7213   2.615   3.258   8.524  0.0043 -0.0679 -0.3576
  919SOL    HW2 7214   2.506   3.154   8.541  0.6782 -0.6599  0.3909
  920SOL     OW 7215   2.286  10.227   1.108  0.2307 -0.0670  0.2013
  920SOL    HW1 7216   2.295  10.319   1.135  0.7313  0.1186 -0.5633
  920SOL    HW2 7217   2.324  10.178   1.180  1.0781  0.3927  0.0809
  921SOL     OW 7218   2.336   7.137   3.866 -0.3457  0.3460  0.2123
  921SOL    HW1 7219   2.332   7.108   3.957  1.3106  0.9198  0.5079
  921SOL    HW2 7220   2.245   7.155   3.842 -0.9271 -0.9154  1.3743
  922SOL     OW 7221   0.449   0.099   8.017  0.1543 -0.4744  0.3908
  922SOL    HW1 7222   0.431   0.009   7.991  1.9051 -0.5863 -0.5942
  922SOL    HW2 7223   0.520   0.127   7.959 -1.5657  2.1902 -0.6347
  923SOL     OW 7224   9.248   5.095   4.732  0.0360  0.3470  0.4223
  923SOL    HW1 7225   9.272   5.005   4.713 -2.4807 -0.4749  0.6967
  923SOL    HW2 7226   9.297   5.118   4.810 -0.3142 -1.3155  1.1756
  924SOL     OW 7227   4.226   8.657   7.829  0.2948 -0.0005  0.2377
  924SOL    HW1 7228   4.311   8.644   7.870  0.4637 -0.2637 -0.1967
  924SOL    HW2 7229   4.176   8.579   7.854  0.2943 -0.0111  0.2033
  925SOL     OW 7230   1.497   1.592   0.313 -0.1949 -0.3447  0.3133
  925SOL    HW1 7231   1.421   1.629   0.359 -0.8740 -2.2833  0.8653
  925SOL    HW2 7232   1.459   1.552   0.234  0.6247  0.8392 -0.6941
  926SOL     OW 7233   2.184   3.714   9.405  0.2857 -0.3612  0.8023
  926SOL    HW1 7234   2.201   3.716   9.310  0.0009  0.0850  0.7592
  926SOL    HW2 7235   2.268   3.688   9.443  0.3423 -0.7669  0.4127
  927SOL     OW 7236   7.671   8.800   1.876 -0.1161  0.2479 -0.1598
  927SOL    HW1 7237   7.663   8.890   1.908  0.6066 -0.4183  2.1018
  927SOL    HW2 7238   7.755   8.799   1.830  0.0545  0.6497  0.1288
  928SOL     OW 7239   5.292   7.578   5.772 -0.0071  0.5269 -0.2465
  928SOL    HW1 7240   5.387   7.592   5.769  0.2651 -1.0292  0.2450
  928SOL    HW2 7241   5.281   7.499   5.824 -1.5721  0.4797 -0.5979
  929SOL     OW 7242   3.730   1.273   1.420  0.2738  0.2990 -0.0936
  929SOL    HW1 7243   3.724   1.368   1.413 -1.1907  0.2098 -0.2661
  929SOL    HW2 7244   3.773   1.258   1.504 -1.5447  1.1015  1.0430
  930SOL     OW 7245   2.470   4.396   3.535 -0.3082 -0.5995 -0.8077
  930SOL    HW1 7246   2.562   4.376   3.549  0.1320  2.1983  1.0778
  930SOL    HW2 7247   2.469   4.456   3.461 -0.5097 -0.0690 -0.3841
  931SOL     OW 7248   0.907  11.053  10.186  0.0837  0.1305 -0.2899
  931SOL    HW1 7249   0.833  11.110  10.168 -1.4498 -1.2982  1.1431
  931SOL    HW2 7250   0.902  10.985  10.118  0.5386  0.4143 -0.6182
  932SOL     OW 7251   6.056   2.691   8.845 -0.1013 -0.3298  0.1527
  932SOL    HW1 7252   6.045   2.726   8.757 -0.8140 -1.0954 -0.0819
  932SOL    HW2 7253   6.149   2.669   8.851 -0.1153 -0.6155 -0.5529
  933SOL     OW 7254  11.062   2.381   9.718 -0.2940 -0.0560 -0.3616
  933SOL    HW1 7255  11.076   2.290   9.743  2.5147  0.3320 -0.1878
  933SOL    HW2 7256  11.022   2.422   9.795  0.8653 -0.5888  0.5449
  934SOL     OW 7257   5.927   8.390  10.273  0.3179 -0.0783 -0.4593
  934SOL    HW1 7258   5.925   8.307  10.225 -1.9800  0.2536 -1.0890
  934SOL    HW2 7259   5.852   8.439  10.238  0.3354  1.3893  1.4089
  935SOL     OW 7260   6.069   1.061  10.781  0.6430  0.0447 -0.0226
  935SOL    HW1 7261   6.101   1.146  10.812 -0.2081  0.7225 -0.9207
  935SOL    HW2 7262   5.975   1.075  10.766  0.5885 -0.9184 -0.6558
  936SOL     OW 7263   9.361   7.329   4.807  0.1059  0.1421 -0.6374
  936SOL    HW1 7264   9.327   7.240   4.802 -0.5313  0.1791  1.8820
  936SOL    HW2 7265   9.291   7.379   4.850  0.6951  1.7489 -1.4440
  937SOL     OW 7266   2.290   7.723   8.009  0.6311  0.3232 -0.4502
  937SOL    HW1 7267   2.229   7.783   8.053 -0.5591  0.2229 -1.8689
  937SOL    HW2 7268   2.234   7.670   7.953  2.0061  0.0366 -1.6047
  938SOL     OW 7269   6.751   9.026   9.546 -0.1837 -0.0366 -0.2800
  938SOL    HW1 7270   6.790   9.111   9.564 -0.5198 -0.3007  1.8948
  938SOL    HW2 7271   6.768   9.012   9.452 -0.6461  2.6604 -0.8641
  939SOL     OW 7272  10.130   0.437   4.035 -0.5499 -0.2778  0.1683
  939SOL    HW1 7273  10.038   0.456   4.055 -0.3426  0.9427  0.0561
  939SOL    HW2 7274  10.129   0.402   3.946 -1.1378 -2.6374  1.0239
  940SOL     OW 7275   9.556   9.635   7.706  0.0875 -0.2575  0.3568
  940SOL    HW1 7276   9.634   9.678   7.670  1.0324 -2.5020 -0.4157
  940SOL    HW2 7277   9.590   9.571   7.768 -1.3829  1.3172  2.9739
  941SOL     OW 7278  10.804  10.965   1.981  0.1089 -0.0968 -0.2057
  941SOL    HW1 7279  10.758  10.932   2.058  1.3769  0.8178  0.9937
  941SOL    HW2 7280  10.757  11.045   1.957  1.3318  1.1686  1.3834
  942SOL     OW 7281  10.187   6.153   6.989  0.5998 -0.2233 -0.1650
  942SOL    HW1 7282  10.188   6.192   6.902  1.4284  2.0545  0.7812
  942SOL    HW2 7283  10.132   6.211   7.041  0.2478 -1.4468  0.8916
  943SOL     OW 7284  10.694   5.163   8.047 -0.1908  0.0052  0.3335
  943SOL    HW1 7285  10.668   5.251   8.019 -0.1035  0.4805  1.6818
  943SOL    HW2 7286  10.648   5.104   7.986  1.0758  0.9753 -1.6823
  944SOL     OW 7287   0.442   6.014   2.763 -0.4413 -0.0595 -0.3340
  944SOL    HW1 7288   0.422   5.921   2.753 -0.1066 -0.0726 -0.9389
  944SOL    HW2 7289   0.391   6.041   2.840 -2.8899 -0.0395 -1.8701
  945SOL     OW 7290   7.004   7.570   0.642  0.5092 -0.0959  0.5097
  945SOL    HW1 7291   6.996   7.665   0.651 -0.3573 -0.1048 -0.0305
  945SOL    HW2 7292   6.935   7.546   0.580  1.1547 -1.0001  0.1248
  946SOL     OW 7293   7.992   2.979   0.918 -0.3010  0.1032 -0.0158
  946SOL    HW1 7294   8.012   2.902   0.971  0.9587 -0.0607 -0.6990
  946SOL    HW2 7295   7.985   3.051   0.981 -1.2680 -0.5066  0.6031
  947SOL     OW 7296   1.188   1.547   7.184  0.2528  0.0681 -0.0407
  947SOL    HW1 7297   1.193   1.520   7.092  1.6261 -1.1199  0.3485
  947SOL    HW2 7298   1.185   1.465   7.233  1.1140  0.6598  1.0358
  948SOL     OW 7299   0.767   1.469   0.854  0.0379 -0.2866 -0.4264
  948SOL    HW1 7300   0.778   1.432   0.941  2.5514  0.7100 -0.2439
  948SOL    HW2 7301   0.697   1.534   0.863  1.1826  0.7746  1.2051
  949SOL     OW 7302   1.848   2.030   5.157 -0.0290  0.2290 -0.0305
  949SOL    HW1 7303   1.924   1.997   5.205 -1.4223 -1.0779  1.4220
  949SOL    HW2 7304   1.882   2.102   5.103  2.2828 -0.6242  0.2004
  950SOL     OW 7305  10.133  10.210   4.821  0.2085 -0.4378 -0.1244
  950SOL    HW1 7306  10.067  10.179   4.759 -0.5689 -0.7038  0.8053
  950SOL    HW2 7307  10.085  10.222   4.903  1.3049 -0.5578  0.5595
  951SOL     OW 7308   7.373   1.242   2.516 -0.5016  0.4851  0.0623
  951SOL    HW1 7309   7.396   1.276   2.430 -0.4502  0.5548  0.1042
  951SOL    HW2 7310   7.377   1.317   2.574  0.7099  0.2036  0.3711
  952SOL     OW 7311   4.143   5.448   6.464  0.4987 -0.3144  0.4932
  952SOL    HW1 7312   4.070   5.386   6.457 -0.6460  1.0508 -0.0617
  952SOL    HW2 7313   4.173   5.458   6.374  0.6466 -0.0238  0.5767
  953SOL     OW 7314   4.786   0.788   3.946 -0.7779  0.3716  0.0715
  953SOL    HW1 7315   4.718   0.767   3.882  0.0856  1.6319 -1.3182
  953SOL    HW2 7316   4.844   0.848   3.901  0.8323 -0.0285  1.4916
  954SOL     OW 7317   4.844  11.057   1.542 -0.0579  0.1019  0.0407
  954SOL    HW1 7318   4.878  11.003   1.613  0.9670  0.8814  0.1625
  954SOL    HW2 7319   4.869  11.010   1.462 -0.6733 -0.4607  0.1678
  955SOL     OW 7320  10.467   7.562   4.062 -0.0225  0.2103  0.4755
  955SOL    HW1 7321  10.511   7.568   3.977  0.6705  0.5164  0.8496
  955SOL    HW2 7322  10.465   7.468   4.081 -1.0156  0.0478 -0.2915
  956SOL     OW 7323   0.732   7.184   1.781  0.7161 -0.1503  0.3963
  956SOL    HW1 7324   0.657   7.130   1.754  0.3267  0.5603  0.0421
  956SOL    HW2 7325   0.724   7.190   1.876  0.4929 -0.3221  0.3884
  957SOL     OW 7326   3.282   3.626  10.750 -0.0838 -0.3316  0.3356
  957SOL    HW1 7327   3.258   3.561  10.683  3.2289 -0.8619 -0.5418
  957SOL    HW2 7328   3.337   3.577  10.811 -1.0134  0.7528  2.1209
  958SOL     OW 7329   8.153   6.670   7.053  0.7329 -0.8119 -0.2495
  958SOL    HW1 7330   8.122   6.611   7.121  3.7530 -0.5117  1.5819
  958SOL    HW2 7331   8.088   6.740   7.049 -0.5783 -1.9321  0.7892
  959SOL     OW 7332   0.590   3.067  10.159  0.3959 -0.6050  0.4485
  959SOL    HW1 7333   0.574   3.030  10.246  1.8431 -2.3882  0.0249
  959SOL    HW2 7334   0.675   3.030  10.133  0.7190  1.0954 -1.1024
  960SOL     OW 7335   0.120   1.221   4.167  0.2144  0.2184  0.1809
  960SOL    HW1 7336   0.210   1.242   4.140  1.0981 -3.4053 -0.1464
  960SOL    HW2 7337   0.075   1.200   4.085 -0.4173  0.2886  0.5115
  961SOL     OW 7338  10.976   5.612   6.126  0.0303  0.4863  0.0501
  961SOL    HW1 7339  10.925   5.602   6.206  0.2942  1.1427  0.3028
  961SOL    HW2 7340  10.910   5.610   6.056 -0.2471  0.3900  0.3089
  962SOL     OW 7341   1.809  10.067   5.520  0.1882  0.2488 -0.2637
  962SOL    HW1 7342   1.830  10.054   5.428  0.3569 -0.3462 -0.1379
  962SOL    HW2 7343   1.735  10.129   5.518  0.9796  1.2017 -0.7449
  963SOL     OW 7344   0.570   6.655   7.987 -0.3249 -0.5289  0.2115
  963SOL    HW1 7345   0.656   6.615   7.994 -0.1748  0.0378  1.9201
  963SOL    HW2 7346   0.559   6.673   7.893  2.0546  0.7731  0.1193
  964SOL     OW 7347  10.733   4.437   6.834  0.5937  0.6776  0.0890
  964SOL    HW1 7348  10.664   4.493   6.872 -1.7596 -1.6827 -0.4360
  964SOL    HW2 7349  10.778   4.494   6.772  2.0999  3.5757  3.5036
  965SOL     OW 7350   4.204  10.424   1.360 -0.0029  0.4916 -0.2003
  965SOL    HW1 7351   4.180  10.512   1.391  0.1823  0.2817  0.5498
  965SOL    HW2 7352   4.298  10.431   1.343 -0.0212  0.4858 -0.3002
  966SOL     OW 7353   7.881   2.354   0.140 -0.5039 -0.6425  0.2107
  966SOL    HW1 7354   7.852   2.310   0.060 -0.2591 -0.2088 -0.1283
  966SOL    HW2 7355   7.963   2.396   0.115 -1.3320  1.0323  0.1534
  967SOL     OW 7356  10.216   8.536  10.962 -0.2973  0.3305 -0.1173
  967SOL    HW1 7357  10.214   8.452  10.916  0.8671 -1.3472  2.6470
  967SOL    HW2 7358  10.134   8.578  10.938 -0.7793 -1.4185 -1.8270
  968SOL     OW 7359   2.860   4.974   3.198 -0.0787  0.3694  0.3795
  968SOL    HW1 7360   2.804   4.995   3.124  1.0746 -1.9114 -1.2491
  968SOL    HW2 7361   2.808   4.914   3.251  0.0948 -0.1934 -0.0818
  969SOL     OW 7362   3.068   2.958   8.643 -0.5074 -0.5760 -0.1919
  969SOL    HW1 7363   3.000   2.980   8.707  1.2614  0.5518  1.3875
  969SOL    HW2 7364   3.054   3.020   8.572 -1.2743 -0.5447 -0.0309
  970SOL     OW 7365  10.765   9.472   2.667  0.1104  0.1393  0.4129
  970SOL    HW1 7366  10.702   9.401   2.655  0.7712 -0.4569  0.4805
  970SOL    HW2 7367  10.759   9.524   2.587 -1.0198  0.5303  0.7314
  971SOL     OW 7368   1.864   3.658  10.785 -0.3863 -0.4222 -0.6837
  971SOL    HW1 7369   1.782   3.607  10.784 -1.9273  1.8701  0.1642
  971SOL    HW2 7370   1.835   3.749  10.787  2.2234  0.4722 -0.1961
  972SOL     OW 7371   7.877   2.777   9.704 -0.2651  0.0139  0.0470
  972SOL    HW1 7372   7.817   2.781   9.779  1.1926 -0.5144  1.2860
  972SOL    HW2 7373   7.889   2.868   9.678 -3.8511  0.0260 -2.1535
  973SOL     OW 7374   1.522   0.127   9.967 -0.3433 -0.2855  0.3864
  973SOL    HW1 7375   1.506   0.218   9.941  0.3183 -0.9019 -2.5320
  973SOL    HW2 7376   1.464   0.113  10.042 -2.0246  1.9286 -0.3783
  974SOL     OW 7377   6.662   2.199   4.279 -0.0463 -0.3320  0.2409
  974SOL    HW1 7378   6.690   2.290   4.294 -0.7922  0.2514 -1.5351
  974SOL    HW2 7379   6.595   2.183   4.344 -2.1706  1.5556 -1.3266
  975SOL     OW 7380   7.244   9.258   0.725  0.8307  0.1185  0.4570
  975SOL    HW1 7381   7.195   9.248   0.807  0.5297 -0.6723  0.1887
  975SOL    HW2 7382   7.239   9.172   0.684 -1.0138  1.0752 -1.4963
  976SOL     OW 7383   0.998   9.835   1.318  0.1993  0.1086 -0.4806
  976SOL    HW1 7384   0.916   9.787   1.326 -0.1595  0.8659  0.6176
  976SOL    HW2 7385   0.976   9.913   1.267  0.3946 -0.0367 -0.7877
  977SOL     OW 7386   4.607   3.251   2.642  0.7239  0.4971  0.3548
  977SOL    HW1 7387   4.624   3.303   2.563  0.0107 -0.0608 -0.1718
  977SOL    HW2 7388   4.622   3.161   2.616  0.4942  0.3064  0.8594
  978SOL     OW 7389   5.099   5.572   7.587  0.0369  0.1372  0.3489
  978SOL    HW1 7390   5.025   5.511   7.593  0.7356 -0.9508 -1.2610
  978SOL    HW2 7391   5.173   5.523   7.624  0.9960 -0.7988 -2.5244
  979SOL     OW 7392   3.054   4.146   6.930  0.8452  0.2448  0.1796
  979SOL    HW1 7393   2.969   4.112   6.957  0.7335  0.7234  0.4502
  979SOL    HW2 7394   3.094   4.075   6.881  0.1630  0.1258 -0.2104
  980SOL     OW 7395   2.538   3.057   1.165  0.0836  0.2102 -0.1799
  980SOL    HW1 7396   2.520   3.066   1.072  0.7680  1.4907 -0.2064
  980SOL    HW2 7397   2.468   3.000   1.197  0.1841 -0.7544 -1.5735
  981SOL     OW 7398  10.034   9.375   4.918  0.0388 -0.1130  0.2034
  981SOL    HW1 7399  10.113   9.369   4.972 -0.8608 -1.4172  1.4600
  981SOL    HW2 7400   9.985   9.296   4.939 -1.6290  0.6848 -0.5203
  982SOL     OW 7401   8.157  10.667   7.513  0.1523 -0.0017  0.6126
  982SOL    HW1 7402   8.158  10.763   7.510 -0.6758  0.0303  1.1036
  982SOL    HW2 7403   8.227  10.644   7.574  2.7011  0.1290 -2.0453
  983SOL     OW 7404   6.554   9.966   0.105  0.4498 -0.2037  0.4761
  983SOL    HW1 7405   6.463   9.940   0.090  1.1599 -1.9453 -1.1453
  983SOL    HW2 7406   6.579  10.015   0.027  1.1717 -0.5851  0.4543
  984SOL     OW 7407   7.232  10.008   5.301  0.3120 -0.0640  0.4163
  984SOL    HW1 7408   7.143  10.010   5.336  0.5287  0.0647  0.9687
  984SOL    HW2 7409   7.223  10.039   5.211 -0.2352 -0.2900  0.3904
  985SOL     OW 7410   3.147   6.507   8.948 -0.0763 -0.2184  0.2009
  985SOL    HW1 7411   3.156   6.437   8.883 -0.9968 -0.0549 -0.1263
  985SOL    HW2 7412   3.130   6.586   8.896 -1.6392 -0.2274  0.6435
  986SOL     OW 7413   5.315   4.553  11.051  0.1780 -0.5496  0.5089
  986SOL    HW1 7414   5.306   4.474  10.998 -3.0886 -0.1221  0.2142
  986SOL    HW2 7415   5.309   4.522  11.141  0.2324 -0.7390  0.4487
  987SOL     OW 7416  10.275   9.336   2.851 -0.1541 -0.7147 -0.1648
  987SOL    HW1 7417  10.295   9.298   2.937  0.4576 -2.3850 -0.9999
  987SOL    HW2 7418  10.318   9.421   2.852  0.8094 -1.1820  0.7732
  988SOL     OW 7419   2.714  10.241   7.192  0.2381 -0.1060  0.8129
  988SOL    HW1 7420   2.633  10.191   7.176  0.7625 -0.6029 -0.4178
  988SOL    HW2 7421   2.778  10.174   7.215  0.1704  0.3502  2.4488
  989SOL     OW 7422   9.676   4.217  10.935 -0.1692 -0.3193 -0.0582
  989SOL    HW1 7423   9.697   4.310  10.931  0.8793 -0.5472 -0.2165
  989SOL    HW2 7424   9.604   4.211  10.998 -1.4055  0.7697 -1.2910
  990SOL     OW 7425   1.099   8.025   9.784 -0.2663  0.4746 -0.1904
  990SOL    HW1 7426   1.137   7.948   9.741  1.6120  0.7819  0.8203
  990SOL    HW2 7427   1.164   8.094   9.773 -1.6572  1.7916 -0.5649
  991SOL     OW 7428   2.471   4.061   7.176  0.0555 -0.3057  0.0183
  991SOL    HW1 7429   2.400   4.125   7.171 -0.8310 -1.3385 -1.0167
  991SOL    HW2 7430   2.543   4.109   7.218 -1.3951  0.6108  1.5754
  992SOL     OW 7431   2.051   4.283   1.832 -0.4719 -0.6241 -0.1179
  992SOL    HW1 7432   2.049   4.214   1.897  1.2101 -0.2919  0.3427
  992SOL    HW2 7433   2.120   4.342   1.862 -0.6224  0.2799 -1.4598
  993SOL     OW 7434   2.161   6.325   8.620  0.5258 -0.6270  0.2506
  993SOL    HW1 7435   2.196   6.242   8.652  1.7084 -0.2743 -0.0818
  993SOL    HW2 7436   2.185   6.389   8.686 -0.2687 -0.5172  0.4428
  994SOL     OW 7437  11.054  10.021   7.985 -0.6388  0.0786 -0.5818
  994SOL    HW1 7438  10.991  10.084   7.951  0.2759  1.4825  0.2498
  994SOL    HW2 7439  11.037  10.017   8.079 -0.1900 -0.3406 -0.5123
  995SOL     OW 7440   0.978   2.719   4.394 -0.3658  0.4053  0.6726
  995SOL    HW1 7441   0.941   2.651   4.338  0.8555 -0.1512  0.5023
  995SOL    HW2 7442   0.951   2.696   4.482  0.2657 -0.4781  0.6475
  996SOL     OW 7443   5.703   4.612   5.254  0.2358  0.1314 -0.0288
  996SOL    HW1 7444   5.629   4.561   5.220  0.8530 -0.2910 -0.7855
  996SOL    HW2 7445   5.669   4.701   5.261  0.4085  0.5729 -3.1400
  997SOL     OW 7446   0.462  10.294   5.313  0.3379 -0.2251  0.2870
  997SOL    HW1 7447   0.373  10.262   5.298  0.1203  0.7845 -0.6918
  997SOL    HW2 7448   0.511  10.216   5.341 -1.1132 -0.5674  2.0908
  998SOL     OW 7449   9.410   3.892  11.070 -0.0331  0.3969 -0.1426
  998SOL    HW1 7450   9.470   3.852  11.007  1.2352 -1.0521  1.8700
  998SOL    HW2 7451   9.373   3.818  11.117 -0.9143  1.4398  0.8539
  999SOL     OW 7452   2.680   6.701   8.293 -0.1353 -0.0010 -0.3066
  999SOL    HW1 7453   2.617   6.768   8.320 -0.4482 -0.1740 -0.5976
  999SOL    HW2 7454   2.639   6.618   8.318  0.4721 -0.0688  0.5109
 1000SOL     OW 7455   0.349   4.503  10.573 -0.7580 -0.4251 -0.3775
 1000SOL    HW1 7456   0.359   4.411  10.597  0.4730  0.0109  0.8426
 1000SOL    HW2 7457   0.325   4.547  10.654 -0.6470  0.4463 -0.8022
 1001SOL     OW 7458  10.060   2.140  10.406 -0.3812  0.6794 -0.2792
 1001SOL    HW1 7459  10.096   2.149  10.318  1.4279 -1.7758  0.1318
 1001SOL    HW2 7460  10.133   2.110  10.459 -1.6565  1.2551  1.9179
 1002SOL     OW 7461   7.969  10.272   4.480 -0.4741 -0.0290 -0.5873
 1002SOL    HW1 7462   8.038  10.210   4.504 -0.9727 -0.5658 -0.5158
 1002SOL    HW2 7463   7.937  10.305   4.564 -0.8801 -0.4176 -0.5907
 1003SOL     OW 7464   2.570   8.637   6.800 -0.2600  0.6143 -0.0168
 1003SOL    HW1 7465   2.522   8.594   6.871  0.2723  1.5243  0.9056
 1003SOL    HW2 7466   2.615   8.566   6.755 -1.3429 -0.0866 -0.0334
 1004SOL     OW 7467   4.406   7.858   7.293 -0.0008 -0.0185 -0.0287
 1004SOL    HW1 7468   4.331   7.809   7.260  0.5442 -0.4824 -0.6043
 1004SOL    HW2 7469   4.471   7.853   7.223  0.0952  1.4804 -0.0727
 1005SOL     OW 7470   2.047   3.485   1.545  0.8586  0.0693 -0.2562
 1005SOL    HW1 7471   1.995   3.538   1.484 -0.5965 -2.4096 -1.3227
 1005SOL    HW2 7472   1.983   3.458   1.612  1.0109 -2.0638 -0.9317
 1006SOL     OW 7473   3.020   0.844  11.035 -0.1524  0.2124  0.7188
 1006SOL    HW1 7474   2.970   0.926  11.035  0.4605  0.6535 -1.7930
 1006SOL    HW2 7475   3.110   0.872  11.052 -0.0453 -0.0315  0.5438
 1007SOL     OW 7476   2.808   5.014   0.740 -0.0107  0.2805 -0.6737
 1007SOL    HW1 7477   2.847   4.935   0.777  0.4760  0.5563 -0.5783
 1007SOL    HW2 7478   2.718   5.014   0.771 -1.0238 -1.9018 -3.2629
 1008SOL     OW 7479   1.170   6.548   0.259 -0.0706  0.4159 -0.0798
 1008SOL    HW1 7480   1.092   6.495   0.249  0.0596  0.2721 -0.3453
 1008SOL    HW2 7481   1.150   6.606   0.332 -0.1379 -0.1289  0.3420
 1009SOL     OW 7482  10.885   6.144   1.329 -0.4076  0.4620 -0.5434
 1009SOL    HW1 7483  10.944   6.111   1.261  0.6019  0.6959  0.1870
 1009SOL    HW2 7484  10.813   6.081   1.331  0.7528 -0.9215 -0.1884
 1010SOL     OW 7485   5.428   6.519   4.279  0.1526  0.0517 -0.5693
 1010SOL    HW1 7486   5.384   6.511   4.194  1.2402 -0.1828 -1.1273
 1010SOL    HW2 7487   5.396   6.602   4.315  0.8297  0.9508 -1.9220
 1011SOL     OW 7488   7.203   9.495   0.599 -0.1872 -0.2730  0.4436
 1011SOL    HW1 7489   7.230   9.412   0.639  0.8495  0.1438  0.6513
 1011SOL    HW2 7490   7.222   9.561   0.665  2.6026  0.5796 -1.0215
 1012SOL     OW 7491   0.492   2.498   5.336 -0.1812 -0.4711 -0.4906
 1012SOL    HW1 7492   0.447   2.445   5.271  0.2003 -0.4695 -0.7562
 1012SOL    HW2 7493   0.534   2.568   5.286  0.9649 -1.0495 -0.3688
 1013SOL     OW 7494   4.147   2.091   1.366  0.5187 -0.0217 -0.5340
 1013SOL    HW1 7495   4.102   2.111   1.448  0.6222 -1.6120 -0.0549
 1013SOL    HW2 7496   4.207   2.019   1.389 -0.8038 -1.8316 -2.3603
 1014SOL     OW 7497   2.094   4.435   1.312  0.0346  0.0597 -0.0715
 1014SOL    HW1 7498   2.069   4.389   1.392  1.3538 -0.5838 -0.0165
 1014SOL    HW2 7499   2.179   4.398   1.288  1.6269  3.0721  0.4851
 1015SOL     OW 7500   4.540   3.252   6.807  0.0813  0.1143  0.1078
 1015SOL    HW1 7501   4.470   3.291   6.755 -0.0438 -0.6204 -0.2975
 1015SOL    HW2 7502   4.494   3.196   6.870  0.2883 -0.2023 -0.0196
 1016SOL     OW 7503   4.567   0.455   3.934  0.1816  0.6285  0.6292
 1016SOL    HW1 7504   4.648   0.403   3.926  0.0704  0.5148  0.2175
 1016SOL    HW2 7505   4.502   0.405   3.885 -0.1997  0.6008  1.1593
 1017SOL     OW 7506   9.624   0.696   6.805 -0.1821  0.3267  0.2054
 1017SOL    HW1 7507   9.617   0.765   6.870  1.1912 -0.2937  1.0685
 1017SOL    HW2 7508   9.683   0.733   6.738 -0.7652  0.5787 -0.1810
 1018SOL     OW 7509   3.783   8.592  11.060 -0.2820  0.1004  0.5307
 1018SOL    HW1 7510   3.746   8.623  11.143  2.1596 -1.2137  2.2304
 1018SOL    HW2 7511   3.766   8.498  11.060 -0.6120  0.1501 -0.6750
 1019SOL     OW 7512   2.672   1.615   0.914  0.1157  0.7092 -0.2775
 1019SOL    HW1 7513   2.725   1.605   0.992 -0.4175  0.5135  0.0656
 1019SOL    HW2 7514   2.734   1.607   0.841  0.4813  0.0382  0.1013
 1020SOL     OW 7515  10.156   5.012  10.788 -0.2887 -0.0968 -0.5569
 1020SOL    HW1 7516  10.152   4.969  10.702  1.5321 -1.2969 -0.1108
 1020SOL    HW2 7517  10.089   4.968  10.840 -0.4869 -0.3082 -0.9855
 1021SOL     OW 7518   5.703   3.646   2.046  0.0838 -0.4006 -0.6896
 1021SOL    HW1 7519   5.702   3.668   1.953  0.3384 -0.9337 -0.8227
 1021SOL    HW2 7520   5.691   3.730   2.091 -0.0240 -0.1399 -1.2020
 1022SOL     OW 7521   7.669   0.018   1.740  0.0383  0.1750  0.9554
 1022SOL    HW1 7522   7.575   0.030   1.729  0.1544 -0.5557 -1.2058
 1022SOL    HW2 7523   7.681  -0.077   1.742  0.9438  0.1242 -1.8824
 1023SOL     OW 7524   3.340   4.699   2.364 -0.1246  0.2243  0.4944
 1023SOL    HW1 7525   3.289   4.647   2.302  1.9866 -1.6660  0.2588
 1023SOL    HW2 7526   3.274   4.734   2.424 -1.9629  0.0585 -1.3063
 1024SOL     OW 7527   4.615   5.543   7.935 -0.3778 -0.3391 -0.1456
 1024SOL    HW1 7528   4.588   5.629   7.900  0.0572 -0.8949 -1.9836
 1024SOL    HW2 7529   4.551   5.482   7.899 -0.6491 -0.8014  1.1042
 1025SOL     OW 7530   6.571   8.007   2.509  0.0205  0.1328  0.1105
 1025SOL    HW1 7531   6.602   8.006   2.600 -1.4511  2.1324  0.7135
 1025SOL    HW2 7532   6.651   8.014   2.457  0.9111 -1.2803  1.1924
 1026SOL     OW 7533   7.766   0.263   6.683 -0.2737  0.1444 -0.3711
 1026SOL    HW1 7534   7.761   0.282   6.777 -1.1505  0.3769 -0.4514
 1026SOL    HW2 7535   7.733   0.343   6.641  1.5844  0.6601 -0.9615
 1027SOL     OW 7536   0.967   2.669   8.585  0.3598  0.4307 -0.3840
 1027SOL    HW1 7537   1.014   2.749   8.607 -0.6528  1.8294 -3.0018
 1027SOL    HW2 7538   0.879   2.698   8.560  0.2712 -1.3559 -2.3750
 1028SOL     OW 7539   4.731   5.156   8.869 -0.1662 -0.3661  0.3072
 1028SOL    HW1 7540   4.755   5.208   8.792  1.3836 -0.1974  0.8688
 1028SOL    HW2 7541   4.708   5.070   8.834  2.8536 -1.0711 -0.2289
 1029SOL     OW 7542   3.634   7.016   4.473  0.5503  0.4170 -0.1193
 1029SOL    HW1 7543   3.675   7.094   4.510  3.3168 -0.5357 -0.9511
 1029SOL    HW2 7544   3.688   6.994   4.397 -1.3059 -1.2121 -1.0613
 1030SOL     OW 7545   5.988   1.008   6.440  0.4595 -0.3293  0.0142
 1030SOL    HW1 7546   6.053   1.071   6.410  0.6778 -0.8127 -0.5377
 1030SOL    HW2 7547   5.969   0.954   6.364  0.5227 -1.1428  0.5548
 1031SOL     OW 7548  10.944   4.902   5.842 -0.0291  0.2701 -0.1936
 1031SOL    HW1 7549  10.911   4.992   5.846  0.8559  0.6090 -0.4205
 1031SOL    HW2 7550  10.903   4.858   5.917  2.7847  1.9787  2.5676
 1032SOL     OW 7551   0.422   6.162   0.550 -0.2014  0.2079 -0.4769
 1032SOL    HW1 7552   0.439   6.163   0.456  0.0796  0.7013 -0.4267
 1032SOL    HW2 7553   0.501   6.123   0.588  0.0264  0.7480 -0.3877
 1033SOL     OW 7554   0.140   5.423   3.961 -0.5141  0.0268 -0.9205
 1033SOL    HW1 7555   0.173   5.392   4.046  0.3661 -0.2663 -1.3523
 1033SOL    HW2 7556   0.056   5.379   3.951 -0.3043 -0.4920 -0.5085
 1034SOL     OW 7557  10.895   9.651  10.470  0.0808 -0.7817  0.9128
 1034SOL    HW1 7558  10.899   9.651  10.566  2.6514 -2.7013  0.9331
 1034SOL    HW2 7559  10.955   9.581  10.445 -1.7337 -1.4125 -2.1026
 1035SOL     OW 7560   1.079   8.255   6.861 -0.1957  0.0556 -0.3412
 1035SOL    HW1 7561   1.114   8.344   6.852 -0.2091  0.0609 -0.3457
 1035SOL    HW2 7562   1.112   8.209   6.784 -0.3906  0.1233 -0.4663
 1036SOL     OW 7563   2.683   6.468   4.566 -0.9366  0.0440  0.0228
 1036SOL    HW1 7564   2.610   6.521   4.596  0.3374  0.8964  1.7361
 1036SOL    HW2 7565   2.753   6.530   4.550 -0.1637 -0.8932 -0.3245
 1037SOL     OW 7566   1.925  10.596   0.712 -0.4707  0.3977  0.2641
 1037SOL    HW1 7567   1.953  10.683   0.685 -3.2110  1.4924  0.5847
 1037SOL    HW2 7568   1.981  10.536   0.664  1.9351  2.3029  0.5236
 1038SOL     OW 7569   2.890   2.227  10.266 -0.2503  0.1795 -0.2023
 1038SOL    HW1 7570   2.887   2.315  10.230  0.0640  0.0974 -0.4465
 1038SOL    HW2 7571   2.961   2.184  10.218 -0.2638 -0.1428  0.0555
 1039SOL     OW 7572  10.557   2.475   1.539  0.4081  0.1499 -0.0464
 1039SOL    HW1 7573  10.468   2.509   1.550  0.6961  0.9708 -0.2284
 1039SOL    HW2 7574  10.599   2.487   1.624 -0.0824 -1.5742  0.4865
 1040SOL     OW 7575   7.558   6.134   9.013  0.1957 -0.2570 -0.2753
 1040SOL    HW1 7576   7.559   6.140   8.917  1.5546 -1.2960 -0.3596
 1040SOL    HW2 7577   7.596   6.048   9.032 -0.1091 -0.0966  1.2090
 1041SOL     OW 7578  10.963   5.807   6.930 -0.2090  0.0178 -0.0566
 1041SOL    HW1 7579  10.917   5.809   7.014  1.1849 -0.1573  0.7360
 1041SOL    HW2 7580  11.011   5.890   6.927 -0.7677  0.3305 -1.0047
 1042SOL     OW 7581   9.038   2.566   5.690  0.9894 -0.1554  0.3594
 1042SOL    HW1 7582   9.042   2.474   5.718 -0.4805  0.0104  1.2817
 1042SOL    HW2 7583   9.117   2.579   5.639  0.9033 -2.1352 -0.4035
 1043SOL     OW 7584   3.216   2.164   4.578  0.4639 -0.3327  0.0983
 1043SOL    HW1 7585   3.179   2.091   4.627 -0.2957 -0.6692 -0.9621
 1043SOL    HW2 7586   3.169   2.241   4.610  1.3831 -0.2528  1.3381
 1044SOL     OW 7587   6.758   1.735   8.108  0.0241  0.0981 -0.7932
 1044SOL    HW1 7588   6.691   1.673   8.079  0.9871 -0.8299 -1.1023
 1044SOL    HW2 7589   6.708   1.809   8.142 -1.2181 -1.3881  0.8873
 1045SOL     OW 7590   1.416   2.551   0.304 -0.1853 -0.4968 -0.1039
 1045SOL    HW1 7591   1.322   2.550   0.318 -0.1797 -1.2296 -0.1178
 1045SOL    HW2 7592   1.445   2.634   0.342 -0.8991 -0.0317 -0.5652
 1046SOL     OW 7593   6.081   3.912   0.938 -0.2319 -0.2574 -0.4004
 1046SOL    HW1 7594   6.101   3.869   1.021 -0.1884  0.4299 -0.0500
 1046SOL    HW2 7595   5.986   3.903   0.929 -0.5255  1.3025  0.6757
 1047SOL     OW 7596  10.950   1.430   1.165 -0.0438 -0.0800  0.4282
 1047SOL    HW1 7597  11.013   1.499   1.184 -0.0379 -0.2018  0.8464
 1047SOL    HW2 7598  10.866   1.466   1.194  0.0996 -0.6265  1.5631
 1048SOL     OW 7599   5.739   2.974   8.343 -0.2411 -0.0633  0.0923
 1048SOL    HW1 7600   5.776   3.029   8.274 -1.5877  0.4914 -0.2056
 1048SOL    HW2 7601   5.692   3.034   8.400 -1.5096 -0.8575 -0.0842
 1049SOL     OW 7602   8.765  10.197   3.605 -0.0074  0.6011  0.3001
 1049SOL    HW1 7603   8.835  10.141   3.639 -0.0821 -1.0047 -1.9887
 1049SOL    HW2 7604   8.805  10.246   3.533 -1.0016  0.2907 -0.4946
 1050SOL     OW 7605  10.056   4.555   1.479  0.0750  0.4911  0.3017
 1050SOL    HW1 7606  10.013   4.470   1.485  0.7781 -0.2705 -3.1604
 1050SOL    HW2 7607  10.146   4.539   1.505  0.1894  0.1777 -0.2761
 1051SOL     OW 7608   7.171   6.590   1.161 -0.0308  0.2080 -0.1224
 1051SOL    HW1 7609   7.138   6.523   1.221 -1.0987 -0.8747 -1.8262
 1051SOL    HW2 7610   7.092   6.629   1.123  0.5891  0.3825 -1.3041
 1052SOL     OW 7611   7.192   1.848   1.415  0.2640  0.4582 -0.2826
 1052SOL    HW1 7612   7.202   1.935   1.453  2.1306  0.1200  0.1223
 1052SOL    HW2 7613   7.221   1.788   1.485  1.5727 -0.2995 -1.4258
 1053SOL     OW 7614   1.806   8.653   4.483  0.1855  0.1654 -0.0009
 1053SOL    HW1 7615   1.731   8.669   4.539  1.1772  2.1775  0.8560
 1053SOL    HW2 7616   1.848   8.576   4.521 -0.8602 -0.3658  0.1105
 1054SOL     OW 7617   9.380   9.188   5.737  0.2081  0.0773 -0.3408
 1054SOL    HW1 7618   9.322   9.143   5.797  1.6436 -0.2492  0.8670
 1054SOL    HW2 7619   9.397   9.124   5.667 -0.2115 -0.1285 -0.2534
 1055SOL     OW 7620   6.803   7.247   6.713  0.2223  0.2326  0.5192
 1055SOL    HW1 7621   6.796   7.181   6.645  0.1418 -0.0051  0.7569
 1055SOL    HW2 7622   6.721   7.296   6.708 -0.5337 -0.8704  1.5653
 1056SOL     OW 7623   4.363   2.029   0.409 -0.6113 -0.2447 -0.3607
 1056SOL    HW1 7624   4.379   1.977   0.487  0.5612 -1.1628 -1.1798
 1056SOL    HW2 7625   4.449   2.037   0.367 -0.5192  3.1791  0.2062
 1057SOL     OW 7626   7.922   9.298   7.187 -0.0766  0.1416 -0.2216
 1057SOL    HW1 7627   7.934   9.326   7.278  0.7653 -0.7023 -0.0558
 1057SOL    HW2 7628   7.832   9.268   7.183  0.2057 -0.8943  0.6569
 1058SOL     OW 7629   7.993   6.699   4.773  0.0845 -0.3913 -0.0759
 1058SOL    HW1 7630   8.010   6.706   4.867 -1.0848 -0.6801  0.1704
 1058SOL    HW2 7631   8.029   6.613   4.748 -0.3214 -0.6670  0.2794
 1059SOL     OW 7632   6.688   6.515   9.287 -0.0495  0.4436  0.1717
 1059SOL    HW1 7633   6.758   6.486   9.228  1.6875  0.4335  2.1557
 1059SOL    HW2 7634   6.656   6.434   9.328  1.7716  0.7565  2.4109
 1060SOL     OW 7635   5.666   9.755   4.577  0.7481  0.1190 -0.2139
 1060SOL    HW1 7636   5.714   9.837   4.565  1.2271 -0.2361 -0.7551
 1060SOL    HW2 7637   5.653   9.721   4.489 -1.6540  0.8342 -0.2213
 1061SOL     OW 7638   4.446   0.621   8.124  0.3668  0.1292 -0.1376
 1061SOL    HW1 7639   4.464   0.715   8.128 -0.0629  0.2497 -0.7414
 1061SOL    HW2 7640   4.490   0.592   8.044 -1.2079  0.2392 -1.0964
 1062SOL     OW 7641   9.005   7.002   0.990  0.0369 -0.0048 -0.4363
 1062SOL    HW1 7642   9.003   6.989   0.895 -1.2323  1.1291 -0.5892
 1062SOL    HW2 7643   9.049   7.086   1.002  2.5244 -1.2750  0.1853
 1063SOL     OW 7644   5.726   5.600   1.639  0.3319 -0.1263 -0.4771
 1063SOL    HW1 7645   5.689   5.519   1.675  1.6024  0.2323  1.8615
 1063SOL    HW2 7646   5.819   5.596   1.663  0.5249  1.8146 -0.7330
 1064SOL     OW 7647   1.486   6.225   1.542 -0.1778  0.0316 -0.0484
 1064SOL    HW1 7648   1.446   6.215   1.456 -1.8552 -1.0363  0.7916
 1064SOL    HW2 7649   1.414   6.252   1.599  0.4180 -1.2590  1.3928
 1065SOL     OW 7650   1.008   6.821   8.042  0.1799 -0.2606 -0.5574
 1065SOL    HW1 7651   0.966   6.761   8.105 -0.3267  0.4590 -0.1968
 1065SOL    HW2 7652   1.025   6.900   8.092 -1.9327  1.0335 -1.7469
 1066SOL     OW 7653   5.309   8.818   4.410  0.0508  0.3822  0.1232
 1066SOL    HW1 7654   5.298   8.731   4.449  0.8672 -1.2101 -2.8477
 1066SOL    HW2 7655   5.220   8.845   4.388 -0.1286 -0.3038 -0.0440
 1067SOL     OW 7656   7.040   0.898   2.266 -0.2092  0.2303  0.0711
 1067SOL    HW1 7657   6.956   0.855   2.248  0.1729 -0.1609 -0.8623
 1067SOL    HW2 7658   7.020   0.991   2.266 -1.0135  0.1004  1.8939
 1068SOL     OW 7659  10.210   8.359   7.952 -0.1753  0.0916 -0.1826
 1068SOL    HW1 7660  10.211   8.415   8.030  3.0465 -0.6117  0.4062
 1068SOL    HW2 7661  10.207   8.421   7.879 -0.0218  0.9049  0.4811
 1069SOL     OW 7662   5.832  11.018   7.334  0.3760 -0.4036  1.0104
 1069SOL    HW1 7663   5.859  11.107   7.313  0.8664 -0.7193  0.2621
 1069SOL    HW2 7664   5.796  10.983   7.253  0.3334 -0.9387  1.2503
 1070SOL     OW 7665   8.291   6.838  10.763  0.0455  0.0614 -0.6359
 1070SOL    HW1 7666   8.333   6.814  10.845 -0.1686 -0.6713 -0.7353
 1070SOL    HW2 7667   8.216   6.892  10.788  0.3625  0.3931 -0.3934
 1071SOL     OW 7668   6.430   5.619  10.215 -0.5418  0.4359 -0.2393
 1071SOL    HW1 7669   6.390   5.574  10.141  0.1074  1.3163 -1.1357
 1071SOL    HW2 7670   6.513   5.573  10.229 -0.3083  0.7677 -0.5505
 1072SOL     OW 7671   6.452   3.666   5.640 -0.0573  0.2574 -0.0617
 1072SOL    HW1 7672   6.392   3.616   5.585 -0.6569  0.7475  0.1379
 1072SOL    HW2 7673   6.397   3.700   5.711  0.5658  0.2379  0.4458
 1073SOL     OW 7674   6.133   7.571   6.534  0.0967  0.6778  0.2086
 1073SOL    HW1 7675   6.189   7.644   6.508 -1.1256  1.5170 -0.1840
 1073SOL    HW2 7676   6.107   7.530   6.451  0.3616  0.1072  0.4017
 1074SOL     OW 7677   7.223   6.161   3.725  0.5926 -0.3094  0.2163
 1074SOL    HW1 7678   7.208   6.086   3.782  0.5409 -1.8863 -1.7743
 1074SOL    HW2 7679   7.137   6.179   3.686  0.9576 -0.3471 -0.6282
 1075SOL     OW 7680   3.091   5.286   5.816 -0.2498 -0.0118  0.3308
 1075SOL    HW1 7681   3.029   5.356   5.838 -1.9891 -1.3592 -0.1410
 1075SOL    HW2 7682   3.064   5.256   5.729 -1.8883 -3.6407  1.9046
 1076SOL     OW 7683   3.696   1.116   9.743 -0.1469  0.4322  0.3677
 1076SOL    HW1 7684   3.675   1.036   9.694  0.3234  0.1165  0.6679
 1076SOL    HW2 7685   3.689   1.090   9.835 -0.1405  0.7789  0.4653
 1077SOL     OW 7686   3.007   9.725   9.852 -0.2685 -0.1840  0.2391
 1077SOL    HW1 7687   2.984   9.677   9.772  1.7317  1.1263 -1.2540
 1077SOL    HW2 7688   2.928   9.774   9.874 -1.1198 -1.1974 -0.4620
 1078SOL     OW 7689   9.357  11.007   2.475  0.2267 -0.2489 -0.0095
 1078SOL    HW1 7690   9.273  11.036   2.440  0.5937  1.2611  0.2878
 1078SOL    HW2 7691   9.386  10.939   2.413 -1.3554 -1.0696  0.0990
 1079SOL     OW 7692  10.606   7.942  10.113  0.0106 -0.4564 -0.3806
 1079SOL    HW1 7693  10.518   7.916  10.141  0.8657 -1.9554  1.1218
 1079SOL    HW2 7694  10.664   7.882  10.160  1.8172  0.1350 -1.7575
 1080SOL     OW 7695   3.979   9.404   4.420  0.9188 -0.0614  0.1817
 1080SOL    HW1 7696   4.035   9.400   4.497 -1.2184  2.8311  2.0625
 1080SOL    HW2 7697   3.973   9.497   4.399 -0.8339 -0.5393 -1.7399
 1081SOL     OW 7698   5.226   1.182   0.832  0.3206  0.2930  0.7523
 1081SOL    HW1 7699   5.184   1.158   0.915  0.4255  0.9635  1.0007
 1081SOL    HW2 7700   5.153   1.196   0.771  0.2610 -1.1451  0.4492
 1082SOL     OW 7701   8.314   5.190   7.762  0.6685 -0.5621 -0.1096
 1082SOL    HW1 7702   8.295   5.169   7.853  0.6029 -1.9202 -0.4227
 1082SOL    HW2 7703   8.327   5.285   7.762 -0.7590 -0.3311  1.0566
 1083SOL     OW 7704   3.146   2.682   9.857 -0.5514 -0.3911  0.0303
 1083SOL    HW1 7705   3.153   2.630   9.937 -0.7027 -0.6851 -0.1475
 1083SOL    HW2 7706   3.209   2.753   9.869 -0.6935 -0.3369  0.4828
 1084SOL     OW 7707   7.477   8.510   0.007 -0.0858 -0.3188  0.1411
 1084SOL    HW1 7708   7.560   8.518   0.055 -0.5566 -2.1776  1.3483
 1084SOL    HW2 7709   7.416   8.564   0.056  0.1191  0.1006 -0.0606
 1085SOL     OW 7710   6.911   7.497   7.260 -0.3024 -0.3781 -0.1030
 1085SOL    HW1 7711   6.898   7.447   7.179 -0.6905 -1.9665  0.8835
 1085SOL    HW2 7712   6.963   7.439   7.315 -0.9753  0.2052  1.1792
 1086SOL     OW 7713   8.278   8.512   6.930 -0.0325  0.1868 -0.2122
 1086SOL    HW1 7714   8.321   8.591   6.960  1.2277  0.2053 -1.9264
 1086SOL    HW2 7715   8.222   8.540   6.858 -0.9691 -0.2319  0.3290
 1087SOL     OW 7716   0.910   2.656   5.764 -0.0977  0.1742 -0.6122
 1087SOL    HW1 7717   0.961   2.585   5.804 -0.4261  0.9002  1.1878
 1087SOL    HW2 7718   0.819   2.631   5.780 -0.2157  1.0595  0.2151
 1088SOL     OW 7719   2.634  10.740   4.714  0.0632 -0.7067 -0.1727
 1088SOL    HW1 7720   2.564  10.803   4.700  1.7508  1.7184  1.5604
 1088SOL    HW2 7721   2.627  10.716   4.806  2.6143  1.2017  0.6363
 1089SOL     OW 7722   1.097   8.686   1.997  0.2977 -0.6636  0.4218
 1089SOL    HW1 7723   1.136   8.735   2.070  0.0155 -0.4559  0.4374
 1089SOL    HW2 7724   1.010   8.662   2.029 -0.3809  0.6617 -0.3665
 1090SOL     OW 7725   7.993   7.408   7.409  0.0973  0.1096 -0.1991
 1090SOL    HW1 7726   7.953   7.456   7.481 -3.0253 -2.0914 -0.2387
 1090SOL    HW2 7727   8.034   7.332   7.450  0.1032 -0.1042 -0.5888
 1091SOL     OW 7728   2.131   4.736   6.827 -0.3447  0.0174  0.0619
 1091SOL    HW1 7729   2.180   4.727   6.746 -0.7368  0.0703 -0.1850
 1091SOL    HW2 7730   2.075   4.659   6.830  0.2285 -0.3863  0.6776
 1092SOL     OW 7731   4.724   9.530   1.077  0.4336 -0.0108  0.1041
 1092SOL    HW1 7732   4.710   9.594   1.147 -0.7218  0.9088 -0.9204
 1092SOL    HW2 7733   4.697   9.446   1.115  0.1607  0.4178  0.8715
 1093SOL     OW 7734  10.048  10.934   0.114  0.8257  0.1729  0.6294
 1093SOL    HW1 7735  10.090  11.019   0.102 -0.4474  0.8880  1.0995
 1093SOL    HW2 7736  10.119  10.877   0.145  2.2200  0.4417 -1.7883
 1094SOL     OW 7737   5.773   4.214   2.116 -0.0646  0.0313 -0.1279
 1094SOL    HW1 7738   5.813   4.174   2.193 -2.2204 -1.0042  0.5568
 1094SOL    HW2 7739   5.733   4.295   2.149  1.2516  0.9916 -0.7741
 1095SOL     OW 7740   0.680   2.642   5.204  0.0296  0.5272 -0.3087
 1095SOL    HW1 7741   0.733   2.583   5.149  1.6649 -0.5307  2.1922
 1095SOL    HW2 7742   0.745   2.697   5.249 -0.8706 -0.7103  2.7706
 1096SOL     OW 7743   7.738   1.691   3.032  1.0491  0.0740  0.1370
 1096SOL    HW1 7744   7.809   1.711   3.093 -0.5381  0.8156  1.8349
 1096SOL    HW2 7745   7.672   1.759   3.047  0.4171  0.0832 -2.1840
 1097SOL     OW 7746   3.845   1.462   3.057  0.0977  0.2264  0.4971
 1097SOL    HW1 7747   3.911   1.448   3.125 -0.0908 -1.7875  0.3393
 1097SOL    HW2 7748   3.881   1.532   3.002  0.9972  0.7664  1.7288
 1098SOL     OW 7749   6.705   4.768   2.842 -0.1347 -0.2574  0.3745
 1098SOL    HW1 7750   6.782   4.712   2.837  0.8567  0.9075  1.7540
 1098SOL    HW2 7751   6.696   4.789   2.936 -2.1787 -0.4098  0.2690
 1099SOL     OW 7752   4.339   6.126   6.511  0.0755  0.0912  0.0316
 1099SOL    HW1 7753   4.280   6.088   6.576  0.2077 -0.0186  0.0889
 1099SOL    HW2 7754   4.354   6.216   6.540  0.3530 -0.0404  0.3051
 1100SOL     OW 7755   8.123   9.950   2.091 -0.0051 -0.0469  0.3983
 1100SOL    HW1 7756   8.046  10.006   2.085 -0.4449 -0.7623 -0.7687
 1100SOL    HW2 7757   8.194  10.010   2.114 -0.8357  0.6606  1.1922
 1101SOL     OW 7758   6.357   8.988   0.584 -0.1478 -0.4771 -0.3370
 1101SOL    HW1 7759   6.275   8.953   0.549 -1.2055 -0.5272  2.0313
 1101SOL    HW2 7760   6.332   9.067   0.631  1.4129  0.3799 -0.8662
 1102SOL     OW 7761   1.973   8.225   2.104 -0.0892 -0.0647 -0.2561
 1102SOL    HW1 7762   1.927   8.149   2.070 -3.2136  0.9048  1.3678
 1102SOL    HW2 7763   2.039   8.189   2.163 -2.1306 -1.6148  1.2384
 1103SOL     OW 7764   9.925   8.274  10.764 -0.3286  0.4762  0.1149
 1103SOL    HW1 7765   9.907   8.180  10.767 -0.1448  0.4435  0.2337
 1103SOL    HW2 7766  10.018   8.280  10.744 -0.3384  0.6324  0.1135
 1104SOL     OW 7767   0.286   1.727   9.923 -0.7336  0.5404 -0.1561
 1104SOL    HW1 7768   0.259   1.678  10.000 -1.4414  2.0211  0.5833
 1104SOL    HW2 7769   0.352   1.672   9.881 -1.4422 -0.9820  0.6528
 1105SOL     OW 7770   8.103   8.277   3.025  0.2131 -0.0133  0.5153
 1105SOL    HW1 7771   8.021   8.316   3.054  0.2145  1.3355 -1.1059
 1105SOL    HW2 7772   8.078   8.218   2.954  0.6168  0.5529 -0.1219
 1106SOL     OW 7773   6.408   6.685   2.938 -0.2110  0.0771 -0.0205
 1106SOL    HW1 7774   6.402   6.629   3.016 -0.5487 -0.0256 -0.1161
 1106SOL    HW2 7775   6.414   6.774   2.972  0.6291 -0.0284  0.1422
 1107SOL     OW 7776   4.466   3.095   8.543  0.6298 -0.1247 -0.4033
 1107SOL    HW1 7777   4.542   3.045   8.513  0.8260 -0.6154  0.8660
 1107SOL    HW2 7778   4.391   3.039   8.522  0.5706  0.4060 -1.7558
 1108SOL     OW 7779   1.138   0.233   4.742 -0.2409 -0.7127 -0.6006
 1108SOL    HW1 7780   1.076   0.277   4.684  2.4024  0.4976 -2.6641
 1108SOL    HW2 7781   1.199   0.189   4.684  1.8157 -0.5107  1.2844
 1109SOL     OW 7782   3.934   4.015  10.256 -0.1042  0.1024  0.2164
 1109SOL    HW1 7783   3.968   3.950  10.318 -1.3893 -1.4361 -0.6165
 1109SOL    HW2 7784   4.006   4.029  10.195 -0.3492 -1.9488 -0.6328
 1110SOL     OW 7785   0.223   8.149   5.665 -0.1377 -0.6552  0.0567
 1110SOL    HW1 7786   0.263   8.169   5.580 -1.4338  1.2445 -0.1761
 1110SOL    HW2 7787   0.132   8.127   5.644 -0.7834  0.9407  0.9937
 1111SOL     OW 7788   7.415   7.429   1.322 -0.1534 -0.3972  0.3831
 1111SOL    HW1 7789   7.384   7.344   1.352  0.6737 -0.6470  0.5627
 1111SOL    HW2 7790   7.409   7.485   1.399 -1.2842 -0.1197  0.1045
 1112SOL     OW 7791   4.480   1.109   6.935  0.3005  0.4060 -0.1907
 1112SOL    HW1 7792   4.493   1.153   7.018 -0.3695 -1.2612  0.8454
 1112SOL    HW2 7793   4.386   1.089   6.932  0.0785  1.4957 -1.9113
 1113SOL     OW 7794   0.885  10.455   4.440  0.1229  0.0234  0.2342
 1113SOL    HW1 7795   0.909  10.481   4.529 -0.7661 -3.1584  1.5632
 1113SOL    HW2 7796   0.966  10.425   4.400  0.1890 -0.5364  0.7782
 1114SOL     OW 7797   3.450   5.030   5.436  0.6737  0.1338  0.0278
 1114SOL    HW1 7798   3.396   5.102   5.468  0.3987  0.1033 -0.3630
 1114SOL    HW2 7799   3.434   4.958   5.498  0.2768  0.1296 -0.0772
 1115SOL     OW 7800   2.402   5.178   2.780 -0.6648 -0.3812  0.7613
 1115SOL    HW1 7801   2.406   5.219   2.694 -1.9353  1.1696  1.4026
 1115SOL    HW2 7802   2.437   5.090   2.766  0.4595  0.2978 -1.0361
 1116SOL     OW 7803   1.353   0.511  10.489 -0.1000  0.2728 -0.3298
 1116SOL    HW1 7804   1.268   0.469  10.498  0.0272 -0.5312 -2.3740
 1116SOL    HW2 7805   1.414   0.454  10.535 -0.5254  0.4159  0.4235
 1117SOL     OW 7806   0.684   8.525   6.138 -0.1050 -0.1904 -0.5804
 1117SOL    HW1 7807   0.629   8.537   6.060  0.3001  0.1110 -0.8240
 1117SOL    HW2 7808   0.730   8.442   6.122  0.2511  0.0528 -0.8328
 1118SOL     OW 7809   5.485   4.680   3.842 -0.1057  0.4542  0.2054
 1118SOL    HW1 7810   5.562   4.655   3.893  0.3866  0.7577 -0.3790
 1118SOL    HW2 7811   5.520   4.715   3.760 -0.8665  0.5343 -0.0991
 1119SOL     OW 7812   2.808   3.282   4.738 -0.3070  0.4920 -0.1361
 1119SOL    HW1 7813   2.842   3.286   4.827 -0.6719 -1.0491  0.1166
 1119SOL    HW2 7814   2.713   3.273   4.749 -0.3165 -0.1394 -0.6524
 1120SOL     OW 7815   1.425   0.138   0.602  0.3000  0.4187 -0.6062
 1120SOL    HW1 7816   1.348   0.162   0.653 -0.9737 -0.7081 -1.9117
 1120SOL    HW2 7817   1.490   0.114   0.667 -0.6884  0.6953  0.5185
 1121SOL     OW 7818   9.223   8.723   9.365  0.1004 -0.1086 -0.5117
 1121SOL    HW1 7819   9.273   8.763   9.436 -0.7804  0.2550 -0.0723
 1121SOL    HW2 7820   9.283   8.662   9.324  1.1860  0.9616 -0.5745
 1122SOL     OW 7821   7.731   0.482   0.708 -0.4358 -0.4326  0.4751
 1122SOL    HW1 7822   7.673   0.558   0.711 -0.4542 -0.4477  0.5032
 1122SOL    HW2 7823   7.710   0.438   0.626  0.4735  0.3025 -0.1818
 1123SOL     OW 7824   8.356   7.441   0.811 -0.4125  0.5836  0.0542
 1123SOL    HW1 7825   8.402   7.477   0.886  0.8519 -0.2428 -0.2843
 1123SOL    HW2 7826   8.418   7.452   0.738 -0.7049 -0.6192 -0.3999
 1124SOL     OW 7827   7.964  10.710   2.257 -0.2453  0.0087 -0.0017
 1124SOL    HW1 7828   7.972  10.738   2.166  0.0187 -1.4361 -0.4415
 1124SOL    HW2 7829   7.870  10.705   2.272 -0.2959  0.9149  0.0295
 1125SOL     OW 7830   1.487   8.816   5.199  0.7668 -1.0926  0.5760
 1125SOL    HW1 7831   1.459   8.818   5.107  0.5431 -0.1382  0.6549
 1125SOL    HW2 7832   1.442   8.891   5.239  1.1695 -1.2732  1.3758
 1126SOL     OW 7833   2.672   6.590   0.721  0.1045  0.3662  0.2960
 1126SOL    HW1 7834   2.617   6.530   0.772 -0.4963  2.8071  2.7617
 1126SOL    HW2 7835   2.611   6.628   0.658 -0.3017  0.7403  0.9013
 1127SOL     OW 7836   5.266   8.886   0.259 -0.2212 -0.0950  0.2625
 1127SOL    HW1 7837   5.307   8.859   0.341 -1.1732 -0.9636  0.4708
 1127SOL    HW2 7838   5.331   8.942   0.217 -0.3064  1.7146  2.3552
 1128SOL     OW 7839   6.340   7.267   8.454 -0.3438  0.5301 -0.1309
 1128SOL    HW1 7840   6.312   7.253   8.363 -1.0863  0.8460  0.0400
 1128SOL    HW2 7841   6.431   7.238   8.455 -0.9708 -1.6848 -0.4333
 1129SOL     OW 7842   7.612   7.340   9.534 -0.3310  0.0808  0.0775
 1129SOL    HW1 7843   7.687   7.280   9.528 -0.0454  0.2157  1.8130
 1129SOL    HW2 7844   7.601   7.355   9.627 -2.8312 -0.2680 -0.1022
 1130SOL     OW 7845   2.335   4.529   9.433  0.1630  0.2456  0.0423
 1130SOL    HW1 7846   2.326   4.440   9.465  0.2729  0.6355  1.2090
 1130SOL    HW2 7847   2.246   4.557   9.412  0.1989 -0.3460 -0.9312
 1131SOL     OW 7848   4.976  10.422   4.267 -0.2617 -0.0343 -0.2449
 1131SOL    HW1 7849   4.979  10.327   4.265  0.2678 -0.0136 -1.9133
 1131SOL    HW2 7850   4.954  10.448   4.178  1.8062  1.4473 -0.4123
 1132SOL     OW 7851   5.446   5.885   3.034 -0.9092 -0.0347  0.0530
 1132SOL    HW1 7852   5.447   5.954   2.967 -2.5291 -0.0663 -0.0500
 1132SOL    HW2 7853   5.493   5.812   2.993  2.2846  1.4484  0.7589
 1133SOL     OW 7854  10.024   7.485   8.635  0.2812 -0.1479 -0.5826
 1133SOL    HW1 7855  10.034   7.390   8.642 -1.6566 -0.4658 -1.4606
 1133SOL    HW2 7856  10.107   7.515   8.597  0.7855 -1.5274 -0.6368
 1134SOL     OW 7857   2.592   4.888   4.254 -0.1275 -0.8409  0.2194
 1134SOL    HW1 7858   2.680   4.920   4.231 -0.6607 -0.7987 -2.0065
 1134SOL    HW2 7859   2.584   4.907   4.347  1.7496  0.3252  0.2139
 1135SOL     OW 7860  10.784   0.396   1.386 -0.0062 -0.3435  0.2618
 1135SOL    HW1 7861  10.731   0.385   1.307 -0.5385  1.7024  0.2848
 1135SOL    HW2 7862  10.722   0.385   1.458 -0.2181  0.9456  0.3050
 1136SOL     OW 7863   0.924   6.662   8.252  0.0349 -0.1389 -0.2209
 1136SOL    HW1 7864   0.968   6.605   8.315 -1.0181 -0.9414 -0.1889
 1136SOL    HW2 7865   0.868   6.718   8.305 -0.9692 -0.9201 -0.4435
 1137SOL     OW 7866   0.239   1.138   8.824  0.5998 -0.6656  0.0156
 1137SOL    HW1 7867   0.274   1.189   8.897 -0.5145  0.4520 -0.1890
 1137SOL    HW2 7868   0.213   1.055   8.862  0.7939 -0.4066  0.7264
 1138SOL     OW 7869   7.408   5.970   6.304 -0.0803 -0.6508  0.1526
 1138SOL    HW1 7870   7.481   5.993   6.361 -0.4587  0.2002  0.3003
 1138SOL    HW2 7871   7.450   5.940   6.223  0.4374 -0.7118  0.4358
 1139SOL     OW 7872   4.692   1.513  10.289 -0.0877 -0.4626 -0.4953
 1139SOL    HW1 7873   4.759   1.581  10.298 -0.8090  0.1790  0.0936
 1139SOL    HW2 7874   4.659   1.524  10.200 -1.8657  1.5647  0.3237
 1140SOL     OW 7875   7.079   9.521   9.921  0.7296 -0.1195 -0.2535
 1140SOL    HW1 7876   7.169   9.524   9.952  0.9865  1.2191 -1.0502
 1140SOL    HW2 7877   7.035   9.460   9.980  2.2513 -1.1469 -0.1299
 1141SOL     OW 7878   5.175   1.655   8.742 -0.3888 -0.0412 -0.1460
 1141SOL    HW1 7879   5.129   1.734   8.711 -1.3129 -0.1231  0.9426
 1141SOL    HW2 7880   5.265   1.667   8.711 -0.2822  1.8795  0.7200
 1142SOL     OW 7881   2.852   3.854   1.059  0.0800  0.1337 -0.6245
 1142SOL    HW1 7882   2.816   3.796   1.125  2.5672  0.2716  1.0033
 1142SOL    HW2 7883   2.897   3.796   0.997 -1.3064  0.0815 -1.6228
 1143SOL     OW 7884   9.389  10.206   5.366 -0.1671  0.2793  0.0975
 1143SOL    HW1 7885   9.299  10.228   5.340 -0.6456 -0.3424  1.1371
 1143SOL    HW2 7886   9.408  10.125   5.317 -0.3063  0.2239  0.1317
 1144SOL     OW 7887   6.442   2.883   2.157 -0.3273 -0.0556 -0.4014
 1144SOL    HW1 7888   6.419   2.971   2.187 -0.7772 -0.4497  0.4604
 1144SOL    HW2 7889   6.396   2.872   2.074 -0.1681  0.5651 -0.5770
 1145SOL     OW 7890   8.217   4.917   9.588 -0.3496 -0.1230  0.6575
 1145SOL    HW1 7891   8.216   4.879   9.500 -0.0585  0.4086  0.4146
 1145SOL    HW2 7892   8.125   4.918   9.615 -0.3664 -0.9261  0.6431
 1146SOL     OW 7893  11.017  10.552   4.287  0.0382 -0.4563 -0.3749
 1146SOL    HW1 7894  10.926  10.530   4.263 -0.2765 -0.9654  1.1569
 1146SOL    HW2 7895  11.063  10.468   4.280  0.3991 -0.2079 -1.0940
 1147SOL     OW 7896  10.665   6.469   5.882 -0.1862  0.0246 -0.1189
 1147SOL    HW1 7897  10.578   6.449   5.847  0.1244 -0.5860 -0.5522
 1147SOL    HW2 7898  10.705   6.526   5.816  0.3777 -1.0797 -0.7560
 1148SOL     OW 7899   5.778   3.893   7.148  0.4761 -0.0831  0.5162
 1148SOL    HW1 7900   5.821   3.915   7.065 -0.5266 -1.6822 -0.4778
 1148SOL    HW2 7901   5.688   3.871   7.123  0.5579 -2.1226  1.7860
 1149SOL     OW 7902   1.239   3.828   4.515 -0.2136 -0.2065 -0.4270
 1149SOL    HW1 7903   1.195   3.798   4.436  1.5679 -1.7493 -0.9048
 1149SOL    HW2 7904   1.188   3.792   4.587 -2.8613  2.5997 -0.6771
 1150SOL     OW 7905   3.712   3.143  10.389  0.2023 -0.0529  0.5067
 1150SOL    HW1 7906   3.790   3.170  10.340 -0.9145 -0.6386 -1.7296
 1150SOL    HW2 7907   3.657   3.221  10.392  0.5680  0.1827  1.5255
 1151SOL     OW 7908   9.997   5.613   8.138 -0.1368  0.7202  0.4859
 1151SOL    HW1 7909  10.069   5.672   8.158 -0.8504  2.4435 -1.5954
 1151SOL    HW2 7910  10.035   5.548   8.079  0.3165 -0.0926  1.6384
 1152SOL     OW 7911   6.389   3.423   0.950 -0.2212 -0.0286  0.4296
 1152SOL    HW1 7912   6.316   3.377   0.909  0.3098 -0.8561  0.3814
 1152SOL    HW2 7913   6.354   3.510   0.972 -0.4115  0.6266 -2.1647
 1153SOL     OW 7914   4.862   7.344   7.360 -0.2362 -0.2425 -0.9037
 1153SOL    HW1 7915   4.874   7.413   7.294  0.3557  1.2299  0.6649
 1153SOL    HW2 7916   4.768   7.343   7.377 -0.0909  1.4254  0.2610
 1154SOL     OW 7917   8.815  10.330   8.673 -0.0111  0.3171  0.0453
 1154SOL    HW1 7918   8.806  10.341   8.768  0.6432 -0.2767  0.1897
 1154SOL    HW2 7919   8.775  10.245   8.655 -0.0627  0.3935 -0.2050
 1155SOL     OW 7920   0.779   8.136   0.875 -0.0437 -0.3569  0.3636
 1155SOL    HW1 7921   0.871   8.143   0.849  0.0013 -2.7053 -0.3360
 1155SOL    HW2 7922   0.781   8.114   0.968  0.0633  0.0630  0.4646
 1156SOL     OW 7923   2.570   6.347   2.519  0.1461  0.0799  0.4143
 1156SOL    HW1 7924   2.545   6.433   2.551 -0.0594  0.2946 -0.2903
 1156SOL    HW2 7925   2.516   6.285   2.568 -1.4784  0.5054 -0.7539
 1157SOL     OW 7926   3.687   3.743  10.520 -1.0384  0.0599  0.0852
 1157SOL    HW1 7927   3.727   3.776  10.440 -0.2698 -1.2345 -0.0958
 1157SOL    HW2 7928   3.649   3.658  10.495  1.4430 -1.6220  1.5921
 1158SOL     OW 7929   7.183   7.590   4.989  0.5439  0.2982  0.0104
 1158SOL    HW1 7930   7.098   7.582   4.945  0.9388  0.1491 -0.7466
 1158SOL    HW2 7931   7.166   7.564   5.079 -0.2501  0.4364 -0.0899
 1159SOL     OW 7932   0.811   4.380   8.760 -0.0989  0.2365  0.3791
 1159SOL    HW1 7933   0.759   4.355   8.684  0.6058 -0.2679  0.0547
 1159SOL    HW2 7934   0.753   4.436   8.812 -0.9945 -0.3954  0.0787
 1160SOL     OW 7935   7.786   2.377   3.379  0.4758  0.0232 -0.1308
 1160SOL    HW1 7936   7.764   2.469   3.363  3.4300  1.0452  1.0767
 1160SOL    HW2 7937   7.716   2.346   3.438 -0.9373  1.2287 -1.0868
 1161SOL     OW 7938   7.184   9.106   3.272 -0.2724  0.2757  0.1460
 1161SOL    HW1 7939   7.209   9.017   3.296 -2.9175 -0.7995 -0.6703
 1161SOL    HW2 7940   7.181   9.105   3.177  1.3002  1.8007  0.0317
 1162SOL     OW 7941  10.919   8.632   2.151  0.3890 -0.1821  0.3899
 1162SOL    HW1 7942  10.920   8.684   2.071  2.4465 -0.4638  0.1805
 1162SOL    HW2 7943  10.886   8.546   2.124  1.0639 -0.2741 -0.1864
 1163SOL     OW 7944   2.203   2.627   1.390  0.4494 -0.1355  0.1060
 1163SOL    HW1 7945   2.199   2.537   1.422  1.4347  0.0201  0.7175
 1163SOL    HW2 7946   2.112   2.649   1.369  0.2166 -1.3115 -0.1930
 1164SOL     OW 7947   4.775   2.256   2.265  0.0489 -0.3738  0.7869
 1164SOL    HW1 7948   4.815   2.225   2.184 -2.3709  1.4329 -1.2284
 1164SOL    HW2 7949   4.719   2.184   2.293  0.1368 -0.6337  0.3113
 1165SOL     OW 7950   0.322   0.121   5.242  0.1241 -0.3697  0.3813
 1165SOL    HW1 7951   0.345   0.189   5.306  0.3983 -1.3613  1.3558
 1165SOL    HW2 7952   0.405   0.085   5.213 -0.0259 -0.3432 -0.0986
 1166SOL     OW 7953   5.011   3.978   1.197  0.4064  0.2241 -0.2270
 1166SOL    HW1 7954   4.955   4.048   1.231  0.6396  1.2795 -1.9170
 1166SOL    HW2 7955   4.953   3.902   1.190 -0.5549  0.9940 -0.8923
 1167SOL     OW 7956   9.758   2.534  10.902  0.4496  0.1994 -0.6942
 1167SOL    HW1 7957   9.786   2.600  10.966 -2.2754  1.7369 -0.9482
 1167SOL    HW2 7958   9.706   2.472  10.953  1.8382 -1.0619 -0.7269
 1168SOL     OW 7959  10.276   6.739  10.887 -0.3858 -0.1481 -0.0311
 1168SOL    HW1 7960  10.305   6.732  10.796  0.6677 -1.0210  0.3559
 1168SOL    HW2 7961  10.356   6.732  10.939 -1.0627 -0.4934  0.9943
 1169SOL     OW 7962   9.351   5.120   3.242  0.9083  0.0717  0.2582
 1169SOL    HW1 7963   9.345   5.029   3.270  0.7679 -0.2228 -0.7192
 1169SOL    HW2 7964   9.287   5.128   3.171 -0.6473  1.4702  1.7171
 1170SOL     OW 7965   8.822   9.884   8.484  0.4082 -0.4596  0.4030
 1170SOL    HW1 7966   8.797   9.948   8.551  1.0290 -0.1840  0.3816
 1170SOL    HW2 7967   8.868   9.815   8.532  0.4816 -0.4706  0.3197
 1171SOL     OW 7968   1.985   3.395   1.220 -0.2901  0.4285  0.0107
 1171SOL    HW1 7969   2.068   3.418   1.262  0.6085 -0.1118 -1.4253
 1171SOL    HW2 7970   1.985   3.300   1.218 -0.0599  0.4330 -1.6354
 1172SOL     OW 7971   3.799   4.301   1.964 -0.0454 -0.1939  0.1323
 1172SOL    HW1 7972   3.745   4.243   1.911 -1.4703  2.0207 -0.9634
 1172SOL    HW2 7973   3.851   4.351   1.901  0.9313 -0.0576  1.0190
 1173SOL     OW 7974   8.969   3.595  10.220  0.6145  0.3236 -0.3340
 1173SOL    HW1 7975   8.975   3.681  10.179 -0.7487  0.7148  0.2259
 1173SOL    HW2 7976   9.060   3.569  10.234  1.0673  1.1568 -1.5536
 1174SOL     OW 7977   0.083  10.808   3.951  0.5830  0.4613  0.4495
 1174SOL    HW1 7978   0.123  10.777   4.032 -0.7142  0.5053  1.1362
 1174SOL    HW2 7979   0.017  10.742   3.930  1.8718 -0.3172 -1.4029
 1175SOL     OW 7980   1.034   9.204   6.653 -0.7257 -0.1519 -0.1398
 1175SOL    HW1 7981   0.945   9.173   6.668 -0.3773 -0.2019  2.1331
 1175SOL    HW2 7982   1.051   9.184   6.561 -2.3968 -1.8753 -0.1352
 1176SOL     OW 7983   4.892   2.551   6.998  0.7853 -0.0231 -0.3227
 1176SOL    HW1 7984   4.851   2.612   6.936  0.3612  0.7133  0.6658
 1176SOL    HW2 7985   4.819   2.498   7.030  0.6912  0.8242  0.9163
 1177SOL     OW 7986   8.137   4.534   9.744 -0.3862  0.0702  0.5545
 1177SOL    HW1 7987   8.085   4.462   9.779 -0.1166 -0.1942  0.4120
 1177SOL    HW2 7988   8.169   4.502   9.660  3.5861 -1.5096  2.4138
 1178SOL     OW 7989   9.003   9.043   2.165 -0.3007 -0.1231  0.6680
 1178SOL    HW1 7990   9.028   8.956   2.194  0.0268 -0.3981 -0.3792
 1178SOL    HW2 7991   9.013   9.098   2.243  1.5007 -0.6352  0.8590
 1179SOL     OW 7992   0.883   3.890   9.752  0.0661 -0.0244 -0.0945
 1179SOL    HW1 7993   0.812   3.914   9.811 -0.5844  0.6372 -1.1197
 1179SOL    HW2 7994   0.922   3.973   9.726  0.4833 -0.3184 -0.4321
 1180SOL     OW 7995  10.470   6.298   7.724 -0.2500  0.5876  0.4082
 1180SOL    HW1 7996  10.392   6.340   7.687 -1.1506  0.2773  1.8870
 1180SOL    HW2 7997  10.476   6.333   7.813 -0.0693 -1.1540  1.1075
 1181SOL     OW 7998   3.726   9.703   3.419 -0.0436 -0.4023  0.3309
 1181SOL    HW1 7999   3.668   9.634   3.385  1.0657 -0.9638 -0.4896
 1181SOL    HW2 8000   3.689   9.784   3.385  0.0604 -0.8168 -0.8125
 1182SOL     OW 8001  11.064   7.688   5.434 -0.1377  1.0078  0.0852
 1182SOL    HW1 8002  11.137   7.743   5.406  1.4748  0.5333  3.0004
 1182SOL    HW2 8003  11.105   7.611   5.472 -2.2369 -0.0685  0.3060
 1183SOL     OW 8004   6.533   1.069   0.732  0.5806  0.6408 -0.1310
 1183SOL    HW1 8005   6.558   1.078   0.640 -1.8166  1.5048 -0.7606
 1183SOL    HW2 8006   6.563   1.150   0.774  1.8248  0.1719 -0.0844
 1184SOL     OW 8007   9.542  10.264   3.991  0.0697  0.3052 -0.1726
 1184SOL    HW1 8008   9.570  10.355   3.992  0.0385  0.3346 -0.8683
 1184SOL    HW2 8009   9.622  10.214   4.009 -0.1175  0.4983  1.2321
 1185SOL     OW 8010   4.775   3.285   3.017  0.1364 -0.1772 -0.1397
 1185SOL    HW1 8011   4.828   3.280   2.938 -0.5132  1.1302 -0.6950
 1185SOL    HW2 8012   4.712   3.355   2.999  0.4498  0.6772  1.8033
 1186SOL     OW 8013   7.133   8.574   5.995  0.0819  0.0084  0.0457
 1186SOL    HW1 8014   7.221   8.538   6.003 -0.0598 -0.0982  1.2901
 1186SOL    HW2 8015   7.088   8.547   6.075 -2.4686 -3.6627 -2.3188
 1187SOL     OW 8016   8.639   9.985   0.471 -0.0067 -0.1215  0.2261
 1187SOL    HW1 8017   8.613   9.893   0.476 -0.5572 -0.0367 -0.8646
 1187SOL    HW2 8018   8.649  10.011   0.563 -0.3368 -1.1238  0.5662
 1188SOL     OW 8019   0.182   8.009  10.563 -0.6222  0.1879  0.6377
 1188SOL    HW1 8020   0.118   8.020  10.493  1.7637 -1.8841 -2.1529
 1188SOL    HW2 8021   0.266   8.034  10.523  0.6296  0.8882  3.4503
 1189SOL     OW 8022   3.707   1.218   7.220 -0.1633 -0.2842  0.1918
 1189SOL    HW1 8023   3.717   1.302   7.265  1.2965 -0.5136  0.3724
 1189SOL    HW2 8024   3.621   1.222   7.180  0.4834  1.9645 -1.1662
 1190SOL     OW 8025   9.577   9.417   3.293 -0.1168  0.3244 -0.1112
 1190SOL    HW1 8026   9.580   9.494   3.237  2.3373  1.8598  1.9001
 1190SOL    HW2 8027   9.665   9.380   3.288 -0.8958 -1.6571 -0.0636
 1191SOL     OW 8028   5.049  10.492   6.156 -0.0861 -0.6656  0.0751
 1191SOL    HW1 8029   5.062  10.576   6.201 -0.6820  0.4325 -1.6492
 1191SOL    HW2 8030   5.133  10.475   6.114 -0.0984 -0.6931  0.0615
 1192SOL     OW 8031   0.422   2.209  10.124  0.3729 -0.4479  0.3646
 1192SOL    HW1 8032   0.506   2.224  10.080 -0.4304  0.2198 -1.0242
 1192SOL    HW2 8033   0.393   2.124  10.090  0.2887 -0.4894  0.5392
 1193SOL     OW 8034   9.292   6.372   6.559  0.1683  0.1641 -0.1462
 1193SOL    HW1 8035   9.199   6.354   6.571 -0.0203  0.4705 -1.0704
 1193SOL    HW2 8036   9.312   6.336   6.473  0.1232  2.9136 -1.4215
 1194SOL     OW 8037   3.726   2.440  10.509 -0.1853  0.1286 -0.4218
 1194SOL    HW1 8038   3.752   2.460  10.419 -2.6281  0.3965 -1.1483
 1194SOL    HW2 8039   3.637   2.404  10.501 -1.4340  2.2778  2.0222
 1195SOL     OW 8040   6.832   6.424   5.118  0.1044 -0.9262  0.4543
 1195SOL    HW1 8041   6.920   6.385   5.112  0.7495  0.5963 -0.7131
 1195SOL    HW2 8042   6.828   6.462   5.205  1.5744  1.0944 -0.3064
 1196SOL     OW 8043  10.493   0.545   8.142  0.3054  0.6251  0.3865
 1196SOL    HW1 8044  10.542   0.610   8.093  0.4241  0.6258  0.5063
 1196SOL    HW2 8045  10.408   0.586   8.159  0.6509  1.0426  1.1243
 1197SOL     OW 8046   3.354   7.020   4.465  0.3166 -0.2611  0.0267
 1197SOL    HW1 8047   3.376   7.035   4.373  1.0443 -2.5326 -0.2381
 1197SOL    HW2 8048   3.438   7.000   4.506 -0.0860  0.1329  1.0838
 1198SOL     OW 8049   1.801   1.973   7.591 -0.3297  0.1398  1.3184
 1198SOL    HW1 8050   1.798   1.877   7.588 -0.8800  0.1604  1.1120
 1198SOL    HW2 8051   1.850   1.998   7.513  1.1596 -0.0239  2.1662
 1199SOL     OW 8052   1.761   8.905   4.360 -0.3289  0.1342 -0.0659
 1199SOL    HW1 8053   1.668   8.887   4.369 -0.0044 -1.3314  0.7270
 1199SOL    HW2 8054   1.804   8.823   4.383  1.0931 -0.4410 -4.0159
 1200SOL     OW 8055   2.242   6.643   1.290 -0.0834 -0.1744 -0.1904
 1200SOL    HW1 8056   2.196   6.627   1.372  0.5189 -0.3946  0.1163
 1200SOL    HW2 8057   2.335   6.638   1.314  0.1772 -3.2881 -1.4356
 1201SOL     OW 8058  10.571  10.759   0.372  0.2222 -0.3776  0.1216
 1201SOL    HW1 8059  10.663  10.769   0.348  0.1578 -1.0656 -0.4549
 1201SOL    HW2 8060  10.544  10.677   0.330 -0.6607 -0.1648  0.2473
 1202SOL     OW 8061   2.168   0.966   5.505  0.1055 -0.6598 -0.1550
 1202SOL    HW1 8062   2.229   1.026   5.462  0.9799 -1.8000 -0.5633
 1202SOL    HW2 8063   2.082   0.990   5.471  0.6107 -0.6094 -1.4382
 1203SOL     OW 8064   4.679   5.952   4.478 -0.8328  0.4217 -0.1161
 1203SOL    HW1 8065   4.616   5.915   4.540 -0.3495 -0.1671  0.0456
 1203SOL    HW2 8066   4.660   6.045   4.477  0.1016  0.6993  2.0905
 1204SOL     OW 8067   3.153   9.906  10.111  0.0549 -0.6555  0.1153
 1204SOL    HW1 8068   3.156   9.892  10.206  0.9526 -1.7752 -0.0613
 1204SOL    HW2 8069   3.082   9.969  10.099  1.5626  1.5318  1.7731
 1205SOL     OW 8070   2.281   0.790   7.183 -0.2918 -0.3707 -0.0330
 1205SOL    HW1 8071   2.266   0.702   7.147  1.2240 -1.1835  1.1730
 1205SOL    HW2 8072   2.193   0.826   7.196 -0.9440 -1.6555 -0.6766
 1206SOL     OW 8073   0.574   0.431   8.089 -0.3183 -0.1724  0.9565
 1206SOL    HW1 8074   0.550   0.508   8.038  0.7154  0.2331  1.0731
 1206SOL    HW2 8075   0.578   0.360   8.024  2.6388  0.6490  0.0760
 1207SOL     OW 8076   8.337   9.357   4.792 -0.3744 -0.6192  0.2991
 1207SOL    HW1 8077   8.351   9.349   4.697  0.0794 -0.5232  0.3578
 1207SOL    HW2 8078   8.416   9.321   4.831 -0.5329 -0.5960  0.6439
 1208SOL     OW 8079   3.541   3.641   3.796  0.3325 -0.0077  0.0039
 1208SOL    HW1 8080   3.447   3.644   3.775  0.1915  0.1737  0.6409
 1208SOL    HW2 8081   3.585   3.650   3.711 -0.2230  0.2498 -0.2613
 1209SOL     OW 8082   9.903   4.853   9.678  0.4292  0.5703 -0.0364
 1209SOL    HW1 8083   9.916   4.761   9.701 -3.5491 -0.7772 -2.1572
 1209SOL    HW2 8084   9.884   4.896   9.762 -0.8403 -1.2957  0.6879
 1210SOL     OW 8085   0.841   7.803  10.930 -0.0242  0.6998 -0.6054
 1210SOL    HW1 8086   0.935   7.789  10.937  0.0740  2.0590  2.4265
 1210SOL    HW2 8087   0.803   7.732  10.983 -0.8970 -0.8456 -3.1424
 1211SOL     OW 8088  10.040   2.160   9.791 -0.0149 -0.2476 -0.0979
 1211SOL    HW1 8089  10.012   2.200   9.708  1.7805  0.3641 -0.4458
 1211SOL    HW2 8090  10.126   2.124   9.772  0.5967  0.2402  1.5931
 1212SOL     OW 8091   6.610   1.511   4.683 -0.1905 -0.4216  0.2270
 1212SOL    HW1 8092   6.604   1.532   4.590 -0.1665 -1.7057 -0.0931
 1212SOL    HW2 8093   6.581   1.420   4.688 -1.0478 -0.0962  1.6061
 1213SOL     OW 8094   1.354   5.528   3.739 -0.4103 -0.2085  0.4652
 1213SOL    HW1 8095   1.400   5.597   3.693 -1.0913  0.1677  0.3293
 1213SOL    HW2 8096   1.298   5.488   3.673 -2.1549  0.9942  1.1397
 1214SOL     OW 8097   0.401   5.535   6.742 -0.3175 -0.0858  0.4306
 1214SOL    HW1 8098   0.377   5.613   6.793 -0.2878  1.0699 -1.2266
 1214SOL    HW2 8099   0.318   5.504   6.705 -0.3984 -1.1573  1.4590
 1215SOL     OW 8100   7.369   2.016   3.510  0.0423 -0.1283  0.7372
 1215SOL    HW1 8101   7.297   1.961   3.477  0.1195 -1.3965  2.5629
 1215SOL    HW2 8102   7.324   2.090   3.551 -0.0507  1.7663 -2.4588
 1216SOL     OW 8103   4.462   3.390   9.526 -0.1394 -0.4271 -0.0484
 1216SOL    HW1 8104   4.419   3.438   9.596 -2.2085 -1.2822 -0.6736
 1216SOL    HW2 8105   4.422   3.303   9.528  2.2908 -1.6549 -0.0331
 1217SOL     OW 8106   4.429   1.253   5.644 -0.1597 -0.0225  0.2899
 1217SOL    HW1 8107   4.516   1.214   5.651  0.3979  1.2525  0.5950
 1217SOL    HW2 8108   4.404   1.272   5.735 -0.2510  0.7115  0.1102
 1218SOL     OW 8109   6.502   2.438   7.677  0.4282 -0.5718  0.0962
 1218SOL    HW1 8110   6.596   2.457   7.678  0.3332 -0.0957  1.4081
 1218SOL    HW2 8111   6.471   2.465   7.763 -0.8251 -1.2085 -0.1340
 1219SOL     OW 8112   5.753   2.849   8.048  0.7136 -0.4600  0.3225
 1219SOL    HW1 8113   5.672   2.806   8.074  0.2863 -0.6542 -1.2298
 1219SOL    HW2 8114   5.736   2.942   8.060 -0.6569 -0.2993 -2.2238
 1220SOL     OW 8115   7.644   2.784   7.396 -0.0066 -0.4087 -0.3167
 1220SOL    HW1 8116   7.711   2.777   7.464  0.2911 -0.5810 -0.6223
 1220SOL    HW2 8117   7.575   2.837   7.436 -0.6169 -1.9138  0.7262
 1221SOL     OW 8118   0.172   0.512   3.143  0.2505  0.1327  0.3300
 1221SOL    HW1 8119   0.181   0.469   3.058  1.0583  0.2121  0.3708
 1221SOL    HW2 8120   0.082   0.493   3.170 -0.2052  0.5868 -0.8009
 1222SOL     OW 8121   4.345   9.395   6.549 -0.1066  0.3584 -0.4208
 1222SOL    HW1 8122   4.271   9.408   6.490 -0.7753 -0.5960  0.1694
 1222SOL    HW2 8123   4.345   9.472   6.605 -0.5316  0.4584 -0.5560
 1223SOL     OW 8124   5.038  10.674  10.244  0.0025  0.0542 -0.2140
 1223SOL    HW1 8125   5.083  10.735  10.187 -0.0308  1.2138  0.9592
 1223SOL    HW2 8126   5.084  10.679  10.328 -0.4472 -0.9917  0.1227
 1224SOL     OW 8127  10.566   1.732   5.007  0.0389 -0.1576 -0.0314
 1224SOL    HW1 8128  10.630   1.669   5.038 -0.2001 -0.4330 -0.0989
 1224SOL    HW2 8129  10.595   1.754   4.918 -0.3750 -0.8429 -0.3403
 1225SOL     OW 8130   7.427   9.872   5.105  0.0911  0.2428 -0.6133
 1225SOL    HW1 8131   7.361   9.928   5.065 -0.4709 -0.1085 -0.1738
 1225SOL    HW2 8132   7.459   9.921   5.180 -0.9782 -0.3504  0.2520
 1226SOL     OW 8133   1.462   8.531   6.359  0.3104  0.1746  0.2341
 1226SOL    HW1 8134   1.488   8.537   6.451 -1.4185  1.3327  0.6838
 1226SOL    HW2 8135   1.370   8.556   6.358  1.0114  3.4299 -2.1705
 1227SOL     OW 8136  10.746   8.950   1.297 -0.5112  0.1975  0.7337
 1227SOL    HW1 8137  10.760   9.021   1.361  1.5997  0.5581 -0.0403
 1227SOL    HW2 8138  10.808   8.882   1.323 -1.4985 -0.7920  0.5981
 1228SOL     OW 8139   1.164   0.599   8.644 -0.5973  0.0894  0.0934
 1228SOL    HW1 8140   1.181   0.693   8.648 -1.2974  0.2240 -0.0101
 1228SOL    HW2 8141   1.153   0.580   8.550  0.5907 -0.2935  0.0145
 1229SOL     OW 8142   5.885   1.934   2.203 -0.3018  0.4393 -0.4977
 1229SOL    HW1 8143   5.922   1.976   2.280 -1.6226  0.4628  0.1520
 1229SOL    HW2 8144   5.881   2.003   2.137 -0.9570  0.9305  0.0437
 1230SOL     OW 8145   8.564   1.814   5.613 -0.2490  0.5097  0.2777
 1230SOL    HW1 8146   8.558   1.793   5.706  0.2406 -1.4383 -0.0790
 1230SOL    HW2 8147   8.475   1.800   5.580  0.0270 -0.9670  0.0849
 1231SOL     OW 8148   6.138   1.984   0.117 -0.3587 -0.3480  0.5094
 1231SOL    HW1 8149   6.099   1.985   0.204  0.9974 -1.0911  1.1513
 1231SOL    HW2 8150   6.130   1.893   0.088  0.9421 -0.5350  0.6914
 1232SOL     OW 8151   1.185  10.135   6.769  0.3506 -0.0525 -0.7924
 1232SOL    HW1 8152   1.191  10.178   6.684 -1.7500  0.6401 -0.6635
 1232SOL    HW2 8153   1.205  10.204   6.832  0.5324 -0.2033 -0.6846
 1233SOL     OW 8154   7.437   9.265   8.676 -0.2779 -0.3256 -0.0656
 1233SOL    HW1 8155   7.455   9.300   8.763  0.6033 -0.1906 -0.2980
 1233SOL    HW2 8156   7.456   9.337   8.616 -0.6654 -0.4857 -0.3915
 1234SOL     OW 8157   4.010   8.854   8.050 -0.0838  0.4983  0.1578
 1234SOL    HW1 8158   3.985   8.871   7.959  0.0972 -0.8907 -0.1859
 1234SOL    HW2 8159   3.966   8.922   8.101 -0.4255  1.1197 -0.9353
 1235SOL     OW 8160   5.356   5.831   8.403 -0.0122 -0.4846  0.6902
 1235SOL    HW1 8161   5.408   5.756   8.434  0.5441 -0.5043 -0.2467
 1235SOL    HW2 8162   5.391   5.850   8.316 -0.8486  0.2139  0.4916
 1236SOL     OW 8163   9.141  10.893   9.432  0.3790  0.1204 -0.3232
 1236SOL    HW1 8164   9.170  10.814   9.478  1.6900  1.0487  0.5056
 1236SOL    HW2 8165   9.047  10.881   9.421  0.6090 -1.7365 -0.5862
 1237SOL     OW 8166  10.336   0.853   5.135  0.7237  0.0141  0.0233
 1237SOL    HW1 8167  10.372   0.934   5.100 -1.2650  1.4465  1.1304
 1237SOL    HW2 8168  10.378   0.843   5.220  1.7005 -0.7006 -0.5152
 1238SOL     OW 8169   1.733   2.232  10.364 -0.1267  0.1816 -0.0172
 1238SOL    HW1 8170   1.661   2.171  10.350  1.1442 -0.6605 -4.3062
 1238SOL    HW2 8171   1.799   2.182  10.412 -0.8973 -0.2820  0.5658
 1239SOL     OW 8172   3.273   6.208   6.085  0.5403  0.2774  1.0503
 1239SOL    HW1 8173   3.295   6.205   5.992  2.3034  1.3078  1.3882
 1239SOL    HW2 8174   3.340   6.155   6.128 -1.0320 -1.3403  1.6681
 1240SOL     OW 8175   4.542   9.082   9.614 -0.3129  0.4199 -0.5773
 1240SOL    HW1 8176   4.623   9.078   9.563  0.5087 -2.2025  0.7932
 1240SOL    HW2 8177   4.538   9.173   9.644  1.6142  0.8404 -1.4339
 1241SOL     OW 8178   0.361   2.943   3.252 -0.1568  0.4313  0.0169
 1241SOL    HW1 8179   0.393   2.903   3.333  0.4812  2.7158  0.9818
 1241SOL    HW2 8180   0.313   2.873   3.208 -0.4400 -0.9300  2.3063
 1242SOL     OW 8181   9.558   8.805   6.027 -0.8147 -0.0757  0.4255
 1242SOL    HW1 8182   9.591   8.716   6.014 -0.4631 -0.1321  1.6334
 1242SOL    HW2 8183   9.588   8.853   5.949  1.3544 -0.3575  1.0218
 1243SOL     OW 8184   9.582   8.625   1.971 -0.4330 -0.3505  0.3416
 1243SOL    HW1 8185   9.590   8.694   2.037 -0.0408  0.0600 -0.1186
 1243SOL    HW2 8186   9.490   8.599   1.973 -0.3374 -0.6600  1.3524
 1244SOL     OW 8187  10.357   5.638   2.618 -0.6154  0.3948 -0.0879
 1244SOL    HW1 8188  10.402   5.565   2.577  1.1383  1.9562 -1.1208
 1244SOL    HW2 8189  10.292   5.665   2.553 -0.1502  0.7549 -0.4092
 1245SOL     OW 8190   0.867   9.675   6.895 -0.2018  0.1997  0.3371
 1245SOL    HW1 8191   0.791   9.675   6.953  0.0813 -1.9514  0.8228
 1245SOL    HW2 8192   0.882   9.767   6.873 -2.8259  0.6943  0.3522
 1246SOL     OW 8193   0.309   7.608   6.852 -0.1451  0.2531  0.2466
 1246SOL    HW1 8194   0.253   7.684   6.866 -1.7690 -0.7057 -0.6536
 1246SOL    HW2 8195   0.378   7.639   6.794 -1.1367  0.9133 -0.6153
 1247SOL     OW 8196  10.583   3.963   5.964 -0.2590  0.1417 -0.3066
 1247SOL    HW1 8197  10.649   3.927   5.905 -2.3166 -2.4692 -1.2169
 1247SOL    HW2 8198  10.532   3.887   5.991 -3.1911  2.0714 -0.0351
 1248SOL     OW 8199   0.488   6.730   6.651  0.4958 -0.0698  0.4135
 1248SOL    HW1 8200   0.533   6.687   6.578 -0.3214  0.4371 -0.4067
 1248SOL    HW2 8201   0.471   6.659   6.713 -0.7549 -0.9563 -0.8750
 1249SOL     OW 8202   2.826   1.376   6.668 -0.3926 -0.3509 -0.0527
 1249SOL    HW1 8203   2.897   1.387   6.605 -1.8053  0.1736 -1.6179
 1249SOL    HW2 8204   2.859   1.414   6.749  1.4431 -0.9644 -0.4697
 1250SOL     OW 8205   0.075   5.381   5.989 -0.1878 -0.4312  0.2943
 1250SOL    HW1 8206   0.113   5.468   5.997  1.1031 -1.0764  1.5916
 1250SOL    HW2 8207  -0.013   5.396   5.955  0.0295  1.3596  0.4513
 1251SOL     OW 8208   4.955   9.871   7.341  0.4374 -0.0714  0.0646
 1251SOL    HW1 8209   5.000   9.806   7.288  2.2269  0.5023  0.8167
 1251SOL    HW2 8210   4.970   9.954   7.296 -1.5726 -0.0683 -0.7261
 1252SOL     OW 8211   9.310   1.094   7.767 -0.3368  0.3439  0.0016
 1252SOL    HW1 8212   9.218   1.073   7.781 -0.3264 -0.1685 -0.6737
 1252SOL    HW2 8213   9.321   1.094   7.672  1.1323 -3.3027  0.0045
 1253SOL     OW 8214   6.857   8.528   6.032 -0.1516 -0.0596  0.2799
 1253SOL    HW1 8215   6.913   8.581   6.089  0.3783 -0.2014 -0.0955
 1253SOL    HW2 8216   6.813   8.467   6.092 -0.2267  0.3365  0.6301
 1254SOL     OW 8217   3.720   1.695   9.382  0.2855  0.1931  0.0633
 1254SOL    HW1 8218   3.777   1.771   9.397  0.8541 -0.2147 -0.0276
 1254SOL    HW2 8219   3.744   1.663   9.295 -0.3545  0.2476 -0.1389
 1255SOL     OW 8220   9.501   6.200   9.537  0.2706 -0.0382 -0.2162
 1255SOL    HW1 8221   9.577   6.166   9.585  0.0863  0.8010  0.6938
 1255SOL    HW2 8222   9.521   6.292   9.523 -0.6861  0.2416  0.2322
 1256SOL     OW 8223   5.613   7.096   7.047  0.4260  0.5584 -0.2870
 1256SOL    HW1 8224   5.646   7.118   7.134 -1.0442  1.0428  0.1905
 1256SOL    HW2 8225   5.621   7.000   7.042 -1.7397  0.1848  1.4547
 1257SOL     OW 8226   4.435   1.079   2.069  0.2137  0.7201 -0.1292
 1257SOL    HW1 8227   4.529   1.075   2.054  0.3001 -1.4925  0.6667
 1257SOL    HW2 8228   4.405   0.989   2.060 -1.7976  1.3248 -0.0452
 1258SOL     OW 8229   7.225   3.658   3.819  0.1968 -0.1349  0.1341
 1258SOL    HW1 8230   7.135   3.644   3.848 -0.0176 -1.0962 -0.9215
 1258SOL    HW2 8231   7.277   3.603   3.877 -0.0270 -0.5256 -0.0290
 1259SOL     OW 8232   0.829  10.072   1.182  0.4926 -0.0360  0.4147
 1259SOL    HW1 8233   0.846  10.095   1.091 -0.8733 -2.6786 -0.5950
 1259SOL    HW2 8234   0.853  10.151   1.231  2.3900  1.0727 -2.0681
 1260SOL     OW 8235   1.090   9.052   1.924  0.0691 -0.2846 -0.7012
 1260SOL    HW1 8236   1.103   9.140   1.959  0.0352 -0.5072 -0.1271
 1260SOL    HW2 8237   1.034   9.008   1.987  0.3864 -0.8371 -0.7903
 1261SOL     OW 8238   7.245   9.543   1.538  0.4601 -0.1077  0.5696
 1261SOL    HW1 8239   7.264   9.540   1.632 -1.6750  1.4801  1.1364
 1261SOL    HW2 8240   7.281   9.627   1.509  0.2233 -0.1301  0.2087
 1262SOL     OW 8241   9.779   3.286   3.894  0.4702  0.0896 -0.3998
 1262SOL    HW1 8242   9.784   3.227   3.818  1.0397 -0.9505  0.4218
 1262SOL    HW2 8243   9.870   3.306   3.915  0.2835  2.8321 -1.7986
 1263SOL     OW 8244  10.079  10.134   6.075 -0.1077 -0.7015  0.6293
 1263SOL    HW1 8245   9.995  10.136   6.029 -0.2625  0.8312  0.9113
 1263SOL    HW2 8246  10.063  10.079   6.152 -0.6300 -1.0281  0.2933
 1264SOL     OW 8247   0.316   3.364   1.470 -0.7708  0.7894  0.5370
 1264SOL    HW1 8248   0.383   3.423   1.437 -1.6466  1.4830 -0.0595
 1264SOL    HW2 8249   0.287   3.405   1.552 -3.1262  2.6207 -1.0904
 1265SOL     OW 8250  10.040   2.971   1.001 -0.0829 -0.4125 -0.2808
 1265SOL    HW1 8251  10.049   2.982   0.907 -0.5257  0.6090 -0.2141
 1265SOL    HW2 8252  10.036   2.876   1.014  0.1597 -0.5634 -1.2649
 1266SOL     OW 8253   1.052   8.236   7.421 -1.1099 -0.0249 -0.1211
 1266SOL    HW1 8254   1.056   8.201   7.332 -0.5816  1.5536 -0.7450
 1266SOL    HW2 8255   0.967   8.279   7.426 -1.7878 -1.3837  0.6701
 1267SOL     OW 8256   9.114   9.428   2.771 -0.3141  0.2640  0.2832
 1267SOL    HW1 8257   9.090   9.352   2.823 -0.0193 -0.0269 -0.0040
 1267SOL    HW2 8258   9.031   9.474   2.755 -0.7401 -0.8702 -0.9350
 1268SOL     OW 8259   7.116   4.908   1.775  0.0861  0.0845  0.0458
 1268SOL    HW1 8260   7.137   4.947   1.690  1.5323 -1.8664 -0.5862
 1268SOL    HW2 8261   7.200   4.879   1.810 -0.8792 -3.2643 -0.0479
 1269SOL     OW 8262   1.807   5.663   7.398 -0.3530  0.1206 -0.1269
 1269SOL    HW1 8263   1.840   5.590   7.346  0.8874 -0.6038  1.6125
 1269SOL    HW2 8264   1.740   5.625   7.454  0.6386  0.1717  1.1385
 1270SOL     OW 8265   7.470   1.096   7.902 -0.2921  0.2522 -0.4131
 1270SOL    HW1 8266   7.468   1.065   7.812 -0.8801  0.3742 -0.4468
 1270SOL    HW2 8267   7.379   1.114   7.923 -0.4426 -1.6570  0.8587
 1271SOL     OW 8268   1.781   0.118   3.580 -0.0379 -0.7728 -0.4348
 1271SOL    HW1 8269   1.854   0.112   3.518  0.4066  2.4348 -0.4021
 1271SOL    HW2 8270   1.816   0.166   3.655 -1.4642 -1.6405  0.8605
 1272SOL     OW 8271   0.276   7.909   8.833  0.5527  0.0712  0.0890
 1272SOL    HW1 8272   0.291   8.000   8.857 -0.1747  0.3206 -0.3487
 1272SOL    HW2 8273   0.185   7.907   8.801  0.0983 -1.0737  1.3510
 1273SOL     OW 8274   8.788   3.545   7.334 -0.2310  0.1570 -0.2193
 1273SOL    HW1 8275   8.693   3.558   7.333 -0.2540  0.1678  0.8661
 1273SOL    HW2 8276   8.806   3.511   7.421  1.0237  2.2446  0.4154
 1274SOL     OW 8277   9.208   9.709   8.134 -0.9382  0.5992  0.2567
 1274SOL    HW1 8278   9.148   9.703   8.208  0.5134 -1.2515  1.3646
 1274SOL    HW2 8279   9.201   9.624   8.091 -0.2192  0.9198 -0.5192
 1275SOL     OW 8280   3.169  10.720   1.138  0.3152  0.3492 -0.4117
 1275SOL    HW1 8281   3.076  10.709   1.120  0.1352 -1.2379  1.1933
 1275SOL    HW2 8282   3.208  10.744   1.053 -1.4005  0.0926 -1.3020
 1276SOL     OW 8283   0.582   6.802   2.011 -0.5885  0.0259  0.4959
 1276SOL    HW1 8284   0.526   6.868   1.971  1.4967  2.3327  1.1608
 1276SOL    HW2 8285   0.628   6.762   1.938 -1.8176 -0.7080  0.0924
 1277SOL     OW 8286   0.952   2.311   9.946  0.1479 -0.8489 -0.3581
 1277SOL    HW1 8287   0.954   2.384  10.007 -1.1236 -0.3418 -0.8783
 1277SOL    HW2 8288   0.961   2.351   9.860 -0.1219 -1.3397 -0.6183
 1278SOL     OW 8289   3.545   5.235   6.594  0.0572 -0.2722  0.3778
 1278SOL    HW1 8290   3.485   5.176   6.549  1.0192 -0.1606 -1.1380
 1278SOL    HW2 8291   3.506   5.322   6.583  0.4147 -0.2113 -0.5193
 1279SOL     OW 8292   4.483   5.945   8.224 -0.0717 -0.3482  0.0438
 1279SOL    HW1 8293   4.548   5.882   8.192  1.0115  0.6195  0.2825
 1279SOL    HW2 8294   4.407   5.891   8.246  1.1059 -1.7075  1.0328
 1280SOL     OW 8295   7.763   2.377  10.087 -0.3543 -0.0429  0.0154
 1280SOL    HW1 8296   7.825   2.346  10.153  0.8103 -1.2025 -1.5657
 1280SOL    HW2 8297   7.799   2.461  10.059 -0.4875  0.1309  0.3543
 1281SOL     OW 8298   4.389   2.106   8.064 -0.0108 -0.2386  0.8048
 1281SOL    HW1 8299   4.353   2.032   8.015  1.1423 -1.3202  1.5267
 1281SOL    HW2 8300   4.469   2.129   8.017  0.0843 -0.0268  1.0656
 1282SOL     OW 8301   2.875   1.971   5.311  0.1569 -0.6895 -0.1387
 1282SOL    HW1 8302   2.850   2.063   5.319 -0.4272 -0.8108 -0.4864
 1282SOL    HW2 8303   2.791   1.923   5.314  0.4369 -1.1906 -0.1854
 1283SOL     OW 8304   7.529   0.743   1.717  0.0778  0.1998  0.2176
 1283SOL    HW1 8305   7.534   0.806   1.789  2.0723  0.8916 -0.4418
 1283SOL    HW2 8306   7.621   0.726   1.695 -0.3922 -3.0640  0.4241
 1284SOL     OW 8307   3.924   4.494   6.570 -0.0362 -0.0811  0.0949
 1284SOL    HW1 8308   3.999   4.450   6.611  0.1281  1.4156  1.5284
 1284SOL    HW2 8309   3.875   4.531   6.644 -0.0928  2.1603 -0.9722
 1285SOL     OW 8310   3.400   1.733   7.255 -0.6631  0.1696  0.7419
 1285SOL    HW1 8311   3.466   1.792   7.221  1.9314 -2.1459  1.3466
 1285SOL    HW2 8312   3.318   1.782   7.251  1.2198  3.5828  0.9143
 1286SOL     OW 8313   0.106   0.093   4.683  0.1096 -0.3481 -0.4749
 1286SOL    HW1 8314   0.015   0.095   4.712 -0.0053  0.5301 -0.8936
 1286SOL    HW2 8315   0.151   0.044   4.752 -0.4025  0.5339  0.5097
 1287SOL     OW 8316   3.642   2.214   9.387 -0.0805  0.1064  0.0790
 1287SOL    HW1 8317   3.567   2.272   9.373  0.2293  0.6400  0.5716
 1287SOL    HW2 8318   3.661   2.178   9.301 -1.2840 -0.5126  0.0529
 1288SOL     OW 8319   8.908  10.246   7.923  0.0444 -0.1112 -0.1493
 1288SOL    HW1 8320   8.897  10.206   7.836  1.4984 -0.0981 -0.3703
 1288SOL    HW2 8321   8.819  10.259   7.955 -0.4971 -2.4248 -0.5779
 1289SOL     OW 8322   2.718   0.130   6.269 -0.4118  0.9834 -0.1107
 1289SOL    HW1 8323   2.729   0.035   6.273  1.7354  1.1728 -0.0370
 1289SOL    HW2 8324   2.774   0.157   6.196 -2.3295  2.0729 -1.2656
 1290SOL     OW 8325   7.794   7.747  10.330 -0.0865  0.0996 -0.1104
 1290SOL    HW1 8326   7.873   7.698  10.355  0.8782  1.8897  0.5150
 1290SOL    HW2 8327   7.747   7.760  10.413  1.0248  2.4487  0.2460
 1291SOL     OW 8328   1.283   7.095   3.583 -0.0986 -0.5348 -0.2481
 1291SOL    HW1 8329   1.198   7.137   3.573 -0.3911 -0.4339  2.1255
 1291SOL    HW2 8330   1.265   7.002   3.572 -0.3480 -0.4482 -0.5947
 1292SOL     OW 8331   8.912   8.162   6.771  0.2094  0.2526 -0.3500
 1292SOL    HW1 8332   8.846   8.104   6.811 -1.3377  1.6480 -0.7446
 1292SOL    HW2 8333   8.943   8.216   6.844  2.8187 -1.9620  0.3586
 1293SOL     OW 8334   4.566   8.346   2.593  0.3359 -0.1063  0.0102
 1293SOL    HW1 8335   4.598   8.376   2.679  2.2778  2.7373 -1.5277
 1293SOL    HW2 8336   4.489   8.400   2.577 -1.3152 -2.1120  0.7429
 1294SOL     OW 8337   0.999   0.501   4.140  0.7875 -0.1548  0.0814
 1294SOL    HW1 8338   0.913   0.543   4.149  0.7970  0.5134 -2.2879
 1294SOL    HW2 8339   0.982   0.422   4.088  1.1577 -1.9062  2.4333
 1295SOL     OW 8340  10.402   8.474   6.497 -0.2097  0.3771  0.9989
 1295SOL    HW1 8341  10.490   8.505   6.516 -0.5406  0.8634  1.7844
 1295SOL    HW2 8342  10.381   8.415   6.568 -0.1777 -0.4626  0.3233
 1296SOL     OW 8343   7.557   5.009   2.320  0.2050  0.1740 -0.4201
 1296SOL    HW1 8344   7.492   5.058   2.369  1.8755  0.4742  1.6551
 1296SOL    HW2 8345   7.506   4.949   2.265 -1.7961  1.0843  0.3571
 1297SOL     OW 8346   9.662  10.313   6.784 -0.4705  0.0871 -0.2917
 1297SOL    HW1 8347   9.628  10.389   6.737 -0.4437 -1.0220 -2.2121
 1297SOL    HW2 8348   9.755  10.312   6.762 -0.0967  0.4821  1.1803
 1298SOL     OW 8349   1.913   9.752   2.027  0.2804  0.2253 -0.8723
 1298SOL    HW1 8350   1.831   9.703   2.027 -0.1944  0.8952  1.5003
 1298SOL    HW2 8351   1.892   9.833   2.072  2.5075 -0.1367  1.0025
 1299SOL     OW 8352   6.918   5.824   8.410 -0.0040 -0.0261  0.2996
 1299SOL    HW1 8353   6.990   5.814   8.348 -0.5403 -0.9835 -0.1936
 1299SOL    HW2 8354   6.898   5.734   8.439 -0.5419  0.2902  0.9479
 1300SOL     OW 8355   5.884   8.186   3.276  0.4199  0.2939  0.6039
 1300SOL    HW1 8356   5.928   8.261   3.315  1.8348 -0.2645  0.1542
 1300SOL    HW2 8357   5.953   8.141   3.227 -0.8022 -0.2939 -0.6213
 1301SOL     OW 8358  10.722   2.278   6.210  0.0733  0.0663  0.6461
 1301SOL    HW1 8359  10.662   2.328   6.154  0.6437  0.3045  0.2425
 1301SOL    HW2 8360  10.692   2.187   6.200  1.3026 -0.1782 -1.5695
 1302SOL     OW 8361   3.756   1.789  10.338 -0.1228 -0.3261  0.2818
 1302SOL    HW1 8362   3.716   1.784  10.251 -4.2471  2.8460  1.6378
 1302SOL    HW2 8363   3.810   1.868  10.335  1.8115 -1.5892  0.0299
 1303SOL     OW 8364   5.144  10.663   2.312 -0.3844 -0.0238 -0.1435
 1303SOL    HW1 8365   5.222  10.617   2.340 -0.4348 -0.3246 -0.4887
 1303SOL    HW2 8366   5.080  10.648   2.382  0.6161  2.3300  1.4239
 1304SOL     OW 8367   7.498   3.150   8.974 -0.0960 -0.1579 -0.1889
 1304SOL    HW1 8368   7.527   3.238   8.951  0.9614  0.0058  1.6016
 1304SOL    HW2 8369   7.545   3.093   8.913  0.4773  0.4064 -0.2842
 1305SOL     OW 8370   9.258   4.932   9.059  0.3735 -0.1404 -0.6225
 1305SOL    HW1 8371   9.267   4.849   9.106 -0.3342  1.0449  1.7703
 1305SOL    HW2 8372   9.269   4.909   8.967  1.1999 -2.7115  0.0452
 1306SOL     OW 8373   6.640   7.925   9.892 -0.0567 -0.1299  0.0905
 1306SOL    HW1 8374   6.699   8.000   9.887  0.5115 -0.5473  0.3205
 1306SOL    HW2 8375   6.641   7.887   9.804 -1.3687  0.8702 -0.3914
 1307SOL     OW 8376   8.185   6.500   1.938 -0.4961 -0.2167  0.5982
 1307SOL    HW1 8377   8.265   6.534   1.899 -0.6623 -0.3809  0.1060
 1307SOL    HW2 8378   8.168   6.418   1.891 -1.7898  0.5808 -0.4129
 1308SOL     OW 8379   3.501   5.507   6.499  0.0326  0.4563 -0.4500
 1308SOL    HW1 8380   3.584   5.494   6.454 -0.0146 -3.0500  0.1616
 1308SOL    HW2 8381   3.442   5.540   6.432  1.4137  1.1070 -1.3890
 1309SOL     OW 8382   4.442   0.697   7.293 -0.1904 -1.0982  0.6150
 1309SOL    HW1 8383   4.480   0.720   7.208 -1.2778  0.8382  0.6097
 1309SOL    HW2 8384   4.496   0.744   7.356 -0.7131 -0.7798  0.8292
 1310SOL     OW 8385   4.880   3.423   9.814 -0.5578 -0.3203  0.0875
 1310SOL    HW1 8386   4.846   3.426   9.725 -0.9917  1.9939  0.2471
 1310SOL    HW2 8387   4.841   3.500   9.857  2.2258  0.5764  1.2819
 1311SOL     OW 8388   9.192   5.265   9.990  0.0088  0.1050  0.1404
 1311SOL    HW1 8389   9.245   5.185  10.000 -0.4537 -0.1776  0.3704
 1311SOL    HW2 8390   9.168   5.290  10.079  0.4254  0.6949  0.0914
 1312SOL     OW 8391   1.912   3.378   0.057 -0.5278 -0.0593  0.7128
 1312SOL    HW1 8392   1.995   3.425   0.049  0.3387 -1.3557  1.7287
 1312SOL    HW2 8393   1.851   3.442   0.094  0.3500  0.5430  1.1280
 1313SOL     OW 8394   4.692  10.233   5.003  0.3113  0.3259  0.0054
 1313SOL    HW1 8395   4.705  10.187   5.086  1.1869  0.9188  0.2195
 1313SOL    HW2 8396   4.605  10.273   5.010 -0.3703 -1.0859 -0.1016
 1314SOL     OW 8397   8.833   3.293   2.616  0.2100 -0.2038 -0.6579
 1314SOL    HW1 8398   8.748   3.336   2.603  0.1477 -0.7723 -2.3772
 1314SOL    HW2 8399   8.890   3.363   2.648 -0.8191  0.2493  0.2621
 1315SOL     OW 8400  10.788   4.264   9.935 -0.2696  0.8842 -0.1236
 1315SOL    HW1 8401  10.761   4.343   9.889 -0.3569  0.3621 -0.9978
 1315SOL    HW2 8402  10.771   4.283  10.028 -4.3610  0.3755 -0.5773
 1316SOL     OW 8403  11.045   1.138   1.261 -0.5681 -0.3085 -0.7293
 1316SOL    HW1 8404  11.026   1.107   1.349  1.4793  1.1197  0.2941
 1316SOL    HW2 8405  10.989   1.215   1.250  0.7284  0.8259  0.2504
 1317SOL     OW 8406   8.480   3.628   3.416 -0.1282 -0.2087 -0.0264
 1317SOL    HW1 8407   8.558   3.574   3.405 -0.2457 -0.4300  0.2051
 1317SOL    HW2 8408   8.443   3.635   3.328  0.0065 -0.3240 -0.0938
 1318SOL     OW 8409   4.847   4.261   8.490  0.1377  0.1435 -0.1161
 1318SOL    HW1 8410   4.931   4.297   8.462  0.3295 -0.0385  0.2251
 1318SOL    HW2 8411   4.789   4.275   8.415  0.3821  0.5699 -0.2267
 1319SOL     OW 8412   6.547   2.391  10.899 -0.6577  0.0406 -0.1955
 1319SOL    HW1 8413   6.501   2.467  10.934  1.4150  0.4236  1.9255
 1319SOL    HW2 8414   6.520   2.318  10.954  2.1048  0.5207  2.0287
 1320SOL     OW 8415   5.451   3.622   3.702 -0.3002  0.4749  0.2976
 1320SOL    HW1 8416   5.484   3.708   3.675 -0.1507 -0.0957 -1.4639
 1320SOL    HW2 8417   5.363   3.640   3.735 -0.0127  1.3942  0.6047
 1321SOL     OW 8418   6.401   0.261   5.095  0.0922  0.1376  0.3159
 1321SOL    HW1 8419   6.433   0.269   5.005  0.8784  0.2334  0.5914
 1321SOL    HW2 8420   6.306   0.262   5.087  0.0449 -2.9558 -0.8186
 1322SOL     OW 8421   9.317   3.177   6.577 -0.0770  0.0510 -1.0778
 1322SOL    HW1 8422   9.331   3.256   6.629 -0.3212 -1.0916  0.7939
 1322SOL    HW2 8423   9.404   3.153   6.545  0.1214  0.6148 -0.9658
 1323SOL     OW 8424   8.867   5.604   6.664  0.3226  0.4715 -0.3546
 1323SOL    HW1 8425   8.801   5.546   6.702  0.9043 -0.3951 -0.6293
 1323SOL    HW2 8426   8.831   5.692   6.673 -1.9550 -0.1100 -2.6132
 1324SOL     OW 8427   5.632   7.797   0.287  0.1498 -0.1049 -0.2291
 1324SOL    HW1 8428   5.577   7.873   0.307 -1.0187 -0.3039 -2.3971
 1324SOL    HW2 8429   5.586   7.723   0.326  0.3219  0.0692  0.3095
 1325SOL     OW 8430  10.468   0.315   5.871 -0.8009 -0.2236 -0.3769
 1325SOL    HW1 8431  10.465   0.365   5.952 -1.2737  1.2482 -1.2499
 1325SOL    HW2 8432  10.390   0.260   5.873  0.0254 -1.4239  0.8578
 1326SOL     OW 8433   4.191   2.978   3.338 -0.5638  0.1606 -0.1682
 1326SOL    HW1 8434   4.149   2.970   3.424 -1.1062  0.6053 -0.3903
 1326SOL    HW2 8435   4.130   2.937   3.277 -0.6414  0.7303 -0.4821
 1327SOL     OW 8436   5.713   4.521   3.628 -0.3532  0.0751 -0.2601
 1327SOL    HW1 8437   5.771   4.484   3.695 -0.8939  0.6968  0.5824
 1327SOL    HW2 8438   5.770   4.543   3.555  0.7539  2.0591  1.1104
 1328SOL     OW 8439   8.308   8.190   0.492  0.0419 -0.1940  0.1192
 1328SOL    HW1 8440   8.400   8.213   0.502  0.0172 -0.7484  1.8973
 1328SOL    HW2 8441   8.286   8.140   0.571 -1.8220  0.0460 -0.1866
 1329SOL     OW 8442   7.837   8.329   6.581  0.4518  0.4859 -0.4051
 1329SOL    HW1 8443   7.829   8.286   6.666  2.0205 -0.5019 -0.7212
 1329SOL    HW2 8444   7.749   8.363   6.563 -0.4155 -1.0656  0.6546
 1330SOL     OW 8445   8.488   3.519   7.238  0.6387  0.2469  0.0561
 1330SOL    HW1 8446   8.458   3.521   7.328  1.4249  3.0939  0.3819
 1330SOL    HW2 8447   8.420   3.565   7.189 -0.7204 -2.8881 -1.2685
 1331SOL     OW 8448   5.180  10.351   1.005 -0.0947  0.2447 -0.0926
 1331SOL    HW1 8449   5.110  10.372   0.942 -2.5382  2.7683  3.1050
 1331SOL    HW2 8450   5.257  10.398   0.971 -0.0972 -1.7011 -3.1276
 1332SOL     OW 8451   4.259   7.852   3.479 -0.2957 -0.4230 -0.1469
 1332SOL    HW1 8452   4.226   7.830   3.566  0.1190  1.7920  0.6476
 1332SOL    HW2 8453   4.338   7.800   3.469  0.0477 -0.1806  1.1114
 1333SOL     OW 8454   1.147   6.169   4.281 -0.7750  0.1768 -0.5327
 1333SOL    HW1 8455   1.178   6.254   4.248 -0.5935  0.1995 -0.3043
 1333SOL    HW2 8456   1.089   6.137   4.212 -1.4692  0.8427 -0.2740
 1334SOL     OW 8457  10.085   9.750   2.899 -0.2184  0.3740  0.1027
 1334SOL    HW1 8458  10.034   9.710   2.829 -0.4429 -0.2851  0.6309
 1334SOL    HW2 8459  10.020   9.776   2.964  0.0770 -0.1345  0.6115
 1335SOL     OW 8460   7.452   3.587   0.561  0.4675  0.1714  0.4980
 1335SOL    HW1 8461   7.451   3.571   0.467  1.4422  0.1381  0.4738
 1335SOL    HW2 8462   7.364   3.616   0.583  0.5098  1.2197 -0.6135
 1336SOL     OW 8463   9.109   0.969   1.868  0.2807  0.1131  0.0055
 1336SOL    HW1 8464   9.056   0.899   1.906  0.9980 -0.5437 -0.1853
 1336SOL    HW2 8465   9.195   0.930   1.854  0.2463  0.5356 -1.6238
 1337SOL     OW 8466   7.239   8.320   3.903 -0.0831  0.4237  0.5862
 1337SOL    HW1 8467   7.175   8.283   3.843 -1.3141  1.9487  0.8843
 1337SOL    HW2 8468   7.288   8.245   3.936  0.6730 -0.4663 -2.2928
 1338SOL     OW 8469   5.115   9.813   7.069 -0.5125 -0.1158  0.0967
 1338SOL    HW1 8470   5.026   9.781   7.081 -0.2680 -1.8203 -1.9970
 1338SOL    HW2 8471   5.164   9.737   7.039  1.6670  0.7926  1.1830
 1339SOL     OW 8472   6.801  10.211   7.059 -0.0676 -0.3843 -0.7864
 1339SOL    HW1 8473   6.758  10.154   6.995 -0.7591 -0.4089 -0.3191
 1339SOL    HW2 8474   6.767  10.299   7.039  0.9874 -0.1292 -1.5008
 1340SOL     OW 8475   9.330   9.201   9.098 -0.0994 -0.0196 -0.1369
 1340SOL    HW1 8476   9.269   9.138   9.138  2.2960 -2.4023  0.0242
 1340SOL    HW2 8477   9.355   9.160   9.016 -0.1809  1.8874 -1.1588
 1341SOL     OW 8478   5.407   4.323   6.452 -0.1048 -0.6945  0.2832
 1341SOL    HW1 8479   5.463   4.360   6.521  0.2993  0.2816 -0.5440
 1341SOL    HW2 8480   5.367   4.399   6.411  0.3363 -1.1957 -1.1239
 1342SOL     OW 8481   1.759   9.618   9.252 -0.2448  0.0706 -0.2233
 1342SOL    HW1 8482   1.808   9.551   9.299 -1.4819 -2.0627 -1.7772
 1342SOL    HW2 8483   1.806   9.629   9.169  0.1863  1.4864  0.1862
 1343SOL     OW 8484   7.340   0.124   4.795 -0.5507 -0.1334 -0.2334
 1343SOL    HW1 8485   7.292   0.178   4.732  0.5906  0.3069 -0.7537
 1343SOL    HW2 8486   7.427   0.113   4.756  0.6500  1.2488  1.8510
 1344SOL     OW 8487   0.408   4.487   3.401  0.0733  0.4287  0.2056
 1344SOL    HW1 8488   0.397   4.426   3.474 -1.2129  1.0099  0.5323
 1344SOL    HW2 8489   0.381   4.437   3.324 -0.4147  0.3970  0.3929
 1345SOL     OW 8490   8.969   2.559   9.935 -0.0208 -0.4109 -0.2747
 1345SOL    HW1 8491   9.064   2.570   9.934 -0.0264 -0.1915 -1.8887
 1345SOL    HW2 8492   8.950   2.508   9.856 -1.0728 -2.2587  1.1183
 1346SOL     OW 8493   1.682   5.853  10.721  0.8242 -0.2447  0.2100
 1346SOL    HW1 8494   1.646   5.928  10.768  3.4956  0.6329  1.0494
 1346SOL    HW2 8495   1.669   5.779  10.781 -0.6174 -0.2414 -0.0555
 1347SOL     OW 8496   8.484   2.619   0.826  0.7486  0.3435  0.3922
 1347SOL    HW1 8497   8.576   2.642   0.836  1.2727 -1.2678 -0.4249
 1347SOL    HW2 8498   8.448   2.689   0.772  0.9918  2.0312  2.3053
 1348SOL     OW 8499   1.083   1.300   9.320 -0.5580  0.3897 -0.7005
 1348SOL    HW1 8500   1.054   1.209   9.328 -0.0775  0.1856 -1.1813
 1348SOL    HW2 8501   1.178   1.293   9.305  0.1080  1.0532  2.3814
 1349SOL     OW 8502   9.119   2.821   3.047  0.5551  0.4007 -0.1270
 1349SOL    HW1 8503   9.058   2.755   3.080 -2.3927  3.4271  1.0502
 1349SOL    HW2 8504   9.156   2.861   3.125  2.2770  0.2479 -0.8194
 1350SOL     OW 8505   8.532   6.775   4.869 -0.2679 -0.1624 -0.5838
 1350SOL    HW1 8506   8.586   6.826   4.809  1.0598  0.5115  1.1167
 1350SOL    HW2 8507   8.480   6.840   4.915 -2.3289 -0.7767 -1.9043
 1351SOL     OW 8508   4.813   2.290   5.466  0.6308  0.1025 -0.4281
 1351SOL    HW1 8509   4.896   2.317   5.505  1.6117 -0.9322 -1.6754
 1351SOL    HW2 8510   4.837   2.221   5.404 -1.4170 -1.6519  0.6072
 1352SOL     OW 8511   8.683   3.719   0.782  0.1799  0.6204  0.1458
 1352SOL    HW1 8512   8.616   3.786   0.768  0.5158  1.5139  2.4171
 1352SOL    HW2 8513   8.737   3.722   0.703 -1.4117  1.0705 -0.9845
 1353SOL     OW 8514   1.457  10.455   5.701  0.1844 -0.4493 -0.0308
 1353SOL    HW1 8515   1.445  10.368   5.662  0.7622 -1.0206  1.0238
 1353SOL    HW2 8516   1.370  10.482   5.729 -0.0722 -0.4738 -0.7828
 1354SOL     OW 8517   3.431   6.464   8.188 -0.2131  0.2110  0.2566
 1354SOL    HW1 8518   3.481   6.385   8.168 -0.2905  0.2784 -0.2234
 1354SOL    HW2 8519   3.404   6.497   8.102  0.0664  0.9181  0.4384
 1355SOL     OW 8520   6.518  10.255   4.014 -0.2682 -0.0645 -0.0550
 1355SOL    HW1 8521   6.508  10.340   4.056 -1.2493  0.1294 -0.6548
 1355SOL    HW2 8522   6.439  10.207   4.039 -1.8181  0.6930 -3.1059
 1356SOL     OW 8523   0.379   9.099   4.217 -0.1080  0.4644  0.0628
 1356SOL    HW1 8524   0.318   9.089   4.144 -0.3034 -2.3655  0.4903
 1356SOL    HW2 8525   0.463   9.118   4.176 -0.2738 -0.7909 -0.9241
 1357SOL     OW 8526   8.500   8.801   2.773 -0.0185  0.9391  0.0688
 1357SOL    HW1 8527   8.480   8.895   2.765 -2.0858  0.5868  0.4041
 1357SOL    HW2 8528   8.490   8.783   2.867 -1.9310 -0.0222 -0.2680
 1358SOL     OW 8529   3.795  10.241   4.840  0.1747  0.6925  0.3797
 1358SOL    HW1 8530   3.857  10.268   4.907  0.4491  0.3163  0.2825
 1358SOL    HW2 8531   3.825  10.154   4.814 -1.8925 -0.6688  2.2048
 1359SOL     OW 8532  10.724   5.886   1.311 -0.3324  0.0754  1.1119
 1359SOL    HW1 8533  10.668   5.824   1.263 -0.6266  0.1725  1.3266
 1359SOL    HW2 8534  10.702   5.872   1.403 -0.8104  0.8924  1.1270
 1360SOL     OW 8535   4.242  11.012   3.481 -0.8833  0.5184 -0.1785
 1360SOL    HW1 8536   4.261  10.941   3.542 -1.3192 -0.1371 -0.7794
 1360SOL    HW2 8537   4.209  11.083   3.535  2.0445  1.2903  0.7868
 1361SOL     OW 8538   9.198  10.590   2.258  0.1567 -0.0170  0.0924
 1361SOL    HW1 8539   9.137  10.516   2.267  0.4232 -0.2948 -0.3493
 1361SOL    HW2 8540   9.173  10.651   2.328 -0.8976  0.0621 -0.3428
 1362SOL     OW 8541   8.378   2.289   0.321 -0.3836  0.0553  0.1159
 1362SOL    HW1 8542   8.363   2.291   0.227  0.5787 -1.5745 -0.1141
 1362SOL    HW2 8543   8.469   2.315   0.331 -0.1165 -0.9489  0.4586
 1363SOL     OW 8544   1.805   6.813   1.847 -0.1049 -0.7043  0.5612
 1363SOL    HW1 8545   1.877   6.875   1.846 -1.1006  0.4816 -0.6642
 1363SOL    HW2 8546   1.847   6.728   1.830  1.3688 -0.5790  3.0068
 1364SOL     OW 8547   8.157   3.775   2.259 -0.1232  0.0228  0.0194
 1364SOL    HW1 8548   8.120   3.690   2.235  1.2025 -1.3342  2.3725
 1364SOL    HW2 8549   8.110   3.801   2.337  0.2126  0.9403 -0.0683
 1365SOL     OW 8550   1.434   2.909   4.583  0.0950  0.1619  0.4915
 1365SOL    HW1 8551   1.361   2.884   4.526 -0.1642 -0.5242  1.1008
 1365SOL    HW2 8552   1.459   2.996   4.553 -0.5237  0.1235 -0.1778
 1366SOL     OW 8553   5.592   6.457  10.846  0.7261  0.2339  0.3553
 1366SOL    HW1 8554   5.564   6.376  10.804 -0.7017  0.2423  1.2198
 1366SOL    HW2 8555   5.569   6.446  10.938 -0.1281  1.8446  0.3780
 1367SOL     OW 8556   9.461   9.367   2.210  0.3331  0.2865 -0.2124
 1367SOL    HW1 8557   9.476   9.428   2.282  1.7504 -0.1105 -0.1398
 1367SOL    HW2 8558   9.547   9.355   2.170  0.0437 -1.4257 -0.4051
 1368SOL     OW 8559   9.270   1.601   8.716 -0.4130 -0.0374 -0.0680
 1368SOL    HW1 8560   9.309   1.634   8.635  1.0928  2.2254  1.4481
 1368SOL    HW2 8561   9.335   1.620   8.784 -0.8116 -3.4257  1.5241
 1369SOL     OW 8562   1.867   1.266   6.686 -0.1946  0.1083 -0.0829
 1369SOL    HW1 8563   1.816   1.291   6.763  1.2086  1.0887  0.5750
 1369SOL    HW2 8564   1.869   1.346   6.633  0.0099 -0.1514 -0.4640
 1370SOL     OW 8565   8.347   8.732   5.031  0.1644  0.3285  0.5868
 1370SOL    HW1 8566   8.389   8.813   5.061 -0.5299  0.6211  0.7816
 1370SOL    HW2 8567   8.410   8.663   5.054  0.2646  0.6948  1.4636
 1371SOL     OW 8568   8.271   3.040   1.105  0.0827  0.2198 -0.2262
 1371SOL    HW1 8569   8.342   3.037   1.041  0.5221  1.3206  0.1897
 1371SOL    HW2 8570   8.240   3.130   1.102  0.0600  0.2739  1.0551
 1372SOL     OW 8571   4.454   6.322   1.336  0.4715  0.2194 -0.1475
 1372SOL    HW1 8572   4.390   6.330   1.407 -0.1294  0.6392 -0.7293
 1372SOL    HW2 8573   4.494   6.409   1.331  1.1973 -0.0759  0.2991
 1373SOL     OW 8574   2.653   7.417   5.030 -0.1563 -0.1362 -0.0547
 1373SOL    HW1 8575   2.584   7.454   4.974 -0.4547  0.5606  0.7486
 1373SOL    HW2 8576   2.661   7.480   5.102  1.0171 -0.4376  0.0890
 1374SOL     OW 8577  10.246   7.457   0.602  0.1671  0.2203  0.2843
 1374SOL    HW1 8578  10.251   7.512   0.523  2.1622 -0.7546 -0.3429
 1374SOL    HW2 8579  10.152   7.449   0.619 -0.2536  2.3774 -0.5905
 1375SOL     OW 8580   8.796   5.103   8.503  0.2794  0.8740 -0.0265
 1375SOL    HW1 8581   8.806   5.015   8.467 -1.8180  1.4239 -2.2635
 1375SOL    HW2 8582   8.832   5.161   8.435  0.0063  1.8258  0.6166
 1376SOL     OW 8583   0.452   5.078   7.709  0.1366  0.1710  0.2833
 1376SOL    HW1 8584   0.433   5.036   7.792 -2.8219  0.4865 -0.1355
 1376SOL    HW2 8585   0.448   5.007   7.645  0.3880  0.2522  0.1778
 1377SOL     OW 8586   6.905   4.515   4.500  0.3694  0.1235  0.0741
 1377SOL    HW1 8587   6.952   4.448   4.550 -1.3374 -0.5928  0.7985
 1377SOL    HW2 8588   6.953   4.596   4.516  0.6896 -0.3693  1.7428
 1378SOL     OW 8589   6.353   9.215   6.573 -0.0681 -0.7074 -0.3136
 1378SOL    HW1 8590   6.275   9.237   6.624 -0.1600  0.2194 -0.8442
 1378SOL    HW2 8591   6.380   9.297   6.533 -0.4118 -1.5376 -2.3478
 1379SOL     OW 8592   8.349   2.910  10.326  0.8490  0.3184  0.5267
 1379SOL    HW1 8593   8.397   2.838  10.366  1.4558 -0.3859 -1.3720
 1379SOL    HW2 8594   8.388   2.920  10.239 -0.4643  1.7034  0.0497
 1380SOL     OW 8595   0.597   5.262  10.103 -0.2576  0.4739  0.1811
 1380SOL    HW1 8596   0.631   5.213  10.029 -0.7350 -0.8555  0.8098
 1380SOL    HW2 8597   0.638   5.348  10.096 -0.0258  0.2605 -1.4061
 1381SOL     OW 8598  11.045   8.515   0.408  0.1517  0.4128 -0.0551
 1381SOL    HW1 8599  11.081   8.548   0.491  0.4092 -0.5307  0.2215
 1381SOL    HW2 8600  10.955   8.547   0.407 -0.1733 -0.3731  1.0829
 1382SOL     OW 8601   7.655   4.685   1.518  0.0640 -0.3882  0.3369
 1382SOL    HW1 8602   7.668   4.613   1.456 -0.6874 -1.0264  0.8857
 1382SOL    HW2 8603   7.566   4.671   1.552  0.0859  0.5346  0.7938
 1383SOL     OW 8604  10.938   4.181   5.029  0.2901  0.1361  0.0009
 1383SOL    HW1 8605  11.028   4.185   4.997  0.2940 -1.6744 -0.3346
 1383SOL    HW2 8606  10.890   4.135   4.960  0.0765 -2.9505  2.0213
 1384SOL     OW 8607   9.642   9.114   2.881 -0.3565 -0.5457  0.3315
 1384SOL    HW1 8608   9.559   9.123   2.927 -0.1314 -1.2028  0.8847
 1384SOL    HW2 8609   9.657   9.019   2.876  0.6673 -0.4335  0.8274
 1385SOL     OW 8610   6.838   5.324   6.138 -0.0643  0.1471 -0.6005
 1385SOL    HW1 8611   6.827   5.387   6.067 -0.6855  1.8775  0.9511
 1385SOL    HW2 8612   6.914   5.355   6.187 -0.0780 -0.6012 -0.0791
 1386SOL     OW 8613   3.142  10.335   9.906 -0.6188  0.3068  0.5163
 1386SOL    HW1 8614   3.058  10.290   9.891 -1.2836  1.4371  0.7514
 1386SOL    HW2 8615   3.185  10.282   9.973 -1.6427  0.3194  1.2140
 1387SOL     OW 8616   8.751   3.711   9.784 -0.5686  0.1605  1.0670
 1387SOL    HW1 8617   8.737   3.705   9.689 -0.4000  1.8272  0.8919
 1387SOL    HW2 8618   8.789   3.627   9.808  1.1195  0.3322 -0.6926
 1388SOL     OW 8619   0.035   3.265   2.747  0.4276 -0.4469  0.1633
 1388SOL    HW1 8620  -0.017   3.330   2.700 -0.6678  0.3774  2.4052
 1388SOL    HW2 8621   0.121   3.305   2.756  0.5041 -0.4028 -0.6217
 1389SOL     OW 8622   8.489   1.607   3.710 -0.0469 -0.1140 -0.1398
 1389SOL    HW1 8623   8.475   1.702   3.715 -2.6838 -0.4190 -0.4860
 1389SOL    HW2 8624   8.532   1.593   3.626  1.4169  0.8105  0.3957
 1390SOL     OW 8625   5.765   8.574   5.514  0.1660  0.3756  0.5415
 1390SOL    HW1 8626   5.733   8.662   5.532 -2.5531 -0.7033  1.4026
 1390SOL    HW2 8627   5.799   8.543   5.598  2.3308  0.9915 -0.0467
 1391SOL     OW 8628   2.432   6.354   1.462 -0.2343  0.5109  0.0309
 1391SOL    HW1 8629   2.368   6.321   1.399  1.5610 -1.0154 -1.0907
 1391SOL    HW2 8630   2.422   6.297   1.538 -0.0889  0.1645 -0.2082
 1392SOL     OW 8631   1.354  10.743   3.210  0.2316  0.9211 -0.2508
 1392SOL    HW1 8632   1.385  10.768   3.296  0.0887 -0.4520  0.2236
 1392SOL    HW2 8633   1.259  10.758   3.213 -0.0539 -0.8057  0.4798
 1393SOL     OW 8634   8.590   8.753   2.258  0.3797 -0.4418 -0.1896
 1393SOL    HW1 8635   8.519   8.803   2.298  0.6747  0.6300 -0.9558
 1393SOL    HW2 8636   8.558   8.734   2.169  1.0461  0.1065 -0.5624
 1394SOL     OW 8637   9.765   3.452   5.449  0.4321 -0.1337 -0.3058
 1394SOL    HW1 8638   9.692   3.507   5.419  0.6517  0.4088  0.1406
 1394SOL    HW2 8639   9.830   3.515   5.482  0.5265 -0.6790  0.5659
 1395SOL     OW 8640   6.669   6.757   8.258  0.1628 -0.2745 -0.4649
 1395SOL    HW1 8641   6.693   6.848   8.241 -0.4068 -0.0697 -0.1965
 1395SOL    HW2 8642   6.624   6.729   8.179 -0.3677 -0.0676 -0.2438
 1396SOL     OW 8643   2.927  10.224   9.717 -0.1755 -0.2970  0.7100
 1396SOL    HW1 8644   2.931  10.311   9.678 -0.9654 -1.1159 -1.3190
 1396SOL    HW2 8645   3.016  10.190   9.709 -0.0412  0.0356  0.7912
 1397SOL     OW 8646   1.870   9.584   2.601 -0.2020  0.4760  0.1303
 1397SOL    HW1 8647   1.822   9.633   2.535 -0.4746  1.3583  0.9650
 1397SOL    HW2 8648   1.862   9.637   2.681 -0.0317 -0.6470  0.9151
 1398SOL     OW 8649   8.943  10.660   6.785 -0.1636 -0.4685  0.6279
 1398SOL    HW1 8650   8.934  10.726   6.853 -1.5600 -1.7292  1.7140
 1398SOL    HW2 8651   8.956  10.578   6.832 -0.5225 -1.2837 -0.6285
 1399SOL     OW 8652   8.572   6.346   2.653 -0.5116  0.0050  0.2754
 1399SOL    HW1 8653   8.525   6.356   2.570 -0.5260  0.5087  0.3377
 1399SOL    HW2 8654   8.655   6.305   2.628  0.3856  2.0152 -0.3253
 1400SOL     OW 8655   6.121   1.811   9.563 -0.3861 -0.7010  0.0584
 1400SOL    HW1 8656   6.128   1.725   9.522  2.4944  0.3703 -2.0391
 1400SOL    HW2 8657   6.048   1.853   9.517 -0.5476 -1.3314 -0.2731
 1401SOL     OW 8658   6.771   4.046   8.828 -0.0892  0.2932 -0.0898
 1401SOL    HW1 8659   6.718   4.125   8.829 -0.8147 -0.1701 -0.6942
 1401SOL    HW2 8660   6.708   3.974   8.830  0.5736 -0.2872  1.0436
 1402SOL     OW 8661  11.032   3.873   3.068 -0.0630 -0.0433  0.0404
 1402SOL    HW1 8662  11.065   3.961   3.080 -2.1755  0.7830  0.1945
 1402SOL    HW2 8663  10.948   3.872   3.114 -0.3110 -1.9805 -0.3598
 1403SOL     OW 8664   2.418  10.306  10.585 -0.2332 -0.3938 -0.5716
 1403SOL    HW1 8665   2.402  10.401  10.589 -0.0568 -0.2138 -2.9789
 1403SOL    HW2 8666   2.375  10.272  10.664 -0.9683  1.5948 -0.0471
 1404SOL     OW 8667   5.472   8.022   2.164  0.6474  0.3379  0.1254
 1404SOL    HW1 8668   5.446   8.103   2.209 -3.5601  0.1876 -1.5458
 1404SOL    HW2 8669   5.414   7.955   2.201  0.4595 -0.7897 -2.0800
 1405SOL     OW 8670   1.081  10.479   9.815  0.2986 -0.2563 -0.9062
 1405SOL    HW1 8671   1.004  10.485   9.872  0.1599  0.2512 -1.1471
 1405SOL    HW2 8672   1.155  10.494   9.874  0.1860 -0.2645 -0.7629
 1406SOL     OW 8673   2.808   8.358   4.481  0.1682  0.6168  0.1889
 1406SOL    HW1 8674   2.734   8.402   4.439 -2.1523 -1.4115  1.8258
 1406SOL    HW2 8675   2.815   8.399   4.567  1.1332  0.9500 -0.0384
 1407SOL     OW 8676   6.211   6.753   2.169  0.4891  0.5786 -0.9779
 1407SOL    HW1 8677   6.246   6.839   2.194 -2.6489  1.1771  2.0633
 1407SOL    HW2 8678   6.229   6.698   2.245 -0.2349 -0.6192 -1.6593
 1408SOL     OW 8679   1.304   2.898   4.923  0.3961  0.3699  0.1302
 1408SOL    HW1 8680   1.226   2.903   4.868 -0.1601  0.7272  0.9338
 1408SOL    HW2 8681   1.344   2.985   4.917  0.1913  0.4885  0.5014
 1409SOL     OW 8682   9.925   6.500   5.137 -0.5398 -0.5439 -0.5803
 1409SOL    HW1 8683   9.929   6.511   5.042  0.6723  0.7978 -0.4095
 1409SOL    HW2 8684   9.838   6.532   5.161 -0.7532 -0.6431 -1.2056
 1410SOL     OW 8685   7.389   8.326   8.465  0.0184 -0.4478 -0.5053
 1410SOL    HW1 8686   7.362   8.406   8.421 -0.7497 -1.1726 -1.4086
 1410SOL    HW2 8687   7.418   8.354   8.551  1.0779  0.9597 -1.2866
 1411SOL     OW 8688   1.485   5.451  10.433  0.3583  0.6215  0.0288
 1411SOL    HW1 8689   1.499   5.359  10.455 -0.5617 -0.3566 -2.9298
 1411SOL    HW2 8690   1.572   5.488  10.425  0.8891 -0.8490 -1.6578
 1412SOL     OW 8691   3.458   1.509  10.327  0.4968 -0.2148 -0.3698
 1412SOL    HW1 8692   3.521   1.579  10.312  2.0164 -1.3751  0.2847
 1412SOL    HW2 8693   3.412   1.499  10.244  1.1973  0.6323 -0.8736
 1413SOL     OW 8694   2.884   3.465   1.117  0.3836 -0.4063 -0.2236
 1413SOL    HW1 8695   2.848   3.545   1.156  1.9173 -0.6729  1.9065
 1413SOL    HW2 8696   2.894   3.405   1.191  1.4354 -1.7452 -1.4017
 1414SOL     OW 8697  10.518   7.275   4.158 -0.0893 -0.0064 -0.5921
 1414SOL    HW1 8698  10.577   7.284   4.233 -0.1479 -1.4258 -0.3500
 1414SOL    HW2 8699  10.508   7.181   4.147 -2.2921  0.1853 -0.6579
 1415SOL     OW 8700  10.683   8.153   8.839 -0.1096  0.0876  0.3230
 1415SOL    HW1 8701  10.651   8.172   8.750 -0.1551  0.1429  0.3505
 1415SOL    HW2 8702  10.607   8.168   8.895 -0.2630 -0.5894  0.2982
 1416SOL     OW 8703   0.082   6.773   9.288  0.2095  0.2776 -0.0793
 1416SOL    HW1 8704   0.079   6.788   9.194 -0.5572  2.7140  0.2625
 1416SOL    HW2 8705   0.175   6.767   9.309  0.3706 -1.1133 -1.0714
 1417SOL     OW 8706   1.488   6.121   8.302 -0.0495  0.1136 -0.1591
 1417SOL    HW1 8707   1.570   6.145   8.345 -0.6672  1.5242  0.2827
 1417SOL    HW2 8708   1.478   6.028   8.320  0.6434  0.2662  1.1639
 1418SOL     OW 8709   6.697  10.672   8.922  0.3893  0.5877  0.0708
 1418SOL    HW1 8710   6.706  10.653   9.016  0.0415  1.2910  0.2529
 1418SOL    HW2 8711   6.623  10.733   8.917  0.6416  0.8413 -0.6222
 1419SOL     OW 8712  10.389   2.987   4.006 -0.7346 -0.1287  0.0369
 1419SOL    HW1 8713  10.404   3.060   3.946 -2.7498 -1.0050 -1.6851
 1419SOL    HW2 8714  10.452   2.920   3.978 -0.4681  0.0980  0.0854
 1420SOL     OW 8715   6.112   2.969   0.427 -0.4524 -0.1846  0.4572
 1420SOL    HW1 8716   6.053   2.896   0.448 -3.2536  2.1582  1.4182
 1420SOL    HW2 8717   6.085   2.998   0.340 -0.8641  1.0080  0.9613
 1421SOL     OW 8718   6.856   5.657  10.774  0.3581 -0.2625 -0.2068
 1421SOL    HW1 8719   6.914   5.710  10.720 -0.2809  1.0459  0.3355
 1421SOL    HW2 8720   6.906   5.638  10.853  0.0648  0.8804  0.2682
 1422SOL     OW 8721   0.544   5.839   9.722 -0.6980  0.1668  0.2107
 1422SOL    HW1 8722   0.470   5.829   9.782 -1.2462  0.4321 -0.4182
 1422SOL    HW2 8723   0.536   5.928   9.689 -0.0994  0.1941  0.1270
 1423SOL     OW 8724   9.773   0.047   9.382 -0.0349 -0.3917 -0.1190
 1423SOL    HW1 8725   9.792   0.128   9.335  0.3666 -0.4066  0.0131
 1423SOL    HW2 8726   9.703   0.005   9.332 -0.9206  0.5041  0.3466
 1424SOL     OW 8727   7.621   7.300   4.233 -0.2864 -0.1331  0.2089
 1424SOL    HW1 8728   7.596   7.361   4.164  1.1260  0.1691 -0.0453
 1424SOL    HW2 8729   7.606   7.348   4.315 -0.6946 -0.0295  0.0778
 1425SOL     OW 8730   5.787   1.898   4.940  0.1362  0.2462 -0.0107
 1425SOL    HW1 8731   5.883   1.906   4.946  0.4153 -2.4660  0.6986
 1425SOL    HW2 8732   5.755   1.942   5.019  0.8200  0.8331 -0.0480
 1426SOL     OW 8733   2.100   0.715   8.135  0.3252 -0.7035 -0.1806
 1426SOL    HW1 8734   2.169   0.757   8.186 -1.2236  1.1373  0.4874
 1426SOL    HW2 8735   2.099   0.762   8.052 -1.9003  1.2414  0.8387
 1427SOL     OW 8736   4.536   4.546   7.001 -0.2538 -0.1818  0.4351
 1427SOL    HW1 8737   4.591   4.522   7.076  3.8542  0.0472 -2.1483
 1427SOL    HW2 8738   4.534   4.641   7.001  0.7285 -0.1423 -0.2724
 1428SOL     OW 8739   0.078   9.991   1.487  0.1203  0.6809 -0.3202
 1428SOL    HW1 8740   0.122   9.983   1.571  3.0543 -0.5349 -1.8176
 1428SOL    HW2 8741   0.096  10.080   1.458  0.4338  0.6161 -0.3254
 1429SOL     OW 8742  10.844   4.032   4.396  0.5313  0.4929  0.4451
 1429SOL    HW1 8743  10.831   4.075   4.480  2.9155 -0.5162  1.4202
 1429SOL    HW2 8744  10.779   3.961   4.395  1.3250 -0.3060  2.0655
 1430SOL     OW 8745   9.418   0.058   0.692 -0.8196  0.0410 -0.4609
 1430SOL    HW1 8746   9.433   0.121   0.622 -1.2869 -0.8700 -1.4139
 1430SOL    HW2 8747   9.487   0.076   0.756  1.4699 -0.9325 -2.4969
 1431SOL     OW 8748   7.269   2.834   3.147  0.0012 -0.0262 -1.0258
 1431SOL    HW1 8749   7.275   2.739   3.145 -1.1643 -0.1026 -1.1679
 1431SOL    HW2 8750   7.358   2.863   3.169  0.5669 -1.1034 -1.8025
 1432SOL     OW 8751   0.416   5.183   1.268  0.1110 -0.2130 -0.1971
 1432SOL    HW1 8752   0.472   5.147   1.199 -0.1171  0.8920 -0.9697
 1432SOL    HW2 8753   0.423   5.278   1.259 -1.0371 -0.0490  0.3918
 1433SOL     OW 8754   5.015   2.640   1.718  0.4418 -0.0583 -0.1206
 1433SOL    HW1 8755   4.942   2.667   1.661  0.8884 -0.7711 -1.0514
 1433SOL    HW2 8756   5.061   2.722   1.738  0.4533  0.1771 -1.0554
 1434SOL     OW 8757   3.290   1.837   4.729  0.2302 -0.0000  0.3092
 1434SOL    HW1 8758   3.252   1.752   4.709 -0.5480  0.2761  0.5709
 1434SOL    HW2 8759   3.218   1.887   4.768  0.8186  0.5956  0.6587
 1435SOL     OW 8760   0.435   6.243   4.789 -0.0212 -0.0859 -0.2736
 1435SOL    HW1 8761   0.471   6.191   4.861 -1.7966 -0.6455  0.2403
 1435SOL    HW2 8762   0.385   6.313   4.832  0.6357  0.8410 -0.9749
 1436SOL     OW 8763   7.330  10.960   8.806 -0.1576  0.8524  0.5634
 1436SOL    HW1 8764   7.356  11.052   8.803 -2.0115  1.4029  0.2711
 1436SOL    HW2 8765   7.281  10.946   8.725  0.7329 -0.6252  0.2353
 1437SOL     OW 8766   6.257   6.474   5.454 -0.1169  0.5752 -0.1020
 1437SOL    HW1 8767   6.276   6.412   5.524  0.4837  0.2457 -0.5555
 1437SOL    HW2 8768   6.245   6.420   5.376  2.3873  1.1108 -0.9342
 1438SOL     OW 8769   6.101   4.415  10.601 -0.2593 -0.4036 -0.1235
 1438SOL    HW1 8770   6.058   4.486  10.650  1.4933  1.3341 -0.9810
 1438SOL    HW2 8771   6.043   4.400  10.526  0.0962  1.2608 -0.7773
 1439SOL     OW 8772  10.847   6.533   1.688  0.1470  0.3314 -0.8977
 1439SOL    HW1 8773  10.923   6.497   1.642  0.6498  0.6982 -0.3751
 1439SOL    HW2 8774  10.885   6.594   1.752 -0.5718  0.2826 -0.4147
 1440SOL     OW 8775   7.202   0.543   5.776  0.4979 -0.0701  0.5207
 1440SOL    HW1 8776   7.111   0.574   5.775  0.5263  0.0190 -0.1651
 1440SOL    HW2 8777   7.255   0.622   5.780  0.5436 -0.1428  1.4702
 1441SOL     OW 8778   5.657   6.130   3.449 -0.0623  0.6120  0.5200
 1441SOL    HW1 8779   5.731   6.077   3.423 -0.9423 -1.4935  2.0172
 1441SOL    HW2 8780   5.590   6.114   3.382  0.6977  2.3737 -0.7337
 1442SOL     OW 8781   6.871  10.225  10.745 -0.2332 -0.1221  0.1720
 1442SOL    HW1 8782   6.893  10.195  10.657 -1.4185 -0.7454  0.0620
 1442SOL    HW2 8783   6.925  10.172  10.803  0.6049  0.3410 -0.1758
 1443SOL     OW 8784   5.606   2.760   5.738 -0.3485  0.2749 -0.1809
 1443SOL    HW1 8785   5.574   2.826   5.799  1.7702  1.2944 -0.0500
 1443SOL    HW2 8786   5.607   2.805   5.653 -0.4359 -0.1293 -0.3970
 1444SOL     OW 8787  11.026   5.232   8.070  0.1725 -0.7490 -0.3057
 1444SOL    HW1 8788  10.940   5.222   8.028  0.5548 -2.7067 -0.6950
 1444SOL    HW2 8789  11.020   5.317   8.115 -1.2162  0.1360 -2.0305
 1445SOL     OW 8790   2.525   7.889   1.302  0.1581  0.0301  0.2910
 1445SOL    HW1 8791   2.581   7.963   1.329  1.4817 -0.7397 -0.2411
 1445SOL    HW2 8792   2.504   7.844   1.384  0.2711  0.3704  0.5100
 1446SOL     OW 8793   9.853   8.350   9.299 -0.1306 -0.3487 -0.1029
 1446SOL    HW1 8794   9.771   8.300   9.304  0.3299 -0.9899  1.6792
 1446SOL    HW2 8795   9.917   8.295   9.345  1.4961 -0.1868 -2.0299
 1447SOL     OW 8796   2.973   3.893   3.999 -0.6493 -0.7099 -0.7937
 1447SOL    HW1 8797   2.987   3.961   3.932  1.2922 -0.3553 -0.1006
 1447SOL    HW2 8798   3.028   3.921   4.073 -0.8129 -2.3828  0.0018
 1448SOL     OW 8799   0.693  10.770   1.228 -0.3192  0.0814 -0.0035
 1448SOL    HW1 8800   0.634  10.786   1.154 -0.9805 -0.2356  0.4445
 1448SOL    HW2 8801   0.733  10.685   1.208 -1.2127 -0.4726  0.4341
 1449SOL     OW 8802   0.612   8.617   5.755 -0.3285 -0.2951  0.4960
 1449SOL    HW1 8803   0.575   8.546   5.808 -1.6818 -0.1951 -0.2684
 1449SOL    HW2 8804   0.669   8.573   5.692 -0.7344 -0.6746  0.3824
 1450SOL     OW 8805   8.412   3.734   8.926  0.0914  0.3263  0.1136
 1450SOL    HW1 8806   8.409   3.825   8.956  0.0132  0.6518 -0.8526
 1450SOL    HW2 8807   8.321   3.711   8.909  0.0854 -0.0253  0.6036
 1451SOL     OW 8808   8.501   0.567   9.636 -0.1520 -0.7939  0.0391
 1451SOL    HW1 8809   8.529   0.658   9.636 -0.1955 -0.7414  1.8665
 1451SOL    HW2 8810   8.449   0.558   9.716  1.1360 -2.7925  0.7156
 1452SOL     OW 8811   1.385   9.948   8.264  0.0607 -0.0753  0.1576
 1452SOL    HW1 8812   1.381   9.875   8.326 -0.1023 -0.6019 -0.4509
 1452SOL    HW2 8813   1.402  10.025   8.318 -1.7133 -0.2593  1.0529
 1453SOL     OW 8814   6.167   7.068   1.928  0.0556 -0.0303  0.0447
 1453SOL    HW1 8815   6.162   7.163   1.918  2.4323  0.0443 -1.2043
 1453SOL    HW2 8816   6.222   7.055   2.006 -2.1013 -0.4702  1.5794
 1454SOL     OW 8817   0.651   3.180   9.336  0.4965  0.0655  0.2643
 1454SOL    HW1 8818   0.734   3.183   9.384  0.8307  2.3894 -0.3120
 1454SOL    HW2 8819   0.585   3.202   9.401  0.8152  1.9899  0.0094
 1455SOL     OW 8820   5.989   8.968   9.816 -0.0098 -0.1692 -0.2662
 1455SOL    HW1 8821   6.006   9.020   9.894  0.4368 -1.7745  0.7643
 1455SOL    HW2 8822   6.035   9.013   9.745 -0.4501  1.3342  0.3672
 1456SOL     OW 8823   4.433   7.078   9.611 -0.8526  0.3473  0.2210
 1456SOL    HW1 8824   4.376   7.142   9.655 -1.5142  0.0116 -0.1259
 1456SOL    HW2 8825   4.516   7.124   9.598 -1.6192  1.4613 -0.8861
 1457SOL     OW 8826   1.230   6.061   6.184 -0.2102 -0.1035 -0.2599
 1457SOL    HW1 8827   1.141   6.066   6.219 -0.2550 -0.8180 -0.2595
 1457SOL    HW2 8828   1.248   5.968   6.179 -0.2958 -0.0545 -2.3879
 1458SOL     OW 8829   7.878   6.520   0.027 -0.2223  0.0759 -0.2792
 1458SOL    HW1 8830   7.846   6.430   0.025 -0.3279  0.0668  0.9752
 1458SOL    HW2 8831   7.810   6.569   0.073 -0.8051  1.1008 -2.1282
 1459SOL     OW 8832   3.503   6.215   9.961 -0.4192  0.5318  0.1381
 1459SOL    HW1 8833   3.586   6.250   9.930 -0.5084  1.5837  1.0037
 1459SOL    HW2 8834   3.519   6.122   9.974 -0.0670  0.2643 -1.9164
 1460SOL     OW 8835   5.755   1.957  10.836 -0.0821 -0.2140  0.7311
 1460SOL    HW1 8836   5.684   1.899  10.864  0.1104 -0.5024  0.6171
 1460SOL    HW2 8837   5.709   2.033  10.799 -0.3585 -1.0008 -0.6313
 1461SOL     OW 8838   7.842   9.471   6.644 -0.2672 -0.0704 -0.4965
 1461SOL    HW1 8839   7.933   9.499   6.644 -0.5574  0.9682  1.0631
 1461SOL    HW2 8840   7.843   9.383   6.680  0.3127 -0.9685 -2.5366
 1462SOL     OW 8841   9.035   0.088   2.188 -0.1780 -0.0126  0.4528
 1462SOL    HW1 8842   8.965   0.031   2.155 -0.0474 -0.0378  0.2168
 1462SOL    HW2 8843   9.032   0.165   2.132 -0.8196  0.5362  1.2134
 1463SOL     OW 8844   4.322  10.754   1.400 -1.2208 -0.0315  0.0439
 1463SOL    HW1 8845   4.407  10.714   1.417 -2.0945 -2.2300 -0.4865
 1463SOL    HW2 8846   4.274  10.746   1.482 -1.6428 -0.7298 -0.2652
 1464SOL     OW 8847   1.746   9.348   8.989  0.3888  0.6049 -0.8824
 1464SOL    HW1 8848   1.772   9.267   8.945 -0.5361  0.0957 -0.5104
 1464SOL    HW2 8849   1.779   9.337   9.079  0.1605  0.5948 -0.8013
 1465SOL     OW 8850   6.427   8.831   4.795 -0.1464  0.6976 -0.1626
 1465SOL    HW1 8851   6.413   8.738   4.774  1.0376  0.1687  1.2356
 1465SOL    HW2 8852   6.382   8.878   4.725 -0.7002 -0.9287 -0.9561
 1466SOL     OW 8853   4.350   0.139  10.352 -0.5078 -0.6655  0.1469
 1466SOL    HW1 8854   4.278   0.188  10.391 -0.4328 -0.9388  0.6273
 1466SOL    HW2 8855   4.393   0.096  10.426 -0.8429 -1.8297 -0.3281
 1467SOL     OW 8856   7.054   3.868  10.613 -0.2342 -0.4843 -0.3816
 1467SOL    HW1 8857   7.102   3.941  10.573 -0.8893 -0.5192 -1.2910
 1467SOL    HW2 8858   7.052   3.801  10.544  2.7431 -2.5580  1.3246
 1468SOL     OW 8859   4.718   7.047   5.203 -0.2242 -0.6006 -0.0484
 1468SOL    HW1 8860   4.639   6.999   5.178 -0.3080 -1.0300  0.9634
 1468SOL    HW2 8861   4.719   7.042   5.299  0.2958  0.5936  0.0254
 1469SOL     OW 8862   6.565   0.815   7.325 -0.0003 -0.5203 -0.1699
 1469SOL    HW1 8863   6.525   0.896   7.293 -1.5492 -1.7231 -1.4807
 1469SOL    HW2 8864   6.624   0.843   7.394 -2.1266  1.5419  0.9776
 1470SOL     OW 8865   4.835   0.360   3.971  0.1466 -0.1841  0.3062
 1470SOL    HW1 8866   4.803   0.343   4.059  0.8306  3.1454  1.3457
 1470SOL    HW2 8867   4.913   0.306   3.962 -0.5966 -1.4645  1.2562
 1471SOL     OW 8868   9.343   2.090  10.846  0.3786 -0.1558  0.3927
 1471SOL    HW1 8869   9.282   2.054  10.781  1.7953 -0.4154 -0.8521
 1471SOL    HW2 8870   9.336   2.031  10.921 -0.6865 -0.3357  0.1622
 1472SOL     OW 8871   7.283   1.952   5.969 -0.6126  0.0039  0.4402
 1472SOL    HW1 8872   7.268   1.965   6.063 -0.7378 -1.7938  0.7195
 1472SOL    HW2 8873   7.331   1.869   5.964 -1.6851 -0.5700 -1.1380
 1473SOL     OW 8874   9.329   8.070   3.518 -0.1029  0.0408  0.2777
 1473SOL    HW1 8875   9.347   8.062   3.424 -2.6741  0.7169 -0.3592
 1473SOL    HW2 8876   9.263   8.003   3.534  1.1741 -0.8852  1.9260
 1474SOL     OW 8877   8.690   4.250   7.699 -0.3533 -0.7336  0.2161
 1474SOL    HW1 8878   8.620   4.279   7.758  1.1788  0.9015  1.3376
 1474SOL    HW2 8879   8.770   4.268   7.747  0.8580 -3.2777 -0.7252
 1475SOL     OW 8880   3.044   3.034   6.154 -0.0037 -0.9784 -0.3590
 1475SOL    HW1 8881   3.121   3.032   6.210 -0.6658 -1.1097  0.5748
 1475SOL    HW2 8882   3.059   2.965   6.089 -0.1336 -2.2205  0.9078
 1476SOL     OW 8883   9.979   8.407   1.217  0.2166  0.0681 -0.3405
 1476SOL    HW1 8884  10.035   8.470   1.263  1.2565 -1.9235  1.2693
 1476SOL    HW2 8885   9.895   8.413   1.262  0.7529 -0.7179  0.8003
 1477SOL     OW 8886  10.452   0.474   0.393  0.2664 -0.2429 -0.2422
 1477SOL    HW1 8887  10.398   0.486   0.315  0.2347 -1.1588 -0.3643
 1477SOL    HW2 8888  10.423   0.391   0.431  1.3681 -0.6033 -0.1416
 1478SOL     OW 8889   6.560   8.842   0.037  0.7004  0.0139 -0.4691
 1478SOL    HW1 8890   6.638   8.814   0.085 -0.1303 -0.4366  0.6531
 1478SOL    HW2 8891   6.495   8.862   0.105  0.0523  1.0639 -1.3584
 1479SOL     OW 8892   3.203   1.055   7.610  0.8371  0.8294  0.2025
 1479SOL    HW1 8893   3.161   1.140   7.598  0.3165  1.0148  2.7524
 1479SOL    HW2 8894   3.290   1.077   7.646  0.8406  0.3048  0.5226
 1480SOL     OW 8895   9.423   7.335   2.937 -0.3627 -0.3893  0.4684
 1480SOL    HW1 8896   9.406   7.428   2.922  1.8522  0.6130  3.2985
 1480SOL    HW2 8897   9.474   7.308   2.860  0.7540  1.3410  0.5245
 1481SOL     OW 8898  10.784   4.514   0.571  0.0257 -0.1680 -0.1053
 1481SOL    HW1 8899  10.749   4.511   0.482  0.5427  0.5994 -0.3380
 1481SOL    HW2 8900  10.761   4.429   0.608 -0.0413 -0.5638 -1.0265
 1482SOL     OW 8901   2.945   3.284   2.592  0.1013 -0.4723  0.5405
 1482SOL    HW1 8902   3.029   3.246   2.568 -0.3548 -1.5781  0.6303
 1482SOL    HW2 8903   2.920   3.337   2.516  1.1744  0.4126  0.7802
 1483SOL     OW 8904   0.329   0.714   1.818  0.4449 -0.1428 -0.4486
 1483SOL    HW1 8905   0.341   0.800   1.859 -0.8026  0.2962 -0.9609
 1483SOL    HW2 8906   0.418   0.682   1.804  0.9386  1.0705 -0.2703
 1484SOL     OW 8907   3.432   4.996   0.742  0.4194  0.1940  0.0599
 1484SOL    HW1 8908   3.345   5.035   0.739  0.2947 -0.1245 -1.1722
 1484SOL    HW2 8909   3.457   4.998   0.835 -1.6137 -1.3035  0.6879
 1485SOL     OW 8910   3.061   5.549   0.785 -0.3499 -0.7080 -0.0258
 1485SOL    HW1 8911   3.102   5.605   0.851 -1.3063 -0.8343  0.7002
 1485SOL    HW2 8912   2.991   5.503   0.832 -0.1523 -1.8615 -0.8066
 1486SOL     OW 8913   4.521   1.188   1.008  0.6666 -0.1895 -0.1398
 1486SOL    HW1 8914   4.426   1.199   1.002  0.4763 -0.9489  1.2167
 1486SOL    HW2 8915   4.553   1.274   1.037  0.4913  0.2804 -1.2813
 1487SOL     OW 8916  10.299   0.602   1.193 -0.3764  0.1884  0.4149
 1487SOL    HW1 8917  10.310   0.695   1.213  0.8930  0.4338 -1.1715
 1487SOL    HW2 8918  10.340   0.556   1.266 -1.3691  0.8453  1.4090
 1488SOL     OW 8919   2.585   1.758   0.039 -0.0499 -0.3070 -0.2571
 1488SOL    HW1 8920   2.507   1.724  -0.007  0.5147 -1.3214 -0.5103
 1488SOL    HW2 8921   2.596   1.847   0.005 -0.5239 -0.5052 -0.9701
 1489SOL     OW 8922   9.466   4.847   1.179 -0.5612 -0.2948 -0.4491
 1489SOL    HW1 8923   9.553   4.884   1.196 -0.7909  0.9416 -1.7460
 1489SOL    HW2 8924   9.406   4.906   1.223 -0.8398 -0.0292 -1.1675
 1490SOL     OW 8925   1.778  11.062   8.189 -0.2591  0.3236  0.1750
 1490SOL    HW1 8926   1.846  11.005   8.152 -0.3829 -0.0074  0.4566
 1490SOL    HW2 8927   1.703  11.052   8.130  0.2883  1.5590 -0.7968
 1491SOL     OW 8928   8.546   2.068   0.840 -0.1335 -0.1011  0.2028
 1491SOL    HW1 8929   8.568   2.072   0.933 -1.6734 -1.1202  0.6538
 1491SOL    HW2 8930   8.590   2.144   0.801  0.8814  0.1009  1.6664
 1492SOL     OW 8931   3.026   4.679   5.884  1.1126  0.1227  0.3953
 1492SOL    HW1 8932   2.980   4.753   5.926  0.4241  0.5723 -1.0625
 1492SOL    HW2 8933   2.982   4.601   5.918 -0.9711  0.5483 -1.0998
 1493SOL     OW 8934   6.153   2.333  10.915 -0.3566 -0.0251 -0.9728
 1493SOL    HW1 8935   6.217   2.267  10.939 -0.3604 -0.7161 -2.6678
 1493SOL    HW2 8936   6.111   2.358  10.997  0.8358 -0.8699 -0.0813
 1494SOL     OW 8937   2.409   1.414   8.959  0.4342  0.2530  0.0709
 1494SOL    HW1 8938   2.328   1.440   8.915  0.3696  1.0579  0.6368
 1494SOL    HW2 8939   2.430   1.329   8.922  1.9048  1.9950 -3.6636
 1495SOL     OW 8940   9.793   0.818   9.534  0.3394  0.2006  0.2935
 1495SOL    HW1 8941   9.714   0.763   9.527  0.7742 -0.2414 -1.6698
 1495SOL    HW2 8942   9.772   0.896   9.483  1.0142  0.2822  0.1396
 1496SOL     OW 8943   9.403   5.580   3.649 -0.2459  0.4682  0.1786
 1496SOL    HW1 8944   9.470   5.546   3.589  1.4938  0.6308  1.9056
 1496SOL    HW2 8945   9.369   5.502   3.693 -2.0871  0.2632 -1.4548
 1497SOL     OW 8946   4.782   4.987   6.032  0.0272  0.0484  0.0018
 1497SOL    HW1 8947   4.793   5.024   6.120  0.0350 -2.2649  1.0396
 1497SOL    HW2 8948   4.866   4.946   6.013 -0.3493 -0.4631 -0.5897
 1498SOL     OW 8949   8.254   3.882  10.789  0.1333 -0.0564  0.3516
 1498SOL    HW1 8950   8.304   3.802  10.809  1.0502  0.8098  1.6729
 1498SOL    HW2 8951   8.181   3.881  10.850  0.7652  0.6392  1.1496
 1499SOL     OW 8952   8.301   9.186   2.433  0.5208 -0.1837  0.2636
 1499SOL    HW1 8953   8.225   9.128   2.426  0.1874 -0.0151  1.8845
 1499SOL    HW2 8954   8.314   9.196   2.528  2.1412  0.3534  0.0155
 1500SOL     OW 8955  11.036   6.706   3.733 -0.1081  0.0791  0.4545
 1500SOL    HW1 8956  11.119   6.671   3.699 -0.7922 -1.4791  0.2920
 1500SOL    HW2 8957  10.981   6.715   3.655 -0.4372  0.0721  0.6875
 1501SOL     OW 8958   6.551   1.724   5.621 -0.1504  0.5165 -0.1084
 1501SOL    HW1 8959   6.523   1.638   5.652  0.0775  0.3533 -0.3473
 1501SOL    HW2 8960   6.625   1.747   5.677  1.1963 -0.4249 -1.4230
 1502SOL     OW 8961  10.702   0.639   0.265 -0.8877  0.4687 -0.4993
 1502SOL    HW1 8962  10.662   0.624   0.351 -1.3949  2.1180 -0.4032
 1502SOL    HW2 8963  10.767   0.708   0.281  1.0009 -1.1377 -0.9381
 1503SOL     OW 8964   2.801   0.497   6.324 -0.2861 -0.3165  0.4997
 1503SOL    HW1 8965   2.885   0.461   6.296 -0.8345 -1.0258 -0.2828
 1503SOL    HW2 8966   2.820   0.543   6.405  0.9797  0.0831 -0.0025
 1504SOL     OW 8967   3.195   1.851  10.856  0.2973 -0.0574  0.2886
 1504SOL    HW1 8968   3.257   1.784  10.829 -0.3232 -0.4662 -0.1523
 1504SOL    HW2 8969   3.157   1.818  10.938  2.1670  1.1741  1.7345
 1505SOL     OW 8970  10.447   9.998   6.286 -0.0182 -0.2520  0.3544
 1505SOL    HW1 8971  10.402   9.969   6.206 -1.2496 -0.1147  0.9760
 1505SOL    HW2 8972  10.467   9.917   6.333 -0.1906 -0.2805  0.3788
 1506SOL     OW 8973   1.209   4.494   0.542 -0.0503  0.2628 -0.0115
 1506SOL    HW1 8974   1.180   4.434   0.473 -1.5300  1.5846 -0.5789
 1506SOL    HW2 8975   1.133   4.504   0.599  1.6441 -2.3301  3.0755
 1507SOL     OW 8976   1.955   1.106   5.373 -0.0646  0.0473 -0.7541
 1507SOL    HW1 8977   1.965   1.101   5.278 -1.4446  1.0432 -0.9836
 1507SOL    HW2 8978   1.920   1.194   5.388  0.9306  0.2141  0.7606
 1508SOL     OW 8979   6.185   6.135   3.842  0.2664 -0.3538 -0.8301
 1508SOL    HW1 8980   6.160   6.082   3.767  1.9341  0.3462 -1.9164
 1508SOL    HW2 8981   6.244   6.079   3.893  0.2622 -0.3130 -0.7799
 1509SOL     OW 8982  10.254   3.904   8.169  0.2606  0.4316  0.3489
 1509SOL    HW1 8983  10.198   3.881   8.243  0.7459 -0.9120  0.3256
 1509SOL    HW2 8984  10.343   3.884   8.198  0.3917 -0.8236 -0.8264
 1510SOL     OW 8985   9.037   1.553   1.495  0.1085  0.1450  0.2960
 1510SOL    HW1 8986   9.016   1.526   1.406 -1.5223  1.5746  0.2104
 1510SOL    HW2 8987   9.045   1.471   1.544  1.6374 -0.6907 -1.2524
 1511SOL     OW 8988   5.713   2.032   0.385 -0.2572  0.1515  0.4530
 1511SOL    HW1 8989   5.699   2.064   0.474 -2.9215  0.6657 -0.0449
 1511SOL    HW2 8990   5.672   1.946   0.383 -1.5219  0.7310 -0.5769
 1512SOL     OW 8991   1.115   7.670   3.210  0.1786 -0.0853  0.4554
 1512SOL    HW1 8992   1.178   7.732   3.247  0.0451  0.0029  0.5324
 1512SOL    HW2 8993   1.066   7.637   3.285  0.1307 -0.1526  0.3946
 1513SOL     OW 8994   5.024   0.251   6.188 -0.0684 -0.0624 -0.2795
 1513SOL    HW1 8995   5.056   0.167   6.155 -0.0859 -0.0625 -0.2962
 1513SOL    HW2 8996   5.049   0.314   6.121 -2.3125 -0.4060 -1.5555
 1514SOL     OW 8997   3.680   1.208   2.297 -0.6623  0.1172 -0.1723
 1514SOL    HW1 8998   3.761   1.167   2.268 -2.0181 -2.0092 -1.2273
 1514SOL    HW2 8999   3.702   1.251   2.380  1.6025  0.0156 -0.6769
 1515SOL     OW 9000   4.803   8.617   5.802  0.0194 -0.3639  0.4713
 1515SOL    HW1 9001   4.775   8.548   5.741 -0.5310  1.6281 -1.6958
 1515SOL    HW2 9002   4.898   8.617   5.795 -0.0599  0.4530 -1.2313
 1516SOL     OW 9003   1.028   7.417   7.766  0.7778  0.3949  0.4534
 1516SOL    HW1 9004   0.962   7.399   7.833 -0.0994  1.5372 -0.0734
 1516SOL    HW2 9005   1.020   7.344   7.705 -0.7288  1.0094 -0.1372
 1517SOL     OW 9006   7.130   5.368   2.753  0.4379 -0.1400  0.1289
 1517SOL    HW1 9007   7.225   5.351   2.754  0.4441 -0.6428 -2.1977
 1517SOL    HW2 9008   7.113   5.417   2.833  2.6643 -0.0642  0.6198
 1518SOL     OW 9009   8.258   4.715   3.148  0.0418  0.3655 -0.3518
 1518SOL    HW1 9010   8.190   4.649   3.159  0.4007  0.1781  1.0144
 1518SOL    HW2 9011   8.214   4.790   3.110 -0.7804  0.0068 -0.1190
 1519SOL     OW 9012   0.657   5.534  10.050 -0.3213  0.4679  0.1356
 1519SOL    HW1 9013   0.603   5.528   9.971 -1.9718 -2.2744  1.3013
 1519SOL    HW2 9014   0.617   5.604  10.101 -0.7178  0.6824 -0.4609
 1520SOL     OW 9015   0.833   3.299   0.360  0.3194  0.1086  0.4306
 1520SOL    HW1 9016   0.833   3.212   0.399  0.5270  0.2772  0.8104
 1520SOL    HW2 9017   0.817   3.283   0.267  0.8548 -0.3719  0.4136
 1521SOL     OW 9018   3.574   8.512  10.872 -0.3074  0.0166  0.4424
 1521SOL    HW1 9019   3.640   8.461  10.826  0.7966  0.0390  1.9369
 1521SOL    HW2 9020   3.621   8.588  10.906 -1.8374  1.9949 -1.4881
 1522SOL     OW 9021   8.137   4.637   6.263 -0.1251 -0.7223  0.1238
 1522SOL    HW1 9022   8.098   4.565   6.213 -1.2897 -0.4663  0.6475
 1522SOL    HW2 9023   8.125   4.612   6.354  1.9163 -1.1434  0.3162
 1523SOL     OW 9024   9.732   6.965  10.708 -0.0664  0.0195  0.4185
 1523SOL    HW1 9025   9.661   6.966  10.772  0.4362 -1.6094  1.0599
 1523SOL    HW2 9026   9.709   6.896  10.646 -0.7536  1.8439 -1.4913
 1524SOL     OW 9027   7.359   4.752   9.978  0.1403 -0.9519 -0.5731
 1524SOL    HW1 9028   7.326   4.829  10.023  1.9456  0.0542 -0.8840
 1524SOL    HW2 9029   7.284   4.719   9.928 -1.2628 -0.7595  1.3160
 1525SOL     OW 9030   1.346   8.196   2.236  0.6343 -0.1868  0.6966
 1525SOL    HW1 9031   1.402   8.234   2.169  0.3004 -0.5201  0.2138
 1525SOL    HW2 9032   1.273   8.258   2.245 -0.4268 -1.1388 -0.8073
 1526SOL     OW 9033   3.410  10.560   0.972 -0.6792  0.8353  0.2090
 1526SOL    HW1 9034   3.391  10.563   1.065 -1.4791  1.1019  0.0396
 1526SOL    HW2 9035   3.397  10.649   0.941 -0.7043  0.6899 -0.2132
 1527SOL     OW 9036   8.801  10.479   0.468 -1.0333 -0.1418 -0.0102
 1527SOL    HW1 9037   8.853  10.522   0.536 -1.7504 -1.5018  1.4452
 1527SOL    HW2 9038   8.866  10.428   0.418 -0.5528  0.6089 -0.1797
 1528SOL     OW 9039   1.574   8.799   0.412 -0.0148 -0.4489  0.0660
 1528SOL    HW1 9040   1.492   8.839   0.382 -1.2580 -2.3562  0.7242
 1528SOL    HW2 9041   1.634   8.809   0.338 -0.8121  1.0118 -0.4235
 1529SOL     OW 9042   0.702   0.123   1.768 -0.9087 -0.2769 -0.3452
 1529SOL    HW1 9043   0.756   0.079   1.833 -0.2062  2.2000  0.8543
 1529SOL    HW2 9044   0.619   0.139   1.813 -1.4522 -1.0542 -1.0443
 1530SOL     OW 9045   0.396   1.350   0.962 -0.2542 -0.6887  0.2360
 1530SOL    HW1 9046   0.428   1.419   1.020 -2.4916 -0.2233  1.0077
 1530SOL    HW2 9047   0.307   1.377   0.939 -0.8888 -2.8920 -0.1255
 1531SOL     OW 9048   7.069  10.957   2.674  0.2503  0.2263 -0.0818
 1531SOL    HW1 9049   6.999  10.965   2.738 -0.1218 -0.9914 -0.3122
 1531SOL    HW2 9050   7.025  10.933   2.593  1.0448 -2.2143  0.1452
 1532SOL     OW 9051   8.358   5.443   7.762 -0.6005 -0.3578 -0.4739
 1532SOL    HW1 9052   8.318   5.503   7.699  0.7878  0.3591 -0.7009
 1532SOL    HW2 9053   8.403   5.501   7.824 -0.7826 -1.1100  0.3744
 1533SOL     OW 9054   5.330   3.211   3.763  0.1345  0.0233  0.0495
 1533SOL    HW1 9055   5.404   3.242   3.709  0.8348 -0.9298  0.4393
 1533SOL    HW2 9056   5.286   3.146   3.709  0.7655 -0.8456  0.5694
 1534SOL     OW 9057  10.381   1.519  10.513  0.1057 -0.2435 -0.2019
 1534SOL    HW1 9058  10.431   1.583  10.463  0.1301 -0.8853 -1.0320
 1534SOL    HW2 9059  10.447   1.459  10.548  0.0395 -0.1902  0.0127
 1535SOL     OW 9060   6.076   1.830   7.774 -0.5356 -0.2777  0.1082
 1535SOL    HW1 9061   5.989   1.800   7.749  0.0608 -1.5534 -0.5726
 1535SOL    HW2 9062   6.091   1.908   7.721 -0.8313 -0.7064 -0.6308
 1536SOL     OW 9063   7.230   8.802   1.780  0.8551  0.5887  0.1736
 1536SOL    HW1 9064   7.274   8.756   1.708  0.9719  0.0212  0.5989
 1536SOL    HW2 9065   7.262   8.892   1.774 -0.2357  0.9175 -1.3704
 1537SOL     OW 9066   5.023   0.638   0.740  0.2315  0.2291 -0.0765
 1537SOL    HW1 9067   5.073   0.632   0.658  0.5176  0.4152  0.0843
 1537SOL    HW2 9068   5.089   0.634   0.809 -0.1115 -1.6786  0.2112
 1538SOL     OW 9069   1.664   9.329   8.206 -1.1347 -0.4010 -0.5901
 1538SOL    HW1 9070   1.609   9.397   8.167  1.2003  1.4470 -0.8912
 1538SOL    HW2 9071   1.630   9.317   8.294 -1.5579  1.2583 -0.5044
 1539SOL     OW 9072   4.573   7.982   7.064  0.0299 -0.8945 -0.2179
 1539SOL    HW1 9073   4.604   7.947   6.981  1.6053  1.4677 -0.7369
 1539SOL    HW2 9074   4.624   7.935   7.130  1.4938 -0.2560 -0.8433
 1540SOL     OW 9075   4.529   9.907   6.026  0.5416 -0.0932  0.2541
 1540SOL    HW1 9076   4.520   9.985   5.971 -0.1338  1.3034  2.2333
 1540SOL    HW2 9077   4.443   9.864   6.019 -0.3742  1.3455  1.9570
 1541SOL     OW 9078   0.062   9.220   6.469 -0.4297 -0.4402 -0.8266
 1541SOL    HW1 9079   0.004   9.163   6.419 -1.2724 -0.7102  0.4410
 1541SOL    HW2 9080   0.150   9.202   6.433 -1.0141 -0.4822 -2.3222
 1542SOL     OW 9081   1.219   4.433   8.337 -0.5476 -0.0760  0.3991
 1542SOL    HW1 9082   1.227   4.491   8.412  2.2793 -1.5279  1.3774
 1542SOL    HW2 9083   1.223   4.345   8.375  1.7114 -0.8465 -1.4490
 1543SOL     OW 9084   8.077   0.965   3.981 -0.0240 -0.0617  0.4237
 1543SOL    HW1 9085   8.059   0.876   4.013  0.6489  0.3354  2.0232
 1543SOL    HW2 9086   8.048   0.964   3.890  0.3830 -2.0517  0.2674
 1544SOL     OW 9087   0.363   8.284   6.294 -0.2798 -0.2875  0.2337
 1544SOL    HW1 9088   0.332   8.281   6.385  0.0738  0.0831  0.3733
 1544SOL    HW2 9089   0.284   8.295   6.242 -0.3634  1.3585  0.6252
 1545SOL     OW 9090   8.254   1.431   6.932  0.5893 -0.5566 -0.3735
 1545SOL    HW1 9091   8.231   1.372   6.860 -0.3670 -1.7531  0.8581
 1545SOL    HW2 9092   8.174   1.439   6.983  0.4610  2.5211 -0.9266
 1546SOL     OW 9093   3.740  10.287   8.999 -0.4393 -0.0441  0.2354
 1546SOL    HW1 9094   3.798  10.225   9.044  0.1387 -0.1518 -0.6387
 1546SOL    HW2 9095   3.758  10.371   9.040  0.1727 -0.1208  0.1367
 1547SOL     OW 9096   0.131  11.012   5.301 -0.0234  0.2969  0.3268
 1547SOL    HW1 9097   0.175  10.989   5.383 -1.3088  1.6630  1.4687
 1547SOL    HW2 9098   0.171  11.095   5.275  0.6791 -0.3439 -0.6911
 1548SOL     OW 9099   2.482   4.755   7.405  0.5168  1.0548 -0.2723
 1548SOL    HW1 9100   2.481   4.663   7.378  0.4584  0.4048  1.7518
 1548SOL    HW2 9101   2.514   4.753   7.495  0.5372  3.0428 -0.1906
 1549SOL     OW 9102  10.987   0.087   5.433  0.4248  0.3620 -0.7167
 1549SOL    HW1 9103  11.050   0.044   5.375  1.7688  1.0634  0.1778
 1549SOL    HW2 9104  10.902   0.055   5.404  1.2137 -0.9008 -1.7184
 1550SOL     OW 9105   2.101   8.484   2.156  0.0379  0.2615 -0.1589
 1550SOL    HW1 9106   2.053   8.409   2.120  1.1120 -1.7751  2.2952
 1550SOL    HW2 9107   2.180   8.491   2.102  1.4521 -2.4896  1.3539
 1551SOL     OW 9108  10.156   5.801   6.073  0.4456 -0.3844  0.3060
 1551SOL    HW1 9109  10.116   5.742   6.137 -0.2588 -0.0881  0.1420
 1551SOL    HW2 9110  10.088   5.815   6.007  0.4422  0.9633  0.5759
 1552SOL     OW 9111   8.884   4.397   8.393  0.2623  0.1829 -0.5979
 1552SOL    HW1 9112   8.890   4.453   8.470  0.1510 -0.3822 -0.1667
 1552SOL    HW2 9113   8.801   4.351   8.403  0.8805 -0.9311 -0.3199
 1553SOL     OW 9114   4.606   6.612   2.102  0.0268 -0.2503  0.2261
 1553SOL    HW1 9115   4.538   6.547   2.122 -1.0995  0.4587 -1.0765
 1553SOL    HW2 9116   4.577   6.691   2.147  1.0305 -0.4458  1.2420
 1554SOL     OW 9117   0.502   1.141   7.409  0.4459 -0.4956 -0.1896
 1554SOL    HW1 9118   0.426   1.084   7.422  1.6699 -2.5214 -1.3458
 1554SOL    HW2 9119   0.522   1.133   7.315 -0.3702  3.3401 -0.8622
 1555SOL     OW 9120   4.602   4.765   6.385  0.3855 -0.3134  0.3800
 1555SOL    HW1 9121   4.573   4.761   6.476 -0.1024 -1.2897  0.1852
 1555SOL    HW2 9122   4.538   4.821   6.342  0.8396  0.4778  0.7091
 1556SOL     OW 9123   5.130   9.650   5.465 -0.1634 -0.4704 -0.1535
 1556SOL    HW1 9124   5.167   9.723   5.516 -1.9084 -0.4139  1.1027
 1556SOL    HW2 9125   5.140   9.678   5.374  1.6636  0.0917  0.1651
 1557SOL     OW 9126   4.266   2.127   7.250  0.3162  0.1669 -0.1194
 1557SOL    HW1 9127   4.259   2.195   7.317  1.0315 -0.0652  0.1926
 1557SOL    HW2 9128   4.298   2.050   7.297 -0.6315 -0.4420 -0.4377
 1558SOL     OW 9129   4.325   7.030   3.325  0.2460  0.1058 -0.0732
 1558SOL    HW1 9130   4.337   7.125   3.317 -0.3609  0.0588 -2.1366
 1558SOL    HW2 9131   4.247   7.021   3.380  2.1979  0.6566  3.0092
 1559SOL     OW 9132   3.606   6.046   5.773 -0.0757  0.0686  0.3006
 1559SOL    HW1 9133   3.582   6.072   5.863  1.2605 -0.6688  0.9020
 1559SOL    HW2 9134   3.701   6.055   5.770 -0.2367  1.8552 -1.6583
 1560SOL     OW 9135   1.739   0.064   5.540 -0.0774  0.1201 -0.0020
 1560SOL    HW1 9136   1.648   0.048   5.515  0.1951 -1.5935 -0.0643
 1560SOL    HW2 9137   1.770   0.130   5.479 -0.4721 -1.3617 -1.9137
 1561SOL     OW 9138   5.108  10.837   2.909 -0.0533 -0.6573  0.1290
 1561SOL    HW1 9139   5.114  10.925   2.945 -0.9094  0.6574 -2.5993
 1561SOL    HW2 9140   5.085  10.782   2.983  1.6089  1.1880  2.1522
 1562SOL     OW 9141   8.100   1.756   9.917  1.0735  0.2230  0.4447
 1562SOL    HW1 9142   8.026   1.782   9.862  0.7547  0.1775  0.8503
 1562SOL    HW2 9143   8.173   1.809   9.885  1.1125 -0.4308 -0.6089
 1563SOL     OW 9144   3.672   5.607   6.243  0.5915 -0.6991  0.6580
 1563SOL    HW1 9145   3.759   5.584   6.213  1.3095 -0.4547  2.4389
 1563SOL    HW2 9146   3.617   5.533   6.217  0.9027 -0.1165 -2.0168
 1564SOL     OW 9147   7.091   0.914   9.176  0.1003  0.1216 -0.0779
 1564SOL    HW1 9148   7.184   0.934   9.165 -0.1138  1.2993  0.1555
 1564SOL    HW2 9149   7.082   0.892   9.268  0.5928 -2.6529 -0.5890
 1565SOL     OW 9150  10.546  10.089   8.818  0.4545 -0.2272 -0.3729
 1565SOL    HW1 9151  10.467  10.034   8.810  0.1043 -0.0830  1.6076
 1565SOL    HW2 9152  10.514  10.178   8.806  0.2337 -0.1413  0.7800
 1566SOL     OW 9153   7.415   0.604   4.433 -0.4394  0.2396 -0.2905
 1566SOL    HW1 9154   7.498   0.592   4.478 -0.7509  0.3486  0.3240
 1566SOL    HW2 9155   7.368   0.669   4.486 -1.4654 -0.8145  0.1460
 1567SOL     OW 9156   4.113   9.837   2.360  0.0845  0.2565 -0.9249
 1567SOL    HW1 9157   4.164   9.759   2.382  0.7841  1.3767  1.7609
 1567SOL    HW2 9158   4.143   9.862   2.272  2.5274 -0.4292 -0.3463
 1568SOL     OW 9159   9.572   2.792   3.615  0.3165  0.1227 -0.0527
 1568SOL    HW1 9160   9.486   2.772   3.651 -0.1384  1.4442 -0.3412
 1568SOL    HW2 9161   9.563   2.777   3.521  0.1759  0.9228 -0.1772
 1569SOL     OW 9162   4.835   2.826   0.955  0.3350 -0.1919  0.3887
 1569SOL    HW1 9163   4.805   2.842   1.045  0.1803 -0.6177  0.4144
 1569SOL    HW2 9164   4.786   2.749   0.926  0.3742 -0.0487 -0.0682
 1570SOL     OW 9165   8.233   1.493   9.538 -0.6541  0.5878  0.2423
 1570SOL    HW1 9166   8.278   1.452   9.612 -3.2412  0.3495  1.8605
 1570SOL    HW2 9167   8.240   1.587   9.556  1.2254  0.7035 -0.8810
 1571SOL     OW 9168  10.152   0.453   5.114 -0.1211 -0.2068 -0.1425
 1571SOL    HW1 9169  10.218   0.512   5.150  0.0129  0.4929 -1.4602
 1571SOL    HW2 9170  10.181   0.366   5.139  1.3431  0.0868 -0.7447
 1572SOL     OW 9171   3.541  10.201   8.577 -0.7326 -0.2162 -0.4532
 1572SOL    HW1 9172   3.508  10.115   8.551 -0.7721 -0.1910 -0.4865
 1572SOL    HW2 9173   3.552  10.249   8.495  2.0518 -1.1463 -0.7191
 1573SOL     OW 9174   2.280   3.671   5.553 -0.3725  0.1991 -0.3182
 1573SOL    HW1 9175   2.221   3.666   5.628 -0.2325 -3.3026 -0.2891
 1573SOL    HW2 9176   2.236   3.729   5.492 -1.4865  1.4792  1.5751
 1574SOL     OW 9177   7.821   2.359   7.426  0.3573 -0.0406 -0.0961
 1574SOL    HW1 9178   7.857   2.404   7.350 -1.2823 -1.6944 -1.9437
 1574SOL    HW2 9179   7.872   2.279   7.433 -1.5509 -1.4691 -1.5505
 1575SOL     OW 9180   3.764   8.516   3.688  0.4434  0.2967 -0.7337
 1575SOL    HW1 9181   3.744   8.510   3.595  0.1827 -1.5180 -0.5967
 1575SOL    HW2 9182   3.853   8.554   3.691  0.0881  1.2582 -1.6461
 1576SOL     OW 9183   7.288   3.794   4.347 -0.0899  0.1873  0.2502
 1576SOL    HW1 9184   7.365   3.753   4.307 -0.6240  0.1305 -0.7223
 1576SOL    HW2 9185   7.223   3.799   4.277 -1.8651 -1.9663  1.6263
 1577SOL     OW 9186   5.013   1.262  10.726 -0.4548 -0.3101  0.4218
 1577SOL    HW1 9187   5.083   1.231  10.668  2.5454  1.7381  2.6090
 1577SOL    HW2 9188   4.957   1.186  10.739  1.1831 -2.0248 -1.7139
 1578SOL     OW 9189   4.719   2.374   6.777  0.8248  0.4682 -0.2055
 1578SOL    HW1 9190   4.744   2.463   6.803 -0.7591  1.4521 -1.8376
 1578SOL    HW2 9191   4.734   2.372   6.683 -0.8527 -0.3749 -0.4881
 1579SOL     OW 9192   6.929   7.048   8.152 -0.6693  0.1843 -0.3141
 1579SOL    HW1 9193   6.968   7.132   8.129 -1.9291  0.4338 -1.7419
 1579SOL    HW2 9194   6.931   7.045   8.248 -1.1463  2.1321 -0.2034
 1580SOL     OW 9195   8.520   8.086   0.163  0.2927 -0.1118 -0.3387
 1580SOL    HW1 9196   8.563   8.170   0.145  0.3930 -0.1331 -0.1978
 1580SOL    HW2 9197   8.554   8.060   0.248  0.4146 -0.3945 -0.4749
 1581SOL     OW 9198   4.486   8.311   2.118  0.2109 -0.0838  0.2317
 1581SOL    HW1 9199   4.412   8.306   2.178 -1.3122 -0.2361 -1.5748
 1581SOL    HW2 9200   4.508   8.220   2.099 -1.4643 -0.1261 -1.8814
 1582SOL     OW 9201   7.171   4.934   8.906  1.1352  0.1647 -0.1037
 1582SOL    HW1 9202   7.222   4.853   8.902  1.8884  0.6261  0.1042
 1582SOL    HW2 9203   7.235   5.003   8.918  0.4202  0.6963  0.8218
 1583SOL     OW 9204   4.636   2.240   4.104  0.1343 -0.4494 -0.6998
 1583SOL    HW1 9205   4.716   2.237   4.155 -0.2058  1.4713  0.0307
 1583SOL    HW2 9206   4.577   2.177   4.147  0.4112 -0.0484  0.2896
 1584SOL     OW 9207   8.166   2.706  10.500 -0.3127  0.3406 -0.2804
 1584SOL    HW1 9208   8.135   2.792  10.471  0.6710  1.5497  2.0047
 1584SOL    HW2 9209   8.195   2.720  10.590 -1.2884 -2.6941  0.6347
 1585SOL     OW 9210   3.828   3.903  10.937  0.2611 -0.6383 -0.0816
 1585SOL    HW1 9211   3.808   3.974  10.876  0.4372  0.2029  0.8082
 1585SOL    HW2 9212   3.859   3.831  10.882 -0.6092 -0.2766 -1.0585
 1586SOL     OW 9213   8.844   0.763   5.266 -0.0049 -0.2798 -0.0937
 1586SOL    HW1 9214   8.917   0.710   5.235  0.7443  0.9490 -0.5030
 1586SOL    HW2 9215   8.801   0.708   5.332  1.5466 -0.8599  0.4840
 1587SOL     OW 9216   8.088   6.290  10.975  0.0584 -0.0907  0.2702
 1587SOL    HW1 9217   8.140   6.366  10.950 -0.2492  0.2809  0.7459
 1587SOL    HW2 9218   8.018   6.325  11.029  1.2996 -0.9745  2.5845
 1588SOL     OW 9219   5.401   5.939   6.420  0.1364 -0.1288  0.3114
 1588SOL    HW1 9220   5.310   5.965   6.408 -0.4938 -2.4485 -0.6596
 1588SOL    HW2 9221   5.403   5.900   6.507 -0.6258 -2.7774 -0.7519
 1589SOL     OW 9222   6.336   1.938   5.639 -0.1000 -0.2542  0.5527
 1589SOL    HW1 9223   6.312   1.930   5.731  0.7847 -0.2914  0.7863
 1589SOL    HW2 9224   6.402   1.870   5.625  1.7450  1.4193  0.5891
 1590SOL     OW 9225   6.504   0.518   0.525  0.2394  0.3227 -0.4375
 1590SOL    HW1 9226   6.422   0.545   0.566 -0.0214  0.2825 -0.9241
 1590SOL    HW2 9227   6.478   0.482   0.440  0.5881 -1.2457  0.0740
 1591SOL     OW 9228   7.626   1.851   1.750  0.5528  0.1937  0.2239
 1591SOL    HW1 9229   7.531   1.843   1.749  0.5482  0.0178  1.3411
 1591SOL    HW2 9230   7.644   1.920   1.687 -0.3338  0.4108  0.1900
 1592SOL     OW 9231   0.525   6.555   5.616  0.3505  0.1684  0.1618
 1592SOL    HW1 9232   0.442   6.535   5.658 -0.8665  1.3214 -1.5570
 1592SOL    HW2 9233   0.590   6.550   5.686 -1.5151  1.7528  2.1259
 1593SOL     OW 9234   9.771   2.276   8.718  0.1159  0.2144 -0.4733
 1593SOL    HW1 9235   9.688   2.233   8.699  0.7949 -1.5263  0.2268
 1593SOL    HW2 9236   9.773   2.353   8.661 -1.8203  0.1294 -0.7096
 1594SOL     OW 9237   5.187   2.052   7.335  0.0299  0.6099 -1.3476
 1594SOL    HW1 9238   5.185   2.094   7.249 -0.3493  1.5398 -0.9000
 1594SOL    HW2 9239   5.130   2.106   7.390 -1.4123 -1.1463 -1.0322
 1595SOL     OW 9240   6.837   9.181   3.238 -0.5551 -0.3111 -0.3280
 1595SOL    HW1 9241   6.863   9.196   3.328 -3.6365  1.7397  0.3604
 1595SOL    HW2 9242   6.755   9.132   3.244  0.8674 -3.2611 -2.2332
 1596SOL     OW 9243   0.744   9.939   3.070  0.3971 -0.3091  1.3677
 1596SOL    HW1 9244   0.651   9.950   3.052  0.2216 -2.6159  0.4514
 1596SOL    HW2 9245   0.750   9.852   3.110  2.0042  0.4374  2.8324
 1597SOL     OW 9246   3.618   8.578  10.203 -0.3236 -0.1943  0.4209
 1597SOL    HW1 9247   3.653   8.514  10.141 -0.5197  0.6876 -0.6284
 1597SOL    HW2 9248   3.642   8.663  10.166  0.7612  0.3555  2.2638
 1598SOL     OW 9249   0.686   5.537   1.629 -0.4066  0.0930  0.5529
 1598SOL    HW1 9250   0.691   5.457   1.682  0.3083  0.2143  0.6764
 1598SOL    HW2 9251   0.641   5.600   1.686  0.2818  0.1962  0.9963
 1599SOL     OW 9252   9.773   8.659   5.104  0.2964 -0.3098  0.1363
 1599SOL    HW1 9253   9.796   8.680   5.195 -0.6202 -2.4443  0.9314
 1599SOL    HW2 9254   9.854   8.630   5.064  0.5046 -0.3127  0.5580
 1600SOL     OW 9255   1.034   9.784   3.642  0.1098 -0.0967  0.3463
 1600SOL    HW1 9256   0.984   9.866   3.636 -0.4489 -0.4539  0.0271
 1600SOL    HW2 9257   0.971   9.716   3.617  1.2665 -0.3940 -1.9565
 1601SOL     OW 9258   1.714   6.406   2.162  0.3910 -0.1767 -0.4733
 1601SOL    HW1 9259   1.726   6.340   2.231 -0.4783  0.7969  0.6674
 1601SOL    HW2 9260   1.629   6.384   2.123  0.5897 -0.3534 -0.8064
 1602SOL     OW 9261   1.828   5.743   9.706 -0.0398 -0.3400 -0.0161
 1602SOL    HW1 9262   1.746   5.694   9.692 -0.4917  0.1132  0.9349
 1602SOL    HW2 9263   1.800   5.822   9.751  0.9843 -0.3821  0.7070
 1603SOL     OW 9264   2.587   6.971   5.155 -0.0670 -0.2884  0.3753
 1603SOL    HW1 9265   2.576   7.002   5.065 -0.4687 -0.3791  0.3927
 1603SOL    HW2 9266   2.682   6.976   5.170  0.0589 -0.7472 -0.2256
 1604SOL     OW 9267   9.667   6.937   3.372  1.4411  0.3252  0.0578
 1604SOL    HW1 9268   9.727   6.892   3.313  2.3384  0.3363  0.9426
 1604SOL    HW2 9269   9.648   7.020   3.327 -0.3572 -0.9358 -1.6535
 1605SOL     OW 9270   1.738   8.770   0.175 -0.2579  0.2018  0.0869
 1605SOL    HW1 9271   1.689   8.846   0.142 -0.5792 -0.0766 -0.0863
 1605SOL    HW2 9272   1.823   8.776   0.131  0.3504  1.3997  1.3489
 1606SOL     OW 9273   4.773   9.071   9.043  0.2035 -0.3312  0.1461
 1606SOL    HW1 9274   4.825   9.061   8.964  2.0165  1.3706  1.0308
 1606SOL    HW2 9275   4.715   9.145   9.025 -0.8925 -1.2836 -0.3117
 1607SOL     OW 9276   3.533   1.047   3.675  0.2014 -0.0980  0.3462
 1607SOL    HW1 9277   3.468   1.051   3.604 -1.1730 -0.1639  1.5446
 1607SOL    HW2 9278   3.601   0.988   3.643 -0.8445 -0.8496 -0.5677
 1608SOL     OW 9279   1.677   9.965   0.066  0.1185 -0.2902 -0.0767
 1608SOL    HW1 9280   1.762   9.962   0.110 -1.6871 -0.5958  3.7767
 1608SOL    HW2 9281   1.648   9.874   0.063 -1.2669  0.0443  1.4603
 1609SOL     OW 9282   7.000   5.913   9.489  0.3741  0.1444  0.2688
 1609SOL    HW1 9283   6.949   5.833   9.475 -1.6542  0.9502  2.3009
 1609SOL    HW2 9284   6.975   5.969   9.416 -0.3232 -0.1344  0.2777
 1610SOL     OW 9285   6.277   9.010  10.032  0.0017  0.4139 -0.4889
 1610SOL    HW1 9286   6.258   8.922  10.064 -0.5108  1.0160  0.9721
 1610SOL    HW2 9287   6.192   9.045  10.007  0.0452  0.8765 -0.0014
 1611SOL     OW 9288   4.158   3.897   5.816 -0.3060 -0.3333 -0.2141
 1611SOL    HW1 9289   4.080   3.848   5.788  0.7111 -1.5299 -1.0403
 1611SOL    HW2 9290   4.225   3.830   5.828  0.2092  0.5112  2.0025
 1612SOL     OW 9291   9.495   1.563   0.488  0.6243 -0.0254  0.1388
 1612SOL    HW1 9292   9.558   1.561   0.416  0.1797  0.0581 -0.2561
 1612SOL    HW2 9293   9.542   1.606   0.559  1.0796 -0.1414 -0.0843
 1613SOL     OW 9294   5.349   1.978   5.697 -0.3892  0.3910 -0.2535
 1613SOL    HW1 9295   5.309   1.925   5.628  0.3082 -1.1811  0.5083
 1613SOL    HW2 9296   5.299   1.957   5.776  1.5398 -1.2436  0.6144
 1614SOL     OW 9297   1.858   5.007   3.702 -0.2440 -0.2237  0.0103
 1614SOL    HW1 9298   1.832   5.093   3.668  0.8785  0.0524 -0.2077
 1614SOL    HW2 9299   1.953   5.003   3.686 -0.1859 -1.2698  0.5369
 1615SOL     OW 9300   8.888  10.350   3.402 -0.4174 -0.2483 -0.0015
 1615SOL    HW1 9301   8.812  10.408   3.400 -0.1171  0.1490  0.0237
 1615SOL    HW2 9302   8.901  10.325   3.310 -0.1534  0.2483 -0.1048
 1616SOL     OW 9303   4.838   4.923   6.490 -0.0677 -0.4578 -0.8008
 1616SOL    HW1 9304   4.824   4.914   6.396 -0.9686  0.4460 -0.7716
 1616SOL    HW2 9305   4.772   4.986   6.518 -1.1725 -2.1867  0.7790
 1617SOL     OW 9306   1.195   3.785   3.331  0.1775 -0.8033 -0.2640
 1617SOL    HW1 9307   1.144   3.794   3.250  0.4642 -2.9695 -0.7367
 1617SOL    HW2 9308   1.188   3.871   3.373  0.1594  0.4527 -2.6582
 1618SOL     OW 9309   9.857   3.089   6.973  0.3395 -0.5894  0.0403
 1618SOL    HW1 9310   9.792   3.100   6.903 -0.3691  0.4376  0.8200
 1618SOL    HW2 9311   9.912   3.016   6.944 -0.1849 -0.4471 -1.3839
 1619SOL     OW 9312   7.907   9.928   6.720 -0.1087 -0.1409 -0.3135
 1619SOL    HW1 9313   7.902   9.994   6.651 -0.5460 -1.2633 -1.3917
 1619SOL    HW2 9314   7.816   9.904   6.738 -0.0513  0.6191  1.1677
 1620SOL     OW 9315   9.012   3.091  10.722 -0.0002  0.0595 -0.5162
 1620SOL    HW1 9316   9.024   3.026  10.791 -1.2270 -0.1216 -0.4535
 1620SOL    HW2 9317   9.031   3.044  10.641 -0.7345 -0.3393 -0.4608
 1621SOL     OW 9318   5.277   7.047   8.199  0.0030 -0.1537  0.3703
 1621SOL    HW1 9319   5.312   7.102   8.129 -0.1501  0.2023  0.5720
 1621SOL    HW2 9320   5.354   7.007   8.238  0.0810 -0.4888 -0.1058
 1622SOL     OW 9321   7.453   5.387   7.214 -0.1375  0.6060 -0.2855
 1622SOL    HW1 9322   7.517   5.427   7.155  0.5741 -0.6815 -0.4157
 1622SOL    HW2 9323   7.491   5.399   7.301 -1.0658  2.2773 -0.0664
 1623SOL     OW 9324   3.527   6.881   5.007 -0.1031 -0.0202  0.2350
 1623SOL    HW1 9325   3.436   6.853   5.007  0.2591 -1.2650 -0.0322
 1623SOL    HW2 9326   3.561   6.853   5.092  0.2452 -0.3711 -0.0111
 1624SOL     OW 9327   9.908   9.799   3.094  0.7761 -0.2861  0.1749
 1624SOL    HW1 9328   9.915   9.886   3.134 -0.2689  0.2481 -0.7673
 1624SOL    HW2 9329   9.864   9.746   3.160 -1.1796  0.6550 -0.3207
 1625SOL     OW 9330  10.021   8.665   0.588 -0.2882  0.0713  0.6787
 1625SOL    HW1 9331  10.070   8.661   0.506 -0.0199 -0.1491  0.8475
 1625SOL    HW2 9332   9.930   8.655   0.562 -0.1396 -0.8849  0.4912
 1626SOL     OW 9333   8.819   4.045   0.842 -0.0870 -0.1032  0.2729
 1626SOL    HW1 9334   8.842   4.137   0.851 -3.0179  0.7788 -0.0404
 1626SOL    HW2 9335   8.864   4.002   0.914  1.3617  1.5527  0.4223
 1627SOL     OW 9336  10.570   0.373   8.458  0.2909 -0.0023  0.0753
 1627SOL    HW1 9337  10.585   0.408   8.370 -2.6563 -1.4151 -1.1367
 1627SOL    HW2 9338  10.528   0.445   8.505  1.2415  0.5343  0.1236
 1628SOL     OW 9339   1.748   9.097   0.360 -0.3036 -0.3654  0.2760
 1628SOL    HW1 9340   1.789   9.180   0.386  0.0650 -0.2954 -0.4988
 1628SOL    HW2 9341   1.816   9.051   0.311 -0.1017 -1.6578  1.6824
 1629SOL     OW 9342   2.450   9.481  10.645  0.4232  0.6293 -0.2835
 1629SOL    HW1 9343   2.494   9.405  10.606  0.2369 -0.4655  1.5119
 1629SOL    HW2 9344   2.512   9.514  10.710 -1.1568 -0.7308  2.0608
 1630SOL     OW 9345   0.688  10.430   4.230 -0.1912 -0.8280  0.3741
 1630SOL    HW1 9346   0.730  10.447   4.146 -2.1020  2.5574 -0.1104
 1630SOL    HW2 9347   0.757  10.441   4.295  0.6110  0.0901 -0.6032
 1631SOL     OW 9348   2.649  10.129   8.682 -0.4439 -0.7436  0.5547
 1631SOL    HW1 9349   2.643  10.067   8.755 -0.8682 -2.5447 -0.9249
 1631SOL    HW2 9350   2.642  10.074   8.604 -1.9349  1.3188 -0.8474
 1632SOL     OW 9351   0.551   3.920  10.754  0.0649  0.0354 -0.0545
 1632SOL    HW1 9352   0.575   3.953  10.840  0.6105  1.7635 -0.8278
 1632SOL    HW2 9353   0.607   3.844  10.741  0.2885  0.0235  0.9323
 1633SOL     OW 9354   5.794   2.010   0.860 -0.1009 -0.1727 -0.6916
 1633SOL    HW1 9355   5.736   1.939   0.888  1.0345 -0.9133 -0.1237
 1633SOL    HW2 9356   5.787   2.075   0.929 -1.2690  0.3570 -1.2928
 1634SOL     OW 9357   2.460   1.285   4.013  0.0643 -0.3155  0.1054
 1634SOL    HW1 9358   2.383   1.341   4.020  1.5349  1.7356  0.7415
 1634SOL    HW2 9359   2.425   1.197   3.999 -2.4217  0.3303  1.7158
 1635SOL     OW 9360  10.408   7.347   2.989 -0.3034 -0.2510  0.1103
 1635SOL    HW1 9361  10.362   7.290   3.051  0.2614  0.1958  0.9558
 1635SOL    HW2 9362  10.341   7.409   2.960 -0.4638 -0.1909  0.5996
 1636SOL     OW 9363   9.264   5.743   0.155  0.5200  0.3225 -0.4177
 1636SOL    HW1 9364   9.263   5.795   0.236  1.5198 -0.2022 -0.0467
 1636SOL    HW2 9365   9.321   5.669   0.175  0.0987 -0.2657 -1.3404
 1637SOL     OW 9366   3.400   2.673   8.282 -0.0819 -0.0262  0.3160
 1637SOL    HW1 9367   3.356   2.758   8.288 -1.3532 -0.4390 -2.1139
 1637SOL    HW2 9368   3.329   2.609   8.280  0.8664 -1.2389  2.4366
 1638SOL     OW 9369  10.270   3.159   2.271  0.2324 -0.1718 -0.9071
 1638SOL    HW1 9370  10.363   3.138   2.277  0.0544 -0.9625 -0.7176
 1638SOL    HW2 9371  10.226   3.074   2.281 -0.5926  0.4549  1.1019
 1639SOL     OW 9372   3.399   1.707   3.769 -0.4898  0.2521 -0.2833
 1639SOL    HW1 9373   3.336   1.779   3.768 -2.0883 -1.0888 -0.1027
 1639SOL    HW2 9374   3.391   1.669   3.857  1.7781  1.0175  0.3327
 1640SOL     OW 9375   0.252   0.070   1.269 -0.2132  0.0239  0.5552
 1640SOL    HW1 9376   0.309  -0.007   1.275  0.1440  0.2989  0.7250
 1640SOL    HW2 9377   0.178   0.041   1.215 -0.7584 -0.8473  1.7371
 1641SOL     OW 9378   1.019   7.244   3.495 -0.5769  0.2706 -0.0322
 1641SOL    HW1 9379   0.994   7.332   3.466  0.6459  1.0386  1.1443
 1641SOL    HW2 9380   0.991   7.240   3.587 -0.6037 -0.5654 -0.0673
 1642SOL     OW 9381   9.348   2.137   6.314  0.9254  0.2790  0.1402
 1642SOL    HW1 9382   9.376   2.223   6.282 -1.5889  0.9561 -0.4456
 1642SOL    HW2 9383   9.336   2.085   6.235  0.5940 -0.0071  0.3754
 1643SOL     OW 9384   5.747   3.487  10.786 -0.2820  0.0234 -0.0774
 1643SOL    HW1 9385   5.671   3.429  10.778  0.3820 -0.5894 -2.9588
 1643SOL    HW2 9386   5.725   3.564  10.734  1.0329 -0.1481 -0.9248
 1644SOL     OW 9387   2.784   4.109   8.527  0.1547  0.3826  0.7150
 1644SOL    HW1 9388   2.735   4.058   8.591 -0.6498 -1.0422 -0.9380
 1644SOL    HW2 9389   2.874   4.077   8.534 -0.4109 -1.7876 -0.6223
 1645SOL     OW 9390   7.832   3.744   0.013  0.0043 -0.0967 -0.1245
 1645SOL    HW1 9391   7.738   3.759   0.021 -0.0632 -0.1921 -0.7325
 1645SOL    HW2 9392   7.870   3.791   0.088 -0.4782  0.3623 -0.1619
 1646SOL     OW 9393  10.335   8.687   4.925 -0.3250  0.2978 -0.2391
 1646SOL    HW1 9394  10.270   8.698   4.856  0.3525  1.0152 -0.7901
 1646SOL    HW2 9395  10.383   8.770   4.926  0.1008  0.0579  0.6587
 1647SOL     OW 9396   4.224   2.637   3.589  0.2181 -0.0848  0.2561
 1647SOL    HW1 9397   4.156   2.643   3.521  0.1160  1.8253  0.4634
 1647SOL    HW2 9398   4.306   2.644   3.540  0.2114 -0.4974  0.1803
 1648SOL     OW 9399   4.527  10.425   0.860  0.0279  0.0350 -0.5350
 1648SOL    HW1 9400   4.566  10.508   0.834  2.4175 -0.9069 -0.2029
 1648SOL    HW2 9401   4.467  10.448   0.931  1.1379  1.4170  0.0092
 1649SOL     OW 9402  10.684   1.028   3.302 -0.3803 -0.3324  0.0379
 1649SOL    HW1 9403  10.630   0.973   3.359 -0.0230  0.8665  1.6221
 1649SOL    HW2 9404  10.771   1.024   3.341  0.0855 -0.1762 -0.9636
 1650SOL     OW 9405   6.598   6.140   4.966  0.1506 -0.4629 -0.0472
 1650SOL    HW1 9406   6.630   6.229   4.981 -0.8005 -0.0789 -0.2596
 1650SOL    HW2 9407   6.664   6.100   4.910  0.9290 -0.1174  0.6008
 1651SOL     OW 9408   2.053   3.727  10.297 -0.3918 -0.2341 -0.5437
 1651SOL    HW1 9409   2.118   3.792  10.269 -0.5322  0.6917  1.1597
 1651SOL    HW2 9410   2.045   3.740  10.391 -1.6065 -1.6794 -0.4075
 1652SOL     OW 9411   2.700   3.444   2.898  0.4118 -0.3581  0.0483
 1652SOL    HW1 9412   2.667   3.423   2.986  0.4142  0.4282  0.2421
 1652SOL    HW2 9413   2.635   3.405   2.839 -1.3654  1.8423  0.4274
 1653SOL     OW 9414  10.007   2.999   3.562 -0.2631  0.5871 -0.0111
 1653SOL    HW1 9415  10.059   2.945   3.621 -1.7278 -0.4033  0.4362
 1653SOL    HW2 9416  10.071   3.043   3.506  1.0956  0.6126  1.5108
 1654SOL     OW 9417   5.202   2.880   1.780 -0.0021  0.5109 -0.5481
 1654SOL    HW1 9418   5.185   2.928   1.861  1.7459  2.6565 -1.3450
 1654SOL    HW2 9419   5.288   2.840   1.793 -0.0227  0.2813 -1.0823
 1655SOL     OW 9420   5.875  10.310   5.472  0.4835  0.3539  0.4679
 1655SOL    HW1 9421   5.903  10.226   5.509  1.4123  0.6457  0.4360
 1655SOL    HW2 9422   5.894  10.303   5.378  2.6650  1.4026  0.7727
 1656SOL     OW 9423   0.316   5.132   6.700 -0.2108  0.4221 -0.2772
 1656SOL    HW1 9424   0.362   5.207   6.662  1.6441 -0.6377 -0.2138
 1656SOL    HW2 9425   0.342   5.058   6.645 -1.3472 -0.3366  0.1726
 1657SOL     OW 9426   6.924   8.732   4.788 -0.4598 -0.7440  0.0258
 1657SOL    HW1 9427   6.908   8.722   4.695 -0.7751  0.7474 -0.1041
 1657SOL    HW2 9428   6.845   8.773   4.823 -0.1358 -0.7797  0.8483
 1658SOL     OW 9429   7.537   9.499   5.770 -0.3929  0.1939  0.2685
 1658SOL    HW1 9430   7.622   9.463   5.742 -0.8061 -0.6128  0.0194
 1658SOL    HW2 9431   7.540   9.496   5.865  0.4380  1.5635  0.3114
 1659SOL     OW 9432   4.274   5.025   6.386 -0.0005 -0.1569 -0.7243
 1659SOL    HW1 9433   4.207   5.075   6.338  0.8402  1.6363 -0.1137
 1659SOL    HW2 9434   4.268   4.937   6.350 -2.2151  0.1158 -1.1716
 1660SOL     OW 9435   7.395   7.044   0.880 -0.0309  0.5769 -0.1083
 1660SOL    HW1 9436   7.437   7.105   0.940 -0.7652  0.7734  0.2224
 1660SOL    HW2 9437   7.303   7.041   0.909 -0.5226  1.0737 -1.5145
 1661SOL     OW 9438   0.291   9.554   5.175 -0.0573  0.3502 -0.3784
 1661SOL    HW1 9439   0.284   9.647   5.150  0.3138  0.1807 -1.1590
 1661SOL    HW2 9440   0.378   9.546   5.214 -0.0442  0.3171 -0.4134
 1662SOL     OW 9441   6.133   7.475   1.464  0.0740 -0.2224 -0.4510
 1662SOL    HW1 9442   6.145   7.544   1.530  0.1618 -1.4336  0.8394
 1662SOL    HW2 9443   6.211   7.421   1.472 -0.6725 -1.3152 -0.4076
 1663SOL     OW 9444   2.745   0.475   6.038 -0.1779  0.4202  0.2605
 1663SOL    HW1 9445   2.738   0.499   6.130  0.7979  1.2175  0.1422
 1663SOL    HW2 9446   2.837   0.488   6.016 -0.2592 -0.3743 -0.6707
 1664SOL     OW 9447   9.140   2.122   7.715 -0.0441 -0.4445  0.1635
 1664SOL    HW1 9448   9.064   2.084   7.759 -0.0160  2.2768  2.8585
 1664SOL    HW2 9449   9.116   2.213   7.701  1.6148 -0.2411 -1.7575
 1665SOL     OW 9450   6.127   8.501   0.660 -0.1962  0.2890 -0.1287
 1665SOL    HW1 9451   6.200   8.486   0.719 -1.4154 -0.7043  1.1886
 1665SOL    HW2 9452   6.064   8.553   0.711 -2.3134 -2.5563  0.3976
 1666SOL     OW 9453   0.953   6.378   0.185  0.5973  0.4385 -0.0560
 1666SOL    HW1 9454   0.866   6.375   0.224  1.3340  0.9119  1.7523
 1666SOL    HW2 9455   0.989   6.291   0.200  0.5001  0.2979 -0.6380
 1667SOL     OW 9456   0.370   1.141   1.701 -1.0487  0.7652 -0.1963
 1667SOL    HW1 9457   0.410   1.204   1.642 -1.3354  0.8033 -0.3568
 1667SOL    HW2 9458   0.412   1.155   1.786  0.2537 -0.1201 -0.6617
 1668SOL     OW 9459   6.120   6.275   8.018 -0.2970  0.3629  0.6420
 1668SOL    HW1 9460   6.134   6.368   8.002 -0.6860  0.3870  0.4305
 1668SOL    HW2 9461   6.039   6.270   8.069 -0.2960  0.1418  0.6271
 1669SOL     OW 9462  11.022   4.106   7.636  0.3748  0.1923  0.0203
 1669SOL    HW1 9463  11.094   4.114   7.699  0.5406 -1.1758  0.0237
 1669SOL    HW2 9464  11.005   4.012   7.630 -1.4106  0.4907 -0.0060
 1670SOL     OW 9465   1.937   5.925   7.231  0.3232  0.4340  0.1514
 1670SOL    HW1 9466   1.974   5.908   7.318  2.6272  2.6054 -0.3213
 1670SOL    HW2 9467   1.868   5.989   7.247  0.7539  0.8448  0.3858
 1671SOL     OW 9468   6.816   1.395   3.119  0.1540  0.0426  0.5471
 1671SOL    HW1 9469   6.793   1.471   3.065 -0.9531 -1.5189 -1.3193
 1671SOL    HW2 9470   6.888   1.354   3.071 -1.5172 -1.9455 -0.4036
 1672SOL     OW 9471   5.520   2.301   4.939 -0.0775  0.3710  0.3739
 1672SOL    HW1 9472   5.492   2.341   4.857  1.8405  2.2524  0.5521
 1672SOL    HW2 9473   5.565   2.220   4.912 -2.1419 -0.6733 -0.1377
 1673SOL     OW 9474   1.806   4.233   3.431  0.3861  0.0736  0.2115
 1673SOL    HW1 9475   1.811   4.323   3.400  0.9404  0.1824  0.6048
 1673SOL    HW2 9476   1.719   4.225   3.470  0.6754  0.7103  1.0061
 1674SOL     OW 9477  10.307   5.983   9.142  0.2153  0.3776  0.1504
 1674SOL    HW1 9478  10.262   5.907   9.107  0.0102 -0.7929  2.6977
 1674SOL    HW2 9479  10.240   6.028   9.194  0.6689  1.5835 -0.2805
 1675SOL     OW 9480   8.727  10.005   8.765  0.2224  0.5672  0.5453
 1675SOL    HW1 9481   8.707   9.919   8.802  0.0892  0.2805 -0.1697
 1675SOL    HW2 9482   8.650  10.057   8.784  0.2622  0.5035  0.8943
 1676SOL     OW 9483   1.131   5.884   4.036 -0.1771  0.3150 -0.7149
 1676SOL    HW1 9484   1.146   5.804   3.985 -1.2283  0.2631 -0.9728
 1676SOL    HW2 9485   1.171   5.953   3.983  1.4639 -0.1130 -0.0997
 1677SOL     OW 9486  10.040   7.668   6.101  0.4639 -0.1674 -0.0167
 1677SOL    HW1 9487  10.128   7.667   6.139  0.0514 -1.9461  0.9968
 1677SOL    HW2 9488  10.047   7.616   6.021  0.0824 -1.5610  0.8099
 1678SOL     OW 9489   8.286   9.662   7.696 -0.5775  0.1136  0.7162
 1678SOL    HW1 9490   8.276   9.672   7.601 -0.7172 -0.1640  0.7009
 1678SOL    HW2 9491   8.379   9.681   7.712 -0.1025 -1.6747  0.2790
 1679SOL     OW 9492   9.815   6.777   0.155 -0.5152  0.6093 -0.1694
 1679SOL    HW1 9493   9.840   6.745   0.242  1.7298  0.5165 -0.8031
 1679SOL    HW2 9494   9.765   6.857   0.174 -1.8504 -0.4752  1.2355
 1680SOL     OW 9495   6.084   9.031   7.167  0.2799  0.2636  0.0511
 1680SOL    HW1 9496   6.093   9.090   7.092 -0.2995  1.7498  1.1019
 1680SOL    HW2 9497   6.048   9.086   7.236  0.0880 -1.2545  1.2041
 1681SOL     OW 9498   6.797   5.369   0.007 -0.0444 -0.3263  0.2903
 1681SOL    HW1 9499   6.764   5.323  -0.070 -1.5956  1.4304 -0.1525
 1681SOL    HW2 9500   6.886   5.396  -0.018 -0.5027  0.1651 -0.8756
 1682SOL     OW 9501   1.727   9.117   2.544 -1.0471 -0.6200  0.3426
 1682SOL    HW1 9502   1.789   9.067   2.597  0.0982 -0.6250 -0.9381
 1682SOL    HW2 9503   1.680   9.051   2.493  0.9853 -0.5029 -1.9111
 1683SOL     OW 9504   7.620   4.710   7.776  0.3368 -1.0172 -0.2524
 1683SOL    HW1 9505   7.573   4.714   7.859 -0.5296  0.4414 -0.7818
 1683SOL    HW2 9506   7.662   4.795   7.767 -0.1844 -0.8702 -1.6325
 1684SOL     OW 9507   9.766  11.003  10.824  0.2917 -0.4673  0.2447
 1684SOL    HW1 9508   9.777  10.918  10.868  0.6637 -1.7825 -2.2070
 1684SOL    HW2 9509   9.837  11.057  10.858 -0.2577 -0.9202  2.2509
 1685SOL     OW 9510   8.494   6.965   6.541  0.1590  0.4325  0.3073
 1685SOL    HW1 9511   8.451   6.918   6.613  1.8851  0.5979  1.4980
 1685SOL    HW2 9512   8.480   6.909   6.465  0.7531 -1.2354  1.3690
 1686SOL     OW 9513   6.318   7.640   1.684 -0.0008 -0.0736 -0.1487
 1686SOL    HW1 9514   6.284   7.723   1.650 -0.1019 -1.2052 -3.0508
 1686SOL    HW2 9515   6.258   7.617   1.756 -0.2866  2.0497  0.3561
 1687SOL     OW 9516   3.783   1.746   5.554  0.3851 -0.2605 -0.0699
 1687SOL    HW1 9517   3.820   1.834   5.542 -0.1895 -0.3076 -3.0911
 1687SOL    HW2 9518   3.852   1.687   5.523 -0.1547 -0.6836 -0.4894
 1688SOL     OW 9519   5.173  10.870   1.484  0.1943 -0.1032  0.7042
 1688SOL    HW1 9520   5.160  10.775   1.486 -0.4800 -0.0194  0.5073
 1688SOL    HW2 9521   5.095  10.904   1.441  1.2154  0.4170 -0.8114
 1689SOL     OW 9522   9.374   6.576   8.215 -0.1899 -0.1225  0.0825
 1689SOL    HW1 9523   9.309   6.541   8.276 -1.3376  0.0270 -1.0139
 1689SOL    HW2 9524   9.395   6.662   8.250 -1.9202  0.5691 -0.4663
 1690SOL     OW 9525   1.950   8.527  11.050 -1.0265 -0.0500  0.0565
 1690SOL    HW1 9526   1.983   8.615  11.031 -0.6653 -0.5362 -1.7863
 1690SOL    HW2 9527   2.026   8.470  11.038 -1.0042 -0.5657  2.2058
 1691SOL     OW 9528   6.222   1.516   6.324  0.2467  0.9582 -0.1862
 1691SOL    HW1 9529   6.264   1.543   6.405 -0.1471  0.9532  0.0219
 1691SOL    HW2 9530   6.279   1.549   6.255  1.9807 -1.2152  0.0949
 1692SOL     OW 9531   6.717   3.461  10.596  0.1512 -0.2582  0.2616
 1692SOL    HW1 9532   6.682   3.549  10.607  1.1901  0.5880 -2.4416
 1692SOL    HW2 9533   6.812   3.471  10.602  0.2783 -1.2349  0.1345
 1693SOL     OW 9534  11.023   2.365   6.908  0.1561 -0.4994  0.3859
 1693SOL    HW1 9535  11.028   2.377   7.003 -0.9237  1.2228  0.2764
 1693SOL    HW2 9536  10.967   2.437   6.878 -0.7082 -1.8419 -1.3944
 1694SOL     OW 9537   9.474   3.820   3.709  0.2123  0.1039  0.2233
 1694SOL    HW1 9538   9.398   3.821   3.651  0.8555  1.2959 -0.6528
 1694SOL    HW2 9539   9.444   3.865   3.789 -0.5242 -1.0806  0.6354
 1695SOL     OW 9540   9.187   5.340   7.504  0.2957  0.2781  0.5794
 1695SOL    HW1 9541   9.130   5.391   7.562  0.3834  0.7395  0.2630
 1695SOL    HW2 9542   9.274   5.376   7.519  1.0468 -2.2639  3.1579
 1696SOL     OW 9543   0.456  10.011   9.797  0.3228 -0.2859 -0.0625
 1696SOL    HW1 9544   0.387  10.042   9.738  0.9669  0.7564 -0.2808
 1696SOL    HW2 9545   0.429  10.041   9.884  1.2369  1.4838 -0.3477
 1697SOL     OW 9546  10.507   3.187   6.499  0.3259 -0.3560  0.2371
 1697SOL    HW1 9547  10.553   3.259   6.457  0.5075  0.4394  1.7126
 1697SOL    HW2 9548  10.416   3.218   6.507  0.3897 -0.2942  0.8126
 1698SOL     OW 9549   1.748   8.191   3.009  0.1464 -0.2648  0.2146
 1698SOL    HW1 9550   1.759   8.261   2.945  1.1110 -1.0829 -0.5382
 1698SOL    HW2 9551   1.725   8.114   2.957 -3.8308  0.0317  1.2078
 1699SOL     OW 9552   9.384  10.447   8.271  0.0868 -0.3015  0.0312
 1699SOL    HW1 9553   9.439  10.511   8.226  0.0243 -2.0558 -2.7371
 1699SOL    HW2 9554   9.447  10.388   8.314  0.2812 -0.5443 -0.5774
 1700SOL     OW 9555  11.027   6.327   9.763  0.3136  0.1110  0.3061
 1700SOL    HW1 9556  10.965   6.296   9.829 -0.2290  1.5735  0.5211
 1700SOL    HW2 9557  10.983   6.400   9.721  0.9808 -0.2800 -1.1466
 1701SOL     OW 9558   2.223  10.874   7.270  0.3688  0.2906  0.5631
 1701SOL    HW1 9559   2.199  10.940   7.204  0.9955 -0.6348 -0.6365
 1701SOL    HW2 9560   2.302  10.833   7.235 -0.2236 -1.3691  1.0802
 1702SOL     OW 9561   5.527   5.136  10.326 -0.3131  1.0416 -0.5803
 1702SOL    HW1 9562   5.596   5.111  10.387 -0.6534  0.4974 -0.4104
 1702SOL    HW2 9563   5.484   5.210  10.368 -0.1712  1.0448 -0.4378
 1703SOL     OW 9564   9.376   5.669   5.170  0.1430 -0.0362 -0.4533
 1703SOL    HW1 9565   9.414   5.757   5.164 -1.5962  0.6853 -1.9009
 1703SOL    HW2 9566   9.328   5.658   5.088  0.4847 -2.4611 -0.4109
 1704SOL     OW 9567   1.128   2.523   0.302 -0.0788  0.1066 -0.1061
 1704SOL    HW1 9568   1.131   2.453   0.367  1.6626  1.1248  0.9938
 1704SOL    HW2 9569   1.123   2.477   0.218 -2.6073 -1.2324  0.6843
 1705SOL     OW 9570   9.005   6.724   2.751 -0.7557 -0.1509  0.0848
 1705SOL    HW1 9571   8.932   6.769   2.794 -0.8833 -0.2084 -0.0765
 1705SOL    HW2 9572   8.965   6.654   2.701 -0.5617 -0.3929  0.2659
 1706SOL     OW 9573   9.607   1.382   6.470  0.3669  0.8755  0.2985
 1706SOL    HW1 9574   9.567   1.314   6.524  0.1203  1.4751  0.8687
 1706SOL    HW2 9575   9.534   1.430   6.432  0.5236  0.0948 -1.0601
 1707SOL     OW 9576   1.719   8.625   1.588  0.4221 -0.6625  0.1326
 1707SOL    HW1 9577   1.731   8.530   1.592 -0.8991 -0.8789 -0.5814
 1707SOL    HW2 9578   1.674   8.647   1.670  1.0454 -0.5905  0.4613
 1708SOL     OW 9579   3.712   9.678   4.499 -0.2569  0.4807  0.5966
 1708SOL    HW1 9580   3.664   9.756   4.526 -1.3601  0.2034 -0.5050
 1708SOL    HW2 9581   3.653   9.633   4.439  0.0099 -1.6503  1.8282
 1709SOL     OW 9582   5.235   5.825   1.834 -0.0159  0.0823  0.0718
 1709SOL    HW1 9583   5.142   5.813   1.819 -0.2815 -2.5510  2.7551
 1709SOL    HW2 9584   5.241   5.849   1.927  1.9653 -0.5632  0.1562
 1710SOL     OW 9585   9.799   3.606   4.567 -0.1493 -0.0425  0.3218
 1710SOL    HW1 9586   9.860   3.542   4.531 -0.8128  0.7066 -2.3322
 1710SOL    HW2 9587   9.722   3.554   4.590  0.6068 -0.6618  1.5847
 1711SOL     OW 9588   0.150  10.345   5.557 -0.1151  0.1155  0.1954
 1711SOL    HW1 9589   0.237  10.382   5.568 -0.1640  0.7614 -1.2622
 1711SOL    HW2 9590   0.156  10.293   5.477 -0.7533 -0.8547  0.7543
 1712SOL     OW 9591   1.218   6.131   5.543 -0.5081 -0.1010  0.5999
 1712SOL    HW1 9592   1.297   6.161   5.499  0.1321  0.3045  1.9652
 1712SOL    HW2 9593   1.210   6.039   5.517 -2.0107  0.8464 -2.9396
 1713SOL     OW 9594   0.622   0.180   1.216  0.9371 -0.0478  0.0285
 1713SOL    HW1 9595   0.654   0.264   1.185  1.0867  0.1008  0.5749
 1713SOL    HW2 9596   0.658   0.171   1.304  0.4882 -0.4444  0.1797
 1714SOL     OW 9597   2.814   2.589   9.385 -0.3077  0.7487 -0.6458
 1714SOL    HW1 9598   2.863   2.510   9.362 -0.5584  1.0675 -2.3695
 1714SOL    HW2 9599   2.741   2.556   9.438  0.5054  0.0352  0.0690
 1715SOL     OW 9600   8.648   3.182   7.400 -0.0355 -0.1236 -0.3590
 1715SOL    HW1 9601   8.743   3.189   7.403  0.0020 -1.0026  0.8767
 1715SOL    HW2 9602   8.628   3.180   7.306  1.2477 -1.0101 -0.6441
 1716SOL     OW 9603   2.732   4.540   5.964  0.0560 -0.0843 -0.1683
 1716SOL    HW1 9604   2.685   4.487   6.028 -1.4543  0.7642 -0.5249
 1716SOL    HW2 9605   2.781   4.477   5.911 -1.3876 -1.0885 -0.3423
 1717SOL     OW 9606   0.728   1.603   9.525  0.0194  0.0031  0.2451
 1717SOL    HW1 9607   0.645   1.629   9.566 -0.1202  0.6307 -0.3999
 1717SOL    HW2 9608   0.738   1.664   9.451  0.5600 -0.7026 -0.2824
 1718SOL     OW 9609   3.227   2.075   5.985 -0.0136 -0.4345  0.0705
 1718SOL    HW1 9610   3.232   2.156   6.034  3.0571  0.3823 -1.3442
 1718SOL    HW2 9611   3.194   2.101   5.899  0.5513 -0.7557 -0.2474
 1719SOL     OW 9612   9.517   9.836   4.058 -0.0668  0.1804 -0.3921
 1719SOL    HW1 9613   9.597   9.865   4.015  0.3142  1.3976  1.0422
 1719SOL    HW2 9614   9.446   9.874   4.007  0.3440  0.8289 -0.4869
 1720SOL     OW 9615   6.676   3.844   1.499  0.0245  0.0722 -0.8652
 1720SOL    HW1 9616   6.612   3.902   1.540  0.7352  0.3633 -0.1439
 1720SOL    HW2 9617   6.628   3.763   1.482 -0.4262  0.1327  0.0633
 1721SOL     OW 9618   9.555  10.170   5.583  0.0916  0.1676 -0.1260
 1721SOL    HW1 9619   9.494  10.184   5.511 -0.3318  0.1724  0.2368
 1721SOL    HW2 9620   9.638  10.205   5.550 -0.1358  0.3228 -0.5466
 1722SOL     OW 9621   1.267   0.087   6.144  0.4731  0.1745  0.6995
 1722SOL    HW1 9622   1.185   0.123   6.177 -1.7718 -2.9626 -0.8943
 1722SOL    HW2 9623   1.272  -0.001   6.183  2.2188 -0.3397 -0.5424
 1723SOL     OW 9624   4.582   1.311   5.284  0.1199  0.0979 -0.3461
 1723SOL    HW1 9625   4.592   1.383   5.346 -0.9072 -1.6227  1.9344
 1723SOL    HW2 9626   4.647   1.247   5.310 -2.4886 -2.0984  1.2393
 1724SOL     OW 9627   9.124   9.767   6.572 -0.6884  0.2846 -0.6434
 1724SOL    HW1 9628   9.055   9.796   6.512 -1.2469  0.5319  0.1057
 1724SOL    HW2 9629   9.172   9.847   6.593  0.3303 -0.0113 -1.7754
 1725SOL     OW 9630  10.254   4.962   9.688 -0.4347 -0.1782 -0.0681
 1725SOL    HW1 9631  10.164   4.991   9.676 -1.0101 -1.6742  0.3029
 1725SOL    HW2 9632  10.259   4.939   9.781 -0.2422 -1.8048 -0.4478
 1726SOL     OW 9633   8.565   8.030   2.808  0.1006 -0.1287  0.1304
 1726SOL    HW1 9634   8.482   8.028   2.855  0.2911  0.3362  0.4785
 1726SOL    HW2 9635   8.607   7.947   2.832 -0.1281 -0.2320  0.1837
 1727SOL     OW 9636   0.451   3.622   3.907  0.1467 -0.1349  0.0099
 1727SOL    HW1 9637   0.487   3.569   3.979  0.0636  0.2672  0.3508
 1727SOL    HW2 9638   0.369   3.657   3.942  1.0445  1.6463  0.4197
 1728SOL     OW 9639   6.284  10.527   6.195  0.1631 -0.1290  0.5118
 1728SOL    HW1 9640   6.379  10.534   6.210  0.3245  0.8116 -0.8096
 1728SOL    HW2 9641   6.246  10.537   6.282  1.2764 -0.7510  1.1021
 1729SOL     OW 9642   5.079   2.531   3.318  0.3123 -0.3381  0.3075
 1729SOL    HW1 9643   4.996   2.494   3.288 -0.5620  1.1019  0.8053
 1729SOL    HW2 9644   5.091   2.495   3.406 -0.9266  1.0644  1.1010
 1730SOL     OW 9645   8.999   4.305   1.164  0.1708 -0.1155 -0.2837
 1730SOL    HW1 9646   9.083   4.328   1.203  0.0099  1.0089 -0.5523
 1730SOL    HW2 9647   8.976   4.381   1.110 -0.4375 -0.9071 -1.1817
 1731SOL     OW 9648   4.136   5.440   0.842 -0.4792  0.8134 -0.3304
 1731SOL    HW1 9649   4.093   5.405   0.919  0.6318  0.0250 -0.0311
 1731SOL    HW2 9650   4.171   5.525   0.870  0.1614  0.4083  0.1474
 1732SOL     OW 9651   9.428   3.716   9.635  0.2207  0.3595 -0.2834
 1732SOL    HW1 9652   9.377   3.637   9.650  0.1764  0.5345  0.5220
 1732SOL    HW2 9653   9.364   3.781   9.605 -0.0519  0.5853  0.7449
 1733SOL     OW 9654   1.863   3.714   1.783 -0.1025  0.1839  0.5054
 1733SOL    HW1 9655   1.783   3.696   1.734  0.2643  0.2650 -0.1219
 1733SOL    HW2 9656   1.879   3.807   1.770  1.6608 -0.3493 -1.7723
 1734SOL     OW 9657   3.470   3.804   4.579 -0.1089 -0.1370 -1.0021
 1734SOL    HW1 9658   3.544   3.808   4.519 -0.9515 -0.0377 -2.0667
 1734SOL    HW2 9659   3.393   3.810   4.523 -0.9284  1.6972  0.2187
 1735SOL     OW 9660   4.645   5.002   5.109  0.1969 -0.1735 -0.0760
 1735SOL    HW1 9661   4.711   4.967   5.050 -1.0018 -0.0708 -1.5404
 1735SOL    HW2 9662   4.567   4.950   5.090 -0.5305  0.6659  0.5737
 1736SOL     OW 9663   8.972   0.148   1.640  0.0298 -0.1504 -0.4816
 1736SOL    HW1 9664   8.960   0.185   1.552 -1.7272 -0.1776 -0.2798
 1736SOL    HW2 9665   9.015   0.064   1.625  0.0496 -0.0055 -1.2812
 1737SOL     OW 9666   7.618   5.532   9.817  0.3809 -0.3645  0.0652
 1737SOL    HW1 9667   7.710   5.512   9.832  0.5916  0.6270  0.1831
 1737SOL    HW2 9668   7.617   5.626   9.798 -0.6291 -0.3215  0.2738
 1738SOL     OW 9669   5.684   0.384   7.043 -0.4134 -0.3223 -0.1586
 1738SOL    HW1 9670   5.626   0.362   7.116 -0.4594 -0.1155 -0.1338
 1738SOL    HW2 9671   5.740   0.454   7.077 -0.3360 -0.3278 -0.2752
 1739SOL     OW 9672   7.914   2.370   9.344  0.1959  0.3338  0.5347
 1739SOL    HW1 9673   7.919   2.464   9.358  0.6771  0.1560  1.5758
 1739SOL    HW2 9674   7.826   2.356   9.309  0.0106  1.1216  0.6740
 1740SOL     OW 9675   3.378   2.011   5.355 -0.0155 -0.0907 -0.0362
 1740SOL    HW1 9676   3.301   1.969   5.394 -0.0874 -1.4974 -1.5680
 1740SOL    HW2 9677   3.446   1.944   5.360  0.1021 -0.1451 -1.8335
 1741SOL     OW 9678   0.163   5.690   6.864  0.0328 -0.3663 -0.4144
 1741SOL    HW1 9679   0.075   5.727   6.869  0.0323 -0.3069 -0.8250
 1741SOL    HW2 9680   0.214   5.755   6.817  0.8114  0.5278  1.5333
 1742SOL     OW 9681   4.841   9.978   3.202 -0.4047 -0.0391  0.1748
 1742SOL    HW1 9682   4.842  10.054   3.145  3.1390  0.1744  0.2855
 1742SOL    HW2 9683   4.801   9.909   3.149 -1.0228  1.1690 -0.9935
 1743SOL     OW 9684   4.200   0.652   5.945 -0.8511 -0.3838  0.7867
 1743SOL    HW1 9685   4.290   0.678   5.961 -0.2385 -3.4024  2.9817
 1743SOL    HW2 9686   4.199   0.624   5.853 -0.8839  4.0161 -0.7936
 1744SOL     OW 9687   5.388   9.283   2.126  0.0875  0.2440 -0.3739
 1744SOL    HW1 9688   5.337   9.364   2.122  0.2175  0.3432 -0.0752
 1744SOL    HW2 9689   5.433   9.279   2.042 -0.9170 -0.1830 -0.8974
 1745SOL     OW 9690   9.625   9.711   1.811  0.0637 -0.2454  0.4335
 1745SOL    HW1 9691   9.657   9.634   1.763 -0.4483 -0.3029  0.1671
 1745SOL    HW2 9692   9.553   9.677   1.864 -0.5262  0.1426 -0.0992
 1746SOL     OW 9693   1.435   6.884  11.040  0.2459 -0.1713  0.0703
 1746SOL    HW1 9694   1.471   6.799  11.067 -0.0381  0.3968  2.4416
 1746SOL    HW2 9695   1.349   6.862  11.003  0.1835 -0.9380  0.6319
 1747SOL     OW 9696   1.853   7.467   2.478 -0.1627 -0.3072 -0.4588
 1747SOL    HW1 9697   1.928   7.415   2.509  0.1140  0.1899 -0.2900
 1747SOL    HW2 9698   1.889   7.518   2.405 -0.1995  0.3226 -0.0435
 1748SOL     OW 9699   7.203   9.828   1.697 -0.2892  0.6443 -0.0341
 1748SOL    HW1 9700   7.117   9.795   1.670 -0.2649 -0.1071  0.7771
 1748SOL    HW2 9701   7.228   9.772   1.771  2.1524 -1.0077 -1.9639
 1749SOL     OW 9702   0.265   5.277   0.992 -0.2320  0.4571 -0.3752
 1749SOL    HW1 9703   0.314   5.340   1.045  0.7656 -0.4874 -0.1251
 1749SOL    HW2 9704   0.323   5.258   0.918 -0.1140 -0.8331  0.0217
 1750SOL     OW 9705   9.535  10.470   3.734  0.1407 -0.1058  0.2128
 1750SOL    HW1 9706   9.562  10.383   3.705  0.9690  0.7890 -1.8771
 1750SOL    HW2 9707   9.616  10.521   3.737 -0.6381  1.3463 -1.4651
 1751SOL     OW 9708   4.108   7.789   9.771 -0.2590  0.1273  0.1669
 1751SOL    HW1 9709   4.040   7.818   9.831  0.7196  0.0639  1.3481
 1751SOL    HW2 9710   4.189   7.828   9.805  0.1244  1.5379 -2.1029
 1752SOL     OW 9711   2.197   8.598   1.310  0.3776  0.0384  0.3437
 1752SOL    HW1 9712   2.257   8.529   1.281 -0.5049 -1.4403  1.9094
 1752SOL    HW2 9713   2.131   8.553   1.362 -0.1218  2.1048  1.6041
 1753SOL     OW 9714   9.362   8.243   5.725 -0.7013 -0.1504 -0.0136
 1753SOL    HW1 9715   9.341   8.214   5.636 -0.3568 -1.1923  0.2276
 1753SOL    HW2 9716   9.423   8.177   5.757 -0.0374  0.7629  0.6448
 1754SOL     OW 9717   2.164   4.081   8.364  0.0237  0.0120  0.0624
 1754SOL    HW1 9718   2.239   4.022   8.357  2.2701  2.4869  1.4665
 1754SOL    HW2 9719   2.123   4.058   8.447  0.7524  0.2574  0.4962
 1755SOL     OW 9720  10.153   5.860   4.020  0.3880  0.2924 -0.0524
 1755SOL    HW1 9721  10.181   5.799   3.952  0.3812 -2.4780  2.2190
 1755SOL    HW2 9722  10.089   5.811   4.071  0.8345  1.9924  2.3149
 1756SOL     OW 9723   7.271   9.055   8.961 -0.2431  0.3432  0.3584
 1756SOL    HW1 9724   7.294   8.996   9.033 -0.8559  0.0817  0.3462
 1756SOL    HW2 9725   7.331   9.129   8.971  0.7408 -0.4133  0.1950
 1757SOL     OW 9726   0.861   2.352  10.779 -0.3179 -0.1151  0.2584
 1757SOL    HW1 9727   0.863   2.335  10.873 -0.2407 -3.4789 -0.2311
 1757SOL    HW2 9728   0.795   2.420  10.767 -0.2761  0.4278  2.7036
 1758SOL     OW 9729   5.767   6.014   4.565 -0.2267 -0.2816 -0.2811
 1758SOL    HW1 9730   5.804   6.089   4.518  0.8127 -0.3021  0.4839
 1758SOL    HW2 9731   5.688   6.049   4.607  1.0501  0.8327  1.3314
 1759SOL     OW 9732  10.690   0.070   9.272  0.1670 -0.2048 -0.2402
 1759SOL    HW1 9733  10.675   0.165   9.277 -0.7000 -0.4008  1.2974
 1759SOL    HW2 9734  10.776   0.057   9.312  0.2503 -0.0948 -0.3781
 1760SOL     OW 9735   4.948   2.887   2.424 -0.3490  0.1247  0.1173
 1760SOL    HW1 9736   4.909   2.971   2.398 -0.7197 -0.5537 -1.6813
 1760SOL    HW2 9737   5.040   2.895   2.399 -0.6444 -0.4236 -1.2294
 1761SOL     OW 9738   6.566   3.981   2.561 -0.0587 -1.0425  0.1718
 1761SOL    HW1 9739   6.631   4.048   2.584  0.3852 -0.9971 -1.0743
 1761SOL    HW2 9740   6.617   3.901   2.552  0.0175 -0.8426 -1.6350
 1762SOL     OW 9741   8.663   5.532   6.439  0.4766  0.0903 -0.4281
 1762SOL    HW1 9742   8.687   5.533   6.532  0.3562  0.5806 -0.4009
 1762SOL    HW2 9743   8.576   5.493   6.437  0.3278  0.4185 -0.2991
 1763SOL     OW 9744   3.643   7.524  10.030  0.1275  0.8610 -0.0152
 1763SOL    HW1 9745   3.583   7.467  10.078  1.3820 -0.5664 -0.0307
 1763SOL    HW2 9746   3.588   7.573   9.970 -0.9995 -0.5580 -0.1883
 1764SOL     OW 9747   7.335   3.465   3.273  0.2401 -0.0076  0.3216
 1764SOL    HW1 9748   7.301   3.389   3.320 -0.9373 -1.0595 -2.0517
 1764SOL    HW2 9749   7.274   3.536   3.296 -0.5613 -0.6007  0.0576
 1765SOL     OW 9750   0.979   0.559   9.374 -0.0335 -0.1208  0.2284
 1765SOL    HW1 9751   0.936   0.644   9.376  2.5600  1.2752  0.5007
 1765SOL    HW2 9752   1.021   0.555   9.288 -0.8649 -1.5745 -0.1497
 1766SOL     OW 9753   7.455  10.599   8.281 -0.0669 -0.3410 -1.1609
 1766SOL    HW1 9754   7.401  10.674   8.259  0.5554  0.4323 -0.1431
 1766SOL    HW2 9755   7.523  10.598   8.214 -0.5083 -0.4681 -1.6164
 1767SOL     OW 9756  10.197   8.646   2.591  0.2206  0.1962  0.2025
 1767SOL    HW1 9757  10.236   8.733   2.577 -0.5859  0.5096 -0.1693
 1767SOL    HW2 9758  10.120   8.663   2.645  0.4579 -0.3870  0.7312
 1768SOL     OW 9759   1.826   2.827   4.022 -0.1171  0.2377 -0.1939
 1768SOL    HW1 9760   1.824   2.915   3.985  0.8144  0.1304 -0.5204
 1768SOL    HW2 9761   1.903   2.827   4.079 -0.3247 -0.2546  0.0878
 1769SOL     OW 9762   3.531   6.586   7.308 -0.8829 -0.5870 -0.3688
 1769SOL    HW1 9763   3.574   6.566   7.391  0.8425  1.7360 -0.6021
 1769SOL    HW2 9764   3.506   6.500   7.272  1.4814 -1.8930  0.9066
 1770SOL     OW 9765   7.951   0.351   3.322 -0.5630  0.0546  0.3019
 1770SOL    HW1 9766   7.920   0.377   3.409  1.0885  0.1185  0.9110
 1770SOL    HW2 9767   7.913   0.416   3.263 -3.4165 -1.1732  0.6234
 1771SOL     OW 9768   6.627   0.922   1.760  0.1188 -0.7076 -0.0991
 1771SOL    HW1 9769   6.720   0.936   1.740  0.3018 -1.3535  0.2781
 1771SOL    HW2 9770   6.619   0.942   1.853  0.4372 -3.1420  0.5297
 1772SOL     OW 9771   4.775   8.034  10.347  0.1115  0.0561 -0.0473
 1772SOL    HW1 9772   4.783   8.089  10.269  0.8224 -0.1348 -0.1219
 1772SOL    HW2 9773   4.720   8.084  10.407 -0.1561  0.3570 -0.5377
 1773SOL     OW 9774   0.377   2.516   3.967 -0.1931 -0.3428 -0.2224
 1773SOL    HW1 9775   0.286   2.545   3.962 -0.4610 -1.2503 -0.8007
 1773SOL    HW2 9776   0.372   2.423   3.990  0.5823 -0.4416 -0.4242
 1774SOL     OW 9777   2.510   0.897   2.771  0.2892  0.6660  0.6023
 1774SOL    HW1 9778   2.468   0.832   2.715 -0.6399  2.1243 -0.4870
 1774SOL    HW2 9779   2.560   0.846   2.834 -0.5252 -1.0896 -0.0991
 1775SOL     OW 9780   7.827   8.730   2.399  0.6566 -0.2724  0.3300
 1775SOL    HW1 9781   7.780   8.681   2.331 -1.0519  0.9902  0.5192
 1775SOL    HW2 9782   7.898   8.673   2.425 -0.3729 -2.0118 -0.4944
 1776SOL     OW 9783   0.712   4.910   7.870 -0.4490  0.6856 -0.7971
 1776SOL    HW1 9784   0.619   4.888   7.879  0.3436 -2.1276  2.5150
 1776SOL    HW2 9785   0.728   4.975   7.939  0.4303 -0.5280  0.1778
 1777SOL     OW 9786   8.120   3.581   3.423 -0.2926 -0.0804 -0.2038
 1777SOL    HW1 9787   8.044   3.532   3.389  0.4937 -0.1562 -1.9360
 1777SOL    HW2 9788   8.195   3.526   3.403  0.5195  1.3551 -1.2780
 1778SOL     OW 9789   4.789   6.163   8.792  0.0298  0.2412 -0.3433
 1778SOL    HW1 9790   4.705   6.207   8.777 -0.6084 -0.1230  1.8004
 1778SOL    HW2 9791   4.767   6.089   8.850  1.7161 -0.3452 -0.4036
 1779SOL     OW 9792   7.307   8.569   4.544  0.1064 -0.2877  0.3892
 1779SOL    HW1 9793   7.267   8.554   4.629  0.9766  0.2696  0.9033
 1779SOL    HW2 9794   7.251   8.521   4.483 -1.8197  1.0814  0.9858
 1780SOL     OW 9795   3.498   5.910   0.183  0.1091  0.3161 -0.0030
 1780SOL    HW1 9796   3.455   5.890   0.100  0.6609  0.5287 -0.3509
 1780SOL    HW2 9797   3.486   5.831   0.236 -0.6491  0.3527 -0.1093
 1781SOL     OW 9798   1.629   7.073   1.330  0.2006 -0.0247  0.1501
 1781SOL    HW1 9799   1.579   7.031   1.261  0.4692  1.0229 -0.7210
 1781SOL    HW2 9800   1.564   7.098   1.395 -0.3027  0.5241 -0.5478
 1782SOL     OW 9801   7.261   1.551   5.740  0.2644 -0.5776 -0.2501
 1782SOL    HW1 9802   7.286   1.639   5.770  0.4184 -0.3300 -1.0840
 1782SOL    HW2 9803   7.220   1.566   5.655  0.3122 -1.3201 -0.4069
 1783SOL     OW 9804   6.217   8.134   0.324 -0.0267  0.4791 -0.0055
 1783SOL    HW1 9805   6.197   8.227   0.327 -2.1245  0.2416 -2.7104
 1783SOL    HW2 9806   6.145   8.092   0.372  0.8463  0.1832  1.1037
 1784SOL     OW 9807   7.426   2.038   0.886  0.3651  0.3087  0.2469
 1784SOL    HW1 9808   7.384   2.085   0.958 -0.4665 -0.1382  0.0544
 1784SOL    HW2 9809   7.502   2.093   0.864  0.9413  0.2013  1.7840
 1785SOL     OW 9810   2.804   6.711   8.620  0.0363  0.2002 -0.2069
 1785SOL    HW1 9811   2.830   6.632   8.574  0.3809 -0.4302  1.0342
 1785SOL    HW2 9812   2.883   6.741   8.665 -0.0599  1.3250 -0.7303
 1786SOL     OW 9813   6.585  10.178   9.600  0.9492 -0.6763  0.7894
 1786SOL    HW1 9814   6.508  10.144   9.646 -0.8856  1.5127 -0.4307
 1786SOL    HW2 9815   6.623  10.102   9.557 -2.1395 -1.5258 -0.7387
 1787SOL     OW 9816   8.786  10.414   1.532 -0.3049 -0.3825  0.2603
 1787SOL    HW1 9817   8.706  10.428   1.584 -1.0876 -1.8185 -0.4774
 1787SOL    HW2 9818   8.801  10.319   1.538  0.8490 -0.2490 -0.3332
 1788SOL     OW 9819   5.692   4.070   1.079  0.5100 -0.3884 -0.1897
 1788SOL    HW1 9820   5.607   4.059   1.037  0.3088 -1.3636  0.4458
 1788SOL    HW2 9821   5.675   4.125   1.155  0.5748 -0.0494 -0.4145
 1789SOL     OW 9822   6.953   0.646   9.891 -0.3271  0.0766 -0.5711
 1789SOL    HW1 9823   7.019   0.582   9.866  0.1994  0.3984 -0.0409
 1789SOL    HW2 9824   6.928   0.688   9.808  0.9195  0.6865 -0.6747
 1790SOL     OW 9825   6.984   9.015   5.896 -0.1092  0.1972 -0.0887
 1790SOL    HW1 9826   6.969   8.920   5.896 -1.0676  0.3219  0.9545
 1790SOL    HW2 9827   7.054   9.028   5.833  0.5808 -1.3012  0.3127
 1791SOL     OW 9828   5.555  10.994   4.090  0.4268  0.2021 -0.2146
 1791SOL    HW1 9829   5.621  11.038   4.143 -0.6145  0.4958  0.8885
 1791SOL    HW2 9830   5.494  10.956   4.153  0.3782 -1.4249 -1.1778
 1792SOL     OW 9831   4.159   3.929   3.106 -0.6660  0.4749 -0.0116
 1792SOL    HW1 9832   4.153   3.894   3.017  1.4213  0.0263 -0.0255
 1792SOL    HW2 9833   4.122   3.861   3.161  1.3338 -0.8971 -0.2511
 1793SOL     OW 9834   4.824   3.070   1.653  0.1329 -0.3355 -0.1083
 1793SOL    HW1 9835   4.903   3.032   1.614  0.3970  0.0390  0.0542
 1793SOL    HW2 9836   4.769   3.093   1.579  0.9305  1.0314 -0.3085
 1794SOL     OW 9837   9.602   6.446   0.509  0.2291 -0.0226  0.6614
 1794SOL    HW1 9838   9.674   6.385   0.493  0.7291  0.2900  1.6484
 1794SOL    HW2 9839   9.535   6.393   0.552 -0.0626 -0.2640 -0.0659
 1795SOL     OW 9840   4.516   7.441   0.531 -0.3657  0.0500  0.1617
 1795SOL    HW1 9841   4.457   7.451   0.456  1.0948  0.1446 -1.0237
 1795SOL    HW2 9842   4.528   7.530   0.564 -0.0489  0.1740 -0.2763
 1796SOL     OW 9843   5.822   0.428   6.514  0.2712  0.6951 -0.5297
 1796SOL    HW1 9844   5.837   0.513   6.555 -0.4764  2.0779 -2.9170
 1796SOL    HW2 9845   5.846   0.442   6.422 -1.2438 -1.2628 -1.2755
 1797SOL     OW 9846   5.896   4.382   3.773 -0.2418  0.6397 -0.0307
 1797SOL    HW1 9847   5.959   4.434   3.823  0.4738  1.1548 -1.4241
 1797SOL    HW2 9848   5.884   4.303   3.826  0.0814  1.3849  1.2039
 1798SOL     OW 9849  11.040  10.066   6.343 -0.3487  0.2414 -0.7736
 1798SOL    HW1 9850  11.038  10.136   6.277 -0.0060 -1.7109 -2.9747
 1798SOL    HW2 9851  11.112  10.009   6.316 -0.3728 -0.7761  1.1649
 1799SOL     OW 9852   8.167   2.377   3.332  0.1700 -0.1060 -0.3507
 1799SOL    HW1 9853   8.172   2.466   3.296  1.1472 -0.3703 -0.8821
 1799SOL    HW2 9854   8.115   2.329   3.268 -0.7756  0.1797  0.1752
 1800SOL     OW 9855   5.220   7.357   1.373  0.4955 -0.0482 -0.0583
 1800SOL    HW1 9856   5.196   7.445   1.401  0.7695 -0.1114  0.3785
 1800SOL    HW2 9857   5.174   7.299   1.433  1.4679 -0.1753  0.5898
 1801SOL     OW 9858   1.185   7.635   7.729  0.2469 -0.3066  0.3443
 1801SOL    HW1 9859   1.149   7.676   7.650 -0.1044 -1.6353 -0.2256
 1801SOL    HW2 9860   1.117   7.573   7.756  0.8485 -0.6821  1.0218
 1802SOL     OW 9861   7.372   4.677   7.622  0.7307  0.4416  0.0548
 1802SOL    HW1 9862   7.367   4.699   7.529 -0.1223 -1.1795 -0.3198
 1802SOL    HW2 9863   7.457   4.635   7.632  0.6073  0.1440 -0.1194
 1803SOL     OW 9864   1.566   4.706   6.076 -0.0741 -0.0723 -0.0712
 1803SOL    HW1 9865   1.568   4.786   6.024  0.3535 -0.1597 -0.2038
 1803SOL    HW2 9866   1.517   4.644   6.022  1.0847 -0.4131 -0.7728
 1804SOL     OW 9867   5.487   7.414   1.770  0.1411 -0.1564 -0.0355
 1804SOL    HW1 9868   5.457   7.326   1.746 -2.0816  0.4052  0.3877
 1804SOL    HW2 9869   5.443   7.472   1.708  0.3015  0.7533  0.6812
 1805SOL     OW 9870   6.197   3.085   8.603 -0.0365  0.2249  0.1089
 1805SOL    HW1 9871   6.145   3.070   8.682 -1.1410 -0.4014 -0.7177
 1805SOL    HW2 9872   6.145   3.147   8.552  0.7853  0.8142 -0.0311
 1806SOL     OW 9873  10.635   4.236   5.179 -0.0975  0.0721 -0.2302
 1806SOL    HW1 9874  10.706   4.283   5.221  0.4125  0.0754 -1.0801
 1806SOL    HW2 9875  10.564   4.237   5.244  0.6985 -0.0206  0.6605
 1807SOL     OW 9876   6.406   8.230   1.020 -0.3393 -0.0029  0.1711
 1807SOL    HW1 9877   6.390   8.253   0.928 -0.9152 -0.7212  0.0858
 1807SOL    HW2 9878   6.348   8.156   1.037 -1.6276  1.2617  1.6449
 1808SOL     OW 9879   5.949   6.509   5.509  0.0062 -0.1785 -0.1502
 1808SOL    HW1 9880   6.034   6.541   5.478  0.7239 -0.2706  1.6186
 1808SOL    HW2 9881   5.970   6.433   5.564 -1.0410  0.7974  1.6849
 1809SOL     OW 9882   0.975   9.362   8.530 -0.3136 -0.1695 -0.1910
 1809SOL    HW1 9883   1.057   9.324   8.561 -0.8118 -0.5598  0.6961
 1809SOL    HW2 9884   0.950   9.309   8.454  0.1030 -0.2312 -0.2867
 1810SOL     OW 9885  10.724  10.700   6.152 -0.1521  0.2022  0.0896
 1810SOL    HW1 9886  10.764  10.623   6.112  0.3719 -0.0346  1.0349
 1810SOL    HW2 9887  10.630  10.689   6.135 -0.1395 -0.8824  0.5799
 1811SOL     OW 9888   9.476   4.860   9.667 -0.2054 -0.2511  0.1696
 1811SOL    HW1 9889   9.529   4.787   9.697 -1.5881 -2.6576 -2.6834
 1811SOL    HW2 9890   9.427   4.888   9.744  1.1344 -1.6154  1.5956
 1812SOL     OW 9891   9.070   8.861   0.278 -0.1265  0.5295  0.5250
 1812SOL    HW1 9892   9.013   8.820   0.213  0.1361  2.5359 -1.0782
 1812SOL    HW2 9893   9.148   8.806   0.280 -0.8854 -0.5759  0.5402
 1813SOL     OW 9894   5.137   7.279   6.212 -0.1268  0.2400  0.1708
 1813SOL    HW1 9895   5.063   7.253   6.156  0.2922  1.0589 -0.8056
 1813SOL    HW2 9896   5.205   7.216   6.191 -1.0830 -1.7365  2.4880
 1814SOL     OW 9897   3.158   5.573   5.973 -0.1181 -0.6848  0.3479
 1814SOL    HW1 9898   3.252   5.588   5.966 -0.2339  0.2272  0.5515
 1814SOL    HW2 9899   3.147   5.533   6.060  0.0640 -0.6044  0.4099
 1815SOL     OW 9900   8.446   5.974   1.042  0.4294  0.5699  0.3970
 1815SOL    HW1 9901   8.534   5.958   1.076  0.4636  0.5576  0.3031
 1815SOL    HW2 9902   8.402   5.889   1.048  0.2752  0.6823  0.8829
 1816SOL     OW 9903   1.582   4.554   7.665 -0.0378  0.2080  0.2735
 1816SOL    HW1 9904   1.564   4.574   7.757 -0.8762  0.0422  0.1537
 1816SOL    HW2 9905   1.656   4.610   7.642  0.4749 -0.0697  1.1709
 1817SOL     OW 9906   1.307   5.530   4.934 -0.4812 -0.1817 -0.1592
 1817SOL    HW1 9907   1.258   5.448   4.934 -0.6673 -0.0826 -1.1207
 1817SOL    HW2 9908   1.248   5.594   4.896  0.5084 -0.1484 -1.7233
 1818SOL     OW 9909   6.244  10.639   0.837  0.5587 -0.0341 -0.0224
 1818SOL    HW1 9910   6.211  10.690   0.763  1.1963  0.0858 -0.2257
 1818SOL    HW2 9911   6.223  10.692   0.914  1.5621  0.7364 -0.2557
 1819SOL     OW 9912   1.512   3.605   5.384 -0.2088 -0.0377 -0.3488
 1819SOL    HW1 9913   1.442   3.622   5.322  0.6392  0.7959 -1.1017
 1819SOL    HW2 9914   1.506   3.677   5.448 -1.1731 -0.9737  0.6437
 1820SOL     OW 9915   5.692  10.643   4.365 -0.7316  0.4319 -0.2644
 1820SOL    HW1 9916   5.614  10.590   4.380  0.5206 -3.4390 -4.8010
 1820SOL    HW2 9917   5.681  10.678   4.277  1.5424  1.9486 -0.0311
 1821SOL     OW 9918   0.815   4.242   2.310  0.2124 -0.0212 -0.2308
 1821SOL    HW1 9919   0.833   4.221   2.402 -0.8550  1.0115  0.2567
 1821SOL    HW2 9920   0.759   4.171   2.280 -0.2720  0.1469  0.2451
 1822SOL     OW 9921   8.939   0.781   8.622 -0.5587 -0.1456  0.7453
 1822SOL    HW1 9922   8.994   0.859   8.626  0.5719 -0.8204 -0.7409
 1822SOL    HW2 9923   8.935   0.750   8.713  2.4797 -0.6910  0.7949
 1823SOL     OW 9924   4.119   4.318   1.187 -0.0514  0.3096 -0.3248
 1823SOL    HW1 9925   4.027   4.342   1.199 -0.2957 -0.2554 -1.0166
 1823SOL    HW2 9926   4.145   4.280   1.271 -0.6079 -0.0182 -0.2939
 1824SOL     OW 9927   6.834   2.673  10.452  0.2796  0.5828  0.7404
 1824SOL    HW1 9928   6.761   2.712  10.500  1.2401  1.7394  1.3316
 1824SOL    HW2 9929   6.863   2.601  10.507 -2.4691 -2.1480 -1.0650
 1825SOL     OW 9930   1.003   9.134   7.630  0.2574 -0.0296 -0.6248
 1825SOL    HW1 9931   0.953   9.210   7.660 -0.9678 -0.8132 -0.5918
 1825SOL    HW2 9932   0.979   9.125   7.538 -2.7799 -2.6089  0.2068
 1826SOL     OW 9933   7.961   7.857   2.945  0.3559  1.0685  0.1011
 1826SOL    HW1 9934   7.960   7.881   3.038  0.3683  1.4519  0.0025
 1826SOL    HW2 9935   7.869   7.849   2.922  0.3640 -0.4182  0.4987
 1827SOL     OW 9936   0.543   8.031   4.688  0.5596  0.1320  0.1785
 1827SOL    HW1 9937   0.453   8.022   4.659  1.3013 -0.5115 -2.1058
 1827SOL    HW2 9938   0.565   7.946   4.726  0.8999 -0.5824 -1.5098
 1828SOL     OW 9939   8.785   8.695   8.227  0.0237  0.6355  0.4314
 1828SOL    HW1 9940   8.763   8.787   8.245 -0.8673  0.3445  0.9166
 1828SOL    HW2 9941   8.769   8.650   8.311  0.1031 -0.0241  0.1014
 1829SOL     OW 9942   2.696   2.297   5.703 -0.0792 -0.0733 -0.4970
 1829SOL    HW1 9943   2.641   2.220   5.691 -0.0356 -0.3705  1.0142
 1829SOL    HW2 9944   2.757   2.273   5.773 -1.0826  1.8352  1.1456
 1830SOL     OW 9945   6.545   9.120   8.905 -0.0785 -0.0993  0.4389
 1830SOL    HW1 9946   6.578   9.040   8.864  0.9293  0.2871  0.4726
 1830SOL    HW2 9947   6.458   9.132   8.866  0.3554 -0.4088 -0.6856
 1831SOL     OW 9948   1.526   7.695   0.782 -0.3842 -0.7316 -0.6385
 1831SOL    HW1 9949   1.608   7.690   0.732  0.3374  0.5753  0.3558
 1831SOL    HW2 9950   1.458   7.703   0.716  0.4998  0.4904 -1.4396
 1832SOL     OW 9951   1.254   4.494   9.526  0.5368 -0.3144  0.3981
 1832SOL    HW1 9952   1.344   4.481   9.496  0.4212 -1.3059  0.4662
 1832SOL    HW2 9953   1.200   4.464   9.453  0.2310  1.4460 -0.1526
 1833SOL     OW 9954   6.900  10.998   5.841  0.5362  0.4512  0.4372
 1833SOL    HW1 9955   6.867  10.910   5.862  0.6758  0.5916  1.2868
 1833SOL    HW2 9956   6.853  11.056   5.901 -0.0855  1.0595 -0.6072
 1834SOL     OW 9957   8.322   8.330   3.177  0.2804 -0.0634  0.3430
 1834SOL    HW1 9958   8.246   8.323   3.119 -0.4700  0.6055  1.2164
 1834SOL    HW2 9959   8.285   8.336   3.265  1.3673 -0.2014  0.8327
 1835SOL     OW 9960   5.771   4.908   6.173 -0.1911  0.4914 -0.0982
 1835SOL    HW1 9961   5.729   4.985   6.212  1.3071  1.6400 -0.6622
 1835SOL    HW2 9962   5.835   4.944   6.112 -0.4606 -1.2310 -1.4674
 1836SOL     OW 9963   0.983   1.464   8.609  0.5082  0.4130 -0.1358
 1836SOL    HW1 9964   1.064   1.493   8.567  0.7636 -1.0944 -0.7658
 1836SOL    HW2 9965   0.933   1.544   8.624  2.4645  1.4901  1.0830
 1837SOL     OW 9966   6.836   0.520  10.763  0.5992 -0.3146 -0.3695
 1837SOL    HW1 9967   6.839   0.596  10.704 -0.3673 -0.1395 -0.2078
 1837SOL    HW2 9968   6.917   0.526  10.814  0.4510  0.7132 -0.2310
 1838SOL     OW 9969   7.240   4.158   1.822 -0.1724 -0.2402  0.0233
 1838SOL    HW1 9970   7.328   4.178   1.791 -0.0720  0.7227  0.8727
 1838SOL    HW2 9971   7.253   4.120   1.908 -0.5685 -0.3991  0.0140
 1839SOL     OW 9972   0.699   5.900   9.308  0.0759  0.8419 -0.7252
 1839SOL    HW1 9973   0.729   5.958   9.238 -0.1427  0.4456 -1.1559
 1839SOL    HW2 9974   0.662   5.958   9.374  0.1644  1.2134 -0.9987
 1840SOL     OW 9975   6.799   1.659   4.257 -0.1335  0.5654 -0.2568
 1840SOL    HW1 9976   6.885   1.702   4.252  0.5885 -0.8819 -1.4330
 1840SOL    HW2 9977   6.807   1.585   4.196 -1.1079 -1.5163  1.9705
 1841SOL     OW 9978   5.144   0.339   5.208  0.1834 -0.2616  0.7815
 1841SOL    HW1 9979   5.067   0.308   5.255 -1.4197  0.3338 -1.3187
 1841SOL    HW2 9980   5.179   0.261   5.165 -0.6275 -0.1592 -0.0972
 1842SOL     OW 9981   4.446   3.229   3.511  0.2398 -0.1657  0.2072
 1842SOL    HW1 9982   4.479   3.151   3.556  1.4510 -0.5857 -1.2919
 1842SOL    HW2 9983   4.359   3.205   3.481  0.1103 -0.4859  0.8320
 1843SOL     OW 9984  10.276   4.565   3.421  0.0841  0.2682 -1.0377
 1843SOL    HW1 9985  10.352   4.619   3.400 -0.5788  0.6949 -2.5226
 1843SOL    HW2 9986  10.298   4.478   3.389  1.4519 -0.6201  2.0225
 1844SOL     OW 9987   3.460   1.281   7.143  0.7844  0.1684 -0.2709
 1844SOL    HW1 9988   3.411   1.213   7.190  0.8117 -0.4485 -1.1185
 1844SOL    HW2 9989   3.407   1.300   7.066 -0.0095  2.2456  0.7116
 1845SOL     OW 9990  10.357   0.907   4.649  0.4166  0.2047 -0.4399
 1845SOL    HW1 9991  10.348   0.816   4.676 -0.0852  0.7113  1.2702
 1845SOL    HW2 9992  10.275   0.927   4.603 -0.4193  0.3354  1.0277
 1846SOL     OW 9993   0.527   5.685   9.316 -0.3008  0.4209 -0.2161
 1846SOL    HW1 9994   0.571   5.770   9.314 -0.0871  0.3128 -0.1689
 1846SOL    HW2 9995   0.434   5.706   9.312 -0.3259  0.7366  1.3215
 1847SOL     OW 9996   6.342   8.881   5.247  0.0405  0.4056  0.3309
 1847SOL    HW1 9997   6.379   8.815   5.305 -0.8838 -0.5770 -0.1534
 1847SOL    HW2 9998   6.263   8.911   5.293 -0.5511 -0.1881 -0.2692
 1848SOL     OW 9999   9.695   5.959   2.056  0.1644  0.0264 -0.2204
 1848SOL    HW110000   9.747   5.890   2.015  0.9972 -0.5827  1.7231
 1848SOL    HW210001   9.746   6.038   2.043 -0.6601  0.2776 -2.2211
 1849SOL     OW10002   4.974   4.850   0.199 -0.4007 -0.8659 -0.2226
 1849SOL    HW110003   4.895   4.898   0.226 -0.5334 -2.2107  2.0933
 1849SOL    HW210004   5.017   4.828   0.281  1.0737 -2.3350 -1.3278
 1850SOL     OW10005   1.284   1.270   1.287 -0.0901 -0.3159 -0.3649
 1850SOL    HW110006   1.251   1.266   1.197 -1.2116 -1.4320  0.0575
 1850SOL    HW210007   1.336   1.350   1.290 -0.1837 -0.1620 -1.9531
 1851SOL     OW10008   6.518   2.425   3.417  0.4496 -0.4338 -0.1061
 1851SOL    HW110009   6.530   2.338   3.454  0.3172  0.0644  1.1496
 1851SOL    HW210010   6.607   2.458   3.406  0.5489 -1.1581 -1.7013
 1852SOL     OW10011   0.839   1.426   0.567  0.0356 -0.0016  0.0428
 1852SOL    HW110012   0.750   1.429   0.533  0.6600 -2.9844 -2.2543
 1852SOL    HW210013   0.828   1.428   0.662 -2.3245  1.0364 -0.1768
 1853SOL     OW10014   6.105   1.456   0.856  0.9732 -0.0820 -0.1704
 1853SOL    HW110015   6.152   1.403   0.792 -0.0977 -0.6405 -0.5175
 1853SOL    HW210016   6.077   1.393   0.923 -0.3900  0.0218 -0.6311
 1854SOL     OW10017   4.245   3.102   7.183 -0.0318  0.0525  0.2918
 1854SOL    HW110018   4.308   3.050   7.233  2.4818  2.5274 -0.0513
 1854SOL    HW210019   4.256   3.073   7.093  0.0413 -0.0513  0.3334
 1855SOL     OW10020   1.171   6.986   4.411 -0.0337 -0.0720 -1.1088
 1855SOL    HW110021   1.115   7.049   4.457  0.0679 -0.7056 -0.0847
 1855SOL    HW210022   1.117   6.907   4.405  0.9243 -0.8951  0.4437
 1856SOL     OW10023   5.381   7.497   4.841 -0.0805  0.0078 -0.4545
 1856SOL    HW110024   5.474   7.479   4.853 -0.5582 -1.5904  1.2363
 1856SOL    HW210025   5.379   7.577   4.788  2.2332  0.0542 -0.5719
 1857SOL     OW10026   5.867   6.094   7.223 -0.0809  0.1388 -0.5183
 1857SOL    HW110027   5.791   6.035   7.217  0.2829 -0.3000 -0.8894
 1857SOL    HW210028   5.858   6.135   7.309 -0.2325 -0.6135 -0.1623
 1858SOL     OW10029   0.801   0.461   3.332 -0.0094 -0.4164  0.0901
 1858SOL    HW110030   0.765   0.452   3.421 -2.4627  2.2775 -0.4644
 1858SOL    HW210031   0.781   0.378   3.290 -0.8592 -0.9219  1.4109
 1859SOL     OW10032   3.522   0.298   9.393 -0.4573 -0.1749  0.1284
 1859SOL    HW110033   3.564   0.349   9.463  1.5271  0.5447 -1.4843
 1859SOL    HW210034   3.578   0.221   9.384 -0.0347  0.2674 -1.3415
 1860SOL     OW10035   7.472   6.619   0.794  0.3922  0.0589 -0.1006
 1860SOL    HW110036   7.446   6.529   0.813  0.8260  0.2658  1.7288
 1860SOL    HW210037   7.391   6.670   0.804 -0.2368 -0.2850 -2.8531
 1861SOL     OW10038   5.994   9.647   5.072 -0.3137  0.1276  0.3052
 1861SOL    HW110039   6.061   9.678   5.133 -0.7143  0.4715  0.5736
 1861SOL    HW210040   5.993   9.552   5.082 -0.5342  0.2015  0.9949
 1862SOL     OW10041   5.349   6.697   2.708 -0.1203 -0.4565 -1.1885
 1862SOL    HW110042   5.314   6.613   2.736 -2.0108  0.4621 -0.6567
 1862SOL    HW210043   5.304   6.717   2.627 -0.6879  0.6411 -0.6256
 1863SOL     OW10044   5.516   8.717   6.592 -0.6148 -0.3774  0.2707
 1863SOL    HW110045   5.474   8.640   6.629 -0.6159  0.1396  1.3966
 1863SOL    HW210046   5.570   8.751   6.664  0.3425 -0.0312 -0.5984
 1864SOL     OW10047   8.485   9.180   0.780 -0.4509  0.3840 -0.7777
 1864SOL    HW110048   8.491   9.088   0.806  0.3706 -0.0865 -2.4941
 1864SOL    HW210049   8.400   9.208   0.814 -2.0395 -1.8276 -2.5176
 1865SOL     OW10050   2.172   3.189   0.935  0.5924 -0.0572 -0.1392
 1865SOL    HW110051   2.132   3.162   1.018 -0.1927 -3.5902 -1.4913
 1865SOL    HW210052   2.098   3.210   0.879  1.0945  1.5084 -0.2659
 1866SOL     OW10053   6.308   4.790   7.079  0.4620  0.1898  0.3204
 1866SOL    HW110054   6.302   4.795   6.984 -0.4955 -0.8825  0.3057
 1866SOL    HW210055   6.219   4.804   7.110  0.1212 -2.5922  0.8610
 1867SOL     OW10056   9.867   2.989   2.246  0.0522 -0.0708  0.3364
 1867SOL    HW110057   9.906   3.047   2.310 -0.8032  0.3411  0.4897
 1867SOL    HW210058   9.846   2.909   2.295  0.6754 -0.2921  0.2545
 1868SOL     OW10059   4.567   4.901   8.897 -0.6685 -0.1668 -0.6250
 1868SOL    HW110060   4.533   4.854   8.820  0.6148  0.0245 -1.3492
 1868SOL    HW210061   4.634   4.843   8.932 -0.7165  0.0927 -0.0953
 1869SOL     OW10062   6.121   3.749   6.503  0.5527  0.3483  0.3132
 1869SOL    HW110063   6.049   3.802   6.467  0.5186 -0.9159 -1.6617
 1869SOL    HW210064   6.200   3.794   6.473  0.5240 -0.5307 -1.1860
 1870SOL     OW10065   1.238   7.312   1.037 -0.3107  0.5994  0.4397
 1870SOL    HW110066   1.194   7.272   0.962  1.1664  1.6455 -1.0346
 1870SOL    HW210067   1.278   7.391   1.003  2.3998 -0.0763  1.7550
 1871SOL     OW10068   4.971  10.393   0.814 -0.3357 -0.3551  0.0717
 1871SOL    HW110069   4.928  10.473   0.783 -0.6321 -0.9210 -1.0292
 1871SOL    HW210070   4.900  10.343   0.854  0.0534  0.3923  1.7617
 1872SOL     OW10071   1.372   8.093   3.142 -0.3863 -0.5013  0.3483
 1872SOL    HW110072   1.350   8.117   3.052  0.4486  0.7759  0.4518
 1872SOL    HW210073   1.421   8.012   3.135  0.5966  0.1418 -0.4569
 1873SOL     OW10074   9.330   4.010   5.351  0.3743 -0.1691  0.2673
 1873SOL    HW110075   9.362   4.073   5.287 -0.8491 -0.4344 -0.6352
 1873SOL    HW210076   9.271   4.060   5.407  1.1658 -0.0215  1.0088
 1874SOL     OW10077   2.901   8.193   8.597  0.4291 -0.1717 -0.5152
 1874SOL    HW110078   2.840   8.212   8.669  0.9797 -2.4276  0.6317
 1874SOL    HW210079   2.960   8.127   8.633  1.4719 -0.4938 -2.6973
 1875SOL     OW10080   8.444   6.417   7.121  0.4450  0.4327  0.1787
 1875SOL    HW110081   8.383   6.473   7.073 -0.8734 -0.3763  0.8784
 1875SOL    HW210082   8.396   6.336   7.138  1.5355 -0.0413  1.1832
 1876SOL     OW10083   9.203   9.777   7.262 -0.7790 -0.8165 -0.8127
 1876SOL    HW110084   9.235   9.708   7.320 -0.0070 -0.6656 -1.0503
 1876SOL    HW210085   9.121   9.806   7.302 -0.9462 -1.6472 -0.5335
 1877SOL     OW10086   6.879   3.946  10.840 -0.0388  0.4856  0.3847
 1877SOL    HW110087   6.937   3.962  10.765 -1.7265  1.5660 -0.7725
 1877SOL    HW210088   6.845   4.033  10.863 -0.6645 -0.0227  1.4720
 1878SOL     OW10089   4.198  10.590   1.850  0.0880 -0.2484 -0.1082
 1878SOL    HW110090   4.107  10.571   1.872 -0.1268  0.4237 -0.3961
 1878SOL    HW210091   4.193  10.660   1.785  0.7939 -0.5774 -0.5249
 1879SOL     OW10092  10.591   7.893   0.742  0.2463 -0.5210 -0.1922
 1879SOL    HW110093  10.496   7.891   0.744  0.2379  0.4062  0.9086
 1879SOL    HW210094  10.615   7.823   0.680 -1.1427 -0.3155 -0.9927
 1880SOL     OW10095   6.947   3.266   3.848 -0.3529 -0.6598 -0.1256
 1880SOL    HW110096   6.864   3.218   3.855 -0.1559 -1.1070 -0.7392
 1880SOL    HW210097   6.976   3.276   3.938 -0.5451 -1.4432  0.0360
 1881SOL     OW10098   5.494   3.677   5.177 -0.5662  0.4017 -0.0275
 1881SOL    HW110099   5.519   3.599   5.128 -0.6261 -1.0372  2.1427
 1881SOL    HW210100   5.575   3.708   5.217 -1.0858 -0.4746  1.7524
 1882SOL     OW10101   3.493   5.637   2.248 -0.1227  0.3492  0.0447
 1882SOL    HW110102   3.402   5.639   2.277  0.2731  0.7950  1.3143
 1882SOL    HW210103   3.520   5.729   2.247  0.7330  0.1260  1.0962
 1883SOL     OW10104  11.063   3.776   5.391  0.1069  0.0139  0.1830
 1883SOL    HW110105  11.052   3.843   5.323  1.4221  1.0840  0.9747
 1883SOL    HW210106  11.009   3.703   5.361  1.3609  0.0699 -2.5074
 1884SOL     OW10107   7.988   8.475   2.395  0.3595 -0.1823 -0.3761
 1884SOL    HW110108   8.080   8.451   2.404  0.3489  0.1334  0.7020
 1884SOL    HW210109   7.952   8.465   2.483 -0.3398  0.8668 -0.5222
 1885SOL     OW10110   6.148   9.114   4.146 -0.1226 -0.4823  0.3225
 1885SOL    HW110111   6.176   9.156   4.228  1.1786  0.6569 -0.6618
 1885SOL    HW210112   6.140   9.021   4.168 -1.7785  0.0437  2.2346
 1886SOL     OW10113   3.817   8.722   0.340  0.1419  0.2913 -0.3080
 1886SOL    HW110114   3.746   8.697   0.280  0.4558 -1.4050 -0.0016
 1886SOL    HW210115   3.864   8.641   0.358  3.1706  1.5817 -1.7183
 1887SOL     OW10116   1.437   4.676   7.166 -0.0968  0.3438 -0.1718
 1887SOL    HW110117   1.454   4.712   7.253 -1.4590 -0.5393  0.4967
 1887SOL    HW210118   1.475   4.739   7.106 -0.6299  1.8606  1.0118
 1888SOL     OW10119   6.667   1.433   3.810  0.2263  0.0278 -0.1253
 1888SOL    HW110120   6.734   1.373   3.843  0.7730  0.5050 -0.3575
 1888SOL    HW210121   6.650   1.404   3.721 -0.5168 -0.6342  0.2235
 1889SOL     OW10122   8.946   3.285   0.828  0.0635 -0.3343  0.1325
 1889SOL    HW110123   8.862   3.331   0.823 -0.1328 -0.7098 -0.1282
 1889SOL    HW210124   8.921   3.192   0.830  0.5316 -0.5277 -1.7149
 1890SOL     OW10125   6.721  10.438   0.750 -0.3444 -0.3028  0.1978
 1890SOL    HW110126   6.658  10.377   0.712 -0.3886 -0.4173  0.4592
 1890SOL    HW210127   6.669  10.515   0.773 -0.2520 -0.0724 -0.3407
 1891SOL     OW10128   4.868   6.096   2.582  0.4546 -0.0798 -0.3959
 1891SOL    HW110129   4.822   6.032   2.635 -0.4974 -1.3670 -2.6201
 1891SOL    HW210130   4.939   6.047   2.540  0.7355  0.7122 -0.8777
 1892SOL     OW10131   4.872   5.974   5.890 -0.1174 -0.2597 -0.2854
 1892SOL    HW110132   4.966   5.956   5.881 -0.0653 -0.4455  0.5302
 1892SOL    HW210133   4.864   6.068   5.872  0.6627  0.4024  2.3599
 1893SOL     OW10134   7.939   7.620   1.699 -0.1853 -0.0931 -0.1462
 1893SOL    HW110135   7.931   7.699   1.645 -2.3904 -2.1971 -3.3018
 1893SOL    HW210136   8.019   7.577   1.666 -0.4394 -0.4110 -0.3612
 1894SOL     OW10137   5.615   2.181   4.559  0.3934  0.0126  0.2579
 1894SOL    HW110138   5.612   2.233   4.479  1.1123  0.0933  0.2723
 1894SOL    HW210139   5.566   2.233   4.623 -1.0574 -0.5319 -0.3776
 1895SOL     OW10140   1.027   8.720   6.890 -0.2634  0.1670 -0.7468
 1895SOL    HW110141   0.962   8.765   6.836  0.6047  0.8777 -1.2228
 1895SOL    HW210142   0.981   8.701   6.972 -1.8567 -1.6365 -1.9601
 1896SOL     OW10143   1.853   5.333   2.643 -0.1968 -0.8917  0.2050
 1896SOL    HW110144   1.939   5.312   2.680 -0.1628 -0.1882  0.5456
 1896SOL    HW210145   1.831   5.418   2.680 -1.0859 -1.1024  0.1922
 1897SOL     OW10146   1.148   1.876   5.655  0.2954 -0.6381  0.1701
 1897SOL    HW110147   1.060   1.871   5.690 -0.2079  0.3581 -0.8718
 1897SOL    HW210148   1.198   1.812   5.705 -1.3161 -2.2181 -0.1273
 1898SOL     OW10149   9.970  10.642   9.959 -0.4740  0.0048 -0.5515
 1898SOL    HW110150  10.049  10.591   9.976 -0.1661  0.9796  1.1539
 1898SOL    HW210151  10.001  10.721   9.915 -0.2355  1.0754  1.4098
 1899SOL     OW10152   0.993  10.137   0.895 -0.2744 -0.2023  0.8545
 1899SOL    HW110153   0.978  10.210   0.834  0.4995 -0.9551 -0.2680
 1899SOL    HW210154   1.049  10.175   0.963 -0.0571  0.3059  0.3990
 1900SOL     OW10155   3.234   0.376   6.032  0.2062  0.0236 -0.0716
 1900SOL    HW110156   3.227   0.421   5.948 -0.7259 -1.6552 -0.9620
 1900SOL    HW210157   3.148   0.334   6.044 -0.0137  0.9624  2.1856
 1901SOL     OW10158   7.311   4.108   2.518  0.1129 -0.2504 -0.3490
 1901SOL    HW110159   7.363   4.149   2.588  1.8918 -1.7397 -0.7026
 1901SOL    HW210160   7.338   4.154   2.439  0.2835 -0.4787 -0.4244
 1902SOL     OW10161  10.500   2.176   3.898  0.4583 -0.5795 -0.0310
 1902SOL    HW110162  10.455   2.215   3.973 -0.1502 -0.9445 -0.1999
 1902SOL    HW210163  10.485   2.082   3.907  1.7013 -0.7664  0.2331
 1903SOL     OW10164   7.433   3.178   7.972  0.1861 -0.4134 -0.2137
 1903SOL    HW110165   7.396   3.205   7.888  0.1256  0.0511 -0.0414
 1903SOL    HW210166   7.497   3.246   7.993  0.4620 -0.7163 -0.0541
 1904SOL     OW10167  10.001  10.324   3.544 -0.0920 -1.1187  0.4974
 1904SOL    HW110168  10.027  10.333   3.452  3.7930  1.0988  1.5985
 1904SOL    HW210169   9.971  10.412   3.568 -1.7471 -1.8582  1.2397
 1905SOL     OW10170   5.331   7.303   5.648 -0.1487  0.1526 -0.0913
 1905SOL    HW110171   5.310   7.266   5.562  0.9876 -0.3483 -0.1748
 1905SOL    HW210172   5.296   7.241   5.711 -0.9157  0.4807 -0.1874
 1906SOL     OW10173   5.912   9.620   7.377  0.1558  0.2974  0.4708
 1906SOL    HW110174   5.948   9.583   7.296  1.4949  2.4568 -0.0027
 1906SOL    HW210175   5.819   9.634   7.358  0.6133  1.5222 -1.0314
 1907SOL     OW10176   7.442   6.701   2.520 -0.1961  0.2975 -0.1100
 1907SOL    HW110177   7.470   6.674   2.432  0.9898  1.0231  0.0207
 1907SOL    HW210178   7.433   6.796   2.514  0.1241  0.3765  0.6149
 1908SOL     OW10179   6.591   3.652   7.433 -0.0780 -0.2265  0.1958
 1908SOL    HW110180   6.614   3.604   7.512  2.2528 -0.8460 -0.7908
 1908SOL    HW210181   6.671   3.653   7.380 -0.7611  2.5140 -0.9963
 1909SOL     OW10182   5.806  10.325   9.887 -0.3184  0.4068 -0.0303
 1909SOL    HW110183   5.866  10.353   9.818  1.0062 -0.2326  0.8326
 1909SOL    HW210184   5.765  10.246   9.852 -0.7247  0.8712 -0.6410
 1910SOL     OW10185   3.804   5.675   7.557 -0.6660  0.2991 -0.3606
 1910SOL    HW110186   3.840   5.615   7.491  1.4573  1.7459 -0.6077
 1910SOL    HW210187   3.880   5.703   7.608 -1.4012  3.4255 -0.7855
 1911SOL     OW10188   5.942   0.508   2.624 -0.5187  0.2009 -0.2962
 1911SOL    HW110189   6.032   0.538   2.617 -0.8366  0.9595 -1.3626
 1911SOL    HW210190   5.892   0.588   2.641 -1.0604 -0.1240 -0.3358
 1912SOL     OW10191   2.053   1.273   8.374  0.1566 -0.1599 -0.0477
 1912SOL    HW110192   1.977   1.287   8.317 -0.2074  1.4370  0.7621
 1912SOL    HW210193   2.020   1.291   8.462  1.9805  3.1043  0.1315
 1913SOL     OW10194  10.083   0.555   3.281  0.1438 -0.2459 -0.3543
 1913SOL    HW110195  10.060   0.608   3.205 -0.6013 -0.8109 -0.5396
 1913SOL    HW210196  10.111   0.471   3.244  0.5816 -0.2467 -0.0344
 1914SOL     OW10197   7.762   2.422   5.166 -0.3528  0.1005  0.0415
 1914SOL    HW110198   7.803   2.504   5.192 -0.3414  0.4785 -1.1293
 1914SOL    HW210199   7.713   2.443   5.087 -1.7974 -0.6235  0.6958
 1915SOL     OW10200   5.624   7.813   9.582  0.4269 -0.0021  0.5547
 1915SOL    HW110201   5.635   7.781   9.493 -0.5636 -1.1211  0.7989
 1915SOL    HW210202   5.554   7.878   9.576  0.6763  0.2520  0.4378
 1916SOL     OW10203   8.028   0.139   6.984 -0.0085  0.6609  0.1460
 1916SOL    HW110204   7.952   0.166   7.036 -0.3487 -0.3004  0.1716
 1916SOL    HW210205   7.993   0.079   6.919  0.8693 -0.6722  0.8630
 1917SOL     OW10206   5.459   3.228   4.896 -0.2804  0.3291 -0.1755
 1917SOL    HW110207   5.531   3.181   4.854 -0.8817  0.9609 -2.0226
 1917SOL    HW210208   5.427   3.169   4.963 -0.5363 -1.6095 -1.9094
 1918SOL     OW10209   2.841   9.746   8.819 -0.1045  0.1353 -0.3474
 1918SOL    HW110210   2.843   9.750   8.915 -0.9046 -2.4202 -0.1493
 1918SOL    HW210211   2.919   9.697   8.795 -0.1491  0.3635 -0.9686
 1919SOL     OW10212   8.735   5.696   8.315 -0.0201 -0.3300  0.0258
 1919SOL    HW110213   8.665   5.634   8.297  0.7084 -1.7373  1.6439
 1919SOL    HW210214   8.804   5.674   8.252  0.8030 -2.2409  1.4817
 1920SOL     OW10215   3.985   3.698  10.106  0.6976  0.1527 -0.0782
 1920SOL    HW110216   4.071   3.722  10.139  1.0814 -1.5792  0.2763
 1920SOL    HW210217   3.931   3.686  10.184  0.4493  0.1314 -0.2511
 1921SOL     OW10218   6.382   8.318   3.897  0.3228 -0.0853 -0.8161
 1921SOL    HW110219   6.301   8.361   3.870  0.5399  1.1124  0.3294
 1921SOL    HW210220   6.354   8.234   3.934 -0.6591  1.1341  1.4242
 1922SOL     OW10221   4.917  10.938   5.283  0.0351 -0.0802 -0.5925
 1922SOL    HW110222   4.891  10.928   5.192 -1.6020 -0.0091 -0.1710
 1922SOL    HW210223   4.916  10.849   5.319 -1.7808  0.1064 -0.0639
 1923SOL     OW10224   0.957   2.874   1.327 -0.4303 -0.7434 -0.0239
 1923SOL    HW110225   0.896   2.800   1.336  0.2539 -1.3066  0.1118
 1923SOL    HW210226   0.912   2.936   1.270 -1.3548 -0.9027  0.5241
 1924SOL     OW10227   4.612   9.324   1.874  0.2865  0.1020  0.0528
 1924SOL    HW110228   4.670   9.248   1.860  1.5458  1.1378 -0.6685
 1924SOL    HW210229   4.620   9.374   1.793 -0.7356  0.8825  0.4172
 1925SOL     OW10230   0.734   6.025   2.705  0.3420 -0.6572  0.5488
 1925SOL    HW110231   0.757   6.115   2.727  0.3448 -0.4714 -0.1917
 1925SOL    HW210232   0.639   6.027   2.689  0.8562  0.0497 -3.2022
 1926SOL     OW10233   7.533   4.143   5.431 -0.0069 -0.4091  0.0683
 1926SOL    HW110234   7.560   4.177   5.345  0.8245 -1.2822 -0.0380
 1926SOL    HW210235   7.538   4.219   5.489 -0.8297  0.2512 -0.7002
 1927SOL     OW10236   3.044   6.566   6.915  0.1695 -0.1574 -0.5191
 1927SOL    HW110237   2.953   6.541   6.901  0.3149 -0.6413 -0.6047
 1927SOL    HW210238   3.094   6.486   6.900  0.4613 -0.3756  1.3751
 1928SOL     OW10239   6.056   7.862   4.695 -0.1414 -0.1343 -0.2491
 1928SOL    HW110240   6.145   7.888   4.717  0.2736 -0.8994 -0.9439
 1928SOL    HW210241   6.027   7.927   4.632 -0.4790  0.7243  0.7698
 1929SOL     OW10242   1.051   4.361   0.377 -0.0291  0.6867  0.2991
 1929SOL    HW110243   0.995   4.399   0.310 -0.5197  0.9753  0.8655
 1929SOL    HW210244   0.991   4.321   0.439  0.4389 -0.0639  0.2881
 1930SOL     OW10245   4.247   3.840   6.229  0.1463  0.1006 -0.1189
 1930SOL    HW110246   4.297   3.900   6.175  0.6236 -0.5792 -0.4465
 1930SOL    HW210247   4.247   3.758   6.180 -1.6332  0.1868 -0.3236
 1931SOL     OW10248   1.561   0.598   8.475 -0.3575  0.2300  0.4655
 1931SOL    HW110249   1.528   0.538   8.541  1.3321 -0.0191  1.1429
 1931SOL    HW210250   1.597   0.541   8.407 -0.7686  0.4856  0.0319
 1932SOL     OW10251   4.478   2.991  10.594  0.1233  0.1258  0.1835
 1932SOL    HW110252   4.399   3.018  10.641 -1.0138  0.4276 -1.7851
 1932SOL    HW210253   4.538   3.064  10.604 -0.2061  0.3171  0.8712
 1933SOL     OW10254   4.954   5.624   6.574 -0.4660 -0.2009  0.8159
 1933SOL    HW110255   4.940   5.715   6.600  0.5322  0.3620 -0.4927
 1933SOL    HW210256   4.881   5.603   6.516  0.3377  0.4566 -0.4823
 1934SOL     OW10257   7.996   5.281   6.668  0.5315  0.3772 -0.2341
 1934SOL    HW110258   7.939   5.339   6.618  1.4057  0.5024 -1.1032
 1934SOL    HW210259   8.034   5.222   6.603 -0.2275 -1.1043  0.6031
 1935SOL     OW10260   0.569   2.340  10.439 -0.6732  0.8608 -0.6090
 1935SOL    HW110261   0.476   2.362  10.432 -0.4323  2.2617  0.2570
 1935SOL    HW210262   0.580   2.311  10.529  0.1196  2.7839 -0.0567
 1936SOL     OW10263   9.655   0.179  10.857  0.5388 -0.2415  0.7140
 1936SOL    HW110264   9.656   0.158  10.951 -1.6025  0.1408  0.8890
 1936SOL    HW210265   9.649   0.094  10.814  1.9400 -0.4436  0.8683
 1937SOL     OW10266   0.142   5.372   0.046 -0.2077 -0.0266  0.0652
 1937SOL    HW110267   0.203   5.370   0.119 -0.9876 -1.3166  0.7099
 1937SOL    HW210268   0.106   5.283   0.042 -1.5415  0.5193 -0.7139
 1938SOL     OW10269   8.712   3.644   4.947 -0.0109 -0.0385  0.3628
 1938SOL    HW110270   8.774   3.696   4.894 -1.6353  0.7555 -0.8463
 1938SOL    HW210271   8.697   3.698   5.024  0.3622  0.0225  0.3977
 1939SOL     OW10272   6.997   4.744   9.579  0.0957  0.0727  0.4104
 1939SOL    HW110273   7.078   4.771   9.536 -1.3600  0.9613 -1.9941
 1939SOL    HW210274   6.962   4.674   9.524 -0.9304 -0.0697  1.2032
 1940SOL     OW10275   4.174   4.902   5.145 -0.2652  0.8235 -0.2412
 1940SOL    HW110276   4.134   4.906   5.058  0.0800 -0.3467 -0.4736
 1940SOL    HW210277   4.100   4.895   5.205 -0.5339 -2.3142 -0.7250
 1941SOL     OW10278   7.832   9.530   7.997  0.2935 -0.1216  0.0539
 1941SOL    HW110279   7.786   9.559   7.918 -2.2645  0.5706  1.6711
 1941SOL    HW210280   7.888   9.604   8.021 -0.6721  0.6013  0.1263
 1942SOL     OW10281   0.594   3.572   9.588 -0.9163 -0.5749  0.4960
 1942SOL    HW110282   0.622   3.481   9.595  0.4092 -0.2234  0.0999
 1942SOL    HW210283   0.675   3.622   9.588 -1.6355  0.6416  1.0394
 1943SOL     OW10284   9.491   4.686   6.694 -0.0361 -0.0472  0.2464
 1943SOL    HW110285   9.410   4.738   6.699  0.1671  0.4682 -1.2262
 1943SOL    HW210286   9.557   4.741   6.737 -0.1296  0.2816 -0.0205
 1944SOL     OW10287   2.830   9.479   7.863  0.1934  0.1512 -0.2786
 1944SOL    HW110288   2.921   9.502   7.878 -0.4578  1.4878  2.2146
 1944SOL    HW210289   2.814   9.406   7.923 -0.6731  0.7741  0.2749
 1945SOL     OW10290   7.997   8.207   9.493 -0.3830  0.0790 -0.2467
 1945SOL    HW110291   7.988   8.119   9.531  0.1696  1.0097  2.2611
 1945SOL    HW210292   7.912   8.225   9.454 -0.7274 -1.3113 -0.1880
 1946SOL     OW10293  10.649   4.087   4.616 -0.1841  0.6133 -0.2216
 1946SOL    HW110294  10.649   4.148   4.690  1.1722  0.7813 -0.3328
 1946SOL    HW210295  10.578   4.117   4.559 -0.4825  1.1867  0.4514
 1947SOL     OW10296   4.660   7.198   2.501  0.2738 -0.0979 -0.0597
 1947SOL    HW110297   4.567   7.218   2.510 -0.0681 -2.0651  1.5800
 1947SOL    HW210298   4.668   7.109   2.535  2.9881  0.5516  1.2218
 1948SOL     OW10299   2.305   3.248   8.353 -0.2792 -0.2087 -0.1682
 1948SOL    HW110300   2.311   3.190   8.429 -2.9128 -0.8612 -0.3507
 1948SOL    HW210301   2.356   3.325   8.378  1.6775 -1.7522  0.8752
 1949SOL     OW10302   0.709   8.946   0.216  0.0199  0.3282  0.8554
 1949SOL    HW110303   0.657   8.997   0.278 -0.5415 -0.1298  0.7717
 1949SOL    HW210304   0.672   8.858   0.220 -1.0665  0.6333 -1.2708
 1950SOL     OW10305   1.094   4.831   0.503 -0.5827  0.7014  0.3043
 1950SOL    HW110306   0.999   4.826   0.514 -0.7135 -0.2570 -0.9878
 1950SOL    HW210307   1.126   4.742   0.518 -0.1492  0.5791 -1.1069
 1951SOL     OW10308   6.236  10.263   0.173 -0.1254  0.2791 -0.0112
 1951SOL    HW110309   6.209  10.322   0.103  1.0602  0.8093 -0.0462
 1951SOL    HW210310   6.332  10.263   0.169 -0.0840 -1.8437 -0.1642
 1952SOL     OW10311   2.471   8.665  10.890  0.0913 -0.0632 -0.5260
 1952SOL    HW110312   2.446   8.694  10.978 -1.3664 -1.2934 -0.4910
 1952SOL    HW210313   2.388   8.659  10.842  0.8170  0.1221 -1.8606
 1953SOL     OW10314   4.503   2.762   9.192 -0.2054 -0.1079  0.1774
 1953SOL    HW110315   4.454   2.832   9.150 -0.6804 -0.1586  0.6337
 1953SOL    HW210316   4.530   2.800   9.276 -0.9948 -0.6668  0.6968
 1954SOL     OW10317   8.702   0.276   4.973  0.3707  0.0286  0.0311
 1954SOL    HW110318   8.779   0.221   4.990  1.0845  1.5662  2.0549
 1954SOL    HW210319   8.718   0.356   5.022 -2.0675  0.8310 -0.3684
 1955SOL     OW10320   1.451   4.880   2.276 -0.1817  0.0526 -0.1837
 1955SOL    HW110321   1.388   4.833   2.221  0.0577  0.4255 -0.8001
 1955SOL    HW210322   1.476   4.956   2.222  0.4603  0.1383  0.2319
 1956SOL     OW10323  11.039   9.322   5.243  0.4165  0.1852 -0.3441
 1956SOL    HW110324  11.126   9.341   5.278  0.8936 -1.9996 -0.1510
 1956SOL    HW210325  11.001   9.260   5.306 -2.1958  2.6633  0.7018
 1957SOL     OW10326   9.920   1.054   4.514  0.2208  0.4948  0.2023
 1957SOL    HW110327   9.959   0.967   4.508 -1.2764 -0.1505 -0.7717
 1957SOL    HW210328   9.944   1.097   4.431  0.6821  0.8990  0.5408
 1958SOL     OW10329   4.392   8.200   6.210 -0.2749 -0.2358  0.2802
 1958SOL    HW110330   4.431   8.251   6.138  1.3170 -0.8899  0.6519
 1958SOL    HW210331   4.408   8.253   6.288 -0.4246 -0.3648  0.3991
 1959SOL     OW10332   1.320   6.022  10.783  0.2818  0.3769 -0.1440
 1959SOL    HW110333   1.392   6.070  10.823  1.7269 -1.2402 -0.6938
 1959SOL    HW210334   1.287   6.079  10.714 -1.2300  2.5538  2.1822
 1960SOL     OW10335   4.502   3.095   9.000  0.1228 -0.1641 -0.0036
 1960SOL    HW110336   4.536   3.071   8.914 -2.3599 -1.7451 -0.6517
 1960SOL    HW210337   4.474   3.186   8.990  0.6505 -0.0610 -0.5902
 1961SOL     OW10338   3.562   2.976   1.625 -0.2512  0.0696  0.6954
 1961SOL    HW110339   3.480   2.982   1.674 -1.1876  0.2320 -0.8224
 1961SOL    HW210340   3.559   3.050   1.564  0.9802  0.0119  0.5444
 1962SOL     OW10341   7.404   9.255   4.343 -0.0205 -0.1767 -0.0892
 1962SOL    HW110342   7.352   9.204   4.281  2.7247 -1.2058 -1.7594
 1962SOL    HW210343   7.458   9.190   4.388  0.4040  0.8836  0.9841
 1963SOL     OW10344   9.941   4.589   9.763 -0.2518 -0.0946  0.2625
 1963SOL    HW110345   9.932   4.580   9.858 -0.2640 -0.2558  0.2457
 1963SOL    HW210346  10.035   4.588   9.748 -0.2602 -1.0425  0.1801
 1964SOL     OW10347   2.993   2.207   0.831 -0.0655 -0.5714  0.2903
 1964SOL    HW110348   2.973   2.149   0.758  1.1996 -1.0399  0.3005
 1964SOL    HW210349   2.926   2.187   0.896 -0.7158 -0.7304 -0.4099
 1965SOL     OW10350   7.772   7.082   7.618  0.6767 -0.2809 -0.2754
 1965SOL    HW110351   7.707   7.012   7.625  1.7256 -1.4231 -1.4870
 1965SOL    HW210352   7.723   7.157   7.584 -0.1786 -0.8350 -0.2916
 1966SOL     OW10353   4.702   6.476   8.484  0.1922 -0.0957  0.1677
 1966SOL    HW110354   4.661   6.520   8.410  2.3815  0.2946 -0.8780
 1966SOL    HW210355   4.669   6.386   8.480  0.1250 -0.0237 -1.1369
 1967SOL     OW10356   2.193   9.013   4.590  0.1454 -0.1493  0.1786
 1967SOL    HW110357   2.225   9.101   4.570 -2.1957  0.3781 -1.5892
 1967SOL    HW210358   2.162   9.019   4.681  0.2299  0.7576  0.1535
 1968SOL     OW10359   7.599   4.095   6.350 -0.3374 -0.5556 -0.0898
 1968SOL    HW110360   7.634   4.140   6.426 -1.2421  0.7391 -0.4113
 1968SOL    HW210361   7.530   4.039   6.384 -0.2199 -0.5705  0.1228
 1969SOL     OW10362   8.655  11.018   3.694  0.2831  0.1622  0.1103
 1969SOL    HW110363   8.696  11.008   3.608  0.1095  3.0207 -0.3952
 1969SOL    HW210364   8.723  11.059   3.748 -0.3826  0.6617  0.5926
 1970SOL     OW10365   8.649   6.902   1.269 -0.2853  0.4416  0.2804
 1970SOL    HW110366   8.629   6.837   1.336  0.2529 -0.2750 -0.2328
 1970SOL    HW210367   8.745   6.902   1.263 -0.3364 -0.9607 -1.8277
 1971SOL     OW10368   5.578   2.177   8.767  0.0086  0.0695  0.6857
 1971SOL    HW110369   5.524   2.231   8.709  2.0967  3.1399  1.3569
 1971SOL    HW210370   5.549   2.198   8.855  0.7975  0.0218  0.9665
 1972SOL     OW10371   4.836   2.328   0.416 -0.5115  0.1162 -0.0591
 1972SOL    HW110372   4.872   2.412   0.385  0.0464 -0.1428 -0.1184
 1972SOL    HW210373   4.752   2.352   0.455 -1.0338  0.5228 -1.3574
 1973SOL     OW10374   1.515   8.725   2.066 -0.2354 -0.1756  0.1928
 1973SOL    HW110375   1.602   8.738   2.105 -0.4836  1.3788  0.2544
 1973SOL    HW210376   1.533   8.702   1.975  0.2307  1.5200 -0.1739
 1974SOL     OW10377   1.957   5.151   0.386 -0.0759  0.7989 -0.2649
 1974SOL    HW110378   2.000   5.087   0.329 -1.1781 -0.1297 -0.1000
 1974SOL    HW210379   2.028   5.208   0.417  0.7996  0.1946 -1.1135
 1975SOL     OW10380   1.612   4.470   7.217 -0.0785  0.1741 -0.4489
 1975SOL    HW110381   1.549   4.541   7.203 -1.3226 -0.1895  2.4793
 1975SOL    HW210382   1.557   4.391   7.226  0.7962 -0.2632  1.5322
 1976SOL     OW10383   1.437   6.233   1.020  0.2311 -0.5644 -0.5643
 1976SOL    HW110384   1.494   6.281   0.959  1.6323 -1.1569  0.2333
 1976SOL    HW210385   1.356   6.219   0.971  0.7231  0.3856 -1.7077
 1977SOL     OW10386  10.444   7.378   3.748 -0.7158 -0.3458 -0.4928
 1977SOL    HW110387  10.453   7.294   3.703 -1.7892 -0.9709  0.4033
 1977SOL    HW210388  10.361   7.413   3.717  0.5823  1.3635 -2.3396
 1978SOL     OW10389   4.586   5.225   5.943 -0.3272 -0.0997 -0.2556
 1978SOL    HW110390   4.508   5.253   5.896 -1.0581 -2.4621 -0.5932
 1978SOL    HW210391   4.658   5.245   5.885 -0.8271  0.7303 -0.6033
 1979SOL     OW10392   0.427   9.364   3.686 -0.0780 -0.2121 -0.1890
 1979SOL    HW110393   0.402   9.416   3.609  0.3158 -1.1679 -0.9893
 1979SOL    HW210394   0.497   9.414   3.728 -0.5250  0.4819 -0.2630
 1980SOL     OW10395   5.998   9.108   0.627 -0.3321  0.1805  0.2301
 1980SOL    HW110396   6.031   9.054   0.555  1.3968  1.4292  0.0205
 1980SOL    HW210397   5.914   9.140   0.597 -0.6636 -1.1085 -0.2787
 1981SOL     OW10398   2.318   3.443   2.145  0.0486  0.5327 -0.7018
 1981SOL    HW110399   2.373   3.393   2.085  1.4297  1.4555 -0.2481
 1981SOL    HW210400   2.250   3.482   2.089 -0.3535 -0.8449 -1.2249
 1982SOL     OW10401   8.141   9.819   1.463  0.0756 -0.0203 -0.1318
 1982SOL    HW110402   8.211   9.844   1.524  0.7644  0.8586 -1.2394
 1982SOL    HW210403   8.084   9.762   1.514  1.8976 -1.2337  0.6542
 1983SOL     OW10404   4.086   5.566   2.762  0.2353 -0.8967  0.0903
 1983SOL    HW110405   4.099   5.475   2.737 -0.3357 -1.4349  1.6837
 1983SOL    HW210406   4.003   5.567   2.810 -0.1159  0.5846 -0.4818
 1984SOL     OW10407   0.685   1.009   6.566  0.6223 -0.7758 -0.0685
 1984SOL    HW110408   0.640   0.973   6.642 -0.2864  0.9611  0.2791
 1984SOL    HW210409   0.636   0.978   6.491  0.2387 -0.7848  0.1843
 1985SOL     OW10410   4.717   9.568   6.715 -0.1850  0.1106 -0.0896
 1985SOL    HW110411   4.811   9.579   6.704 -0.4748  4.0029 -0.1264
 1985SOL    HW210412   4.693   9.496   6.657  2.5346  0.0407 -1.2322
 1986SOL     OW10413   7.988   4.457   2.824  0.5772 -0.0928 -0.1421
 1986SOL    HW110414   8.073   4.427   2.794  0.1697 -0.6182 -0.8126
 1986SOL    HW210415   7.936   4.464   2.744 -0.4280 -1.1491  0.3885
 1987SOL     OW10416   0.551   1.867   1.780  0.3828 -0.0398  0.0207
 1987SOL    HW110417   0.583   1.796   1.835 -0.6874  1.0816  2.2574
 1987SOL    HW210418   0.456   1.853   1.775  0.5113 -0.4081 -2.0516
 1988SOL     OW10419   3.881   9.189   2.438 -0.1126 -0.2088  0.0912
 1988SOL    HW110420   3.878   9.276   2.399  1.0060 -0.3615 -0.3821
 1988SOL    HW210421   3.957   9.191   2.497  0.0452 -0.9130 -0.0756
 1989SOL     OW10422  10.392   9.682   9.439 -0.3549  0.1235 -0.7085
 1989SOL    HW110423  10.450   9.651   9.508 -0.7872 -0.7980 -0.7450
 1989SOL    HW210424  10.429   9.767   9.412  0.4710 -0.0531 -0.1497
 1990SOL     OW10425   8.218   5.858   7.888  0.2330 -0.5596  0.1756
 1990SOL    HW110426   8.277   5.843   7.961  1.6338  1.6553 -0.4059
 1990SOL    HW210427   8.275   5.855   7.811 -0.7867 -0.4084 -0.6033
 1991SOL     OW10428   0.239   0.212   2.750  0.0201 -0.2012 -0.1448
 1991SOL    HW110429   0.285   0.136   2.714  0.3345 -0.9472  1.7016
 1991SOL    HW210430   0.163   0.174   2.794 -1.4511  0.8638 -1.6697
 1992SOL     OW10431   9.308   6.046   7.821 -0.0161  0.2564 -0.4730
 1992SOL    HW110432   9.268   6.116   7.871 -0.6472 -0.8061  0.5445
 1992SOL    HW210433   9.237   5.986   7.800  0.7235 -0.7782 -0.1402
 1993SOL     OW10434   9.391   5.046   1.930 -0.5329  0.2578 -0.0811
 1993SOL    HW110435   9.334   5.113   1.968  0.2839  0.4465  0.8395
 1993SOL    HW210436   9.339   4.966   1.934 -1.3038  0.7069 -0.6649
 1994SOL     OW10437   6.681   8.894   6.792 -0.5548 -0.3080  0.5669
 1994SOL    HW110438   6.706   8.856   6.708 -1.5795 -1.6888  0.8663
 1994SOL    HW210439   6.606   8.949   6.772  0.2505  0.7557  0.3257
 1995SOL     OW10440   2.318   3.292   3.410 -0.3337 -0.3358 -0.1213
 1995SOL    HW110441   2.251   3.355   3.437 -2.6242 -1.7353 -2.0886
 1995SOL    HW210442   2.305   3.217   3.468  1.0779  0.2083  0.9403
 1996SOL     OW10443   5.672   6.232   3.178 -0.0079  0.0758 -0.2281
 1996SOL    HW110444   5.696   6.321   3.204  0.7499 -0.1191 -0.2519
 1996SOL    HW210445   5.589   6.243   3.130  0.1464  0.7845 -0.3444
 1997SOL     OW10446   8.839   5.501   4.800 -0.6992  0.2785 -0.0955
 1997SOL    HW110447   8.818   5.509   4.707 -1.2467 -0.5405 -0.0534
 1997SOL    HW210448   8.756   5.517   4.845 -0.2660  1.5143  0.3081
 1998SOL     OW10449   4.970   4.255   3.025  0.1179  0.2293 -0.2506
 1998SOL    HW110450   5.017   4.338   3.035 -3.3248  2.3777 -0.0772
 1998SOL    HW210451   4.948   4.229   3.115  1.1498 -0.9103 -0.3078
 1999SOL     OW10452   0.419   1.726   3.986 -0.0033  0.2251  0.1031
 1999SOL    HW110453   0.426   1.656   4.052 -1.1087  0.0741  0.0832
 1999SOL    HW210454   0.505   1.729   3.945  0.0363 -1.2462  0.0074
 2000SOL     OW10455   3.135  10.062   4.933 -0.2006 -0.2733 -0.5112
 2000SOL    HW110456   3.110   9.976   4.900  0.1224 -0.8177  0.6409
 2000SOL    HW210457   3.053  10.100   4.966 -0.3477 -0.1122 -1.0446
 2001SOL     OW10458   6.434   5.135   2.796  0.0447  0.1788 -0.2952
 2001SOL    HW110459   6.519   5.122   2.755 -1.0670  0.7741 -3.0565
 2001SOL    HW210460   6.383   5.058   2.770 -0.3991  0.0079  1.0116
 2002SOL     OW10461   7.100  10.736   7.407 -0.0863  0.3761  0.3421
 2002SOL    HW110462   7.142  10.704   7.327 -1.9117  1.3327 -1.1075
 2002SOL    HW210463   7.073  10.657   7.453 -2.1018 -0.3033 -1.8064
 2003SOL     OW10464   8.504   9.086   3.298  1.1193 -0.5988  0.2371
 2003SOL    HW110465   8.470   9.110   3.384  1.3140 -0.6077  0.3171
 2003SOL    HW210466   8.493   9.165   3.245  0.3969 -0.8007  0.0863
 2004SOL     OW10467  10.516   4.505   3.651 -0.0577 -0.1920 -0.6439
 2004SOL    HW110468  10.557   4.566   3.712 -0.9785  0.6596 -0.8434
 2004SOL    HW210469  10.589   4.457   3.611  0.5675 -0.8426  1.1771
 2005SOL     OW10470   2.474   8.153   9.027  0.0296 -0.0211 -0.4713
 2005SOL    HW110471   2.528   8.162   8.949  0.7580  0.5637  0.0915
 2005SOL    HW210472   2.477   8.239   9.069  1.6073 -0.9431  1.4599
 2006SOL     OW10473   1.105   6.843   2.652  0.6213 -0.3113  0.0130
 2006SOL    HW110474   1.029   6.881   2.696 -0.1849 -0.5734 -1.1164
 2006SOL    HW210475   1.139   6.913   2.596  0.7009 -0.4520 -0.1167
 2007SOL     OW10476   3.702   2.673   6.972  0.0572  0.0676  0.0395
 2007SOL    HW110477   3.731   2.583   6.957 -0.7379 -0.2444  0.3257
 2007SOL    HW210478   3.772   2.711   7.026  1.0942  0.0759 -1.2478
 2008SOL     OW10479   2.690   8.400   7.521 -0.1200  0.3084  0.5473
 2008SOL    HW110480   2.756   8.332   7.531  0.4112  0.8419  0.7213
 2008SOL    HW210481   2.609   8.352   7.501 -0.0376 -0.4484  1.9319
 2009SOL     OW10482   2.982   8.696   3.292 -0.3001  0.7371 -0.1419
 2009SOL    HW110483   2.914   8.692   3.224  2.7962  1.1997 -3.5517
 2009SOL    HW210484   3.014   8.786   3.288  0.8682  0.4090  1.0589
 2010SOL     OW10485   1.921  10.828   4.832 -0.1869 -0.6268  0.4205
 2010SOL    HW110486   1.913  10.769   4.907 -1.6377 -1.3404 -0.2670
 2010SOL    HW210487   1.839  10.876   4.830  1.3076  2.2339  1.5613
 2011SOL     OW10488   3.140   3.693   6.966 -0.5925 -0.5638  0.0999
 2011SOL    HW110489   3.107   3.775   6.929  1.4739 -0.0987 -0.8579
 2011SOL    HW210490   3.179   3.648   6.891  2.5577 -0.1978  1.3559
 2012SOL     OW10491   1.568   8.089   4.174  0.2126 -0.1074  0.0561
 2012SOL    HW110492   1.489   8.077   4.226  0.8149  0.7455  1.2188
 2012SOL    HW210493   1.600   8.000   4.158 -0.0777 -0.3971  1.0211
 2013SOL     OW10494   9.328   6.022  10.564  0.2055 -0.0505 -0.0375
 2013SOL    HW110495   9.291   6.110  10.561  0.8566  0.2629  0.7444
 2013SOL    HW210496   9.395   6.026  10.633  1.1221 -0.8065 -0.8477
 2014SOL     OW10497   4.707   1.065   2.031  0.3587  0.3050 -0.0859
 2014SOL    HW110498   4.709   0.978   1.990 -0.5317  0.9051 -1.4833
 2014SOL    HW210499   4.771   1.116   1.982  0.9186  0.4436  0.7662
 2015SOL     OW10500   2.051   0.368   8.010 -0.1484  0.0985  0.1462
 2015SOL    HW110501   2.021   0.433   7.946 -0.0888 -0.2033 -0.1920
 2015SOL    HW210502   2.002   0.289   7.988 -0.0134 -0.0516  0.3810
 2016SOL     OW10503   7.044   2.385   6.869  0.4043  0.1492  0.0689
 2016SOL    HW110504   7.132   2.348   6.873  0.5432  0.2652 -1.3257
 2016SOL    HW210505   7.001   2.336   6.798  0.4078  2.2303 -1.4596
 2017SOL     OW10506  10.483   5.503   0.709 -0.2401 -0.0023 -0.0766
 2017SOL    HW110507  10.489   5.479   0.617 -1.3180  1.1901 -0.4919
 2017SOL    HW210508  10.498   5.421   0.756 -1.3451 -0.9921 -1.3546
 2018SOL     OW10509   0.815   7.416   2.850 -0.0059 -0.1438  0.0661
 2018SOL    HW110510   0.820   7.457   2.936 -1.0522 -0.4613  0.2903
 2018SOL    HW210511   0.753   7.344   2.861 -0.8599  0.3679 -1.1690
 2019SOL     OW10512   3.009  10.716   6.800  0.2846  0.2581 -0.4758
 2019SOL    HW110513   2.945  10.754   6.860  1.7926  2.2791 -0.0340
 2019SOL    HW210514   2.981  10.746   6.713  0.3162  0.7038 -0.3368
 2020SOL     OW10515   4.577   3.466   1.874 -0.2527  0.2323  0.2463
 2020SOL    HW110516   4.496   3.426   1.840 -0.0841 -0.6468  0.8258
 2020SOL    HW210517   4.646   3.405   1.847 -0.1887 -0.9332  2.7361
 2021SOL     OW10518   3.415   1.747   0.041 -0.1132  0.1204  0.6941
 2021SOL    HW110519   3.370   1.699  -0.029 -1.2225  1.0474  0.7420
 2021SOL    HW210520   3.427   1.682   0.110  0.9201 -0.7855 -0.2988
 2022SOL     OW10521   0.415   8.165   0.681  0.1128 -0.2580 -0.2891
 2022SOL    HW110522   0.349   8.109   0.723 -0.5336  1.5715  1.3070
 2022SOL    HW210523   0.450   8.218   0.753 -0.8258  2.8552 -1.9457
 2023SOL     OW10524   0.112   5.991   7.475 -0.4876 -0.5026 -0.1371
 2023SOL    HW110525   0.119   5.928   7.403  2.0709 -0.0444 -0.3648
 2023SOL    HW210526   0.125   6.076   7.434  0.6564 -0.2065  0.7797
 2024SOL     OW10527   2.344   7.210   5.226  0.2500  0.0141  0.1212
 2024SOL    HW110528   2.436   7.235   5.219  0.4599 -1.0255 -1.3427
 2024SOL    HW210529   2.341   7.121   5.190 -1.4963  0.4391 -0.8726
 2025SOL     OW10530   5.829   0.695   1.687 -0.2052  0.2673  0.4180
 2025SOL    HW110531   5.770   0.711   1.613 -0.7810  1.5405  1.1165
 2025SOL    HW210532   5.779   0.638   1.745 -0.5390  0.8824  0.7427
 2026SOL     OW10533   1.195   8.099   6.245 -0.0063  0.9043  0.7724
 2026SOL    HW110534   1.239   8.046   6.178 -1.5501  0.0115  0.4004
 2026SOL    HW210535   1.227   8.187   6.230 -2.0436  1.2473 -2.8497
 2027SOL     OW10536   8.930   0.806   0.473 -0.0083  0.9140 -0.1035
 2027SOL    HW110537   8.910   0.737   0.536  0.8285 -0.0595 -0.8886
 2027SOL    HW210538   8.848   0.820   0.426 -1.3539  3.2067  2.5740
 2028SOL     OW10539   1.708   1.636   4.438 -0.2149  0.3289 -0.4770
 2028SOL    HW110540   1.728   1.643   4.531  2.5460 -1.2766 -0.8604
 2028SOL    HW210541   1.697   1.727   4.409  1.2792  1.0063  0.9390
 2029SOL     OW10542   1.736   2.510   2.321 -0.2766 -0.2437 -0.9631
 2029SOL    HW110543   1.739   2.516   2.416 -0.2458  0.9262 -1.0257
 2029SOL    HW210544   1.793   2.436   2.299 -1.5436 -1.5579  0.0053
 2030SOL     OW10545   9.173   5.387   3.576 -0.2585  0.6789 -0.3527
 2030SOL    HW110546   9.201   5.423   3.492 -1.5360 -0.0965 -1.1390
 2030SOL    HW210547   9.216   5.301   3.582 -0.3266  0.6477 -0.2993
 2031SOL     OW10548   1.265   2.986  10.526 -0.2001 -0.4291  0.0282
 2031SOL    HW110549   1.221   3.057  10.573  1.6841  2.1548 -1.8323
 2031SOL    HW210550   1.348   2.974  10.573  0.7817  0.7309 -1.3316
 2032SOL     OW10551  10.574   0.717   0.856  0.2429  0.6027 -0.4128
 2032SOL    HW110552  10.667   0.725   0.874  0.1028 -0.7051  1.0776
 2032SOL    HW210553  10.535   0.798   0.888  0.4913 -0.1494  1.9256
 2033SOL     OW10554   5.598   3.121   3.777  0.2053  0.6799  0.5163
 2033SOL    HW110555   5.609   3.199   3.723 -1.3495  1.1584  0.8737
 2033SOL    HW210556   5.504   3.108   3.783  0.3841 -2.2297 -0.9746
 2034SOL     OW10557   1.174  10.908   5.062 -0.1141 -0.8558  0.3371
 2034SOL    HW110558   1.090  10.884   5.024 -0.4697 -0.1502  0.6529
 2034SOL    HW210559   1.166  11.002   5.080  0.1108 -1.1142  1.9751
 2035SOL     OW10560   5.992   2.058   5.949 -0.6666 -0.0318 -0.0469
 2035SOL    HW110561   5.977   2.080   5.857 -0.6616 -0.0262 -0.0464
 2035SOL    HW210562   6.075   2.011   5.949 -0.4756  0.3023  0.0026
 2036SOL     OW10563   0.555   5.512   2.348  0.0752  0.3770 -0.4778
 2036SOL    HW110564   0.590   5.437   2.397 -2.7885 -0.5015  0.4475
 2036SOL    HW210565   0.537   5.477   2.261 -0.2839  0.2796 -0.3652
 2037SOL     OW10566   2.810   2.712   3.364  0.5501  0.0403 -0.2697
 2037SOL    HW110567   2.814   2.616   3.359  0.0557 -0.0236  0.3849
 2037SOL    HW210568   2.858   2.742   3.288  1.7638 -0.7325  0.1614
 2038SOL     OW10569   6.149   8.929   5.439  0.4453  0.3121 -0.5402
 2038SOL    HW110570   6.089   8.995   5.474  1.3862  0.3836  1.0430
 2038SOL    HW210571   6.118   8.847   5.476  0.4846  0.1448 -0.8768
 2039SOL     OW10572   1.707  10.677   3.231 -0.4739 -0.6606 -0.6129
 2039SOL    HW110573   1.663  10.686   3.316  0.4906 -1.2088 -0.0324
 2039SOL    HW210574   1.701  10.584   3.210 -1.8662 -0.3239 -1.8088
 2040SOL     OW10575   4.096   9.212   9.448  0.6679  0.2267  0.2583
 2040SOL    HW110576   4.028   9.279   9.445 -2.0380 -2.3098 -2.1380
 2040SOL    HW210577   4.149   9.228   9.371 -0.5816 -0.7915 -0.8780
 2041SOL     OW10578   7.625   4.902  10.189 -0.2694 -0.1996  0.6479
 2041SOL    HW110579   7.643   4.907  10.095 -2.8804 -0.8833  0.0328
 2041SOL    HW210580   7.617   4.808  10.207  1.2480 -0.1345  1.8137
 2042SOL     OW10581   8.711   1.258   0.486 -0.2710 -0.4891 -0.1403
 2042SOL    HW110582   8.618   1.247   0.506 -0.1265 -0.5368  0.5354
 2042SOL    HW210583   8.744   1.315   0.556  0.0181  0.2864 -0.8905
 2043SOL     OW10584   9.044   3.689   1.389  0.5268  0.0716 -0.1187
 2043SOL    HW110585   8.993   3.705   1.468 -0.3446 -0.0060 -0.6507
 2043SOL    HW210586   9.036   3.594   1.375  1.0805  0.0091 -0.0382
 2044SOL     OW10587   8.679   7.226   1.519  0.2782 -0.4813 -0.0562
 2044SOL    HW110588   8.672   7.153   1.581 -0.0616 -0.4458 -0.0524
 2044SOL    HW210589   8.621   7.202   1.448 -0.0305 -0.0927  0.0634
 2045SOL     OW10590   6.905   5.434   6.943 -0.9213  0.0809  0.1876
 2045SOL    HW110591   6.993   5.397   6.942 -1.2657 -0.7568 -0.5245
 2045SOL    HW210592   6.888   5.454   7.035 -0.6249 -1.3222  0.5696
 2046SOL     OW10593   0.677   1.997   2.845 -0.0511 -0.3244 -0.5174
 2046SOL    HW110594   0.660   1.993   2.751  0.9907 -2.6040 -0.6975
 2046SOL    HW210595   0.633   1.920   2.880  0.6249 -0.2018  0.6487
 2047SOL     OW10596   9.256   4.125   3.686  0.0056  0.2494 -0.5230
 2047SOL    HW110597   9.274   4.062   3.756 -0.0355 -1.7699 -2.2385
 2047SOL    HW210598   9.319   4.196   3.701 -0.3417  0.1449  1.8143
 2048SOL     OW10599   4.776   2.800   4.807 -0.5780  0.0075  0.6097
 2048SOL    HW110600   4.700   2.742   4.803 -0.5369 -0.1308  1.6581
 2048SOL    HW210601   4.837   2.754   4.865  0.8953 -0.5644 -1.2905
 2049SOL     OW10602   1.148   7.110   3.296  0.4855  0.4097  0.0858
 2049SOL    HW110603   1.089   7.144   3.363 -0.7843 -0.6269 -0.4665
 2049SOL    HW210604   1.100   7.122   3.213  0.9688 -0.5909 -0.3519
 2050SOL     OW10605   3.526   8.835   6.456  0.4441  0.0746 -0.5125
 2050SOL    HW110606   3.531   8.930   6.458 -0.4876  0.1531 -1.2235
 2050SOL    HW210607   3.543   8.808   6.547 -1.6920  1.0828  0.2603
 2051SOL     OW10608   4.609   1.606   3.101  0.1554 -0.0230  0.3895
 2051SOL    HW110609   4.550   1.671   3.139  1.4799  2.3025 -1.2603
 2051SOL    HW210610   4.694   1.625   3.142  0.4257 -1.2513  0.4359
 2052SOL     OW10611   1.869   7.066   1.193  0.0932  0.0365 -0.3784
 2052SOL    HW110612   1.787   7.089   1.235  1.0406  0.4700  1.3518
 2052SOL    HW210613   1.901   6.990   1.242  0.1538 -0.9112 -1.8199
 2053SOL     OW10614   8.586  10.982   8.560 -0.3251  0.0170 -0.8038
 2053SOL    HW110615   8.525  11.052   8.582  1.0633  1.1381 -0.3213
 2053SOL    HW210616   8.613  10.946   8.645  0.9204  0.6821 -0.8842
 2054SOL     OW10617   6.612   7.848   4.537  0.4299  0.4230  0.4913
 2054SOL    HW110618   6.680   7.813   4.593  1.5392  2.0026  0.1886
 2054SOL    HW210619   6.653   7.920   4.490 -0.4043 -0.8420 -2.4546
 2055SOL     OW10620   6.590   0.805   0.512  0.1408 -0.1804 -0.6693
 2055SOL    HW110621   6.586   0.733   0.574  0.4058  0.2403 -0.1588
 2055SOL    HW210622   6.657   0.778   0.448  0.1183 -0.4584 -0.5746
 2056SOL     OW10623   4.839   6.202   1.899 -0.0449 -0.1805  0.1301
 2056SOL    HW110624   4.835   6.295   1.920  0.2704  0.1294 -1.1136
 2056SOL    HW210625   4.771   6.162   1.953 -0.1566  0.7664  0.6951
 2057SOL     OW10626   0.992   2.644   4.679  0.4618 -0.0823 -1.0398
 2057SOL    HW110627   1.062   2.701   4.711  1.7005 -1.3683 -1.3355
 2057SOL    HW210628   1.002   2.563   4.728 -0.2224 -0.6285 -1.7635
 2058SOL     OW10629   5.967   0.914   2.296 -0.4432 -0.3831 -0.3102
 2058SOL    HW110630   5.952   0.966   2.217 -0.5055 -1.2344 -0.8655
 2058SOL    HW210631   5.880   0.901   2.333 -0.3242  0.8153  0.4256
 2059SOL     OW10632   0.022   2.216   3.104  0.7838  0.9477 -0.1721
 2059SOL    HW110633  -0.031   2.167   3.167  0.6469  0.8131 -0.3905
 2059SOL    HW210634   0.109   2.218   3.143  0.8384  0.3627 -0.2450
 2060SOL     OW10635   2.679   7.607   1.238  0.2988 -0.0507  0.4108
 2060SOL    HW110636   2.673   7.512   1.225  0.4634 -0.1704  1.1528
 2060SOL    HW210637   2.687   7.618   1.333  1.3859  0.6481  0.2543
 2061SOL     OW10638   6.611   9.693   9.605 -0.1791 -0.2612  0.3075
 2061SOL    HW110639   6.550   9.623   9.629 -2.1863  0.8173 -1.3444
 2061SOL    HW210640   6.659   9.658   9.530  0.4296 -0.6779  0.8834
 2062SOL     OW10641   9.881   6.176   2.006 -0.2314  0.1574  0.0996
 2062SOL    HW110642   9.908   6.197   1.916  0.3449 -1.4892 -0.1441
 2062SOL    HW210643   9.907   6.252   2.057  0.9517  0.4340 -0.8589
 2063SOL     OW10644   9.478   1.969   0.535 -0.0645  0.2574  0.0483
 2063SOL    HW110645   9.535   2.037   0.572  2.4502 -1.6555  0.0018
 2063SOL    HW210646   9.458   2.000   0.447 -0.7438  1.8710  0.7283
 2064SOL     OW10647   5.699   7.580   4.727 -0.1518  0.3409 -0.6564
 2064SOL    HW110648   5.689   7.489   4.701 -1.1849 -0.2432  1.5579
 2064SOL    HW210649   5.785   7.583   4.769 -0.6458  0.0401  0.4208
 2065SOL     OW10650  10.900   0.333   0.265  0.1753  0.4711 -0.6971
 2065SOL    HW110651  10.948   0.261   0.224 -0.4285  0.0634 -0.6880
 2065SOL    HW210652  10.968   0.383   0.310  0.5303 -0.4016 -0.2368
 2066SOL     OW10653   9.629   6.938   8.544 -0.6977  0.0342 -0.2325
 2066SOL    HW110654   9.685   7.013   8.527  1.8885 -1.6870  0.0876
 2066SOL    HW210655   9.654   6.908   8.631 -2.4508 -0.5965  0.1133
 2067SOL     OW10656   7.282   9.947   2.958 -0.7760 -0.1039 -0.3244
 2067SOL    HW110657   7.214   9.986   2.903 -2.3490 -1.0817  0.8280
 2067SOL    HW210658   7.308   9.867   2.913 -1.7817 -0.7021  0.1281
 2068SOL     OW10659  10.402   9.492   8.104 -0.0359  0.0341  0.5241
 2068SOL    HW110660  10.478   9.495   8.161 -0.2096 -3.4500  1.1478
 2068SOL    HW210661  10.423   9.426   8.038 -1.2215  1.4597 -1.4259
 2069SOL     OW10662   0.272   9.912   0.615 -0.7774 -0.1778  0.1118
 2069SOL    HW110663   0.330   9.840   0.592 -0.8464 -0.1456 -0.1732
 2069SOL    HW210664   0.200   9.906   0.551  0.1946  1.3291 -1.2053
 2070SOL     OW10665   6.852   9.402   7.182 -0.1165 -0.1978  0.0904
 2070SOL    HW110666   6.945   9.419   7.169  0.4975 -0.9446  2.9806
 2070SOL    HW210667   6.836   9.421   7.274 -2.3675 -2.0787  0.1750
 2071SOL     OW10668   1.676   0.864   8.997  0.0090  0.2209 -0.6471
 2071SOL    HW110669   1.628   0.794   8.953 -1.0599 -0.7217  1.7918
 2071SOL    HW210670   1.767   0.851   8.970 -0.3293 -1.4937 -1.0880
 2072SOL     OW10671   9.392   2.066   3.103 -0.0507  0.3900  0.2733
 2072SOL    HW110672   9.398   2.159   3.121 -2.0325  0.7278 -0.6106
 2072SOL    HW210673   9.337   2.031   3.172 -0.8564  0.2281 -0.4328
 2073SOL     OW10674   5.547   7.572   5.346  0.4012  0.0131 -0.0212
 2073SOL    HW110675   5.489   7.520   5.290  0.9505 -0.4891 -0.1343
 2073SOL    HW210676   5.632   7.569   5.302  0.2552  1.7392 -0.4828
 2074SOL     OW10677   1.785   3.606   4.781  0.2265  0.0001  0.1417
 2074SOL    HW110678   1.858   3.567   4.830  0.3290  0.3481  0.2712
 2074SOL    HW210679   1.782   3.556   4.699  1.2686  0.6325 -0.3020
 2075SOL     OW10680   9.659   9.279   7.646  0.1239 -0.0099 -0.3636
 2075SOL    HW110681   9.642   9.230   7.566 -0.5769  0.7649 -0.7017
 2075SOL    HW210682   9.573   9.308   7.676  0.1334 -1.7711  1.6729
 2076SOL     OW10683   7.666  10.313   8.515 -0.2038  0.1901  0.3906
 2076SOL    HW110684   7.738  10.368   8.545 -0.4909  0.0912  1.2878
 2076SOL    HW210685   7.708  10.245   8.461  0.4084 -0.0320  1.1390
 2077SOL     OW10686  10.371   3.434   6.505  0.2387  0.1590  0.1945
 2077SOL    HW110687  10.403   3.400   6.589  0.8519 -0.2968 -0.2141
 2077SOL    HW210688  10.412   3.520   6.497  1.0323 -0.2393 -0.1207
 2078SOL     OW10689   4.496   3.309   2.897  0.6290 -0.0990 -0.5336
 2078SOL    HW110690   4.457   3.395   2.886  2.8839  1.5906  2.8607
 2078SOL    HW210691   4.554   3.298   2.821  0.2360  1.3418 -1.0578
 2079SOL     OW10692   8.121   7.818   5.149 -0.0071 -0.1856 -0.7811
 2079SOL    HW110693   8.084   7.733   5.173 -1.5290  0.0732 -2.0328
 2079SOL    HW210694   8.149   7.807   5.058 -0.4386  0.7095 -1.0304
 2080SOL     OW10695   7.860   0.251   5.976 -0.9698 -0.3915  0.2021
 2080SOL    HW110696   7.783   0.297   6.008 -1.6220 -0.9140 -0.5761
 2080SOL    HW210697   7.832   0.213   5.893 -0.0623 -1.1122  0.2150
 2081SOL     OW10698   3.938   7.481   2.112 -0.0109  0.5530 -0.1056
 2081SOL    HW110699   3.862   7.519   2.156 -1.3564 -2.3481  0.3054
 2081SOL    HW210700   3.913   7.478   2.019 -0.5282 -0.6330  0.0642
 2082SOL     OW10701   7.774   6.143   3.327  0.2228  0.2305  0.4124
 2082SOL    HW110702   7.704   6.120   3.388 -0.2581  2.3244  0.7295
 2082SOL    HW210703   7.854   6.112   3.370 -0.3327 -0.5005  0.9448
 2083SOL     OW10704   9.284  10.801   0.442 -0.0192 -0.4436  0.0320
 2083SOL    HW110705   9.215  10.735   0.441  0.6128 -1.1381  0.8457
 2083SOL    HW210706   9.365  10.751   0.434  0.4136  0.3591 -0.9055
 2084SOL     OW10707   8.437   6.230   3.972  0.6553  0.0162 -0.1476
 2084SOL    HW110708   8.349   6.212   3.940 -0.4835  3.6611  0.4165
 2084SOL    HW210709   8.452   6.165   4.041 -1.5193 -0.7917 -0.3829
 2085SOL     OW10710  10.467   9.786   5.461  0.1336  0.3273 -0.0395
 2085SOL    HW110711  10.546   9.839   5.459  0.6841 -0.3810 -3.3557
 2085SOL    HW210712  10.490   9.707   5.410 -2.7916  0.3602 -1.6551
 2086SOL     OW10713   1.628   2.368   0.631  0.2100  0.2413  0.3056
 2086SOL    HW110714   1.680   2.361   0.710  1.4026  1.1857 -0.3721
 2086SOL    HW210715   1.582   2.451   0.639 -0.6243 -0.2316  0.5505
 2087SOL     OW10716   8.697   9.766   7.512  0.0340  0.0549 -0.2885
 2087SOL    HW110717   8.716   9.859   7.504 -2.3471  0.6789  0.3832
 2087SOL    HW210718   8.626   9.750   7.450 -1.6421 -0.5597  1.6466
 2088SOL     OW10719   9.740   8.052   2.442  0.2620 -0.0845 -0.3304
 2088SOL    HW110720   9.673   8.065   2.509  1.1481  1.3396  0.3012
 2088SOL    HW210721   9.748   7.956   2.436 -1.1922 -0.2783  0.1915
 2089SOL     OW10722   2.030   7.974   2.979 -0.0151 -0.4276  0.2766
 2089SOL    HW110723   1.943   7.951   3.013 -0.5051  1.4826  0.4201
 2089SOL    HW210724   2.067   7.891   2.951 -2.6650 -1.0967 -1.6256
 2090SOL     OW10725   0.876  10.322   2.931  0.5359 -0.2758 -0.2056
 2090SOL    HW110726   0.962  10.361   2.913 -0.2115  0.3491 -2.8690
 2090SOL    HW210727   0.833  10.318   2.846 -2.3751  0.0783  1.1224
 2091SOL     OW10728   2.689   6.579   9.277 -0.6434 -0.4338 -0.6785
 2091SOL    HW110729   2.731   6.583   9.191 -0.1690 -0.2029 -0.4432
 2091SOL    HW210730   2.761   6.593   9.339 -0.9325 -0.8729 -0.2325
 2092SOL     OW10731   5.272   3.150   7.449  0.2002 -0.5696  0.2336
 2092SOL    HW110732   5.219   3.088   7.399 -0.4961  0.7301 -0.6687
 2092SOL    HW210733   5.355   3.155   7.401  0.0886 -0.4624  0.0511
 2093SOL     OW10734   5.701   6.105   4.993  0.1038  0.2593 -0.3499
 2093SOL    HW110735   5.684   6.176   4.931 -0.4963 -0.8745 -1.5641
 2093SOL    HW210736   5.634   6.115   5.060  2.0379  2.7750  1.4138
 2094SOL     OW10737   6.977   6.269   5.473 -0.5038 -0.4888  0.0115
 2094SOL    HW110738   6.935   6.355   5.480  1.9600  0.7476  0.4060
 2094SOL    HW210739   6.954   6.225   5.555 -1.8910 -0.2949 -0.2431
 2095SOL     OW10740   7.811   9.514   0.993  0.3462  0.4720 -0.4891
 2095SOL    HW110741   7.800   9.583   0.928  2.0766 -0.0922 -1.4394
 2095SOL    HW210742   7.818   9.433   0.942 -0.7672 -0.3208  0.5568
 2096SOL     OW10743  10.480   9.466   4.426  0.0092  0.1373 -0.4621
 2096SOL    HW110744  10.531   9.503   4.498 -1.0391 -0.0193  0.3891
 2096SOL    HW210745  10.422   9.403   4.468 -0.5942  0.0154 -1.4551
 2097SOL     OW10746   6.886   6.542   7.550 -0.5160 -0.6211  0.0933
 2097SOL    HW110747   6.895   6.460   7.502 -1.5763 -0.3596 -0.5954
 2097SOL    HW210748   6.970   6.554   7.594 -0.9900 -3.1940  1.9922
 2098SOL     OW10749   8.940   5.658   0.922 -0.4613  0.6664  1.1068
 2098SOL    HW110750   9.019   5.680   0.972  0.5641 -0.7026  0.1630
 2098SOL    HW210751   8.889   5.603   0.982  0.9001 -1.2115  0.6251
 2099SOL     OW10752   4.663   8.629  10.175  0.1220  0.3768 -0.1029
 2099SOL    HW110753   4.755   8.605  10.183  0.4960  1.7209 -0.0621
 2099SOL    HW210754   4.617   8.546  10.167  1.2717 -0.3439  0.5170
 2100SOL     OW10755   3.172   7.175   9.689  0.2558  0.0185  0.4790
 2100SOL    HW110756   3.220   7.110   9.739 -1.1456 -3.4785 -2.2350
 2100SOL    HW210757   3.087   7.183   9.733 -0.3841 -1.8198 -0.3307
 2101SOL     OW10758  10.498   1.376   4.717 -0.0956 -0.2216 -0.0163
 2101SOL    HW110759  10.415   1.413   4.747  0.1075  0.2671 -0.0404
 2101SOL    HW210760  10.519   1.309   4.781 -0.9591 -0.9821 -0.5088
 2102SOL     OW10761   8.418   0.222   0.986  0.1737  0.0771  0.0631
 2102SOL    HW110762   8.341   0.258   1.030 -1.0678 -0.7074 -1.3858
 2102SOL    HW210763   8.434   0.282   0.913 -1.1236 -1.4959 -1.5967
 2103SOL     OW10764   4.714   4.303   0.738 -0.5156 -0.3250  0.2019
 2103SOL    HW110765   4.644   4.277   0.797 -0.5195  0.6769  0.6514
 2103SOL    HW210766   4.777   4.231   0.743 -0.3073 -0.0688  1.7636
 2104SOL     OW10767   5.781   7.473   5.279  0.7354  0.5216 -0.1492
 2104SOL    HW110768   5.792   7.392   5.229  0.0442  1.0273 -1.1625
 2104SOL    HW210769   5.835   7.461   5.357 -0.0891 -1.3126  0.1941
 2105SOL     OW10770   8.543   8.727   6.659  0.5432 -0.1389 -0.0187
 2105SOL    HW110771   8.536   8.707   6.565  2.0178 -0.5306 -0.0663
 2105SOL    HW210772   8.455   8.754   6.684  0.7397  3.1002 -2.2379
 2106SOL     OW10773   0.737  10.312   1.957 -0.2657 -0.2462  0.2900
 2106SOL    HW110774   0.754  10.343   2.045  0.1641 -0.3411  0.2425
 2106SOL    HW210775   0.754  10.388   1.900 -0.0441 -0.3277  0.2463
 2107SOL     OW10776   6.397   5.775   6.623  0.2034 -0.1703 -0.2392
 2107SOL    HW110777   6.382   5.867   6.646  2.0023 -0.2739  1.6337
 2107SOL    HW210778   6.455   5.779   6.546 -0.7055  0.2179 -0.9255
 2108SOL     OW10779   3.936   1.252  10.528 -0.1534  0.0680 -0.0441
 2108SOL    HW110780   3.905   1.340  10.506 -0.4501  0.1193  0.5738
 2108SOL    HW210781   3.954   1.255  10.622  0.0445 -0.4707 -0.0612
 2109SOL     OW10782   2.092   5.566   2.745 -0.2499  0.2834 -0.3746
 2109SOL    HW110783   2.083   5.472   2.763 -1.6839  0.3709 -0.5843
 2109SOL    HW210784   2.082   5.574   2.651 -1.2635  0.7650 -0.2345
 2110SOL     OW10785   0.831   1.524   9.195 -0.0405 -0.5819 -0.2254
 2110SOL    HW110786   0.756   1.576   9.166  0.5697 -0.3164 -1.3933
 2110SOL    HW210787   0.834   1.538   9.290 -0.9275  0.1167 -0.2828
 2111SOL     OW10788   8.305   7.274   3.924 -0.2544 -0.0271  0.7167
 2111SOL    HW110789   8.214   7.277   3.895 -0.2212  0.0511  0.6190
 2111SOL    HW210790   8.332   7.366   3.928  0.3653 -0.1062 -1.0016
 2112SOL     OW10791   2.546  10.166   2.281  0.1268 -0.5149  0.1918
 2112SOL    HW110792   2.552  10.205   2.368  0.2567 -2.1416  0.9683
 2112SOL    HW210793   2.542  10.240   2.221 -1.2068  0.6794  1.6529
 2113SOL     OW10794   8.237   4.289   6.345  0.5875 -0.0343  0.1387
 2113SOL    HW110795   8.332   4.292   6.359  0.6424 -0.3734 -0.1592
 2113SOL    HW210796   8.227   4.274   6.251  0.2318  1.5590 -0.1101
 2114SOL     OW10797   2.189  10.312   0.405 -0.2460 -0.3103 -0.5202
 2114SOL    HW110798   2.200  10.248   0.476 -0.1425 -0.9520 -1.1149
 2114SOL    HW210799   2.162  10.392   0.450 -2.7375 -1.3848  0.0383
 2115SOL     OW10800   4.980   2.388   7.290  0.0780  0.8903 -0.0148
 2115SOL    HW110801   4.964   2.326   7.362  0.2767 -0.2175 -0.8948
 2115SOL    HW210802   4.907   2.373   7.230  0.8560  0.5107 -0.8954
 2116SOL     OW10803  11.040   4.441   6.227 -0.2838 -0.1605 -0.1694
 2116SOL    HW110804  10.971   4.443   6.294  0.7934  1.1783  0.9400
 2116SOL    HW210805  11.122   4.444   6.276  0.5704 -0.5699 -1.5139
 2117SOL     OW10806   3.785   1.024   1.307  0.0037  0.5899 -0.3130
 2117SOL    HW110807   3.771   1.105   1.355  0.9879 -0.3079  1.5940
 2117SOL    HW210808   3.872   0.994   1.335 -1.2896 -2.3767  1.0120
 2118SOL     OW10809   6.082   5.283   5.783  0.3423  0.6802 -0.0086
 2118SOL    HW110810   6.165   5.302   5.739  1.0465 -0.2802  0.8433
 2118SOL    HW210811   6.052   5.201   5.744 -0.6395  1.4204 -0.8716
 2119SOL     OW10812   1.467   1.473   9.073  0.5678  0.1322  0.7029
 2119SOL    HW110813   1.484   1.516   8.989 -0.2915  1.7959  1.3320
 2119SOL    HW210814   1.552   1.439   9.100  1.0196  0.2985 -0.4377
 2120SOL     OW10815   6.778   8.792   1.780  0.0786 -0.4792 -0.3826
 2120SOL    HW110816   6.770   8.696   1.787  1.3417 -0.5936 -0.3108
 2120SOL    HW210817   6.855   8.806   1.725  1.8725  0.4546  2.1787
 2121SOL     OW10818   1.607  10.026   5.078  0.1843 -0.8432  0.1413
 2121SOL    HW110819   1.687   9.985   5.112  0.0606 -0.4904  0.8999
 2121SOL    HW210820   1.636  10.075   5.001  0.4845 -1.6433 -0.2609
 2122SOL     OW10821  10.232   8.393   6.021 -0.8937 -0.0450 -0.8150
 2122SOL    HW110822  10.214   8.383   6.114  1.3369 -0.2595 -0.3282
 2122SOL    HW210823  10.234   8.488   6.007  2.8715  0.2259  0.4137
 2123SOL     OW10824  10.445   1.299   3.770  0.2772  0.7373  0.5719
 2123SOL    HW110825  10.466   1.391   3.784 -2.1183  1.2770  1.1364
 2123SOL    HW210826  10.450   1.286   3.676  1.8908  1.0627  0.5861
 2124SOL     OW10827   0.219   9.841   9.935 -0.5157 -0.0907 -0.1438
 2124SOL    HW110828   0.131   9.846   9.898 -0.1891 -0.4073 -0.9702
 2124SOL    HW210829   0.262   9.921   9.906 -0.7353  0.4048  0.8360
 2125SOL     OW10830   5.026   2.910   3.392 -0.0026  0.9053 -0.4349
 2125SOL    HW110831   4.954   2.847   3.398  0.8915 -0.2267 -1.2322
 2125SOL    HW210832   5.069   2.889   3.309  1.5338  1.2338  0.2548
 2126SOL     OW10833   8.114   6.761   5.029  0.1410 -0.6194  0.3343
 2126SOL    HW110834   8.175   6.714   4.973  2.1207  1.1317  0.8730
 2126SOL    HW210835   8.166   6.833   5.066 -2.2001  0.8328  1.0384
 2127SOL     OW10836  10.003   1.864   4.460 -0.4105  0.7901  0.5746
 2127SOL    HW110837  10.000   1.832   4.550 -0.0815 -0.2552  0.2249
 2127SOL    HW210838   9.921   1.912   4.448  0.5334  2.9606  2.1552
 2128SOL     OW10839   0.083  10.452   0.151 -0.4549  0.2216 -0.0742
 2128SOL    HW110840   0.082  10.478   0.243 -0.1214  0.9970 -0.2842
 2128SOL    HW210841   0.172  10.471   0.122 -0.3408 -0.7062 -0.3702
 2129SOL     OW10842   8.295  11.055   0.192  0.3051  0.7558 -0.0072
 2129SOL    HW110843   8.290  11.028   0.283 -0.0435  1.1183  0.0813
 2129SOL    HW210844   8.204  11.056   0.162  0.4413  0.3100 -0.4581
 2130SOL     OW10845   5.046   5.848   7.564 -0.0565  0.1609  0.1012
 2130SOL    HW110846   4.996   5.880   7.639  0.1005 -0.6318  0.5531
 2130SOL    HW210847   5.064   5.757   7.584  0.6855  0.1567 -0.5400
 2131SOL     OW10848  10.032   3.661   1.300 -0.0937 -0.1324  0.0655
 2131SOL    HW110849  10.092   3.725   1.340 -1.2014  0.0181  1.5467
 2131SOL    HW210850  10.091   3.596   1.259  1.0542  0.9082 -0.0030
 2132SOL     OW10851   4.440   6.440   4.032 -0.0067 -0.2467  0.5105
 2132SOL    HW110852   4.429   6.504   4.103  2.3727  0.5829  0.2447
 2132SOL    HW210853   4.426   6.355   4.073 -0.9612  0.3296  1.4146
 2133SOL     OW10854   2.335   4.892   8.799 -0.2631 -0.4767  0.3979
 2133SOL    HW110855   2.268   4.850   8.745  0.0619 -1.1691  0.5185
 2133SOL    HW210856   2.334   4.984   8.772 -1.1456 -0.5121  0.2880
 2134SOL     OW10857   0.168   0.484   5.265  0.4179  0.4741 -0.8746
 2134SOL    HW110858   0.263   0.477   5.257  0.2931 -0.5734 -1.6977
 2134SOL    HW210859   0.135   0.450   5.182 -0.6880  0.5668 -0.4839
 2135SOL     OW10860   9.709  10.123   0.190  0.4092 -0.6217 -0.0055
 2135SOL    HW110861   9.625  10.165   0.172 -0.3004 -1.6428  0.8055
 2135SOL    HW210862   9.765  10.193   0.223 -0.4847 -0.1522  0.5405
 2136SOL     OW10863   1.659   6.222   6.927  0.4236 -0.1224 -0.1839
 2136SOL    HW110864   1.668   6.233   7.021  0.7928  0.5077 -0.2883
 2136SOL    HW210865   1.570   6.188   6.915 -0.1305  1.1115  0.2922
 2137SOL     OW10866   7.055   0.160   1.192  0.2828 -0.3393 -0.5781
 2137SOL    HW110867   6.977   0.106   1.178  0.1221 -0.6709  1.3087
 2137SOL    HW210868   7.089   0.130   1.276  0.8908  1.6977 -0.0586
 2138SOL     OW10869   9.811   6.477   5.552  0.2818  0.3609  0.3855
 2138SOL    HW110870   9.857   6.442   5.628  1.6487 -0.0519 -0.5861
 2138SOL    HW210871   9.759   6.404   5.519  1.8339 -0.3190 -0.6594
 2139SOL     OW10872   7.441   6.195   4.912 -0.5481 -0.3834 -0.1516
 2139SOL    HW110873   7.452   6.252   4.987 -1.0298 -0.9771  0.3820
 2139SOL    HW210874   7.367   6.232   4.864 -0.4324 -0.1788 -0.1733
 2140SOL     OW10875   7.824   2.612   0.513  0.1579 -0.2560 -0.4388
 2140SOL    HW110876   7.857   2.607   0.423 -0.7095 -2.0085 -0.7128
 2140SOL    HW210877   7.850   2.698   0.543  1.0541  0.1247 -2.1493
 2141SOL     OW10878  11.016   2.888   3.569  0.2449 -0.2606  0.1597
 2141SOL    HW110879  10.985   2.897   3.478 -2.1776 -0.3948  0.9077
 2141SOL    HW210880  11.058   2.802   3.571 -0.1958 -0.5146 -0.6935
 2142SOL     OW10881  10.614   8.844   9.673 -0.2924  0.3901 -0.1756
 2142SOL    HW110882  10.618   8.751   9.650  0.8324  0.7717 -1.6246
 2142SOL    HW210883  10.523   8.868   9.656 -0.9526 -0.6970  1.4414
 2143SOL     OW10884   4.872   9.028   0.521  0.8653 -0.3681  0.4665
 2143SOL    HW110885   4.816   9.074   0.458 -0.1320 -0.2167  1.4286
 2143SOL    HW210886   4.883   8.941   0.484 -0.1272 -0.4392  0.2977
 2144SOL     OW10887   2.489  10.425   6.798 -0.9000  0.3793 -0.0341
 2144SOL    HW110888   2.516  10.333   6.796 -0.9370  0.3003  1.8607
 2144SOL    HW210889   2.516  10.459   6.712 -0.0725 -1.1633 -0.4301
 2145SOL     OW10890   7.691   7.830   2.915 -0.2590  0.3692 -0.0796
 2145SOL    HW110891   7.610   7.847   2.866 -2.4083 -3.5074  1.6415
 2145SOL    HW210892   7.687   7.891   2.988 -0.8396  1.2032 -0.7735
 2146SOL     OW10893   1.813   4.641   6.756  0.0221 -0.1680  0.1605
 2146SOL    HW110894   1.753   4.593   6.699 -1.0200  0.0306  1.0688
 2146SOL    HW210895   1.900   4.608   6.731 -0.6264 -2.4140  0.6226
 2147SOL     OW10896   8.228   1.587   5.132 -0.3411  0.4327  0.0334
 2147SOL    HW110897   8.210   1.540   5.051 -1.9008 -0.2436  0.7152
 2147SOL    HW210898   8.309   1.634   5.116 -0.3315 -0.1235 -1.7188
 2148SOL     OW10899   8.404   6.461   8.606 -0.0053  0.5508  0.3757
 2148SOL    HW110900   8.432   6.431   8.693  1.9612  1.6883  0.2012
 2148SOL    HW210901   8.480   6.446   8.550  0.2955  3.6397 -0.1995
 2149SOL     OW10902   6.189   7.540   4.381  0.2938  0.0712 -0.7471
 2149SOL    HW110903   6.212   7.625   4.343 -1.9933  1.0626 -0.0965
 2149SOL    HW210904   6.105   7.518   4.340 -0.6493 -0.3870  1.3157
 2150SOL     OW10905   4.668   0.470   1.715  0.5528  0.2027  0.7409
 2150SOL    HW110906   4.755   0.440   1.690  0.1151 -0.4711 -0.0309
 2150SOL    HW210907   4.644   0.533   1.648  0.4991  0.4977  1.0329
 2151SOL     OW10908   3.069   0.122   2.364  0.3356 -0.1393  0.4224
 2151SOL    HW110909   3.056   0.195   2.303  0.8541  0.2352  0.7470
 2151SOL    HW210910   3.063   0.163   2.451  1.0532 -0.4113  0.6004
 2152SOL     OW10911   4.850   4.747   4.469 -0.6581  0.3118  0.7204
 2152SOL    HW110912   4.827   4.654   4.473 -0.4802  0.1930 -0.5361
 2152SOL    HW210913   4.938   4.748   4.431 -0.2528  0.9608  1.6359
 2153SOL     OW10914   0.330   4.716   7.378 -0.1541  0.0179 -0.1149
 2153SOL    HW110915   0.424   4.725   7.360 -0.0255  0.8621  0.9186
 2153SOL    HW210916   0.320   4.626   7.410  0.1638 -0.3256 -0.9365
 2154SOL     OW10917   3.658   9.288   9.033  0.2705  0.3306 -0.4428
 2154SOL    HW110918   3.642   9.382   9.027  0.0101  0.2418 -1.2776
 2154SOL    HW210919   3.641   9.255   8.945 -0.4724 -0.6237  0.0380
 2155SOL     OW10920   2.324   3.942   6.082  0.2952 -0.0384  0.4668
 2155SOL    HW110921   2.417   3.963   6.093  0.7845 -0.8872 -1.5623
 2155SOL    HW210922   2.319   3.900   5.996 -1.7144 -1.5978  1.2713
 2156SOL     OW10923   4.594   6.370  10.120 -0.3323  0.1145 -0.7298
 2156SOL    HW110924   4.627   6.334  10.038 -1.2414  1.8544 -1.9198
 2156SOL    HW210925   4.655   6.441  10.141  0.7756 -1.2591  0.9632
 2157SOL     OW10926   0.421   7.934   6.347 -0.3185 -0.2755 -0.3020
 2157SOL    HW110927   0.394   7.845   6.326  0.1266 -0.8212  1.3021
 2157SOL    HW210928   0.339   7.978   6.371 -0.2682 -0.9549  1.2209
 2158SOL     OW10929   1.477  10.255   1.804 -0.2682 -0.2905 -0.4854
 2158SOL    HW110930   1.393  10.299   1.791 -1.1934 -1.9401 -0.3694
 2158SOL    HW210931   1.536  10.325   1.832 -0.9915  1.3271 -2.7208
 2159SOL     OW10932  10.966   0.781   5.185  0.1361 -0.3540  0.4229
 2159SOL    HW110933  10.983   0.728   5.263  1.3365 -2.1292 -0.9825
 2159SOL    HW210934  11.037   0.759   5.125 -0.1900  1.7390 -0.8275
 2160SOL     OW10935   7.564   5.464   7.797  0.1701  0.1285 -0.2147
 2160SOL    HW110936   7.656   5.489   7.792  0.4105 -0.7628 -0.3497
 2160SOL    HW210937   7.532   5.510   7.875  0.3865  1.4732 -0.8865
 2161SOL     OW10938   2.238   5.241   4.058 -0.0184  0.1954 -0.5978
 2161SOL    HW110939   2.230   5.336   4.046 -0.1226  0.1447 -0.9553
 2161SOL    HW210940   2.148   5.209   4.057  0.0699 -0.0729 -1.9648
 2162SOL     OW10941   7.324   9.948   3.747 -0.0628  0.5418 -0.8216
 2162SOL    HW110942   7.276  10.031   3.752 -1.0087  0.0821 -1.7797
 2162SOL    HW210943   7.416   9.973   3.751 -0.3294  1.4264  1.4465
 2163SOL     OW10944   4.432   7.643   4.559 -0.4912  0.1727 -0.8807
 2163SOL    HW110945   4.499   7.698   4.519 -2.0467  1.8304 -1.3757
 2163SOL    HW210946   4.423   7.568   4.500  0.8577 -0.0383 -0.8317
 2164SOL     OW10947   0.078   1.127   8.369 -0.2058 -0.2856  0.7160
 2164SOL    HW110948   0.115   1.215   8.375  0.8541 -0.7048  0.4296
 2164SOL    HW210949   0.016   1.122   8.442 -0.5418  0.8172  0.5142
 2165SOL     OW10950   0.008   8.156   9.363 -0.0474 -0.6535  0.3897
 2165SOL    HW110951  -0.014   8.130   9.273  2.1950 -1.7595  0.0725
 2165SOL    HW210952  -0.059   8.116   9.417 -0.5625 -1.2920 -0.6827
 2166SOL     OW10953   0.406   8.681   6.822  0.1839 -0.8255  0.1449
 2166SOL    HW110954   0.452   8.680   6.738 -1.6633  0.1859 -0.9357
 2166SOL    HW210955   0.314   8.668   6.800 -0.4572  0.3222  1.9231
 2167SOL     OW10956   7.692   7.570   1.169 -0.3909 -0.2554  0.2364
 2167SOL    HW110957   7.627   7.592   1.236  0.0467  0.5350  0.4128
 2167SOL    HW210958   7.687   7.475   1.162  0.0254 -0.4443  1.8904
 2168SOL     OW10959   0.172   7.722   4.756  0.6510 -0.4581  0.4412
 2168SOL    HW110960   0.142   7.632   4.767 -1.9702  0.1604 -0.8587
 2168SOL    HW210961   0.234   7.717   4.683 -0.2593 -1.1010 -0.3222
 2169SOL     OW10962   1.187   1.377   9.633 -0.3395 -0.4556  0.5503
 2169SOL    HW110963   1.122   1.319   9.594 -0.9010 -0.4767  1.4832
 2169SOL    HW210964   1.189   1.352   9.726  0.1901  0.2947  0.7495
 2170SOL     OW10965   9.561  10.218   6.064  0.1111 -0.5793  0.6022
 2170SOL    HW110966   9.535  10.285   6.128 -0.2073 -1.2319  1.1835
 2170SOL    HW210967   9.512  10.240   5.985 -0.1931 -0.2737  0.8700
 2171SOL     OW10968   5.412  10.990   1.387 -0.2143  0.3655 -0.2432
 2171SOL    HW110969   5.326  10.965   1.422  0.2691 -0.0282  0.6875
 2171SOL    HW210970   5.473  10.927   1.424  0.4523  0.4595 -1.1345
 2172SOL     OW10971   0.609   7.723   9.163 -0.1626 -1.2111 -0.0967
 2172SOL    HW110972   0.514   7.734   9.161  0.1218  2.2500 -0.7469
 2172SOL    HW210973   0.640   7.771   9.086  2.2034 -0.8538  0.9860
 2173SOL     OW10974  10.446   6.386  10.291 -0.3651  0.0026 -0.3279
 2173SOL    HW110975  10.521   6.438  10.261  0.0086 -0.2417  0.1684
 2173SOL    HW210976  10.479   6.338  10.367 -1.2381  0.4780  0.3763
 2174SOL     OW10977   1.302   4.577   5.978 -0.0093 -0.1084 -0.1748
 2174SOL    HW110978   1.372   4.551   5.918 -1.1168 -1.2056 -1.0288
 2174SOL    HW210979   1.223   4.578   5.924 -1.1763 -1.8453  1.3793
 2175SOL     OW10980   9.249   5.727   4.930  0.1486  0.1709 -0.0581
 2175SOL    HW110981   9.273   5.647   4.883 -0.4116  0.5930 -1.1200
 2175SOL    HW210982   9.154   5.719   4.945  0.1339  0.5147  0.0502
 2176SOL     OW10983   3.621   8.378   0.113 -0.1837  0.0297  0.1468
 2176SOL    HW110984   3.549   8.440   0.128  0.0317 -0.1785  2.2832
 2176SOL    HW210985   3.582   8.292   0.126  0.4923 -0.0722  1.6762
 2177SOL     OW10986   8.932   8.372   4.061 -0.5325  0.1569  0.0006
 2177SOL    HW110987   8.851   8.329   4.088 -0.6721  0.0952 -0.4978
 2177SOL    HW210988   8.942   8.444   4.123 -0.7293 -0.1038  0.3413
 2178SOL     OW10989   9.574   0.635   3.020 -0.1438 -0.2862 -0.4305
 2178SOL    HW110990   9.658   0.625   3.065 -0.7764 -0.9023  0.6746
 2178SOL    HW210991   9.567   0.729   3.003  0.3228 -0.0924  0.3837
 2179SOL     OW10992   4.127   8.631   8.655 -0.5108  0.4886 -0.1998
 2179SOL    HW110993   4.173   8.632   8.740  0.3265  3.0177 -0.5838
 2179SOL    HW210994   4.189   8.591   8.595 -1.5458 -2.3774  0.5145
 2180SOL     OW10995  11.060   4.362   8.226 -0.0429  0.4971  0.4928
 2180SOL    HW110996  11.146   4.398   8.205 -0.8972  1.7597 -1.1160
 2180SOL    HW210997  11.013   4.363   8.143 -2.3161  1.8906  1.6946
 2181SOL     OW10998   4.087  11.060   1.462 -0.0016 -1.0720  0.1895
 2181SOL    HW110999   4.083  11.123   1.534 -0.3350 -1.5523  0.5934
 2181SOL    HW211000   4.101  11.115   1.384 -1.4803 -0.3582  0.3758
 2182SOL     OW11001   8.622   2.660  10.802  0.3967 -0.7632  0.2447
 2182SOL    HW111002   8.673   2.702  10.732 -1.9418  0.6207 -0.7504
 2182SOL    HW211003   8.567   2.596  10.757 -0.6119 -0.3702  0.8901
 2183SOL     OW11004   9.804   1.456  10.060  0.2267  0.3512  0.3094
 2183SOL    HW111005   9.784   1.487  10.148  0.0632  0.8667  0.0957
 2183SOL    HW211006   9.863   1.522  10.024 -0.8742  0.9346 -0.4912
 2184SOL     OW11007  10.844   9.765   2.101 -0.6765  0.2372 -0.2199
 2184SOL    HW111008  10.878   9.743   2.188 -0.1944  2.3059  0.1734
 2184SOL    HW211009  10.910   9.732   2.040  0.1033  0.7331  0.3386
 2185SOL     OW11010   9.473   1.260   7.937 -0.3991 -0.4190  0.0246
 2185SOL    HW111011   9.462   1.265   7.842  1.6450 -2.1306 -0.3790
 2185SOL    HW211012   9.567   1.243   7.949 -0.3354  1.1483  2.4418
 2186SOL     OW11013   2.586   4.170   4.961  0.0703  0.0087  0.1189
 2186SOL    HW111014   2.639   4.105   4.915 -0.6033 -0.0141 -0.6585
 2186SOL    HW211015   2.639   4.197   5.036  1.2144  0.0591 -0.6871
 2187SOL     OW11016   2.033   2.161   3.644 -0.4416  0.3438 -0.4147
 2187SOL    HW111017   2.042   2.223   3.571  1.3440  2.1753  1.2497
 2187SOL    HW211018   2.090   2.088   3.620 -0.1684  0.7519 -1.0279
 2188SOL     OW11019   5.788   9.791   1.197  0.0536  0.0598  0.1241
 2188SOL    HW111020   5.697   9.813   1.180 -1.0175 -3.4456  0.6273
 2188SOL    HW211021   5.825   9.777   1.110 -0.5949 -0.8778 -0.0141
 2189SOL     OW11022   6.902   7.537   4.953 -0.1698 -0.4995  0.4437
 2189SOL    HW111023   6.850   7.535   4.872  1.4510 -1.2933 -0.6243
 2189SOL    HW211024   6.879   7.455   4.998 -0.6832 -0.3032  0.5503
 2190SOL     OW11025   0.973   1.285   8.403 -0.4421 -0.2314 -0.8195
 2190SOL    HW111026   1.039   1.235   8.450 -1.3643 -0.5392  0.1814
 2190SOL    HW211027   0.949   1.355   8.463 -0.8912 -0.0131 -1.2480
 2191SOL     OW11028   5.981  10.797   2.301  0.0515  0.1338 -0.3681
 2191SOL    HW111029   6.076  10.803   2.308 -0.0131  0.6964  0.2046
 2191SOL    HW211030   5.965  10.722   2.244  0.7966 -1.3472  1.2817
 2192SOL     OW11031   7.274   5.968   9.510  0.2047 -0.0799 -0.0834
 2192SOL    HW111032   7.279   6.057   9.543 -1.6927  0.1298 -0.2452
 2192SOL    HW211033   7.180   5.953   9.495  0.5796 -1.7225 -1.0784
 2193SOL     OW11034   4.205   7.537   8.331 -0.7052 -0.0689  0.0726
 2193SOL    HW111035   4.171   7.616   8.288 -1.4267  0.1393  0.9716
 2193SOL    HW211036   4.137   7.515   8.396  0.9709  0.5235  2.1609
 2194SOL     OW11037   5.666   9.867   3.659  0.1110 -0.5870  0.1084
 2194SOL    HW111038   5.759   9.853   3.645 -0.1407 -1.8626 -0.4540
 2194SOL    HW211039   5.637   9.788   3.705 -1.1230 -1.3356 -1.8280
 2195SOL     OW11040  10.416   4.891   4.543  0.0489  0.1425  0.7089
 2195SOL    HW111041  10.486   4.935   4.495  0.2404  0.2364  1.0644
 2195SOL    HW211042  10.400   4.810   4.495 -1.5498  1.3898 -1.0099
 2196SOL     OW11043  10.562   2.917   6.605 -0.1625  0.0188 -0.3412
 2196SOL    HW111044  10.621   2.890   6.535 -1.4199 -1.0902 -1.0148
 2196SOL    HW211045  10.555   3.012   6.595  0.1752 -0.0463 -1.3326
 2197SOL     OW11046   0.645   7.577   4.667  0.3189 -0.0589 -0.6368
 2197SOL    HW111047   0.715   7.545   4.724  1.0685  1.2729 -0.7522
 2197SOL    HW211048   0.592   7.500   4.647  0.5440 -0.7224  1.1485
 2198SOL     OW11049   9.740   0.796   4.759 -0.3572 -0.7945 -0.0722
 2198SOL    HW111050   9.825   0.824   4.724  0.8067 -1.0969  2.2866
 2198SOL    HW211051   9.680   0.805   4.685  1.2368  1.6368 -1.2285
 2199SOL     OW11052   8.968   0.606  10.917  0.0937  0.1388 -0.3695
 2199SOL    HW111053   8.989   0.534  10.976  1.2380  0.9275  0.2206
 2199SOL    HW211054   8.984   0.685  10.969  0.8240  0.8530 -1.6198
 2200SOL     OW11055   8.623  10.538   4.154 -0.0982  0.0131 -0.1389
 2200SOL    HW111056   8.630  10.539   4.058  0.4434 -4.1540 -0.3264
 2200SOL    HW211057   8.530  10.524   4.171 -0.2691  1.2439  0.0064
 2201SOL     OW11058   7.237   4.024   2.056  0.0677  0.2740 -0.5352
 2201SOL    HW111059   7.278   3.938   2.066 -0.7566 -0.2077 -1.1710
 2201SOL    HW211060   7.147   4.011   2.088 -0.1597  0.8146 -0.9392
 2202SOL     OW11061   7.905   8.329   2.174  0.0972 -0.5529 -0.1352
 2202SOL    HW111062   7.810   8.335   2.166  0.0919 -0.8970 -0.3556
 2202SOL    HW211063   7.927   8.387   2.247 -0.3678 -1.0864  0.4374
 2203SOL     OW11064   3.616   4.614   5.194 -0.0255  0.2027 -0.9380
 2203SOL    HW111065   3.625   4.520   5.206  0.3154  0.0665 -2.0847
 2203SOL    HW211066   3.522   4.630   5.192 -0.0984  0.1239  0.8223
 2204SOL     OW11067   9.972   2.126   7.685  0.1096 -0.3076  0.6377
 2204SOL    HW111068   9.945   2.073   7.610 -1.2469  1.1126  0.0462
 2204SOL    HW211069  10.060   2.155   7.664  0.5810 -1.6871  0.6319
 2205SOL     OW11070   7.764   5.051   9.071 -0.3916  0.2310  0.6765
 2205SOL    HW111071   7.835   4.992   9.094 -0.6453  0.1724  1.3421
 2205SOL    HW211072   7.724   5.073   9.155 -0.6100  0.9521  0.3893
 2206SOL     OW11073   0.713   5.321   5.094  0.5316  0.3136  0.0362
 2206SOL    HW111074   0.722   5.281   5.181  0.4613 -0.2795 -0.2298
 2206SOL    HW211075   0.700   5.248   5.034  0.3439  0.7347 -0.4498
 2207SOL     OW11076   0.145   5.522   1.454  0.4402 -0.3289  0.2568
 2207SOL    HW111077   0.139   5.617   1.459  0.3961 -0.0418 -3.2765
 2207SOL    HW211078   0.238   5.505   1.436  0.0961 -0.7583 -1.2230
 2208SOL     OW11079  10.575   4.896   8.659 -0.3629 -0.1249 -0.3938
 2208SOL    HW111080  10.531   4.932   8.583 -1.7643 -1.8588 -0.4764
 2208SOL    HW211081  10.523   4.820   8.683  1.8527 -1.5157  0.3479
 2209SOL     OW11082   6.508   6.879  10.305  0.1114 -0.3256  0.3683
 2209SOL    HW111083   6.504   6.864  10.399 -2.2943 -2.6412  0.0310
 2209SOL    HW211084   6.560   6.807  10.271  1.1931  0.6444 -0.0899
 2210SOL     OW11085   5.978   5.712   7.248  0.1062 -0.2705 -0.2951
 2210SOL    HW111086   5.895   5.750   7.279  0.7050 -0.9900  2.5378
 2210SOL    HW211087   6.046   5.763   7.293  1.1005 -1.0813 -0.8429
 2211SOL     OW11088  10.007   0.920   4.902 -0.0993 -0.4187 -0.1240
 2211SOL    HW111089   9.921   0.921   4.944 -1.0343  1.1458 -1.9176
 2211SOL    HW211090  10.009   0.837   4.854  0.1738 -1.2966  1.3510
 2212SOL     OW11091   9.374   8.673   6.225  0.1209 -0.4980 -0.2000
 2212SOL    HW111092   9.288   8.678   6.268 -0.6000 -1.3095 -1.4724
 2212SOL    HW211093   9.354   8.686   6.132  1.3626 -0.8850 -0.5321
 2213SOL     OW11094   7.549   7.042  10.659 -0.0387 -0.4140  0.8579
 2213SOL    HW111095   7.588   7.089  10.733 -0.2951 -0.5314  1.0678
 2213SOL    HW211096   7.458   7.027  10.684 -0.3167  0.1632  0.2235
 2214SOL     OW11097   6.905   5.193  10.097 -0.2883  0.1046  0.1982
 2214SOL    HW111098   6.946   5.278  10.080  0.0722 -0.2721 -0.8875
 2214SOL    HW211099   6.884   5.195  10.191  0.5161  1.0372  0.3744
 2215SOL     OW11100   5.130   3.220  10.855  0.7135 -0.0452  0.1447
 2215SOL    HW111101   5.134   3.125  10.849  0.7540 -0.0827  0.6969
 2215SOL    HW211102   5.043   3.239  10.890  0.0642  0.2149 -1.5654
 2216SOL     OW11103   6.614   3.540   8.151 -0.0780 -0.3823  0.1797
 2216SOL    HW111104   6.545   3.536   8.084  0.2239 -1.4539 -0.0831
 2216SOL    HW211105   6.589   3.614   8.206 -0.4028  0.4483 -1.0365
 2217SOL     OW11106   4.169   1.441   2.334  0.7496  0.5413 -0.5202
 2217SOL    HW111107   4.240   1.504   2.343  1.5356  0.2841 -3.7081
 2217SOL    HW211108   4.213   1.357   2.316 -0.3454 -0.0882 -0.3746
 2218SOL     OW11109   0.506   0.656   3.711  0.0552 -0.3128 -0.2580
 2218SOL    HW111110   0.555   0.594   3.764 -0.2497 -0.5848 -0.2842
 2218SOL    HW211111   0.491   0.731   3.768  1.2576  0.1538 -0.5322
 2219SOL     OW11112   1.333   9.588  10.611 -0.2354  0.0871 -0.2047
 2219SOL    HW111113   1.301   9.524  10.548  1.5161 -2.0941  0.9668
 2219SOL    HW211114   1.378   9.653  10.558 -0.9022 -0.3627 -1.3593
 2220SOL     OW11115  10.766   1.020   2.328  0.5681 -0.3508 -0.1445
 2220SOL    HW111116  10.847   1.049   2.370 -0.4512  0.8906  1.0480
 2220SOL    HW211117  10.772   1.055   2.239  1.5827 -0.7724 -0.2578
 2221SOL     OW11118   9.900   6.298   8.684  0.0770 -0.0756 -0.3939
 2221SOL    HW111119   9.932   6.243   8.613  0.2239 -2.3793  1.3234
 2221SOL    HW211120   9.833   6.245   8.728 -1.5690  2.1231 -0.0617
 2222SOL     OW11121   3.791   2.291   9.985  0.2518  0.0013 -0.0494
 2222SOL    HW111122   3.776   2.269  10.077  1.4751 -0.1796  0.1112
 2222SOL    HW211123   3.703   2.286   9.945 -0.2840  0.0611  1.0899
 2223SOL     OW11124   1.350   9.053   5.294  0.5226  0.2534  0.2509
 2223SOL    HW111125   1.276   9.099   5.255 -1.4170  0.1000  3.3742
 2223SOL    HW211126   1.395   9.121   5.345  0.6706 -0.2809  0.8402
 2224SOL     OW11127   2.655   5.304   4.761  0.0980 -0.2651  0.0256
 2224SOL    HW111128   2.743   5.290   4.796 -0.2748  0.5355  1.3636
 2224SOL    HW211129   2.599   5.246   4.812 -0.3380  0.2369  0.1234
 2225SOL     OW11130  10.173   0.460   7.371  0.0882 -0.9231 -0.4440
 2225SOL    HW111131  10.149   0.368   7.369 -2.0934 -0.4112 -0.2154
 2225SOL    HW211132  10.162   0.486   7.463 -0.0799 -0.2696 -0.6398
 2226SOL     OW11133   5.782   1.537   9.268  0.2003  0.7257  0.3830
 2226SOL    HW111134   5.829   1.468   9.220  0.9456  1.1692  0.4512
 2226SOL    HW211135   5.712   1.491   9.314  0.6929  0.0079  0.4410
 2227SOL     OW11136   4.395   1.415  10.545 -0.5605 -0.0161 -0.7845
 2227SOL    HW111137   4.480   1.446  10.577 -0.7832  0.5333 -0.7178
 2227SOL    HW211138   4.386   1.455  10.459 -0.5904 -0.3783 -0.9549
 2228SOL     OW11139   5.170   8.457  10.219  0.8389 -0.2710  0.1568
 2228SOL    HW111140   5.238   8.445  10.285  0.4464 -0.9341  0.4474
 2228SOL    HW211141   5.206   8.523  10.159  2.9423 -2.5422 -1.2685
 2229SOL     OW11142   9.801   5.196  10.922  0.1679  0.3053  0.1492
 2229SOL    HW111143   9.896   5.188  10.936  0.1097 -2.2129 -0.4019
 2229SOL    HW211144   9.763   5.180  11.009  0.2111 -0.0709  0.0987
 2230SOL     OW11145  10.595   4.540  10.816 -0.0671 -0.0149  0.7071
 2230SOL    HW111146  10.641   4.553  10.733  0.5660 -2.3491  0.6275
 2230SOL    HW211147  10.544   4.620  10.828 -0.7490  0.1110 -2.3021
 2231SOL     OW11148   8.661   1.177   8.963  0.3847 -0.0991  0.3146
 2231SOL    HW111149   8.688   1.220   9.044  0.7195  1.9447 -0.8311
 2231SOL    HW211150   8.738   1.127   8.936  1.5932  2.1624 -0.6208
 2232SOL     OW11151   2.253   1.562   6.863  0.1120  0.0435  0.3998
 2232SOL    HW111152   2.200   1.492   6.901  0.3303 -0.0621  0.5151
 2232SOL    HW211153   2.340   1.550   6.902  0.2948  0.0399 -0.0021
 2233SOL     OW11154   3.680   4.765   2.690  0.4636 -0.0398  0.4854
 2233SOL    HW111155   3.652   4.798   2.775 -0.8546  1.1925 -0.3801
 2233SOL    HW211156   3.750   4.824   2.662  0.3825  0.0085  0.3837
 2234SOL     OW11157   1.711   2.709   1.139 -0.4379 -0.0197 -0.4202
 2234SOL    HW111158   1.651   2.721   1.066 -1.8938  0.3529  0.7875
 2234SOL    HW211159   1.656   2.713   1.217  1.4580  4.2310  1.0688
 2235SOL     OW11160   5.396   9.094   1.839  0.1721 -0.3404 -0.0250
 2235SOL    HW111161   5.356   9.007   1.833 -0.9024 -0.0204  1.7939
 2235SOL    HW211162   5.474   9.080   1.892 -0.8843  0.0413  1.6818
 2236SOL     OW11163   2.369   0.335   5.679  0.1975 -0.0882  0.3940
 2236SOL    HW111164   2.341   0.349   5.769  0.6736 -0.6480  0.6374
 2236SOL    HW211165   2.465   0.335   5.683  0.2359  0.9470 -0.2841
 2237SOL     OW11166   3.749   9.073   3.482  0.6886 -0.1944 -0.4918
 2237SOL    HW111167   3.827   9.018   3.487 -0.5088 -1.8981  1.5386
 2237SOL    HW211168   3.768   9.146   3.541  0.3089 -1.3450  1.1455
 2238SOL     OW11169   5.779   3.031   3.447 -0.0197  0.3972 -0.0697
 2238SOL    HW111170   5.749   3.095   3.383 -1.4642 -0.6264 -0.4646
 2238SOL    HW211171   5.837   3.080   3.505 -1.1924  2.0937 -0.2673
 2239SOL     OW11172   1.645   4.270   5.500  0.4164  0.0627 -0.5461
 2239SOL    HW111173   1.641   4.315   5.416  0.7987  0.8384 -0.1561
 2239SOL    HW211174   1.663   4.179   5.478  1.2899  0.4006 -1.2607
 2240SOL     OW11175   2.122   4.638  10.458  0.2075 -0.0699  0.1379
 2240SOL    HW111176   2.173   4.558  10.469  1.6076  0.8550  0.6283
 2240SOL    HW211177   2.185   4.702  10.425 -1.2775  0.3910 -2.0492
 2241SOL     OW11178   7.586   3.999   2.020  0.2935  0.5557  0.0219
 2241SOL    HW111179   7.541   3.931   2.070  0.2643 -0.2207 -1.0143
 2241SOL    HW211180   7.669   4.011   2.065 -0.8267  1.8876  1.8624
 2242SOL     OW11181   5.042   0.923   2.551 -0.2569 -0.5362 -0.0638
 2242SOL    HW111182   4.953   0.905   2.521 -0.4101 -0.2074  0.1982
 2242SOL    HW211183   5.036   0.923   2.647 -0.1948  0.5762 -0.0479
 2243SOL     OW11184   7.478   3.419   1.762  0.0274  0.1914  0.0271
 2243SOL    HW111185   7.428   3.411   1.844  2.3416  0.7150  1.6079
 2243SOL    HW211186   7.419   3.463   1.702 -2.4401 -1.8820  0.7580
 2244SOL     OW11187   2.273   1.957   0.009 -0.4854  0.6079  0.0375
 2244SOL    HW111188   2.304   1.867   0.002 -2.0107  0.0194  0.4237
 2244SOL    HW211189   2.327   2.006  -0.053 -1.7538 -1.1610 -2.6791
 2245SOL     OW11190   8.314   8.866   1.397 -0.2504 -0.8467  0.0815
 2245SOL    HW111191   8.394   8.879   1.448 -0.8979 -0.0097  0.9279
 2245SOL    HW211192   8.254   8.823   1.458 -0.1038 -2.4907 -0.8883
 2246SOL     OW11193   2.685   1.195   4.207 -0.0633  0.1419  0.1253
 2246SOL    HW111194   2.620   1.126   4.190 -0.3787  0.8125 -1.4924
 2246SOL    HW211195   2.666   1.263   4.143  2.1849  0.4013 -0.3359
 2247SOL     OW11196  10.481   0.580   5.192 -0.2135  0.5961 -0.3956
 2247SOL    HW111197  10.532   0.661   5.193  1.2352 -0.2748  0.5745
 2247SOL    HW211198  10.522   0.524   5.258 -0.5662 -1.2893 -1.6627
 2248SOL     OW11199  10.532   1.546   9.487 -0.5589 -0.4050  0.1784
 2248SOL    HW111200  10.586   1.490   9.542 -0.6119  1.9137  2.8065
 2248SOL    HW211201  10.595   1.598   9.437 -0.3582  0.4060  1.2366
 2249SOL     OW11202   5.034  11.035   6.847 -0.1108  0.2927 -0.4081
 2249SOL    HW111203   5.097  11.099   6.880 -1.7928  1.5669  0.4931
 2249SOL    HW211204   5.017  11.063   6.757 -0.8960  1.2008  0.0063
 2250SOL     OW11205   9.278   9.301   1.861 -0.1619 -0.2704 -0.5514
 2250SOL    HW111206   9.321   9.220   1.835 -1.0386 -0.8922 -0.1230
 2250SOL    HW211207   9.194   9.299   1.815  0.6165  1.4023 -2.1780
 2251SOL     OW11208   2.095   3.346  10.416 -0.2688  0.1185  0.1418
 2251SOL    HW111209   2.115   3.395  10.337  3.2209  0.2312  0.9098
 2251SOL    HW211210   2.079   3.413  10.483 -0.2228  0.1100  0.1618
 2252SOL     OW11211   3.803   5.842   8.563  0.3888  0.0497 -0.1453
 2252SOL    HW111212   3.884   5.790   8.561  0.9909  0.8691  1.3502
 2252SOL    HW211213   3.795   5.870   8.654 -1.0845  0.7798 -0.4758
 2253SOL     OW11214   8.965   8.773   3.637 -0.1213 -0.2579  0.0989
 2253SOL    HW111215   8.973   8.858   3.594 -1.9643 -0.4943 -0.7876
 2253SOL    HW211216   9.038   8.722   3.603 -0.8916 -0.0758 -1.9506
 2254SOL     OW11217   2.541   3.673   4.928  0.6401 -0.2184  0.2423
 2254SOL    HW111218   2.603   3.745   4.942  1.3061 -1.0030  1.5307
 2254SOL    HW211219   2.483   3.677   5.005  0.8535 -1.2261  0.4603
 2255SOL     OW11220   9.988   9.372   9.109  0.0998  0.5854 -0.4727
 2255SOL    HW111221   9.931   9.415   9.173 -1.6521 -1.1632 -0.7622
 2255SOL    HW211222  10.030   9.444   9.062 -1.8595  1.9857 -0.2200
 2256SOL     OW11223   0.547   6.871   9.447  0.5463  0.0438 -0.0193
 2256SOL    HW111224   0.625   6.855   9.501  1.3173 -0.8475 -1.3193
 2256SOL    HW211225   0.581   6.913   9.368 -0.5785  1.4947  0.2194
 2257SOL     OW11226   2.118   1.561   9.837 -0.9768  0.1109 -0.1795
 2257SOL    HW111227   2.171   1.572   9.758 -0.9092 -1.0935 -0.3272
 2257SOL    HW211228   2.042   1.511   9.808 -2.9124  2.8828 -0.2295
 2258SOL     OW11229   0.927   2.139   8.758 -0.2804 -0.1522 -0.0914
 2258SOL    HW111230   0.859   2.130   8.691 -0.7628 -0.0315  0.3747
 2258SOL    HW211231   0.945   2.233   8.761  0.7852 -0.3044 -1.0620
 2259SOL     OW11232   9.811  10.744   3.448  0.9753 -0.0109  0.1609
 2259SOL    HW111233   9.823  10.766   3.356  0.8310  1.5518  0.4868
 2259SOL    HW211234   9.744  10.676   3.448  0.1309  0.7742 -0.8502
 2260SOL     OW11235   2.012   2.041   9.868 -0.4546  0.0921 -0.3580
 2260SOL    HW111236   1.955   2.002   9.935 -0.0609  1.3832  0.7776
 2260SOL    HW211237   2.027   1.971   9.805 -1.0618 -1.0853  0.7675
 2261SOL     OW11238   6.420   4.836   6.236  0.2828 -0.0352 -0.2415
 2261SOL    HW111239   6.499   4.841   6.289  1.2576 -2.3267 -1.3517
 2261SOL    HW211240   6.428   4.908   6.173 -0.0282  1.5922  1.4729
 2262SOL     OW11241   1.810   7.254  10.911 -0.2481 -0.1097 -0.2243
 2262SOL    HW111242   1.739   7.198  10.944 -1.1854  1.1412 -0.0201
 2262SOL    HW211243   1.890   7.215  10.946 -0.8191 -1.5919 -0.5008
 2263SOL     OW11244   5.279   2.024   3.974 -0.6697 -0.2849  0.8212
 2263SOL    HW111245   5.228   1.971   4.035 -0.4625  2.1943  3.3215
 2263SOL    HW211246   5.215   2.062   3.915 -0.9785 -1.9601  0.0180
 2264SOL     OW11247   0.925   4.682   7.849  0.5507 -0.4380  0.4455
 2264SOL    HW111248   0.872   4.615   7.804  0.8883 -0.8514  0.6549
 2264SOL    HW211249   0.875   4.763   7.838  1.0448 -0.3419 -1.4164
 2265SOL     OW11250   3.981  10.203   4.510  0.3436  0.3180  0.3871
 2265SOL    HW111251   3.900  10.155   4.489 -0.0269  1.6604 -1.5745
 2265SOL    HW211252   4.020  10.154   4.581 -0.2116 -2.6867 -1.2085
 2266SOL     OW11253   8.685   9.385   0.146  0.3356  0.1370 -0.1359
 2266SOL    HW111254   8.635   9.325   0.201  0.0963 -0.4635 -0.9788
 2266SOL    HW211255   8.655   9.366   0.057  1.0986  0.7006 -0.5267
 2267SOL     OW11256  10.115   2.711   8.603  0.1562 -0.7647 -0.9715
 2267SOL    HW111257  10.174   2.764   8.549 -1.7820  2.0738 -0.5160
 2267SOL    HW211258  10.157   2.708   8.689  1.0074 -1.3027 -1.3959
 2268SOL     OW11259   0.226   3.054   3.900  0.0805  0.0163 -0.1647
 2268SOL    HW111260   0.205   3.020   3.987 -1.4256  2.1296  0.3525
 2268SOL    HW211261   0.293   2.994   3.867  1.3371 -0.3521  2.7818
 2269SOL     OW11262  10.332   3.238   9.429 -0.0340  0.5263  0.1096
 2269SOL    HW111263  10.329   3.178   9.355 -1.3929  0.1915  0.4179
 2269SOL    HW211264  10.241   3.266   9.442  0.2289  0.8700  1.4176
 2270SOL     OW11265   5.033   1.495   4.204  0.0433 -0.2010 -0.6964
 2270SOL    HW111266   5.075   1.556   4.264 -1.1461  0.4578 -0.4939
 2270SOL    HW211267   5.005   1.422   4.258 -0.5337  0.1354 -0.5296
 2271SOL     OW11268  10.290   0.673   0.233  0.8358  0.2517 -0.1675
 2271SOL    HW111269  10.246   0.589   0.248  0.8429  0.2744 -0.0111
 2271SOL    HW211270  10.259   0.729   0.304 -1.1187  1.1737 -1.6626
 2272SOL     OW11271   1.890   2.870   7.800 -0.5090  0.2338 -0.5123
 2272SOL    HW111272   1.854   2.805   7.740 -0.9356  0.9932 -1.0952
 2272SOL    HW211273   1.914   2.944   7.745  2.1790 -0.2912 -0.1819
 2273SOL     OW11274   1.049   9.864   5.715  0.4101  0.8246  0.4139
 2273SOL    HW111275   1.104   9.790   5.690  0.5736  1.2382 -0.4978
 2273SOL    HW211276   0.972   9.824   5.757  0.1699  0.0957 -0.6876
 2274SOL     OW11277   1.228   5.674   9.891  0.0678 -0.4941  0.3111
 2274SOL    HW111278   1.294   5.722   9.840  1.2659 -0.6854  1.6157
 2274SOL    HW211279   1.197   5.737   9.956  0.0368 -0.8293  0.6272
 2275SOL     OW11280   6.226   8.738  10.078  0.2073  0.2185 -0.4966
 2275SOL    HW111281   6.156   8.687  10.118 -0.6692  1.7557 -0.0091
 2275SOL    HW211282   6.231   8.705   9.988 -1.0694  0.0045 -0.5088
 2276SOL     OW11283   7.533   0.206   1.388 -0.2317 -0.1807  0.1490
 2276SOL    HW111284   7.531   0.124   1.338  0.9958  0.5551 -1.1963
 2276SOL    HW211285   7.539   0.274   1.321 -1.4874  1.0391  1.2348
 2277SOL     OW11286   2.555   4.908  10.102 -0.3708 -0.3362 -0.0434
 2277SOL    HW111287   2.623   4.889  10.166  0.7749 -1.0256 -1.4108
 2277SOL    HW211288   2.589   4.982  10.051  0.0576 -1.5602 -1.6379
 2278SOL     OW11289   9.174   4.372   9.855  0.3314 -0.3193 -0.0528
 2278SOL    HW111290   9.163   4.351   9.947  0.0753 -0.9813 -0.2270
 2278SOL    HW211291   9.219   4.296   9.818  0.0267 -0.2571 -0.5617
 2279SOL     OW11292   7.168   9.567   1.113  0.1602 -0.0702 -0.0412
 2279SOL    HW111293   7.154   9.614   1.032  1.2224  1.3432  0.5604
 2279SOL    HW211294   7.142   9.628   1.182  1.2399 -0.4608  0.7468
 2280SOL     OW11295   8.158   8.950   0.871  0.5346  0.1297 -0.3600
 2280SOL    HW111296   8.172   8.950   0.966  1.0496 -0.0081 -0.4327
 2280SOL    HW211297   8.234   8.905   0.835  0.8762  1.1004 -0.9106
 2281SOL     OW11298   5.004   8.980   3.239  0.2280  0.4331  0.1712
 2281SOL    HW111299   5.049   8.989   3.155  0.9504  0.7921  0.5968
 2281SOL    HW211300   5.074   8.969   3.303 -0.2809  1.1442  0.8600
 2282SOL     OW11301   3.064   5.158   8.403  0.0731  0.3098 -0.1803
 2282SOL    HW111302   3.014   5.239   8.404  0.5242  0.6855  3.3131
 2282SOL    HW211303   3.155   5.185   8.419  0.2074 -0.8463  1.1991
 2283SOL     OW11304   3.389  10.726   2.544 -0.1589 -0.3252 -0.5116
 2283SOL    HW111305   3.344  10.659   2.596  0.3850 -0.4848 -0.2424
 2283SOL    HW211306   3.425  10.786   2.609 -0.8219  0.3517 -0.7577
 2284SOL     OW11307  10.578   5.333   2.459  0.2777 -0.6371 -0.1327
 2284SOL    HW111308  10.622   5.389   2.396  0.1821  0.7716  0.9919
 2284SOL    HW211309  10.485   5.344   2.441  0.2792 -2.4214 -1.5128
 2285SOL     OW11310   4.317  10.585   2.086 -0.6009  0.1169 -0.4687
 2285SOL    HW111311   4.301  10.619   1.998 -0.4896 -1.8850 -1.3139
 2285SOL    HW211312   4.270  10.501   2.088  0.6533 -0.5982  0.8418
 2286SOL     OW11313   2.011   4.526   6.155  0.9470  0.2480 -0.2584
 2286SOL    HW111314   2.007   4.540   6.060 -0.9176 -2.4127 -0.7020
 2286SOL    HW211315   2.051   4.439   6.164 -0.6794 -0.3950  1.2374
 2287SOL     OW11316   9.603  10.872   6.343  0.0919 -0.0515  0.0760
 2287SOL    HW111317   9.528  10.855   6.286 -0.0254 -1.3383  0.5764
 2287SOL    HW211318   9.664  10.923   6.289 -1.3604  1.5482 -0.1622
 2288SOL     OW11319   7.291   2.660   0.057 -0.4970  0.5159  0.1074
 2288SOL    HW111320   7.294   2.565   0.056  0.0652  0.5321 -0.3835
 2288SOL    HW211321   7.197   2.681   0.051 -0.5677 -0.0009 -0.7179
 2289SOL     OW11322   3.143   4.681   0.262 -0.5880 -0.3973  0.4494
 2289SOL    HW111323   3.123   4.663   0.170 -1.5022  1.5311  0.2308
 2289SOL    HW211324   3.212   4.748   0.259  0.1152 -1.0673  1.1933
 2290SOL     OW11325   7.064   6.789   8.698 -0.2895  0.2102  0.2151
 2290SOL    HW111326   7.001   6.815   8.765  0.3553  0.1537  0.8513
 2290SOL    HW211327   7.010   6.755   8.626 -1.0545  1.3877  0.2003
 2291SOL     OW11328   8.983   7.393  10.615 -0.0562  0.2659 -0.0583
 2291SOL    HW111329   8.986   7.464  10.551  0.4543 -1.8167 -2.5201
 2291SOL    HW211330   9.003   7.314  10.564 -0.8761 -1.7077  2.4581
 2292SOL     OW11331   6.461   0.743   2.487  0.4487  0.9464  0.9213
 2292SOL    HW111332   6.464   0.832   2.452  1.4273  0.3487 -0.5820
 2292SOL    HW211333   6.553   0.721   2.505  0.1568  0.4642  1.9094
 2293SOL     OW11334  10.818  10.090   3.972  0.1716  0.1678  0.5102
 2293SOL    HW111335  10.802   9.997   3.988 -2.1876  0.6728  1.4195
 2293SOL    HW211336  10.740  10.121   3.927  1.5095  1.4608 -1.0521
 2294SOL     OW11337   1.634  10.764   3.640 -0.5566  0.4566 -0.2036
 2294SOL    HW111338   1.638  10.677   3.600  1.1903  0.3463  0.1208
 2294SOL    HW211339   1.721  10.776   3.679 -1.9315  0.8013  3.0762
 2295SOL     OW11340   6.723   5.429   6.618  0.3514  0.2863  0.6278
 2295SOL    HW111341   6.751   5.337   6.620  1.2399  0.4874 -1.0905
 2295SOL    HW211342   6.633   5.426   6.588  1.5667  0.1036 -3.5564
 2296SOL     OW11343   7.167   8.140   5.244 -0.2051 -0.7780  0.2120
 2296SOL    HW111344   7.163   8.071   5.177 -0.5390 -1.7737  1.2144
 2296SOL    HW211345   7.227   8.105   5.309 -0.4941 -0.1785  0.8038
 2297SOL     OW11346   7.939   4.015   7.260 -0.3085  0.2713  0.3909
 2297SOL    HW111347   7.999   4.017   7.334 -3.1930 -0.7499  2.9805
 2297SOL    HW211348   7.941   3.924   7.230 -0.9335  0.0813  0.8895
 2298SOL     OW11349   4.165   3.225  10.536 -0.0946 -0.0921 -0.3113
 2298SOL    HW111350   4.100   3.180  10.482  1.4971 -1.0244 -1.5410
 2298SOL    HW211351   4.238   3.241  10.476 -0.3110  3.6927  0.1817
 2299SOL     OW11352  10.060   2.823   4.480  0.5575  0.4114  0.0028
 2299SOL    HW111353  10.066   2.727   4.480  0.9635  0.4326 -0.2271
 2299SOL    HW211354   9.981   2.842   4.430  1.1991  0.2253 -1.1193
 2300SOL     OW11355   3.515   6.328   4.446  0.5747  0.7360 -0.2027
 2300SOL    HW111356   3.511   6.396   4.379 -0.8861 -0.0040 -0.9102
 2300SOL    HW211357   3.525   6.246   4.397 -0.0121  0.2207  0.5145
 2301SOL     OW11358   9.026   2.771   8.575 -0.3515 -0.1341 -0.2968
 2301SOL    HW111359   8.975   2.731   8.505  0.9412 -1.2240 -0.6629
 2301SOL    HW211360   9.047   2.698   8.633 -0.0272  0.4756  0.3687
 2302SOL     OW11361   4.314   9.149   2.648 -0.3594  0.3502 -0.6505
 2302SOL    HW111362   4.391   9.167   2.703  0.1406 -0.4272 -1.0721
 2302SOL    HW211363   4.241   9.147   2.710  0.2673 -1.0636  0.1182
 2303SOL     OW11364   8.053   7.702   1.016  0.1204  0.4346 -0.0923
 2303SOL    HW111365   8.123   7.727   0.955  0.1045  0.4091 -0.1208
 2303SOL    HW211366   8.098   7.685   1.099  0.5560 -2.4844 -0.8175
 2304SOL     OW11367   0.331  10.605   3.116  0.2721 -0.4684 -0.0717
 2304SOL    HW111368   0.334  10.677   3.053 -3.5376  1.6752  1.7945
 2304SOL    HW211369   0.392  10.632   3.185  0.1619  0.1273 -0.1984
 2305SOL     OW11370   7.173   4.448   3.342 -0.5367 -0.1846  0.2883
 2305SOL    HW111371   7.195   4.405   3.425  0.6299 -1.5173 -0.6569
 2305SOL    HW211372   7.199   4.539   3.355  2.4461 -0.9636  0.4534
 2306SOL     OW11373   6.468   3.105   6.121 -0.0222 -0.2375 -0.0445
 2306SOL    HW111374   6.375   3.123   6.107  0.1406  0.9762  0.2905
 2306SOL    HW211375   6.513   3.157   6.054  0.4911  1.0876  1.2509
 2307SOL     OW11376   6.682   5.684   7.771 -0.2472  0.2524  0.6195
 2307SOL    HW111377   6.666   5.671   7.678 -0.5044 -0.5679  0.7649
 2307SOL    HW211378   6.772   5.654   7.784 -0.9308 -1.8558  1.0052
 2308SOL     OW11379   8.188   2.554   6.201  0.1369 -0.2974  0.0652
 2308SOL    HW111380   8.241   2.500   6.142 -0.2663  0.9328 -1.5095
 2308SOL    HW211381   8.251   2.613   6.242  0.2696 -0.2304 -0.2258
 2309SOL     OW11382   9.245   6.777   4.308 -0.0831  0.1988  0.4063
 2309SOL    HW111383   9.150   6.776   4.324 -0.2151 -0.5322 -0.3848
 2309SOL    HW211384   9.261   6.864   4.270 -0.2554  0.7345  1.5079
 2310SOL     OW11385   8.788   8.553   0.075  0.1309  0.3722 -0.0155
 2310SOL    HW111386   8.704   8.520   0.107  0.1676  1.9004  1.8744
 2310SOL    HW211387   8.772   8.646   0.058  0.8118  0.1344 -2.1477
 2311SOL     OW11388  10.356   5.356  10.352 -0.2911  0.2135 -0.1605
 2311SOL    HW111389  10.421   5.418  10.319 -0.9034  1.0583  0.1814
 2311SOL    HW211390  10.298   5.339  10.278  0.0914 -0.2642 -0.3625
 2312SOL     OW11391   8.109   1.162   4.662  0.7389  0.3142 -0.5737
 2312SOL    HW111392   8.145   1.081   4.698  1.0258  1.2665  1.3815
 2312SOL    HW211393   8.027   1.135   4.621  1.4324 -1.1503 -1.0569
 2313SOL     OW11394   1.840   6.823   0.899  0.3804 -0.5074  0.3149
 2313SOL    HW111395   1.806   6.733   0.901 -0.7418 -0.0996  0.3136
 2313SOL    HW211396   1.928   6.816   0.935  0.6442 -1.7468 -0.5278
 2314SOL     OW11397   5.981  10.013   9.726  0.6052  0.4495  0.3375
 2314SOL    HW111398   5.893  10.043   9.751  1.1288  1.3381  1.1622
 2314SOL    HW211399   6.022  10.089   9.684  0.9194 -0.0236 -0.2284
 2315SOL     OW11400   5.613   1.437   5.369 -0.3489 -0.2893  0.0666
 2315SOL    HW111401   5.701   1.413   5.399 -0.6771 -1.9897 -0.2451
 2315SOL    HW211402   5.558   1.362   5.391 -1.5588  0.3841 -0.5301
 2316SOL     OW11403   1.339   0.762  10.106  0.2134  0.7307  0.3242
 2316SOL    HW111404   1.279   0.808  10.048  0.2033  0.4168  0.0794
 2316SOL    HW211405   1.390   0.706  10.047 -0.3511 -0.1985  0.6882
 2317SOL     OW11406   2.706   4.668   9.154  0.2083  0.1089 -0.2560
 2317SOL    HW111407   2.614   4.657   9.180  0.3893  0.3239  0.4960
 2317SOL    HW211408   2.749   4.589   9.185  0.0475 -0.6185 -1.7805
 2318SOL     OW11409   1.833   5.809   0.499 -0.3748  0.2711 -0.0512
 2318SOL    HW111410   1.789   5.740   0.449  1.1856 -1.0167  0.2752
 2318SOL    HW211411   1.810   5.791   0.590 -0.9869  0.9592 -0.0640
 2319SOL     OW11412   3.967   1.349   9.146 -0.2577 -0.2717  0.0466
 2319SOL    HW111413   4.032   1.284   9.120 -0.8005 -0.1272 -1.8508
 2319SOL    HW211414   3.964   1.344   9.242  1.0156 -1.7334  0.0465
 2320SOL     OW11415  10.992   6.083   3.468  0.1030 -0.0160  0.6032
 2320SOL    HW111416  10.896   6.080   3.468  0.1146 -0.8359 -0.1887
 2320SOL    HW211417  11.013   6.159   3.522 -1.0275  0.9381 -0.2117
 2321SOL     OW11418   6.977   1.328   8.671  0.5101 -0.4081 -0.1535
 2321SOL    HW111419   7.012   1.414   8.645  0.7026 -0.2528  0.5878
 2321SOL    HW211420   6.911   1.308   8.605  0.3092  0.4168 -0.2147
 2322SOL     OW11421   1.631   7.373   4.994  0.2725 -0.3337  0.5136
 2322SOL    HW111422   1.584   7.360   5.076  1.0133 -1.9847  0.7261
 2322SOL    HW211423   1.704   7.311   4.999  0.4604 -0.3030 -1.2856
 2323SOL     OW11424   5.174   3.109   5.528 -0.5824 -0.2672  0.5737
 2323SOL    HW111425   5.132   3.025   5.513 -3.4543  0.9733  0.9496
 2323SOL    HW211426   5.181   3.149   5.441  2.1277 -1.3511  0.1839
 2324SOL     OW11427   7.885   3.872   1.795  0.3837  0.4978  0.2073
 2324SOL    HW111428   7.959   3.862   1.854  0.0020 -0.9599  0.4935
 2324SOL    HW211429   7.876   3.786   1.753 -2.7513 -0.3411  2.1683
 2325SOL     OW11430   4.565   4.544   2.634  0.2418  0.7376  0.0029
 2325SOL    HW111431   4.527   4.493   2.705  2.4925  0.1758  0.9137
 2325SOL    HW211432   4.549   4.635   2.659 -1.9338  0.5633 -0.5519
 2326SOL     OW11433   2.649   0.852   0.713  0.2163  0.4703  0.0240
 2326SOL    HW111434   2.732   0.868   0.759 -0.0384 -0.4729  0.8605
 2326SOL    HW211435   2.583   0.893   0.769 -0.3448 -2.4918  1.7514
 2327SOL     OW11436   7.547   6.464   1.660 -0.3959  0.0300  0.0605
 2327SOL    HW111437   7.632   6.504   1.678 -1.2127  2.2784 -0.7023
 2327SOL    HW211438   7.528   6.411   1.737  0.7455  1.1711  1.1682
 2328SOL     OW11439   7.213   6.335   6.640  0.1085 -0.1593  0.8442
 2328SOL    HW111440   7.222   6.253   6.591  0.5477  0.5786 -0.3478
 2328SOL    HW211441   7.171   6.309   6.723  1.2378 -1.7477  0.9652
 2329SOL     OW11442   1.992   0.501   3.936  0.3293  0.5812 -0.2310
 2329SOL    HW111443   1.919   0.494   3.876 -0.0008  3.7259 -0.3572
 2329SOL    HW211444   2.027   0.589   3.922  1.9125  0.4694  2.3181
 2330SOL     OW11445   3.465   3.668   5.062  0.6485  0.1862  0.2393
 2330SOL    HW111446   3.542   3.700   5.110  0.7418 -0.2180  0.3676
 2330SOL    HW211447   3.409   3.745   5.052  0.0704  0.0456  2.0714
 2331SOL     OW11448   7.670   3.582   0.184  0.0692  0.2678  0.0679
 2331SOL    HW111449   7.620   3.658   0.156 -1.2363 -0.7280 -0.4056
 2331SOL    HW211450   7.761   3.605   0.167 -0.4217  1.0916 -1.6622
 2332SOL     OW11451   4.903   9.105   4.265  0.2038  0.0832  0.4766
 2332SOL    HW111452   4.828   9.107   4.324 -1.0899 -0.2752 -1.0932
 2332SOL    HW211453   4.896   9.187   4.215  0.2869 -0.3884 -0.3303
 2333SOL     OW11454   6.071   0.583  10.953 -0.5687 -0.5021 -0.2395
 2333SOL    HW111455   6.050   0.532  11.031 -0.6071 -0.0473  0.0519
 2333SOL    HW211456   6.142   0.642  10.981  0.0464 -0.9643 -0.7932
 2334SOL     OW11457  10.515  11.035  10.180 -0.5697 -0.0214  0.1359
 2334SOL    HW111458  10.443  11.021  10.241  0.4548 -1.4164  1.0827
 2334SOL    HW211459  10.473  11.068  10.100 -2.1670 -0.2270  0.8654
 2335SOL     OW11460   8.287   4.287   1.314 -0.0437  0.1494 -0.3906
 2335SOL    HW111461   8.299   4.368   1.364 -2.2502 -0.4746  1.3400
 2335SOL    HW211462   8.376   4.262   1.287  1.1240  1.4015  1.9163
 2336SOL     OW11463   8.782   6.310   5.020 -0.5864  0.1031  0.2768
 2336SOL    HW111464   8.863   6.327   4.971 -0.0807 -1.9630  0.2641
 2336SOL    HW211465   8.792   6.359   5.101  0.3606  0.4664 -0.0442
 2337SOL     OW11466   7.913   8.291   8.203 -0.2211  0.0583  0.4592
 2337SOL    HW111467   7.895   8.355   8.134 -1.2236  0.0496  0.6936
 2337SOL    HW211468   7.845   8.225   8.192  0.8593 -1.0522  0.1553
 2338SOL     OW11469   5.237   2.186   4.910 -0.1033  0.0178 -0.3929
 2338SOL    HW111470   5.331   2.193   4.928 -0.5129 -0.3429  2.2991
 2338SOL    HW211471   5.212   2.272   4.877  1.2405 -0.0484 -1.6839
 2339SOL     OW11472   9.100   0.660   4.539 -0.1856 -0.1775 -0.3772
 2339SOL    HW111473   9.005   0.653   4.532 -0.2272  0.8972 -1.2365
 2339SOL    HW211474   9.115   0.741   4.588  0.2886 -1.5535  1.8446
 2340SOL     OW11475   5.938   0.216   7.931  0.1400  0.4038 -0.6315
 2340SOL    HW111476   5.913   0.140   7.878 -0.3795 -1.2948  1.8416
 2340SOL    HW211477   6.030   0.200   7.952 -0.4474 -0.6503  1.4392
 2341SOL     OW11478   7.981   2.260   0.979  0.3725  0.2158 -0.0078
 2341SOL    HW111479   8.032   2.310   1.043 -0.1958 -0.7370  1.2312
 2341SOL    HW211480   7.962   2.323   0.909  0.3626  1.5075  1.1186
 2342SOL     OW11481   1.676   4.946   6.579  0.4306  0.2104  0.2256
 2342SOL    HW111482   1.613   4.901   6.522 -0.3857  1.9836 -0.3459
 2342SOL    HW211483   1.746   4.882   6.592 -0.8019 -1.3230 -0.2787
 2343SOL     OW11484   3.866   0.111   4.883 -0.4834  0.5880 -0.5781
 2343SOL    HW111485   3.886   0.082   4.794  0.2942  2.3506 -1.0191
 2343SOL    HW211486   3.869   0.207   4.879 -1.4511  0.7395  1.1248
 2344SOL     OW11487   0.822   8.269   2.841 -0.9249  0.1894  0.0638
 2344SOL    HW111488   0.878   8.195   2.814 -2.6310 -1.4394  0.7827
 2344SOL    HW211489   0.809   8.319   2.760  1.3813  0.5661 -0.1626
 2345SOL     OW11490  10.732   6.053   3.524 -0.0464 -0.2874  0.0775
 2345SOL    HW111491  10.712   6.050   3.617 -1.6370 -0.2559 -0.2353
 2345SOL    HW211492  10.664   6.109   3.486  1.7966  1.4927 -0.8332
 2346SOL     OW11493  10.202   7.769   5.664  0.4625 -0.2572  0.4128
 2346SOL    HW111494  10.225   7.702   5.728  0.9562  1.5438  2.2089
 2346SOL    HW211495  10.228   7.852   5.704  0.5458  1.0043 -2.0114
 2347SOL     OW11496   0.839  10.188   8.751  0.2931 -0.6075  0.5144
 2347SOL    HW111497   0.914  10.247   8.745 -1.0638  1.0356 -3.6859
 2347SOL    HW211498   0.873  10.103   8.722  0.9716 -0.4094  0.7205
 2348SOL     OW11499   7.529   6.946   1.323 -0.5916 -0.0540  0.2432
 2348SOL    HW111500   7.609   6.978   1.365 -0.2827 -1.6577  0.9355
 2348SOL    HW211501   7.498   6.877   1.380 -0.6055 -1.7865 -1.7310
 2349SOL     OW11502   6.437   5.621   3.396 -0.0960 -0.0124 -0.3698
 2349SOL    HW111503   6.498   5.591   3.328  1.2362 -0.1904  0.8551
 2349SOL    HW211504   6.373   5.551   3.404  0.6274 -0.6808 -0.3802
 2350SOL     OW11505   4.100   2.292   2.549  0.1269 -0.0469  0.5204
 2350SOL    HW111506   4.112   2.356   2.619 -2.3131  0.3322  0.6699
 2350SOL    HW211507   4.058   2.218   2.591 -0.3731 -0.2597 -0.3349
 2351SOL     OW11508   3.176   6.142   4.806  0.7045 -0.1424 -0.3507
 2351SOL    HW111509   3.179   6.214   4.868  0.9289 -0.7448  0.3596
 2351SOL    HW211510   3.208   6.066   4.856  1.5708 -0.5018 -1.3945
 2352SOL     OW11511   3.217   7.669   2.403  0.2354 -0.0064  0.3000
 2352SOL    HW111512   3.213   7.756   2.442  1.5627  0.8756 -1.4087
 2352SOL    HW211513   3.197   7.683   2.310 -0.9694 -1.7504  0.2405
 2353SOL     OW11514   8.250   0.209   3.407 -0.2709  0.3731 -0.2463
 2353SOL    HW111515   8.198   0.137   3.372 -0.9968  0.7502  0.0327
 2353SOL    HW211516   8.305   0.169   3.474 -1.6768  0.2836  0.9147
 2354SOL     OW11517   7.153   5.806   9.791 -0.1736  0.3071 -0.3265
 2354SOL    HW111518   7.182   5.859   9.865 -0.5918 -0.5487  0.4795
 2354SOL    HW211519   7.101   5.866   9.738  0.3578  1.0052 -0.0813
 2355SOL     OW11520   1.186   5.112   3.544  0.2624 -0.3272  0.0113
 2355SOL    HW111521   1.244   5.042   3.514  0.2993 -0.9637  1.4618
 2355SOL    HW211522   1.099   5.086   3.513  0.4969 -0.2222 -0.7511
 2356SOL     OW11523   8.215   7.731   3.154 -0.4964  0.0449  0.6187
 2356SOL    HW111524   8.251   7.713   3.240  1.1239 -0.8190 -0.2041
 2356SOL    HW211525   8.133   7.778   3.172 -0.6171 -0.8238  2.6296
 2357SOL     OW11526   9.415   2.826   9.364  0.2845 -0.4418 -0.1414
 2357SOL    HW111527   9.455   2.787   9.285  0.9626  0.7322 -0.3953
 2357SOL    HW211528   9.421   2.920   9.350 -0.7002 -0.2254  0.7833
 2358SOL     OW11529   9.906  11.003   7.105 -0.0778  0.0982 -0.0683
 2358SOL    HW111530   9.906  10.909   7.121 -3.5132  0.2073  1.4764
 2358SOL    HW211531   9.838  11.016   7.039  0.6863  1.4940 -0.6155
 2359SOL     OW11532   1.969   2.966   6.652 -0.4601  0.0690  0.0396
 2359SOL    HW111533   2.007   3.034   6.707 -0.7345  1.6951 -1.6904
 2359SOL    HW211534   1.994   2.990   6.563 -1.1476 -1.7354 -0.6935
 2360SOL     OW11535   5.017   8.561   7.548  0.0528  0.2637 -0.1982
 2360SOL    HW111536   5.096   8.612   7.529  0.2696  0.7992  1.9518
 2360SOL    HW211537   5.021   8.488   7.486  1.1087  1.4139 -1.5569
 2361SOL     OW11538   2.740   6.331   1.803 -0.1983 -0.3346  0.3249
 2361SOL    HW111539   2.664   6.274   1.814  0.5526 -1.2708  0.8524
 2361SOL    HW211540   2.761   6.325   1.709 -0.7208 -0.1274  0.1921
 2362SOL     OW11541   3.667   5.889   6.282  0.3498 -0.3043  0.2287
 2362SOL    HW111542   3.665   5.799   6.251 -0.3640 -0.2103 -0.0038
 2362SOL    HW211543   3.617   5.888   6.363 -1.9405  0.3513 -1.0790
 2363SOL     OW11544   7.347   2.304   6.852 -0.7842  0.6152 -0.1442
 2363SOL    HW111545   7.348   2.315   6.757 -0.0797 -0.2776 -0.2567
 2363SOL    HW211546   7.416   2.363   6.883 -1.7570  1.7429 -0.0667
 2364SOL     OW11547   2.694   4.121   4.301  0.4036  0.0842  0.1055
 2364SOL    HW111548   2.690   4.148   4.209 -1.7991  1.0518  0.4137
 2364SOL    HW211549   2.727   4.031   4.298  2.0348  0.6704 -1.4578
 2365SOL     OW11550   3.463   4.394  10.872 -0.7298  0.5042 -0.5809
 2365SOL    HW111551   3.491   4.466  10.929  1.6100  0.4926 -1.6075
 2365SOL    HW211552   3.404   4.342  10.927 -0.4076  1.7783  1.0434
 2366SOL     OW11553   4.192  10.809   3.727 -0.6036  0.4776  0.5533
 2366SOL    HW111554   4.106  10.849   3.737 -0.3473  0.8298  1.5492
 2366SOL    HW211555   4.180  10.739   3.663 -0.9132  2.5449 -1.7506
 2367SOL     OW11556   9.262   9.760   2.808 -0.5884  0.4486  0.1759
 2367SOL    HW111557   9.172   9.768   2.776 -1.4296 -1.3311  1.9303
 2367SOL    HW211558   9.258   9.692   2.875  1.8278  1.2555  1.2511
 2368SOL     OW11559   9.995   1.886   2.514  0.2207  0.0563  0.5576
 2368SOL    HW111560   9.979   1.895   2.608 -1.3244  0.3510  0.2993
 2368SOL    HW211561   9.912   1.912   2.473  0.4698 -1.2037 -0.8425
 2369SOL     OW11562   0.150   9.069   8.370 -0.1796  0.4102 -0.1819
 2369SOL    HW111563   0.085   8.999   8.368  0.1832  0.0552  0.3105
 2369SOL    HW211564   0.231   9.027   8.339 -0.5854  1.2901 -2.6515
 2370SOL     OW11565   1.925   3.127   1.588 -0.0673  0.0017 -0.2909
 2370SOL    HW111566   1.889   3.213   1.609 -0.1959  0.2387 -1.4356
 2370SOL    HW211567   2.010   3.145   1.548 -0.4570 -0.3439 -1.3176
 2371SOL     OW11568   7.554   9.038   3.520 -0.2116 -0.0890 -0.4044
 2371SOL    HW111569   7.625   8.975   3.506 -0.4463 -0.7039  0.9683
 2371SOL    HW211570   7.598   9.122   3.529  0.4842 -0.5912  1.4134
 2372SOL     OW11571   8.448   5.277   4.963  0.3929  0.4050 -0.2689
 2372SOL    HW111572   8.387   5.327   5.017  0.9499 -0.0468  0.8238
 2372SOL    HW211573   8.514   5.341   4.936  1.9424  0.0683  2.3700
 2373SOL     OW11574   6.230   5.490  10.566  0.4742  0.0917  0.4312
 2373SOL    HW111575   6.203   5.406  10.530  1.0484 -0.7080  1.7604
 2373SOL    HW211576   6.201   5.554  10.502 -1.0548 -1.0123 -0.0447
 2374SOL     OW11577   5.473   3.139   0.978  0.1716 -0.3814 -0.6618
 2374SOL    HW111578   5.507   3.104   0.896  0.1566 -0.6655 -0.5496
 2374SOL    HW211579   5.511   3.226   0.985  0.1511 -0.3443 -0.9837
 2375SOL     OW11580   7.645   6.557   9.563  0.2199 -0.0277  0.2452
 2375SOL    HW111581   7.599   6.640   9.550  1.9187  1.1301  1.2477
 2375SOL    HW211582   7.607   6.521   9.644  0.8057  0.7670  0.8944
 2376SOL     OW11583   0.367   0.428   9.454 -0.4510  0.1312  0.1355
 2376SOL    HW111584   0.412   0.345   9.466 -3.2058 -1.5927 -0.4530
 2376SOL    HW211585   0.358   0.463   9.543  3.5029  1.5504  0.1562
 2377SOL     OW11586   9.343   2.204   9.924  0.5767 -0.7332  0.4952
 2377SOL    HW111587   9.305   2.125   9.886 -0.3720  0.2047 -0.5674
 2377SOL    HW211588   9.389   2.246   9.852 -2.2085  1.6797 -0.0837
 2378SOL     OW11589   5.978   4.247   1.359  0.4696  0.0317  0.6404
 2378SOL    HW111590   5.958   4.304   1.433 -0.9214  0.7339 -0.2398
 2378SOL    HW211591   5.954   4.298   1.282  0.8121 -1.1035 -0.2424
 2379SOL     OW11592   1.957   4.073   0.122  0.3060 -0.0343  0.7027
 2379SOL    HW111593   1.900   4.025   0.061  0.6105  0.5389 -0.0549
 2379SOL    HW211594   1.978   4.154   0.075  1.6026 -0.1559  1.0459
 2380SOL     OW11595   7.464   5.083  10.339 -0.0163 -0.2340  0.4499
 2380SOL    HW111596   7.456   5.172  10.305 -0.0262 -0.0145  1.0127
 2380SOL    HW211597   7.521   5.039  10.277 -0.9318 -0.1722 -0.4655
 2381SOL     OW11598   5.169   3.725   6.219  0.0524 -0.0244  0.2195
 2381SOL    HW111599   5.075   3.733   6.200  0.0044 -0.0966  0.4250
 2381SOL    HW211600   5.212   3.746   6.136 -0.1550 -0.3713  0.0219
 2382SOL     OW11601   1.287  10.687   3.611 -0.5529 -0.4534  0.2373
 2382SOL    HW111602   1.339  10.621   3.567  0.4766  0.8245 -0.5389
 2382SOL    HW211603   1.223  10.715   3.545 -0.6696 -0.3262  0.4028
 2383SOL     OW11604   4.342   7.658   8.042 -0.7972  0.2505  0.2164
 2383SOL    HW111605   4.300   7.592   7.987 -0.7299 -0.3819  0.9132
 2383SOL    HW211606   4.270   7.712   8.074 -1.0055 -0.3281  0.7453
 2384SOL     OW11607   7.949   3.391   0.098 -0.3676 -0.0262 -0.3464
 2384SOL    HW111608   8.036   3.392   0.058  0.9145 -0.8270  2.1680
 2384SOL    HW211609   7.967   3.397   0.192 -3.1089  0.6748  0.1960
 2385SOL     OW11610   5.542   4.264   2.438 -0.0170  0.2787 -0.1243
 2385SOL    HW111611   5.582   4.302   2.360  1.1761  0.0572  0.3526
 2385SOL    HW211612   5.516   4.339   2.491  1.6701  0.4842  0.4859
 2386SOL     OW11613   7.712   4.143   6.129  0.2592 -1.0402 -0.2795
 2386SOL    HW111614   7.682   4.149   6.220 -0.5722 -0.8349 -0.5526
 2386SOL    HW211615   7.804   4.118   6.135  0.0902 -1.4929  0.6085
 2387SOL     OW11616   6.346   2.032   8.237 -0.0241  0.2761  1.0037
 2387SOL    HW111617   6.373   2.073   8.319  0.9813 -0.8784  1.2732
 2387SOL    HW211618   6.399   2.074   8.170  0.5724 -0.1518  1.2020
 2388SOL     OW11619   0.026   3.365   6.274  0.0205  0.5335  0.0893
 2388SOL    HW111620   0.072   3.421   6.337  0.4600 -1.4853  1.6900
 2388SOL    HW211621   0.096   3.315   6.231 -0.3520  1.2241 -1.3876
 2389SOL     OW11622   8.249   4.697   8.235  0.7765  0.8406  0.6778
 2389SOL    HW111623   8.326   4.752   8.218  1.1820  0.6885  1.9078
 2389SOL    HW211624   8.255   4.676   8.328  0.1445 -0.5409  0.4369
 2390SOL     OW11625   3.458   8.202   7.616 -0.0071  0.4181  0.1950
 2390SOL    HW111626   3.480   8.150   7.693 -0.8615  1.5700  1.2643
 2390SOL    HW211627   3.535   8.256   7.599 -0.2093  0.9706  0.9636
 2391SOL     OW11628  10.197  10.493   9.004  0.1225 -0.4270 -0.1705
 2391SOL    HW111629  10.196  10.457   9.093  0.2542 -0.2159 -0.0837
 2391SOL    HW211630  10.170  10.420   8.949 -0.4721 -0.4181  0.0974
 2392SOL     OW11631   4.733   1.249   2.602 -0.0760  0.2531 -0.4687
 2392SOL    HW111632   4.797   1.270   2.535 -0.9545 -0.1717 -1.4759
 2392SOL    HW211633   4.719   1.331   2.649  2.2054  0.0525  0.7178
 2393SOL     OW11634   4.465  10.684   8.513 -0.7462 -0.0940  0.0614
 2393SOL    HW111635   4.439  10.757   8.569  1.2353  0.6649  0.0870
 2393SOL    HW211636   4.495  10.617   8.574  0.8605  0.5123  0.0082
 2394SOL     OW11637   1.635   8.643   3.986  0.4487 -0.3242  0.6683
 2394SOL    HW111638   1.607   8.635   4.077 -0.4712  0.2076  0.4477
 2394SOL    HW211639   1.714   8.589   3.980  0.7939  0.0259  1.8883
 2395SOL     OW11640   9.707   7.129  10.149  0.3372 -0.1145  0.1215
 2395SOL    HW111641   9.797   7.151  10.128  0.8448 -2.1544 -0.0209
 2395SOL    HW211642   9.713   7.055  10.209 -1.2389  0.2868  0.8280
 2396SOL     OW11643  10.907   3.193   6.386  0.3711  0.3015 -0.1503
 2396SOL    HW111644  10.901   3.116   6.328  0.0896 -0.5795  1.0151
 2396SOL    HW211645  10.948   3.260   6.332  1.2556 -0.8773 -1.0022
 2397SOL     OW11646   7.707  10.596   1.123 -0.0173 -0.1270  0.7348
 2397SOL    HW111647   7.707  10.656   1.198  0.1114  1.7567 -0.6915
 2397SOL    HW211648   7.615  10.573   1.110 -0.5138  2.2915 -0.5522
 2398SOL     OW11649   8.942   1.066  10.878 -0.3685 -0.2226  0.3035
 2398SOL    HW111650   8.881   1.092  10.947  1.1791 -0.9658  2.0106
 2398SOL    HW211651   8.908   0.982  10.846 -0.9066 -0.0351  0.3692
 2399SOL     OW11652   6.897   0.565   1.292 -0.3964  0.0222  0.3427
 2399SOL    HW111653   6.891   0.521   1.207  0.0805  0.6427 -0.0179
 2399SOL    HW211654   6.813   0.609   1.302  0.7946  3.0116 -1.5345
 2400SOL     OW11655   0.196   4.559   1.218  0.5880  0.1192 -0.3612
 2400SOL    HW111656   0.132   4.536   1.151 -2.6499 -0.5849  2.6339
 2400SOL    HW211657   0.260   4.489   1.216  0.1855 -0.2481 -2.1628
 2401SOL     OW11658   0.318   2.057   8.919  0.2254  0.1147  0.2717
 2401SOL    HW111659   0.376   2.127   8.950  0.3875 -0.2195  0.7340
 2401SOL    HW211660   0.310   2.072   8.825  0.0797  0.8856  0.4044
 2402SOL     OW11661   0.496   8.182   1.241  0.9467  0.3242  0.0154
 2402SOL    HW111662   0.582   8.200   1.279  0.9253 -0.6337  0.5239
 2402SOL    HW211663   0.515   8.157   1.150  1.4533 -2.2614  0.7693
 2403SOL     OW11664   8.179   3.684   3.681 -0.2335  0.0489  0.2853
 2403SOL    HW111665   8.166   3.620   3.611  0.6489 -0.8942  0.9385
 2403SOL    HW211666   8.189   3.768   3.637 -1.3146 -0.2760 -0.6070
 2404SOL     OW11667   1.679   5.699   0.277  0.2594  0.0605  0.1596
 2404SOL    HW111668   1.626   5.638   0.226 -0.3406 -2.1112  3.0864
 2404SOL    HW211669   1.651   5.786   0.248 -1.9306 -1.0295 -1.2687
 2405SOL     OW11670   2.926   3.229   8.476  0.0018 -0.2075  0.0258
 2405SOL    HW111671   2.863   3.300   8.484  2.2973  2.0096 -0.3894
 2405SOL    HW211672   2.876   3.157   8.437 -2.1060  1.6300 -0.8691
 2406SOL     OW11673   0.009   6.963   6.720 -0.7679 -0.5165  0.0408
 2406SOL    HW111674   0.073   6.893   6.708 -1.0983 -0.6138 -1.2586
 2406SOL    HW211675   0.062   7.040   6.742 -0.4368 -1.2469  2.0158
 2407SOL     OW11676   4.546   1.971  10.882 -0.2122 -0.1657  0.4288
 2407SOL    HW111677   4.604   1.900  10.908  0.5536  0.1631 -0.3242
 2407SOL    HW211678   4.458   1.942  10.908  0.4223 -0.0101  2.9867
 2408SOL     OW11679   8.011  10.461   3.930 -0.1334 -0.2408  0.0906
 2408SOL    HW111680   8.057  10.530   3.882 -1.3647  0.7688  0.3288
 2408SOL    HW211681   7.959  10.416   3.863 -1.0613  0.5167  0.2822
 2409SOL     OW11682   8.680   2.091   6.589 -0.1055  0.5273  0.4206
 2409SOL    HW111683   8.609   2.151   6.611 -0.0630  0.5862  0.3949
 2409SOL    HW211684   8.636   2.007   6.575 -0.1854  0.5931  0.2720
 2410SOL     OW11685   8.801   5.256   6.346 -0.1588  0.0554 -0.0857
 2410SOL    HW111686   8.759   5.340   6.327 -0.4405 -0.0190  0.2042
 2410SOL    HW211687   8.772   5.235   6.435 -2.0201 -1.4781 -0.9730
 2411SOL     OW11688   4.072   3.561   8.303 -0.5647 -0.2495 -0.0026
 2411SOL    HW111689   4.006   3.526   8.243 -0.9969 -1.5786  1.1886
 2411SOL    HW211690   4.041   3.650   8.323 -2.4908 -1.1191  1.1654
 2412SOL     OW11691   9.576   8.549   6.345 -0.4786  0.1910  0.2247
 2412SOL    HW111692   9.603   8.635   6.378  1.9349  0.1619 -1.3442
 2412SOL    HW211693   9.522   8.569   6.268  1.8760  0.4583 -1.4788
 2413SOL     OW11694   4.637  10.328   6.589 -0.6943  0.5228  0.2720
 2413SOL    HW111695   4.684  10.273   6.526 -0.1625  0.7458  0.4652
 2413SOL    HW211696   4.547  10.330   6.557 -0.5971 -0.0065 -0.0438
 2414SOL     OW11697   3.255   0.163   7.902 -0.4750 -0.5031  0.4598
 2414SOL    HW111698   3.351   0.165   7.899 -0.4915 -0.0124  0.2047
 2414SOL    HW211699   3.232   0.081   7.858 -0.1704 -0.6138  0.5057
 2415SOL     OW11700   8.240   1.276   8.466  0.2987  0.3619 -0.2734
 2415SOL    HW111701   8.274   1.234   8.544  1.6169  1.3360 -0.2914
 2415SOL    HW211702   8.252   1.211   8.396 -0.9061 -0.5164  0.3130
 2416SOL     OW11703   8.051   1.876   9.264 -0.0009  0.5145  0.3662
 2416SOL    HW111704   8.061   1.919   9.349 -0.1362  0.8360  0.2210
 2416SOL    HW211705   7.965   1.904   9.233 -0.1744 -0.0159  0.3548
 2417SOL     OW11706   8.875   1.616  10.943 -0.2313 -0.2657  0.1904
 2417SOL    HW111707   8.848   1.585  10.857 -1.2571 -1.5923  0.9687
 2417SOL    HW211708   8.949   1.560  10.967 -0.0846 -0.0405  0.2733
 2418SOL     OW11709   7.217   3.504   0.100 -0.4357  0.2763  0.1486
 2418SOL    HW111710   7.267   3.515   0.019  0.9200 -1.0806  0.7423
 2418SOL    HW211711   7.140   3.560   0.089  0.1467  0.7818 -1.7038
 2419SOL     OW11712   8.180   2.168  10.286 -0.3593 -0.2575  0.1176
 2419SOL    HW111713   8.090   2.138  10.292  0.2506 -2.1723  0.1582
 2419SOL    HW211714   8.184   2.245  10.344 -1.6656 -0.8656  1.0465
 2420SOL     OW11715   0.692   7.635   3.525  0.6743  1.1536  0.0391
 2420SOL    HW111716   0.634   7.655   3.598 -0.0713 -0.0765 -0.1840
 2420SOL    HW211717   0.650   7.676   3.449 -0.3372 -0.3644 -0.2521
 2421SOL     OW11718   9.005   3.985   1.461  0.0788  0.6870 -0.1183
 2421SOL    HW111719   8.987   3.899   1.421 -2.3322  0.5678  1.0251
 2421SOL    HW211720   9.099   3.985   1.477  0.5979 -0.6266 -2.5875
 2422SOL     OW11721   8.445   2.369   3.828  0.1567  1.2740 -0.3561
 2422SOL    HW111722   8.396   2.290   3.852 -0.9197  2.0725  0.1236
 2422SOL    HW211723   8.415   2.390   3.739  0.5782  1.0423 -0.5541
 2423SOL     OW11724  10.791   1.482   8.230  0.8179 -0.3768 -0.0306
 2423SOL    HW111725  10.788   1.393   8.193  1.9892 -0.0513 -0.9647
 2423SOL    HW211726  10.772   1.469   8.323 -1.6357 -1.2824 -0.5660
 2424SOL     OW11727   4.775   3.701   0.732 -0.2364  0.5771  0.2713
 2424SOL    HW111728   4.739   3.744   0.809  0.8685  0.3842  0.9121
 2424SOL    HW211729   4.722   3.733   0.659 -1.8359  0.1376  1.1927
 2425SOL     OW11730   8.638   1.296   0.980 -0.2211  0.0759 -0.2985
 2425SOL    HW111731   8.678   1.243   1.049 -0.0533  2.1108  1.2685
 2425SOL    HW211732   8.564   1.244   0.949 -0.7488 -0.6107  1.9458
 2426SOL     OW11733   9.805   5.275   1.537  0.3557  0.0710 -0.5434
 2426SOL    HW111734   9.772   5.188   1.558  1.3998 -0.5260 -1.2628
 2426SOL    HW211735   9.809   5.320   1.621 -0.7315 -0.3725 -0.2361
 2427SOL     OW11736  10.181  10.829   2.403  0.0105 -0.1180  0.5327
 2427SOL    HW111737  10.185  10.734   2.417  0.5978 -0.0333  0.9801
 2427SOL    HW211738  10.116  10.860   2.466 -0.5070 -0.2782  0.0791
 2428SOL     OW11739   1.889  10.441   1.371  0.4464  0.7294  0.2390
 2428SOL    HW111740   1.820  10.433   1.437 -0.1393  0.4488 -0.4028
 2428SOL    HW211741   1.902  10.535   1.361  2.3861  0.8345  2.6429
 2429SOL     OW11742   7.314   2.348   9.554 -0.0787  0.5500 -0.3736
 2429SOL    HW111743   7.376   2.375   9.622  1.9296 -1.0980 -1.4265
 2429SOL    HW211744   7.248   2.296   9.600  1.3380 -0.6746  0.3696
 2430SOL     OW11745   6.192   4.027   7.716 -0.1888  0.4111 -0.4865
 2430SOL    HW111746   6.165   3.989   7.799  0.2799  0.5118 -0.2872
 2430SOL    HW211747   6.239   4.107   7.740 -0.6163  0.7888 -0.8731
 2431SOL     OW11748   7.822   1.580   1.372  0.5525 -0.1672 -0.4165
 2431SOL    HW111749   7.856   1.666   1.395 -0.4745  0.0571  0.3119
 2431SOL    HW211750   7.832   1.575   1.277  1.3540  0.4239 -0.3735
 2432SOL     OW11751   5.084   3.551   8.094  0.4445 -0.1928 -0.6339
 2432SOL    HW111752   5.148   3.525   8.160 -2.2309  1.6964  3.1163
 2432SOL    HW211753   5.114   3.636   8.063  0.7438 -0.1856 -0.3247
 2433SOL     OW11754   5.940   2.613   1.703 -0.0490 -0.1507 -0.4054
 2433SOL    HW111755   5.933   2.702   1.669 -1.2924  0.0904  0.3951
 2433SOL    HW211756   5.849   2.587   1.719  0.2866 -1.6458 -0.8271
 2434SOL     OW11757   1.360   3.559   7.039 -0.2024  0.6807  0.4140
 2434SOL    HW111758   1.407   3.476   7.044  0.5944  1.1699  1.4846
 2434SOL    HW211759   1.282   3.540   6.987  1.6891  0.0957 -2.4664
 2435SOL     OW11760   0.815   3.027   0.233 -0.1126 -0.3769 -0.6552
 2435SOL    HW111761   0.904   3.022   0.266 -0.2247  2.6887  0.4720
 2435SOL    HW211762   0.822   3.005   0.140  1.6028 -1.1975 -0.3695
 2436SOL     OW11763   6.529   3.384   0.126 -0.1904  0.4597 -1.1893
 2436SOL    HW111764   6.457   3.324   0.145 -0.3924  1.4345  1.5986
 2436SOL    HW211765   6.578   3.389   0.208  2.6191  0.5003 -2.7332
 2437SOL     OW11766   7.431   0.697   5.123  0.3298  0.2168  0.0810
 2437SOL    HW111767   7.343   0.681   5.157  0.2125  0.9200  0.1281
 2437SOL    HW211768   7.417   0.751   5.045  0.4846 -2.6795 -2.0949
 2438SOL     OW11769   4.193  10.090   4.697 -0.3578 -0.0900 -0.0847
 2438SOL    HW111770   4.243  10.165   4.666 -1.9395  1.1384  0.2042
 2438SOL    HW211771   4.257  10.034   4.741  0.4732  2.4330  2.1381
 2439SOL     OW11772   8.180   8.823   8.557 -0.0213 -0.0042  0.3320
 2439SOL    HW111773   8.194   8.745   8.504 -1.8266 -0.0160 -0.1941
 2439SOL    HW211774   8.200   8.795   8.646  1.6251 -0.3855 -0.1294
 2440SOL     OW11775   2.172   3.375   6.449  0.3830  0.5323 -0.3736
 2440SOL    HW111776   2.094   3.339   6.407  0.8577 -1.2143  0.1513
 2440SOL    HW211777   2.239   3.307   6.439  1.2994  1.2161  0.7744
 2441SOL     OW11778   6.304   4.343   3.210 -0.3869 -0.3001 -0.0566
 2441SOL    HW111779   6.271   4.433   3.215 -0.2826 -0.3121  1.0145
 2441SOL    HW211780   6.228   4.291   3.184 -0.4347  0.0990 -0.7280
 2442SOL     OW11781   7.762  10.899   7.547 -0.9908 -0.1842 -0.1075
 2442SOL    HW111782   7.857  10.895   7.536 -1.1186 -0.0507 -1.3769
 2442SOL    HW211783   7.750  10.933   7.636  0.1442 -0.1014  0.0300
 2443SOL     OW11784   8.963   8.361   1.737 -0.0419  0.4149  0.4172
 2443SOL    HW111785   9.000   8.408   1.663 -0.7860 -2.7189 -2.1401
 2443SOL    HW211786   8.878   8.403   1.752 -0.2183  0.6098 -1.0403
 2444SOL     OW11787   2.219   9.772   0.277  0.3884  0.2218  0.0993
 2444SOL    HW111788   2.171   9.708   0.224  0.8037 -0.5337  0.6225
 2444SOL    HW211789   2.176   9.770   0.362  2.4810 -1.9405  1.2391
 2445SOL     OW11790  10.834   7.331   3.767 -0.1254  0.5297 -0.0091
 2445SOL    HW111791  10.741   7.347   3.750 -0.1666 -1.1277 -1.6697
 2445SOL    HW211792  10.837   7.249   3.815  0.5200 -0.7512 -2.1080
 2446SOL     OW11793   7.249  10.514   3.968 -0.1651  0.2690  0.1760
 2446SOL    HW111794   7.333  10.555   3.947 -0.2273  0.6362  0.6148
 2446SOL    HW211795   7.232  10.454   3.896  0.7125 -0.1747  0.3228
 2447SOL     OW11796  10.518   5.356   7.438  0.5003  0.0449 -0.4029
 2447SOL    HW111797  10.450   5.323   7.497  1.8325  1.7003  2.2988
 2447SOL    HW211798  10.485   5.338   7.350 -1.6121 -2.6517  0.7989
 2448SOL     OW11799   3.931  10.657   4.369 -0.1022  0.2038 -0.0813
 2448SOL    HW111800   4.023  10.655   4.395  0.0232  0.8594 -0.4441
 2448SOL    HW211801   3.905  10.565   4.365  0.5052  0.0152  0.1299
 2449SOL     OW11802   5.178   7.371   5.921 -0.0999 -0.2137 -0.6694
 2449SOL    HW111803   5.104   7.389   5.863  0.2936  0.0343 -1.1007
 2449SOL    HW211804   5.188   7.276   5.917 -1.4416 -0.4631  0.7015
 2450SOL     OW11805   8.841   7.630   3.819 -0.2200  0.4593  0.1012
 2450SOL    HW111806   8.876   7.572   3.887 -2.1375 -0.7248  0.1804
 2450SOL    HW211807   8.867   7.589   3.737 -1.2799 -0.4103  0.1594
 2451SOL     OW11808   9.186   1.138   5.944 -0.8831 -0.0207 -0.7435
 2451SOL    HW111809   9.105   1.166   5.987 -2.0373 -1.9035 -1.5603
 2451SOL    HW211810   9.162   1.127   5.852  1.2660  2.9305 -1.8337
 2452SOL     OW11811   7.058   7.781   5.668 -0.8168  0.4370 -0.2117
 2452SOL    HW111812   7.093   7.782   5.758  0.0283 -1.4829 -0.4778
 2452SOL    HW211813   6.967   7.808   5.678 -1.2222 -1.3166  1.4922
 2453SOL     OW11814   9.156  10.538   5.455  0.5021  0.0980  0.6311
 2453SOL    HW111815   9.132  10.606   5.392  0.5505 -1.4059 -1.0591
 2453SOL    HW211816   9.077  10.528   5.509 -1.3536 -1.7973 -2.1552
 2454SOL     OW11817  10.823   5.951   9.639  0.0349  0.1621 -0.8165
 2454SOL    HW111818  10.819   5.969   9.733 -0.7034  0.4150 -0.8836
 2454SOL    HW211819  10.777   6.024   9.598  3.1833  1.8401 -1.6620
 2455SOL     OW11820  10.893   5.935  10.348 -0.4351  0.5372 -0.2573
 2455SOL    HW111821  10.924   6.011  10.298  0.7083  1.0752  1.1983
 2455SOL    HW211822  10.955   5.926  10.420 -2.3150  0.1491  1.4165
 2456SOL     OW11823   2.539   0.764   3.957 -0.3526 -0.1342  0.4820
 2456SOL    HW111824   2.521   0.673   3.935 -0.3206  0.0195 -0.2029
 2456SOL    HW211825   2.635   0.771   3.955 -0.2693 -0.4522  2.0823
 2457SOL     OW11826   7.809   9.923   2.311 -0.1209 -0.0503  0.3953
 2457SOL    HW111827   7.815   9.838   2.269 -2.5590 -0.7095  1.2389
 2457SOL    HW211828   7.850   9.910   2.397  0.1146 -0.1681  0.2666
 2458SOL     OW11829   0.630  10.506   4.828  0.3276 -0.4168 -0.6624
 2458SOL    HW111830   0.600  10.431   4.777  0.3303 -1.9278  1.4276
 2458SOL    HW211831   0.611  10.582   4.773 -0.9772 -1.8266 -2.2593
 2459SOL     OW11832   5.344  10.136   5.679 -0.0257 -0.0929  0.0008
 2459SOL    HW111833   5.271  10.197   5.687  1.0684  1.2550 -0.0647
 2459SOL    HW211834   5.393  10.145   5.761  1.3810  0.7933 -0.8975
 2460SOL     OW11835  10.412   4.676   8.691 -0.0277  0.4073  0.4215
 2460SOL    HW111836  10.353   4.644   8.623 -0.3643  0.7424  0.5565
 2460SOL    HW211837  10.402   4.613   8.762  0.1969  0.1516  0.2293
 2461SOL     OW11838   4.408   7.169  10.022  0.1225  0.2791 -0.4290
 2461SOL    HW111839   4.447   7.161   9.936 -1.3835  0.6405 -1.1804
 2461SOL    HW211840   4.362   7.085  10.035  0.6184  0.0927  0.1745
 2462SOL     OW11841   7.812  11.051   6.455 -0.1053  0.3216 -0.3893
 2462SOL    HW111842   7.791  11.084   6.368 -2.7418 -1.4870 -0.5431
 2462SOL    HW211843   7.730  11.059   6.504  0.5908 -1.1045  1.1046
 2463SOL     OW11844   5.821   3.261   5.865  0.1344 -0.3313  0.3424
 2463SOL    HW111845   5.758   3.328   5.893  0.4400  0.9157 -1.7996
 2463SOL    HW211846   5.782   3.222   5.787  2.8319  1.9042 -2.3189
 2464SOL     OW11847   9.615   8.716   1.727 -0.0335  0.4660 -0.3447
 2464SOL    HW111848   9.559   8.653   1.681  0.2336  1.0369 -1.4868
 2464SOL    HW211849   9.626   8.679   1.814 -0.4681 -0.7012 -0.7676
 2465SOL     OW11850   3.879   0.418   8.416  0.1113  0.2712  0.5465
 2465SOL    HW111851   3.793   0.458   8.428  0.5731  0.9788  1.6944
 2465SOL    HW211852   3.861   0.324   8.411 -0.9129  0.5223 -1.4394
 2466SOL     OW11853   1.414   6.430   9.142 -0.4256  0.0116 -0.5694
 2466SOL    HW111854   1.447   6.498   9.083  0.3856  0.6964  0.6088
 2466SOL    HW211855   1.383   6.478   9.218  0.3974 -0.9260  0.4013
 2467SOL     OW11856   1.977   3.579   0.936  0.1288 -0.3250 -0.1282
 2467SOL    HW111857   1.985   3.504   0.994 -1.8884 -1.7292 -1.5172
 2467SOL    HW211858   1.994   3.655   0.992  1.4038 -1.7344  1.5062
 2468SOL     OW11859   8.560   0.075   6.331 -0.3590 -0.3817  0.0625
 2468SOL    HW111860   8.491   0.012   6.354 -0.8578  0.6568  1.6149
 2468SOL    HW211861   8.642   0.026   6.342 -0.5334 -0.1458  4.1107
 2469SOL     OW11862   7.746   8.649  10.969  0.1109 -0.1946 -0.4741
 2469SOL    HW111863   7.809   8.594  11.015  0.6805  0.8628  0.0503
 2469SOL    HW211864   7.746   8.616  10.879 -0.2549 -1.6282  0.0385
 2470SOL     OW11865   7.077   2.107   4.600 -0.0675  0.0685  0.3106
 2470SOL    HW111866   7.125   2.035   4.640  4.3537  0.6028 -3.1478
 2470SOL    HW211867   7.042   2.071   4.518 -1.6928  0.8618  0.6150
 2471SOL     OW11868   0.473   9.906   2.975 -0.5362 -0.3630  0.1823
 2471SOL    HW111869   0.412   9.849   3.023 -0.1934 -0.7953  0.1122
 2471SOL    HW211870   0.422   9.985   2.956 -1.1187 -0.7740  0.0038
 2472SOL     OW11871   7.779   0.504   6.840 -0.0967  0.3636 -0.0367
 2472SOL    HW111872   7.838   0.491   6.914  0.2096 -0.5434 -0.4257
 2472SOL    HW211873   7.725   0.579   6.865 -1.3771 -1.1239  1.9893
 2473SOL     OW11874   8.446   4.909   7.159 -0.1874 -0.8736 -0.5065
 2473SOL    HW111875   8.440   4.853   7.237  2.0119 -1.3939 -0.6322
 2473SOL    HW211876   8.537   4.901   7.132  0.2358  2.7182 -0.6004
 2474SOL     OW11877  10.168   9.816   9.208  0.1343 -0.1736 -0.4593
 2474SOL    HW111878  10.135   9.754   9.273 -0.0209 -0.4652 -0.8106
 2474SOL    HW211879  10.208   9.885   9.259  0.0923 -0.4449 -0.0542
 2475SOL     OW11880   6.114   7.296   7.228 -0.2279  0.0340 -0.0149
 2475SOL    HW111881   6.173   7.232   7.268 -1.8449 -0.3402  1.9009
 2475SOL    HW211882   6.172   7.365   7.195  1.3892 -1.2657 -0.0008
 2476SOL     OW11883   7.473   5.726   5.834 -0.1255 -0.0483  0.2947
 2476SOL    HW111884   7.521   5.724   5.751  0.3633  0.3294  0.5613
 2476SOL    HW211885   7.471   5.635   5.862 -0.2699 -0.1767 -0.1178
 2477SOL     OW11886  10.787   7.963   2.624 -0.3327 -0.3848  0.1243
 2477SOL    HW111887  10.874   7.945   2.588 -1.1778 -0.8965 -1.8088
 2477SOL    HW211888  10.790   8.055   2.650  0.8849 -0.4990  0.4266
 2478SOL     OW11889   6.632   5.432   0.544 -0.4996 -0.3787 -0.0280
 2478SOL    HW111890   6.705   5.401   0.598  0.4222  0.5235 -0.7114
 2478SOL    HW211891   6.619   5.362   0.480  1.1187  0.2589 -1.1361
 2479SOL     OW11892   5.553   2.219   2.264  0.4171  0.1903 -0.3409
 2479SOL    HW111893   5.565   2.295   2.207 -0.3030 -0.1764 -0.9978
 2479SOL    HW211894   5.519   2.255   2.346  0.5428  0.6177 -0.4743
 2480SOL     OW11895   5.056   7.937   0.248 -0.4554 -0.2710 -0.0145
 2480SOL    HW111896   4.978   7.983   0.277 -0.5908 -0.9009  0.6768
 2480SOL    HW211897   5.068   7.868   0.314 -0.7494 -1.7605 -1.4699
 2481SOL     OW11898   9.878   0.002  10.315  0.5858 -0.0209 -0.2550
 2481SOL    HW111899   9.885   0.097  10.319  1.0857 -0.0782  0.6001
 2481SOL    HW211900   9.917  -0.028  10.398  1.9582 -1.0289 -1.2081
 2482SOL     OW11901   8.894   1.368  10.016 -0.1649 -0.1281 -0.0502
 2482SOL    HW111902   8.861   1.432   9.953 -0.5031  0.6733  0.9033
 2482SOL    HW211903   8.839   1.380  10.093 -0.0912 -1.4323  0.2359
 2483SOL     OW11904   4.021   6.079   3.345  0.3232 -0.1808 -0.1396
 2483SOL    HW111905   4.065   6.050   3.424 -0.5493 -1.2481 -0.0222
 2483SOL    HW211906   4.048   6.170   3.334  2.3442 -0.7245  0.0484
 2484SOL     OW11907   2.091   0.971   7.912 -0.2647 -0.5064 -0.0397
 2484SOL    HW111908   2.014   0.916   7.897 -0.1483 -0.2229 -1.9288
 2484SOL    HW211909   2.055   1.051   7.952 -0.8685 -0.6286 -0.3196
 2485SOL     OW11910   1.623   0.309   1.018  0.2985 -0.0430 -0.4360
 2485SOL    HW111911   1.638   0.341   1.107  1.0830  0.7352 -0.8348
 2485SOL    HW211912   1.574   0.227   1.030 -0.3894  0.5037  0.6672
 2486SOL     OW11913   3.738   8.442   3.037 -0.5628 -0.2654 -0.0616
 2486SOL    HW111914   3.806   8.495   2.995 -1.3842 -0.9174 -2.4004
 2486SOL    HW211915   3.785   8.386   3.099  1.2184 -1.2329 -2.1506
 2487SOL     OW11916   1.720   7.093   2.008  0.4194  0.1221 -0.2335
 2487SOL    HW111917   1.783   7.105   2.079  0.1932  0.1895 -0.0400
 2487SOL    HW211918   1.664   7.022   2.039 -1.5441  2.0702  1.0223
 2488SOL     OW11919   8.363   6.473   8.952 -0.2335  0.3789  0.1025
 2488SOL    HW111920   8.288   6.414   8.943 -0.5781  0.7812  0.2870
 2488SOL    HW211921   8.323   6.559   8.964  0.2643  0.6339 -0.0786
 2489SOL     OW11922   1.561   7.805   7.953 -0.0776 -0.0444  0.2667
 2489SOL    HW111923   1.504   7.778   7.881 -1.1118 -2.2051  1.7905
 2489SOL    HW211924   1.611   7.726   7.976  1.6251  1.0963  0.7218
 2490SOL     OW11925   9.707   5.831   6.142 -0.2906  0.6174 -0.1477
 2490SOL    HW111926   9.794   5.864   6.164  0.0291  0.6482 -1.4010
 2490SOL    HW211927   9.708   5.739   6.170 -0.5831  1.1429  1.7254
 2491SOL     OW11928   7.651   9.253   7.910 -0.2398  0.1219 -0.3393
 2491SOL    HW111929   7.604   9.309   7.847  0.0150  0.8470  0.1006
 2491SOL    HW211930   7.585   9.227   7.974 -0.5227 -0.7009 -0.9507
 2492SOL     OW11931   1.027   0.077   2.781  0.0406 -0.0432  0.5856
 2492SOL    HW111932   0.945   0.113   2.814 -0.6143 -1.0726  0.1457
 2492SOL    HW211933   1.077   0.052   2.859 -0.0141  0.6861  0.8556
 2493SOL     OW11934   9.485   9.717   8.079 -0.3608 -0.3400  0.4339
 2493SOL    HW111935   9.400   9.761   8.075 -0.6872 -0.8813  1.0985
 2493SOL    HW211936   9.547   9.786   8.104 -0.3891  0.3061 -1.1699
 2494SOL     OW11937   8.472   5.156   2.627  0.1304  0.2789  0.8463
 2494SOL    HW111938   8.533   5.228   2.639  0.2608  0.0826  1.4080
 2494SOL    HW211939   8.506   5.086   2.684 -0.4260  0.0528  0.9071
 2495SOL     OW11940   6.080   6.277   4.201  0.1926 -0.2776 -0.1171
 2495SOL    HW111941   6.130   6.268   4.119  0.2563 -0.8621 -0.0233
 2495SOL    HW211942   6.114   6.356   4.242 -0.0191  0.1650 -0.7798
 2496SOL     OW11943   1.841   8.367   1.609  0.3635 -0.4888 -0.8398
 2496SOL    HW111944   1.890   8.313   1.671 -1.8263 -0.3507  1.1522
 2496SOL    HW211945   1.798   8.304   1.551 -1.1296 -0.9206  0.6527
 2497SOL     OW11946   0.696   4.398   7.469 -0.1234  0.4536  0.5701
 2497SOL    HW111947   0.755   4.372   7.398 -0.3656  0.7949  0.2379
 2497SOL    HW211948   0.630   4.329   7.473  0.7812 -0.3969  1.5352
 2498SOL     OW11949   7.816   9.983   1.201 -0.0836 -0.5569 -0.2587
 2498SOL    HW111950   7.753  10.021   1.139 -0.8356  0.6787  1.2196
 2498SOL    HW211951   7.800   9.888   1.196 -1.2347 -0.3544 -0.7856
 2499SOL     OW11952   8.784   2.519   2.616  0.0147 -0.2271  0.2023
 2499SOL    HW111953   8.722   2.516   2.543  3.3863  3.6510 -3.3621
 2499SOL    HW211954   8.737   2.565   2.685 -1.8684  0.5440 -1.4763
 2500SOL     OW11955   3.427   2.695   9.352 -0.6128 -0.5720  0.4761
 2500SOL    HW111956   3.417   2.680   9.446 -0.2705  0.5536  0.7132
 2500SOL    HW211957   3.405   2.787   9.340  2.0543  0.0920 -0.0723
 2501SOL     OW11958   4.941   4.034   5.673  0.0354  0.3415  0.5591
 2501SOL    HW111959   4.880   4.066   5.606  0.5795 -0.8306 -0.5412
 2501SOL    HW211960   4.908   3.947   5.695  1.1666 -0.2021  0.1278
 2502SOL     OW11961   4.804   8.043   8.624 -0.3001 -0.2948 -0.1154
 2502SOL    HW111962   4.853   8.023   8.703 -0.6078 -1.2911 -0.1613
 2502SOL    HW211963   4.714   8.019   8.644 -0.8113  1.5126 -0.0301
 2503SOL     OW11964   3.421   9.578   3.675 -0.2618  0.3656  0.2991
 2503SOL    HW111965   3.331   9.608   3.686 -0.1181  1.9124 -1.9611
 2503SOL    HW211966   3.434   9.575   3.581  0.9549 -3.5428  0.4329
 2504SOL     OW11967   5.039   4.728   5.359 -0.3556 -0.2107 -0.0956
 2504SOL    HW111968   4.947   4.702   5.350 -0.0319 -1.3703 -0.1515
 2504SOL    HW211969   5.071   4.676   5.432  0.2312  0.2855  0.0048
 2505SOL     OW11970   3.471   7.039   5.556  0.4832  0.1993 -0.0538
 2505SOL    HW111971   3.564   7.020   5.560  0.2023 -1.7511 -1.3744
 2505SOL    HW211972   3.443   7.005   5.471 -1.3811  1.0456  0.1579
 2506SOL     OW11973   8.523   0.788   5.489 -0.0500  0.1686  0.6188
 2506SOL    HW111974   8.607   0.807   5.529  0.9707 -1.3757 -0.6735
 2506SOL    HW211975   8.465   0.766   5.562  1.3576 -1.1699  1.3770
 2507SOL     OW11976   6.631   2.730   5.193  0.0366  0.2604  0.2708
 2507SOL    HW111977   6.595   2.777   5.268 -1.2636 -1.0345  0.5015
 2507SOL    HW211978   6.641   2.640   5.223 -0.2331 -0.2278 -1.0028
 2508SOL     OW11979   8.023  10.944   0.630  0.0992  0.4076 -0.2270
 2508SOL    HW111980   8.022  10.889   0.708  0.6398 -1.9055 -1.7304
 2508SOL    HW211981   7.940  10.991   0.633  0.9007  1.8723  2.6549
 2509SOL     OW11982   7.864   3.969   9.295  0.1152 -0.0725  0.5501
 2509SOL    HW111983   7.937   3.910   9.311 -0.2012 -0.5073  0.3941
 2509SOL    HW211984   7.876   4.039   9.360  0.1962 -0.5735  1.0846
 2510SOL     OW11985   3.790  10.789   9.432  0.4363  0.1524  0.7705
 2510SOL    HW111986   3.824  10.769   9.519  0.7483  0.9804  0.8463
 2510SOL    HW211987   3.705  10.746   9.430  0.4912 -0.0039  1.4370
 2511SOL     OW11988   5.754   5.772   0.569 -0.0781 -0.6356  0.3881
 2511SOL    HW111989   5.744   5.860   0.533 -0.7451 -0.5887  0.6783
 2511SOL    HW211990   5.842   5.745   0.543  0.9136  0.8925  1.9901
 2512SOL     OW11991   6.125   9.064   8.227  0.6506 -0.2081  0.0262
 2512SOL    HW111992   6.100   9.073   8.135 -1.6637 -1.4057  0.4642
 2512SOL    HW211993   6.079   9.136   8.271 -0.9190 -1.5113  0.6324
 2513SOL     OW11994  10.539   4.045   9.442 -0.3133  0.1325 -0.1291
 2513SOL    HW111995  10.563   4.126   9.398  0.9844 -0.5234 -0.6913
 2513SOL    HW211996  10.450   4.059   9.473 -0.3023  1.5571 -0.7054
 2514SOL     OW11997   7.836   7.684   9.448 -0.1350  0.1190  0.7442
 2514SOL    HW111998   7.910   7.702   9.390 -1.1576  2.3912  0.0146
 2514SOL    HW211999   7.770   7.645   9.391 -0.0438 -0.5225  1.0719
 2515SOL     OW12000   7.259   6.416   8.678  0.0223  0.3942 -0.1292
 2515SOL    HW112001   7.181   6.435   8.731  0.4881 -2.0899  1.6086
 2515SOL    HW212002   7.299   6.502   8.664 -0.0063  1.2696  3.8452
 2516SOL     OW12003   3.440   2.048   4.868  0.0457 -0.3646  0.2832
 2516SOL    HW112004   3.395   1.981   4.816 -0.8041  0.3926  0.0246
 2516SOL    HW212005   3.478   1.999   4.942 -2.3080 -0.8719  1.2385
 2517SOL     OW12006   1.461   0.217   2.968 -0.6287 -1.0200  0.4202
 2517SOL    HW112007   1.465   0.313   2.961  0.5318 -1.0004  1.2354
 2517SOL    HW212008   1.552   0.188   2.959 -0.9771 -2.0619  0.0875
 2518SOL     OW12009   3.738   0.806   7.630  0.0444 -0.0267 -0.1723
 2518SOL    HW112010   3.719   0.879   7.571 -0.5405  1.6614  1.9543
 2518SOL    HW212011   3.652   0.780   7.664  0.5022  2.1916  3.3160
 2519SOL     OW12012   5.066   2.857   3.098  0.3096  0.2020  0.3270
 2519SOL    HW112013   4.977   2.844   3.065 -0.0187  0.1238  1.1917
 2519SOL    HW212014   5.114   2.780   3.069  0.3083  0.6264 -0.8234
 2520SOL     OW12015   8.744   1.999   5.547  0.7649 -0.0864  0.2958
 2520SOL    HW112016   8.665   1.946   5.561  0.5080  0.3353  0.4620
 2520SOL    HW212017   8.816   1.938   5.560  0.4779 -1.0906 -2.1753
 2521SOL     OW12018  10.598   5.425   7.966 -0.1230 -0.0869 -0.6522
 2521SOL    HW112019  10.544   5.448   8.042  1.6325 -0.3558  0.7629
 2521SOL    HW212020  10.554   5.464   7.892 -0.5886  2.4014  0.8368
 2522SOL     OW12021   1.747   4.051   9.736 -0.1367  0.0787 -0.0158
 2522SOL    HW112022   1.785   3.975   9.779 -3.0436 -1.0706  0.7905
 2522SOL    HW212023   1.694   4.015   9.665 -0.0361  1.5223 -0.8726
 2523SOL     OW12024   4.302  10.372   9.187  0.7338 -0.6244 -0.4440
 2523SOL    HW112025   4.263  10.402   9.105  0.5795 -1.9305 -0.8762
 2523SOL    HW212026   4.292  10.277   9.185  0.1893 -0.6560  1.3599
 2524SOL     OW12027   7.393   5.130   7.118  0.2098  0.1587 -0.2172
 2524SOL    HW112028   7.403   5.158   7.027 -0.4223  1.3248  0.0501
 2524SOL    HW212029   7.307   5.165   7.144  0.0971 -0.7226  0.6274
 2525SOL     OW12030  10.298  10.149   9.157 -0.1282 -0.4709 -0.1492
 2525SOL    HW112031  10.369  10.099   9.197 -0.5276 -0.8010  0.1597
 2525SOL    HW212032  10.250  10.186   9.231  0.0603  0.2350 -0.3721
 2526SOL     OW12033   1.339   8.362   5.899  0.0650  0.4966  0.3003
 2526SOL    HW112034   1.393   8.406   5.965 -0.8666  0.4329  1.1270
 2526SOL    HW212035   1.399   8.300   5.857  0.2903 -0.8295  2.3904
 2527SOL     OW12036   1.877   5.401   7.318 -0.0593  0.2896 -0.0826
 2527SOL    HW112037   1.815   5.387   7.247 -0.4863 -0.2086  0.3838
 2527SOL    HW212038   1.940   5.330   7.310  0.7196  1.0283 -0.8114
 2528SOL     OW12039   7.752  10.991   5.957 -0.3083 -0.6340 -0.4872
 2528SOL    HW112040   7.813  10.962   5.890  0.0209 -1.2006  0.0419
 2528SOL    HW212041   7.675  11.021   5.909  0.1401 -0.5096 -1.1325
 2529SOL     OW12042   8.951   3.181   5.706  0.2458  0.0429  0.3171
 2529SOL    HW112043   8.908   3.243   5.764  1.3475  0.5091  0.6493
 2529SOL    HW212044   9.010   3.132   5.763 -1.1905 -1.9147  0.2303
 2530SOL     OW12045   0.704   5.103   3.365 -0.1343  0.0157  0.3815
 2530SOL    HW112046   0.692   5.120   3.459  1.1538  2.9750  0.1328
 2530SOL    HW212047   0.634   5.154   3.323 -0.1418 -0.5505 -0.3030
 2531SOL     OW12048   0.758   3.596   7.174 -0.1579 -0.1092  0.3256
 2531SOL    HW112049   0.675   3.634   7.145 -0.0170 -1.0571 -1.4983
 2531SOL    HW212050   0.762   3.511   7.128  2.0606  0.1650 -0.0941
 2532SOL     OW12051   9.553   4.237   0.588 -0.2086  0.6489 -0.3872
 2532SOL    HW112052   9.579   4.150   0.557 -1.7870  0.2482 -0.6987
 2532SOL    HW212053   9.457   4.235   0.584 -0.4997  1.0377  3.2926
 2533SOL     OW12054   2.424   8.827   2.134 -0.6676 -0.2990  0.5218
 2533SOL    HW112055   2.336   8.861   2.121 -1.1155 -1.1206  1.3186
 2533SOL    HW212056   2.432   8.816   2.228  0.0036 -0.9650  0.3970
 2534SOL     OW12057   2.291   4.780   6.588 -0.1129  0.1527 -0.2989
 2534SOL    HW112058   2.372   4.729   6.592 -0.6959 -0.8630 -1.2096
 2534SOL    HW212059   2.298   4.829   6.505 -0.3778  0.1713 -0.3091
 2535SOL     OW12060   9.017   8.463   7.394 -0.1977  0.4363 -0.4760
 2535SOL    HW112061   9.057   8.524   7.332 -1.1800  0.6314 -0.9419
 2535SOL    HW212062   9.077   8.460   7.468  0.6767  0.7067 -1.1589
 2536SOL     OW12063   7.730   8.908   4.844 -0.4312  0.2310 -0.2624
 2536SOL    HW112064   7.756   8.957   4.923 -0.2578  0.6376 -0.5674
 2536SOL    HW212065   7.793   8.836   4.840  0.1316  0.7227 -0.5200
 2537SOL     OW12066   9.411   3.183  10.049 -0.6132 -0.5033  0.3762
 2537SOL    HW112067   9.375   3.269  10.025 -1.6914 -0.6294  1.4303
 2537SOL    HW212068   9.348   3.120  10.014 -0.0736 -0.8570  0.0227
 2538SOL     OW12069   7.933   8.098   0.836 -0.0267 -0.0244 -0.7770
 2538SOL    HW112070   7.961   8.175   0.884  0.9829 -1.3433  0.8700
 2538SOL    HW212071   7.995   8.030   0.863 -0.7061 -1.3444 -2.3871
 2539SOL     OW12072   6.681   0.101   3.108  0.2218 -0.1992  0.6776
 2539SOL    HW112073   6.662   0.193   3.128 -1.0799 -0.2041 -0.4200
 2539SOL    HW212074   6.595   0.060   3.101  0.7476 -1.1477 -0.4238
 2540SOL     OW12075   3.261   8.725   6.450 -0.2689 -0.6004 -0.8247
 2540SOL    HW112076   3.253   8.692   6.360 -0.1369  1.0467 -1.4935
 2540SOL    HW212077   3.355   8.737   6.462 -0.2202 -1.6273 -0.1362
 2541SOL     OW12078   7.702   7.251   4.899  0.1639  0.7079  0.1237
 2541SOL    HW112079   7.614   7.220   4.921 -0.2402  1.5092 -0.3217
 2541SOL    HW212080   7.719   7.216   4.812  0.3931  0.3542  0.3058
 2542SOL     OW12081   7.902   9.597   2.001  0.1927  0.0223  0.5895
 2542SOL    HW112082   7.960   9.572   2.073  0.4570 -0.3016  0.2666
 2542SOL    HW212083   7.960   9.635   1.935 -0.0264  0.1522  0.4689
 2543SOL     OW12084   8.963   7.552   7.892  0.4578  0.6980  0.5455
 2543SOL    HW112085   8.986   7.616   7.959  0.4627  2.4418 -1.0409
 2543SOL    HW212086   9.040   7.496   7.884  0.4734  0.4841  1.9202
 2544SOL     OW12087   7.100  11.043   0.342 -0.2969  0.5372 -0.2767
 2544SOL    HW112088   7.163  11.014   0.275 -1.2673 -3.8997  0.4600
 2544SOL    HW212089   7.155  11.067   0.417  0.6491 -1.0741 -0.4045
 2545SOL     OW12090   4.517   0.479   9.340 -0.4253  0.1287 -1.0569
 2545SOL    HW112091   4.522   0.571   9.368 -0.6281  0.0081 -0.6151
 2545SOL    HW212092   4.608   0.450   9.340 -0.4668 -0.0608  0.1631
 2546SOL     OW12093   2.731   4.330   3.438 -0.4512  0.2403  0.1334
 2546SOL    HW112094   2.774   4.380   3.368 -2.5674  1.0545 -0.6868
 2546SOL    HW212095   2.754   4.376   3.518  0.9791  0.0524 -0.1473
 2547SOL     OW12096   9.589   0.627   1.308  0.0426  0.1886 -0.3065
 2547SOL    HW112097   9.594   0.641   1.402 -1.9531 -2.1297  0.2587
 2547SOL    HW212098   9.496   0.637   1.287  0.3122 -0.2493 -1.8639
 2548SOL     OW12099   6.121   0.332   5.131  0.1444 -0.4723 -0.1794
 2548SOL    HW112100   6.068   0.406   5.103  0.4986  0.7465  2.1220
 2548SOL    HW212101   6.067   0.255   5.113 -2.1048  0.6562  1.3340
 2549SOL     OW12102   4.227   7.251   7.457 -0.0010  0.4137 -0.1902
 2549SOL    HW112103   4.174   7.214   7.528 -0.4582 -0.4787 -0.9812
 2549SOL    HW212104   4.258   7.175   7.408  0.4533  1.0151 -0.8500
 2550SOL     OW12105   8.934   4.298   8.751  0.0802  0.4352  0.3632
 2550SOL    HW112106   8.902   4.229   8.693  1.4976 -1.5970  1.8591
 2550SOL    HW212107   8.981   4.358   8.694 -1.3421  0.3202 -1.0077
 2551SOL     OW12108   8.134   8.216   6.887 -0.4247  0.2937 -0.0850
 2551SOL    HW112109   8.194   8.240   6.816 -1.2180 -2.3489 -1.7781
 2551SOL    HW212110   8.086   8.297   6.905 -1.1146  0.8116 -3.5284
 2552SOL     OW12111   4.800   3.578   4.836 -0.0278 -0.1741  0.5803
 2552SOL    HW112112   4.882   3.624   4.855  0.4838 -1.4133  1.4763
 2552SOL    HW212113   4.796   3.508   4.900  0.0339 -2.4316 -1.7291
 2553SOL     OW12114   8.524   3.545   5.626 -0.5846  0.0751 -0.3404
 2553SOL    HW112115   8.491   3.633   5.611  0.3001  0.4243 -0.3012
 2553SOL    HW212116   8.447   3.489   5.621 -0.9462  0.6639 -1.9753
 2554SOL     OW12117   8.327  10.147   7.149  0.0074 -0.1524 -0.5552
 2554SOL    HW112118   8.389  10.208   7.189  0.0378  0.0453 -0.9063
 2554SOL    HW212119   8.335  10.163   7.055 -0.4299 -0.2689 -0.6108
 2555SOL     OW12120   3.371   0.865   7.468  0.2491  0.5396  0.5389
 2555SOL    HW112121   3.404   0.810   7.539  0.7452 -1.0334 -0.8361
 2555SOL    HW212122   3.295   0.909   7.505 -0.1466 -1.0514  1.7369
 2556SOL     OW12123   5.390   9.401   7.149  0.1044  0.2176 -0.2014
 2556SOL    HW112124   5.459   9.386   7.213  1.3909  0.0146 -1.5642
 2556SOL    HW212125   5.394   9.324   7.092 -0.2531  0.8991 -1.1737
 2557SOL     OW12126   7.102   5.502   0.975 -0.5948 -0.1607 -0.5679
 2557SOL    HW112127   7.179   5.508   0.919 -1.1371 -1.4253 -1.4876
 2557SOL    HW212128   7.034   5.464   0.920 -2.0109  1.2433  0.1187
 2558SOL     OW12129   4.977   3.430   2.068 -0.1672 -0.1536 -0.1409
 2558SOL    HW112130   4.984   3.368   1.995 -2.5118 -0.0573 -0.5248
 2558SOL    HW212131   4.947   3.511   2.027 -2.0219 -0.2427  0.9145
 2559SOL     OW12132   9.237  10.084   1.868 -0.2964 -0.2533 -0.3651
 2559SOL    HW112133   9.211  10.133   1.790  0.5767 -0.1319 -0.5965
 2559SOL    HW212134   9.284  10.008   1.834 -1.6626 -1.2849 -0.0073
 2560SOL     OW12135   4.721   9.015   7.160 -0.4148 -0.1130 -0.1514
 2560SOL    HW112136   4.786   9.077   7.127 -1.9497  1.5384 -0.2449
 2560SOL    HW212137   4.766   8.930   7.159  1.3149  0.7492 -1.3601
 2561SOL     OW12138   5.736   6.121   5.529  0.3789 -0.1039  0.0025
 2561SOL    HW112139   5.657   6.081   5.491  1.1393 -2.6313  0.8639
 2561SOL    HW212140   5.703   6.185   5.591 -1.0060 -0.8388  0.0660
 2562SOL     OW12141   4.631   3.234   5.531  0.2676  0.0568 -0.7146
 2562SOL    HW112142   4.597   3.153   5.568  0.8820  0.0764 -0.1046
 2562SOL    HW212143   4.613   3.226   5.437 -2.4712  0.5607 -0.3373
 2563SOL     OW12144   7.898   0.392   4.423 -0.1923 -0.0563 -0.5528
 2563SOL    HW112145   7.884   0.450   4.347 -0.0186 -0.2460 -0.7321
 2563SOL    HW212146   7.991   0.403   4.444 -0.3274  0.2825 -0.1286
 2564SOL     OW12147   6.683   1.775   3.302  0.1766  0.3143  0.7259
 2564SOL    HW112148   6.624   1.764   3.228  1.4086  1.5557 -0.4837
 2564SOL    HW212149   6.770   1.764   3.266  0.7813 -1.9911  2.5704
 2565SOL     OW12150   4.765   0.361   6.170 -0.4318  0.3926  0.0998
 2565SOL    HW112151   4.792   0.450   6.190 -1.3114  0.7889 -0.4375
 2565SOL    HW212152   4.847   0.315   6.151 -0.0915  1.5019 -1.2388
 2566SOL     OW12153   7.054   2.114   4.961 -0.3976 -0.7849  0.1338
 2566SOL    HW112154   6.966   2.149   4.948  0.5258  1.7759  0.2729
 2566SOL    HW212155   7.097   2.123   4.876  0.4743  0.3566  0.6650
 2567SOL     OW12156   8.960   8.014   5.687  0.2445 -0.5300  0.4296
 2567SOL    HW112157   8.954   7.997   5.781  1.4971  0.7823  0.7762
 2567SOL    HW212158   9.041   7.970   5.659 -0.1357 -0.9428 -0.0648
 2568SOL     OW12159   8.048   0.683   3.881 -0.4136 -0.3456  0.1437
 2568SOL    HW112160   8.083   0.691   3.793 -0.6035 -1.2987 -0.0313
 2568SOL    HW212161   8.097   0.610   3.920  0.6135  0.8930  1.3069
 2569SOL     OW12162   4.424   5.543   3.908  0.4613 -0.6288  0.7783
 2569SOL    HW112163   4.386   5.578   3.989 -0.8473  0.8733 -0.4342
 2569SOL    HW212164   4.368   5.469   3.885 -0.1578 -0.0349  0.3745
 2570SOL     OW12165  10.753   8.483   4.411  0.7277  0.7558 -0.3039
 2570SOL    HW112166  10.733   8.393   4.387 -0.2231  0.9811 -0.3917
 2570SOL    HW212167  10.720   8.536   4.338  1.9286  1.1360 -0.5939
 2571SOL     OW12168   4.657  10.762   3.819 -0.6948 -0.5124  0.3065
 2571SOL    HW112169   4.611  10.747   3.901 -0.0408 -0.0932  0.7544
 2571SOL    HW212170   4.736  10.708   3.825 -0.5629 -0.3535  0.0268
 2572SOL     OW12171   1.607   5.941   0.190  0.1444 -0.5943  0.1699
 2572SOL    HW112172   1.649   6.003   0.131 -0.8122 -0.3031 -0.2273
 2572SOL    HW212173   1.581   5.995   0.265 -0.3112 -0.5916  0.0128
 2573SOL     OW12174   7.140   1.591   9.033  0.1214 -0.4212 -0.4631
 2573SOL    HW112175   7.155   1.574   9.126 -0.9182 -1.4674 -0.4734
 2573SOL    HW212176   7.191   1.524   8.988 -2.4209 -2.4576 -0.5356
 2574SOL     OW12177   9.524   2.318   9.743 -0.2002 -0.0955  0.0839
 2574SOL    HW112178   9.501   2.273   9.662  0.6216  0.1760 -0.3189
 2574SOL    HW212179   9.607   2.278   9.769 -0.9449 -0.8865  1.3496
 2575SOL     OW12180   7.815   9.584   9.355  0.1715 -0.6710 -0.1693
 2575SOL    HW112181   7.726   9.557   9.377  0.6197 -1.9710  0.1631
 2575SOL    HW212182   7.823   9.567   9.261 -0.0555 -0.1872 -0.2755
 2576SOL     OW12183   2.278   0.450   7.526 -0.3316 -0.4329 -0.1427
 2576SOL    HW112184   2.286   0.465   7.431 -2.2684  1.7684 -0.0686
 2576SOL    HW212185   2.342   0.510   7.565 -1.4721  0.7758 -0.0515
 2577SOL     OW12186   0.062   7.829   8.455  0.3622 -0.2106 -0.2665
 2577SOL    HW112187   0.111   7.750   8.472 -0.4118 -0.9170 -1.1768
 2577SOL    HW212188  -0.013   7.800   8.402 -1.4350  0.6881  1.6049
 2578SOL     OW12189   5.359  10.331   4.859  0.0909 -0.3975  0.3155
 2578SOL    HW112190   5.353  10.264   4.791 -0.0770  0.4722 -0.5403
 2578SOL    HW212191   5.269  10.343   4.889 -0.2324  1.0054 -1.0944
 2579SOL     OW12192   9.376   6.691   3.771 -0.5980  0.1857  0.4088
 2579SOL    HW112193   9.361   6.654   3.683 -3.0987  2.8280 -0.4293
 2579SOL    HW212194   9.409   6.617   3.822  0.1225 -1.6924 -2.4935
 2580SOL     OW12195   7.667   0.353   0.015 -0.2628 -0.7082 -0.0949
 2580SOL    HW112196   7.711   0.326   0.095  0.6808  1.1452  0.0643
 2580SOL    HW212197   7.724   0.422  -0.022 -1.9686  0.2967 -0.9805
 2581SOL     OW12198  10.004   5.850   5.048 -0.0816  0.0032  0.3651
 2581SOL    HW112199   9.950   5.904   5.105  0.3290 -0.4513  1.2035
 2581SOL    HW212200  10.084   5.834   5.099  0.0303 -0.9318 -0.0954
 2582SOL     OW12201   8.737   8.586   4.522 -0.4113  0.5777  0.1852
 2582SOL    HW112202   8.765   8.661   4.574  0.0537  0.9948 -0.6329
 2582SOL    HW212203   8.724   8.621   4.434  1.9647 -0.6701 -0.7667
 2583SOL     OW12204   1.078   3.748   0.454  0.7569  0.5062 -0.0300
 2583SOL    HW112205   1.126   3.684   0.402  2.4663 -1.1364  3.2677
 2583SOL    HW212206   1.006   3.698   0.492  0.7841  1.1114  0.8403
 2584SOL     OW12207   3.934   9.612   9.292 -0.1666  0.4902 -0.5525
 2584SOL    HW112208   3.878   9.686   9.314 -1.5024 -0.6565  0.1106
 2584SOL    HW212209   3.927   9.603   9.197 -2.0104 -0.2549 -0.3894
 2585SOL     OW12210  10.463  10.966   4.931 -0.1935 -0.0166 -0.3859
 2585SOL    HW112211  10.473  10.873   4.951  0.1806  0.2892  0.9391
 2585SOL    HW212212  10.369  10.980   4.927 -0.2528 -0.4312 -0.4998
 2586SOL     OW12213   8.910   1.569   2.601  0.2671 -0.1362  0.1565
 2586SOL    HW112214   9.000   1.537   2.602  0.0204 -1.1324  3.6406
 2586SOL    HW212215   8.908   1.639   2.665 -1.2911  0.3844 -0.4085
 2587SOL     OW12216   0.169   1.374   3.817  0.0303 -0.1835 -0.3342
 2587SOL    HW112217   0.186   1.310   3.747  0.8836 -1.6559  1.1405
 2587SOL    HW212218   0.227   1.347   3.888  2.0940  3.5651 -0.3657
 2588SOL     OW12219   2.271   9.891   1.058  0.0047 -0.2062  0.2512
 2588SOL    HW112220   2.184   9.908   1.094  0.5062  2.0133  0.5267
 2588SOL    HW212221   2.331   9.937   1.117  1.3952 -1.7261  0.0910
 2589SOL     OW12222   9.068   1.668   7.487 -0.0420 -0.1615  0.2470
 2589SOL    HW112223   9.069   1.574   7.505 -0.3881  0.1501  2.0644
 2589SOL    HW212224   9.077   1.674   7.392 -0.3887 -2.0369  0.0551
 2590SOL     OW12225   6.474   9.823   3.683  0.6894  0.4642 -0.7799
 2590SOL    HW112226   6.507   9.903   3.722 -0.3972  1.7441 -2.3268
 2590SOL    HW212227   6.472   9.841   3.589  0.1398 -1.2738 -1.1462
 2591SOL     OW12228   9.426   7.949   0.948 -0.0390 -0.2099 -0.3853
 2591SOL    HW112229   9.415   8.041   0.924 -1.9714 -0.5519 -0.9954
 2591SOL    HW212230   9.508   7.946   0.997  1.0808  1.4930 -2.0494
 2592SOL     OW12231   8.819   1.465   0.220 -0.2079  0.0007 -0.8250
 2592SOL    HW112232   8.891   1.411   0.252  1.6999  1.4680 -2.3697
 2592SOL    HW212233   8.847   1.491   0.132 -3.0779 -0.0984 -1.8510
 2593SOL     OW12234   4.698   3.919  10.248  0.5049 -0.2384  0.3578
 2593SOL    HW112235   4.778   3.952  10.208  1.1591  0.2668  1.9974
 2593SOL    HW212236   4.644   3.997  10.262  0.4518 -0.3568  0.8141
 2594SOL     OW12237   1.005   4.932   0.169 -0.0080 -0.6677  0.6356
 2594SOL    HW112238   1.042   4.855   0.126  1.1282  0.6984 -1.0201
 2594SOL    HW212239   1.045   4.934   0.256 -0.6308 -2.3013  0.9895
 2595SOL     OW12240  10.079   2.104   2.025 -0.7147  0.7121  0.4163
 2595SOL    HW112241  10.029   2.064   2.096  1.5393  0.0796  1.7529
 2595SOL    HW212242  10.086   2.035   1.959  0.5630 -0.1477  1.3889
 2596SOL     OW12243  10.321   4.260   7.369 -0.1531  0.1756 -0.4852
 2596SOL    HW112244  10.320   4.355   7.370  1.1405  0.2141  0.9897
 2596SOL    HW212245  10.408   4.237   7.337 -0.4156 -0.5095 -0.7243
 2597SOL     OW12246   8.667   5.192   1.010 -0.6524 -0.6875 -0.9967
 2597SOL    HW112247   8.673   5.277   1.053 -0.1069 -1.7339  1.1455
 2597SOL    HW212248   8.748   5.184   0.960  0.8698 -1.1566  1.3358
 2598SOL     OW12249   4.931   8.615  10.188  0.0467 -0.0838  0.9357
 2598SOL    HW112250   4.960   8.685  10.130 -0.7987  1.1099  1.8912
 2598SOL    HW212251   5.009   8.561  10.202  0.9728  1.2208  0.9356
 2599SOL     OW12252   8.590   9.566   1.612 -0.0057  0.2170 -0.4331
 2599SOL    HW112253   8.504   9.564   1.569  0.0178  1.1328 -0.5473
 2599SOL    HW212254   8.651   9.535   1.546 -0.3557 -1.3491 -0.0540
 2600SOL     OW12255   1.791   7.712   2.010  0.0415 -0.2395  0.4410
 2600SOL    HW112256   1.731   7.703   1.936 -0.3462 -3.2100  0.9541
 2600SOL    HW212257   1.736   7.743   2.082  0.1030  1.2424 -0.1361
 2601SOL     OW12258   6.758   5.307   3.293  0.1515  0.6077 -0.7891
 2601SOL    HW112259   6.853   5.310   3.290  0.2178 -0.4465 -0.0283
 2601SOL    HW212260   6.735   5.334   3.382 -0.2248  0.2035 -0.7581
 2602SOL     OW12261   5.792   3.693  10.243  0.6424 -0.7091  0.1226
 2602SOL    HW112262   5.821   3.771  10.290 -0.7556  0.4569 -0.8443
 2602SOL    HW212263   5.873   3.652  10.213  1.4211  0.2860  0.7662
 2603SOL     OW12264   5.126   0.993   2.015 -0.1225  0.3401  0.0599
 2603SOL    HW112265   5.162   1.080   2.031  1.4427  0.1433 -2.0115
 2603SOL    HW212266   5.115   0.955   2.103  1.8112  1.5893  0.8926
 2604SOL     OW12267   0.429   9.753   4.010  0.3988  0.2053  0.1767
 2604SOL    HW112268   0.343   9.753   4.052  0.5126 -0.1465  0.4080
 2604SOL    HW212269   0.410   9.743   3.917  0.1436  1.0393  0.1260
 2605SOL     OW12270   3.820   8.057   6.175  0.1015 -0.0195 -0.0199
 2605SOL    HW112271   3.824   8.082   6.083 -0.5981  1.8064  0.4079
 2605SOL    HW212272   3.753   7.988   6.178  1.7344 -1.7293 -1.1665
 2606SOL     OW12273   3.200   0.747   9.376 -0.2593  0.6554 -0.3298
 2606SOL    HW112274   3.216   0.653   9.369 -0.3600  0.6835 -1.0672
 2606SOL    HW212275   3.147   0.768   9.298  1.9956  1.7962 -1.6455
 2607SOL     OW12276   2.720   6.837   2.422  0.2499 -0.3082 -0.4412
 2607SOL    HW112277   2.782   6.801   2.485 -1.6815  0.0557  1.8402
 2607SOL    HW212278   2.686   6.761   2.375  1.1866 -0.6803 -0.5365
 2608SOL     OW12279   0.556   1.742   9.718 -0.4154 -0.4753  0.8410
 2608SOL    HW112280   0.533   1.814   9.776 -2.7674 -2.3866  2.5267
 2608SOL    HW212281   0.509   1.761   9.636 -0.4359  0.2548  1.0205
 2609SOL     OW12282   4.224   8.748  10.762  0.1328 -0.1182  0.0539
 2609SOL    HW112283   4.238   8.668  10.813  1.5257  0.5397  0.7733
 2609SOL    HW212284   4.282   8.738  10.686  0.8319  0.4755  0.4915
 2610SOL     OW12285   8.721   3.515   8.462 -0.1619 -0.2284 -0.5026
 2610SOL    HW112286   8.684   3.594   8.423  0.2753  0.3351  0.1881
 2610SOL    HW212287   8.794   3.547   8.515 -0.2366 -1.0526  0.1172
 2611SOL     OW12288   7.348   3.674   7.330 -0.0526  0.0802  0.3823
 2611SOL    HW112289   7.412   3.628   7.276 -0.7234  0.6519 -0.9588
 2611SOL    HW212290   7.323   3.611   7.397  1.4356 -0.3604  0.5554
 2612SOL     OW12291   2.680   2.062  10.725  0.2217  0.1985 -0.4099
 2612SOL    HW112292   2.669   2.150  10.762 -2.5646 -0.7698  1.3041
 2612SOL    HW212293   2.719   2.078  10.638  0.7712  3.0065  0.2467
 2613SOL     OW12294   6.441   4.235   8.877 -0.2292 -0.4379  0.3988
 2613SOL    HW112295   6.509   4.194   8.930  0.2098 -1.1877 -0.7169
 2613SOL    HW212296   6.379   4.165   8.859 -0.6606 -0.0546  0.3825
 2614SOL     OW12297   1.743   7.021   8.344 -0.1055  0.1376 -0.1274
 2614SOL    HW112298   1.663   6.970   8.356 -0.3985  0.5813 -0.1762
 2614SOL    HW212299   1.715   7.098   8.294  0.5184 -0.1661 -0.9801
 2615SOL     OW12300   3.773   0.501   1.613 -0.1410  0.9234  0.1695
 2615SOL    HW112301   3.767   0.440   1.686  0.5428  0.6723  0.0259
 2615SOL    HW212302   3.763   0.447   1.535  3.3938  0.4262 -0.1159
 2616SOL     OW12303   0.203   8.671   7.104 -0.3410  0.2846 -0.0354
 2616SOL    HW112304   0.246   8.599   7.059 -1.4897  0.4065 -1.3774
 2616SOL    HW212305   0.203   8.644   7.196 -0.3970 -1.2467 -0.4558
 2617SOL     OW12306   7.542  10.156   4.065 -0.4005 -0.4164 -0.1229
 2617SOL    HW112307   7.545  10.165   4.160  2.1949 -1.1424 -0.0737
 2617SOL    HW212308   7.475  10.090   4.049 -1.3149  0.1711  1.1327
 2618SOL     OW12309   3.234  10.478   5.874 -0.0762  0.4494 -0.4943
 2618SOL    HW112310   3.145  10.513   5.879  1.3873  4.5636  1.7175
 2618SOL    HW212311   3.267  10.485   5.964  2.6602 -0.4572 -1.3441
 2619SOL     OW12312  10.760   0.607   6.782  0.1631  0.8157  0.2482
 2619SOL    HW112313  10.729   0.639   6.867 -0.3916 -2.6870  1.5346
 2619SOL    HW212314  10.853   0.592   6.794 -0.5768 -4.0661  2.0832
 2620SOL     OW12315  10.204   8.103   0.998 -0.0481  0.0326 -0.2610
 2620SOL    HW112316  10.274   8.164   1.023  0.2607 -0.0570 -0.8929
 2620SOL    HW212317  10.130   8.159   0.975  0.7008  0.2692 -2.3022
 2621SOL     OW12318   1.376   9.782   5.767  0.2677  0.5026 -0.0301
 2621SOL    HW112319   1.364   9.876   5.760  0.2819  0.4202 -1.3220
 2621SOL    HW212320   1.425   9.757   5.689  2.0982 -0.2999  1.2923
 2622SOL     OW12321   8.258   3.035   3.572  0.1020  0.2222 -0.3675
 2622SOL    HW112322   8.244   3.118   3.617 -0.9833 -0.1170 -0.0542
 2622SOL    HW212323   8.349   3.040   3.542  0.2413  1.2701  0.1537
 2623SOL     OW12324   7.774   0.933   0.618  0.8298  0.0237 -0.3624
 2623SOL    HW112325   7.857   0.965   0.652  0.5217  1.8448 -1.2346
 2623SOL    HW212326   7.725   1.012   0.596 -0.7070 -1.0363 -0.8869
 2624SOL     OW12327   7.981   2.987   9.948  0.3758  0.2546  0.4746
 2624SOL    HW112328   8.019   3.008  10.033  0.2502 -1.0594  0.8742
 2624SOL    HW212329   8.054   2.996   9.886  0.7441  0.1159  0.8840
 2625SOL     OW12330   5.608   2.140   1.267 -0.0463 -0.1999  0.3966
 2625SOL    HW112331   5.535   2.099   1.313  1.0308  1.5407  4.0203
 2625SOL    HW212332   5.594   2.234   1.280  2.2307  0.2172  0.1840
 2626SOL     OW12333   8.328  10.596   7.746  0.2120  0.0963 -0.5076
 2626SOL    HW112334   8.275  10.675   7.760  1.7939  1.0263  0.3923
 2626SOL    HW212335   8.418  10.628   7.740  1.0149 -1.7556  1.0048
 2627SOL     OW12336   6.425   9.938   2.578 -0.2755  0.6114 -0.0854
 2627SOL    HW112337   6.378   9.930   2.496  0.5620 -1.3666 -0.4323
 2627SOL    HW212338   6.357   9.941   2.645 -0.9331  0.6359 -0.7482
 2628SOL     OW12339   6.159   3.385   0.320 -0.2171 -0.0129 -0.5129
 2628SOL    HW112340   6.184   3.471   0.286  1.9763  0.2829  1.6147
 2628SOL    HW212341   6.216   3.324   0.275 -2.5157 -0.6134 -2.8459
 2629SOL     OW12342   4.635   9.133   6.286 -0.1438 -0.0536  0.4590
 2629SOL    HW112343   4.658   9.226   6.278  2.1198 -0.6741 -1.3371
 2629SOL    HW212344   4.543   9.129   6.261  0.3377  1.4623 -1.9036
 2630SOL     OW12345   9.262   2.490   8.065  0.2976 -0.2090 -0.5391
 2630SOL    HW112346   9.200   2.523   8.000 -0.8920 -0.9642  0.1620
 2630SOL    HW212347   9.226   2.405   8.092  0.7163  0.0834  1.1002
 2631SOL     OW12348   9.008   4.255   0.596  0.0663 -0.3707  0.1695
 2631SOL    HW112349   8.917   4.223   0.588 -0.1223 -0.3089  1.6482
 2631SOL    HW212350   8.999   4.346   0.625  0.6028 -0.2050 -0.1794
 2632SOL     OW12351   9.106   8.611   9.745  0.2206 -0.1560 -0.0647
 2632SOL    HW112352   9.121   8.557   9.667  0.0887  1.0877 -0.9932
 2632SOL    HW212353   9.139   8.558   9.818  2.6617 -0.3944 -1.2170
 2633SOL     OW12354   3.548   0.558   2.083  0.2209 -0.3640  0.1401
 2633SOL    HW112355   3.532   0.638   2.033  0.7772 -0.9113 -0.9281
 2633SOL    HW212356   3.558   0.589   2.173  0.0720  0.7308 -0.1970
 2634SOL     OW12357   3.465   7.610   6.364 -0.9902  0.2216 -0.0154
 2634SOL    HW112358   3.393   7.650   6.314 -1.6143  1.8540  2.0288
 2634SOL    HW212359   3.425   7.586   6.448  0.3224 -1.1215  0.2529
 2635SOL     OW12360   2.257  10.342   5.001  0.6169 -0.2936  0.1508
 2635SOL    HW112361   2.292  10.369   4.916 -1.2588  0.3950 -0.4334
 2635SOL    HW212362   2.264  10.420   5.056 -1.7978  0.5024 -0.5771
 2636SOL     OW12363   6.839   4.934  10.590 -0.4556 -0.0535 -0.4234
 2636SOL    HW112364   6.754   4.979  10.589 -1.2187 -1.4198 -1.7295
 2636SOL    HW212365   6.816   4.841  10.604  0.9768 -0.2416  0.9592
 2637SOL     OW12366  10.678  10.095   5.452  0.0833  0.3985 -0.1122
 2637SOL    HW112367  10.726  10.168   5.413  0.8837 -0.0990 -0.0982
 2637SOL    HW212368  10.586  10.114   5.434  0.3671  0.6560 -1.4206
 2638SOL     OW12369   4.736   7.598   7.017  0.1717 -0.1278  0.2465
 2638SOL    HW112370   4.794   7.664   6.979  0.0136 -0.1930 -0.1102
 2638SOL    HW212371   4.668   7.648   7.061  0.0742 -0.0479  0.0102
 2639SOL     OW12372   4.404  10.689   4.275 -0.2825  0.0813  0.4861
 2639SOL    HW112373   4.490  10.725   4.251 -0.5194 -0.0675 -0.6079
 2639SOL    HW212374   4.357  10.680   4.192 -1.4346  0.3332  1.0924
 2640SOL     OW12375   6.688   2.781   4.035 -0.5728  0.4695 -0.0886
 2640SOL    HW112376   6.724   2.702   4.075  0.0289  1.6719  1.8515
 2640SOL    HW212377   6.596   2.781   4.062 -0.2129  1.1816  1.1942
 2641SOL     OW12378   9.160   3.908  10.888 -0.5399  0.2976  0.4818
 2641SOL    HW112379   9.122   3.823  10.911  0.7871 -0.1119  1.2499
 2641SOL    HW212380   9.142   3.964  10.963  2.0991 -0.4905  1.8061
 2642SOL     OW12381   5.196   8.160   1.540  0.4246  0.6699 -0.4975
 2642SOL    HW112382   5.231   8.083   1.586 -1.3392 -0.6393 -1.2393
 2642SOL    HW212383   5.174   8.221   1.610 -0.8726 -0.7113  0.3625
 2643SOL     OW12384   6.069   9.789  10.594 -0.3788  0.0754 -0.0519
 2643SOL    HW112385   6.008   9.854  10.558 -1.0603 -0.0969  0.7711
 2643SOL    HW212386   6.155   9.827  10.579 -0.7867  1.5532  1.1031
 2644SOL     OW12387   0.962   4.611   9.885  0.0547  0.9556  0.8605
 2644SOL    HW112388   0.928   4.522   9.892  0.7556  0.7347  1.5886
 2644SOL    HW212389   0.905   4.654   9.820 -0.3913  0.0365  0.6338
 2645SOL     OW12390   6.872   8.617  10.285 -0.6054 -0.1169  0.3760
 2645SOL    HW112391   6.905   8.657  10.205  0.0186 -0.6310  0.3713
 2645SOL    HW212392   6.804   8.677  10.316  0.2220  0.8819  0.3078
 2646SOL     OW12393   2.397   8.243   0.786 -0.2392  0.4834 -0.0349
 2646SOL    HW112394   2.416   8.150   0.773 -0.5434  0.6624 -2.0921
 2646SOL    HW212395   2.462   8.289   0.733 -1.3000  1.3547 -0.6361
 2647SOL     OW12396   9.993  10.539  11.030 -0.0010 -0.2515  0.2097
 2647SOL    HW112397   9.981  10.445  11.041 -0.4949 -0.2665 -0.3797
 2647SOL    HW212398  10.087  10.550  11.017 -0.1043 -0.8551 -1.3146
 2648SOL     OW12399   3.227  10.808   4.429  0.3724  0.0551  0.5573
 2648SOL    HW112400   3.302  10.785   4.373 -0.3581 -1.1539  0.0318
 2648SOL    HW212401   3.216  10.902   4.417 -0.0331 -0.2300 -1.6957
 2649SOL     OW12402   9.197   8.285  10.330 -0.2956 -0.7910  0.0150
 2649SOL    HW112403   9.144   8.311  10.255 -1.1026 -2.9257 -0.2124
 2649SOL    HW212404   9.143   8.306  10.406  1.1465  2.8723  0.2455
 2650SOL     OW12405   8.298   5.972   8.723  0.2936  0.1478  0.3386
 2650SOL    HW112406   8.338   5.886   8.725  0.4427  0.2129  0.1873
 2650SOL    HW212407   8.314   6.004   8.634 -1.3760 -0.4372 -0.2203
 2651SOL     OW12408   1.989   0.134   3.392  0.2802 -0.2032  0.2270
 2651SOL    HW112409   2.045   0.201   3.431 -0.1569  0.9939 -1.0945
 2651SOL    HW212410   2.038   0.103   3.315  0.1111 -0.7928  0.3490
 2652SOL     OW12411   1.282   4.819   6.814 -0.0979 -0.0992 -0.6795
 2652SOL    HW112412   1.288   4.781   6.727 -3.5349  1.3167 -1.7004
 2652SOL    HW212413   1.213   4.768   6.858  1.8065 -1.0324  1.4536
 2653SOL     OW12414   7.024   8.161   1.817  0.7415 -0.0123  0.3163
 2653SOL    HW112415   6.954   8.223   1.797  1.1216 -0.0022 -1.0747
 2653SOL    HW212416   7.072   8.152   1.735  2.5947  0.2479  1.3180
 2654SOL     OW12417   2.697   7.617   3.501 -0.3444 -0.3505 -0.3116
 2654SOL    HW112418   2.750   7.543   3.530  1.4484  0.8307 -0.4645
 2654SOL    HW212419   2.634   7.631   3.572  0.4700 -0.8959  0.5344
 2655SOL     OW12420   8.301   7.762   0.895 -0.3293 -0.0042  0.1528
 2655SOL    HW112421   8.346   7.693   0.944 -1.5708  0.1030  1.5051
 2655SOL    HW212422   8.315   7.739   0.803  1.0501 -0.8796  0.5547
 2656SOL     OW12423   1.093   5.452   6.545 -0.7691  0.0003  0.9315
 2656SOL    HW112424   1.162   5.426   6.484 -0.4743  0.9374  0.8495
 2656SOL    HW212425   1.014   5.412   6.509 -0.9611  2.0491 -1.1633
 2657SOL     OW12426  10.143   5.197   9.352 -0.0770  0.1896 -0.0972
 2657SOL    HW112427  10.106   5.123   9.401 -1.2177 -0.6658 -2.1087
 2657SOL    HW212428  10.067   5.248   9.325  0.5810  1.1217 -0.2310
 2658SOL     OW12429   4.835   7.280   3.623 -0.2219  0.3548 -0.1867
 2658SOL    HW112430   4.845   7.344   3.553 -0.3016  0.2546 -0.2895
 2658SOL    HW212431   4.890   7.206   3.596  0.3907  0.6472  0.2500
 2659SOL     OW12432   8.184   7.514   6.670 -0.1862 -0.1226  0.1818
 2659SOL    HW112433   8.138   7.457   6.608  0.7744  0.1911 -0.8529
 2659SOL    HW212434   8.219   7.584   6.616  2.1491 -0.7409  0.7956
 2660SOL     OW12435   6.513   0.674   9.484  0.5094 -0.2857 -0.4819
 2660SOL    HW112436   6.558   0.595   9.453  0.7976 -0.0543 -0.6637
 2660SOL    HW212437   6.495   0.657   9.576  1.4320 -0.1736 -0.2732
 2661SOL     OW12438   0.838   4.575  10.921 -0.2581  0.4153  0.2427
 2661SOL    HW112439   0.840   4.516  10.845  0.5306  0.4198  0.2537
 2661SOL    HW212440   0.917   4.628  10.912 -0.0113  0.2413  1.2016
 2662SOL     OW12441   8.544   6.801   2.652  0.0759 -0.0218  0.0409
 2662SOL    HW112442   8.640   6.798   2.659  0.2702  0.2875 -2.0218
 2662SOL    HW212443   8.515   6.717   2.687  0.9837  0.3434  1.8056
 2663SOL     OW12444   3.386   6.566   5.205  0.6761 -0.2067  0.3488
 2663SOL    HW112445   3.330   6.616   5.145 -0.9654 -0.9510  1.1913
 2663SOL    HW212446   3.377   6.475   5.176  0.7545 -0.4362  1.0163
 2664SOL     OW12447   8.053   1.573   7.692  0.2763 -0.6922 -0.2550
 2664SOL    HW112448   8.015   1.485   7.686  0.5204 -0.8115 -0.0856
 2664SOL    HW212449   8.031   1.603   7.780  0.8397 -0.8941 -0.0329
 2665SOL     OW12450   0.728   8.418   4.432  0.1956  0.0294  0.3907
 2665SOL    HW112451   0.716   8.330   4.467  1.8078 -0.4953 -0.2826
 2665SOL    HW212452   0.796   8.409   4.366  0.1152  1.7221  0.0140
 2666SOL     OW12453   2.375   4.636  10.814 -0.3142  0.0128 -0.0188
 2666SOL    HW112454   2.445   4.684  10.858  0.2621  2.2081 -3.0227
 2666SOL    HW212455   2.302   4.697  10.811 -1.3985 -1.2079  0.5252
 2667SOL     OW12456   1.847   9.112   9.781 -0.3369  0.4789  0.3265
 2667SOL    HW112457   1.776   9.148   9.834 -0.8941 -0.8620  0.5404
 2667SOL    HW212458   1.820   9.127   9.691  1.7605  5.0633  0.1837
 2668SOL     OW12459   5.501   9.248   2.372 -0.4653 -0.1904 -0.2375
 2668SOL    HW112460   5.446   9.254   2.294 -0.1913  2.1830 -0.3096
 2668SOL    HW212461   5.590   9.248   2.338 -0.3191  1.6577  0.0404
 2669SOL     OW12462   8.874   9.301   9.582 -0.6164 -0.0795  0.0973
 2669SOL    HW112463   8.862   9.299   9.487  0.0064 -0.3277  0.0222
 2669SOL    HW212464   8.958   9.259   9.597 -0.9056 -0.4197  0.7988
 2670SOL     OW12465   8.799   5.196   9.169 -0.5686 -0.4549 -0.5125
 2670SOL    HW112466   8.888   5.220   9.142 -0.4470 -2.9043 -2.7550
 2670SOL    HW212467   8.751   5.279   9.171  1.4910  0.8093 -0.2507
 2671SOL     OW12468  10.870   0.753  10.093  0.9291 -0.3559  0.6493
 2671SOL    HW112469  10.919   0.685  10.048  0.2673 -0.5614  0.2245
 2671SOL    HW212470  10.794   0.708  10.131  0.1308  0.2361 -0.1824
 2672SOL     OW12471   1.615   3.252   6.454  0.2059 -0.3613 -0.4255
 2672SOL    HW112472   1.520   3.262   6.454  0.0691 -1.4775  0.5406
 2672SOL    HW212473   1.632   3.179   6.395  0.3642 -0.8374  0.1936
 2673SOL     OW12474   5.147   6.739   4.023  0.7295 -0.1381  0.6185
 2673SOL    HW112475   5.076   6.736   4.087 -0.7955  2.3673 -0.8103
 2673SOL    HW212476   5.109   6.703   3.943  0.7115  1.9855 -0.3979
 2674SOL     OW12477   6.691   3.364   6.068  0.2902  0.0561  0.2215
 2674SOL    HW112478   6.773   3.317   6.082  1.1636  0.7233 -2.1933
 2674SOL    HW212479   6.702   3.446   6.117  1.0203  0.0798  0.0262
 2675SOL     OW12480   7.213   1.387   1.313 -0.2312  0.1867 -0.1251
 2675SOL    HW112481   7.177   1.299   1.306  0.3316 -0.1853  1.4071
 2675SOL    HW212482   7.282   1.380   1.378  0.2568  1.6342 -0.4532
 2676SOL     OW12483   3.390   0.974   2.669  0.0898  0.2999  0.7807
 2676SOL    HW112484   3.397   1.070   2.669 -1.9685  0.5000  1.5990
 2676SOL    HW212485   3.298   0.957   2.689 -0.0053 -1.8512 -1.1229
 2677SOL     OW12486   0.365   3.001  10.346 -0.0712 -0.2914  0.1275
 2677SOL    HW112487   0.293   3.060  10.368  1.1174  1.6262 -0.8235
 2677SOL    HW212488   0.343   2.918  10.390 -1.8829  0.7891  1.3979
 2678SOL     OW12489  10.807   0.535  10.570 -0.0649 -0.0858 -0.1025
 2678SOL    HW112490  10.818   0.463  10.633  3.3436 -1.0168 -1.5257
 2678SOL    HW212491  10.893   0.544  10.529 -0.7098  4.0064 -0.9434
 2679SOL     OW12492   6.986   4.057   7.720 -0.1542  0.4734 -0.3709
 2679SOL    HW112493   6.934   4.102   7.653 -0.9194 -2.2459 -1.7564
 2679SOL    HW212494   7.072   4.099   7.717 -0.7618  1.6975 -1.6618
 2680SOL     OW12495   2.970   0.991   9.905 -0.0156  0.2474 -0.6430
 2680SOL    HW112496   2.909   1.048   9.953 -0.8886 -1.7204  0.7084
 2680SOL    HW212497   3.044   0.981   9.964  0.3292  0.2898 -1.0618
 2681SOL     OW12498   2.759   1.952   1.877  0.6717  0.1216  0.0911
 2681SOL    HW112499   2.823   1.976   1.811  2.3427 -1.1765  1.1527
 2681SOL    HW212500   2.766   2.020   1.944 -0.8791  1.3269 -0.9033
 2682SOL     OW12501   3.265   4.487   4.128  0.2120 -0.0263 -0.8667
 2682SOL    HW112502   3.201   4.495   4.057 -1.6537 -1.7341  0.4974
 2682SOL    HW212503   3.216   4.514   4.206  1.3663 -0.7665  0.1428
 2683SOL     OW12504   7.536   9.166   0.995 -0.1986  0.0192  0.2739
 2683SOL    HW112505   7.482   9.235   1.033  1.2340  1.0818  0.4898
 2683SOL    HW212506   7.518   9.171   0.901  0.5858  1.3761  0.1607
 2684SOL     OW12507   9.821   8.506   2.129  0.1138 -0.3880 -0.2619
 2684SOL    HW112508   9.772   8.585   2.105  2.0496  0.9175 -0.1875
 2684SOL    HW212509   9.755   8.437   2.134 -1.4781  0.9632 -1.5221
 2685SOL     OW12510  10.332   9.430   5.045 -0.2797  0.5959  0.2022
 2685SOL    HW112511  10.280   9.364   5.092  1.2769  0.1732  1.3968
 2685SOL    HW212512  10.356   9.494   5.111  0.6670  0.8152 -0.3329
 2686SOL     OW12513   4.339  10.605   4.910  0.1620  0.0913 -0.1150
 2686SOL    HW112514   4.355  10.612   5.004 -0.9704 -0.0653  0.1008
 2686SOL    HW212515   4.425  10.618   4.870  0.9522 -1.4019  1.0102
 2687SOL     OW12516   7.960   4.778   4.995  0.4468  0.2044 -0.1730
 2687SOL    HW112517   8.034   4.719   5.010  0.3017 -0.9681 -3.4179
 2687SOL    HW212518   7.975   4.814   4.908 -1.8557  1.4135 -0.1400
 2688SOL     OW12519   4.615   5.366   4.744 -0.2917 -0.2771  0.3485
 2688SOL    HW112520   4.525   5.398   4.736 -0.7016 -1.1114  1.3096
 2688SOL    HW212521   4.605   5.273   4.765  0.8013 -0.4048  0.3556
 2689SOL     OW12522   1.140   9.128   9.477 -0.1882 -0.0549 -0.7501
 2689SOL    HW112523   1.218   9.091   9.519  0.3974  1.5569 -0.3700
 2689SOL    HW212524   1.136   9.218   9.509 -1.6112  0.2090 -1.6084
 2690SOL     OW12525   3.869   7.845   2.748 -0.6605  0.2356  0.0999
 2690SOL    HW112526   3.951   7.878   2.711 -1.6727  2.6209 -0.2197
 2690SOL    HW212527   3.896   7.774   2.807  1.4802  0.0423 -1.0136
 2691SOL     OW12528   2.643   2.407   4.818  0.1686  0.5777  0.0321
 2691SOL    HW112529   2.621   2.479   4.759  0.0962  1.5939  1.2299
 2691SOL    HW212530   2.612   2.437   4.904 -0.9967 -1.4344  0.3756
 2692SOL     OW12531   1.901   9.254   3.788 -0.2787 -0.0980 -0.3219
 2692SOL    HW112532   1.865   9.167   3.805  1.5496 -0.6666  0.9543
 2692SOL    HW212533   1.849   9.288   3.715 -3.4548 -0.7454  1.4416
 2693SOL     OW12534   8.736   8.199  10.240 -0.7722  0.2520 -0.1032
 2693SOL    HW112535   8.662   8.260  10.242 -1.1748 -0.0875 -2.0566
 2693SOL    HW212536   8.701   8.121  10.197  0.9931  0.5926 -2.3807
 2694SOL     OW12537   0.363   2.109   2.261 -0.2820 -0.4670  0.2726
 2694SOL    HW112538   0.274   2.077   2.275 -0.8751  0.7072 -0.6117
 2694SOL    HW212539   0.381   2.092   2.169  1.0493 -2.1428  0.7972
 2695SOL     OW12540  10.051   4.723   1.997  0.3275 -0.6112 -0.3089
 2695SOL    HW112541   9.957   4.715   2.011  0.7236 -2.6230  1.6135
 2695SOL    HW212542  10.080   4.635   1.971  1.7326 -0.1144 -0.5452
 2696SOL     OW12543   7.198   3.545   6.358 -0.0215  0.1460  0.0555
 2696SOL    HW112544   7.112   3.569   6.323 -0.2217 -1.4790 -0.6232
 2696SOL    HW212545   7.184   3.538   6.452 -0.2715  1.2680  0.1248
 2697SOL     OW12546   7.588   4.595   0.063  0.3559  0.0594  0.0496
 2697SOL    HW112547   7.513   4.654   0.050  0.4774  0.0217 -0.8778
 2697SOL    HW212548   7.549   4.510   0.083  0.1312 -0.0873 -0.9711
 2698SOL     OW12549   4.621  10.613   4.817  0.8344  0.4142  0.1908
 2698SOL    HW112550   4.592  10.530   4.780 -0.7934  0.2974  1.5635
 2698SOL    HW212551   4.652  10.591   4.905 -1.1721  1.3806  1.2228
 2699SOL     OW12552   7.693   8.950   7.849  0.6894 -0.1976  0.2732
 2699SOL    HW112553   7.703   9.029   7.903 -1.8630  0.6455 -0.3361
 2699SOL    HW212554   7.650   8.981   7.770 -1.3242 -2.3060  0.4282
 2700SOL     OW12555   1.712   4.536   2.114 -1.0477  0.2192 -0.3613
 2700SOL    HW112556   1.754   4.468   2.061 -0.7256  0.4620 -0.4231
 2700SOL    HW212557   1.649   4.489   2.168  0.5478 -0.4237  1.0438
 2701SOL     OW12558   2.693   1.389   1.820 -0.8262  0.3132 -0.0580
 2701SOL    HW112559   2.644   1.308   1.807  2.1093 -1.6152 -0.2116
 2701SOL    HW212560   2.719   1.416   1.731 -0.6225  0.5970  0.0862
 2702SOL     OW12561   0.035   1.958   1.055  0.1819 -0.6025  0.3424
 2702SOL    HW112562   0.016   2.028   1.118  1.7742  1.7765 -1.5951
 2702SOL    HW212563  -0.051   1.931   1.023 -0.5449 -0.5048  2.1075
 2703SOL     OW12564   0.483   3.470   7.371 -0.0216  0.3123 -0.1372
 2703SOL    HW112565   0.578   3.470   7.382 -0.0519  0.2537  0.1270
 2703SOL    HW212566   0.458   3.562   7.383  0.0046  0.3363 -0.2567
 2704SOL     OW12567   8.324  10.372   7.518  0.1699  0.0608  0.2938
 2704SOL    HW112568   8.333  10.415   7.603  0.7875  1.1455 -0.2799
 2704SOL    HW212569   8.231  10.353   7.509  0.1767 -0.5214  1.4179
 2705SOL     OW12570   2.738  10.483   7.999  0.3456  0.4548  0.5220
 2705SOL    HW112571   2.731  10.388   7.990  1.4678  0.4546 -0.7326
 2705SOL    HW212572   2.805  10.496   8.066  1.1892  0.3230 -0.2700
 2706SOL     OW12573   3.914   0.195   9.211 -0.3051  0.1494 -0.3536
 2706SOL    HW112574   3.987   0.145   9.247  0.0374  0.8528 -0.0539
 2706SOL    HW212575   3.946   0.225   9.125 -0.8015 -0.7935 -0.8891
 2707SOL     OW12576   9.369   2.311   1.027 -0.3596  0.0907 -0.5283
 2707SOL    HW112577   9.302   2.248   1.053 -1.1424  0.9708 -0.3786
 2707SOL    HW212578   9.364   2.314   0.932 -1.0197  0.6683 -0.4819
 2708SOL     OW12579   5.041   7.165   0.073 -0.0093  0.4947 -0.1092
 2708SOL    HW112580   5.026   7.257   0.049 -1.9286  1.0309  2.7179
 2708SOL    HW212581   5.115   7.169   0.133  1.3273 -0.1707 -1.6296
 2709SOL     OW12582   1.773   7.954   7.816  0.2524  0.5111  0.4151
 2709SOL    HW112583   1.702   7.979   7.757  0.1205 -1.3682 -0.2770
 2709SOL    HW212584   1.734   7.891   7.876  0.5367  1.9654  2.2059
 2710SOL     OW12585   7.286   9.477   4.309  0.2919 -0.2171 -0.0342
 2710SOL    HW112586   7.341   9.404   4.335 -1.5441 -1.2641  1.1724
 2710SOL    HW212587   7.197   9.448   4.328 -0.8123  1.0424 -2.7286
 2711SOL     OW12588   9.954  11.041   5.715 -0.4212  0.1123 -0.1596
 2711SOL    HW112589   9.870  10.999   5.697  0.1503 -0.8558 -0.6753
 2711SOL    HW212590   9.940  11.133   5.695 -1.0609 -0.2142 -1.3181
 2712SOL     OW12591   1.479   5.394   8.143 -0.2835 -0.0651 -0.6894
 2712SOL    HW112592   1.483   5.299   8.150 -0.5171 -0.1282 -1.3545
 2712SOL    HW212593   1.550   5.425   8.199 -0.9182 -0.5829  0.4297
 2713SOL     OW12594   6.324   5.940   1.028 -0.1531 -0.4600  0.5447
 2713SOL    HW112595   6.289   5.999   0.961 -0.0946  0.3523  1.2254
 2713SOL    HW212596   6.325   5.854   0.985  0.0191  0.0714 -0.5400
 2714SOL     OW12597   4.698   5.787   8.457 -0.0143  0.4316 -0.2337
 2714SOL    HW112598   4.755   5.850   8.500  1.9591  0.4246 -2.6387
 2714SOL    HW212599   4.743   5.765   8.375 -1.7310 -2.3819 -0.5634
 2715SOL     OW12600   7.523   6.874   5.436  0.3924 -0.1609 -0.0241
 2715SOL    HW112601   7.610   6.833   5.434 -0.0484 -1.0982 -0.6211
 2715SOL    HW212602   7.462   6.800   5.442 -0.3487  0.5108  1.4635
 2716SOL     OW12603   2.491   4.423   1.423 -0.2813 -0.0769 -0.6449
 2716SOL    HW112604   2.463   4.403   1.334  0.2761  0.1847 -0.8870
 2716SOL    HW212605   2.529   4.342   1.456  2.4074  0.5891 -1.7922
 2717SOL     OW12606  10.208  10.073   0.961  0.4456  0.5236  0.5699
 2717SOL    HW112607  10.138  10.008   0.958 -0.2699  1.3078 -0.1151
 2717SOL    HW212608  10.217  10.095   1.054 -1.0217  1.2723  0.5482
 2718SOL     OW12609   9.924   8.930   6.025 -0.0813  0.0859  0.1629
 2718SOL    HW112610   9.899   8.857   5.968  1.4712  0.9881 -1.8098
 2718SOL    HW212611  10.017   8.915   6.044  0.3250  1.6056 -0.4638
 2719SOL     OW12612   7.711   5.118   9.333 -0.1527 -0.3706  0.0039
 2719SOL    HW112613   7.714   5.211   9.311  0.0956 -0.4932 -0.4948
 2719SOL    HW212614   7.666   5.115   9.417 -0.4995  0.1698 -0.1538
 2720SOL     OW12615   7.860   0.270  10.805 -0.1522 -0.0554  0.3542
 2720SOL    HW112616   7.835   0.362  10.806  0.6475  0.1749 -0.0515
 2720SOL    HW212617   7.950   0.269  10.837  1.1912 -0.2370 -2.9784
 2721SOL     OW12618   3.724   2.867   3.040  0.0119 -0.0141 -0.1115
 2721SOL    HW112619   3.751   2.833   2.955 -0.2217 -1.6236  0.4137
 2721SOL    HW212620   3.642   2.914   3.023  0.0292 -0.2267 -0.8002
 2722SOL     OW12621   1.467   0.392   5.523 -0.3969  0.0748 -0.2256
 2722SOL    HW112622   1.538   0.452   5.501 -0.9226  0.5171 -0.7437
 2722SOL    HW212623   1.400   0.409   5.457 -0.6138 -0.9852 -0.2994
 2723SOL     OW12624   4.560   4.442   2.892  0.0956  0.2215 -0.2261
 2723SOL    HW112625   4.615   4.434   2.970  4.0121  1.6218 -2.5643
 2723SOL    HW212626   4.560   4.354   2.853 -1.3875 -0.3348  0.9145
 2724SOL     OW12627   8.864  10.975   3.199 -0.2555 -0.0701 -0.3347
 2724SOL    HW112628   8.824  10.903   3.150  1.0995 -0.2400 -1.2491
 2724SOL    HW212629   8.883  11.041   3.133  1.8499 -0.4120 -0.1375
 2725SOL     OW12630   8.502   0.956   5.836  0.2502  0.2112 -0.5403
 2725SOL    HW112631   8.416   0.942   5.795  0.4049  0.9159 -1.1110
 2725SOL    HW212632   8.563   0.961   5.763  1.1093 -2.2253 -0.0965
 2726SOL     OW12633   3.521   0.632   7.379 -0.5545  0.5438  0.0851
 2726SOL    HW112634   3.603   0.590   7.405 -0.8309  0.6999  1.2647
 2726SOL    HW212635   3.546   0.722   7.359 -0.4744  0.6893  0.7921
 2727SOL     OW12636   9.884   8.762   7.660 -0.3779 -0.2091 -0.1464
 2727SOL    HW112637   9.809   8.821   7.669 -0.3567 -0.2846  0.6061
 2727SOL    HW212638   9.886   8.740   7.567  0.4247  2.0232 -0.7143
 2728SOL     OW12639   9.995   0.557   1.601  0.2143 -0.4550 -0.4810
 2728SOL    HW112640   9.963   0.485   1.657 -0.4449  0.5443  0.4771
 2728SOL    HW212641  10.079   0.581   1.639  0.1545 -0.3234 -0.4320
 2729SOL     OW12642   5.936   6.648   7.559 -0.5727 -0.1149  0.4249
 2729SOL    HW112643   5.992   6.647   7.482  1.2285 -0.5226  1.6716
 2729SOL    HW212644   5.922   6.741   7.577  0.7013  0.0306  0.7570
 2730SOL     OW12645   6.914   6.397   9.475 -0.4362  0.5411 -0.1379
 2730SOL    HW112646   6.874   6.430   9.394 -2.6105  1.0726  1.0641
 2730SOL    HW212647   6.904   6.468   9.537 -1.5775 -0.8854  1.4031
 2731SOL     OW12648   1.471   0.011  10.234 -0.2779  0.4664  0.8737
 2731SOL    HW112649   1.495  -0.081  10.228  1.5187  0.6603  3.5081
 2731SOL    HW212650   1.389   0.012  10.283 -1.0254  0.2548 -0.3274
 2732SOL     OW12651   0.127  11.032   0.465  0.5528 -0.2207  0.3818
 2732SOL    HW112652   0.033  11.048   0.450  0.6989  1.0711  0.7219
 2732SOL    HW212653   0.153  10.976   0.391 -0.3012  0.0892 -0.1792
 2733SOL     OW12654   9.617   3.798   1.952 -0.9377  0.5484 -0.2521
 2733SOL    HW112655   9.549   3.865   1.942 -1.8951 -0.3545 -0.0039
 2733SOL    HW212656   9.568   3.718   1.972  0.0917 -0.4875 -1.7277
 2734SOL     OW12657   2.105   8.190   3.421  0.2950 -0.1472 -0.1285
 2734SOL    HW112658   2.168   8.259   3.442  0.1988 -0.0548 -0.1387
 2734SOL    HW212659   2.128   8.162   3.332  0.0672  0.1729 -0.2924
 2735SOL     OW12660   1.130   4.383   5.218  0.4498 -0.0464  0.1654
 2735SOL    HW112661   1.116   4.290   5.234  0.6810  0.0587  0.9993
 2735SOL    HW212662   1.043   4.422   5.227  0.1167 -0.3440 -1.4588
 2736SOL     OW12663   5.451   3.335   8.874  0.2204 -0.0634  0.4810
 2736SOL    HW112664   5.515   3.267   8.894  0.8645  0.6602  0.8948
 2736SOL    HW212665   5.463   3.353   8.781  0.0151 -0.5443  0.3601
 2737SOL     OW12666   2.342   7.756   8.350  0.3010  0.2270 -0.0817
 2737SOL    HW112667   2.279   7.809   8.301 -1.2330  0.4997  2.0700
 2737SOL    HW212668   2.413   7.817   8.372  1.0633  0.0819 -1.9205
 2738SOL     OW12669   6.725  10.307   6.250 -0.3159  0.4535 -0.0021
 2738SOL    HW112670   6.747  10.286   6.159 -0.3605 -1.3580  0.3732
 2738SOL    HW212671   6.797  10.272   6.301 -1.9810 -1.8805  0.9179
 2739SOL     OW12672   2.433   9.672   4.451 -0.1801 -0.1238  0.4070
 2739SOL    HW112673   2.491   9.596   4.446 -0.6223 -0.4600  0.3007
 2739SOL    HW212674   2.353   9.639   4.492 -1.6361 -0.5354 -2.5083
 2740SOL     OW12675   0.195   1.998   9.892 -0.2395 -0.6689  0.2408
 2740SOL    HW112676   0.214   1.907   9.870 -0.6439 -0.5846 -0.5257
 2740SOL    HW212677   0.213   2.005   9.985  3.4878 -0.5959 -0.3144
 2741SOL     OW12678   9.124   0.608   6.574 -0.6555 -0.0751  0.1006
 2741SOL    HW112679   9.117   0.625   6.668 -2.3015 -2.1486  0.4251
 2741SOL    HW212680   9.218   0.613   6.555  0.1475 -2.8735  2.6017
 2742SOL     OW12681   1.471   3.067   3.233 -0.2400  0.1750  0.0843
 2742SOL    HW112682   1.379   3.092   3.232 -0.6396 -1.1056  1.3427
 2742SOL    HW212683   1.494   3.053   3.141 -1.2461  0.6903 -0.2476
 2743SOL     OW12684   4.087   2.215   7.053 -0.8907 -0.2786 -0.4682
 2743SOL    HW112685   4.005   2.170   7.071 -0.0963 -1.6724 -0.1834
 2743SOL    HW212686   4.146   2.187   7.124  0.3674 -0.7952 -1.6631
 2744SOL     OW12687   5.655   9.905   3.354 -0.1378  0.0963  0.0971
 2744SOL    HW112688   5.679   9.902   3.447  0.3316  0.6036 -0.0014
 2744SOL    HW212689   5.616   9.819   3.336  0.0076 -0.0978  0.6979
 2745SOL     OW12690   5.079   2.854  10.482 -0.8094  0.0785 -0.1727
 2745SOL    HW112691   5.012   2.796  10.447 -0.4807 -1.0225  0.9590
 2745SOL    HW212692   5.089   2.921  10.415 -0.5615 -1.6548 -1.9768
 2746SOL     OW12693   2.032   3.039   8.879  0.3897  0.8461  0.0315
 2746SOL    HW112694   2.118   3.018   8.916  0.6420 -1.2085 -1.4856
 2746SOL    HW212695   2.020   2.974   8.809 -2.4360  1.0285  0.2333
 2747SOL     OW12696   9.023   2.728   8.129 -0.4936 -0.0579  0.8213
 2747SOL    HW112697   9.026   2.641   8.091  1.1211 -0.0366  0.8493
 2747SOL    HW212698   9.056   2.786   8.060  1.3669  0.1238  1.8133
 2748SOL     OW12699   4.838   1.304   6.571  0.1967  0.1604 -0.3039
 2748SOL    HW112700   4.778   1.315   6.497 -0.3279  0.0799  0.1015
 2748SOL    HW212701   4.923   1.330   6.536 -0.3770  2.1230 -0.3876
 2749SOL     OW12702   7.023   0.281   0.574 -0.4439  0.1767  0.7210
 2749SOL    HW112703   7.096   0.339   0.554  0.3387 -0.8995  0.3869
 2749SOL    HW212704   7.058   0.193   0.565 -1.6238 -0.3676  1.1595
 2750SOL     OW12705  10.767   3.538   1.114 -0.4002  0.2548 -0.3179
 2750SOL    HW112706  10.706   3.474   1.077 -0.8654  0.2186  0.4955
 2750SOL    HW212707  10.767   3.520   1.208 -0.8636  1.7204 -0.0092
 2751SOL     OW12708   4.558   5.126   6.345  0.4438 -0.3960  0.7055
 2751SOL    HW112709   4.465   5.105   6.351  0.1731  0.9068  1.6077
 2751SOL    HW212710   4.592   5.110   6.433  0.7989  0.2897  0.6974
 2752SOL     OW12711   4.917   2.241   3.448  0.6398  0.1843  0.1736
 2752SOL    HW112712   4.928   2.150   3.474  0.6407  0.7759  2.4317
 2752SOL    HW212713   4.832   2.266   3.483  0.1531  0.7978 -1.3419
 2753SOL     OW12714   9.344   1.948   0.767 -0.2522 -0.0480  0.4371
 2753SOL    HW112715   9.288   2.025   0.769  0.4478  0.6116 -1.9553
 2753SOL    HW212716   9.390   1.954   0.683 -0.5370 -3.3254 -0.0941
 2754SOL     OW12717   2.174  10.609   0.915  0.7108  0.0012 -0.0938
 2754SOL    HW112718   2.123  10.575   0.990 -1.2452 -0.2015 -1.4406
 2754SOL    HW212719   2.174  10.704   0.928  1.5330 -0.1088  0.8373
 2755SOL     OW12720  10.758   9.152   7.209 -0.1067 -0.2929  0.1666
 2755SOL    HW112721  10.759   9.186   7.299  0.0189  0.5576 -0.1455
 2755SOL    HW212722  10.819   9.078   7.211 -2.1701 -2.0879  1.4315
 2756SOL     OW12723   8.393   5.782   0.207 -0.1470  0.0515  1.1006
 2756SOL    HW112724   8.429   5.838   0.276  0.2203 -0.1669  1.0916
 2756SOL    HW212725   8.340   5.840   0.153  1.0729  0.6079  0.4746
 2757SOL     OW12726   1.425   8.127   1.715  0.4105 -0.2665  0.2688
 2757SOL    HW112727   1.429   8.035   1.688  2.9845 -0.4209  0.9283
 2757SOL    HW212728   1.370   8.169   1.649 -0.3693 -2.1612 -0.3601
 2758SOL     OW12729   0.558   1.222   1.488  0.7951 -0.3167 -0.3091
 2758SOL    HW112730   0.582   1.310   1.458  0.8826 -0.4560 -0.6534
 2758SOL    HW212731   0.624   1.200   1.554  0.4931  0.0672  0.1324
 2759SOL     OW12732   6.932   8.089   2.659  0.3869  0.1259 -0.2633
 2759SOL    HW112733   6.900   8.017   2.604  0.4122 -1.2406  1.4255
 2759SOL    HW212734   6.855   8.144   2.674 -0.9229 -2.1599  2.2798
 2760SOL     OW12735   3.729   0.008   9.560  0.5947  0.1186  0.4514
 2760SOL    HW112736   3.737  -0.060   9.628  2.1148  0.1784  0.3482
 2760SOL    HW212737   3.783   0.080   9.592  0.5168  0.5396 -0.3607
 2761SOL     OW12738   1.810   7.234   7.503  0.2824  0.5978  0.3404
 2761SOL    HW112739   1.805   7.250   7.598 -0.6534  1.0396  0.2255
 2761SOL    HW212740   1.736   7.282   7.467  0.9151  0.8212 -0.6806
 2762SOL     OW12741   6.677   1.547   8.668  0.6636  0.3109 -0.4217
 2762SOL    HW112742   6.619   1.507   8.733  0.5420 -0.6217 -1.0913
 2762SOL    HW212743   6.745   1.591   8.720  1.0980 -1.2190  0.3415
 2763SOL     OW12744   8.398   6.713   6.949  0.3559  0.7267  0.2167
 2763SOL    HW112745   8.438   6.713   7.036 -0.9080  0.0716  0.8289
 2763SOL    HW212746   8.304   6.719   6.967  0.0847  0.6162 -1.1136
 2764SOL     OW12747   7.552   4.816   6.695  0.0837  0.2891  0.2643
 2764SOL    HW112748   7.473   4.798   6.644  1.1889 -1.4417 -0.9548
 2764SOL    HW212749   7.567   4.910   6.686 -0.7903  0.3131 -1.0631
 2765SOL     OW12750  10.529   9.895   9.324  0.1801 -0.1982 -0.1157
 2765SOL    HW112751  10.546   9.901   9.230 -0.2313  0.4549 -0.1556
 2765SOL    HW212752  10.613   9.913   9.365  0.7250 -1.9647 -0.3635
 2766SOL     OW12753   9.645   9.992   5.288  0.2191  0.5506 -0.3772
 2766SOL    HW112754   9.733   9.966   5.262 -0.0410  1.0517 -1.8520
 2766SOL    HW212755   9.653  10.085   5.311  0.0857  0.5863 -0.4739
 2767SOL     OW12756   3.231   1.936   4.390 -0.2824  0.4898  0.0348
 2767SOL    HW112757   3.204   2.018   4.430  0.5522  1.1061 -0.6369
 2767SOL    HW212758   3.248   1.958   4.298  1.2023 -0.1313  0.1309
 2768SOL     OW12759   2.451  10.611   4.049  0.2414  0.5246  0.3775
 2768SOL    HW112760   2.468  10.693   4.002  0.2977 -0.4762 -1.4089
 2768SOL    HW212761   2.533  10.562   4.041  0.8301  0.9362  2.9427
 2769SOL     OW12762   7.894   6.842   0.351 -0.6410 -0.3876 -0.0412
 2769SOL    HW112763   7.818   6.848   0.409  1.3944  0.5144  2.7293
 2769SOL    HW212764   7.951   6.777   0.392 -0.3269 -1.9709 -2.7132
 2770SOL     OW12765  10.480   0.962   7.805  0.1050  0.4980 -0.7401
 2770SOL    HW112766  10.553   0.902   7.823  0.5734  1.6055  1.4881
 2770SOL    HW212767  10.489   0.983   7.712  1.7117 -0.5864 -0.8782
 2771SOL     OW12768   7.010   2.632   0.514  0.3485 -0.2939  0.4737
 2771SOL    HW112769   6.919   2.659   0.508  0.7312  0.8637 -0.8978
 2771SOL    HW212770   7.010   2.540   0.487 -0.2462  0.1504 -1.1764
 2772SOL     OW12771   6.176   8.043   2.106 -0.1358 -0.4582  0.3409
 2772SOL    HW112772   6.096   7.994   2.121 -0.2776 -0.9396 -1.7128
 2772SOL    HW212773   6.239   8.007   2.169 -0.9659 -1.4659  0.6142
 2773SOL     OW12774   4.791   7.417   0.588  0.4243 -0.0128 -0.3730
 2773SOL    HW112775   4.817   7.466   0.510 -0.2152  0.7451 -0.1230
 2773SOL    HW212776   4.701   7.389   0.570  0.0938  0.5884  0.2747
 2774SOL     OW12777   4.029   9.318   4.728 -0.5101 -0.5741  0.2972
 2774SOL    HW112778   4.096   9.380   4.754  1.1057 -1.9435 -0.4096
 2774SOL    HW212779   3.947   9.368   4.729  0.0094  0.4593  3.9185
 2775SOL     OW12780   0.001   4.607   1.024  0.3277  0.6246  0.0769
 2775SOL    HW112781  -0.077   4.662   1.035  0.4513  0.4204  2.5796
 2775SOL    HW212782  -0.025   4.542   0.959 -1.4215  0.8675  0.4681
 2776SOL     OW12783   8.016   5.033   7.880  0.1742 -0.2604 -0.3573
 2776SOL    HW112784   8.109   5.043   7.904  0.2133  0.7497 -0.9001
 2776SOL    HW212785   7.997   4.941   7.898  0.8509 -0.1291  1.2537
 2777SOL     OW12786   3.793   0.943   6.636 -0.0565  0.0093  0.0524
 2777SOL    HW112787   3.738   0.946   6.559  0.4311 -0.9497 -0.3520
 2777SOL    HW212788   3.781   1.028   6.678  0.2416  0.8407 -1.4732
 2778SOL     OW12789   5.789   1.665   2.755  1.0735  0.3192 -0.3536
 2778SOL    HW112790   5.758   1.736   2.700  0.6055  0.0286 -0.4719
 2778SOL    HW212791   5.712   1.609   2.768  1.4851 -0.2738 -0.4396
 2779SOL     OW12792   7.263   8.470   6.658  0.2949 -0.9155 -0.2989
 2779SOL    HW112793   7.292   8.428   6.739  2.4427 -1.0881 -1.0991
 2779SOL    HW212794   7.292   8.561   6.666  0.9526 -1.0478 -1.0505
 2780SOL     OW12795   4.335   6.140   6.039  0.0390  0.0839  0.2737
 2780SOL    HW112796   4.324   6.144   6.134 -1.0106  0.4801  0.1490
 2780SOL    HW212797   4.364   6.050   6.022  0.3174  0.0352  0.9649
 2781SOL     OW12798   1.915  10.449   5.584 -0.5469  0.5257 -0.2083
 2781SOL    HW112799   1.931  10.475   5.674 -3.6414  0.7776  0.3759
 2781SOL    HW212800   1.952  10.361   5.577  0.1546  0.6938  1.1471
 2782SOL     OW12801   7.222   5.554   6.954  0.5200  0.0166  0.4013
 2782SOL    HW112802   7.303   5.603   6.938 -0.6944  1.6059 -1.3384
 2782SOL    HW212803   7.203   5.570   7.046  1.5864  0.5720  0.5514
 2783SOL     OW12804   6.806   4.735   9.363  0.0722 -0.0210 -0.1272
 2783SOL    HW112805   6.846   4.676   9.298  0.4101 -0.5634  0.5581
 2783SOL    HW212806   6.843   4.821   9.343  1.0852 -0.3948  0.0634
 2784SOL     OW12807   2.672   2.357   3.448 -0.3249  0.0820  0.1712
 2784SOL    HW112808   2.691   2.264   3.436  0.0654  0.2742 -0.8986
 2784SOL    HW212809   2.742   2.401   3.398 -1.0009  0.9211 -0.0487
 2785SOL     OW12810   0.080  10.738   3.262 -0.6456  0.2194 -0.0993
 2785SOL    HW112811   0.124  10.723   3.178 -0.7594 -0.6432 -0.0153
 2785SOL    HW212812   0.152  10.740   3.326 -0.5637  0.8220 -0.2075
 2786SOL     OW12813   6.912   8.099   7.988 -0.0476  0.1515 -0.4997
 2786SOL    HW112814   6.977   8.032   8.010  0.8428 -0.0764 -3.3533
 2786SOL    HW212815   6.833   8.049   7.965 -0.2491  0.2536 -0.0397
 2787SOL     OW12816   1.929   5.656   8.197 -0.7345  0.5273 -0.5828
 2787SOL    HW112817   1.912   5.734   8.144 -1.8315 -0.1491 -1.2530
 2787SOL    HW212818   1.851   5.647   8.252 -0.2655  0.3493  0.0673
 2788SOL     OW12819   1.337   7.521  10.289 -0.3406 -0.5924  0.6015
 2788SOL    HW112820   1.401   7.534  10.220 -0.4583 -1.6077  0.2874
 2788SOL    HW212821   1.308   7.609  10.312  1.1406 -0.1228  0.7356
 2789SOL     OW12822   6.041   9.319   7.570  0.3565  0.2192  0.3696
 2789SOL    HW112823   6.115   9.261   7.589  1.2779  1.6686  1.4516
 2789SOL    HW212824   6.061   9.399   7.619 -1.7353  0.8056  0.3377
 2790SOL     OW12825   8.895   4.853   6.608  0.3351  0.2132 -0.3459
 2790SOL    HW112826   8.931   4.941   6.620 -1.2285  0.9366 -0.7928
 2790SOL    HW212827   8.838   4.860   6.532  2.5261 -1.9529 -2.3619
 2791SOL     OW12828   1.063   1.254   6.815  0.7235  0.4918 -0.0115
 2791SOL    HW112829   1.113   1.179   6.847 -0.0567 -0.7265 -1.4857
 2791SOL    HW212830   0.975   1.241   6.851  0.6085  0.7487 -0.1984
 2792SOL     OW12831   3.600   5.206  10.528  0.2588  0.5853 -0.0424
 2792SOL    HW112832   3.604   5.204  10.432  0.5684  0.0511 -0.0249
 2792SOL    HW212833   3.647   5.286  10.552  0.4841  0.5435 -0.3265
 2793SOL     OW12834   9.591  10.139   2.871 -0.1809 -0.2879 -0.3590
 2793SOL    HW112835   9.674  10.107   2.837  0.3066  1.0039 -0.4392
 2793SOL    HW212836   9.615  10.215   2.924 -1.1781 -0.7118  0.7512
 2794SOL     OW12837  10.711   9.074  10.643  0.2003 -0.4501  0.0333
 2794SOL    HW112838  10.679   9.157  10.679 -0.9152 -0.3037 -1.2087
 2794SOL    HW212839  10.662   9.064  10.561  1.5871 -1.4782 -0.6958
 2795SOL     OW12840   3.724   1.569   0.493  0.4102  0.3593  0.0398
 2795SOL    HW112841   3.724   1.477   0.465 -0.9280  0.5670 -0.7180
 2795SOL    HW212842   3.672   1.614   0.427  1.6672  1.8163 -0.0083
 2796SOL     OW12843   7.210   7.933   5.069  0.0503  0.2336  0.8218
 2796SOL    HW112844   7.199   7.889   4.984  0.2380 -0.1880  1.0135
 2796SOL    HW212845   7.226   7.862   5.131 -2.5246  0.2701  1.6617
 2797SOL     OW12846   2.278   5.753   6.076  0.2329  0.3533  0.6278
 2797SOL    HW112847   2.274   5.748   6.171 -0.2381 -0.3381  0.5826
 2797SOL    HW212848   2.284   5.662   6.048 -1.7568  0.3779 -0.0718
 2798SOL     OW12849   6.207   4.253  10.417  0.5259 -0.0228  0.5740
 2798SOL    HW112850   6.197   4.311  10.493  1.4874 -0.7749  1.3031
 2798SOL    HW212851   6.300   4.231  10.416  0.0286 -2.4004  0.9875
 2799SOL     OW12852   5.458   0.576   7.857 -0.9553  0.0232  0.1740
 2799SOL    HW112853   5.440   0.655   7.807 -0.5258  0.9419  1.4175
 2799SOL    HW212854   5.373   0.545   7.885 -1.0039  1.6533  2.0215
 2800SOL     OW12855   8.023   9.575   7.655  0.5747  0.1698  0.1217
 2800SOL    HW112856   7.995   9.663   7.683 -0.8204  0.4155 -1.8030
 2800SOL    HW212857   8.113   9.568   7.685  0.3429  1.8046  1.3527
 2801SOL     OW12858   2.111   6.737   5.353 -0.0443  0.2790 -0.5376
 2801SOL    HW112859   2.036   6.702   5.304 -1.0254 -0.4250  1.3787
 2801SOL    HW212860   2.162   6.660   5.377  0.6266  0.6539 -0.7267
 2802SOL     OW12861   8.559   9.365   7.462  0.1265  0.2304 -0.3241
 2802SOL    HW112862   8.487   9.424   7.442  0.4948  1.3920  1.4952
 2802SOL    HW212863   8.631   9.395   7.407 -0.5449 -0.4957 -1.6375
 2803SOL     OW12864   3.261   9.900   7.317 -0.5915 -0.2920 -0.1017
 2803SOL    HW112865   3.268   9.969   7.383 -0.3280 -0.6423  0.2407
 2803SOL    HW212866   3.337   9.912   7.261 -1.1988  0.4597 -0.7919
 2804SOL     OW12867   5.563   1.398   3.996 -0.0958  0.0883 -0.2685
 2804SOL    HW112868   5.654   1.428   3.999  0.0086 -0.1965 -0.5306
 2804SOL    HW212869   5.524   1.432   4.076  0.3587 -0.1590  0.0664
 2805SOL     OW12870   3.294   0.204   6.436  0.1351 -0.3181 -0.6973
 2805SOL    HW112871   3.381   0.211   6.397  1.3467  2.7457  2.1233
 2805SOL    HW212872   3.305   0.139   6.506 -0.3247 -1.0782 -1.3103
 2806SOL     OW12873   7.860   4.195  10.241  0.4059  0.3629  0.2459
 2806SOL    HW112874   7.879   4.108  10.205  0.9542  0.2584  0.7704
 2806SOL    HW212875   7.766   4.207  10.226 -0.0974 -1.1111  1.8634
 2807SOL     OW12876   7.941  10.217   9.229 -0.2504  1.0218 -0.4469
 2807SOL    HW112877   7.993  10.248   9.303 -0.9967  0.5532  0.2937
 2807SOL    HW212878   7.905  10.296   9.190 -2.0659  1.1629  1.3630
 2808SOL     OW12879   0.746   8.934   0.577  0.0946  0.4882 -0.4651
 2808SOL    HW112880   0.782   8.865   0.521 -0.1701  0.6438 -0.8291
 2808SOL    HW212881   0.653   8.913   0.583  0.5200 -1.1299  2.1577
 2809SOL     OW12882   9.827   3.945   1.859  0.2151  0.2767  0.1405
 2809SOL    HW112883   9.895   3.877   1.865  0.4584  0.3682 -1.1195
 2809SOL    HW212884   9.745   3.898   1.872  0.5061  0.1490  1.6133
 2810SOL     OW12885   7.171   4.456   0.944 -0.3668 -0.2385  0.4474
 2810SOL    HW112886   7.204   4.469   0.856 -0.3331  0.0422  0.5003
 2810SOL    HW212887   7.158   4.361   0.952  0.1064 -0.3128  0.3174
 2811SOL     OW12888   3.086   4.629   2.727  0.3155  0.6522  0.2767
 2811SOL    HW112889   3.111   4.720   2.742 -2.2747  1.5679 -0.4347
 2811SOL    HW212890   3.076   4.592   2.814  1.8230  0.8524  0.5732
 2812SOL     OW12891   6.021   9.180   5.468  0.4265  0.1034 -0.1132
 2812SOL    HW112892   5.931   9.204   5.446  0.7110 -0.6981 -2.4049
 2812SOL    HW212893   6.058   9.259   5.508 -0.9491  0.8329 -0.2422
 2813SOL     OW12894   7.300   6.227   8.320 -0.9346  0.0521 -0.4863
 2813SOL    HW112895   7.207   6.238   8.339 -0.9909 -1.7019  0.4560
 2813SOL    HW212896   7.344   6.289   8.379 -1.4095 -1.1399  1.1941
 2814SOL     OW12897   5.614   8.361   5.436  0.1815 -0.4139  0.3412
 2814SOL    HW112898   5.619   8.384   5.343 -1.0325  2.0986  0.8343
 2814SOL    HW212899   5.688   8.405   5.476 -0.2287 -0.1384  0.8078
 2815SOL     OW12900   3.689   3.734   2.755 -0.3927 -0.2157 -0.3174
 2815SOL    HW112901   3.650   3.766   2.673  1.7044  1.9658 -0.5708
 2815SOL    HW212902   3.719   3.813   2.800  1.4850 -1.5594  0.9586
 2816SOL     OW12903   0.610   7.042  10.125  0.6853  0.0962  0.0573
 2816SOL    HW112904   0.627   6.991  10.046 -0.9859 -0.8228  0.2208
 2816SOL    HW212905   0.540   7.103  10.100  3.0232  2.8148 -0.2853
 2817SOL     OW12906   0.606   9.844  10.002 -0.0107 -0.2643 -0.8531
 2817SOL    HW112907   0.542   9.869   9.935 -2.4365  1.2820  1.8063
 2817SOL    HW212908   0.591   9.751  10.016 -2.8026  0.3079  0.6435
 2818SOL     OW12909  11.000   9.034   8.638  0.0126 -0.2353 -0.0076
 2818SOL    HW112910  10.927   9.073   8.591 -0.8719 -0.8925  0.7604
 2818SOL    HW212911  11.018   8.952   8.592 -0.4283 -0.5646  0.3849
 2819SOL     OW12912  10.918   8.507   4.781  0.5204  0.0181  0.0104
 2819SOL    HW112913  10.984   8.444   4.809 -0.0445 -0.7220 -0.2597
 2819SOL    HW212914  10.836   8.458   4.785  0.1744  0.4892 -1.0275
 2820SOL     OW12915   7.440  10.230   6.298 -0.0119 -0.0043  0.1093
 2820SOL    HW112916   7.478  10.157   6.249 -1.5324  0.9259 -2.6256
 2820SOL    HW212917   7.388  10.187   6.367 -0.7692 -1.5392 -1.3476
 2821SOL     OW12918   3.265   4.245  10.997 -0.1092  0.0325  0.0068
 2821SOL    HW112919   3.200   4.231  11.066 -0.7184 -0.4947 -0.6639
 2821SOL    HW212920   3.331   4.178  11.014  0.6787  1.0559  1.1509
 2822SOL     OW12921   7.837   9.882   1.698 -0.3383 -0.0683  0.3163
 2822SOL    HW112922   7.800   9.864   1.785 -0.2421 -0.0689  0.3575
 2822SOL    HW212923   7.867   9.972   1.703 -1.0565  0.1990  0.0254
 2823SOL     OW12924   9.985   9.095   9.775 -0.0999 -0.7098  0.3995
 2823SOL    HW112925  10.066   9.090   9.725 -1.1254 -0.3166 -1.3805
 2823SOL    HW212926  10.010   9.068   9.864  1.9966 -0.3938 -0.0406
 2824SOL     OW12927   6.777   8.413   0.571  0.2759 -1.0352 -0.6189
 2824SOL    HW112928   6.843   8.353   0.607 -0.7410 -0.8645  1.7031
 2824SOL    HW212929   6.712   8.421   0.640 -0.9830  0.6834 -1.9184
 2825SOL     OW12930   8.472  10.560   3.728 -0.1082 -0.0767  0.2584
 2825SOL    HW112931   8.422  10.586   3.805 -0.7924  1.7909 -0.7517
 2825SOL    HW212932   8.449  10.625   3.662  0.4031 -1.6516 -1.5529
 2826SOL     OW12933   9.666   5.542   5.881  0.2969  0.2341 -0.0728
 2826SOL    HW112934   9.743   5.600   5.879 -0.6541  1.5402  0.2709
 2826SOL    HW212935   9.673   5.491   5.800  1.2974  0.6283 -0.2512
 2827SOL     OW12936   2.267   7.617   4.400  0.2529  0.0772 -0.2535
 2827SOL    HW112937   2.336   7.621   4.466  1.2332  0.8085 -1.2888
 2827SOL    HW212938   2.205   7.686   4.426  0.9676  0.8091 -0.4383
 2828SOL     OW12939   7.129   5.261   8.251 -0.5972  0.0051 -0.1544
 2828SOL    HW112940   7.078   5.288   8.174 -0.3581 -0.5047 -0.4923
 2828SOL    HW212941   7.174   5.181   8.224 -0.4128 -0.1113  0.4776
 2829SOL     OW12942   3.414   2.288   8.040  0.4427 -0.1999  0.0880
 2829SOL    HW112943   3.460   2.341   8.105 -1.9190 -0.0995  1.8300
 2829SOL    HW212944   3.328   2.272   8.079 -1.6787  0.9626 -3.5432
 2830SOL     OW12945   9.308  10.203   4.374 -0.1461 -0.0846  0.5605
 2830SOL    HW112946   9.303  10.173   4.283 -1.2503 -2.3445  1.2971
 2830SOL    HW212947   9.375  10.272   4.373 -0.9318  0.7619 -2.1465
 2831SOL     OW12948   8.952   9.995   9.173 -0.0629 -0.1511  0.1750
 2831SOL    HW112949   9.032  10.039   9.142 -0.1753 -1.1888 -1.7820
 2831SOL    HW212950   8.966   9.903   9.150 -1.2304 -0.5816  1.1296
 2832SOL     OW12951   9.898   9.773   8.940 -0.5969 -0.5706  0.5921
 2832SOL    HW112952   9.952   9.701   8.973 -0.6653 -0.8539  0.0846
 2832SOL    HW212953   9.959   9.829   8.891 -1.1666 -2.2700 -2.2745
 2833SOL     OW12954   3.182   6.867   5.752 -0.3992  0.1203  0.4509
 2833SOL    HW112955   3.252   6.803   5.743 -0.1688  0.3936  0.2841
 2833SOL    HW212956   3.114   6.837   5.691  0.6938  1.3451 -1.4991
 2834SOL     OW12957   2.716   2.649   1.405 -0.6095 -0.2012 -0.6339
 2834SOL    HW112958   2.623   2.635   1.390 -0.1770 -2.5129 -1.5906
 2834SOL    HW212959   2.736   2.597   1.483  0.4912 -2.8494 -2.5265
 2835SOL     OW12960   0.964   6.750   3.661 -0.1531  0.1181 -0.1250
 2835SOL    HW112961   0.965   6.657   3.684 -1.7670  0.5972  2.2052
 2835SOL    HW212962   1.055   6.771   3.641  0.2652 -1.8893 -0.5107
 2836SOL     OW12963   0.650   5.161   5.321 -0.1145  0.2769  0.5690
 2836SOL    HW112964   0.674   5.074   5.352  0.0913 -1.1024 -3.0088
 2836SOL    HW212965   0.555   5.164   5.328  0.0144  0.6277  2.6127
 2837SOL     OW12966   3.755  10.074   3.649  0.0118 -0.1985 -0.0888
 2837SOL    HW112967   3.747  10.121   3.566 -0.7517  0.1200  0.1552
 2837SOL    HW212968   3.669  10.082   3.689  0.8037  1.0585  1.4723
 2838SOL     OW12969   7.445   8.284   6.287  0.4431 -0.0588  0.2990
 2838SOL    HW112970   7.366   8.231   6.277 -1.7413  3.0586 -0.4587
 2838SOL    HW212971   7.508   8.245   6.226 -1.0870 -1.6283 -0.3507
 2839SOL     OW12972   8.235   6.733   4.346 -0.2593  0.2543 -0.0078
 2839SOL    HW112973   8.222   6.804   4.282  0.5679  0.6668  0.2622
 2839SOL    HW212974   8.269   6.777   4.424  1.6739 -0.5803 -0.3196
 2840SOL     OW12975   6.142   4.417  10.213  0.6654 -0.6300  0.0916
 2840SOL    HW112976   6.128   4.369  10.294 -0.5228  0.8693  0.8153
 2840SOL    HW212977   6.233   4.448  10.219  0.5360 -0.3896  0.9307
 2841SOL     OW12978   4.001   0.505   3.508 -0.2490 -0.7127  0.1557
 2841SOL    HW112979   3.927   0.528   3.452  0.5525 -1.7423 -1.3958
 2841SOL    HW212980   3.961   0.481   3.591 -1.6046 -0.5653 -0.4211
 2842SOL     OW12981  10.055   6.573   8.623  0.1220  0.4906 -0.1702
 2842SOL    HW112982  10.047   6.487   8.663  0.5274  0.4285 -0.2143
 2842SOL    HW212983   9.975   6.584   8.571  0.5097 -0.2646 -0.9483
 2843SOL     OW12984   7.079   9.143   6.877 -0.4741 -0.3901 -0.9236
 2843SOL    HW112985   7.143   9.072   6.871 -1.1843 -1.0715 -0.7955
 2843SOL    HW212986   6.996   9.098   6.895 -0.8543  0.5181 -0.3209
 2844SOL     OW12987   3.751   0.535   5.805 -0.2102 -0.2712 -0.3931
 2844SOL    HW112988   3.751   0.443   5.832 -1.5345 -0.3649 -0.6517
 2844SOL    HW212989   3.709   0.535   5.719 -0.4424  0.6024 -0.2897
 2845SOL     OW12990   7.529   2.624   2.994  0.4283 -0.4459  0.4603
 2845SOL    HW112991   7.465   2.610   3.064 -0.7164  0.1290 -0.4340
 2845SOL    HW212992   7.613   2.603   3.034 -0.1055  0.5080  2.2207
 2846SOL     OW12993   2.502   0.527  10.667 -0.1688  0.8807 -1.0525
 2846SOL    HW112994   2.426   0.537  10.724 -2.4793 -1.1909 -3.5298
 2846SOL    HW212995   2.540   0.443  10.691  1.4183  1.8671  0.1208
 2847SOL     OW12996   8.718   1.949   2.501  0.2418  0.4561  0.5529
 2847SOL    HW112997   8.656   1.998   2.446  0.2838  0.7431  0.7580
 2847SOL    HW212998   8.787   1.922   2.441 -0.6599 -0.9005  0.0734
 2848SOL     OW12999   7.346   6.109   2.571 -0.0686 -1.0054 -0.2522
 2848SOL    HW113000   7.404   6.078   2.641 -0.3165  0.8238  0.8081
 2848SOL    HW213001   7.406   6.136   2.501  0.2006 -2.3562 -0.5691
 2849SOL     OW13002   6.056   9.355   9.545 -0.4884  0.4387  0.4864
 2849SOL    HW113003   6.091   9.300   9.615 -0.3149  0.9676  0.8293
 2849SOL    HW213004   6.004   9.421   9.591 -0.9174  0.3966  0.0644
 2850SOL     OW13005  11.005   3.871  10.497  0.6161 -0.3236  0.0236
 2850SOL    HW113006  11.053   3.942  10.455  0.7587  0.2417  1.1100
 2850SOL    HW213007  10.976   3.907  10.581 -0.1165 -1.2504  0.1900
 2851SOL     OW13008   2.765   2.098   7.373 -0.8995 -0.1675 -0.0402
 2851SOL    HW113009   2.743   2.093   7.280  0.5597  1.9907 -0.5680
 2851SOL    HW213010   2.730   2.182   7.402 -0.5795 -0.4283  1.1556
 2852SOL     OW13011   3.782   9.016   1.948  0.0913 -0.3488 -0.2606
 2852SOL    HW113012   3.791   9.107   1.973 -0.1670 -0.1607 -0.8268
 2852SOL    HW213013   3.691   8.994   1.969 -0.5829  0.2440 -2.3356
 2853SOL     OW13014   0.195   2.467   2.322  0.2123  0.4274 -0.3116
 2853SOL    HW113015   0.174   2.559   2.307  1.6953  0.6119 -1.5827
 2853SOL    HW213016   0.291   2.462   2.312  0.0486 -1.4574 -1.5311
 2854SOL     OW13017   2.738   2.442   6.658 -0.5742 -0.0915  0.4587
 2854SOL    HW113018   2.772   2.352   6.651  1.1891  0.5436  0.1287
 2854SOL    HW213019   2.653   2.439   6.616  0.6842 -1.0281 -2.2731
 2855SOL     OW13020   6.768   5.320  10.767  0.2984 -0.0963  0.0601
 2855SOL    HW113021   6.857   5.346  10.742  0.9872 -1.8619  0.4859
 2855SOL    HW213022   6.779   5.234  10.809 -1.6208 -0.4049  0.0418
 2856SOL     OW13023   9.365   5.286   7.111  0.4226  0.1055 -0.1055
 2856SOL    HW113024   9.434   5.322   7.167 -0.8031  0.6931  1.0890
 2856SOL    HW213025   9.348   5.354   7.047  1.1086 -0.1473 -0.5726
 2857SOL     OW13026   6.198   0.360   5.402 -0.7402 -0.2465 -0.1173
 2857SOL    HW113027   6.194   0.309   5.321  2.1891 -0.7885 -0.0056
 2857SOL    HW213028   6.216   0.295   5.470 -1.4095  0.4246  0.7245
 2858SOL     OW13029   8.636   5.509   0.894  0.3774 -0.1005 -0.4619
 2858SOL    HW113030   8.602   5.598   0.883  1.6855  0.5453  0.3229
 2858SOL    HW213031   8.699   5.499   0.822  2.2618  0.7065  0.9698
 2859SOL     OW13032   8.509   2.925   3.582 -0.1697 -0.1405  0.2928
 2859SOL    HW113033   8.516   2.835   3.615  0.6987 -0.5478 -0.9366
 2859SOL    HW213034   8.594   2.943   3.542 -0.4006  1.1720  0.3555
 2860SOL     OW13035   8.411  10.320   9.293 -0.5134  0.3822  0.2870
 2860SOL    HW113036   8.323  10.283   9.293 -0.7494  0.7224 -2.2388
 2860SOL    HW213037   8.437  10.318   9.201  2.0925  0.4075  0.9480
 2861SOL     OW13038  10.113   5.354   0.849  0.4110  0.0417  0.3818
 2861SOL    HW113039  10.024   5.381   0.871 -0.5883 -2.7460  0.2060
 2861SOL    HW213040  10.152   5.430   0.805 -2.0834  1.1461 -0.0715
 2862SOL     OW13041   6.428   9.416   8.742 -0.6942  0.1775  0.4564
 2862SOL    HW113042   6.483   9.484   8.704  1.0922 -2.0243 -1.1473
 2862SOL    HW213043   6.474   9.390   8.822 -0.3101 -0.4520  0.0402
 2863SOL     OW13044   3.984   2.895   8.368  0.2639 -0.2983 -0.3563
 2863SOL    HW113045   3.952   2.967   8.313 -0.4957  1.0247  1.7052
 2863SOL    HW213046   3.914   2.880   8.432  0.1466 -3.3043 -1.0101
 2864SOL     OW13047   3.231   7.530  10.655  0.0340  0.4078 -0.3765
 2864SOL    HW113048   3.291   7.580  10.709 -0.3911  1.2814 -0.6949
 2864SOL    HW213049   3.219   7.583  10.576 -1.0587  0.2055 -0.3637
 2865SOL     OW13050   0.070   0.976   7.037 -0.2649 -0.2977 -0.0979
 2865SOL    HW113051   0.145   1.035   7.039 -0.3593 -0.1925  1.1141
 2865SOL    HW213052   0.062   0.945   7.127 -0.4576 -1.8568 -0.6201
 2866SOL     OW13053   7.238   5.161   3.461 -0.5628 -0.2796  0.0953
 2866SOL    HW113054   7.176   5.094   3.432  0.4572  0.3305 -4.0611
 2866SOL    HW213055   7.322   5.115   3.464 -0.6062 -0.3498  2.6571
 2867SOL     OW13056   3.381   5.693   0.274 -0.0085  0.1285 -0.0118
 2867SOL    HW113057   3.376   5.611   0.225  0.6784 -0.3954  0.7665
 2867SOL    HW213058   3.290   5.716   0.292 -0.2103 -0.4453 -0.2822
 2868SOL     OW13059   3.066   2.816   3.565 -0.3858  0.5232  0.3656
 2868SOL    HW113060   2.989   2.845   3.614 -3.2501  0.1354 -3.4530
 2868SOL    HW213061   3.070   2.722   3.582 -1.2042  0.4257  0.0726
 2869SOL     OW13062   9.647   0.492   9.691 -0.1505 -0.0820 -0.2770
 2869SOL    HW113063   9.600   0.446   9.760 -0.5100  0.1041 -0.3967
 2869SOL    HW213064   9.724   0.437   9.674 -1.1856 -1.2877 -1.2593
 2870SOL     OW13065   4.029   7.785   8.548 -0.0183 -0.3123  0.1662
 2870SOL    HW113066   4.011   7.700   8.588 -0.0154 -0.0259  0.7818
 2870SOL    HW213067   4.079   7.764   8.468 -0.2814 -0.9006  0.1547
 2871SOL     OW13068   0.677   6.140   2.967 -0.0314  0.2329 -0.3227
 2871SOL    HW113069   0.728   6.168   2.891  1.7811 -0.3758  0.6089
 2871SOL    HW213070   0.633   6.220   2.997  0.6179  0.8488 -0.9745
 2872SOL     OW13071   2.803   7.976  10.704 -0.1448 -0.1620  0.2315
 2872SOL    HW113072   2.842   8.061  10.725  1.2984 -0.3232 -1.5361
 2872SOL    HW213073   2.723   7.973  10.755  0.0348  2.0446  0.7353
 2873SOL     OW13074   7.990  10.248   1.315  0.0992 -0.2145 -0.3001
 2873SOL    HW113075   8.048  10.183   1.275 -0.8743  0.3216 -2.7533
 2873SOL    HW213076   8.002  10.326   1.261 -0.6470  0.8513  1.0424
 2874SOL     OW13077   8.190   7.046   6.576  0.5729 -0.0395 -0.2472
 2874SOL    HW113078   8.258   7.026   6.512  0.9220  0.1666  0.0529
 2874SOL    HW213079   8.139   6.966   6.583  0.0454  0.1800 -1.3578
 2875SOL     OW13080  10.948   5.212   2.613  0.3574  0.0586 -0.2647
 2875SOL    HW113081  10.944   5.116   2.613  0.2523  0.0260  1.6857
 2875SOL    HW213082  10.874   5.238   2.558 -0.4237 -0.9787  0.2474
 2876SOL     OW13083   9.218  10.943   5.874  0.1204 -0.2643  0.6539
 2876SOL    HW113084   9.221  11.033   5.843 -1.2334 -0.4930 -0.2267
 2876SOL    HW213085   9.309  10.922   5.894  0.5302  1.1136  0.3629
 2877SOL     OW13086   8.947   4.502   0.719 -0.1054  0.4482  0.0564
 2877SOL    HW113087   9.023   4.542   0.763  0.1293  0.1111 -0.0416
 2877SOL    HW213088   8.875   4.562   0.739  0.2796  1.0282 -0.2441
 2878SOL     OW13089   6.654   4.206   5.908 -0.3658 -0.5172 -0.7414
 2878SOL    HW113090   6.727   4.173   5.960 -0.2923  0.1243 -0.4176
 2878SOL    HW213091   6.695   4.246   5.831 -0.4620 -1.2889 -1.1975
 2879SOL     OW13092   5.762   4.627   1.992 -0.1938  0.0476 -0.6899
 2879SOL    HW113093   5.854   4.617   1.969 -0.2427 -1.5025 -0.3239
 2879SOL    HW213094   5.716   4.565   1.935 -0.8698 -0.0837 -0.0247
 2880SOL     OW13095   9.978   4.886   2.409  0.3000  0.6818 -0.2842
 2880SOL    HW113096   9.994   4.801   2.369 -1.5862 -0.0476  0.4010
 2880SOL    HW213097   9.919   4.930   2.347 -1.0821  0.3040  0.7153
 2881SOL     OW13098   0.984   1.900   9.127 -0.2794 -0.1918  0.1263
 2881SOL    HW113099   1.038   1.960   9.075 -0.7841  0.0746 -0.1040
 2881SOL    HW213100   1.046   1.848   9.177  0.2157 -0.3699 -0.6634
 2882SOL     OW13101   4.217  10.627   6.470  0.0533  0.2501  0.5487
 2882SOL    HW113102   4.294  10.604   6.418  1.3651  1.1098  2.0098
 2882SOL    HW213103   4.181  10.705   6.426  0.9805  0.8043  0.7479
 2883SOL     OW13104   1.441   2.538   7.759 -0.1358  0.2777 -0.6717
 2883SOL    HW113105   1.480   2.596   7.693  0.0443  0.2408 -0.5995
 2883SOL    HW213106   1.351   2.568   7.767  0.1917  1.1364  0.0209
 2884SOL     OW13107   6.432   9.243   1.474  0.4251  0.6317  0.0966
 2884SOL    HW113108   6.396   9.279   1.393  0.6194 -1.7781 -1.1547
 2884SOL    HW213109   6.527   9.249   1.461  0.4567  0.4238  0.2443
 2885SOL     OW13110   8.698   9.192   4.455  0.4466  0.8289  0.2338
 2885SOL    HW113111   8.756   9.245   4.510  2.9300 -0.3327 -1.0961
 2885SOL    HW213112   8.708   9.103   4.489 -0.7177  0.6259  0.0748
 2886SOL     OW13113   8.953   0.885   7.135  0.1324  0.2533  0.9112
 2886SOL    HW113114   8.923   0.809   7.085 -1.8418  1.5667 -0.0001
 2886SOL    HW213115   8.993   0.943   7.070  0.9469  0.3633  1.4819
 2887SOL     OW13116   0.692   8.433   7.066 -0.0984  0.6454  0.2386
 2887SOL    HW113117   0.771   8.484   7.083  0.7929 -0.7443  0.3488
 2887SOL    HW213118   0.719   8.342   7.076 -1.5099  0.1092 -0.5848
 2888SOL     OW13119   3.382   6.368  10.320 -0.1516  0.7919 -0.0442
 2888SOL    HW113120   3.458   6.392  10.268 -0.8149  0.8896 -0.9887
 2888SOL    HW213121   3.317   6.340  10.256 -0.4325 -0.6718  0.8301
 2889SOL     OW13122   9.449   2.575   1.557 -0.0397  0.3117  0.4549
 2889SOL    HW113123   9.490   2.661   1.541  0.2237 -0.0714 -1.1779
 2889SOL    HW213124   9.389   2.564   1.484 -0.4697 -0.6688  0.9450
 2890SOL     OW13125   6.037   1.101   7.799  0.3204  0.0929 -0.0273
 2890SOL    HW113126   5.972   1.165   7.770 -0.5568 -0.9620 -0.4437
 2890SOL    HW213127   6.105   1.103   7.731  0.7478  1.1808  0.3986
 2891SOL     OW13128   3.469   1.981   3.841  0.2599 -0.1115 -0.1732
 2891SOL    HW113129   3.465   1.962   3.747  1.1444  0.3693 -0.3173
 2891SOL    HW213130   3.494   2.074   3.846  1.4015 -0.4324  0.5258
 2892SOL     OW13131   9.954   9.116   8.639  0.5615 -0.9688  0.4416
 2892SOL    HW113132   9.927   9.133   8.729  1.4783  0.2203  0.5238
 2892SOL    HW213133  10.010   9.191   8.617  0.2505 -1.1830 -1.1581
 2893SOL     OW13134   5.906   0.628   7.714  0.0531 -0.0298  0.1477
 2893SOL    HW113135   5.979   0.689   7.727 -0.4302  0.3486  1.1830
 2893SOL    HW213136   5.850   0.671   7.649  1.1215 -0.6845 -1.2584
 2894SOL     OW13137   0.325   8.341   6.573  0.2105  0.2558  0.3108
 2894SOL    HW113138   0.254   8.393   6.534  0.7610  0.6388 -0.2066
 2894SOL    HW213139   0.280   8.280   6.631 -0.6459 -0.2317 -0.8041
 2895SOL     OW13140   5.882  11.017   5.516  0.3868 -0.5629  0.1998
 2895SOL    HW113141   5.923  10.932   5.529 -1.4196 -1.4799  0.2066
 2895SOL    HW213142   5.946  11.080   5.549  1.8014 -1.8961  0.1074
 2896SOL     OW13143   5.443   2.150  10.501  0.2588 -0.2772 -0.2722
 2896SOL    HW113144   5.473   2.138  10.411 -0.4375 -2.0283 -0.3189
 2896SOL    HW213145   5.350   2.173  10.492  0.4061  0.4551 -0.0084
 2897SOL     OW13146   8.050   3.652   5.235  0.4275 -0.4934 -0.0077
 2897SOL    HW113147   7.998   3.689   5.305  1.2891 -0.1211  0.4525
 2897SOL    HW213148   8.140   3.674   5.258  0.6594  0.6784 -1.8369
 2898SOL     OW13149  10.743   3.679   7.112  0.0244  0.3292 -0.2930
 2898SOL    HW113150  10.728   3.602   7.057  1.9892  0.9999 -1.8823
 2898SOL    HW213151  10.823   3.659   7.161 -0.4999  0.6292  0.7137
 2899SOL     OW13152   0.344   2.965   5.668  0.1765 -0.3445 -0.2427
 2899SOL    HW113153   0.342   3.021   5.591  0.2212 -1.3025 -0.9509
 2899SOL    HW213154   0.431   2.924   5.666  0.2271 -0.2873  0.3886
 2900SOL     OW13155   6.124   0.033   6.108  0.3697  0.2211 -0.2288
 2900SOL    HW113156   6.037   0.042   6.070 -0.5779  2.3187  2.1391
 2900SOL    HW213157   6.107   0.015   6.201  2.4272  1.1866  0.3915
 2901SOL     OW13158   9.739   9.429   0.741 -0.0382 -0.1426  0.2117
 2901SOL    HW113159   9.772   9.339   0.741  3.7434  1.0231 -2.5883
 2901SOL    HW213160   9.676   9.431   0.669 -0.9537 -0.7002  0.9611
 2902SOL     OW13161  10.185   1.775   6.864  0.6073 -0.0385 -0.5035
 2902SOL    HW113162  10.125   1.701   6.874 -0.1037  0.3241 -1.8468
 2902SOL    HW213163  10.171   1.827   6.943  0.6111 -0.9704  0.1331
 2903SOL     OW13164   2.081   9.079   6.275  0.1722 -0.7080  0.7160
 2903SOL    HW113165   2.019   9.128   6.221  0.7812 -0.8988 -0.1894
 2903SOL    HW213166   2.032   9.054   6.352 -1.3759 -2.2404 -0.6872
 2904SOL     OW13167   6.153   3.000   1.664 -0.2488  0.2273  0.4337
 2904SOL    HW113168   6.246   3.005   1.683 -0.1894 -3.2597  1.9525
 2904SOL    HW213169   6.111   2.991   1.750 -1.4328 -2.3675 -0.2925
 2905SOL     OW13170   6.941   6.062   7.604  0.9784 -0.0754 -0.2208
 2905SOL    HW113171   6.930   6.034   7.513  0.2689  2.1847 -0.9022
 2905SOL    HW213172   7.035   6.080   7.612  1.0375 -0.2376 -0.5221
 2906SOL     OW13173  10.500   5.292   5.952  0.1675  0.5334  0.4007
 2906SOL    HW113174  10.493   5.213   6.005 -2.6475  0.1149 -0.4367
 2906SOL    HW213175  10.462   5.361   6.006 -1.6314  0.3390 -0.5537
 2907SOL     OW13176   1.787   7.455   1.801  0.1636  0.4733 -0.0163
 2907SOL    HW113177   1.724   7.382   1.803 -0.1969  0.7681 -0.2973
 2907SOL    HW213178   1.732   7.534   1.801  0.5259  0.7340 -0.5931
 2908SOL     OW13179   8.431   9.871  10.091  0.5476  0.1244  0.0656
 2908SOL    HW113180   8.496   9.850  10.023  0.9107  0.2575  0.3692
 2908SOL    HW213181   8.418   9.788  10.137  0.2662  0.0228 -0.1937
 2909SOL     OW13182   2.746   6.217   5.899 -0.2059  0.9341  0.5690
 2909SOL    HW113183   2.745   6.138   5.953  0.8530  0.7270  0.3068
 2909SOL    HW213184   2.836   6.249   5.905 -0.5324  1.9210  0.3752
 2910SOL     OW13185   4.690   7.043   5.514 -0.0670 -0.3844 -0.3198
 2910SOL    HW113186   4.595   7.051   5.503 -0.1759  0.3122  0.9194
 2910SOL    HW213187   4.720   7.134   5.521  0.6037 -0.6274 -0.0433
 2911SOL     OW13188  10.820   9.739   5.329 -0.4789  1.2095  0.0708
 2911SOL    HW113189  10.842   9.646   5.328  2.8368  1.8621  0.3424
 2911SOL    HW213190  10.810   9.760   5.422 -2.4403  0.9591 -0.0389
 2912SOL     OW13191   7.526   7.028   6.806 -1.0432 -0.6459 -0.3350
 2912SOL    HW113192   7.509   7.051   6.714 -3.6502  0.2127  0.2774
 2912SOL    HW213193   7.616   6.993   6.806 -0.8348 -0.3294 -3.1228
 2913SOL     OW13194   3.019   0.836  10.270  0.2079 -0.1234  0.0791
 2913SOL    HW113195   3.097   0.831  10.215  0.2557  1.2890 -0.0038
 2913SOL    HW213196   2.948   0.804  10.213  0.3757  0.6640 -0.5959
 2914SOL     OW13197   0.804   8.545  10.846  0.2075 -0.0703  0.0668
 2914SOL    HW113198   0.825   8.590  10.765  1.6166  0.8410  0.8857
 2914SOL    HW213199   0.800   8.452  10.822 -0.9888  0.3077 -1.3120
 2915SOL     OW13200   8.199   8.505   4.893 -0.6648 -0.3458  0.1234
 2915SOL    HW113201   8.216   8.581   4.950  1.1735 -1.1640  0.7475
 2915SOL    HW213202   8.206   8.429   4.951  0.9983 -1.1893 -1.0899
 2916SOL     OW13203   7.100   5.364   6.296 -0.0897 -0.4619  0.1919
 2916SOL    HW113204   7.068   5.404   6.378  0.6593 -1.1770  0.8449
 2916SOL    HW213205   7.085   5.432   6.230 -2.2779 -0.4924  0.5874
 2917SOL     OW13206   6.084   3.129  10.099  0.0445 -0.2064 -0.0891
 2917SOL    HW113207   6.014   3.065  10.086  1.3571 -1.4900 -1.3382
 2917SOL    HW213208   6.072   3.193  10.029  0.6683 -0.9937 -0.9455
 2918SOL     OW13209   9.839   2.549   6.080  0.0194  0.9232 -0.4754
 2918SOL    HW113210   9.856   2.490   6.153  0.5975 -1.4710 -2.4261
 2918SOL    HW213211   9.752   2.526   6.049  0.3377  0.9002 -1.3994
 2919SOL     OW13212   8.374   6.277   6.084  0.1985  0.6623  0.4698
 2919SOL    HW113213   8.427   6.203   6.053 -1.1437  0.0222 -0.4127
 2919SOL    HW213214   8.325   6.242   6.158 -1.4761  0.1746 -0.7867
 2920SOL     OW13215   5.851   2.626   9.020  0.6261  0.6815  0.2310
 2920SOL    HW113216   5.916   2.643   9.088 -0.3658  1.7672  0.9455
 2920SOL    HW213217   5.902   2.599   8.944  1.7828 -0.3111  1.3033
 2921SOL     OW13218   6.976   7.247   4.681 -0.3398 -0.0458 -0.4231
 2921SOL    HW113219   7.063   7.270   4.713 -0.1120 -0.3628 -0.8076
 2921SOL    HW213220   6.919   7.260   4.757  0.0621  0.0241 -0.1274
 2922SOL     OW13221   3.440   1.934   3.555  0.6179  0.1098  0.3629
 2922SOL    HW113222   3.447   1.852   3.506 -0.8749 -0.4412  1.0010
 2922SOL    HW213223   3.359   1.973   3.523 -0.1286 -0.0156  1.9800
 2923SOL     OW13224   7.037   0.697   3.107 -0.1866 -0.3248  0.7597
 2923SOL    HW113225   6.957   0.706   3.159 -0.0043 -1.6050  1.3002
 2923SOL    HW213226   7.041   0.604   3.085  0.3597 -0.0120 -0.5770
 2924SOL     OW13227   4.289   2.772   0.746  0.0613  0.6282  0.3910
 2924SOL    HW113228   4.248   2.859   0.756 -0.3868  0.4915 -0.1999
 2924SOL    HW213229   4.222   2.720   0.701  0.1431 -0.1619  1.1562
 2925SOL     OW13230   9.823   4.674   2.212 -0.0869  0.2658  0.3717
 2925SOL    HW113231   9.800   4.629   2.131  0.3445  0.7060 -0.0074
 2925SOL    HW213232   9.740   4.685   2.258 -0.5310  1.0922 -0.5810
 2926SOL     OW13233   6.428   7.586  11.046  0.1247 -0.1681 -0.1240
 2926SOL    HW113234   6.387   7.619  11.126  2.2265 -0.1623  0.9954
 2926SOL    HW213235   6.469   7.662  11.006  2.6898 -0.8416  1.0628
 2927SOL     OW13236   0.549   9.707  10.302 -0.3774  0.0549 -0.1592
 2927SOL    HW113237   0.570   9.627  10.253 -1.0443 -0.0203 -0.3269
 2927SOL    HW213238   0.462   9.732  10.272  0.5098  1.8638 -1.4632
 2928SOL     OW13239   2.611   9.864   5.623  0.2224 -0.2055  0.4124
 2928SOL    HW113240   2.524   9.823   5.620  0.1000 -0.0406  1.4179
 2928SOL    HW213241   2.601   9.937   5.684  1.1402 -0.3781  0.7897
 2929SOL     OW13242   6.174   0.205   3.604 -0.0618  0.0123 -0.0183
 2929SOL    HW113243   6.089   0.247   3.595 -0.4406  0.3839  3.6484
 2929SOL    HW213244   6.236   0.277   3.612 -0.3092  0.0371  3.1348
 2930SOL     OW13245   8.103   2.631   2.327  1.0457 -1.0306 -0.2074
 2930SOL    HW113246   8.166   2.700   2.344  0.3937 -0.3275 -0.5656
 2930SOL    HW213247   8.018   2.676   2.328  0.6292 -1.7979 -0.6154
 2931SOL     OW13248   8.715   1.379   0.733  0.0626 -0.1827 -1.1138
 2931SOL    HW113249   8.683   1.358   0.820  1.5235 -0.5497 -0.6393
 2931SOL    HW213250   8.788   1.439   0.747 -1.3680  1.9502 -2.2487
 2932SOL     OW13251   5.839   4.978   1.565  0.0361  0.0178  0.7500
 2932SOL    HW113252   5.909   5.007   1.507  0.0651  0.9526  1.2429
 2932SOL    HW213253   5.859   4.886   1.582  0.3873 -0.0905 -0.1890
 2933SOL     OW13254   6.914   6.720   9.856 -0.0740  0.1440  0.3113
 2933SOL    HW113255   6.931   6.786   9.923 -0.1879 -1.0164  1.5357
 2933SOL    HW213256   7.000   6.703   9.816  0.1971  0.0749  0.9190
 2934SOL     OW13257   5.259   7.720   2.820 -0.1125 -0.0451  0.2980
 2934SOL    HW113258   5.334   7.704   2.762  0.7698  2.3876  0.6309
 2934SOL    HW213259   5.182   7.709   2.764  0.6553  0.5967 -0.9136
 2935SOL     OW13260   1.456  10.045   0.266  0.0704  0.3119 -0.2354
 2935SOL    HW113261   1.458   9.961   0.221 -1.9895 -0.2463  0.5739
 2935SOL    HW213262   1.511  10.032   0.344 -0.1945 -0.2944 -0.1401
 2936SOL     OW13263   7.929   2.460   6.268 -0.2810  0.0265  0.3104
 2936SOL    HW113264   8.013   2.491   6.234 -0.5850 -0.1192 -0.5916
 2936SOL    HW213265   7.871   2.456   6.191 -1.1839  0.3574  0.9532
 2937SOL     OW13266   3.245   1.632   2.088 -0.1640  0.1466  0.1263
 2937SOL    HW113267   3.307   1.648   2.159 -0.6890 -1.6189  1.0255
 2937SOL    HW213268   3.160   1.624   2.132 -0.3332 -2.1915 -0.4871
 2938SOL     OW13269   8.042   9.352   3.803  0.1385  0.3482  0.6286
 2938SOL    HW113270   7.950   9.331   3.819  0.0327  1.1038  1.0598
 2938SOL    HW213271   8.048   9.446   3.818  0.5082  0.7432 -1.6689
 2939SOL     OW13272   8.548   1.963   9.758 -0.7544 -0.3234  0.1246
 2939SOL    HW113273   8.558   1.969   9.663 -1.9634  1.6769  0.0682
 2939SOL    HW213274   8.636   1.945   9.790 -0.0706  0.3395 -1.3002
 2940SOL     OW13275   8.583   4.958   6.499  0.1961 -0.2235 -0.5608
 2940SOL    HW113276   8.648   4.935   6.432  0.6820  1.6654 -0.7931
 2940SOL    HW213277   8.634   4.991   6.572 -0.4902  1.7885 -0.9441
 2941SOL     OW13278   0.810   3.639   4.493 -0.1746  0.4907  0.6943
 2941SOL    HW113279   0.832   3.691   4.570 -0.2626 -0.8762  1.6839
 2941SOL    HW213280   0.819   3.548   4.522  0.7316 -0.0670 -1.1954
 2942SOL     OW13281   0.152   4.096   9.086 -0.1714 -0.0857 -0.6350
 2942SOL    HW113282   0.205   4.051   9.020 -0.3226 -1.6819  0.2719
 2942SOL    HW213283   0.127   4.027   9.148 -1.2152  1.0960  0.3236
 2943SOL     OW13284   2.771   4.929   9.169  0.1899  0.4852 -0.1809
 2943SOL    HW113285   2.866   4.924   9.178  0.2105  0.2253 -0.5381
 2943SOL    HW213286   2.742   4.839   9.159  0.0548  0.6524 -1.4775
 2944SOL     OW13287  11.032   7.275   7.259  0.2116  0.3651 -0.0445
 2944SOL    HW113288  10.955   7.278   7.203  0.1863 -0.8562 -0.0935
 2944SOL    HW213289  11.002   7.233   7.339  0.4984  1.1655  0.4971
 2945SOL     OW13290   4.265   8.367   0.871 -0.3026  0.2701  0.0581
 2945SOL    HW113291   4.306   8.452   0.887  2.5820 -0.7931 -1.0415
 2945SOL    HW213292   4.237   8.370   0.780 -0.9034  0.3167  0.2445
 2946SOL     OW13293  10.872   7.363   0.125  0.1625 -0.0985  0.2929
 2946SOL    HW113294  10.812   7.427   0.165  0.5370 -0.6105  1.7257
 2946SOL    HW213295  10.821   7.282   0.122  0.3958 -0.2499  0.4427
 2947SOL     OW13296   6.526   0.841  10.919  0.0014  0.3817 -0.3447
 2947SOL    HW113297   6.464   0.773  10.893  0.2702  0.5395 -1.4822
 2947SOL    HW213298   6.485   0.923  10.892  1.0466  0.4359 -1.9792
 2948SOL     OW13299   7.434   2.126   5.083 -0.7910 -0.2158  0.2142
 2948SOL    HW113300   7.521   2.157   5.058 -0.5210 -0.0202  1.3327
 2948SOL    HW213301   7.425   2.041   5.041 -0.6155  0.3653 -1.0253
 2949SOL     OW13302   5.007   5.617   7.912  0.0951  0.5575  0.0587
 2949SOL    HW113303   4.930   5.671   7.932 -0.3561  1.0175 -2.6205
 2949SOL    HW213304   4.973   5.529   7.902 -0.0462  0.6876 -0.6874
 2950SOL     OW13305   0.450   8.853   1.115 -0.2687  0.2140 -0.4244
 2950SOL    HW113306   0.507   8.785   1.150  1.2566 -0.2153 -3.4829
 2950SOL    HW213307   0.507   8.930   1.109 -1.0676  0.8416 -0.1145
 2951SOL     OW13308   0.072   2.644   0.641  0.0722 -0.2169  0.5715
 2951SOL    HW113309   0.038   2.625   0.729  0.7307 -0.5611  0.7552
 2951SOL    HW213310   0.143   2.706   0.655 -0.2013  0.1866  0.2209
 2952SOL     OW13311   4.147   9.787  10.940 -0.3272  0.0606 -0.1492
 2952SOL    HW113312   4.187   9.761  10.857 -1.3009  0.8203 -0.8819
 2952SOL    HW213313   4.219   9.824  10.991  0.3113 -0.5625 -0.5877
 2953SOL     OW13314   8.310   1.333   1.116 -0.1125 -0.1885 -0.1661
 2953SOL    HW113315   8.226   1.374   1.136 -0.0134 -0.2578  0.4006
 2953SOL    HW213316   8.335   1.370   1.032 -0.6098 -0.0083 -0.2384
 2954SOL     OW13317   6.210   6.534   1.988 -0.1653  0.3607  0.2822
 2954SOL    HW113318   6.193   6.609   2.045 -1.6431 -0.7096  1.3302
 2954SOL    HW213319   6.282   6.487   2.031 -1.0664 -0.2740  1.1266
 2955SOL     OW13320   3.166  10.157   0.693  0.2288 -0.3561  0.0163
 2955SOL    HW113321   3.218  10.188   0.767  0.0447 -1.7495  0.7715
 2955SOL    HW213322   3.115  10.233   0.665  0.7594  0.3526  0.9346
 2956SOL     OW13323   8.567   4.048   0.399  0.5139  0.2394  0.1963
 2956SOL    HW113324   8.619   4.060   0.478  1.0632 -0.4121 -0.0544
 2956SOL    HW213325   8.483   4.015   0.429  0.5528  0.4455  0.5358
 2957SOL     OW13326   9.189   2.797   9.754  0.3495 -0.6567  0.8312
 2957SOL    HW113327   9.198   2.882   9.797  0.2157  0.0251 -0.4584
 2957SOL    HW213328   9.182   2.817   9.661 -1.5601 -1.9694  0.6349
 2958SOL     OW13329   5.767   7.251   5.119 -0.5564  0.2415  0.0135
 2958SOL    HW113330   5.716   7.169   5.117  0.2614 -0.2780 -0.0832
 2958SOL    HW213331   5.804   7.259   5.031  0.0534  0.2685  0.2692
 2959SOL     OW13332   0.940   0.379   3.641 -0.5514  0.1710  0.3242
 2959SOL    HW113333   1.007   0.390   3.708 -0.9918 -0.4460  0.8838
 2959SOL    HW213334   0.884   0.456   3.650 -0.3523  0.3121  0.3595
 2960SOL     OW13335   3.564  10.169   1.220  0.6413 -1.1082 -0.0941
 2960SOL    HW113336   3.574  10.262   1.199  0.3494 -1.1970 -0.6490
 2960SOL    HW213337   3.646  10.144   1.262  0.8461 -0.6783 -0.2401
 2961SOL     OW13338   0.309   0.284   4.921  0.1261  0.4832 -0.7365
 2961SOL    HW113339   0.251   0.360   4.918 -1.6721 -0.8320 -1.2058
 2961SOL    HW213340   0.251   0.211   4.945  1.6733 -0.8369 -0.8542
 2962SOL     OW13341   5.264  10.068   3.402 -0.9345 -0.3063  0.5442
 2962SOL    HW113342   5.169  10.082   3.402 -0.9619 -0.4646  1.0496
 2962SOL    HW213343   5.299  10.143   3.449 -0.6954  0.3947 -0.7064
 2963SOL     OW13344   5.914   7.939   9.110 -0.6491  0.3970 -0.1399
 2963SOL    HW113345   5.822   7.912   9.100  0.0335 -2.8074  0.9315
 2963SOL    HW213346   5.920   7.970   9.200 -1.0755  2.8829 -0.8894
 2964SOL     OW13347  11.055  10.315   2.089  0.0685  0.2160  0.4930
 2964SOL    HW113348  10.999  10.301   2.166 -0.5243  0.1978  0.0728
 2964SOL    HW213349  11.054  10.410   2.075  0.8124  0.2976  0.9657
 2965SOL     OW13350   7.508   9.630   0.993  0.4720  0.9248  0.3952
 2965SOL    HW113351   7.510   9.581   1.075  0.7749  0.2038 -0.0295
 2965SOL    HW213352   7.498   9.722   1.019 -1.1382  0.5603  1.1668
 2966SOL     OW13353   3.825   2.420   6.887 -0.1328  0.4254 -0.2770
 2966SOL    HW113354   3.769   2.343   6.875  0.5605 -0.1072 -0.1305
 2966SOL    HW213355   3.905   2.386   6.927  0.2366  1.2065 -0.3293
 2967SOL     OW13356   6.258   4.832   1.086  0.5525  0.0085  0.3986
 2967SOL    HW113357   6.340   4.808   1.128  0.2916 -0.5224  0.6190
 2967SOL    HW213358   6.201   4.757   1.100  0.1006  0.2785  0.0516
 2968SOL     OW13359   1.088   9.607   5.612  0.4497 -0.2244 -0.3959
 2968SOL    HW113360   1.028   9.549   5.658  0.3704 -0.8703 -1.2887
 2968SOL    HW213361   1.050   9.617   5.525  1.6967 -0.7955 -1.0432
 2969SOL     OW13362   8.059   5.371   2.527 -0.0494 -0.4329 -0.2291
 2969SOL    HW113363   8.047   5.279   2.550  1.4870 -1.2200 -2.1935
 2969SOL    HW213364   7.971   5.409   2.532 -0.4183 -1.4605  2.5525
 2970SOL     OW13365   2.813   5.825   7.936 -0.0340  0.4169 -0.0317
 2970SOL    HW113366   2.796   5.891   8.003 -0.1241  1.1882 -0.7925
 2970SOL    HW213367   2.806   5.741   7.982  0.4213  0.9442  1.0201
 2971SOL     OW13368   8.029   4.018   8.126  0.5379  0.0749 -0.6813
 2971SOL    HW113369   7.998   4.102   8.160 -0.7586 -0.5000 -0.3464
 2971SOL    HW213370   8.118   4.034   8.096  0.4941  1.4308 -0.1213
 2972SOL     OW13371   7.014  10.113   6.689 -0.1886 -0.2283 -0.4085
 2972SOL    HW113372   6.969  10.099   6.606  0.2796 -0.3788 -0.6412
 2972SOL    HW213373   6.964  10.062   6.752  0.2996 -1.3218 -0.8760
 2973SOL     OW13374   0.780   1.110   1.619 -0.1916  0.1153  0.7468
 2973SOL    HW113375   0.768   1.017   1.635 -0.6494  0.0367  0.0060
 2973SOL    HW213376   0.870   1.128   1.648  0.3246 -0.8099 -0.1891
 2974SOL     OW13377   0.656  10.080   3.802  0.9095 -0.3355 -0.4162
 2974SOL    HW113378   0.750  10.090   3.789  1.4494 -0.8729  2.4292
 2974SOL    HW213379   0.642   9.985   3.812 -0.0123 -0.2952 -1.0885
 2975SOL     OW13380   7.699   8.551  10.695  0.6299  0.4799 -0.4101
 2975SOL    HW113381   7.687   8.599  10.614 -0.8276  0.2459 -0.3535
 2975SOL    HW213382   7.611   8.542  10.732  1.1606 -0.1347  0.7801
 2976SOL     OW13383   2.282   0.841   8.501 -0.3827 -0.0178  0.1747
 2976SOL    HW113384   2.237   0.925   8.501  0.3096  0.3617 -0.5987
 2976SOL    HW213385   2.224   0.783   8.551 -2.0151  0.3012 -1.2509
 2977SOL     OW13386  10.016   7.633   1.819 -0.1818 -0.0105  0.1984
 2977SOL    HW113387  10.013   7.614   1.725  0.2209 -0.7294  0.3254
 2977SOL    HW213388  10.048   7.723   1.824 -0.4185  0.1110 -0.3574
 2978SOL     OW13389  10.316   6.215   5.645 -0.7311  0.0180 -0.1710
 2978SOL    HW113390  10.309   6.136   5.592  0.0744 -0.6429  0.6626
 2978SOL    HW213391  10.227   6.249   5.650 -0.8888 -0.1674 -1.5280
 2979SOL     OW13392   3.922   8.973   9.429  0.4177  0.3170 -0.0975
 2979SOL    HW113393   3.992   8.908   9.420 -1.0109 -1.3235  0.0230
 2979SOL    HW213394   3.966   9.051   9.462  2.4040 -0.1813 -1.4009
 2980SOL     OW13395   3.291   4.913  10.485 -0.1052  0.3859  0.3061
 2980SOL    HW113396   3.230   4.880  10.419 -0.2180 -0.5600  0.8752
 2980SOL    HW213397   3.375   4.872  10.462  0.0723  0.8016  0.1960
 2981SOL     OW13398   2.190   6.547   8.823 -0.2254 -0.2225 -0.1051
 2981SOL    HW113399   2.110   6.551   8.876  0.9042  0.5827  1.6423
 2981SOL    HW213400   2.220   6.638   8.818  0.2955 -0.4408 -1.2153
 2982SOL     OW13401   7.894   5.210   8.598  0.3540 -0.2802  0.2584
 2982SOL    HW113402   7.811   5.167   8.577  0.1927  0.8030 -1.4792
 2982SOL    HW213403   7.879   5.249   8.685 -0.8294 -0.4098  0.1272
 2983SOL     OW13404   4.304   4.069   5.551  0.1631 -0.0739  0.1552
 2983SOL    HW113405   4.292   3.975   5.534 -0.1686 -0.2027  1.0329
 2983SOL    HW213406   4.240   4.089   5.619  0.7267  0.6283  0.4926
 2984SOL     OW13407  10.258   7.494  10.323  0.1422  0.2105  0.0376
 2984SOL    HW113408  10.345   7.529  10.345  0.5703  0.5305 -1.9984
 2984SOL    HW213409  10.275   7.406  10.290 -0.4101 -0.0508  0.4311
 2985SOL     OW13410   0.873   6.828   1.713 -0.3657 -0.4692 -0.4378
 2985SOL    HW113411   0.903   6.790   1.796 -1.2799  2.0981  1.1795
 2985SOL    HW213412   0.778   6.837   1.724 -0.5347 -0.2969 -1.8712
 2986SOL     OW13413   1.897   5.027   8.348  0.0759 -0.1323  0.3345
 2986SOL    HW113414   1.922   4.937   8.367 -0.3418 -0.6613 -1.3861
 2986SOL    HW213415   1.980   5.072   8.329  0.1951 -0.4865 -0.0091
 2987SOL     OW13416   6.856   6.938   3.590  0.1782 -0.0507 -0.5720
 2987SOL    HW113417   6.804   7.015   3.566  1.3164  1.4812  1.5538
 2987SOL    HW213418   6.805   6.894   3.658  1.5082  1.4779  1.5489
 2988SOL     OW13419   2.466   0.789   4.881 -0.3842  0.3489 -0.4334
 2988SOL    HW113420   2.504   0.803   4.968  0.1653  1.1263 -0.7933
 2988SOL    HW213421   2.518   0.844   4.822  0.8432 -1.9553 -1.6701
 2989SOL     OW13422   8.794  10.096   2.102  0.3955 -0.3764 -0.2423
 2989SOL    HW113423   8.855  10.028   2.130  1.0655 -0.4102 -1.6974
 2989SOL    HW213424   8.779  10.078   2.009  0.6407  1.5021 -0.6766
 2990SOL     OW13425   0.716   1.385  10.329 -0.1259 -0.3108 -0.1030
 2990SOL    HW113426   0.661   1.397  10.407  2.4906  2.0939  1.5924
 2990SOL    HW213427   0.740   1.293  10.330  0.1980 -0.2651  2.2809
 2991SOL     OW13428  11.068   2.441   4.317  0.0260  0.3660 -0.1009
 2991SOL    HW113429  11.131   2.496   4.364 -0.4527 -1.3205  2.7705
 2991SOL    HW213430  11.080   2.354   4.355 -1.9419 -0.6667 -1.6662
 2992SOL     OW13431   5.329   2.678   5.127 -0.1869  0.6339  0.2070
 2992SOL    HW113432   5.348   2.587   5.149  0.9405  0.8886  0.3237
 2992SOL    HW213433   5.411   2.725   5.143 -0.2343  1.3800 -1.5098
 2993SOL     OW13434   9.324   8.927   5.003 -0.6795 -0.6955  0.2999
 2993SOL    HW113435   9.405   8.978   5.006 -1.5381  0.7314  0.2323
 2993SOL    HW213436   9.350   8.838   5.025  1.1850 -0.6209 -1.3541
 2994SOL     OW13437  10.607   2.821   7.227  0.2630 -0.0478 -0.1072
 2994SOL    HW113438  10.569   2.872   7.298 -0.3069 -1.1476  0.4004
 2994SOL    HW213439  10.698   2.852   7.221 -0.3373  1.7384 -0.5211
 2995SOL     OW13440   9.534   5.337   4.383 -0.3151  0.6534  0.2957
 2995SOL    HW113441   9.544   5.414   4.438 -1.4911  1.3842 -0.4801
 2995SOL    HW213442   9.439   5.326   4.374 -0.1477  0.1336 -0.9960
 2996SOL     OW13443   0.274   8.400   4.683 -0.5184 -0.2529 -0.4374
 2996SOL    HW113444   0.368   8.413   4.691 -0.1753 -2.4172 -0.4398
 2996SOL    HW213445   0.241   8.485   4.652  1.4458  0.4527 -0.7528
 2997SOL     OW13446   6.045   4.526   6.700  0.1785 -0.1370 -0.5402
 2997SOL    HW113447   6.086   4.571   6.626  0.1092  0.1619 -0.3980
 2997SOL    HW213448   6.106   4.456   6.723  1.3351  1.1761  0.5959
 2998SOL     OW13449   9.848   1.224   1.896  0.5328 -0.0048  0.0540
 2998SOL    HW113450   9.887   1.308   1.921  1.1145  0.0221 -0.8749
 2998SOL    HW213451   9.778   1.249   1.835  1.1389 -0.2030 -0.7529
 2999SOL     OW13452   9.654   3.801   6.195  0.4426  0.2734 -0.6159
 2999SOL    HW113453   9.719   3.736   6.221 -0.2530 -0.4517 -0.6277
 2999SOL    HW213454   9.674   3.819   6.103 -0.7834 -1.7452 -1.3508
 3000SOL     OW13455   3.955   6.394   6.088 -0.3026 -0.0259 -0.0246
 3000SOL    HW113456   4.000   6.339   6.023 -1.5082  2.0406 -2.8444
 3000SOL    HW213457   3.958   6.482   6.051 -1.5942  1.2017  2.5107
 3001SOL     OW13458   3.613   1.206   8.013  0.3125  0.2664  0.0394
 3001SOL    HW113459   3.577   1.149   7.944 -0.3040 -1.1310  1.4564
 3001SOL    HW213460   3.706   1.184   8.016  1.0625  2.5923 -2.4034
 3002SOL     OW13461   1.529   8.937   9.697 -0.0298  0.3008  0.5535
 3002SOL    HW113462   1.564   8.905   9.780 -0.6837  1.2087  1.2159
 3002SOL    HW213463   1.597   8.995   9.663  0.1909  0.0195  0.5121
 3003SOL     OW13464   8.577   6.777  10.312 -0.4905  0.2019 -0.1122
 3003SOL    HW113465   8.496   6.799  10.359 -0.6408  0.4804 -0.4971
 3003SOL    HW213466   8.593   6.853  10.255 -1.2748 -0.8778 -1.8372
 3004SOL     OW13467   4.356   9.188   6.340 -0.2663  0.1261 -0.2858
 3004SOL    HW113468   4.412   9.242   6.395 -1.4198  0.8282  0.2517
 3004SOL    HW213469   4.290   9.249   6.306 -1.5310 -0.9005  0.2405
 3005SOL     OW13470   1.764   6.733  10.607 -0.0882 -0.1569  0.2928
 3005SOL    HW113471   1.860   6.729  10.609 -0.0240  0.7297 -0.1105
 3005SOL    HW213472   1.735   6.646  10.633  0.8319 -0.4705  0.3008
 3006SOL     OW13473   6.828   3.122   6.395 -0.0719 -0.3786 -0.1620
 3006SOL    HW113474   6.852   3.036   6.429  1.5930 -0.0103 -0.3574
 3006SOL    HW213475   6.733   3.116   6.381  0.2666 -2.8483 -2.0379
 3007SOL     OW13476   8.262   7.505   0.042  0.2995 -0.3171 -0.5891
 3007SOL    HW113477   8.266   7.417   0.081 -1.5665 -0.8036 -1.3741
 3007SOL    HW213478   8.213   7.492  -0.039  0.6631  1.3519 -1.0993
 3008SOL     OW13479   8.713  10.841   5.255 -0.0024  0.0048 -0.4786
 3008SOL    HW113480   8.723  10.936   5.256 -2.5643  0.3479 -0.6240
 3008SOL    HW213481   8.721  10.816   5.163  0.4526  0.0981 -0.4664
 3009SOL     OW13482   4.463   6.976   2.796 -0.2422  0.1347 -0.2416
 3009SOL    HW113483   4.416   6.998   2.716 -1.0597 -0.1970  0.1257
 3009SOL    HW213484   4.465   6.880   2.796 -1.4170  0.0804  0.7583
 3010SOL     OW13485   2.796   2.894   0.591 -0.0137  0.0492 -0.3674
 3010SOL    HW113486   2.767   2.978   0.627  0.8872  0.7647 -1.2661
 3010SOL    HW213487   2.742   2.829   0.637 -1.5369  1.1739 -0.4791
 3011SOL     OW13488   3.772   7.869   8.508  0.4599 -0.1953  0.3273
 3011SOL    HW113489   3.865   7.853   8.524  0.7712  1.3667  0.2302
 3011SOL    HW213490   3.727   7.820   8.577  1.2078 -2.6895 -0.8507
 3012SOL     OW13491   4.524   7.100   9.270  0.6604  0.6114  0.3038
 3012SOL    HW113492   4.547   7.048   9.193  1.0798 -0.1277  0.9146
 3012SOL    HW213493   4.534   7.039   9.344  0.2330  1.2961  0.9405
 3013SOL     OW13494   3.605   2.856   1.344 -0.1834  0.4169  0.0442
 3013SOL    HW113495   3.627   2.886   1.432 -1.9353  2.5110 -0.1519
 3013SOL    HW213496   3.511   2.841   1.347 -0.0835 -0.6296 -1.1912
 3014SOL     OW13497   9.572  10.096   8.113  0.1565  0.2534  0.0414
 3014SOL    HW113498   9.666  10.093   8.129  0.5503  1.2858 -1.7509
 3014SOL    HW213499   9.563  10.148   8.033 -1.7471 -1.9890 -1.3258
 3015SOL     OW13500   1.371   1.504   4.162 -0.3618 -0.4183  0.3049
 3015SOL    HW113501   1.459   1.483   4.193  0.0464  0.4979 -0.1911
 3015SOL    HW213502   1.384   1.574   4.097 -1.5532  0.5777  1.0958
 3016SOL     OW13503   0.512   2.263   6.283  0.1329 -0.2535  0.1764
 3016SOL    HW113504   0.440   2.205   6.310  0.3924 -0.0547  1.3377
 3016SOL    HW213505   0.577   2.204   6.245  0.0180 -0.6235  0.5419
 3017SOL     OW13506   9.931   1.610   5.922  0.6999  0.7925 -0.5235
 3017SOL    HW113507  10.009   1.661   5.942  0.4478  0.4211  1.6612
 3017SOL    HW213508   9.962   1.541   5.863  1.8061  1.2386 -0.4876
 3018SOL     OW13509   2.774   3.424   0.856  0.6502  0.3023  0.0283
 3018SOL    HW113510   2.783   3.429   0.951  3.0750  1.8369 -0.2060
 3018SOL    HW213511   2.681   3.441   0.840  0.4510  1.4452  2.0608
 3019SOL     OW13512   7.255   4.995   3.145  0.2585  0.4509  0.9545
 3019SOL    HW113513   7.192   5.058   3.181 -0.5962  0.6622 -0.8397
 3019SOL    HW213514   7.202   4.924   3.110  1.1121 -0.2098  0.9527
 3020SOL     OW13515   0.051   2.872  10.645  0.2510 -0.1266  0.6647
 3020SOL    HW113516  -0.013   2.850  10.713 -0.6877 -0.0881 -0.1825
 3020SOL    HW213517  -0.002   2.906  10.573  1.3660  1.7127  0.6425
 3021SOL     OW13518   4.011   3.791   5.276 -0.6792  0.1859 -0.2523
 3021SOL    HW113519   4.079   3.789   5.344 -1.3419  0.7802  0.4471
 3021SOL    HW213520   4.049   3.844   5.206 -0.1495 -0.0864 -0.1801
 3022SOL     OW13521  10.388   1.785   3.149  0.3935  0.6280 -0.2019
 3022SOL    HW113522  10.299   1.820   3.157  0.4777  0.6155  0.9370
 3022SOL    HW213523  10.379   1.710   3.089  0.0003  1.8063 -1.6925
 3023SOL     OW13524   1.283   6.100   3.449 -0.0840 -0.0916  0.2450
 3023SOL    HW113525   1.314   6.009   3.449  0.0437 -0.0774 -1.2574
 3023SOL    HW213526   1.314   6.136   3.532 -1.0840 -1.7123  1.3885
 3024SOL     OW13527  10.089   4.954   0.950 -0.2437 -0.2450 -0.7121
 3024SOL    HW113528  10.076   4.981   0.859  2.0163  1.1224 -0.7210
 3024SOL    HW213529  10.127   4.866   0.943 -0.1476 -0.1768 -1.1015
 3025SOL     OW13530   8.042   6.683   3.729  0.3737 -0.2003 -0.0648
 3025SOL    HW113531   7.982   6.681   3.655 -1.5125 -1.6015  1.4079
 3025SOL    HW213532   7.986   6.690   3.806  2.2542  1.1356  1.2948
 3026SOL     OW13533   4.304   8.449   4.767 -0.4004  0.5325 -0.0626
 3026SOL    HW113534   4.211   8.445   4.742 -0.8633  1.7303  1.2766
 3026SOL    HW213535   4.350   8.463   4.684 -1.4480  0.2944 -0.7113
 3027SOL     OW13536   4.587   2.145   2.028  0.3753  0.0990 -0.0891
 3027SOL    HW113537   4.583   2.134   1.933 -0.8870 -1.6950  0.0966
 3027SOL    HW213538   4.678   2.126   2.051  0.4965 -0.3288 -0.8812
 3028SOL     OW13539   1.258   7.154  10.948 -0.3616 -0.1487 -0.3276
 3028SOL    HW113540   1.286   7.063  10.939  0.1820 -0.0188 -0.0031
 3028SOL    HW213541   1.172   7.157  10.906  0.2085 -0.5176 -1.5682
 3029SOL     OW13542   2.432   8.122   4.255 -0.0328  0.1810  0.1270
 3029SOL    HW113543   2.350   8.097   4.298 -0.7099  0.9874 -0.6453
 3029SOL    HW213544   2.494   8.053   4.279 -1.2923 -1.1823 -0.3444
 3030SOL     OW13545   9.807   4.956   6.296  0.3007 -0.1858 -0.2239
 3030SOL    HW113546   9.857   4.989   6.221 -0.1327 -0.0742 -0.4707
 3030SOL    HW213547   9.777   4.869   6.269 -1.7124  0.7046 -1.0928
 3031SOL     OW13548   9.198   0.708   1.091 -0.2037  0.5841 -0.0055
 3031SOL    HW113549   9.181   0.614   1.099 -0.5955  0.6904  0.4137
 3031SOL    HW213550   9.115   0.750   1.113 -0.5020  0.9939 -1.8025
 3032SOL     OW13551   4.119   8.693   0.226 -0.2983  0.3655  0.1359
 3032SOL    HW113552   4.095   8.657   0.141  0.3037  1.1971 -0.3961
 3032SOL    HW213553   4.049   8.662   0.285 -0.3280 -0.8263 -0.4851
 3033SOL     OW13554   9.687   4.478   1.191 -0.1791  0.0251  0.3711
 3033SOL    HW113555   9.721   4.538   1.258 -2.2903 -0.4924  2.0229
 3033SOL    HW213556   9.625   4.532   1.141  0.0039 -0.0787  0.0285
 3034SOL     OW13557   2.881   9.323   3.242 -0.1269 -0.1093  0.0920
 3034SOL    HW113558   2.814   9.329   3.309  1.1767 -1.1528  1.5618
 3034SOL    HW213559   2.878   9.408   3.197 -0.4899  0.9471  2.0128
 3035SOL     OW13560   2.714   9.369   1.480  0.1541  0.3095  0.2151
 3035SOL    HW113561   2.770   9.305   1.437 -0.6225 -0.2162 -0.0489
 3035SOL    HW213562   2.657   9.317   1.536 -0.1385  0.8176  0.3976
 3036SOL     OW13563   4.647   3.569   9.460  0.4097 -0.1652  0.2758
 3036SOL    HW113564   4.623   3.640   9.520  0.8506 -0.5534  0.9286
 3036SOL    HW213565   4.575   3.505   9.468  0.5733 -0.3160  0.5593
 3037SOL     OW13566   1.937  10.903  11.036  0.4914 -0.2729  0.2507
 3037SOL    HW113567   1.866  10.962  11.060 -0.2527 -1.8763  2.2110
 3037SOL    HW213568   1.900  10.848  10.967  0.6086  0.3323 -0.3134
 3038SOL     OW13569   4.165   3.645   9.648 -0.4554  0.1818 -0.0427
 3038SOL    HW113570   4.209   3.723   9.613 -0.7245 -0.0742 -0.9717
 3038SOL    HW213571   4.088   3.634   9.593  0.1402 -1.3622 -0.6199
 3039SOL     OW13572   3.330   0.726   7.976 -0.2840  0.3594  0.1970
 3039SOL    HW113573   3.403   0.664   7.982  0.0032  0.6676 -0.0461
 3039SOL    HW213574   3.367   0.809   8.006  0.1640  1.0875 -2.1615
 3040SOL     OW13575   9.559   2.169  10.348  0.3208  0.0934  0.4647
 3040SOL    HW113576   9.560   2.187  10.253 -0.7322 -1.3420  0.1482
 3040SOL    HW213577   9.569   2.255  10.388 -0.8743  0.9591 -0.9628
 3041SOL     OW13578   2.130   0.853   8.918 -0.1251  0.2890  0.2370
 3041SOL    HW113579   2.101   0.924   8.975  0.4196  0.0275  0.8623
 3041SOL    HW213580   2.224   0.867   8.908  0.1909 -0.8916  1.2161
 3042SOL     OW13581   7.015   2.810   7.795  0.6648  0.2442  0.1806
 3042SOL    HW113582   6.953   2.862   7.745  0.2778  0.3522  0.7582
 3042SOL    HW213583   7.100   2.851   7.779  0.6491 -0.1065 -0.8792
 3043SOL     OW13584   8.125   5.816   9.232 -0.6634  0.0338 -0.5564
 3043SOL    HW113585   8.058   5.864   9.182 -0.6498 -0.6184 -1.2145
 3043SOL    HW213586   8.182   5.884   9.267 -1.2546  0.5597 -0.5987
 3044SOL     OW13587   1.320   8.831   3.516 -0.0208 -0.3868 -0.0196
 3044SOL    HW113588   1.380   8.825   3.590  1.2801 -1.7672 -1.1177
 3044SOL    HW213589   1.252   8.767   3.535  0.5442 -1.0551 -0.1692
 3045SOL     OW13590   2.071   9.694   5.042  0.0908 -0.1391  0.0448
 3045SOL    HW113591   2.016   9.636   4.991 -0.9914  0.1505  0.8489
 3045SOL    HW213592   2.153   9.646   5.053  0.5907  0.0330 -2.4228
 3046SOL     OW13593   6.103   5.153   4.622  0.5274 -0.5079 -0.3455
 3046SOL    HW113594   6.074   5.123   4.536 -0.9592 -1.7275  0.5274
 3046SOL    HW213595   6.055   5.098   4.684  0.7962  1.0098  1.2915
 3047SOL     OW13596   3.324   7.179   6.954  0.7441 -0.7221 -0.0038
 3047SOL    HW113597   3.268   7.140   7.022 -2.6268 -0.5669 -2.4491
 3047SOL    HW213598   3.311   7.122   6.878  1.0717  1.3604 -1.6987
 3048SOL     OW13599   4.238   7.344   8.001 -0.3558  0.3809 -0.3103
 3048SOL    HW113600   4.160   7.396   8.021  0.0974  1.1154 -0.3906
 3048SOL    HW213601   4.235   7.333   7.906 -0.9459 -0.5681 -0.1986
 3049SOL     OW13602   7.448   4.022   7.814 -0.4354 -0.4880  0.3940
 3049SOL    HW113603   7.469   4.078   7.739 -1.3464 -0.9736 -0.2369
 3049SOL    HW213604   7.359   3.991   7.797 -1.6438  1.3028  2.8529
 3050SOL     OW13605   6.596   2.381   8.574 -0.5639  0.2099 -0.1266
 3050SOL    HW113606   6.532   2.413   8.637  1.1970 -0.5010  2.1802
 3050SOL    HW213607   6.675   2.432   8.592  0.7519 -1.7951  0.0539
 3051SOL     OW13608   5.621   9.637   6.363 -0.1119 -0.1636 -0.3405
 3051SOL    HW113609   5.637   9.575   6.434  0.5411  0.0333 -0.3093
 3051SOL    HW213610   5.704   9.643   6.316  0.2553  1.6770  0.4427
 3052SOL     OW13611   4.808   4.470  10.972  0.1909 -0.0421 -0.1729
 3052SOL    HW113612   4.806   4.528  11.048  0.7349  0.5794 -0.6212
 3052SOL    HW213613   4.730   4.492  10.922 -0.9581 -1.4496  0.8989
 3053SOL     OW13614   5.307   5.374   2.813  0.4654 -0.3739 -0.0430
 3053SOL    HW113615   5.316   5.285   2.780  0.9034 -0.7127  0.9318
 3053SOL    HW213616   5.251   5.418   2.750  1.8849 -0.7605 -1.6494
 3054SOL     OW13617   6.974   0.356   2.374 -0.2576  0.0525 -0.6146
 3054SOL    HW113618   6.885   0.364   2.407  0.1776  0.1838  0.5934
 3054SOL    HW213619   7.022   0.426   2.417  0.5395 -0.3181 -0.8723
 3055SOL     OW13620   0.429   1.420   7.027  0.7627  0.3057 -0.8308
 3055SOL    HW113621   0.449   1.504   7.069  1.4453 -0.8624  1.3368
 3055SOL    HW213622   0.336   1.427   7.006  0.6809  1.4292 -0.2149
 3056SOL     OW13623   2.682   4.650  11.003  0.3464 -0.8841  0.1773
 3056SOL    HW113624   2.666   4.676  11.093 -1.0200  1.2068 -0.6063
 3056SOL    HW213625   2.751   4.709  10.972  0.2711 -1.0728 -0.3693
 3057SOL     OW13626   7.460   7.288   1.039  0.0053  0.9212  0.2210
 3057SOL    HW113627   7.485   7.292   1.131 -1.7963 -0.3860  0.8271
 3057SOL    HW213628   7.439   7.379   1.016 -1.2421  1.0200  1.6320
 3058SOL     OW13629   7.031   1.542   8.311  1.1038 -0.2016  0.2021
 3058SOL    HW113630   6.944   1.569   8.341  0.3121 -1.3947 -0.9237
 3058SOL    HW213631   7.065   1.618   8.265 -0.6490 -0.6372 -2.0039
 3059SOL     OW13632   8.241   1.252   8.792 -0.7574  0.3753 -0.0487
 3059SOL    HW113633   8.197   1.306   8.726 -0.0570 -0.4512 -1.2328
 3059SOL    HW213634   8.204   1.282   8.875 -0.7154  2.3675 -0.6783
 3060SOL     OW13635   6.123   2.632   0.876  0.0747  0.4663  0.3554
 3060SOL    HW113636   6.191   2.686   0.915  1.6867 -1.6284  0.5995
 3060SOL    HW213637   6.079   2.591   0.950  0.9533 -0.9487  0.1266
 3061SOL     OW13638   2.486   0.527   3.587 -0.0667  0.3860 -0.4219
 3061SOL    HW113639   2.496   0.618   3.558  0.8494 -0.0666 -1.5841
 3061SOL    HW213640   2.442   0.484   3.513 -1.5757  0.1216  0.5926
 3062SOL     OW13641   1.342   3.976   5.314 -0.4098  0.4568 -0.1851
 3062SOL    HW113642   1.426   3.983   5.269 -0.3777 -0.9091 -0.3647
 3062SOL    HW213643   1.363   3.937   5.399 -0.7888  0.7080  0.0286
 3063SOL     OW13644   9.926   6.812  10.393 -0.1036 -0.2511  0.3218
 3063SOL    HW113645  10.014   6.812  10.356 -0.9315 -1.4279 -1.8177
 3063SOL    HW213646   9.910   6.721  10.417 -1.4541 -0.4976 -1.2822
 3064SOL     OW13647  10.157   3.715   5.892  0.0641  0.1969 -0.6146
 3064SOL    HW113648  10.111   3.799   5.888 -0.5988 -0.1657 -0.6643
 3064SOL    HW213649  10.156   3.683   5.802  0.8024  0.3830 -0.6995
 3065SOL     OW13650   6.430   8.799   2.483  0.7038 -0.4310  0.4034
 3065SOL    HW113651   6.499   8.736   2.461  0.4735 -0.1110 -1.4013
 3065SOL    HW213652   6.359   8.778   2.422  0.5919  1.5163 -0.1890
 3066SOL     OW13653   8.574   8.194   5.900 -0.3306  0.3876  0.0228
 3066SOL    HW113654   8.625   8.160   5.973  0.1484 -2.0440 -1.3294
 3066SOL    HW213655   8.482   8.183   5.927 -0.1862  1.8342  1.1981
 3067SOL     OW13656   4.922   7.150  10.565 -0.1213  0.0372  0.3410
 3067SOL    HW113657   4.911   7.197  10.482  0.2097 -0.7691 -0.1723
 3067SOL    HW213658   4.832   7.128  10.591 -0.2320  0.3477  0.2282
 3068SOL     OW13659   2.892   7.121   1.099  0.2850  0.0824 -0.0229
 3068SOL    HW113660   2.847   7.121   1.014  0.3381  1.1630 -0.0723
 3068SOL    HW213661   2.822   7.133   1.163  0.2561 -0.6326  0.0815
 3069SOL     OW13662   6.817   2.483   1.233  0.0201  0.3539 -0.3627
 3069SOL    HW113663   6.840   2.490   1.140  0.4900 -0.7166 -0.3277
 3069SOL    HW213664   6.754   2.411   1.236 -0.1998  0.5669  0.1174
 3070SOL     OW13665   9.792   4.886  10.559 -0.2060 -0.5659  0.0100
 3070SOL    HW113666   9.800   4.791  10.549  1.2794 -0.5339  0.7220
 3070SOL    HW213667   9.768   4.898  10.651 -1.4776 -0.2755 -0.3356
 3071SOL     OW13668   3.040  10.673  10.156 -0.0755 -0.9242  0.1198
 3071SOL    HW113669   3.051  10.646  10.065 -0.1858 -1.6193  0.3090
 3071SOL    HW213670   2.945  10.674  10.170 -0.1112  0.1735 -0.0553
 3072SOL     OW13671   6.970  10.959   9.462 -0.1351 -0.6387 -0.2731
 3072SOL    HW113672   6.945  10.918   9.545 -1.3771  0.4556 -0.0628
 3072SOL    HW213673   6.920  10.911   9.396  3.2889 -3.7531 -0.9502
 3073SOL     OW13674   8.060   4.781   8.018 -0.0100  0.4348 -0.6782
 3073SOL    HW113675   7.977   4.772   8.063 -0.7291 -0.2304 -2.0634
 3073SOL    HW213676   8.126   4.761   8.084 -0.9071  1.4425  0.5647
 3074SOL     OW13677  11.014   4.534   2.040 -0.0541 -0.4328 -0.1248
 3074SOL    HW113678  11.051   4.488   1.964  0.5504 -0.8684  0.4248
 3074SOL    HW213679  10.958   4.469   2.082  0.0680 -0.3717  0.1302
 3075SOL     OW13680   8.937   5.460  11.040  0.5814 -0.1647 -0.1845
 3075SOL    HW113681   8.869   5.404  11.077 -1.5123  1.4012 -1.4424
 3075SOL    HW213682   8.988   5.403  10.983 -0.8471 -1.0169 -0.6452
 3076SOL     OW13683   3.850   0.498   3.735  0.6029 -0.2351 -0.4224
 3076SOL    HW113684   3.800   0.575   3.707 -0.2985 -0.9396 -0.7839
 3076SOL    HW213685   3.784   0.432   3.754  1.3775 -0.9801 -0.2785
 3077SOL     OW13686   7.644   3.854   9.235  0.2116 -0.0429 -1.0287
 3077SOL    HW113687   7.718   3.914   9.227 -0.2281  0.6261 -0.2147
 3077SOL    HW213688   7.613   3.866   9.324 -2.0990  1.1542 -1.9110
 3078SOL     OW13689  10.861   5.250   8.454  0.0712 -0.6979 -0.5768
 3078SOL    HW113690  10.768   5.231   8.440 -0.2228  1.0964 -1.3260
 3078SOL    HW213691  10.866   5.346   8.451  1.7247 -0.7013  0.9558
 3079SOL     OW13692   8.463   5.144   4.587  0.2574  0.2152 -0.5057
 3079SOL    HW113693   8.381   5.105   4.617 -0.0683 -0.6211 -2.3754
 3079SOL    HW213694   8.450   5.161   4.494  2.6574 -1.2501 -1.2159
 3080SOL     OW13695   5.640   8.341   9.470 -0.1813 -0.2435  0.3860
 3080SOL    HW113696   5.707   8.377   9.411  1.1429 -0.9477  1.4050
 3080SOL    HW213697   5.684   8.269   9.515 -0.9420  0.5899  2.6273
 3081SOL     OW13698  10.827   4.260   0.726 -0.1485 -0.4319  0.5992
 3081SOL    HW113699  10.784   4.174   0.730 -4.1692  1.1100 -2.5703
 3081SOL    HW213700  10.907   4.244   0.677 -1.2301 -2.3313 -0.7109
 3082SOL     OW13701   8.731  10.469   3.071  0.4259 -0.1750 -0.4997
 3082SOL    HW113702   8.787  10.537   3.035  0.8627 -0.5153 -0.4704
 3082SOL    HW213703   8.788  10.393   3.080  0.4757  0.0268  1.3839
 3083SOL     OW13704   0.448   4.394   2.898  0.3543  0.2747 -0.0062
 3083SOL    HW113705   0.418   4.462   2.838  2.0771  0.6726 -0.4790
 3083SOL    HW213706   0.413   4.420   2.983 -0.9419  0.4719 -0.5791
 3084SOL     OW13707   3.758   3.044   3.340  0.4801  0.2324  0.1120
 3084SOL    HW113708   3.741   2.968   3.395 -0.2924 -0.3885 -0.9329
 3084SOL    HW213709   3.775   3.115   3.401  4.0211 -1.3131  1.1410
 3085SOL     OW13710   3.809   5.032  10.645 -0.0940  0.3045  0.3053
 3085SOL    HW113711   3.714   5.028  10.638 -0.1222  1.6564 -0.4120
 3085SOL    HW213712   3.836   4.942  10.665 -1.4093 -0.3731 -0.8489
 3086SOL     OW13713   7.625   9.596   7.238 -0.3754  0.1039  0.0263
 3086SOL    HW113714   7.721   9.594   7.246 -0.4394  0.1051  0.8780
 3086SOL    HW213715   7.609   9.647   7.159  0.3152  0.7253  0.2764
 3087SOL     OW13716   0.240   3.828   0.548 -0.8449 -0.1329 -0.2331
 3087SOL    HW113717   0.332   3.820   0.573 -0.6312 -0.8625 -1.2397
 3087SOL    HW213718   0.241   3.885   0.471 -1.0661 -1.3143 -1.1434
 3088SOL     OW13719   8.934   7.299   7.797 -0.8613  0.1715 -0.2336
 3088SOL    HW113720   8.890   7.220   7.765  0.1471 -1.2803  1.6850
 3088SOL    HW213721   8.882   7.325   7.874  1.4659 -1.6497  2.1538
 3089SOL     OW13722   4.402   6.878   4.898  0.0864 -0.3527  0.3767
 3089SOL    HW113723   4.340   6.811   4.929  1.0475 -1.0093  0.9472
 3089SOL    HW213724   4.457   6.896   4.974  0.8021 -0.0290 -0.2048
 3090SOL     OW13725   1.295   9.088   5.988 -0.3281 -0.3728 -0.6529
 3090SOL    HW113726   1.241   9.064   6.064  0.3744  0.1136  0.0116
 3090SOL    HW213727   1.354   9.155   6.021  0.4097 -0.6038 -1.4779
 3091SOL     OW13728   9.615   3.997   9.860 -0.3485  0.3573 -0.2920
 3091SOL    HW113729   9.617   4.039   9.774  1.1063 -1.4454 -1.2128
 3091SOL    HW213730   9.659   4.058   9.919 -2.0803  1.9704 -0.5950
 3092SOL     OW13731   3.471   5.838   0.877  0.1727  0.0124 -0.4601
 3092SOL    HW113732   3.539   5.832   0.810  0.1204  2.2808 -0.7946
 3092SOL    HW213733   3.455   5.932   0.885 -3.4133 -0.4424 -0.8956
 3093SOL     OW13734   1.260   7.560   9.783  0.3336 -0.0039  0.3861
 3093SOL    HW113735   1.300   7.526   9.863 -0.7525 -0.3681  0.7990
 3093SOL    HW213736   1.178   7.601   9.813  0.5822  1.0989 -0.3682
 3094SOL     OW13737  10.043   2.380   4.780 -0.7289  0.0559  0.9510
 3094SOL    HW113738  10.112   2.416   4.836  0.2242 -0.8951  0.4160
 3094SOL    HW213739   9.970   2.442   4.790  0.3689  1.3784  1.1102
 3095SOL     OW13740   0.028   5.615   5.486  0.5579  0.6780  0.6382
 3095SOL    HW113741   0.070   5.605   5.571 -1.3048  0.1800  1.5627
 3095SOL    HW213742  -0.030   5.690   5.496 -0.7001 -0.1986  0.2853
 3096SOL     OW13743   0.696  10.224   3.429 -0.1050  0.0457  0.0673
 3096SOL    HW113744   0.706  10.132   3.451 -0.0573  0.1056  0.3017
 3096SOL    HW213745   0.718  10.229   3.336  0.3203 -0.1104  0.1544
 3097SOL     OW13746   5.504   4.407   1.127  0.5747  0.0412  0.2824
 3097SOL    HW113747   5.569   4.432   1.062 -1.0581 -2.0251 -2.3834
 3097SOL    HW213748   5.553   4.361   1.195  2.0272 -0.4352 -1.0406
 3098SOL     OW13749   4.787   6.016   2.926 -0.5756  0.0497  0.3104
 3098SOL    HW113750   4.728   6.082   2.890 -1.1114 -0.4742  0.2233
 3098SOL    HW213751   4.785   5.945   2.863 -0.1850 -0.1539  0.5235
 3099SOL     OW13752   9.672   9.436   4.736 -0.3955 -0.2756  0.0831
 3099SOL    HW113753   9.719   9.433   4.653 -1.6803 -0.8388 -0.6693
 3099SOL    HW213754   9.732   9.478   4.798  0.6671 -0.0573 -1.0750
 3100SOL     OW13755   7.677   2.950  10.496 -0.5155  0.2292  0.0951
 3100SOL    HW113756   7.756   2.901  10.517 -2.0688 -1.2914  3.0771
 3100SOL    HW213757   7.701   3.042  10.510  0.7514 -0.1907  0.7876
 3101SOL     OW13758  10.068   1.103   7.105 -0.2345 -0.0300 -0.0970
 3101SOL    HW113759  10.132   1.088   7.036 -2.1305  0.5848 -2.1175
 3101SOL    HW213760  10.116   1.091   7.187  2.0457 -1.0577 -1.5144
 3102SOL     OW13761   4.357   9.508   2.882 -0.3548  0.1013  0.3291
 3102SOL    HW113762   4.426   9.544   2.937 -0.4490  1.1763 -0.2193
 3102SOL    HW213763   4.277   9.520   2.933 -0.7343  2.9136 -0.7380
 3103SOL     OW13764   2.275   6.975   4.789  0.2063  0.1514 -0.5962
 3103SOL    HW113765   2.192   6.987   4.742  0.6362  1.2405 -1.1008
 3103SOL    HW213766   2.333   6.938   4.723  0.0423 -0.9480 -0.1467
 3104SOL     OW13767   5.518   4.139   4.185 -0.2860  0.8488 -0.3294
 3104SOL    HW113768   5.557   4.053   4.198 -1.3879  0.2959 -0.5292
 3104SOL    HW213769   5.430   4.131   4.223  0.2073  2.4315  1.2278
 3105SOL     OW13770   6.758   2.931   3.240 -0.2293  0.2466  0.1935
 3105SOL    HW113771   6.768   2.847   3.196  0.8463 -0.0618  0.9690
 3105SOL    HW213772   6.810   2.922   3.320  0.3332  1.8060  0.0454
 3106SOL     OW13773   1.788   4.901   1.526  0.0571 -0.8364  0.4027
 3106SOL    HW113774   1.850   4.876   1.595  2.8853  0.5512 -1.4333
 3106SOL    HW213775   1.811   4.845   1.451 -2.3434 -1.6956  0.2229
 3107SOL     OW13776   9.934   1.791   7.958  0.3560  0.0326 -0.8963
 3107SOL    HW113777   9.919   1.886   7.956  0.2895  0.0146 -1.4176
 3107SOL    HW213778   9.873   1.756   7.893  1.2559 -0.2410 -1.6112
 3108SOL     OW13779   5.278   2.678   4.775 -0.2535  0.4676  0.1875
 3108SOL    HW113780   5.334   2.625   4.718 -0.5866  0.2226  0.0835
 3108SOL    HW213781   5.337   2.742   4.815  0.0742  0.2972 -0.0244
 3109SOL     OW13782   6.371   5.262   4.179 -0.1833  0.6845 -0.3360
 3109SOL    HW113783   6.339   5.172   4.166  0.0821  0.4466  0.5933
 3109SOL    HW213784   6.324   5.292   4.257 -0.0530  1.2586 -0.4781
 3110SOL     OW13785   6.914   1.742   6.817  0.8345  0.4697  0.4923
 3110SOL    HW113786   7.009   1.744   6.830  0.9788  0.1199 -0.4449
 3110SOL    HW213787   6.901   1.673   6.752  0.0569  1.4504 -0.4078
 3111SOL     OW13788   3.723   3.789   9.965  0.0820  0.7501  0.1480
 3111SOL    HW113789   3.813   3.796  10.000 -0.1111  3.2054  0.3384
 3111SOL    HW213790   3.671   3.763  10.041  0.3808  1.1855  0.5143
 3112SOL     OW13791   4.560   0.212   9.482 -0.4834  0.2355  0.4974
 3112SOL    HW113792   4.486   0.231   9.540 -0.5473  1.7190 -0.0196
 3112SOL    HW213793   4.604   0.297   9.472  0.6666 -0.4082 -0.0605
 3113SOL     OW13794   3.820  10.249   3.355 -0.2066 -0.1280 -0.8116
 3113SOL    HW113795   3.893  10.270   3.413 -0.7257 -1.2883  0.3112
 3113SOL    HW213796   3.787  10.334   3.326  0.4270  0.4678  0.1441
 3114SOL     OW13797   9.873   1.787   9.406  0.6278  0.0094 -0.0107
 3114SOL    HW113798   9.786   1.752   9.423  0.6130  0.2820  0.5017
 3114SOL    HW213799   9.900   1.747   9.323  0.0425 -0.1239 -0.1389
 3115SOL     OW13800   2.845   5.823   1.397  0.2543  0.4056 -0.4061
 3115SOL    HW113801   2.852   5.909   1.439  1.0963  0.5126 -0.7283
 3115SOL    HW213802   2.796   5.839   1.316  1.1819  0.7789 -0.9191
 3116SOL     OW13803   5.469   3.937  10.443 -0.1179  1.1536 -0.6353
 3116SOL    HW113804   5.415   3.904  10.371 -0.2845 -0.9720  0.3665
 3116SOL    HW213805   5.558   3.939  10.407 -0.0776 -0.6325 -0.7192
 3117SOL     OW13806  10.682   2.067   5.369  0.1027  0.7094  0.1225
 3117SOL    HW113807  10.700   2.003   5.439 -0.8299 -0.6517 -0.8309
 3117SOL    HW213808  10.609   2.118   5.402 -0.4852 -0.0769  0.0716
 3118SOL     OW13809   1.245   2.862  10.299  0.3002 -0.6758 -0.4740
 3118SOL    HW113810   1.260   2.912  10.218  3.1153 -2.7359 -1.3835
 3118SOL    HW213811   1.263   2.924  10.369 -0.5491  0.7092 -1.4383
 3119SOL     OW13812   0.154   4.863   3.228 -0.3766 -0.3639 -0.5007
 3119SOL    HW113813   0.244   4.874   3.258 -0.5009 -0.8707  0.0737
 3119SOL    HW213814   0.101   4.863   3.308 -0.7575 -1.2628 -0.7295
 3120SOL     OW13815   6.774   4.787   1.799  0.1870  0.1616  0.2709
 3120SOL    HW113816   6.776   4.872   1.756 -2.1463  0.1692  0.0718
 3120SOL    HW213817   6.748   4.805   1.889 -2.3544 -0.4249 -0.2701
 3121SOL     OW13818   5.728   5.629   7.964 -0.0059 -0.3837 -0.7846
 3121SOL    HW113819   5.715   5.536   7.949  0.4484 -0.4431 -0.8204
 3121SOL    HW213820   5.709   5.670   7.880  2.9567 -0.7526 -1.7301
 3122SOL     OW13821   6.992   6.258   6.139 -0.0016  0.1233 -0.4182
 3122SOL    HW113822   7.015   6.347   6.166  1.1811 -0.3481  0.2264
 3122SOL    HW213823   6.902   6.246   6.169 -0.3531  1.2670 -0.9654
 3123SOL     OW13824   9.827   6.585   1.532 -0.6261 -0.4853  0.7502
 3123SOL    HW113825   9.886   6.658   1.512  0.2055 -1.6551 -1.2973
 3123SOL    HW213826   9.806   6.597   1.625  0.6379  1.5085  0.8503
 3124SOL     OW13827   8.368   6.947   5.012 -0.2631  0.2514  0.1408
 3124SOL    HW113828   8.335   7.024   4.966 -2.1976  0.0691  1.1425
 3124SOL    HW213829   8.399   6.980   5.096  1.5424  0.3102 -0.5106
 3125SOL     OW13830   9.961   5.575   0.118  0.4887  0.5806 -0.6475
 3125SOL    HW113831  10.031   5.515   0.093 -0.1825 -0.7065  0.4386
 3125SOL    HW213832   9.998   5.626   0.190 -0.1453 -1.1537  0.9653
 3126SOL     OW13833   6.765   2.915  10.141 -0.2127 -0.5235  1.0001
 3126SOL    HW113834   6.704   2.942  10.072 -1.3136 -0.6088  1.8996
 3126SOL    HW213835   6.819   2.847  10.100 -0.3449 -0.0531  0.0156
 3127SOL     OW13836   0.764   4.693  10.586  0.6424 -0.2339  0.6729
 3127SOL    HW113837   0.851   4.732  10.590  1.0211 -1.0062  0.3535
 3127SOL    HW213838   0.712   4.744  10.647  1.8299 -0.9781  2.4259
 3128SOL     OW13839   6.307   9.274   2.966 -0.3046  0.2028 -0.3103
 3128SOL    HW113840   6.385   9.223   2.943 -0.2719 -0.6850  1.6363
 3128SOL    HW213841   6.246   9.210   3.002 -0.5095  1.3969  1.5861
 3129SOL     OW13842   6.249   9.604   2.390  0.1152  0.1720 -0.1062
 3129SOL    HW113843   6.170   9.654   2.367  0.1380 -0.1046 -0.8195
 3129SOL    HW213844   6.318   9.642   2.335  0.3440  0.0121  0.0702
 3130SOL     OW13845   4.721   5.553  10.520  0.2981  0.2937 -0.1095
 3130SOL    HW113846   4.707   5.471  10.567  0.2134  0.5296  0.2829
 3130SOL    HW213847   4.812   5.576  10.538  0.9019 -0.6615 -1.7433
 3131SOL     OW13848   6.301  10.775   3.051  0.0339 -0.3062 -0.0737
 3131SOL    HW113849   6.326  10.725   2.973  0.7165 -0.5714  0.3047
 3131SOL    HW213850   6.225  10.826   3.023  2.1818  2.1442 -1.9611
 3132SOL     OW13851   5.300   1.533   5.321  0.3134  0.1412 -0.2236
 3132SOL    HW113852   5.206   1.518   5.316  0.4484 -0.7864 -0.0980
 3132SOL    HW213853   5.331   1.473   5.389  0.8429  1.1897  0.4935
 3133SOL     OW13854   9.163   8.777   5.288 -0.5348  0.4717 -0.6205
 3133SOL    HW113855   9.087   8.799   5.342 -1.5850  1.5959 -2.4665
 3133SOL    HW213856   9.145   8.688   5.256 -0.4265  0.2329 -0.0372
 3134SOL     OW13857   0.570   1.387   0.513  0.1391  0.2341 -0.4179
 3134SOL    HW113858   0.552   1.481   0.513 -0.3780  0.1388 -0.8844
 3134SOL    HW213859   0.543   1.357   0.600  1.1835  0.6694  0.0770
 3135SOL     OW13860  10.936   4.707   7.310 -0.3721  0.2710 -0.2667
 3135SOL    HW113861  10.911   4.795   7.340 -0.2855 -0.1782  1.2219
 3135SOL    HW213862  10.866   4.682   7.250 -1.5433  0.5286  0.9357
 3136SOL     OW13863   4.380   7.041   7.282  0.1371  0.2453 -0.1637
 3136SOL    HW113864   4.360   6.991   7.203  1.5398 -0.1585 -0.2821
 3136SOL    HW213865   4.470   7.070   7.270  0.7282 -0.6830  1.7499
 3137SOL     OW13866   2.786   4.644   9.905  0.0534  0.3974 -0.4417
 3137SOL    HW113867   2.719   4.604   9.961  0.6176 -1.5748 -1.1191
 3137SOL    HW213868   2.737   4.684   9.834 -0.4417 -2.4095 -1.8120
 3138SOL     OW13869   6.474   5.668   6.343 -0.2389  0.4096 -0.2052
 3138SOL    HW113870   6.440   5.596   6.291  0.3034  0.5990 -0.8303
 3138SOL    HW213871   6.543   5.707   6.289  0.0677  0.8512  0.4873
 3139SOL     OW13872   1.202   0.884   0.557 -0.4384 -0.4364  0.3577
 3139SOL    HW113873   1.292   0.908   0.534 -0.9139 -0.0626 -1.2717
 3139SOL    HW213874   1.158   0.874   0.473 -2.4600  1.4066  1.1033
 3140SOL     OW13875   4.860   6.405   3.122  0.0715  0.1418  0.0621
 3140SOL    HW113876   4.895   6.316   3.117  1.0166  0.4363  1.0354
 3140SOL    HW213877   4.792   6.408   3.055 -0.0108 -1.3278  0.0485
 3141SOL     OW13878   8.323   7.397   8.240  0.3248  0.0041 -0.2055
 3141SOL    HW113879   8.396   7.369   8.294  0.1565 -0.6727 -0.3261
 3141SOL    HW213880   8.246   7.360   8.282  0.3395 -2.1950 -1.9558
 3142SOL     OW13881   7.535   4.707   0.903 -0.1909 -0.0200 -0.3920
 3142SOL    HW113882   7.553   4.652   0.827 -2.8501 -2.7541  0.7441
 3142SOL    HW213883   7.477   4.775   0.870  0.1814 -0.0539 -1.1415
 3143SOL     OW13884   4.860   8.494   5.150  0.0790 -1.0559  0.5365
 3143SOL    HW113885   4.940   8.476   5.200  0.4093 -0.7210  0.1367
 3143SOL    HW213886   4.817   8.409   5.142 -0.6145 -0.9390  2.4413
 3144SOL     OW13887  10.606   2.254   8.956 -0.4617  0.0430  0.4215
 3144SOL    HW113888  10.526   2.287   8.998  1.3536  0.3858  4.0288
 3144SOL    HW213889  10.607   2.161   8.978 -0.3621 -0.1767 -0.5082
 3145SOL     OW13890   6.996   8.886   6.460  0.2067  0.2282  0.7104
 3145SOL    HW113891   6.907   8.905   6.430  0.3544  0.0438  0.1355
 3145SOL    HW213892   7.022   8.963   6.509 -0.2320  0.3263  0.7920
 3146SOL     OW13893   9.093   9.145   1.104  0.2711  0.5184  0.1332
 3146SOL    HW113894   9.122   9.125   1.193  0.4144 -0.3048 -0.0914
 3146SOL    HW213895   9.013   9.195   1.116 -1.1290 -1.7108  0.7541
 3147SOL     OW13896   0.952   3.615   1.061  0.5993 -0.7072 -0.6640
 3147SOL    HW113897   0.993   3.609   0.975  2.1764 -0.3985  0.0425
 3147SOL    HW213898   1.008   3.562   1.118  1.4596  1.6380  0.8341
 3148SOL     OW13899   4.646   7.634   2.696  0.2169 -0.1497 -0.1097
 3148SOL    HW113900   4.640   7.609   2.788  0.6982 -1.7748 -0.4690
 3148SOL    HW213901   4.735   7.606   2.670 -0.5956 -1.6122 -1.5386
 3149SOL     OW13902   8.568  10.799   6.291  0.0517 -0.1835  0.1478
 3149SOL    HW113903   8.619  10.752   6.224  0.5203  2.3801 -1.3996
 3149SOL    HW213904   8.635  10.841   6.346 -0.3548 -1.6226  1.8486
 3150SOL     OW13905   8.901   6.096   6.885 -0.0342 -0.0626  0.0288
 3150SOL    HW113906   8.910   6.042   6.807 -0.1468  0.0116 -0.0369
 3150SOL    HW213907   8.958   6.055   6.950 -0.2146 -0.3302  0.0188
 3151SOL     OW13908   7.355   8.143  10.421 -0.4361  0.4692  0.3887
 3151SOL    HW113909   7.362   8.222  10.475 -2.0400 -1.1631  3.2016
 3151SOL    HW213910   7.266   8.112  10.434  0.3437 -2.2254  0.0301
 3152SOL     OW13911   8.836   8.101   5.145  0.7146 -1.1386  0.1776
 3152SOL    HW113912   8.923   8.065   5.164  0.9405 -0.5153  0.3434
 3152SOL    HW213913   8.788   8.091   5.227  1.0347 -0.3448  0.4770
 3153SOL     OW13914   6.808   5.073   2.176  0.4351  0.1983 -0.3166
 3153SOL    HW113915   6.890   5.030   2.200  0.4224  1.5872  2.7489
 3153SOL    HW213916   6.746   5.047   2.244 -1.0304  0.9677 -1.2905
 3154SOL     OW13917   0.392   2.331  10.832 -0.4826  0.2527 -0.1522
 3154SOL    HW113918   0.483   2.327  10.803 -0.8130 -1.3881 -1.0240
 3154SOL    HW213919   0.377   2.424  10.850  1.3469  0.5497 -0.0103
 3155SOL     OW13920   1.984   6.888   1.474 -0.1553 -0.0519  0.3872
 3155SOL    HW113921   2.013   6.803   1.508 -0.4794 -0.4784 -0.3625
 3155SOL    HW213922   1.905   6.908   1.523  0.3293  0.1848  1.0886
 3156SOL     OW13923   2.823   8.720   9.086 -0.2887 -0.2638  0.5383
 3156SOL    HW113924   2.730   8.732   9.103  0.1175  1.5822  1.8412
 3156SOL    HW213925   2.866   8.743   9.168  1.4342  1.6840 -0.7843
 3157SOL     OW13926   0.753   3.457   9.218 -0.1173 -0.1436  0.0933
 3157SOL    HW113927   0.774   3.371   9.183 -0.0960 -0.4510  0.8414
 3157SOL    HW213928   0.833   3.485   9.263  0.0121  0.4483 -0.5008
 3158SOL     OW13929   2.873   2.189   6.624 -0.1690 -0.8416 -0.6146
 3158SOL    HW113930   2.940   2.207   6.558  1.2938 -0.7972  0.8155
 3158SOL    HW213931   2.917   2.204   6.708 -2.4430  0.8125  0.3847
 3159SOL     OW13932   8.848   3.783   1.166 -0.0589 -0.7031 -0.5837
 3159SOL    HW113933   8.920   3.844   1.149 -1.5265  1.1561 -0.5243
 3159SOL    HW213934   8.891   3.704   1.198  2.1104 -0.6350 -2.9549
 3160SOL     OW13935   8.853   7.761   1.219  0.2699 -0.2998 -0.5715
 3160SOL    HW113936   8.859   7.856   1.229 -0.6959 -0.2903  0.0209
 3160SOL    HW213937   8.882   7.745   1.129 -1.9325  0.8243 -1.5437
 3161SOL     OW13938   6.179   7.329   5.546 -0.5560  0.4865  0.3182
 3161SOL    HW113939   6.271   7.337   5.520 -0.3340  1.3616  1.2947
 3161SOL    HW213940   6.131   7.326   5.463  0.3077  0.6628 -0.2027
 3162SOL     OW13941   2.395   9.304   2.082 -0.6708  0.5839  0.1419
 3162SOL    HW113942   2.383   9.368   2.153  0.1265  1.7199 -0.7065
 3162SOL    HW213943   2.324   9.322   2.021  0.6856  2.0784 -1.0849
 3163SOL     OW13944   1.432   6.120   1.296  0.6035 -0.0536  0.2384
 3163SOL    HW113945   1.416   6.027   1.279  0.3144 -0.1830  1.1637
 3163SOL    HW213946   1.403   6.164   1.216 -1.0041 -0.6108  0.4847
 3164SOL     OW13947   9.888   8.190  10.233 -0.4828  0.4941 -0.3598
 3164SOL    HW113948   9.849   8.115  10.188  2.8146 -2.3451  1.0779
 3164SOL    HW213949   9.874   8.172  10.326  2.7251  0.0888  0.1399
 3165SOL     OW13950   2.639   1.877   3.767 -0.2383 -0.0942  0.1464
 3165SOL    HW113951   2.558   1.898   3.813 -0.3314  1.7212 -0.7528
 3165SOL    HW213952   2.611   1.855   3.678 -0.0300 -3.2455  0.7118
 3166SOL     OW13953   9.667  11.012  10.575 -0.9658 -0.4778  0.5911
 3166SOL    HW113954   9.685  11.106  10.573 -1.4526 -0.3203  2.0533
 3166SOL    HW213955   9.697  10.985  10.662 -0.9455 -1.6509  0.2238
 3167SOL     OW13956   4.032   2.192   6.215 -0.5958  0.3852  0.4673
 3167SOL    HW113957   3.942   2.214   6.194 -0.2009  0.1289 -1.7214
 3167SOL    HW213958   4.078   2.276   6.218 -0.9106  0.5392  1.8465
 3168SOL     OW13959   3.666   0.738   1.546  0.0860 -0.3443  0.5399
 3168SOL    HW113960   3.685   0.727   1.453  0.8899 -0.9143  0.7624
 3168SOL    HW213961   3.703   0.660   1.587 -0.8824 -0.4369  1.2574
 3169SOL     OW13962   0.408   3.369   5.640 -0.0875 -0.5200 -0.4055
 3169SOL    HW113963   0.414   3.325   5.725 -2.0448  1.6729  0.9902
 3169SOL    HW213964   0.314   3.382   5.627  0.2607  0.3657 -2.2832
 3170SOL     OW13965   5.901   8.401   9.768 -0.2816 -0.6445  0.2954
 3170SOL    HW113966   5.808   8.404   9.744  0.1623 -0.7135 -1.5612
 3170SOL    HW213967   5.914   8.478   9.823 -1.2542 -0.1411 -0.1566
 3171SOL     OW13968   4.336   4.385  10.724 -0.2021 -0.4155  0.0723
 3171SOL    HW113969   4.332   4.302  10.772 -2.4260  0.2781  1.2452
 3171SOL    HW213970   4.245   4.412  10.717  0.4951  2.0788 -0.0512
 3172SOL     OW13971   9.828   9.185   6.880 -0.1964 -0.1911 -0.4110
 3172SOL    HW113972   9.913   9.181   6.837 -0.1478 -2.5938 -0.2328
 3172SOL    HW213973   9.842   9.147   6.967 -0.8022  2.4026  0.9234
 3173SOL     OW13974   3.175   0.210   2.993  0.4768  0.6398 -0.2852
 3173SOL    HW113975   3.259   0.248   2.968  0.9109 -0.5100 -0.6708
 3173SOL    HW213976   3.161   0.140   2.928 -0.7448  0.7811 -0.1847
 3174SOL     OW13977  10.232   1.521   9.890  0.0972 -0.7248  0.0544
 3174SOL    HW113978  10.311   1.487   9.933  0.6612  1.0083  0.4782
 3174SOL    HW213979  10.260   1.537   9.800  0.9696  1.9677  0.7141
 3175SOL     OW13980  10.686   5.920   7.901  0.0634 -0.4422 -0.1099
 3175SOL    HW113981  10.713   5.938   7.991 -0.8321 -1.1614  0.3256
 3175SOL    HW213982  10.751   5.860   7.867 -0.3452 -1.2726  0.5432
 3176SOL     OW13983   7.913   1.767   4.061 -0.2064 -0.0697  0.0553
 3176SOL    HW113984   7.918   1.802   3.972  1.9558  0.4478  0.3087
 3176SOL    HW213985   7.954   1.681   4.056 -0.8295 -0.3910  0.3969
 3177SOL     OW13986  10.303   3.634   2.621 -0.1825  0.3193  0.2587
 3177SOL    HW113987  10.341   3.649   2.535  0.6713  0.4697  0.6553
 3177SOL    HW213988  10.279   3.721   2.653  2.0097  0.5872  1.2991
 3178SOL     OW13989   9.066   0.871   9.432 -0.0240 -0.4277  0.2047
 3178SOL    HW113990   9.159   0.893   9.418 -0.0050 -0.9351 -0.5573
 3178SOL    HW213991   9.064   0.776   9.432 -0.5891 -0.4221 -0.1171
 3179SOL     OW13992   0.427   5.758   5.395 -0.2158  0.0355  0.7690
 3179SOL    HW113993   0.441   5.754   5.490  0.4168 -1.4845  0.6434
 3179SOL    HW213994   0.487   5.693   5.359 -1.4745 -0.4451 -0.5598
 3180SOL     OW13995   7.900   3.111   1.577 -0.3549 -0.3368 -0.4589
 3180SOL    HW113996   7.866   3.040   1.632 -1.4399  0.0961 -0.5318
 3180SOL    HW213997   7.828   3.174   1.573  0.7722  1.0221  0.0184
 3181SOL     OW13998   4.203   5.165   0.771  0.6103  0.6745  0.4019
 3181SOL    HW113999   4.153   5.237   0.809  0.8209  0.0004  2.0375
 3181SOL    HW214000   4.272   5.148   0.835  1.8031  0.3498 -0.9241
 3182SOL     OW14001   1.837   0.927  10.904 -0.3968 -0.5177  0.1890
 3182SOL    HW114002   1.883   0.846  10.881  0.3161  0.1138 -0.6674
 3182SOL    HW214003   1.900   0.996  10.887 -0.6299  0.1712  1.9372
 3183SOL     OW14004   8.533   3.408   0.114 -0.3942  0.1386 -0.2277
 3183SOL    HW114005   8.511   3.317   0.096 -0.0299  0.2817 -1.5032
 3183SOL    HW214006   8.452   3.446   0.148 -1.1992 -0.1651 -1.6834
 3184SOL     OW14007   1.169   4.912   1.917  0.2569  0.0485 -0.1446
 3184SOL    HW114008   1.221   4.986   1.950 -0.9010  1.6449 -1.7047
 3184SOL    HW214009   1.194   4.904   1.825 -0.4997 -0.7419 -0.2946
 3185SOL     OW14010   8.065   1.158   7.935  0.0668  0.2332  0.1935
 3185SOL    HW114011   8.023   1.132   8.017 -1.0948 -0.0174 -0.4587
 3185SOL    HW214012   8.001   1.215   7.893  0.6612  0.3662 -0.5380
 3186SOL     OW14013   0.962   9.851   7.539 -0.2467 -0.8841  0.4258
 3186SOL    HW114014   0.945   9.760   7.563 -1.6720 -0.4194  1.2884
 3186SOL    HW214015   1.057   9.860   7.543  0.1283 -2.8667 -1.7867
 3187SOL     OW14016   8.571   6.292   6.851  0.2124  0.5955  0.3472
 3187SOL    HW114017   8.541   6.319   6.938 -1.6489  1.0397 -0.3880
 3187SOL    HW214018   8.662   6.321   6.847  0.1782  1.0290  1.9463
 3188SOL     OW14019   8.225   4.553   5.510  0.1721  0.1222 -0.3199
 3188SOL    HW114020   8.275   4.548   5.428  3.2440  0.5711  1.3790
 3188SOL    HW214021   8.174   4.633   5.502  0.3658  0.1309 -1.8033
 3189SOL     OW14022  11.060   5.269   6.256 -0.3753  0.6278  0.6568
 3189SOL    HW114023  11.123   5.331   6.292 -1.6358  0.7524  2.8525
 3189SOL    HW214024  11.041   5.301   6.168  2.5323  0.5858 -0.0724
 3190SOL     OW14025   3.439   0.963   8.139  0.1186  0.1764 -0.1339
 3190SOL    HW114026   3.371   0.993   8.200 -0.8116  0.6298 -1.3743
 3190SOL    HW214027   3.462   1.041   8.089  0.0800 -0.4296 -1.1063
 3191SOL     OW14028   4.693   3.508   6.028  0.0125  0.2818  0.3943
 3191SOL    HW114029   4.765   3.451   6.053 -0.1566  0.1097  0.4883
 3191SOL    HW214030   4.662   3.473   5.945  0.1566  0.4663  0.2634
 3192SOL     OW14031   1.656  10.879   0.748  0.1326 -0.0338 -0.5520
 3192SOL    HW114032   1.604  10.839   0.818  0.2160  1.3829  0.3739
 3192SOL    HW214033   1.736  10.827   0.744 -1.0193 -1.8189 -1.5201
 3193SOL     OW14034  10.920   1.311  10.174  0.2516  0.1814  0.3626
 3193SOL    HW114035  11.015   1.315  10.185  0.0704  0.7645  1.9782
 3193SOL    HW214036  10.901   1.372  10.103  1.1735 -0.8397 -0.8072
 3194SOL     OW14037   4.804   2.455   3.213  0.3782 -0.3475 -0.6859
 3194SOL    HW114038   4.752   2.534   3.196  1.9111  0.7585 -0.4456
 3194SOL    HW214039   4.745   2.397   3.259 -1.2489  0.0563 -2.1503
 3195SOL     OW14040   0.235   9.459   4.241  0.2726 -0.2805  0.3925
 3195SOL    HW114041   0.330   9.451   4.243  0.2832 -0.3340 -0.1586
 3195SOL    HW214042   0.207   9.398   4.173  0.0178  1.2325 -0.9230
 3196SOL     OW14043   8.001   5.022   3.992  0.2234 -0.1591 -0.8028
 3196SOL    HW114044   7.932   4.955   3.986 -1.2335  1.1113  0.7480
 3196SOL    HW214045   7.968   5.095   3.939  1.2958 -0.2468 -1.6142
 3197SOL     OW14046  10.023  10.823   0.763  0.1636 -0.0918 -0.1474
 3197SOL    HW114047  10.009  10.766   0.839  1.2560  0.5983  0.6022
 3197SOL    HW214048   9.935  10.850   0.736 -0.2390 -0.3973  0.8256
 3198SOL     OW14049   8.555   0.576   5.956 -0.3933 -0.1170 -0.4156
 3198SOL    HW114050   8.572   0.509   6.022 -1.9979  0.0570  0.2166
 3198SOL    HW214051   8.498   0.639   6.000 -1.4987  0.0090 -1.9538
 3199SOL     OW14052   6.420   6.525  10.501 -0.2781 -0.7153 -0.5927
 3199SOL    HW114053   6.389   6.440  10.470 -2.9187 -0.4479  0.9895
 3199SOL    HW214054   6.396   6.527  10.593  4.4758 -0.2697  0.8884
 3200SOL     OW14055   9.879   0.942   6.963 -0.0946 -0.0558 -0.4170
 3200SOL    HW114056   9.934   0.881   6.914  1.0431  0.3693  0.2923
 3200SOL    HW214057   9.941   1.000   7.007 -1.0926  2.7823 -2.4466
 3201SOL     OW14058   1.801   3.677   0.115  0.2316  0.2467  0.0178
 3201SOL    HW114059   1.891   3.677   0.145  0.1979  3.0825  0.4404
 3201SOL    HW214060   1.806   3.707   0.024 -0.2348 -0.5343 -0.2755
 3202SOL     OW14061   3.949   6.845   7.192 -0.3576 -0.2230 -0.1896
 3202SOL    HW114062   3.936   6.898   7.271  3.4447  0.5721  0.0958
 3202SOL    HW214063   3.970   6.758   7.226  0.2736 -0.1321 -0.3328
 3203SOL     OW14064   4.280   7.348   1.912  0.3866  0.1391 -0.8920
 3203SOL    HW114065   4.354   7.374   1.966 -0.3947  0.4735  0.0559
 3203SOL    HW214066   4.261   7.424   1.858  0.2169  0.3554 -0.5331
 3204SOL     OW14067   3.133   8.908   9.099 -0.1059  0.4499 -0.6516
 3204SOL    HW114068   3.086   8.924   9.017 -0.0777  1.7330 -0.4269
 3204SOL    HW214069   3.067   8.872   9.158 -0.0747 -0.7292 -1.2874
 3205SOL     OW14070   7.960   2.262   9.573  0.7418  0.3914 -0.2358
 3205SOL    HW114071   7.946   2.300   9.486 -1.3944 -1.0623 -0.6069
 3205SOL    HW214072   7.871   2.244   9.606  1.5426 -0.2688  1.7178
 3206SOL     OW14073  10.909   3.866   3.563  0.0343  0.0307  0.3947
 3206SOL    HW114074  10.859   3.925   3.505  0.6215  1.1736  1.0059
 3206SOL    HW214075  10.997   3.903   3.563  0.0943 -0.0657  1.8501
 3207SOL     OW14076   7.613   7.910   1.055  0.2810 -0.7254 -0.0303
 3207SOL    HW114077   7.642   7.856   0.982  0.5699 -0.1883 -0.3271
 3207SOL    HW214078   7.690   7.916   1.112  0.7856  0.6775 -0.8036
 3208SOL     OW14079   9.944   8.687  11.022  0.3364 -0.2763  0.2125
 3208SOL    HW114080   9.891   8.761  10.992  1.2016 -0.1321 -1.0451
 3208SOL    HW214081   9.887   8.640  11.083 -1.1499  0.0184 -0.8891
 3209SOL     OW14082   8.486   9.302   3.122  0.0710 -0.2407  0.3893
 3209SOL    HW114083   8.467   9.383   3.075  0.2395 -0.3569  0.1197
 3209SOL    HW214084   8.480   9.326   3.215 -0.7162 -0.1227  0.3130
 3210SOL     OW14085   7.049   8.612   7.226 -0.1377  0.1394 -0.1505
 3210SOL    HW114086   7.125   8.620   7.284 -0.1720 -1.8168  0.2602
 3210SOL    HW214087   6.983   8.668   7.265  0.7456  1.0599  0.0762
 3211SOL     OW14088   8.732  10.113   5.561  0.0590 -0.0964 -0.2845
 3211SOL    HW114089   8.698  10.188   5.512  1.1887  1.4756  1.2062
 3211SOL    HW214090   8.794  10.072   5.501  0.4852  1.0314 -0.6549
 3212SOL     OW14091  10.693   7.507   4.323 -0.1062  0.2178  0.1152
 3212SOL    HW114092  10.599   7.503   4.337 -0.0096  0.1895  0.8269
 3212SOL    HW214093  10.716   7.598   4.342 -0.2949  0.8201 -2.2539
 3213SOL     OW14094   7.424  10.937   2.330 -0.4893 -0.2861  0.2577
 3213SOL    HW114095   7.461  10.911   2.414 -0.2866  0.0528  0.2750
 3213SOL    HW214096   7.485  11.003   2.296 -0.2812 -0.8168 -0.4029
 3214SOL     OW14097  10.140   0.089   0.743  0.2221 -0.2525  0.8756
 3214SOL    HW114098  10.187   0.012   0.711 -1.4576 -0.4620 -1.3364
 3214SOL    HW214099  10.207   0.156   0.752  1.0998 -0.6289 -1.8604
 3215SOL     OW14100   0.037   6.735   4.391 -0.0294  0.2379 -0.1644
 3215SOL    HW114101   0.087   6.680   4.331 -1.7338  0.1769 -1.6210
 3215SOL    HW214102  -0.048   6.747   4.347 -1.0180  0.9588  1.8310
 3216SOL     OW14103   6.791   8.394   1.322  0.4552 -0.1175 -0.1342
 3216SOL    HW114104   6.727   8.328   1.295 -1.4874  1.4159  0.4133
 3216SOL    HW214105   6.836   8.419   1.242  0.6617 -1.5141 -0.4709
 3217SOL     OW14106   7.841   2.120   5.648  0.3912  0.0995  0.2746
 3217SOL    HW114107   7.810   2.164   5.569  0.0418 -1.5614 -0.5396
 3217SOL    HW214108   7.935   2.110   5.634  0.3559 -0.0479  0.1406
 3218SOL     OW14109   7.321   9.885   7.570 -0.0859  0.2288 -0.5056
 3218SOL    HW114110   7.261   9.945   7.525 -1.7484 -0.9450  0.0651
 3218SOL    HW214111   7.376   9.850   7.500 -0.9414  0.3347 -1.2552
 3219SOL     OW14112   5.176   0.770   8.190 -0.0045  0.3254 -0.3786
 3219SOL    HW114113   5.191   0.797   8.099 -0.0093 -1.5571 -0.9868
 3219SOL    HW214114   5.264   0.754   8.225  0.0280  1.5245  0.1330
 3220SOL     OW14115   4.551  10.473   8.663  0.2670  0.5180  0.1973
 3220SOL    HW114116   4.552  10.381   8.638 -1.0174  1.2043 -2.7813
 3220SOL    HW214117   4.637  10.507   8.638  0.4957  0.3011  0.6743
 3221SOL     OW14118  10.828  10.858   7.192 -0.1688 -0.1370  0.2187
 3221SOL    HW114119  10.861  10.769   7.200  0.9315  0.2603  0.2363
 3221SOL    HW214120  10.748  10.850   7.140  0.3427 -1.0357 -0.4519
 3222SOL     OW14121  10.938   5.481   7.556  0.6825 -0.2813 -0.6414
 3222SOL    HW114122  10.873   5.546   7.583 -0.1927 -0.7651 -1.5227
 3222SOL    HW214123  11.013   5.533   7.528 -0.0079  0.3693 -1.3421
 3223SOL     OW14124   5.342   3.609   2.212 -0.3717 -0.3133  0.0550
 3223SOL    HW114125   5.365   3.528   2.166 -1.0560 -1.0622  0.9624
 3223SOL    HW214126   5.410   3.671   2.189 -0.0749 -1.0139 -1.0270
 3224SOL     OW14127   0.022   2.214   7.245 -0.0886  0.5391  0.1106
 3224SOL    HW114128  -0.048   2.196   7.183  1.0288  0.8409 -1.2787
 3224SOL    HW214129   0.011   2.149   7.314 -0.1203 -1.1585 -1.4383
 3225SOL     OW14130   8.776   5.475   7.929 -0.2374  0.1696 -0.1065
 3225SOL    HW114131   8.843   5.534   7.961  1.2525 -1.1157 -0.6861
 3225SOL    HW214132   8.815   5.388   7.938 -1.8203 -0.6140 -0.4934
 3226SOL     OW14133   9.366  10.595   0.760 -0.1032  0.2798 -0.0642
 3226SOL    HW114134   9.439  10.580   0.820 -0.2249 -0.8175 -0.1538
 3226SOL    HW214135   9.326  10.508   0.749  0.8212  0.1084 -2.8622
 3227SOL     OW14136   3.980   0.460   3.200  0.0025  0.2492 -0.4234
 3227SOL    HW114137   3.976   0.546   3.158 -0.2771 -0.0751 -1.0792
 3227SOL    HW214138   3.901   0.457   3.255 -0.4665  0.0699 -1.0895
 3228SOL     OW14139   8.025   4.213   8.541  0.5195  0.4116 -0.4790
 3228SOL    HW114140   8.099   4.217   8.601  0.4750  0.0556 -0.3985
 3228SOL    HW214141   8.057   4.254   8.460  1.4829 -1.5402 -1.1466
 3229SOL     OW14142   0.083   2.772   9.933  0.2057  0.0713  0.7610
 3229SOL    HW114143   0.108   2.699   9.875 -1.4300 -0.3469  0.5364
 3229SOL    HW214144   0.108   2.743  10.020  0.5275 -0.3092  0.5480
 3230SOL     OW14145   0.557   7.886   1.767 -0.2657 -0.0525  0.1250
 3230SOL    HW114146   0.618   7.954   1.737  0.1658  0.2543  1.6418
 3230SOL    HW214147   0.513   7.857   1.687  0.2242  1.3376 -0.6835
 3231SOL     OW14148   9.053  10.303   4.384  0.2112  0.1009  0.0662
 3231SOL    HW114149   9.149  10.299   4.375  0.2505  0.7972  0.0630
 3231SOL    HW214150   9.035  10.396   4.398 -0.4475 -0.0645  0.3308
 3232SOL     OW14151   7.036   1.359   6.104 -0.0284  0.1143 -0.4348
 3232SOL    HW114152   7.011   1.446   6.074  3.4112  1.1221 -0.7828
 3232SOL    HW214153   7.100   1.329   6.040  2.4890 -0.5293  2.1562
 3233SOL     OW14154   6.018   1.818   7.136 -0.7816 -0.6202  0.5831
 3233SOL    HW114155   6.036   1.908   7.107 -0.7700  0.0605  2.5739
 3233SOL    HW214156   6.103   1.775   7.133 -0.7269 -0.4809 -0.0524
 3234SOL     OW14157   3.768   6.019   4.850  0.1260 -0.3033 -0.2568
 3234SOL    HW114158   3.782   6.089   4.914 -0.8112  0.0833 -0.4605
 3234SOL    HW214159   3.753   6.065   4.767 -1.6026 -0.6761 -0.1949
 3235SOL     OW14160   1.235   3.329   2.544 -0.1170 -0.0086 -0.4113
 3235SOL    HW114161   1.249   3.416   2.580  0.1622 -0.1855 -0.0832
 3235SOL    HW214162   1.323   3.290   2.541  0.0577  0.4566 -2.4753
 3236SOL     OW14163   7.766   3.999   5.498  0.1333 -0.3394  0.1707
 3236SOL    HW114164   7.736   4.026   5.585 -0.7791  1.0588 -0.5528
 3236SOL    HW214165   7.698   4.030   5.438  1.0980 -0.6417 -1.1237
 3237SOL     OW14166   2.163   5.191   2.502 -0.0108 -0.4552  0.4271
 3237SOL    HW114167   2.250   5.227   2.483  0.4084 -2.3023 -1.6058
 3237SOL    HW214168   2.115   5.201   2.420 -0.9496 -1.5115  0.8252
 3238SOL     OW14169   5.786   3.837   0.939  0.0025 -0.4088 -0.1499
 3238SOL    HW114170   5.767   3.903   1.006 -0.3596 -1.5409  0.9051
 3238SOL    HW214171   5.747   3.872   0.859  0.2730  0.8859  0.2721
 3239SOL     OW14172   6.020   0.688   3.269 -0.0697 -0.4579 -0.2663
 3239SOL    HW114173   5.980   0.742   3.200 -0.5966 -0.9718 -0.3669
 3239SOL    HW214174   5.992   0.599   3.249  2.8996 -1.1900 -1.6319
 3240SOL     OW14175   3.035   1.024   6.442 -0.4481 -0.2130 -0.0600
 3240SOL    HW114176   3.049   1.059   6.530  0.7523 -0.5306 -0.1097
 3240SOL    HW214177   2.957   1.071   6.410 -1.1277 -0.3668  1.2911
 3241SOL     OW14178   7.616   8.822   9.110  0.1626 -0.3254  0.8934
 3241SOL    HW114179   7.524   8.844   9.121  0.3210 -0.0784  1.8228
 3241SOL    HW214180   7.659   8.857   9.188  0.8518 -1.5491  1.0912
 3242SOL     OW14181   2.101  10.923   7.539  0.1657 -0.0932 -0.4300
 3242SOL    HW114182   2.017  10.878   7.548  0.5352 -0.6136  0.5835
 3242SOL    HW214183   2.145  10.878   7.467 -0.1209 -0.3167 -0.4643
 3243SOL     OW14184  10.787   4.170   2.759  0.5517 -0.2798  0.3008
 3243SOL    HW114185  10.697   4.141   2.749  0.0689 -0.3674  3.6998
 3243SOL    HW214186  10.781   4.265   2.767  1.1136 -0.0116 -1.8546
 3244SOL     OW14187   1.741   3.107   6.736 -0.0702 -0.1003 -0.4702
 3244SOL    HW114188   1.671   3.109   6.671 -0.3333 -0.6415 -0.2077
 3244SOL    HW214189   1.811   3.057   6.694 -0.4691 -0.9803 -0.1264
 3245SOL     OW14190   4.495  11.035   4.237  0.0718 -0.2357 -0.4165
 3245SOL    HW114191   4.480  11.106   4.174  0.5041 -1.2841 -1.7438
 3245SOL    HW214192   4.409  11.018   4.275 -0.1064  0.7310 -0.3523
 3246SOL     OW14193   7.477   0.562   9.335  0.2145 -0.4921 -0.1435
 3246SOL    HW114194   7.557   0.540   9.383  2.0251 -0.0876 -2.7582
 3246SOL    HW214195   7.451   0.479   9.293 -0.2589 -0.4290  0.0215
 3247SOL     OW14196   5.110   0.936   9.309 -0.1239 -0.0443  0.0603
 3247SOL    HW114197   5.026   0.934   9.263 -0.8453 -0.3724  1.3262
 3247SOL    HW214198   5.116   0.850   9.350  2.4492 -1.3378 -2.6700
 3248SOL     OW14199   9.592   3.506   7.502  0.1255  0.2420  0.0678
 3248SOL    HW114200   9.576   3.458   7.421 -2.0741  0.6215  0.2053
 3248SOL    HW214201   9.603   3.438   7.569 -0.8371 -0.0907 -0.1004
 3249SOL     OW14202  10.765   2.145  10.507 -0.0136 -0.1697 -0.1190
 3249SOL    HW114203  10.777   2.224  10.559  0.3565  0.1095 -0.6290
 3249SOL    HW214204  10.763   2.074  10.572  0.4701  0.1723  0.2711
 3250SOL     OW14205   5.312  10.120   6.112  0.1629 -0.1426  0.0932
 3250SOL    HW114206   5.253  10.045   6.108  0.0634 -0.0054 -1.3836
 3250SOL    HW214207   5.371  10.109   6.038  0.9951  0.5617  0.6265
 3251SOL     OW14208   9.500  10.227   4.854 -0.6539  0.2555  0.0723
 3251SOL    HW114209   9.531  10.310   4.889 -0.0397  1.3733 -2.8625
 3251SOL    HW214210   9.512  10.234   4.759 -0.8860 -3.0490 -0.3469
 3252SOL     OW14211   7.944   7.039   9.918  0.1549  0.5486 -0.2964
 3252SOL    HW114212   8.030   7.035   9.876  1.4996 -3.2299  2.2527
 3252SOL    HW214213   7.961   7.084  10.001 -0.1223 -0.7681  0.4977
 3253SOL     OW14214   5.084   6.230   1.270 -0.8029 -0.3867  0.4613
 3253SOL    HW114215   5.063   6.190   1.354 -1.2392  0.7272  0.9134
 3253SOL    HW214216   5.013   6.294   1.257  0.8804  1.6643  0.7732
 3254SOL     OW14217   6.733   2.468   4.435 -0.1765 -0.1153 -0.7419
 3254SOL    HW114218   6.810   2.473   4.493 -0.0682 -2.1011 -0.6575
 3254SOL    HW214219   6.756   2.525   4.361  1.2708 -0.4455 -0.5874
 3255SOL     OW14220   4.302  10.321   4.622 -0.6177 -0.3514 -0.0880
 3255SOL    HW114221   4.341  10.378   4.688 -0.1272 -0.1644 -0.5376
 3255SOL    HW214222   4.333  10.355   4.538  1.0187 -2.2230 -0.3250
 3256SOL     OW14223   2.466   5.069   7.986  0.2019 -0.1143  0.3564
 3256SOL    HW114224   2.370   5.069   7.990 -0.0087  2.4807 -1.7638
 3256SOL    HW214225   2.494   5.072   8.077 -1.6376 -2.0017  1.0776
 3257SOL     OW14226   1.589   2.393   8.237 -0.4696  0.3973 -0.6659
 3257SOL    HW114227   1.505   2.433   8.217 -0.8700 -0.3874 -0.5952
 3257SOL    HW214228   1.574   2.299   8.227  0.0546  0.1629  0.5625
 3258SOL     OW14229   1.596   8.067   8.686 -0.0088 -0.1904 -0.4345
 3258SOL    HW114230   1.538   8.066   8.762  0.6990  0.4006  0.1351
 3258SOL    HW214231   1.548   8.019   8.618 -0.2927 -1.5062  0.6438
 3259SOL     OW14232   7.958   5.428   1.727 -0.7751 -0.2625  0.0970
 3259SOL    HW114233   8.038   5.403   1.774 -0.1762  1.6189  0.1749
 3259SOL    HW214234   7.893   5.362   1.753  0.6984 -1.7954  0.0978
 3260SOL     OW14235   8.902  10.829   2.778  0.0654 -0.3201 -0.2363
 3260SOL    HW114236   8.959  10.767   2.823  1.9999  1.0402 -0.7099
 3260SOL    HW214237   8.851  10.774   2.718 -0.5109 -1.7969  1.4913
 3261SOL     OW14238   0.883   5.837   6.025 -0.2553 -0.0332 -0.0591
 3261SOL    HW114239   0.906   5.825   5.933 -1.3139  0.8033 -0.4499
 3261SOL    HW214240   0.790   5.817   6.030  0.0751 -1.4328  1.1178
 3262SOL     OW14241   6.105   8.517   8.786 -0.0716 -0.3733  0.1993
 3262SOL    HW114242   6.185   8.465   8.792 -0.0810 -0.3925  0.1651
 3262SOL    HW214243   6.135   8.607   8.776 -0.0524 -0.3105  0.7525
 3263SOL     OW14244   2.222   2.908   9.312  0.2105 -0.0659  0.1259
 3263SOL    HW114245   2.187   2.821   9.326  0.4236 -0.0126  1.0970
 3263SOL    HW214246   2.304   2.909   9.361  1.0769  0.1360 -1.2744
 3264SOL     OW14247   0.844   0.248   3.062  0.0221  0.4279  0.7002
 3264SOL    HW114248   0.841   0.168   3.115  0.0545  0.3032  0.5140
 3264SOL    HW214249   0.754   0.281   3.063 -0.0853  0.1483  0.4116
 3265SOL     OW14250   1.253   0.491   1.771 -0.0553 -0.0090  0.1829
 3265SOL    HW114251   1.161   0.508   1.790 -0.2550 -0.1986 -0.5805
 3265SOL    HW214252   1.257   0.397   1.754  0.1700  0.1055 -0.3956
 3266SOL     OW14253  10.597   9.246   9.573  0.2948 -0.2539  0.3820
 3266SOL    HW114254  10.673   9.195   9.543  0.1191 -0.3923  0.1681
 3266SOL    HW214255  10.568   9.201   9.652 -1.0891 -1.7122 -0.8854
 3267SOL     OW14256   7.528   2.199   8.168  0.1320  0.0338 -0.0356
 3267SOL    HW114257   7.548   2.292   8.175  0.5584 -0.1636  2.2301
 3267SOL    HW214258   7.510   2.185   8.075  1.1248  2.1409 -0.6079
 3268SOL     OW14259   8.424   1.247   7.016  0.2863 -0.0808  0.1556
 3268SOL    HW114260   8.362   1.303   6.970 -0.5742 -2.1848 -1.3927
 3268SOL    HW214261   8.369   1.188   7.067  1.1365 -0.3563  0.7819
 3269SOL     OW14262   8.800   8.591   6.207  0.4954 -0.2256 -0.4183
 3269SOL    HW114263   8.783   8.497   6.197 -0.8839  0.1292 -1.7931
 3269SOL    HW214264   8.858   8.612   6.133 -0.8521  0.3557 -1.3497
 3270SOL     OW14265   0.649   5.204   0.300 -0.1514  0.5049 -0.4918
 3270SOL    HW114266   0.556   5.182   0.290 -0.4292  1.0438  0.7598
 3270SOL    HW214267   0.669   5.256   0.223 -0.6396 -0.3951 -1.2502
 3271SOL     OW14268   3.769   7.186   1.081 -0.1713  0.0211 -0.0282
 3271SOL    HW114269   3.807   7.207   1.166  0.1592  0.9287 -0.3886
 3271SOL    HW214270   3.741   7.271   1.046  2.4500  0.1453 -2.1326
 3272SOL     OW14271  10.349   8.943   7.955 -0.2698  0.0447  0.4229
 3272SOL    HW114272  10.255   8.956   7.943 -0.3668 -0.8807  0.1206
 3272SOL    HW214273  10.386   8.953   7.867 -0.1034  0.2760  0.5196
 3273SOL     OW14274  10.754   6.143   6.108 -0.4172 -0.1641 -0.2001
 3273SOL    HW114275  10.666   6.179   6.120 -1.4942 -3.1022  2.4981
 3273SOL    HW214276  10.803   6.172   6.185 -0.0152 -0.9532 -0.1387
 3274SOL     OW14277   9.587   4.344   6.596  0.0265  0.4514  0.4742
 3274SOL    HW114278   9.637   4.330   6.515  0.2288 -0.0777  0.6899
 3274SOL    HW214279   9.636   4.298   6.663 -0.6822  0.0304  0.7168
 3275SOL     OW14280   1.826   6.836   8.914 -0.2047 -0.1009  0.0064
 3275SOL    HW114281   1.902   6.881   8.877 -0.2453 -1.8995 -2.5363
 3275SOL    HW214282   1.772   6.816   8.838 -2.5842 -0.0974  1.6064
 3276SOL     OW14283   9.963   4.020   2.102 -0.1794 -0.1884  0.2108
 3276SOL    HW114284   9.936   3.993   2.014  0.2372  0.6777 -0.1963
 3276SOL    HW214285   9.913   3.963   2.161 -1.0017 -0.3022 -0.5726
 3277SOL     OW14286  10.595   9.274   3.646  0.4600 -0.4671  0.8773
 3277SOL    HW114287  10.691   9.275   3.649  0.5067 -0.3279 -0.2688
 3277SOL    HW214288  10.572   9.182   3.637  0.5788 -0.3740 -0.6453
 3278SOL     OW14289   3.123   1.211   5.538 -0.1896  0.4965  0.7474
 3278SOL    HW114290   3.216   1.222   5.521  0.2375 -1.7714  1.2269
 3278SOL    HW214291   3.096   1.293   5.578  1.7509  0.9891  1.1565
 3279SOL     OW14292   6.701   8.288   7.028  0.5730 -0.8485 -0.6521
 3279SOL    HW114293   6.779   8.344   7.033  0.0707 -0.2138  0.7561
 3279SOL    HW214294   6.722   8.214   7.084 -0.2306 -0.1152  0.6732
 3280SOL     OW14295   7.726  10.422   2.073  0.3332 -0.8058  0.1333
 3280SOL    HW114296   7.798  10.361   2.084  0.9478  0.1023  1.3118
 3280SOL    HW214297   7.721  10.470   2.156 -1.0915 -0.2826 -0.2188
 3281SOL     OW14298   4.586  10.503   1.919  0.3117  0.6863 -0.2925
 3281SOL    HW114299   4.680  10.495   1.901  0.2862  1.5968 -0.8545
 3281SOL    HW214300   4.569  10.434   1.984  1.3228  0.3803 -0.3288
 3282SOL     OW14301   9.499   3.968   5.081 -0.1216 -0.3541  0.4802
 3282SOL    HW114302   9.530   4.043   5.030 -0.6653  0.2250  0.9730
 3282SOL    HW214303   9.563   3.960   5.152  0.1827 -0.6402  0.1733
 3283SOL     OW14304   2.931   8.601  10.984 -0.0419 -0.3627 -0.0906
 3283SOL    HW114305   2.857   8.544  10.964 -1.2441  1.3433 -0.8089
 3283SOL    HW214306   2.948   8.648  10.903  1.7430 -0.5756  0.1224
 3284SOL     OW14307   5.231   4.337  10.257  0.3180  0.0212  0.4868
 3284SOL    HW114308   5.183   4.402  10.309  2.1136 -0.0158  2.3451
 3284SOL    HW214309   5.183   4.255  10.270  0.0958  0.2553  1.1758
 3285SOL     OW14310   5.864  10.159   1.650  0.1230  0.3210 -0.2369
 3285SOL    HW114311   5.863  10.249   1.618  0.4227  0.3326 -0.2229
 3285SOL    HW214312   5.826  10.163   1.737 -0.7138  0.2901 -0.5894
 3286SOL     OW14313   5.703   1.709   8.592 -0.0954 -0.2810  0.1422
 3286SOL    HW114314   5.794   1.737   8.597 -0.4835  1.5743 -1.9904
 3286SOL    HW214315   5.707   1.620   8.556  0.8548 -0.6016  0.9649
 3287SOL     OW14316   2.945   0.221   9.793  0.0242 -0.5701  0.2174
 3287SOL    HW114317   2.911   0.307   9.767  2.8925  0.5012 -0.3114
 3287SOL    HW214318   2.947   0.171   9.712  2.7930  0.5504 -0.4973
 3288SOL     OW14319   2.098   8.200   1.381  0.5062  0.6500  0.2970
 3288SOL    HW114320   2.121   8.192   1.288 -1.6229 -0.2813 -0.2176
 3288SOL    HW214321   2.013   8.244   1.380  1.1819  2.0851  1.9300
 3289SOL     OW14322   9.397   3.656   8.305 -0.0296 -0.0558 -0.7658
 3289SOL    HW114323   9.333   3.665   8.377  0.2685  1.3936 -0.6476
 3289SOL    HW214324   9.357   3.592   8.246 -0.8644 -0.3505  0.0821
 3290SOL     OW14325   5.788   2.207   1.080 -0.6304  0.5911  0.2358
 3290SOL    HW114326   5.843   2.147   1.130 -0.2646  2.2023  1.8661
 3290SOL    HW214327   5.701   2.198   1.119 -0.9207  0.0758 -0.5021
 3291SOL     OW14328   6.316   7.194   0.786 -0.1186  0.7536 -0.3582
 3291SOL    HW114329   6.350   7.105   0.782  0.1156  0.8274 -4.2144
 3291SOL    HW214330   6.380   7.246   0.737 -0.7917  2.8934  0.8953
 3292SOL     OW14331   8.869  10.881  10.373 -0.1991  0.1774  0.4133
 3292SOL    HW114332   8.791  10.831  10.399 -0.3240  0.0068 -0.2629
 3292SOL    HW214333   8.862  10.889  10.278  0.9102 -0.3574  0.2661
 3293SOL     OW14334   7.107   7.116   1.680 -0.3834  0.4457  0.0385
 3293SOL    HW114335   7.047   7.176   1.725 -0.3600  0.7076 -0.2732
 3293SOL    HW214336   7.147   7.065   1.751 -0.5412  0.6729  0.2957
 3294SOL     OW14337   1.840   6.446   4.875 -0.8654  0.7119 -0.2009
 3294SOL    HW114338   1.769   6.509   4.881  0.2482  1.9949  0.0821
 3294SOL    HW214339   1.919   6.500   4.873  0.1072 -0.6736 -0.2832
 3295SOL     OW14340   5.523   1.863   3.972  0.2242  0.5211 -0.1356
 3295SOL    HW114341   5.519   1.820   4.057 -0.0846  1.9018  0.5779
 3295SOL    HW214342   5.447   1.921   3.971 -0.0601  0.1723 -1.5695
 3296SOL     OW14343   8.225   0.596  10.147 -0.5314  0.3901  0.5246
 3296SOL    HW114344   8.312   0.589  10.188 -0.2363 -2.4890 -0.3574
 3296SOL    HW214345   8.183   0.512  10.167 -1.6684  0.2264 -2.1801
 3297SOL     OW14346   4.897   5.290   6.669  0.3933  0.1358  0.0511
 3297SOL    HW114347   4.982   5.248   6.680  0.2810  0.4252  2.7468
 3297SOL    HW214348   4.915   5.369   6.618  1.4616 -0.5844 -0.7201
 3298SOL     OW14349   0.530   2.693   3.632 -0.0684  0.0077 -0.8494
 3298SOL    HW114350   0.450   2.646   3.653 -0.3551  0.4029 -1.0330
 3298SOL    HW214351   0.572   2.641   3.564  0.0823 -0.4636 -0.3947
 3299SOL     OW14352   7.555   3.206   9.456  0.2388  0.0145 -0.2188
 3299SOL    HW114353   7.565   3.231   9.364 -0.3698  2.4211  0.3053
 3299SOL    HW214354   7.644   3.204   9.491  0.4975 -1.1837 -0.8805
 3300SOL     OW14355  10.260   7.685   4.391 -0.1459  0.1240 -0.0647
 3300SOL    HW114356  10.255   7.731   4.307  0.0134 -0.4223 -0.3741
 3300SOL    HW214357  10.169   7.664   4.412 -0.1618 -0.0018 -0.2509
 3301SOL     OW14358   1.967   7.255   4.349  0.3447 -0.1931 -0.3333
 3301SOL    HW114359   2.028   7.294   4.412 -0.0890 -0.4734  0.2722
 3301SOL    HW214360   2.018   7.246   4.268  0.8607  0.3208 -0.0692
 3302SOL     OW14361   1.762   8.284   4.216 -0.2833 -0.1591  0.5865
 3302SOL    HW114362   1.800   8.224   4.280  1.4356 -0.6926 -0.8355
 3302SOL    HW214363   1.668   8.276   4.229 -0.0299 -1.5479  1.8935
 3303SOL     OW14364   9.490   2.778   3.352 -0.3133  0.5713  0.0896
 3303SOL    HW114365   9.578   2.768   3.315 -0.0421  1.6017  0.4390
 3303SOL    HW214366   9.431   2.760   3.279  0.1413 -1.1500  0.0856
 3304SOL     OW14367  10.092   5.883   5.517  0.2025 -0.1296 -0.5753
 3304SOL    HW114368  10.174   5.904   5.472  1.7104 -0.0327  2.0160
 3304SOL    HW214369  10.055   5.811   5.466  0.4006  1.6156 -3.4152
 3305SOL     OW14370   5.346  10.233  10.092 -0.3291  0.1129  0.2565
 3305SOL    HW114371   5.347  10.141  10.118  0.4391  0.0581  0.0602
 3305SOL    HW214372   5.351  10.281  10.175 -2.9875  0.0375  0.5250
 3306SOL     OW14373   2.890   9.533  10.569  0.7009  0.0875 -0.4262
 3306SOL    HW114374   2.881   9.562  10.478  1.7448  2.4599  0.1401
 3306SOL    HW214375   2.800   9.531  10.602  0.3785  0.0151 -1.2744
 3307SOL     OW14376  10.076   0.271   7.589 -0.0348 -0.2447  0.1399
 3307SOL    HW114377  10.006   0.224   7.544  0.3348 -1.1962  0.5314
 3307SOL    HW214378  10.033   0.347   7.629 -0.7266 -0.5111 -0.0967
 3308SOL     OW14379   4.278   6.572   3.267  0.2613 -0.3421 -0.5108
 3308SOL    HW114380   4.186   6.597   3.273  0.6036  0.9746 -0.5532
 3308SOL    HW214381   4.326   6.654   3.262  1.4466 -1.0057 -0.5914
 3309SOL     OW14382   6.656   8.626   3.452 -1.0676 -0.4048 -0.5003
 3309SOL    HW114383   6.723   8.589   3.510 -1.2108 -2.0727 -1.3488
 3309SOL    HW214384   6.580   8.639   3.508 -0.2257  1.0492  0.3677
 3310SOL     OW14385   8.232   7.115   8.364  0.1345 -0.2100  0.5154
 3310SOL    HW114386   8.313   7.142   8.408  0.3422  1.1326 -0.6029
 3310SOL    HW214387   8.189   7.057   8.427  1.6401 -0.4289  1.4079
 3311SOL     OW14388   6.984   5.120   1.889  0.0394 -0.8721 -0.2396
 3311SOL    HW114389   7.021   5.038   1.855 -0.7362 -1.8526  1.1773
 3311SOL    HW214390   6.904   5.094   1.934 -1.2830  0.9345 -1.3854
 3312SOL     OW14391   6.401   5.499   6.139 -0.1376 -0.6288 -0.8250
 3312SOL    HW114392   6.341   5.436   6.099  1.0403 -2.8374  0.6677
 3312SOL    HW214393   6.477   5.501   6.081  0.3707 -1.6333 -0.2168
 3313SOL     OW14394   8.054   8.236   2.706 -0.2934 -0.0877  0.4493
 3313SOL    HW114395   8.089   8.149   2.690 -0.9893 -0.2207 -0.4284
 3313SOL    HW214396   8.122   8.296   2.676 -0.6306 -0.3423 -0.9013
 3314SOL     OW14397   0.945   5.289   5.406 -0.3787 -0.5250 -0.2833
 3314SOL    HW114398   0.930   5.213   5.350  1.0218  0.7386 -2.5371
 3314SOL    HW214399   1.037   5.310   5.394 -0.8015  1.7325 -0.0537
 3315SOL     OW14400   4.529   3.325  10.154  0.1760 -0.0623 -0.5747
 3315SOL    HW114401   4.531   3.421  10.150 -1.9603  0.0878  0.4321
 3315SOL    HW214402   4.554   3.296  10.066  0.5069  1.4199 -0.9907
 3316SOL     OW14403   3.105  10.602   0.185 -0.3760  0.3674 -0.5226
 3316SOL    HW114404   3.072  10.596   0.275 -1.1898  1.4379 -0.7329
 3316SOL    HW214405   3.095  10.514   0.149 -0.1587 -0.0415  0.3831
 3317SOL     OW14406   1.545   2.563   1.691  0.1954 -0.3319 -0.1438
 3317SOL    HW114407   1.586   2.646   1.717  0.2913 -0.4394  0.0472
 3317SOL    HW214408   1.472   2.589   1.635 -0.1229 -0.0916  0.3801
 3318SOL     OW14409   0.313  10.408   7.859  0.0493  0.0848  0.0823
 3318SOL    HW114410   0.303  10.495   7.897  1.0759  0.5347 -0.6124
 3318SOL    HW214411   0.360  10.358   7.926 -1.3792 -0.2518  0.8774
 3319SOL     OW14412   4.359   0.506   0.293 -0.3474  0.0396  0.1376
 3319SOL    HW114413   4.385   0.520   0.384  2.4564  0.3538 -0.5986
 3319SOL    HW214414   4.339   0.412   0.288 -1.8619  0.2594  1.3177
 3320SOL     OW14415   3.423   9.224   1.714 -0.6394  0.2121  0.2639
 3320SOL    HW114416   3.337   9.263   1.731  0.4850  2.4067  1.2774
 3320SOL    HW214417   3.483   9.298   1.713  1.2875 -1.2803 -0.3121
 3321SOL     OW14418   4.375   3.527   2.838  0.1373  0.3313  0.4605
 3321SOL    HW114419   4.363   3.602   2.896  0.8703  2.2262 -1.7282
 3321SOL    HW214420   4.392   3.565   2.752  1.4770 -2.3484 -0.5656
 3322SOL     OW14421   9.896   9.116   0.074  0.7182  0.5221  0.2272
 3322SOL    HW114422   9.970   9.115   0.135  0.7046  1.2789  0.2625
 3322SOL    HW214423   9.901   9.201   0.032  1.0134 -0.1824 -1.2029
 3323SOL     OW14424   5.092   7.890   5.602 -0.1191 -0.6497  0.2800
 3323SOL    HW114425   5.175   7.870   5.559 -0.0849  0.1996 -0.0630
 3323SOL    HW214426   5.087   7.986   5.602 -1.1295 -0.6918  0.2445
 3324SOL     OW14427   6.700   0.642   5.862  0.5315 -0.0185 -0.4491
 3324SOL    HW114428   6.639   0.572   5.882 -0.9654  0.3672 -3.2243
 3324SOL    HW214429   6.655   0.722   5.889 -0.3649  0.2786 -2.6218
 3325SOL     OW14430   4.127   3.357   4.087 -0.4541  0.3858 -0.0973
 3325SOL    HW114431   4.200   3.414   4.113 -0.9566  0.1535  1.9846
 3325SOL    HW214432   4.167   3.293   4.029  0.5095  1.6830 -0.9287
 3326SOL     OW14433   2.520  10.096   0.292  0.0821  0.5327 -0.3457
 3326SOL    HW114434   2.497  10.075   0.383  0.5177  0.6354 -0.2098
 3326SOL    HW214435   2.612  10.120   0.296  0.4742 -0.8227 -1.0383
 3327SOL     OW14436   3.710   2.269   7.477 -0.3504  0.0351 -0.3850
 3327SOL    HW114437   3.652   2.198   7.451  0.2714 -0.3739 -0.6707
 3327SOL    HW214438   3.790   2.226   7.506 -0.2767  0.5804  0.2659
 3328SOL     OW14439   9.637   3.345   0.116  0.3376 -0.1396  0.2277
 3328SOL    HW114440   9.649   3.431   0.075  1.1360 -0.5882 -0.5333
 3328SOL    HW214441   9.554   3.313   0.080 -0.4636  0.7084  1.2737
 3329SOL     OW14442  10.146   9.549   1.477  0.0819  0.2818  0.0485
 3329SOL    HW114443  10.062   9.584   1.448 -0.7377 -0.2246  1.7205
 3329SOL    HW214444  10.147   9.561   1.571  2.3512  1.2012 -0.0264
 3330SOL     OW14445   0.903   1.599   1.187 -0.0276 -1.2371  0.3838
 3330SOL    HW114446   0.895   1.608   1.282 -0.6706 -1.7843  0.3852
 3330SOL    HW214447   0.993   1.570   1.173  0.4635  0.0604  0.7279
 3331SOL     OW14448  10.829   3.398   9.222 -0.0388 -0.0548  0.6231
 3331SOL    HW114449  10.862   3.486   9.236 -1.1696  0.0967  2.8527
 3331SOL    HW214450  10.747   3.395   9.271 -1.1877 -1.6785 -1.2557
 3332SOL     OW14451   1.234   5.251  10.177 -0.2658  0.2814 -0.0457
 3332SOL    HW114452   1.329   5.252  10.176 -0.1546  0.1391  2.7914
 3332SOL    HW214453   1.210   5.159  10.172 -0.1761  0.2083  0.7731
 3333SOL     OW14454   0.580   1.532   1.120  0.0744  0.7209 -0.0587
 3333SOL    HW114455   0.648   1.472   1.150 -0.8289  0.3592  1.3504
 3333SOL    HW214456   0.585   1.606   1.180 -0.2764  1.0436 -0.4217
 3334SOL     OW14457   6.479   6.440   5.110  0.2191 -0.1544  0.7418
 3334SOL    HW114458   6.545   6.492   5.064  0.5851 -0.7560  0.5677
 3334SOL    HW214459   6.395   6.471   5.076  0.4225  0.4829  0.8200
 3335SOL     OW14460   7.515   4.205   8.662  0.0134 -0.1591  0.3104
 3335SOL    HW114461   7.471   4.121   8.646 -0.1249  0.0857 -0.6542
 3335SOL    HW214462   7.607   4.188   8.641 -0.1254  0.0977 -0.5222
 3336SOL     OW14463   5.233   9.073   3.812 -0.0253  0.0329  0.0530
 3336SOL    HW114464   5.200   8.991   3.850  0.6062 -0.3443 -0.1978
 3336SOL    HW214465   5.285   9.112   3.882 -1.7846  1.1521  0.8260
 3337SOL     OW14466   3.843   1.354   9.784  0.1161  0.3647  0.8978
 3337SOL    HW114467   3.778   1.284   9.779 -1.4745  1.7821  0.7974
 3337SOL    HW214468   3.819   1.415   9.714  2.4865  0.2262 -0.1471
 3338SOL     OW14469   6.868   0.105   4.166 -0.1958 -0.4498 -0.3194
 3338SOL    HW114470   6.887   0.147   4.250  0.1264 -0.2248 -0.5022
 3338SOL    HW214471   6.943   0.048   4.150  0.2412  0.2797 -0.9419
 3339SOL     OW14472   2.272   9.930  11.018  0.0538  0.1330 -1.1219
 3339SOL    HW114473   2.273   9.843  10.979  0.8388 -0.7837  0.7945
 3339SOL    HW214474   2.302   9.916  11.108 -0.0056  2.3604 -0.6992
 3340SOL     OW14475   6.459   5.581  10.726 -0.6262  0.0791 -0.1581
 3340SOL    HW114476   6.496   5.663  10.693 -0.9344 -0.1290 -1.0469
 3340SOL    HW214477   6.386   5.563  10.668 -0.7658 -0.6613  0.2369
 3341SOL     OW14478   5.349   2.337   7.433 -0.0870  0.2806 -0.0146
 3341SOL    HW114479   5.332   2.377   7.348  0.7450 -0.2230 -0.4314
 3341SOL    HW214480   5.444   2.326   7.436 -0.0452  0.8104  1.2232
 3342SOL     OW14481   8.282   4.203   4.099  0.2554 -0.3438 -0.5587
 3342SOL    HW114482   8.347   4.236   4.037  1.2189 -1.1830 -0.0245
 3342SOL    HW214483   8.320   4.219   4.185 -1.1354  0.9459 -0.1455
 3343SOL     OW14484   7.301   5.846   0.519  0.0763  0.3886 -0.5456
 3343SOL    HW114485   7.362   5.827   0.591 -0.6861 -0.6630 -0.1448
 3343SOL    HW214486   7.350   5.826   0.440 -0.0291 -1.3585 -0.1955
 3344SOL     OW14487   4.643   9.249   4.221 -0.1439 -0.0471 -0.6493
 3344SOL    HW114488   4.582   9.278   4.288  0.6511 -2.2461  1.1563
 3344SOL    HW214489   4.591   9.196   4.161 -0.4747  0.1932 -0.5716
 3345SOL     OW14490  10.797   4.006   5.520 -0.1430 -0.2391 -0.0709
 3345SOL    HW114491  10.852   3.999   5.442 -0.5205  0.7312 -0.4377
 3345SOL    HW214492  10.843   3.954   5.586  0.9428  0.1312 -0.5164
 3346SOL     OW14493   9.341   6.615   7.754 -0.3321 -0.8766 -0.1714
 3346SOL    HW114494   9.354   6.690   7.695  0.3895  0.3807  1.5081
 3346SOL    HW214495   9.307   6.546   7.697 -1.4647  0.8513 -1.7056
 3347SOL     OW14496  10.459   7.047   0.766  0.2510 -0.6928 -0.2189
 3347SOL    HW114497  10.491   7.021   0.853  1.7594  0.8175 -0.2593
 3347SOL    HW214498  10.521   7.006   0.705 -1.4817 -2.7394 -0.7272
 3348SOL     OW14499   9.217   0.565   4.308  0.6996 -0.4176 -0.2151
 3348SOL    HW114500   9.296   0.523   4.340  1.9189  1.5895 -0.4215
 3348SOL    HW214501   9.172   0.596   4.386 -0.1398 -1.9259 -0.0710
 3349SOL     OW14502   6.782  10.064   3.330  0.5999 -0.0061  0.0974
 3349SOL    HW114503   6.780   9.980   3.376  0.3510 -0.3779 -0.5732
 3349SOL    HW214504   6.797  10.129   3.399 -0.9905 -0.4237  0.9037
 3350SOL     OW14505   3.072   4.490   9.465 -0.9391  0.0464  0.0446
 3350SOL    HW114506   3.021   4.440   9.529  0.1842  1.9316  2.5845
 3350SOL    HW214507   3.155   4.443   9.458 -1.0919 -0.2038 -0.0896
 3351SOL     OW14508   2.153   8.419   2.852 -0.1797 -1.1076 -0.3122
 3351SOL    HW114509   2.118   8.383   2.933 -0.1433 -2.5402 -0.8902
 3351SOL    HW214510   2.100   8.497   2.834 -1.2347 -1.6728  0.2659
 3352SOL     OW14511   2.621  10.902   1.103  0.0678 -0.2843  0.6615
 3352SOL    HW114512   2.651  10.837   1.039 -1.2510  0.8884 -1.2550
 3352SOL    HW214513   2.553  10.856   1.153 -1.5916 -0.1767 -1.3572
 3353SOL     OW14514   7.839   8.674   9.985 -0.7255 -0.0218  0.1619
 3353SOL    HW114515   7.838   8.619   9.907 -2.4788  1.1665 -0.7255
 3353SOL    HW214516   7.757   8.724   9.980  0.0899  1.5792  1.6851
 3354SOL     OW14517   3.127   9.829   6.962  0.1419  0.0328  0.4453
 3354SOL    HW114518   3.128   9.922   6.986 -1.3021 -0.3157  2.0170
 3354SOL    HW214519   3.036   9.810   6.941  0.2669 -1.1949  0.9071
 3355SOL     OW14520   5.971   0.786   4.109 -0.0354  0.0416  0.0432
 3355SOL    HW114521   5.997   0.836   4.186 -0.6977 -0.0472  0.3295
 3355SOL    HW214522   6.012   0.700   4.121 -0.0815  0.0504  0.2694
 3356SOL     OW14523   9.927   4.445   4.660  0.7447  0.0943 -0.4101
 3356SOL    HW114524   9.865   4.395   4.607 -0.4298  0.5809  0.4406
 3356SOL    HW214525   9.916   4.535   4.630  0.0109  0.3841  0.6662
 3357SOL     OW14526  10.125   4.618   2.308 -0.1874  0.4468 -0.6080
 3357SOL    HW114527  10.106   4.622   2.215  0.5662  0.9991 -0.7467
 3357SOL    HW214528  10.192   4.685   2.322  1.6526 -1.3922 -0.1478
 3358SOL     OW14529   3.389  10.466   0.087 -0.5261 -0.1129  0.0136
 3358SOL    HW114530   3.401  10.371   0.094 -2.5296 -0.4590 -0.5036
 3358SOL    HW214531   3.390  10.483  -0.007 -0.5858  0.3077  0.0889
 3359SOL     OW14532   3.221   9.137   7.832  0.5333 -0.0087  0.4780
 3359SOL    HW114533   3.226   9.103   7.921  0.0190  0.1710  0.5790
 3359SOL    HW214534   3.200   9.230   7.844 -1.5936 -0.3992  0.1411
 3360SOL     OW14535   8.083   1.798   8.181  0.1344  0.2027  0.3229
 3360SOL    HW114536   8.059   1.762   8.095  1.1871 -2.1796  0.9632
 3360SOL    HW214537   8.000   1.824   8.220 -0.4625  0.3638 -0.9976
 3361SOL     OW14538   5.843   0.288   2.499 -0.2699 -0.5228 -0.6039
 3361SOL    HW114539   5.873   0.366   2.545 -1.0780  0.0087 -0.9496
 3361SOL    HW214540   5.747   0.295   2.500 -0.3260 -0.8970 -1.6679
 3362SOL     OW14541   6.948   8.716   9.091  0.0875 -0.2240  0.1683
 3362SOL    HW114542   6.963   8.765   9.010  1.4275  0.1766  0.6413
 3362SOL    HW214543   7.017   8.651   9.093 -1.0805 -1.5140  0.0554
 3363SOL     OW14544   4.337   0.848   2.436  0.4463 -0.4189  0.6526
 3363SOL    HW114545   4.243   0.869   2.439  0.5318  0.0203  0.2520
 3363SOL    HW214546   4.366   0.857   2.527 -0.0637 -1.3504  0.9269
 3364SOL     OW14547   9.997   8.797   2.728 -0.1889 -0.2607  0.1018
 3364SOL    HW114548  10.040   8.872   2.688 -0.5274  0.1903  0.5598
 3364SOL    HW214549   9.903   8.817   2.721 -0.2735 -0.5283  0.4231
 3365SOL     OW14550   2.985   2.738   7.328 -0.2292  0.1062 -0.2234
 3365SOL    HW114551   2.920   2.806   7.315  0.3130  0.3913 -1.5962
 3365SOL    HW214552   2.985   2.688   7.247  0.5603 -0.4989  0.1323
 3366SOL     OW14553   2.107   7.586   6.606  0.0508 -0.0073  0.3665
 3366SOL    HW114554   2.072   7.498   6.594  0.9915 -0.0570 -2.8473
 3366SOL    HW214555   2.033   7.638   6.638 -0.5285 -1.8676  2.2962
 3367SOL     OW14556   8.036   0.431   1.518 -0.2786 -0.4234  0.7428
 3367SOL    HW114557   7.970   0.486   1.477  0.5224  0.0538  0.0527
 3367SOL    HW214558   7.997   0.404   1.601 -2.3353 -2.2465 -0.7179
 3368SOL     OW14559   1.102   7.834   2.686  0.4545  0.0432  0.2480
 3368SOL    HW114560   1.197   7.828   2.675  0.4138 -0.3625  0.0851
 3368SOL    HW214561   1.084   7.779   2.762  0.3624  0.1902  0.3307
 3369SOL     OW14562   7.767  10.152   3.942  0.0135 -0.5017  0.1854
 3369SOL    HW114563   7.827  10.148   4.017 -1.5668 -1.7549  1.4548
 3369SOL    HW214564   7.680  10.151   3.981 -0.8672 -0.2106 -1.6655
 3370SOL     OW14565   5.411   1.515  10.883  0.0955  0.4776  0.2582
 3370SOL    HW114566   5.454   1.514  10.969  0.2717  0.6641  0.1742
 3370SOL    HW214567   5.349   1.443  10.886  0.5437  0.0919  0.3145
 3371SOL     OW14568   4.474   5.932   1.845 -0.1045  0.2012  0.3530
 3371SOL    HW114569   4.473   5.993   1.772 -0.8266  1.6961  1.5464
 3371SOL    HW214570   4.566   5.910   1.858  0.1591  1.0082 -0.1254
 3372SOL     OW14571   2.232   5.840   5.775 -0.0838  0.0251  0.0424
 3372SOL    HW114572   2.274   5.814   5.857  3.1991 -0.2901 -1.5579
 3372SOL    HW214573   2.243   5.764   5.717  0.8974  1.4255 -1.7196
 3373SOL     OW14574   1.050  10.602   8.704 -0.2334 -0.2825  0.1440
 3373SOL    HW114575   1.017  10.595   8.793 -0.4742 -1.1715 -0.0029
 3373SOL    HW214576   1.136  10.645   8.713 -0.8810  0.9624  0.6436
 3374SOL     OW14577   9.758   2.227  10.738 -0.5134 -0.0167 -0.2218
 3374SOL    HW114578   9.770   2.198  10.647  2.1757  1.3623 -0.3865
 3374SOL    HW214579   9.841   2.209  10.781 -1.1983  0.8233  1.5576
 3375SOL     OW14580   8.058   5.647   4.510 -0.5418  0.4819 -0.1480
 3375SOL    HW114581   8.010   5.602   4.441  0.0655  2.0136 -1.6729
 3375SOL    HW214582   7.991   5.675   4.572 -1.0252 -1.5581  0.3058
 3376SOL     OW14583   1.135   0.828   7.755  0.8156 -0.2133  0.4374
 3376SOL    HW114584   1.206   0.884   7.788 -0.8807  1.4448  1.4813
 3376SOL    HW214585   1.180   0.749   7.725  3.2091  1.1601  0.0794
 3377SOL     OW14586   6.666   2.994  10.661  0.6778  0.3509 -0.0220
 3377SOL    HW114587   6.701   2.984  10.750 -1.1949  0.7882  0.7957
 3377SOL    HW214588   6.694   2.914  10.616  1.8802  0.2438  0.8598
 3378SOL     OW14589   8.790   9.193   3.283 -0.0776  0.1382 -0.1492
 3378SOL    HW114590   8.789   9.263   3.348  0.5626  0.2613 -0.2634
 3378SOL    HW214591   8.719   9.134   3.310 -1.7198  1.6474 -1.0027
 3379SOL     OW14592   7.211   7.932   4.776 -0.4732 -0.1137 -0.1843
 3379SOL    HW114593   7.195   7.912   4.684 -0.5401 -0.1124 -0.1727
 3379SOL    HW214594   7.172   8.018   4.789  1.6078  0.9909 -0.7523
 3380SOL     OW14595   6.146   9.476   2.968  0.3528 -0.5058 -0.1565
 3380SOL    HW114596   6.200   9.398   2.955  0.8451  0.1324 -2.4288
 3380SOL    HW214597   6.070   9.445   3.018  1.6131 -1.9347  0.9629
 3381SOL     OW14598   6.154  10.448   4.093 -0.4569 -0.6195  0.0155
 3381SOL    HW114599   6.101  10.524   4.069 -0.3185 -0.7159 -0.6223
 3381SOL    HW214600   6.146  10.389   4.017 -0.1597 -1.0210  0.2921
 3382SOL     OW14601   0.224   3.436   6.437  0.0425 -0.5630  0.0903
 3382SOL    HW114602   0.185   3.484   6.510  0.7727 -1.3706  1.0372
 3382SOL    HW214603   0.239   3.347   6.472 -1.1430 -1.4598 -1.5602
 3383SOL     OW14604   2.040   9.687   2.264 -0.9944  0.2672 -0.1465
 3383SOL    HW114605   2.047   9.781   2.277  0.3371  0.2097 -0.2057
 3383SOL    HW214606   2.029   9.677   2.169 -2.5943  0.3958  0.0044
 3384SOL     OW14607   2.774   9.712   9.538  0.6235 -0.2850  0.2922
 3384SOL    HW114608   2.771   9.617   9.546  1.0582 -0.2201  1.3745
 3384SOL    HW214609   2.686   9.737   9.509  1.5812 -1.3295 -4.2389
 3385SOL     OW14610   1.996   0.999   1.508  0.4924 -0.3860 -0.0143
 3385SOL    HW114611   2.069   0.946   1.540 -0.2180 -0.7227  1.1387
 3385SOL    HW214612   1.928   0.989   1.575 -1.3395 -1.6020 -1.9447
 3386SOL     OW14613   6.955   5.887   1.486 -0.2676 -0.5543  0.4550
 3386SOL    HW114614   6.963   5.954   1.419 -0.8972  0.1092  1.0301
 3386SOL    HW214615   6.953   5.804   1.438  1.1817 -0.2280 -0.2322
 3387SOL     OW14616   6.166   4.701   3.774  0.0859 -0.1019  0.2000
 3387SOL    HW114617   6.259   4.712   3.757  0.0427 -0.0130  0.0196
 3387SOL    HW214618   6.144   4.769   3.838 -0.6022  2.2936 -2.3503
 3388SOL     OW14619   4.131   5.970   0.508  0.3798 -0.6166  0.1493
 3388SOL    HW114620   4.067   6.009   0.568 -0.6443 -1.6056 -0.2829
 3388SOL    HW214621   4.112   5.876   0.509  0.3359 -0.6677 -1.7076
 3389SOL     OW14622  10.988   0.294   1.548  0.2036 -0.3648  0.2978
 3389SOL    HW114623  10.914   0.307   1.488 -0.5802 -2.7065  0.6478
 3389SOL    HW214624  11.005   0.380   1.585 -0.7681  0.6982 -1.5917
 3390SOL     OW14625   1.553   6.044   6.653  0.2794 -0.5983  0.0488
 3390SOL    HW114626   1.535   6.019   6.744  0.5440 -0.5149  0.1264
 3390SOL    HW214627   1.649   6.047   6.648  0.2617 -0.3181 -0.1551
 3391SOL     OW14628   5.426   4.429   4.204 -0.0635 -0.2815  0.2069
 3391SOL    HW114629   5.515   4.398   4.220  0.4497  0.5671 -0.8523
 3391SOL    HW214630   5.380   4.413   4.286  1.0215 -0.8747  0.7268
 3392SOL     OW14631   3.783   4.639   8.598 -0.2721  0.4023 -0.2033
 3392SOL    HW114632   3.774   4.608   8.688 -3.0297  1.5442  0.0094
 3392SOL    HW214633   3.829   4.723   8.606  0.0632  0.2000  0.0500
 3393SOL     OW14634   4.418   0.985   9.669  0.0149  0.4167  0.2939
 3393SOL    HW114635   4.414   1.071   9.711 -1.0476  1.1308 -1.1758
 3393SOL    HW214636   4.507   0.955   9.684  0.5435  1.9781  0.4614
 3394SOL     OW14637   1.524   8.169   6.680 -0.0684 -0.0722  0.3164
 3394SOL    HW114638   1.535   8.115   6.601 -0.9986 -2.8815  1.9569
 3394SOL    HW214639   1.459   8.234   6.655 -1.4216 -1.7823 -0.8763
 3395SOL     OW14640   8.444   7.040   8.953 -0.2642 -0.6106 -0.0851
 3395SOL    HW114641   8.425   7.033   8.859 -1.2152  3.4124 -0.3774
 3395SOL    HW214642   8.418   6.955   8.989 -0.3873 -2.1101 -3.3450
 3396SOL     OW14643   7.889   1.332   6.605  0.5332 -0.0108 -0.5709
 3396SOL    HW114644   7.858   1.342   6.695 -0.0067 -1.8280 -0.5217
 3396SOL    HW214645   7.870   1.241   6.583  1.6190  0.1138 -2.1731
 3397SOL     OW14646   2.661   3.180   7.083 -0.1905  0.5209  0.0423
 3397SOL    HW114647   2.599   3.133   7.029  0.6216  0.2460 -0.6779
 3397SOL    HW214648   2.743   3.176   7.034  0.6668 -0.0569  1.4545
 3398SOL     OW14649   6.426   1.545   6.520  0.1838  0.2840  0.4243
 3398SOL    HW114650   6.482   1.549   6.443 -1.5683  1.0987 -0.8876
 3398SOL    HW214651   6.478   1.585   6.589  1.1550  1.2034 -0.7830
 3399SOL     OW14652   1.570   5.634   4.143  0.1173 -0.1403  0.6335
 3399SOL    HW114653   1.528   5.720   4.143 -1.4277 -0.8728  0.4227
 3399SOL    HW214654   1.557   5.602   4.232  0.9960 -0.0436  0.8127
 3400SOL     OW14655   6.994   2.006   0.927  0.0682  0.1587 -0.1474
 3400SOL    HW114656   7.072   1.974   0.973 -0.4535 -0.5805  0.2292
 3400SOL    HW214657   6.931   1.935   0.932 -0.0273  0.0518 -1.9853
 3401SOL     OW14658   7.523   3.044   6.620  0.0273  0.0738 -0.0639
 3401SOL    HW114659   7.565   3.130   6.615 -0.5771  0.4196  0.6252
 3401SOL    HW214660   7.586   2.989   6.666 -0.0299  0.4456  0.4722
 3402SOL     OW14661   4.817   3.496   1.631 -0.4801  0.0003  0.3220
 3402SOL    HW114662   4.836   3.576   1.581  1.4237 -0.8531 -0.4525
 3402SOL    HW214663   4.871   3.429   1.589 -0.3000 -1.1961  2.3408
 3403SOL     OW14664   6.483   6.293   5.350  0.2334  0.1758  0.0304
 3403SOL    HW114665   6.492   6.205   5.316  0.6811  0.3031 -0.1915
 3403SOL    HW214666   6.491   6.350   5.273  1.8875  0.4925  0.3853
 3404SOL     OW14667   3.591   0.093   5.733  0.5532 -0.0332  0.0295
 3404SOL    HW114668   3.574   0.186   5.720 -1.5255 -0.3730 -0.0785
 3404SOL    HW214669   3.574   0.079   5.826  2.7591  0.0049  0.4940
 3405SOL     OW14670   6.677   5.566   5.990  0.3720  0.3803 -0.4896
 3405SOL    HW114671   6.614   5.627   5.952 -0.7739 -0.8519 -0.6127
 3405SOL    HW214672   6.752   5.621   6.013 -0.3268  1.7110 -1.2747
 3406SOL     OW14673   1.750   9.078   4.136 -0.6688 -0.4615  1.0232
 3406SOL    HW114674   1.732   9.032   4.218 -0.8158 -1.0392  0.6738
 3406SOL    HW214675   1.751   9.009   4.069  0.5147 -0.1367  0.6877
 3407SOL     OW14676   6.346   1.979   7.163  0.2826  0.1548  0.0914
 3407SOL    HW114677   6.254   1.988   7.189  0.2009 -0.0438 -0.1166
 3407SOL    HW214678   6.369   2.064   7.127 -0.1477 -0.1022 -0.8440
 3408SOL     OW14679   0.715   5.775   4.894 -0.1221  0.2493 -0.0716
 3408SOL    HW114680   0.696   5.796   4.803  0.3499 -0.5895 -0.3772
 3408SOL    HW214681   0.653   5.706   4.917 -0.9725  1.2090  0.5985
 3409SOL     OW14682   1.837   5.828   2.637  0.4336 -0.2221  0.4197
 3409SOL    HW114683   1.831   5.756   2.699  0.9880 -0.0992  0.6232
 3409SOL    HW214684   1.924   5.865   2.651  0.9665 -0.8005 -1.1060
 3410SOL     OW14685   3.777   8.764   7.461  0.3619  0.0251 -0.1364
 3410SOL    HW114686   3.830   8.803   7.530 -0.5624  1.0241  0.0277
 3410SOL    HW214687   3.688   8.795   7.478 -0.5418 -2.4728  0.2541
 3411SOL     OW14688   2.799   4.109   2.115  0.3122 -0.2569 -0.3451
 3411SOL    HW114689   2.805   4.046   2.043  0.7660 -0.0383 -0.4993
 3411SOL    HW214690   2.738   4.176   2.084 -1.0858 -1.1995  0.2632
 3412SOL     OW14691  10.139   8.965  10.947 -0.3708 -0.6414 -0.4571
 3412SOL    HW114692  10.062   9.009  10.911  0.5230  0.2069 -1.4003
 3412SOL    HW214693  10.187   8.933  10.871 -0.3186 -2.1097  0.1599
 3413SOL     OW14694   0.166   7.923   4.182  0.3081 -0.6225  0.0174
 3413SOL    HW114695   0.185   7.936   4.275 -2.0422  0.0734  0.4680
 3413SOL    HW214696   0.074   7.896   4.180  0.5499 -1.4730 -2.0697
 3414SOL     OW14697   6.446   2.719   5.999  0.2582 -0.1326 -0.2005
 3414SOL    HW114698   6.479   2.807   5.981  2.2446 -0.4225  1.7051
 3414SOL    HW214699   6.524   2.665   6.006 -0.6087 -1.1759  2.9474
 3415SOL     OW14700   8.357   1.046   9.963  0.2225 -0.1317  0.2112
 3415SOL    HW114701   8.395   1.050   9.875 -0.6167  1.0477 -0.1243
 3415SOL    HW214702   8.268   1.080   9.953  0.2284  0.3641  1.5742
 3416SOL     OW14703   0.709   6.082   3.498 -0.2052  0.6202 -0.0185
 3416SOL    HW114704   0.672   6.055   3.414  0.5214 -2.7032  0.6024
 3416SOL    HW214705   0.794   6.119   3.475  1.7711 -3.7546 -0.7409
 3417SOL     OW14706   9.620   1.746   9.579  0.1025 -0.5984 -0.8500
 3417SOL    HW114707   9.664   1.663   9.600 -1.1911 -1.1508 -0.2282
 3417SOL    HW214708   9.534   1.738   9.619  0.2015  1.3577 -0.1287
 3418SOL     OW14709   5.754   4.898   9.319  0.9765  0.0539 -0.8711
 3418SOL    HW114710   5.816   4.863   9.383  2.7891  2.3728 -1.2049
 3418SOL    HW214711   5.792   4.982   9.292 -1.3000  0.6234 -2.6782
 3419SOL     OW14712   7.941   7.866   8.975 -0.1282 -0.1016 -0.1039
 3419SOL    HW114713   8.031   7.896   8.963 -0.7884  1.3053 -2.0624
 3419SOL    HW214714   7.888   7.932   8.931 -2.1706 -0.7417  1.2423
 3420SOL     OW14715   5.232  10.172   4.613  0.0216  0.0434 -0.0961
 3420SOL    HW114716   5.182  10.250   4.589  0.2691  0.0733 -0.5361
 3420SOL    HW214717   5.281  10.151   4.534 -1.0246 -1.3234 -0.4282
 3421SOL     OW14718   1.986   8.021   7.950  0.4026  0.2178 -0.4216
 3421SOL    HW114719   1.902   7.994   7.912 -0.7476  1.2639  1.1874
 3421SOL    HW214720   2.044   8.034   7.875 -1.6004  1.7612 -1.8131
 3422SOL     OW14721   0.585   7.410   9.819  0.1638 -0.0273 -0.3123
 3422SOL    HW114722   0.553   7.482   9.766  0.9438 -0.3912 -1.3036
 3422SOL    HW214723   0.617   7.345   9.756 -1.0813 -1.5247  0.5208
 3423SOL     OW14724   6.002   3.951   4.819 -0.0841 -0.2215  0.1032
 3423SOL    HW114725   5.918   3.943   4.865  0.6479 -1.0586  1.3476
 3423SOL    HW214726   5.994   4.033   4.769 -2.0114 -0.8038 -0.6396
 3424SOL     OW14727   5.804  10.427   1.600 -0.0563  0.2307 -0.6463
 3424SOL    HW114728   5.812  10.399   1.509  0.0842  0.8336 -0.8250
 3424SOL    HW214729   5.813  10.523   1.597  0.5757  0.2110  0.0635
 3425SOL     OW14730   6.923   3.791   2.253  0.2538 -0.5648  0.3925
 3425SOL    HW114731   6.950   3.726   2.188  0.0570 -0.5137  0.2593
 3425SOL    HW214732   6.925   3.874   2.206 -0.3171 -0.5840  0.3305
 3426SOL     OW14733   5.490   6.272   8.410  1.0803  0.0321 -0.5309
 3426SOL    HW114734   5.584   6.281   8.429  1.2356 -0.4630 -1.0593
 3426SOL    HW214735   5.485   6.201   8.346  0.4220  0.6209 -1.1470
 3427SOL     OW14736   6.829  10.347   3.150 -0.2220 -0.0270  0.2649
 3427SOL    HW114737   6.770  10.305   3.213  1.2920 -1.2109  0.9887
 3427SOL    HW214738   6.857  10.428   3.193  0.3850 -0.5647  0.9070
 3428SOL     OW14739   4.869   1.683  10.338 -0.1325 -0.1977  0.1486
 3428SOL    HW114740   4.894   1.763  10.293 -1.5512  0.3718  0.3161
 3428SOL    HW214741   4.927   1.678  10.413  0.7571  0.0283 -0.5086
 3429SOL     OW14742   8.008   4.324   9.121  0.1551  0.1056  0.2746
 3429SOL    HW114743   7.938   4.337   9.058  0.1932 -0.3789  0.1251
 3429SOL    HW214744   7.967   4.276   9.194  0.0079  1.0542  0.8232
 3430SOL     OW14745   4.415   0.339   1.531 -0.1402  0.1430  0.1820
 3430SOL    HW114746   4.502   0.299   1.542  0.1427  0.9991  1.2448
 3430SOL    HW214747   4.390   0.318   1.441  0.8813 -0.6833  0.0744
 3431SOL     OW14748   1.978   4.052  10.283  0.0901  0.0863 -0.0146
 3431SOL    HW114749   2.018   3.981  10.231 -1.1752 -0.9044  0.3060
 3431SOL    HW214750   2.002   4.132  10.236  0.6836 -0.6263 -0.9818
 3432SOL     OW14751  10.660   7.710   7.710  0.4368 -0.0036 -0.1783
 3432SOL    HW114752  10.704   7.793   7.693  2.0116 -0.4379  1.4231
 3432SOL    HW214753  10.710   7.645   7.660 -0.2318 -0.1282 -0.7027
 3433SOL     OW14754   6.742   5.487   4.310  0.3116  0.0825 -0.1264
 3433SOL    HW114755   6.686   5.563   4.291  0.7239 -0.0441 -2.0797
 3433SOL    HW214756   6.748   5.485   4.405 -2.4338  0.5173  0.1478
 3434SOL     OW14757   3.377   7.370   5.751 -0.4934  0.0280 -0.4779
 3434SOL    HW114758   3.406   7.285   5.784 -1.2039  0.2952  0.8905
 3434SOL    HW214759   3.295   7.351   5.705  0.4963 -0.3427 -2.1896
 3435SOL     OW14760   2.508   2.787   2.279  0.3499  0.3575 -0.4488
 3435SOL    HW114761   2.500   2.724   2.208 -0.5026 -1.0221  0.8123
 3435SOL    HW214762   2.546   2.736   2.352 -0.9627  1.1141  0.8064
 3436SOL     OW14763   7.485   4.617   6.885  0.4249  0.6907  0.1142
 3436SOL    HW114764   7.501   4.650   6.797  0.8409 -0.5749 -0.3059
 3436SOL    HW214765   7.489   4.695   6.941 -0.1259  1.5592 -0.9998
 3437SOL     OW14766   3.097   6.560   5.768 -0.1786 -0.4215 -0.3524
 3437SOL    HW114767   3.038   6.589   5.698 -1.3791  0.3390  0.9414
 3437SOL    HW214768   3.167   6.625   5.767 -0.3328 -0.2541 -0.6499
 3438SOL     OW14769   7.798   4.570   8.995  0.2394 -0.6054  0.1771
 3438SOL    HW114770   7.842   4.490   8.966  1.8947 -0.3735  1.8743
 3438SOL    HW214771   7.867   4.637   8.993 -0.1273 -0.0914  2.3642
 3439SOL     OW14772   3.505   4.411   8.662  0.1129 -0.4651  0.0609
 3439SOL    HW114773   3.484   4.375   8.749  1.0873 -1.2130  0.0047
 3439SOL    HW214774   3.591   4.373   8.641 -0.1400 -0.3365 -1.2592
 3440SOL     OW14775  10.872  10.518   9.104  0.0485 -0.0748 -0.1498
 3440SOL    HW114776  10.916  10.497   9.186 -0.3458 -1.1840 -0.2019
 3440SOL    HW214777  10.861  10.613   9.106  2.6745  0.3061 -0.2596
 3441SOL     OW14778   5.712   9.891   6.903 -0.4473  0.0964  0.2946
 3441SOL    HW114779   5.697   9.965   6.962 -0.4792  1.1431 -0.9797
 3441SOL    HW214780   5.805   9.897   6.881 -0.3105 -0.6173  0.6433
 3442SOL     OW14781   3.138   0.460   4.373  0.0385 -0.3025  0.4400
 3442SOL    HW114782   3.052   0.432   4.344 -0.7585  2.7972 -0.5617
 3442SOL    HW214783   3.121   0.506   4.455  0.5041  1.3777 -0.3691
 3443SOL     OW14784   8.233   5.617   2.873  0.4965  0.0570 -0.2773
 3443SOL    HW114785   8.244   5.707   2.903  2.3573  0.0367 -0.7745
 3443SOL    HW214786   8.144   5.593   2.900  0.8761  1.1439  2.2809
 3444SOL     OW14787  10.305   4.175   7.651  0.0241 -0.2343 -0.4958
 3444SOL    HW114788  10.326   4.212   7.565  0.7348  0.2305 -0.1313
 3444SOL    HW214789  10.337   4.085   7.647 -0.5084 -0.4114 -0.9265
 3445SOL     OW14790   9.839   0.233   8.552  0.0181  0.3112  0.4888
 3445SOL    HW114791   9.843   0.172   8.478  0.2139  1.4535 -0.4909
 3445SOL    HW214792   9.866   0.182   8.628  1.9397 -0.3768 -0.5997
 3446SOL     OW14793   6.141   0.967   8.308 -0.6430  0.2527 -0.1217
 3446SOL    HW114794   6.160   0.874   8.321  0.5446  0.2630 -1.5531
 3446SOL    HW214795   6.093   0.970   8.225 -0.3641  0.9451 -0.2582
 3447SOL     OW14796   2.741   5.499   8.465  0.0404  0.1075  0.2766
 3447SOL    HW114797   2.663   5.444   8.454  1.0962 -1.2633 -0.7713
 3447SOL    HW214798   2.724   5.549   8.544 -2.6162  1.1227 -0.8542
 3448SOL     OW14799   7.252   0.458   0.573  0.6073 -0.2682 -0.2439
 3448SOL    HW114800   7.309   0.449   0.649  0.6111 -0.9059 -0.3185
 3448SOL    HW214801   7.298   0.412   0.503  0.4918  0.1127 -0.5688
 3449SOL     OW14802   0.025   1.279   0.699  0.3783 -0.4441  0.4352
 3449SOL    HW114803   0.025   1.184   0.710 -0.5434 -0.6152 -0.7426
 3449SOL    HW214804  -0.022   1.312   0.776  3.5669 -0.5982  2.6490
 3450SOL     OW14805   1.671   4.976   4.327 -0.2369 -0.9096  0.5877
 3450SOL    HW114806   1.697   5.067   4.314 -2.1386 -0.0870  2.0630
 3450SOL    HW214807   1.753   4.927   4.323  0.8034  0.8087 -0.5024
 3451SOL     OW14808  10.009   6.776   1.436  0.2054 -0.2980  0.9170
 3451SOL    HW114809  10.048   6.846   1.383 -0.1725  0.2249  1.3236
 3451SOL    HW214810  10.083   6.724   1.465  0.3213 -1.8748 -1.8569
 3452SOL     OW14811   2.399   1.436   0.676  0.4492 -0.3457 -0.0683
 3452SOL    HW114812   2.414   1.467   0.766 -2.3295  0.5298  0.1933
 3452SOL    HW214813   2.381   1.343   0.686 -0.0071 -0.2226  0.3539
 3453SOL     OW14814   4.477   7.184   4.701  0.3257  0.0444 -0.2771
 3453SOL    HW114815   4.558   7.133   4.696  0.3983  0.1998 -0.7401
 3453SOL    HW214816   4.502   7.265   4.745  0.2424 -0.2526  0.3233
 3454SOL     OW14817   5.455   5.710   8.000 -0.0970 -0.1039 -0.4238
 3454SOL    HW114818   5.534   5.705   8.052  0.2970  1.3731 -0.8370
 3454SOL    HW214819   5.484   5.740   7.914 -1.0776  0.3246 -0.6274
 3455SOL     OW14820   1.790   0.213   4.428 -0.2798 -0.1935 -0.8381
 3455SOL    HW114821   1.699   0.230   4.452  0.0582 -0.3328  0.7053
 3455SOL    HW214822   1.802   0.255   4.344 -1.9483 -0.7220 -1.3764
 3456SOL     OW14823   8.715   6.925   5.661  0.4905  0.1645  0.5035
 3456SOL    HW114824   8.624   6.905   5.682 -0.0538  3.2315  1.6080
 3456SOL    HW214825   8.764   6.895   5.738  0.4330 -1.2743  0.0094
 3457SOL     OW14826   1.656  10.484   3.818 -0.0812  0.4502  0.5188
 3457SOL    HW114827   1.594  10.522   3.880  0.6194  2.2744  0.1478
 3457SOL    HW214828   1.737  10.474   3.867  0.0157  0.3497  0.3420
 3458SOL     OW14829   8.754   7.624   7.195  0.0498 -0.2174  0.0077
 3458SOL    HW114830   8.704   7.624   7.113  2.4538  0.7094 -1.5641
 3458SOL    HW214831   8.803   7.542   7.193 -0.2795 -0.4457  0.8241
 3459SOL     OW14832   0.285   0.422   0.389  0.0600  0.9989 -0.6189
 3459SOL    HW114833   0.288   0.488   0.320 -0.8396 -0.7448 -2.4321
 3459SOL    HW214834   0.193   0.419   0.414  0.4747  2.0618  1.1803
 3460SOL     OW14835   6.428   4.709   3.760  0.2069 -0.1647  0.1013
 3460SOL    HW114836   6.440   4.764   3.682  2.1772 -1.2382 -0.4213
 3460SOL    HW214837   6.462   4.623   3.734 -0.1906 -0.8640  1.7801
 3461SOL     OW14838   5.004   1.776   7.057 -0.1302  0.3482 -0.4695
 3461SOL    HW114839   4.933   1.816   7.108  1.7524  0.9820  1.8699
 3461SOL    HW214840   5.003   1.684   7.084  0.1918  0.4510 -0.1000
 3462SOL     OW14841   0.620   5.511   4.937 -0.1558 -0.3124 -0.0480
 3462SOL    HW114842   0.635   5.476   4.850  0.4524  1.5714 -0.7572
 3462SOL    HW214843   0.654   5.444   4.996  2.3196 -0.3303 -1.3672
 3463SOL     OW14844   8.644   2.675   2.788 -0.1794  0.0795 -0.0835
 3463SOL    HW114845   8.641   2.766   2.759 -0.0901  1.3381  3.3858
 3463SOL    HW214846   8.562   2.663   2.837 -0.0349 -1.6370 -0.1841
 3464SOL     OW14847   4.143   1.371   3.598 -0.3226 -0.0141  0.1289
 3464SOL    HW114848   4.186   1.312   3.660 -0.1320 -0.1525 -0.1350
 3464SOL    HW214849   4.215   1.419   3.557 -0.4790  0.4710  0.4075
 3465SOL     OW14850   2.583   6.489   5.054 -0.1386  0.1766 -0.0513
 3465SOL    HW114851   2.534   6.563   5.090 -2.9567 -1.0613 -1.0650
 3465SOL    HW214852   2.645   6.529   4.993 -1.0016  1.7603  0.0622
 3466SOL     OW14853   9.648   8.159   9.380 -0.1311  0.1182 -0.5521
 3466SOL    HW114854   9.711   8.101   9.424 -0.4056 -0.9509 -1.5278
 3466SOL    HW214855   9.575   8.167   9.442  0.2550  0.0615 -0.0853
 3467SOL     OW14856   0.236   4.049   0.762 -0.3674 -0.3506  0.1737
 3467SOL    HW114857   0.246   3.955   0.750 -1.7161 -0.4162 -0.7034
 3467SOL    HW214858   0.320   4.086   0.738 -0.1208 -1.2652 -0.4132
 3468SOL     OW14859   2.644   1.199   2.222 -0.1628  0.2469 -0.2073
 3468SOL    HW114860   2.719   1.195   2.162 -2.0428 -2.1820 -2.6488
 3468SOL    HW214861   2.671   1.147   2.297  0.7301 -0.2812 -0.8678
 3469SOL     OW14862   6.406   7.270   4.791 -0.8396 -0.5342 -0.4584
 3469SOL    HW114863   6.373   7.337   4.732 -0.1548 -0.4122 -0.7174
 3469SOL    HW214864   6.493   7.249   4.757 -0.4423 -0.4850  0.4881
 3470SOL     OW14865   3.018   5.137   7.216 -0.1873  0.0523 -0.0233
 3470SOL    HW114866   3.083   5.080   7.174  0.1556  0.0354  0.5172
 3470SOL    HW214867   3.070   5.208   7.254 -0.3112 -0.7140  1.6563
 3471SOL     OW14868   7.364   6.569   1.480  0.6271  0.2363  0.2750
 3471SOL    HW114869   7.431   6.525   1.532  1.2050  1.7345  0.8513
 3471SOL    HW214870   7.289   6.511   1.485  1.0801 -0.2889  1.7251
 3472SOL     OW14871   5.326   5.778   7.689 -0.1384  0.3344  0.0340
 3472SOL    HW114872   5.236   5.757   7.667 -0.3088  1.1034 -0.0248
 3472SOL    HW214873   5.324   5.803   7.781  0.0071  0.3765  0.0264
 3473SOL     OW14874   3.671   3.472   0.212  0.3989 -0.2098  0.0226
 3473SOL    HW114875   3.715   3.557   0.219  0.6076 -0.3455  0.4073
 3473SOL    HW214876   3.589   3.484   0.258  0.1626 -0.0475 -0.4295
 3474SOL     OW14877   8.189  10.481   7.252  0.3518 -0.4380 -0.6521
 3474SOL    HW114878   8.281  10.463   7.231  0.9033  0.9201  0.4335
 3474SOL    HW214879   8.191  10.563   7.301 -1.6833  0.8447 -2.5378
 3475SOL     OW14880   6.052   2.938   2.207  0.1777 -0.0676  0.5768
 3475SOL    HW114881   6.092   3.010   2.256  1.3458 -1.1456  1.2824
 3475SOL    HW214882   6.064   2.862   2.264 -0.1468 -1.0038 -0.5837
 3476SOL     OW14883   5.277   7.953   9.088  0.0504 -0.6831 -0.2026
 3476SOL    HW114884   5.319   8.039   9.083  0.5018 -0.8608  0.4592
 3476SOL    HW214885   5.273   7.933   9.182 -0.2174 -1.3042 -0.3393
 3477SOL     OW14886   9.120   3.846   1.688 -0.3194 -0.0703 -0.1856
 3477SOL    HW114887   9.099   3.919   1.747 -0.4416 -0.0979 -0.1969
 3477SOL    HW214888   9.037   3.804   1.670 -0.4486  0.6257 -1.2871
 3478SOL     OW14889  11.001  10.780   0.362  0.3144  0.3515  0.1256
 3478SOL    HW114890  10.996  10.792   0.457 -0.3707 -0.2171  0.1745
 3478SOL    HW214891  10.950  10.852   0.325 -2.1753 -1.1706  0.3388
 3479SOL     OW14892   1.219   7.524   2.886 -0.4193 -0.2500  0.6205
 3479SOL    HW114893   1.180   7.544   2.971 -2.0269 -0.1043 -0.1312
 3479SOL    HW214894   1.292   7.585   2.879 -2.4117  2.2384  0.3807
 3480SOL     OW14895   1.781   6.792   3.564  0.1048  0.0594  0.1451
 3480SOL    HW114896   1.835   6.798   3.485 -0.6699 -4.1910 -0.9261
 3480SOL    HW214897   1.693   6.814   3.535  0.0394 -0.2367  0.1143
 3481SOL     OW14898   7.797   1.178   3.849 -0.0592  0.4055  0.3359
 3481SOL    HW114899   7.874   1.122   3.852  1.3523  2.2466  0.6808
 3481SOL    HW214900   7.751   1.160   3.930  1.7611  1.5306  1.7012
 3482SOL     OW14901   6.004   6.881   1.826 -0.1698 -0.6779 -0.3998
 3482SOL    HW114902   6.062   6.954   1.848  0.0482  0.0444 -3.0772
 3482SOL    HW214903   5.957   6.863   1.908  0.4468  1.8170  0.6002
 3483SOL     OW14904   3.662   3.234   8.085 -0.0580 -0.5824  0.1524
 3483SOL    HW114905   3.732   3.296   8.064  0.2471 -0.8843  0.2492
 3483SOL    HW214906   3.707   3.149   8.089 -0.4679 -0.8052  0.0275
 3484SOL     OW14907   0.561   1.145   9.131 -0.4472  0.2579  0.7333
 3484SOL    HW114908   0.640   1.190   9.101 -1.0037  0.4089 -0.5732
 3484SOL    HW214909   0.527   1.102   9.052 -0.6656 -1.3542  1.6583
 3485SOL     OW14910   9.092   3.791   4.465 -0.1541 -0.0732  0.0083
 3485SOL    HW114911   9.154   3.844   4.516 -1.8813  0.3638  1.7884
 3485SOL    HW214912   9.029   3.853   4.431 -0.3461 -0.6529 -0.7301
 3486SOL     OW14913   9.650   9.119   8.093  0.1000 -0.4602 -0.4524
 3486SOL    HW114914   9.604   9.164   8.163 -0.3142 -2.0049  0.3272
 3486SOL    HW214915   9.719   9.068   8.137  1.8235  0.8585 -1.4772
 3487SOL     OW14916   1.550   3.781   7.880 -0.5808 -0.4901  0.3284
 3487SOL    HW114917   1.457   3.760   7.881 -0.6216 -0.2935  0.7906
 3487SOL    HW214918   1.569   3.801   7.788 -0.5322 -2.5318 -0.1602
 3488SOL     OW14919   5.213   2.691   0.266 -0.3227  0.2127  0.1218
 3488SOL    HW114920   5.176   2.779   0.271  1.3665  0.9609  0.2310
 3488SOL    HW214921   5.269   2.685   0.343  0.9257 -0.2912 -0.8011
 3489SOL     OW14922   5.839   6.972   7.993  0.2518  0.1328 -0.7116
 3489SOL    HW114923   5.747   6.982   7.967  0.0785 -2.5900 -1.4059
 3489SOL    HW214924   5.886   6.964   7.910  0.4535 -2.8812 -0.4146
 3490SOL     OW14925   3.401   4.883   5.210 -0.0921  0.1550  0.2061
 3490SOL    HW114926   3.429   4.943   5.141  0.3697  0.6130  0.7917
 3490SOL    HW214927   3.430   4.923   5.291  0.6331 -1.0886  0.5863
 3491SOL     OW14928   9.665   3.527   3.789  0.3102  0.2678 -0.2722
 3491SOL    HW114929   9.639   3.473   3.715 -0.2423  0.3515 -0.1445
 3491SOL    HW214930   9.724   3.472   3.840 -3.3417 -1.8477  2.1029
 3492SOL     OW14931   8.987   0.076   2.954  0.3035 -0.2542  0.4564
 3492SOL    HW114932   8.989   0.166   2.921 -1.1068 -0.2375  0.3814
 3492SOL    HW214933   9.023   0.023   2.883  0.5831  0.1787  0.2729
 3493SOL     OW14934   8.982   8.456   4.441 -0.3475  0.2067 -0.4226
 3493SOL    HW114935   8.977   8.364   4.414  1.8183  0.0843 -0.6287
 3493SOL    HW214936   8.899   8.473   4.485 -1.1955 -1.5623 -1.2378
 3494SOL     OW14937   3.940   0.142   9.681  0.3984 -0.0471 -0.0483
 3494SOL    HW114938   3.921   0.235   9.697 -0.3934 -0.1721 -0.2144
 3494SOL    HW214939   3.979   0.112   9.763 -1.0565 -0.0012  0.7096
 3495SOL     OW14940   7.449   8.546  10.813  0.1143 -0.1800 -0.2092
 3495SOL    HW114941   7.463   8.529  10.906  1.0590  1.1373 -0.0927
 3495SOL    HW214942   7.425   8.638  10.808  0.7549 -0.0482 -1.3221
 3496SOL     OW14943   1.339  10.081   4.027  0.2936 -0.4467  0.0283
 3496SOL    HW114944   1.264  10.022   4.035 -0.7463  0.7171 -0.7604
 3496SOL    HW214945   1.392  10.045   3.956  0.0153 -0.7882 -0.0013
 3497SOL     OW14946   0.798   2.579   6.533 -0.2039 -0.4801 -0.2033
 3497SOL    HW114947   0.836   2.493   6.554  0.8005  0.3673  1.7465
 3497SOL    HW214948   0.705   2.561   6.522 -0.3851 -1.5733  2.3390
 3498SOL     OW14949   0.951   9.247  10.523 -0.4857 -0.2074  0.2056
 3498SOL    HW114950   0.894   9.170  10.523  0.4804 -0.9445  0.9090
 3498SOL    HW214951   1.012   9.232  10.596  0.4030  0.7149 -0.3223
 3499SOL     OW14952   0.789   1.457   3.502  0.2956 -0.5201 -0.5468
 3499SOL    HW114953   0.835   1.398   3.442  1.1295 -0.0663 -0.3711
 3499SOL    HW214954   0.779   1.539   3.454 -0.1834 -0.5627 -0.5230
 3500SOL     OW14955   0.103   0.424   4.733 -0.7918 -0.2406 -0.5221
 3500SOL    HW114956   0.022   0.420   4.784 -0.9648  0.1133 -0.7609
 3500SOL    HW214957   0.148   0.502   4.766 -0.3653 -0.6497 -0.1278
 3501SOL     OW14958   6.556   4.737   2.555 -0.1570 -0.1813 -1.1024
 3501SOL    HW114959   6.508   4.818   2.541 -0.8913 -0.8450 -2.6675
 3501SOL    HW214960   6.560   4.728   2.650 -1.6581  0.7674 -0.9128
 3502SOL     OW14961  10.750   3.249   0.838 -0.7337 -0.0940 -0.1879
 3502SOL    HW114962  10.689   3.285   0.902 -0.0643 -3.3427  2.5412
 3502SOL    HW214963  10.729   3.156   0.834  1.8503 -0.7198 -1.6681
 3503SOL     OW14964   3.369  10.596   7.661  0.1170 -0.0162  0.1470
 3503SOL    HW114965   3.337  10.613   7.573  0.7707 -1.5755 -0.4180
 3503SOL    HW214966   3.301  10.543   7.702 -1.0392  2.1939  1.2574
 3504SOL     OW14967   9.216   1.663   6.898 -0.1448  0.0122  0.4087
 3504SOL    HW114968   9.310   1.649   6.905 -0.1409  0.0981  0.5499
 3504SOL    HW214969   9.187   1.672   6.989 -0.2577  0.1863  0.3558
 3505SOL     OW14970   9.107  10.405   9.227  0.3678 -0.4522 -1.0677
 3505SOL    HW114971   9.181  10.457   9.195  0.8593 -0.5293 -0.0883
 3505SOL    HW214972   9.144  10.319   9.244  1.0792  0.4878  3.1766
 3506SOL     OW14973   8.523   5.300   1.437  0.2626 -0.3845 -0.0336
 3506SOL    HW114974   8.589   5.368   1.451  0.2015 -0.8828  3.6724
 3506SOL    HW214975   8.440   5.345   1.446  0.2106 -0.8656  3.3139
 3507SOL     OW14976  10.241   4.424   0.423  0.4214  0.4356  0.1999
 3507SOL    HW114977  10.306   4.460   0.483 -1.7998 -0.8488  3.6656
 3507SOL    HW214978  10.163   4.477   0.438  0.0430  0.7840 -2.5177
 3508SOL     OW14979   1.155   3.051   4.190  0.2723 -0.8451 -0.6096
 3508SOL    HW114980   1.126   3.095   4.111 -1.5274 -1.1821 -0.1800
 3508SOL    HW214981   1.225   3.106   4.224 -2.3901  2.2477  0.3613
 3509SOL     OW14982   9.395   9.544  10.308 -0.1699 -0.0603  0.7471
 3509SOL    HW114983   9.394   9.463  10.360 -2.6639 -0.0906  0.7594
 3509SOL    HW214984   9.359   9.518  10.223 -0.3248  0.8934  0.5096
 3510SOL     OW14985   2.296   1.118   7.347 -0.5491 -0.1960 -0.0436
 3510SOL    HW114986   2.357   1.051   7.377 -0.0099  0.1298 -0.3850
 3510SOL    HW214987   2.307   1.120   7.252 -0.4467  0.4700 -0.0261
 3511SOL     OW14988   3.051   8.067   3.195  0.0148  0.4429  0.1307
 3511SOL    HW114989   3.043   8.027   3.108 -0.1222 -2.4616  1.3542
 3511SOL    HW214990   3.136   8.110   3.194 -0.5891  1.7274 -1.8615
 3512SOL     OW14991   1.281   7.015   7.262 -0.7371 -0.2774 -0.0954
 3512SOL    HW114992   1.352   7.040   7.321 -1.2488  1.4790 -0.1736
 3512SOL    HW214993   1.274   6.920   7.272 -0.6957 -0.0633  2.5653
 3513SOL     OW14994   8.713   8.176   1.447 -0.1928  0.1111  0.4105
 3513SOL    HW114995   8.629   8.149   1.411  0.0804 -0.4613  0.1850
 3513SOL    HW214996   8.758   8.094   1.467 -0.0170  0.4153  1.3127
 3514SOL     OW14997   3.249   2.836   6.681 -0.0287 -0.3858  0.5882
 3514SOL    HW114998   3.237   2.931   6.688  1.2798 -0.2701  1.6289
 3514SOL    HW214999   3.200   2.801   6.755 -0.1099 -0.4823  0.4882
 3515SOL     OW15000   0.937   7.909   0.803  0.2841 -0.3332  0.1496
 3515SOL    HW115001   1.021   7.891   0.845 -0.4331  0.1171  1.9043
 3515SOL    HW215002   0.889   7.826   0.809  0.2140 -0.2926  0.1569
 3516SOL     OW15003   9.980  10.450   9.592 -0.5582  0.4388  0.3323
 3516SOL    HW115004   9.980  10.363   9.551 -0.1896 -0.1714  1.5807
 3516SOL    HW215005  10.060  10.451   9.645 -0.8342  1.3469  0.7477
 3517SOL     OW15006  10.541   7.636   3.357 -0.0075 -0.1538 -0.2830
 3517SOL    HW115007  10.620   7.648   3.409  0.3868  0.3370 -0.9801
 3517SOL    HW215008  10.516   7.725   3.331 -0.1493 -0.4034 -1.0045
 3518SOL     OW15009   5.755   7.679   3.959 -0.2662 -0.0513  0.0003
 3518SOL    HW115010   5.786   7.656   3.872  0.1251 -0.0108  0.1310
 3518SOL    HW215011   5.724   7.596   3.996  2.8343 -0.8114  1.1841
 3519SOL     OW15012   7.921   7.531   9.693 -0.3185  0.2582  0.0015
 3519SOL    HW115013   7.862   7.554   9.621 -1.4711  0.2187  0.9153
 3519SOL    HW215014   7.897   7.590   9.764  2.2203  1.7725 -0.2512
 3520SOL     OW15015   2.963   9.980   6.292  0.3426 -0.5591  0.3444
 3520SOL    HW115016   3.024   9.983   6.366  0.4137  0.1838  0.2592
 3520SOL    HW215017   3.012  10.014   6.218 -0.2600  0.3764  0.3506
 3521SOL     OW15018   0.276   2.783   0.740  0.1944  0.2053 -0.0642
 3521SOL    HW115019   0.310   2.730   0.812  0.2234  0.6140  0.2288
 3521SOL    HW215020   0.351   2.794   0.681  0.4690  0.7773  0.3860
 3522SOL     OW15021   8.492   1.286   5.294 -0.5216  0.8050 -0.3807
 3522SOL    HW115022   8.535   1.309   5.212 -0.8580 -1.4987 -1.2830
 3522SOL    HW215023   8.399   1.283   5.273 -0.6066  0.1707  0.0463
 3523SOL     OW15024   3.319   2.003   8.898  0.3034  0.1273 -0.2978
 3523SOL    HW115025   3.261   2.070   8.861 -0.7807 -0.7775 -0.2818
 3523SOL    HW215026   3.267   1.923   8.898  2.5873 -1.5712 -3.2923
 3524SOL     OW15027   2.973   3.891   4.886  0.2213 -0.4110 -0.0765
 3524SOL    HW115028   3.028   3.847   4.951 -0.9059  0.1081  1.2777
 3524SOL    HW215029   3.032   3.909   4.813  2.1892  1.2086  1.8003
 3525SOL     OW15030  10.951   6.423   0.585  0.1288  0.2972 -0.0268
 3525SOL    HW115031  10.962   6.396   0.676  0.5051  0.4628 -0.0222
 3525SOL    HW215032  10.906   6.350   0.543 -0.2073  0.2950  0.3332
 3526SOL     OW15033   2.511   0.547   9.367  0.0096 -0.1209 -0.2164
 3526SOL    HW115034   2.535   0.454   9.371 -1.1078 -0.4338 -0.3448
 3526SOL    HW215035   2.515   0.576   9.458  1.7151  0.0890 -0.3275
 3527SOL     OW15036   9.077   6.579   6.377  0.5944  0.2442 -0.1766
 3527SOL    HW115037   9.134   6.654   6.363  0.5743  0.3107  0.0833
 3527SOL    HW215038   9.060   6.579   6.472 -1.0176  1.0709 -0.4314
 3528SOL     OW15039   4.289   2.255   0.295  0.3269  0.0198 -0.2900
 3528SOL    HW115040   4.308   2.180   0.351  1.5665 -0.8446 -1.7843
 3528SOL    HW215041   4.194   2.256   0.288  0.2608 -1.0863  0.2124
 3529SOL     OW15042   0.775   1.409   1.418 -0.0265  0.3223  0.1169
 3529SOL    HW115043   0.770   1.493   1.463 -0.6898  0.6707 -0.5925
 3529SOL    HW215044   0.867   1.400   1.394  0.0031  0.9570 -0.0195
 3530SOL     OW15045   3.161   0.478   1.742  0.2698 -0.0484  0.1776
 3530SOL    HW115046   3.081   0.507   1.699 -0.8489 -1.5007  1.2043
 3530SOL    HW215047   3.208   0.430   1.674  0.4550  1.0651 -0.5157
 3531SOL     OW15048   2.787   8.630   5.434  0.3435 -0.2401  0.0288
 3531SOL    HW115049   2.864   8.670   5.475 -0.4146  1.0655  0.2275
 3531SOL    HW215050   2.713   8.673   5.476 -0.5316 -1.9002  0.2706
 3532SOL     OW15051   7.465   8.550   4.150  0.1030  0.5207 -0.0582
 3532SOL    HW115052   7.460   8.631   4.099  2.5244  1.5874  1.2350
 3532SOL    HW215053   7.547   8.557   4.199 -0.6664 -1.7639  1.7538
 3533SOL     OW15054   0.676   3.321   0.068 -0.1437  0.3573  0.0534
 3533SOL    HW115055   0.645   3.320  -0.022 -2.0032  0.1505  0.6545
 3533SOL    HW215056   0.764   3.359   0.063 -0.8943  2.0347 -1.6174
 3534SOL     OW15057   2.994   7.217   4.657  0.5624 -0.1671 -0.2481
 3534SOL    HW115058   2.947   7.273   4.718  1.5820  0.5718 -0.1161
 3534SOL    HW215059   3.043   7.156   4.712  0.9026  0.0233 -0.3312
 3535SOL     OW15060   7.631   6.422  10.436 -0.0796  0.2964  0.4998
 3535SOL    HW115061   7.633   6.423  10.531  1.1447 -0.4402  0.5069
 3535SOL    HW215062   7.721   6.402  10.410 -1.0566 -3.5337 -0.6953
 3536SOL     OW15063   5.745  10.680  10.394  0.2166 -0.4414 -0.2553
 3536SOL    HW115064   5.691  10.607  10.425  0.9954 -0.4726  1.1134
 3536SOL    HW215065   5.835  10.648  10.401  0.4601 -0.2747 -2.2104
 3537SOL     OW15066   4.557   2.889   5.532 -0.2276  0.2416  0.0012
 3537SOL    HW115067   4.570   2.839   5.452  0.5959  0.1110  0.2093
 3537SOL    HW215068   4.483   2.947   5.513 -0.8699 -0.6962 -0.4048
 3538SOL     OW15069   3.131   3.791   2.212  0.6491  0.0262  1.5556
 3538SOL    HW115070   3.035   3.787   2.205  0.7126 -2.0038  0.9894
 3538SOL    HW215071   3.150   3.882   2.232 -1.6479 -0.1734  5.7814
 3539SOL     OW15072   8.841   4.874   5.707  0.2455  0.1620  0.1873
 3539SOL    HW115073   8.844   4.815   5.782 -1.4040  1.7623  1.5914
 3539SOL    HW215074   8.867   4.960   5.742  3.4247  0.2625 -1.9610
 3540SOL     OW15075   6.108   6.463   6.930 -0.1046  0.5878 -0.3879
 3540SOL    HW115076   6.073   6.430   7.013 -0.8196 -0.5228 -1.1173
 3540SOL    HW215077   6.126   6.556   6.947 -0.5157  0.4479  0.9175
 3541SOL     OW15078   3.703   1.493   8.277 -0.0932  0.3242 -0.4062
 3541SOL    HW115079   3.764   1.432   8.236 -0.4962 -0.0286 -0.4916
 3541SOL    HW215080   3.750   1.576   8.281  0.8448 -0.2309  0.6210
 3542SOL     OW15081  10.283   3.768   1.405  0.1182 -0.4484  0.4715
 3542SOL    HW115082  10.357   3.803   1.355 -0.1990  0.2842  0.5006
 3542SOL    HW215083  10.317   3.759   1.494  0.4598 -1.0423  0.2862
 3543SOL     OW15084   6.836   1.639   9.494  0.7433 -0.0759  0.3088
 3543SOL    HW115085   6.880   1.719   9.464  1.0503  1.0793  3.3809
 3543SOL    HW215086   6.861   1.572   9.431  3.5763  1.4413 -0.3524
 3544SOL     OW15087   8.086   1.884   3.675  0.2008 -0.0753 -0.0677
 3544SOL    HW115088   8.167   1.934   3.679  1.8139 -2.4629 -0.5536
 3544SOL    HW215089   8.110   1.797   3.707 -2.0036 -1.0805 -0.9053
 3545SOL     OW15090   4.506   1.299   4.725  0.1980  0.5090  0.1363
 3545SOL    HW115091   4.555   1.218   4.738  0.0106  0.0625 -1.6604
 3545SOL    HW215092   4.573   1.368   4.727  0.9591 -0.0732 -2.0671
 3546SOL     OW15093   7.951   9.693   8.727  0.1106 -0.6565 -0.3640
 3546SOL    HW115094   8.038   9.694   8.766  0.6866 -0.5786 -1.5931
 3546SOL    HW215095   7.921   9.603   8.737  0.5303 -0.7973 -0.3547
 3547SOL     OW15096   9.210   7.276   4.408  0.2443  0.4727  0.3194
 3547SOL    HW115097   9.171   7.191   4.427  1.5159 -0.5685 -1.4513
 3547SOL    HW215098   9.289   7.279   4.463 -0.3235  0.9855  1.1367
 3548SOL     OW15099   7.443  10.603  10.906  0.1265 -0.1622 -0.0165
 3548SOL    HW115100   7.528  10.615  10.864  0.7270 -2.0122  0.5736
 3548SOL    HW215101   7.383  10.585  10.834  0.2740  0.8623 -0.4107
 3549SOL     OW15102   6.189  10.449   9.907  0.6258  0.5282 -0.7349
 3549SOL    HW115103   6.203  10.354   9.897  1.0454  0.6065 -0.9072
 3549SOL    HW215104   6.277  10.486   9.910  0.4974  0.7826  0.6562
 3550SOL     OW15105   0.092   2.019   8.179  0.5259  1.2803 -0.5075
 3550SOL    HW115106   0.102   2.085   8.249  1.6418  0.8553 -0.2406
 3550SOL    HW215107   0.172   2.027   8.127  0.3333  0.6351 -0.9133
 3551SOL     OW15108  11.064   0.023   3.380  0.0111 -0.4695 -0.6799
 3551SOL    HW115109  11.001   0.026   3.453  0.1197 -0.2221 -0.5987
 3551SOL    HW215110  11.147   0.001   3.422 -0.1122 -1.3252 -0.8463
 3552SOL     OW15111   5.107   5.859   5.536 -0.0391  0.1709  0.1981
 3552SOL    HW115112   5.161   5.937   5.535 -0.7783  0.6939 -0.3369
 3552SOL    HW215113   5.023   5.888   5.572  0.0564 -0.6542  1.1631
 3553SOL     OW15114   7.179  10.073  10.559 -0.1756 -0.5609 -0.3668
 3553SOL    HW115115   7.265  10.076  10.517 -0.4224 -0.3106 -0.8673
 3553SOL    HW215116   7.130  10.145  10.518 -0.8850 -1.2007 -0.6796
 3554SOL     OW15117   2.186   4.109   5.354 -0.6293 -0.2779 -0.3304
 3554SOL    HW115118   2.203   4.016   5.364 -0.6077 -0.3155 -0.7022
 3554SOL    HW215119   2.111   4.113   5.293 -1.1663 -0.0809  0.3329
 3555SOL     OW15120   6.486   9.821   1.105 -0.0786  0.4358 -0.0118
 3555SOL    HW115121   6.532   9.899   1.135  0.2179  0.1328  0.3306
 3555SOL    HW215122   6.405   9.820   1.157  0.4177 -0.0689  0.7631
 3556SOL     OW15123   4.169   0.035   8.480 -0.8269  0.3214 -0.1683
 3556SOL    HW115124   4.191  -0.020   8.555 -1.1297 -1.9350 -1.6509
 3556SOL    HW215125   4.225   0.003   8.410 -0.3789  2.5346 -0.9091
 3557SOL     OW15126   3.243   5.206   7.836 -0.0804 -0.3311  0.9854
 3557SOL    HW115127   3.181   5.137   7.860  0.5814 -0.6839  1.7002
 3557SOL    HW215128   3.329   5.164   7.841  0.2158  0.0917 -0.2041
 3558SOL     OW15129   0.100   7.033   9.494 -0.4743 -0.3515  0.5020
 3558SOL    HW115130   0.080   7.005   9.405  0.5903  2.4793 -0.7603
 3558SOL    HW215131   0.170   6.975   9.523  1.3382  0.5399 -1.7872
 3559SOL     OW15132   7.429   5.147   1.166 -0.3324 -0.2744 -0.1426
 3559SOL    HW115133   7.342   5.187   1.161 -0.0033  0.2882 -1.7103
 3559SOL    HW215134   7.418   5.060   1.126 -0.5266 -0.8840  1.1786
 3560SOL     OW15135   7.988   6.460  10.622  0.2384 -0.3112 -0.0852
 3560SOL    HW115136   7.943   6.540  10.648  0.8351  0.9073 -2.5193
 3560SOL    HW215137   8.079   6.487  10.609  0.4848 -1.4119 -0.7814
 3561SOL     OW15138  10.023   6.777   4.264 -0.5274  0.7222  0.7452
 3561SOL    HW115139  10.011   6.699   4.211  0.2642  0.9723  0.1872
 3561SOL    HW215140  10.001   6.749   4.353 -1.1610  0.1162  0.4024
 3562SOL     OW15141  10.821   2.504   0.743 -0.3979 -0.5151  0.2987
 3562SOL    HW115142  10.807   2.558   0.666  0.5369 -0.7996 -0.0887
 3562SOL    HW215143  10.843   2.417   0.709  0.7982 -0.4529  0.8367
 3563SOL     OW15144   8.526   6.026   1.649 -0.4458  0.1494  0.2160
 3563SOL    HW115145   8.536   5.984   1.564 -1.6849  1.2040 -0.4809
 3563SOL    HW215146   8.454   5.979   1.691 -0.5457  0.3325  0.2475
 3564SOL     OW15147   5.172   0.588   3.432  0.0848  0.3832  0.0018
 3564SOL    HW115148   5.264   0.564   3.435  0.4289  1.6988  0.7832
 3564SOL    HW215149   5.155   0.606   3.339  0.6340  0.2365 -0.1277
 3565SOL     OW15150  11.063   1.752  10.487  0.1567  0.6231  0.6121
 3565SOL    HW115151  11.076   1.673  10.539 -2.1114  1.0956  2.0068
 3565SOL    HW215152  11.070   1.723  10.396  2.4423 -0.5503  1.0929
 3566SOL     OW15153   4.249   5.262   8.091 -0.0444 -0.2501 -0.2402
 3566SOL    HW115154   4.209   5.217   8.165 -0.6348 -1.2118 -1.1199
 3566SOL    HW215155   4.303   5.331   8.131  1.3226 -2.0587  1.1993
 3567SOL     OW15156   6.135   8.234   4.216 -0.0990  0.1091 -0.0987
 3567SOL    HW115157   6.165   8.243   4.126 -1.3281  0.9498 -0.4505
 3567SOL    HW215158   6.152   8.320   4.256 -0.2048 -0.0346  0.2668
 3568SOL     OW15159   4.062   8.180   7.464 -0.1833  0.1519  0.0800
 3568SOL    HW115160   4.096   8.100   7.504 -0.3243 -0.0837 -0.2682
 3568SOL    HW215161   4.083   8.249   7.527 -0.2151 -0.1842  0.4593
 3569SOL     OW15162   4.466   0.412   4.885 -0.3857 -0.6850  0.3511
 3569SOL    HW115163   4.480   0.382   4.795 -1.5320  0.4160 -0.2074
 3569SOL    HW215164   4.481   0.333   4.938  3.6700 -0.6752 -0.4345
 3570SOL     OW15165   6.311   5.491   5.170 -0.4636  0.5322 -0.2092
 3570SOL    HW115166   6.299   5.582   5.144  2.4537  0.8023 -0.9778
 3570SOL    HW215167   6.374   5.456   5.107  1.2611 -0.9544  2.1743
 3571SOL     OW15168   0.492  10.780   1.013  0.1568 -0.3959 -0.0838
 3571SOL    HW115169   0.534  10.772   0.927 -0.4825 -1.7613 -0.2962
 3571SOL    HW215170   0.403  10.807   0.994  0.8629  2.7614  0.3797
 3572SOL     OW15171   1.452  10.437   4.013 -0.3853 -0.3157  0.2353
 3572SOL    HW115172   1.441  10.526   4.047  0.2586 -0.3277  0.4734
 3572SOL    HW215173   1.362  10.403   4.007 -0.7723  0.8819 -1.3053
 3573SOL     OW15174   8.179   5.953   0.338 -0.3491 -0.0831  0.4553
 3573SOL    HW115175   8.147   5.897   0.409 -1.0741  0.2636  0.3996
 3573SOL    HW215176   8.147   5.912   0.258 -1.3356  0.6850  0.4369
 3574SOL     OW15177   2.321   6.582   2.778 -0.0107  0.0072  0.2491
 3574SOL    HW115178   2.315   6.506   2.836  1.2618 -1.3558 -1.3115
 3574SOL    HW215179   2.234   6.590   2.739 -0.5581  0.2582  1.4802
 3575SOL     OW15180   2.947   8.832   3.534 -0.0645 -0.3045  0.9140
 3575SOL    HW115181   2.853   8.828   3.554 -0.1051 -2.2645  0.5844
 3575SOL    HW215182   2.963   8.754   3.480  1.2975  1.3268 -1.1883
 3576SOL     OW15183   2.900   8.822   8.626  0.6628 -0.0918  0.0297
 3576SOL    HW115184   2.963   8.759   8.659 -0.3376 -0.3879  1.5115
 3576SOL    HW215185   2.829   8.820   8.691 -0.4612  0.8422 -1.1248
 3577SOL     OW15186   3.789   8.185   6.710 -0.3560 -0.1513  0.0843
 3577SOL    HW115187   3.746   8.199   6.626 -0.3640  1.2178  0.3070
 3577SOL    HW215188   3.875   8.150   6.686 -0.0832  0.8999 -0.5425
 3578SOL     OW15189   4.670   9.117   0.936  0.6318  0.3816 -0.2052
 3578SOL    HW115190   4.582   9.134   0.902  0.3288  1.9181  1.2333
 3578SOL    HW215191   4.728   9.156   0.871  0.1361  1.5195  0.0018
 3579SOL     OW15192  10.719   2.033   3.006 -0.2675 -0.3946 -0.3407
 3579SOL    HW115193  10.641   2.033   2.951 -0.2532  1.6227 -0.4428
 3579SOL    HW215194  10.792   2.051   2.946 -0.2380  1.6819  0.2344
 3580SOL     OW15195   9.016   8.304   6.970 -0.2153  0.4644 -0.1668
 3580SOL    HW115196   8.976   8.260   7.045  0.4171  1.2953  0.6756
 3580SOL    HW215197   9.110   8.306   6.991 -0.1865  1.8226 -0.3845
 3581SOL     OW15198   8.140   5.313  11.041  0.6639 -0.1444  0.1681
 3581SOL    HW115199   8.178   5.267  11.116  1.1946  2.9348  1.9725
 3581SOL    HW215200   8.082   5.379  11.080 -1.6032 -0.4800 -2.3141
 3582SOL     OW15201   9.139   2.191   0.737 -0.2288 -0.4214  0.1865
 3582SOL    HW115202   9.092   2.272   0.756 -0.2765 -0.4305  0.1075
 3582SOL    HW215203   9.073   2.133   0.701  0.1499  0.0701 -1.3512
 3583SOL     OW15204  10.754   0.815   0.050 -0.3408  0.3466 -0.4734
 3583SOL    HW115205  10.850   0.813   0.053 -0.3552  0.8217  1.7929
 3583SOL    HW215206  10.728   0.723   0.051  0.0831  0.2196 -0.8235
 3584SOL     OW15207   8.777   5.191   4.964  0.1855  0.4210  0.1223
 3584SOL    HW115208   8.799   5.249   4.891 -1.8536  0.2978 -0.6452
 3584SOL    HW215209   8.801   5.104   4.932 -1.1038  0.3120 -0.6229
 3585SOL     OW15210   2.112   4.845   8.285  0.8731  0.6336 -0.3951
 3585SOL    HW115211   2.129   4.878   8.373 -0.5244  0.3832 -0.0031
 3585SOL    HW215212   2.198   4.844   8.242  1.3598  2.0784  0.4933
 3586SOL     OW15213   3.563  10.399   3.057 -0.6150 -0.2793  0.1826
 3586SOL    HW115214   3.568  10.323   2.999  2.1613 -0.1226  0.0472
 3586SOL    HW215215   3.539  10.471   3.000 -0.6950 -0.6206 -0.2218
 3587SOL     OW15216   5.891   5.799   2.633 -0.0251  0.5239  0.5157
 3587SOL    HW115217   5.847   5.756   2.706 -2.5513  1.2283 -0.4758
 3587SOL    HW215218   5.887   5.735   2.561 -1.3627  1.3166 -0.1676
 3588SOL     OW15219  10.090  10.706   9.275  0.4093  0.1877 -0.0658
 3588SOL    HW115220   9.995  10.720   9.273  0.2695 -0.7018 -0.6744
 3588SOL    HW215221  10.100  10.612   9.257  1.4143  0.3194 -0.2513
 3589SOL     OW15222   1.610   9.992   2.440  0.0916 -0.3517 -0.2225
 3589SOL    HW115223   1.697  10.031   2.448  0.2274 -0.8569  1.1458
 3589SOL    HW215224   1.552  10.052   2.488 -0.3088 -0.0821 -1.0206
 3590SOL     OW15225   9.415   2.026   8.157 -0.0834  0.1271  0.7439
 3590SOL    HW115226   9.334   2.004   8.203 -0.3681  1.4810  0.9400
 3590SOL    HW215227   9.386   2.076   8.080  0.5790  1.3664  1.2666
 3591SOL     OW15228   1.232   3.324   4.958 -0.4887 -0.2115  0.2815
 3591SOL    HW115229   1.311   3.345   5.007 -1.3289  0.2297  1.4891
 3591SOL    HW215230   1.200   3.409   4.926 -0.8918 -0.2945  0.4557
 3592SOL     OW15231   9.518   4.145   7.858  0.0024  0.0060 -0.0676
 3592SOL    HW115232   9.596   4.134   7.912 -0.0981  0.3338  0.1457
 3592SOL    HW215233   9.504   4.240   7.854 -0.5878 -0.0651  0.1929
 3593SOL     OW15234   4.173  10.948   9.818 -0.5624  0.5598  0.1345
 3593SOL    HW115235   4.100  10.972   9.877  0.0910  1.1404  0.7281
 3593SOL    HW215236   4.219  11.030   9.803  1.7127 -0.2187  2.1566
 3594SOL     OW15237   3.429  10.821   7.835  0.0074 -0.5585  0.1520
 3594SOL    HW115238   3.386  10.739   7.811 -0.0388 -0.6188  0.4380
 3594SOL    HW215239   3.511  10.821   7.785 -0.6001 -0.1515 -0.8911
 3595SOL     OW15240   4.345   5.996   5.481 -0.0192 -0.1416 -0.1091
 3595SOL    HW115241   4.403   5.977   5.407 -0.8375 -0.2991 -0.7255
 3595SOL    HW215242   4.375   5.938   5.551  1.6099  0.9459  0.1289
 3596SOL     OW15243   7.998   5.217   2.974  0.3555  0.2315 -0.7863
 3596SOL    HW115244   8.082   5.195   2.933  0.9120  0.3983  0.2403
 3596SOL    HW215245   7.959   5.282   2.915  0.2123 -0.9958 -2.0968
 3597SOL     OW15246   5.064   3.610   2.245  0.5525  0.1961 -0.2790
 3597SOL    HW115247   5.040   3.529   2.201  2.9638 -2.4081  2.7469
 3597SOL    HW215248   5.156   3.623   2.226  0.7171  1.0717  0.9215
 3598SOL     OW15249   2.455  11.006   4.139  0.3000  0.1439  1.3049
 3598SOL    HW115250   2.400  10.986   4.215 -0.8689  1.0240  0.7234
 3598SOL    HW215251   2.396  11.050   4.078  0.8870 -1.6624 -0.6642
 3599SOL     OW15252   4.343   2.243  10.418 -0.2776 -0.0390 -0.3157
 3599SOL    HW115253   4.354   2.210  10.507  2.0374  1.2190 -0.0545
 3599SOL    HW215254   4.275   2.310  10.425 -1.1869 -0.9871  0.1789
 3600SOL     OW15255   9.606   6.165   2.440  0.4558 -0.1427  0.1744
 3600SOL    HW115256   9.541   6.200   2.379  1.5255 -0.0000 -0.9136
 3600SOL    HW215257   9.555   6.140   2.517 -1.3961 -2.9479 -1.7835
 3601SOL     OW15258   2.622   8.650   7.213 -0.2636  0.8010 -0.6574
 3601SOL    HW115259   2.697   8.630   7.157 -0.4969 -0.9895 -0.3702
 3601SOL    HW215260   2.561   8.697   7.156  0.7283  1.6192 -1.0912
 3602SOL     OW15261  10.253   0.850   8.054 -0.4388 -0.9376  0.1474
 3602SOL    HW115262  10.191   0.914   8.018 -0.2996 -1.3476 -0.8532
 3602SOL    HW215263  10.329   0.902   8.079  0.1808 -0.8228 -1.8160
 3603SOL     OW15264  10.439   4.776  10.846  0.4094 -0.4905 -0.6061
 3603SOL    HW115265  10.483   4.846  10.798  0.1531  0.0638 -0.0495
 3603SOL    HW215266  10.386   4.821  10.912  0.5934 -1.2229  0.0677
 3604SOL     OW15267   1.925   8.328  10.092  0.1361  0.5135  0.0864
 3604SOL    HW115268   1.885   8.279  10.020  1.2392 -0.9286  0.4081
 3604SOL    HW215269   1.852   8.372  10.136 -0.6487  0.7740 -1.4087
 3605SOL     OW15270   2.425   3.619   0.145  0.2182  0.3358  0.8123
 3605SOL    HW115271   2.366   3.669   0.202  0.6298  0.6039  1.0114
 3605SOL    HW215272   2.460   3.550   0.202 -0.5794 -0.3728  0.4580
 3606SOL     OW15273   3.843   6.623   8.013 -0.1934 -0.9581 -0.1960
 3606SOL    HW115274   3.855   6.577   7.931 -1.6846 -2.9653  0.6329
 3606SOL    HW215275   3.881   6.566   8.079 -0.1379  0.0390  0.6617
 3607SOL     OW15276   7.056   0.451   3.298  0.4209 -0.8208 -0.2159
 3607SOL    HW115277   6.996   0.525   3.292 -0.7914 -1.7559 -0.0311
 3607SOL    HW215278   7.102   0.465   3.381  2.0619  1.0185 -1.3319
 3608SOL     OW15279   2.052   2.569   2.838  0.1455  0.4247  0.2455
 3608SOL    HW115280   2.026   2.482   2.809 -0.5194  1.1179 -1.3655
 3608SOL    HW215281   1.982   2.597   2.897  0.4828 -0.2015  0.9615
 3609SOL     OW15282  10.182   8.114   0.516  0.1001  0.8879  0.0335
 3609SOL    HW115283  10.259   8.140   0.568  0.6461 -2.9380  1.4792
 3609SOL    HW215284  10.108   8.129   0.574  0.6357 -2.5549  1.8791
 3610SOL     OW15285   8.852   3.353   3.976 -0.1414  0.1445 -0.4111
 3610SOL    HW115286   8.774   3.328   4.026  0.4036  1.6337  1.2791
 3610SOL    HW215287   8.926   3.326   4.030  0.4879  0.8537 -0.8914
 3611SOL     OW15288   4.216   8.891   9.325 -0.1701  0.4008  0.7150
 3611SOL    HW115289   4.278   8.920   9.258 -0.1714 -0.8067  0.1621
 3611SOL    HW215290   4.243   8.937   9.404  0.7740  0.6916  0.2431
 3612SOL     OW15291   7.461   4.886   7.062 -0.1644  0.1382 -0.5927
 3612SOL    HW115292   7.535   4.883   7.001  0.0272 -1.3765 -0.3350
 3612SOL    HW215293   7.450   4.979   7.082  0.8249  0.5100 -1.6500
 3613SOL     OW15294   4.682   3.570   5.625  0.0359 -0.2548 -0.7797
 3613SOL    HW115295   4.622   3.497   5.645  0.3071 -0.5156 -0.9095
 3613SOL    HW215296   4.762   3.527   5.594 -0.2954  0.1141 -2.2465
 3614SOL     OW15297   4.574   4.259   2.537  0.5534 -0.1059 -0.4746
 3614SOL    HW115298   4.589   4.230   2.627 -0.8006 -0.4097 -0.3253
 3614SOL    HW215299   4.595   4.353   2.539  1.9861 -0.4062 -0.2258
 3615SOL     OW15300   4.755   2.909   6.224 -0.2183  0.4838 -0.3601
 3615SOL    HW115301   4.839   2.869   6.247 -0.5696  0.9178  1.8796
 3615SOL    HW215302   4.689   2.846   6.252 -0.7028  0.2751 -1.8465
 3616SOL     OW15303   3.149   2.950   5.566 -0.3845 -0.5841  0.1054
 3616SOL    HW115304   3.115   2.870   5.606  0.0676 -0.5800  0.5113
 3616SOL    HW215305   3.099   3.021   5.607 -1.7422 -0.7207 -1.2448
 3617SOL     OW15306   4.182   0.637   0.153  0.1042  0.5867  0.3051
 3617SOL    HW115307   4.181   0.721   0.199 -2.2849  0.1369  1.1749
 3617SOL    HW215308   4.250   0.587   0.199 -0.6418  0.9454  1.8879
 3618SOL     OW15309   4.316  10.570   7.989  0.2224 -0.0086  0.2580
 3618SOL    HW115310   4.252  10.601   7.925  1.0116  0.4319 -0.3510
 3618SOL    HW215311   4.277  10.587   8.074 -0.3960  0.3955 -0.1032
 3619SOL     OW15312   0.357   0.705   6.947  0.0670  0.0227  0.7511
 3619SOL    HW115313   0.297   0.641   6.985 -0.8310  1.3400  1.6510
 3619SOL    HW215314   0.417   0.727   7.019  0.7585 -0.2293  0.2681
 3620SOL     OW15315   1.343   9.438   4.620 -0.6546 -0.1549  0.4627
 3620SOL    HW115316   1.322   9.501   4.550  0.5849 -1.8972 -1.6081
 3620SOL    HW215317   1.276   9.371   4.611  0.5875 -1.3328 -0.3685
 3621SOL     OW15318   9.381   5.447   5.979 -0.3461 -0.0077 -0.4254
 3621SOL    HW115319   9.345   5.534   5.960 -0.3625  0.1188  0.1510
 3621SOL    HW215320   9.470   5.450   5.944 -1.1624 -0.6486 -2.7242
 3622SOL     OW15321   0.198  10.826   2.998 -0.5715 -0.3986  0.4728
 3622SOL    HW115322   0.109  10.846   2.969 -0.5741 -0.4897  0.4160
 3622SOL    HW215323   0.250  10.902   2.972 -0.0976 -1.4736 -1.9862
 3623SOL     OW15324   1.660   2.330   1.720 -0.6183 -0.4426  0.5219
 3623SOL    HW115325   1.632   2.421   1.708  1.0519  0.2514  1.4509
 3623SOL    HW215326   1.671   2.296   1.631 -0.3198  0.5974  0.1464
 3624SOL     OW15327   8.855   2.585   6.641  0.0088 -0.1962 -0.4755
 3624SOL    HW115328   8.919   2.544   6.584  0.6590 -0.1935  0.2396
 3624SOL    HW215329   8.907   2.628   6.709 -0.7050  0.6671 -0.4472
 3625SOL     OW15330   4.637   7.927   6.314 -0.0055  0.1194 -0.0709
 3625SOL    HW115331   4.629   7.948   6.221 -0.9071 -1.0268 -0.2846
 3625SOL    HW215332   4.730   7.907   6.326 -0.0723 -0.8300 -0.9969
 3626SOL     OW15333   9.352   5.928   8.910 -0.5261  0.4910 -0.0574
 3626SOL    HW115334   9.280   5.934   8.972 -3.2860 -1.2930 -2.7773
 3626SOL    HW215335   9.357   6.015   8.871 -1.7839  0.4448 -0.3608
 3627SOL     OW15336   1.834   1.293   7.250 -0.2169  0.0742 -0.4082
 3627SOL    HW115337   1.916   1.310   7.296 -1.6659  0.0998  2.3257
 3627SOL    HW215338   1.772   1.356   7.287 -1.7122 -0.5421 -1.7654
 3628SOL     OW15339   5.190   3.520  10.286  0.3973 -0.4878  0.0284
 3628SOL    HW115340   5.148   3.546  10.205 -0.7729 -0.8536  0.4898
 3628SOL    HW215341   5.216   3.429  10.272 -0.5074 -0.8019  0.3148
 3629SOL     OW15342   3.673   1.374   5.621  0.2043 -0.0351  0.1773
 3629SOL    HW115343   3.665   1.285   5.655 -0.0436 -0.4627 -0.9297
 3629SOL    HW215344   3.642   1.430   5.692  1.5417 -0.7256  1.3576
 3630SOL     OW15345   8.884   9.383   2.630  0.5083 -0.2611  0.3393
 3630SOL    HW115346   8.811   9.371   2.569  0.9727  0.1530 -0.3068
 3630SOL    HW215347   8.901   9.296   2.665  0.1671 -0.4829 -0.0404
 3631SOL     OW15348   8.493   1.097  10.197 -0.0620 -0.0343 -0.0464
 3631SOL    HW115349   8.457   1.067  10.113 -0.3677 -2.3930  0.8640
 3631SOL    HW215350   8.437   1.172  10.221 -0.6280  0.0254 -1.4259
 3632SOL     OW15351   1.415   6.275   2.571 -0.7686  0.0613 -0.0678
 3632SOL    HW115352   1.509   6.254   2.567 -1.1399 -1.5295 -1.8427
 3632SOL    HW215353   1.408   6.363   2.533 -0.0617 -0.0457 -0.4570
 3633SOL     OW15354   7.019  10.175   0.973 -0.3278 -0.2654 -0.2933
 3633SOL    HW115355   6.986  10.137   1.054  1.3223 -0.7220  0.2151
 3633SOL    HW215356   6.989  10.115   0.904 -1.3335 -0.1364  0.0200
 3634SOL     OW15357   0.593  10.010  10.222  0.2895  0.1492 -0.2882
 3634SOL    HW115358   0.515   9.967  10.256  0.0426  0.5766 -0.3074
 3634SOL    HW215359   0.635   9.944  10.167 -0.3603  0.0971 -0.7360
 3635SOL     OW15360   7.716   0.752   8.318  0.4694  0.3400  0.1037
 3635SOL    HW115361   7.683   0.684   8.376 -0.8218  0.3625 -0.5833
 3635SOL    HW215362   7.761   0.705   8.248  1.4674  0.2909  0.7602
 3636SOL     OW15363  10.331   7.957   8.950  0.2301  0.3486 -0.2692
 3636SOL    HW115364  10.368   8.036   8.991  0.5273 -0.4031  0.9442
 3636SOL    HW215365  10.382   7.885   8.987 -0.2440 -0.4446 -1.1358
 3637SOL     OW15366   1.482   9.875   6.397  0.2756  0.4863 -0.3172
 3637SOL    HW115367   1.444   9.852   6.482 -0.1190 -1.4130 -0.9729
 3637SOL    HW215368   1.577   9.879   6.414  0.2053  0.0814  0.2056
 3638SOL     OW15369   3.146   4.364   0.630  0.7301  0.4011  0.3265
 3638SOL    HW115370   3.196   4.390   0.707 -0.0295 -0.0853  0.9953
 3638SOL    HW215371   3.116   4.446   0.591  0.9148  0.6401  0.6897
 3639SOL     OW15372   1.756   2.734   4.353 -0.5603  0.5672  0.4227
 3639SOL    HW115373   1.806   2.795   4.299 -0.6153  1.5747  1.4772
 3639SOL    HW215374   1.805   2.730   4.436 -0.8031 -0.4877  0.5350
 3640SOL     OW15375   3.500   0.441  10.913 -0.3522  0.3892 -0.1862
 3640SOL    HW115376   3.449   0.512  10.875 -0.7818  0.4237  0.4413
 3640SOL    HW215377   3.463   0.428  11.001  0.1327 -0.1828 -0.0542
 3641SOL     OW15378   1.263   8.056   3.840  0.0846  0.2724  0.0312
 3641SOL    HW115379   1.347   8.101   3.836  0.1082  0.3656  1.2357
 3641SOL    HW215380   1.258   8.007   3.758  1.5577 -0.1577  0.1693
 3642SOL     OW15381   1.941   1.540   6.496 -0.1425 -0.4131  0.4631
 3642SOL    HW115382   1.971   1.623   6.460 -0.6498  0.7423  2.5606
 3642SOL    HW215383   1.899   1.496   6.422  1.2356  0.6130 -1.0021
 3643SOL     OW15384   0.763   0.196   9.490  0.2121 -0.0893  0.0903
 3643SOL    HW115385   0.813   0.270   9.525  1.2395 -0.7352  0.0336
 3643SOL    HW215386   0.828   0.141   9.446 -0.8836  0.2184 -2.0554
 3644SOL     OW15387   5.418   9.374   0.843 -0.5809 -0.0005 -0.0955
 3644SOL    HW115388   5.351   9.307   0.827 -0.9150  0.5660 -1.1509
 3644SOL    HW215389   5.433   9.414   0.758  1.8020 -0.7337 -0.0927
 3645SOL     OW15390   4.153   3.313   3.675  0.3698 -0.1321  0.5163
 3645SOL    HW115391   4.059   3.328   3.665  0.3984 -1.3178 -2.2078
 3645SOL    HW215392   4.192   3.399   3.664 -0.3588  0.3593  1.5884
 3646SOL     OW15393   7.605   1.467   0.198 -0.1306  0.0161  0.2367
 3646SOL    HW115394   7.564   1.397   0.147  0.8011 -0.3560 -0.0073
 3646SOL    HW215395   7.545   1.541   0.189 -0.8610 -0.5783  0.0634
 3647SOL     OW15396   0.504   7.451   3.710 -0.3958 -0.1377  0.1388
 3647SOL    HW115397   0.455   7.397   3.772 -1.5062  0.2994 -0.3187
 3647SOL    HW215398   0.436   7.492   3.655  0.5217 -0.1184 -1.0344
 3648SOL     OW15399   4.049   1.498   7.308  0.0401 -0.4263 -0.1037
 3648SOL    HW115400   4.129   1.546   7.285  0.2808 -0.5529  0.4423
 3648SOL    HW215401   4.026   1.450   7.229 -0.3008  0.7025 -0.7246
 3649SOL     OW15402  10.354   7.377   4.813  0.4550  0.5302  0.0334
 3649SOL    HW115403  10.356   7.463   4.771  0.6205  0.2400 -0.5639
 3649SOL    HW215404  10.441   7.339   4.795 -0.1306 -0.3678 -1.0153
 3650SOL     OW15405   4.542   1.022  10.706 -0.1943 -0.2371  0.1879
 3650SOL    HW115406   4.553   1.049  10.797 -0.1040 -1.9559  0.7241
 3650SOL    HW215407   4.625   1.047  10.664  0.0434 -0.0745  0.7428
 3651SOL     OW15408   7.954   6.061   4.574  0.0589  0.1115 -0.0267
 3651SOL    HW115409   8.005   6.123   4.627 -2.0872  3.0531 -1.1898
 3651SOL    HW215410   8.020   6.004   4.535  2.0785  0.9678  1.9003
 3652SOL     OW15411   6.479   0.556  10.555  0.1195  0.2594 -0.3201
 3652SOL    HW115412   6.544   0.487  10.545 -1.5588 -1.2599 -1.4779
 3652SOL    HW215413   6.460   0.558  10.649  0.2295 -0.8278 -0.2663
 3653SOL     OW15414   0.968   7.367   1.240  0.1564 -0.4539  0.3081
 3653SOL    HW115415   0.944   7.279   1.210  0.6833 -0.6814  0.5495
 3653SOL    HW215416   1.052   7.356   1.284 -0.9997 -0.2920  2.6774
 3654SOL     OW15417   5.573   3.264   2.831  0.0842 -0.1678  0.2279
 3654SOL    HW115418   5.494   3.297   2.789  1.2149  1.4314 -0.7977
 3654SOL    HW215419   5.551   3.258   2.924 -1.3206 -0.0838 -0.0846
 3655SOL     OW15420   7.683   7.805   8.870 -0.3721  0.2913  0.5302
 3655SOL    HW115421   7.684   7.811   8.774  1.3469  2.3220  0.6178
 3655SOL    HW215422   7.668   7.712   8.887  0.9932 -0.4358 -1.7392
 3656SOL     OW15423   5.974   3.073   8.009 -0.1198 -0.2987 -0.1075
 3656SOL    HW115424   6.065   3.044   8.019 -1.5405 -4.8521  2.0490
 3656SOL    HW215425   5.941   3.021   7.936 -1.3413  0.4941 -0.1439
 3657SOL     OW15426   6.371   0.661   3.316 -0.4023 -0.2564  0.0391
 3657SOL    HW115427   6.408   0.635   3.231  0.4425  3.7815 -1.0571
 3657SOL    HW215428   6.277   0.660   3.302 -0.2588  0.9832 -1.2503
 3658SOL     OW15429   9.532   9.589   9.856  0.1515 -0.2972  0.2842
 3658SOL    HW115430   9.605   9.619   9.802  2.5868 -3.4614  1.5046
 3658SOL    HW215431   9.559   9.609   9.945 -1.6332  0.6028  0.6541
 3659SOL     OW15432   9.098   6.546  10.441  0.3991  0.0102  0.3054
 3659SOL    HW115433   9.129   6.542  10.350  1.6887  1.5624  0.6271
 3659SOL    HW215434   9.009   6.511  10.437  0.1984  0.5971 -1.6836
 3660SOL     OW15435   2.420  10.423   0.005 -0.1542 -0.3129 -0.6044
 3660SOL    HW115436   2.491  10.426   0.069 -0.7564 -0.4401  0.0885
 3660SOL    HW215437   2.361  10.356   0.038 -0.6791 -0.0956 -1.0820
 3661SOL     OW15438   6.329   5.403   6.923  0.1385  0.5502 -0.2107
 3661SOL    HW115439   6.354   5.325   6.874 -2.0412  1.5036 -3.1076
 3661SOL    HW215440   6.381   5.474   6.885  0.6432  0.8688  1.0176
 3662SOL     OW15441   1.416   6.319   2.201  0.5850 -0.4380 -0.1847
 3662SOL    HW115442   1.346   6.358   2.253 -0.4298 -1.4266 -0.7543
 3662SOL    HW215443   1.396   6.226   2.201  0.5171 -0.4667 -2.3638
 3663SOL     OW15444   8.279   4.562   7.290 -0.3140  0.2753  0.3344
 3663SOL    HW115445   8.229   4.485   7.262 -0.4916  0.5966 -0.2472
 3663SOL    HW215446   8.222   4.636   7.270  0.3863  0.6496 -0.3447
 3664SOL     OW15447   5.714   5.612   8.424 -0.0362  0.7762 -0.1057
 3664SOL    HW115448   5.723   5.531   8.473  1.1117 -0.8261 -2.7603
 3664SOL    HW215449   5.764   5.598   8.343 -1.5456  3.3339 -1.6431
 3665SOL     OW15450   0.405   0.420   8.458 -0.1185 -0.1266 -0.2491
 3665SOL    HW115451   0.493   0.451   8.435 -0.5747  0.1406 -1.7391
 3665SOL    HW215452   0.378   0.366   8.384 -0.5187 -1.7045  0.9988
 3666SOL     OW15453   5.224   3.170   6.565  0.0448  0.4150  0.3723
 3666SOL    HW115454   5.200   3.234   6.633 -1.5552 -0.7175  0.9235
 3666SOL    HW215455   5.226   3.086   6.611 -1.4602 -0.4330 -1.0384
 3667SOL     OW15456   1.291   6.264   1.884 -0.2719 -0.2700  0.2601
 3667SOL    HW115457   1.294   6.347   1.933 -0.2991 -0.3401  0.3810
 3667SOL    HW215458   1.349   6.206   1.933  1.3366  0.2561 -0.9178
 3668SOL     OW15459   6.803   5.110  10.920 -0.3417  0.1713  0.1857
 3668SOL    HW115460   6.729   5.057  10.950 -1.1239  1.1299  0.0096
 3668SOL    HW215461   6.881   5.062  10.949 -1.0404  0.2706  2.4151
 3669SOL     OW15462   9.835   9.647   3.302 -0.0295 -0.2946  0.4353
 3669SOL    HW115463   9.804   9.621   3.389 -1.9798 -3.4972 -1.0278
 3669SOL    HW215464   9.913   9.594   3.287  0.0392 -0.0914  0.0599
 3670SOL     OW15465   5.801   3.093   2.755  0.3464 -0.1894 -0.0556
 3670SOL    HW115466   5.747   3.171   2.766  0.3410 -0.3628  1.3704
 3670SOL    HW215467   5.757   3.042   2.687 -1.9307 -0.8157  1.7781
 3671SOL     OW15468   1.478   9.269   9.682 -0.0756  0.2528 -0.4530
 3671SOL    HW115469   1.395   9.247   9.641 -0.0036  0.3681 -0.6635
 3671SOL    HW215470   1.481   9.215   9.761  0.8557 -1.7876 -1.8031
 3672SOL     OW15471   7.685   7.006   4.116  0.5932 -0.3066 -0.3509
 3672SOL    HW115472   7.688   7.081   4.175  0.9225 -0.0558 -0.6809
 3672SOL    HW215473   7.745   7.029   4.045  0.4199 -0.7284 -0.6384
 3673SOL     OW15474   5.009   4.892   4.727 -0.1396 -0.1329 -0.5075
 3673SOL    HW115475   5.080   4.933   4.777 -0.6574  0.0475  0.0945
 3673SOL    HW215476   5.006   4.941   4.645 -1.6184  1.9885  0.7009
 3674SOL     OW15477   1.774  11.038   7.783  0.2354 -0.4641 -0.1107
 3674SOL    HW115478   1.740  10.977   7.849  2.4357 -1.1304  0.4792
 3674SOL    HW215479   1.751  10.997   7.699 -1.4066 -0.2839  0.2212
 3675SOL     OW15480   9.857  10.766   5.944 -0.1093  0.7165  0.0067
 3675SOL    HW115481   9.790  10.744   6.008  0.6901  1.4596  1.1270
 3675SOL    HW215482   9.911  10.833   5.987  1.1595  0.3661 -0.9791
 3676SOL     OW15483   3.878   2.588   4.274  0.3138  0.2388  0.2087
 3676SOL    HW115484   3.883   2.572   4.180  2.0777 -0.7078  0.4187
 3676SOL    HW215485   3.963   2.625   4.297 -0.2104  0.7740  1.3976
 3677SOL     OW15486   8.292   4.285   8.670  0.5245 -0.2027 -0.0439
 3677SOL    HW115487   8.375   4.333   8.670  0.5191 -0.1409  1.3015
 3677SOL    HW215488   8.304   4.217   8.737 -0.3846 -0.4056 -0.0754
 3678SOL     OW15489   7.628   8.022   7.560  0.4264  0.0863 -0.0708
 3678SOL    HW115490   7.641   7.929   7.538  1.1085 -0.1612  1.2679
 3678SOL    HW215491   7.706   8.046   7.609  0.9754  1.8298 -1.7020
 3679SOL     OW15492   4.024   3.175   0.040 -0.5303 -0.1295 -0.5968
 3679SOL    HW115493   3.942   3.209   0.006 -0.9697 -0.2875  0.2798
 3679SOL    HW215494   3.999   3.105   0.099 -0.0446  2.0603  2.4513
 3680SOL     OW15495   5.820   8.979  10.800  0.0726  0.1919 -0.1184
 3680SOL    HW115496   5.850   9.035  10.727 -0.8163  0.9618  0.0828
 3680SOL    HW215497   5.775   8.907  10.757 -1.0640  1.0050 -0.3441
 3681SOL     OW15498  10.664   0.713   9.315  0.2397  0.1796  0.0345
 3681SOL    HW115499  10.680   0.670   9.231  1.8626 -0.4290  0.6171
 3681SOL    HW215500  10.571   0.698   9.333 -0.3191  0.9494 -1.9756
 3682SOL     OW15501   0.823   9.685   7.260  0.1273  0.7190  0.0703
 3682SOL    HW115502   0.806   9.741   7.336 -0.8427 -0.3064  0.6353
 3682SOL    HW215503   0.783   9.732   7.186 -2.4062 -0.0523  0.8463
 3683SOL     OW15504   6.654   1.277   5.946  0.5017 -0.2294  0.4698
 3683SOL    HW115505   6.573   1.308   5.988 -0.8333 -2.0145 -0.6384
 3683SOL    HW215506   6.704   1.236   6.017 -0.4476 -0.7657  0.8450
 3684SOL     OW15507   0.962   4.460  10.344 -0.0542 -0.3441  0.2545
 3684SOL    HW115508   0.875   4.500  10.340  0.0060 -0.2598 -0.2742
 3684SOL    HW215509   1.022   4.534  10.342  0.0878 -0.4775 -1.8009
 3685SOL     OW15510   9.785   8.642  10.768  0.1590 -0.0689  0.1937
 3685SOL    HW115511   9.797   8.567  10.827  0.6687 -1.3376 -1.4519
 3685SOL    HW215512   9.871   8.685  10.767  0.0604  0.1457  0.6023
 3686SOL     OW15513   5.936   1.218   5.877 -0.1398  0.0131  0.0105
 3686SOL    HW115514   6.015   1.243   5.924  0.2590  0.0941 -0.6984
 3686SOL    HW215515   5.966   1.158   5.809 -0.6004  0.5392 -0.6672
 3687SOL     OW15516   3.082  10.584   0.456 -0.0170  0.0487  0.2447
 3687SOL    HW115517   3.132  10.518   0.504  2.5983  1.4254 -0.4013
 3687SOL    HW215518   3.085  10.662   0.511  2.1766  1.3562 -1.5821
 3688SOL     OW15519   5.105   8.063   5.347  0.1663  0.6238  0.5651
 3688SOL    HW115520   5.129   7.979   5.309  1.4062  0.6431  1.2258
 3688SOL    HW215521   5.182   8.118   5.334 -0.3495  1.4234  0.8080
 3689SOL     OW15522   8.907   0.408  10.027  0.8236 -0.6723 -0.0136
 3689SOL    HW115523   8.857   0.397  10.108 -0.0055  1.5599 -0.1705
 3689SOL    HW215524   8.929   0.318  10.000  0.8145 -1.4899  2.4635
 3690SOL     OW15525   5.398   2.295   8.295 -0.3767 -0.2784  0.1900
 3690SOL    HW115526   5.480   2.245   8.300  0.1152  0.4097 -0.6535
 3690SOL    HW215527   5.405   2.343   8.212  0.4690  3.3692  2.1576
 3691SOL     OW15528  10.818   0.124   7.987 -0.2114 -0.1118 -0.1393
 3691SOL    HW115529  10.776   0.101   7.904  2.3408  2.0307 -2.1901
 3691SOL    HW215530  10.751   0.173   8.035 -1.9732 -2.0170 -0.5361
 3692SOL     OW15531   0.979   4.118   9.678  0.2530 -0.3075 -0.0225
 3692SOL    HW115532   1.048   4.184   9.681  0.3332 -0.4120  1.9912
 3692SOL    HW215533   0.941   4.126   9.591 -0.2973  2.9623  0.4160
 3693SOL     OW15534   3.909   1.510   3.555 -0.0475  0.2839  0.0132
 3693SOL    HW115535   3.841   1.449   3.585 -0.8986 -0.8675 -3.7518
 3693SOL    HW215536   3.991   1.465   3.574 -0.4905 -0.2767  0.6972
 3694SOL     OW15537   9.891  10.626   0.978  0.2332  0.1492 -0.5030
 3694SOL    HW115538   9.796  10.639   0.983  0.0340 -0.5566 -1.9134
 3694SOL    HW215539   9.901  10.537   0.945  1.3363  0.7442 -1.8594
 3695SOL     OW15540   2.741   7.830   2.312 -0.0658  0.0171 -0.1348
 3695SOL    HW115541   2.777   7.882   2.240 -0.0751  0.9702  0.5259
 3695SOL    HW215542   2.741   7.741   2.279  1.6364  0.1649 -0.6715
 3696SOL     OW15543   1.102   5.426   9.978 -0.1474 -0.0951 -0.3242
 3696SOL    HW115544   1.138   5.379  10.054 -1.4818  2.7010  2.2373
 3696SOL    HW215545   1.161   5.500   9.966 -0.8240  0.3417 -1.0250
 3697SOL     OW15546   4.156   5.156   7.232  0.0058 -0.4232 -0.1343
 3697SOL    HW115547   4.073   5.153   7.279  1.1426 -0.8788  1.9861
 3697SOL    HW215548   4.150   5.087   7.166 -1.9518  0.7683 -1.2719
 3698SOL     OW15549   4.809   9.426   2.448  0.8231 -0.1053 -0.1467
 3698SOL    HW115550   4.830   9.455   2.537  0.4424 -0.9668  0.2401
 3698SOL    HW215551   4.714   9.413   2.449  0.4883  1.9531 -1.3278
 3699SOL     OW15552   2.935   5.849  10.529  0.2267  0.0670  0.1253
 3699SOL    HW115553   2.874   5.832  10.601 -1.7423  0.4097 -1.3769
 3699SOL    HW215554   2.968   5.763  10.504 -0.7168 -0.3044  0.1022
 3700SOL     OW15555   7.408   6.484   5.259  0.1179 -0.1803  0.1985
 3700SOL    HW115556   7.347   6.552   5.286  0.3264  0.5031 -0.9525
 3700SOL    HW215557   7.487   6.500   5.310  0.6199  1.2737 -0.9545
 3701SOL     OW15558   9.308   2.067   2.525 -0.1084  0.1081  0.2231
 3701SOL    HW115559   9.314   2.161   2.543 -0.0075  0.0258  0.6170
 3701SOL    HW215560   9.292   2.027   2.610  1.2871 -0.3745  0.2751
 3702SOL     OW15561   8.821   8.458   5.849 -0.6000 -0.2876 -0.3561
 3702SOL    HW115562   8.788   8.424   5.766  0.1691 -1.4530 -0.1987
 3702SOL    HW215563   8.887   8.395   5.877 -0.4018  0.4145  0.8367
 3703SOL     OW15564   0.243   4.730   8.841 -0.4289 -0.2962 -0.2127
 3703SOL    HW115565   0.245   4.823   8.820  0.0955  0.1715  1.6697
 3703SOL    HW215566   0.260   4.686   8.758  2.2923  1.3737 -0.6785
 3704SOL     OW15567   3.216   1.130   0.680 -0.1851  0.2243 -0.1170
 3704SOL    HW115568   3.238   1.166   0.594  0.3679  1.1420  0.4019
 3704SOL    HW215569   3.126   1.158   0.695  0.1348  1.1448  0.1454
 3705SOL     OW15570   1.972   5.725  10.432  0.0904  0.5672  0.9260
 3705SOL    HW115571   1.942   5.776  10.508  0.1934 -0.5550  1.7526
 3705SOL    HW215572   2.022   5.653  10.471  0.3679  0.1192 -0.2354
 3706SOL     OW15573  10.173   9.170   0.565  0.0650 -0.0875  0.1600
 3706SOL    HW115574  10.169   9.176   0.469 -1.9960 -1.1269  0.1045
 3706SOL    HW215575  10.238   9.102   0.582 -2.3731 -2.9001 -0.8012
 3707SOL     OW15576   9.387   5.177   0.414 -0.1286 -0.3291  0.5855
 3707SOL    HW115577   9.346   5.263   0.400  0.7349  0.2481  1.5508
 3707SOL    HW215578   9.470   5.196   0.457  0.2481 -1.6352  0.4777
 3708SOL     OW15579   3.684   6.850   8.087  0.0805  0.3900 -0.4156
 3708SOL    HW115580   3.644   6.835   8.173 -2.8675  0.7944 -1.5931
 3708SOL    HW215581   3.723   6.765   8.065  2.4420  0.7331  1.9574
 3709SOL     OW15582   7.781   6.262   2.912  0.4498 -0.5084  0.0609
 3709SOL    HW115583   7.733   6.262   2.829  0.8070 -0.3134 -0.1470
 3709SOL    HW215584   7.731   6.320   2.968  0.6022 -0.0654 -0.2541
 3710SOL     OW15585   4.057   4.524   9.880  0.5052  0.1324  0.3035
 3710SOL    HW115586   3.968   4.540   9.910  0.4887 -0.5797  0.6410
 3710SOL    HW215587   4.081   4.439   9.916  1.1442  0.0842 -0.1952
 3711SOL     OW15588   3.073   1.866   5.133  0.2871  0.1049 -0.5324
 3711SOL    HW115589   3.031   1.901   5.212  2.2051  1.9967 -0.2547
 3711SOL    HW215590   3.073   1.940   5.072  1.1864 -0.5421 -1.3353
 3712SOL     OW15591   8.484   8.169   6.591  0.5644  0.5434  0.3823
 3712SOL    HW115592   8.514   8.232   6.656  1.9155  0.9062 -0.5597
 3712SOL    HW215593   8.388   8.172   6.597  0.6572  0.9008  2.0149
 3713SOL     OW15594   0.953   4.602   8.641 -0.4743 -0.1109  0.1147
 3713SOL    HW115595   0.939   4.542   8.715  0.8339 -0.1091  0.3808
 3713SOL    HW215596   0.899   4.565   8.571 -0.3974 -1.0980  0.5486
 3714SOL     OW15597   7.758   8.327   9.320  0.5075  0.2424 -0.2163
 3714SOL    HW115598   7.775   8.409   9.274 -0.5648  0.1176 -0.8776
 3714SOL    HW215599   7.799   8.259   9.266  0.0294  0.1928 -0.5291
 3715SOL     OW15600   0.446   3.595   3.623 -0.2186  0.2526 -0.5241
 3715SOL    HW115601   0.428   3.577   3.715  1.4568 -0.8759 -0.3914
 3715SOL    HW215602   0.513   3.663   3.623 -0.3437  0.3867 -0.9365
 3716SOL     OW15603   0.327  10.446  10.461 -0.0323 -0.2765 -0.3425
 3716SOL    HW115604   0.321  10.351  10.451 -1.0321 -0.4032  1.0373
 3716SOL    HW215605   0.289  10.481  10.381  1.8599 -0.9831 -1.6166
 3717SOL     OW15606   6.855   1.599   5.172 -0.1220 -0.0223 -0.1572
 3717SOL    HW115607   6.763   1.595   5.199  0.2151  0.4527  1.1707
 3717SOL    HW215608   6.859   1.671   5.110 -0.7544 -0.4612 -0.7208
 3718SOL     OW15609   9.538   0.797   2.639  0.1387 -0.0948  0.2474
 3718SOL    HW115610   9.577   0.807   2.726  0.0254  0.1044  0.2768
 3718SOL    HW215611   9.520   0.704   2.631 -0.2422 -0.0520  0.6048
 3719SOL     OW15612   5.550   5.389   6.313  0.9229  0.1437 -0.1557
 3719SOL    HW115613   5.630   5.440   6.311  1.5663 -0.8155  0.1607
 3719SOL    HW215614   5.541   5.362   6.405  0.8439 -0.6519 -0.3841
 3720SOL     OW15615   5.857  11.045   5.253  0.9463 -1.1357  0.4923
 3720SOL    HW115616   5.834  11.137   5.261  0.7128 -1.1759  0.3041
 3720SOL    HW215617   5.878  11.017   5.342  3.9125 -0.1618  0.2275
 3721SOL     OW15618  10.401   9.409   3.233  0.2880  0.3953 -0.4408
 3721SOL    HW115619  10.463   9.412   3.307 -2.5482 -0.5486  2.1611
 3721SOL    HW215620  10.406   9.497   3.195  1.8868  0.9058  0.8315
 3722SOL     OW15621   3.546   1.780   5.369 -0.3313 -0.2786 -0.6005
 3722SOL    HW115622   3.479   1.714   5.388 -0.0248 -0.4635 -0.1412
 3722SOL    HW215623   3.621   1.753   5.421 -0.2725  0.5585 -0.2362
 3723SOL     OW15624   5.702   8.965   5.749  0.1359 -0.0047 -0.5673
 3723SOL    HW115625   5.704   8.878   5.789 -0.9407 -0.5327 -1.6131
 3723SOL    HW215626   5.768   9.015   5.798  2.9485 -2.2111 -1.8442
 3724SOL     OW15627   0.296   4.893   9.738  0.1135 -0.0856 -0.1259
 3724SOL    HW115628   0.250   4.941   9.669  0.2642  0.0975 -0.1021
 3724SOL    HW215629   0.276   4.942   9.818 -0.8391 -0.8479  0.1110
 3725SOL     OW15630   9.999   5.442   6.416  0.1214 -0.0221  0.1515
 3725SOL    HW115631   9.930   5.433   6.482 -0.4609 -0.2064 -0.4698
 3725SOL    HW215632  10.079   5.458   6.466  0.3145 -3.3216  1.1163
 3726SOL     OW15633  10.683   9.180   3.184 -0.2811  0.2637  0.5871
 3726SOL    HW115634  10.750   9.148   3.123 -1.8000  0.7911 -1.4800
 3726SOL    HW215635  10.649   9.102   3.225  2.2187  0.0359  2.4801
 3727SOL     OW15636   9.818   5.636   7.729  0.2777  1.0149 -0.4531
 3727SOL    HW115637   9.889   5.623   7.666 -1.2231  1.1483 -2.2712
 3727SOL    HW215638   9.863   5.652   7.813  2.3812  1.4093 -1.5705
 3728SOL     OW15639   9.201   6.427   4.857 -0.0343 -0.6067 -0.0942
 3728SOL    HW115640   9.230   6.341   4.828  1.5134 -0.5624  1.1815
 3728SOL    HW215641   9.267   6.488   4.825  0.2539 -0.2345  1.1365
 3729SOL     OW15642   4.886   8.617  10.701  0.6245  0.5814  0.2733
 3729SOL    HW115643   4.814   8.677  10.719 -0.0890 -0.3306  0.4933
 3729SOL    HW215644   4.897   8.622  10.606 -0.1848  0.2258  0.1504
 3730SOL     OW15645   1.036  10.817   7.074 -0.1231 -0.0063 -0.2131
 3730SOL    HW115646   1.130  10.806   7.059 -0.2733  1.1940 -2.4274
 3730SOL    HW215647   0.999  10.731   7.053  0.3647 -0.1550 -0.4924
 3731SOL     OW15648   8.168   7.163   2.601 -0.2418 -0.4891  0.0794
 3731SOL    HW115649   8.217   7.244   2.588 -0.1806 -0.3912  0.9234
 3731SOL    HW215650   8.226   7.108   2.653 -1.1177 -0.2664  1.3321
 3732SOL     OW15651   6.692   0.513   8.041 -0.5116 -0.3724 -0.8311
 3732SOL    HW115652   6.644   0.445   7.992 -0.5828  0.1693 -1.5248
 3732SOL    HW215653   6.783   0.485   8.036 -0.4465 -0.0482 -1.7580
 3733SOL     OW15654   2.146   3.994   1.278  0.1572  0.0962  0.1758
 3733SOL    HW115655   2.054   4.008   1.301 -0.0457 -0.3996 -0.3024
 3733SOL    HW215656   2.181   4.081   1.263 -0.8835  0.2030 -2.0748
 3734SOL     OW15657   2.981   0.026   8.757  0.1574  0.3166 -0.2896
 3734SOL    HW115658   2.977   0.072   8.673 -0.4632 -0.4585 -0.7112
 3734SOL    HW215659   3.028  -0.055   8.737  1.8741  1.0638  0.5988
 3735SOL     OW15660   7.525   7.376   6.272  0.3969 -0.2262  0.0734
 3735SOL    HW115661   7.545   7.284   6.256  2.4301  0.0585  0.7442
 3735SOL    HW215662   7.449   7.394   6.216 -0.4042 -2.4236  0.3421
 3736SOL     OW15663   6.879   2.044   5.922 -0.2384 -0.0661  0.3536
 3736SOL    HW115664   6.791   2.081   5.907 -1.0785 -1.1302  2.2928
 3736SOL    HW215665   6.898   2.064   6.013  1.2234 -0.4978  0.1590
 3737SOL     OW15666   0.403  10.467   0.398 -0.2744 -0.5944  0.2230
 3737SOL    HW115667   0.310  10.486   0.415 -0.6258 -1.2390 -0.8416
 3737SOL    HW215668   0.442  10.553   0.381 -0.8626 -0.3913 -0.1420
 3738SOL     OW15669   8.829   0.087   9.813  0.3830  0.4849 -0.0545
 3738SOL    HW115670   8.756   0.143   9.838  0.1097  0.1935 -0.2041
 3738SOL    HW215671   8.789   0.004   9.787  0.7712  0.2877 -0.0400
 3739SOL     OW15672   1.315   4.871   1.171  0.0557 -0.4474  0.7510
 3739SOL    HW115673   1.279   4.782   1.170  0.1909 -0.5005 -0.3797
 3739SOL    HW215674   1.333   4.889   1.264 -2.2919 -0.6633  1.3266
 3740SOL     OW15675   1.151   2.908   8.302 -0.0392  0.0464  0.0409
 3740SOL    HW115676   1.107   2.830   8.334 -0.4258  0.8140  1.4534
 3740SOL    HW215677   1.233   2.912   8.352 -0.7481  1.3742  1.1926
 3741SOL     OW15678   6.555   2.491   3.769 -0.4106 -0.0270  0.1879
 3741SOL    HW115679   6.620   2.449   3.825 -1.3641 -2.3428 -0.3602
 3741SOL    HW215680   6.560   2.444   3.686 -0.9550  1.5253 -0.7821
 3742SOL     OW15681   0.888   2.268   1.503  0.3111  0.1545  0.4068
 3742SOL    HW115682   0.863   2.227   1.420  1.1296 -0.2954  0.3641
 3742SOL    HW215683   0.810   2.316   1.531 -0.7320 -1.4825  0.4824
 3743SOL     OW15684   2.656   8.788   4.577 -0.5406 -0.0858  0.0651
 3743SOL    HW115685   2.625   8.770   4.489  3.0737  1.1095 -1.6302
 3743SOL    HW215686   2.638   8.881   4.590  0.2995  0.0906 -0.0282
 3744SOL     OW15687   9.521   4.352   7.362  0.0556 -0.1237  0.1918
 3744SOL    HW115688   9.590   4.286   7.363 -0.8516 -1.0881  0.5022
 3744SOL    HW215689   9.494   4.361   7.453  3.3762  4.2281  1.0676
 3745SOL     OW15690   1.670   9.730   7.882 -0.2924 -0.1583 -0.1068
 3745SOL    HW115691   1.714   9.815   7.887 -1.1547  0.2579  1.0681
 3745SOL    HW215692   1.578   9.750   7.900 -0.3686 -1.4298  1.1270
 3746SOL     OW15693   6.574   3.808   5.010  0.0736  0.0442  0.3970
 3746SOL    HW115694   6.507   3.776   4.950  0.3505  2.7004 -1.5149
 3746SOL    HW215695   6.525   3.844   5.084 -0.4929 -0.1192  0.1088
 3747SOL     OW15696   7.936   8.131   6.420  0.0402  0.0961  0.1719
 3747SOL    HW115697   7.867   8.065   6.428 -0.1505  0.2470 -0.2200
 3747SOL    HW215698   7.909   8.202   6.479 -0.7090  0.6412 -0.8033
 3748SOL     OW15699   8.954   4.090   7.014 -0.1437 -0.0107  0.1818
 3748SOL    HW115700   8.930   4.125   7.099 -1.2942  0.2655 -0.2463
 3748SOL    HW215701   8.895   4.016   7.000 -0.6631  0.5649 -0.8043
 3749SOL     OW15702   0.088   6.851   5.128 -0.0118  0.3809  0.5525
 3749SOL    HW115703   0.099   6.904   5.050 -0.1417 -2.3069 -1.4457
 3749SOL    HW215704  -0.006   6.829   5.130  0.2347 -0.7404  0.6015
 3750SOL     OW15705   9.458   6.317   4.183 -0.3953 -0.2038  0.5736
 3750SOL    HW115706   9.364   6.307   4.200 -0.0934  0.6168  3.1558
 3750SOL    HW215707   9.469   6.411   4.166  0.2055  0.1382  2.6026
 3751SOL     OW15708   8.714   7.913   0.304  1.0718 -0.1843  0.3344
 3751SOL    HW115709   8.779   7.979   0.280  1.8959 -0.0990  2.5457
 3751SOL    HW215710   8.701   7.926   0.398  1.4572 -3.3104  0.9276
 3752SOL     OW15711   2.225   7.608   9.841 -0.0398 -0.0517  0.0855
 3752SOL    HW115712   2.293   7.589   9.778  2.2470  3.8996  1.0034
 3752SOL    HW215713   2.268   7.602   9.926 -2.0423 -1.5653  1.0824
 3753SOL     OW15714   0.942   2.146  10.315 -0.4531 -0.4232 -0.4203
 3753SOL    HW115715   1.007   2.076  10.311 -0.6082 -0.6766  0.9713
 3753SOL    HW215716   0.857   2.101  10.316 -0.6191 -0.1398 -1.0378
 3754SOL     OW15717  10.982   4.307   2.442 -0.1472  0.2476 -0.5857
 3754SOL    HW115718  11.015   4.271   2.525  0.3511 -0.5750 -1.1325
 3754SOL    HW215719  10.888   4.286   2.443  0.0712 -0.7925 -0.7413
 3755SOL     OW15720   6.982   8.788   9.461  0.7812 -0.0458 -0.0701
 3755SOL    HW115721   6.984   8.832   9.546 -1.1195 -1.1714  0.6349
 3755SOL    HW215722   6.942   8.851   9.402 -2.2747 -0.7503  1.0109
 3756SOL     OW15723   6.623   1.304   3.560  0.1467 -0.1862 -0.1199
 3756SOL    HW115724   6.646   1.389   3.523  0.9572  0.7813  2.4030
 3756SOL    HW215725   6.559   1.268   3.499 -0.1698  2.1948 -1.3013
 3757SOL     OW15726   1.222   3.594   2.232  0.2136  0.3059  0.8894
 3757SOL    HW115727   1.131   3.620   2.247  0.6624  2.6583 -0.0218
 3757SOL    HW215728   1.225   3.501   2.256 -1.8395  0.7477  3.3447
 3758SOL     OW15729  10.902   9.795   1.351  0.4126  0.2328  0.3810
 3758SOL    HW115730  10.810   9.769   1.347  0.1888  1.0798 -0.3375
 3758SOL    HW215731  10.910   9.844   1.433  0.3119 -0.1635  0.6268
 3759SOL     OW15732  11.022   1.910   1.495 -0.0122  0.0216  0.6164
 3759SOL    HW115733  10.970   1.962   1.433 -0.1635  0.5666  1.1899
 3759SOL    HW215734  10.957   1.871   1.554  0.0407 -1.3908 -0.2042
 3760SOL     OW15735   2.300   0.049   5.904  0.1094 -0.5177 -0.7627
 3760SOL    HW115736   2.284   0.140   5.929  0.4394 -0.6798  0.0971
 3760SOL    HW215737   2.266  -0.002   5.978 -0.8494 -1.1408 -1.6083
 3761SOL     OW15738   0.889  10.073   2.525 -0.3184  0.2659  0.4879
 3761SOL    HW115739   0.961  10.024   2.487 -0.4027  1.4764 -1.3675
 3761SOL    HW215740   0.817  10.062   2.463  0.0190  3.6390 -0.7310
 3762SOL     OW15741   2.390   0.525   3.845 -0.4349 -0.3845  0.2682
 3762SOL    HW115742   2.418   0.512   3.755 -2.4041  0.5915 -0.5509
 3762SOL    HW215743   2.355   0.440   3.873 -0.4089 -0.5257 -0.1261
 3763SOL     OW15744   1.000  10.670   5.921 -0.0332  0.0297  0.1711
 3763SOL    HW115745   1.074  10.629   5.876  1.3503  3.0927 -0.6432
 3763SOL    HW215746   0.931  10.604   5.920  1.4323 -1.6319 -2.4927
 3764SOL     OW15747   5.116   3.056   2.795 -0.1325 -0.4015  0.0906
 3764SOL    HW115748   5.052   3.127   2.783 -0.2051 -0.4362  0.2705
 3764SOL    HW215749   5.135   3.057   2.888  0.2736 -0.2702  0.0049
 3765SOL     OW15750   8.596   6.951   0.753  0.9555  0.3529 -0.0338
 3765SOL    HW115751   8.628   6.973   0.840  1.1741 -0.4046  0.0851
 3765SOL    HW215752   8.534   7.021   0.732 -1.3025 -0.9075  1.9264
 3766SOL     OW15753   4.954   4.167   7.044  0.1795 -0.0405 -0.5369
 3766SOL    HW115754   4.954   4.155   6.949  0.3936 -0.7358 -0.4538
 3766SOL    HW215755   5.047   4.167   7.068  0.0954 -1.2812 -0.1631
 3767SOL     OW15756   4.832   2.381   2.775 -0.5896  0.2052 -0.1981
 3767SOL    HW115757   4.878   2.457   2.742  1.4789 -1.0746 -0.4491
 3767SOL    HW215758   4.867   2.367   2.862  0.4111 -1.4490 -0.8152
 3768SOL     OW15759   7.331   7.550   1.068  0.2675 -0.7757  0.0391
 3768SOL    HW115760   7.339   7.533   1.162  0.5259 -1.0322 -0.0280
 3768SOL    HW215761   7.237   7.552   1.052  0.2217 -0.6482  0.3199
 3769SOL     OW15762   4.824   0.556   1.006 -0.3824 -1.0865 -0.2005
 3769SOL    HW115763   4.862   0.480   0.964  0.5015 -2.0977  2.2391
 3769SOL    HW215764   4.883   0.576   1.079 -0.8914  1.6059 -0.4097
 3770SOL     OW15765   6.610   3.875   4.040 -0.0689  0.1498  0.3299
 3770SOL    HW115766   6.621   3.815   3.965 -1.1987  0.8189 -0.3948
 3770SOL    HW215767   6.644   3.959   4.008  1.8064 -0.1236  1.4470
 3771SOL     OW15768  11.044  10.212   3.876  0.7142  0.6672 -0.1254
 3771SOL    HW115769  10.971  10.161   3.911  2.3612 -0.1822  2.3720
 3771SOL    HW215770  11.062  10.172   3.791 -1.3793  0.6111 -0.6030
 3772SOL     OW15771   5.987  10.123   3.466 -0.4300 -0.1231 -0.3677
 3772SOL    HW115772   5.934  10.203   3.465  0.2303  0.3217 -0.8115
 3772SOL    HW215773   6.051  10.138   3.536 -0.8811 -0.6571  0.1656
 3773SOL     OW15774   4.668   6.709   7.957  0.0163  0.1272 -0.1298
 3773SOL    HW115775   4.733   6.641   7.973 -0.4599 -0.0201  1.3853
 3773SOL    HW215776   4.587   6.675   7.996 -0.7747  0.6661 -1.2357
 3774SOL     OW15777   0.819   0.775   9.400 -0.1876  0.6155  0.2722
 3774SOL    HW115778   0.746   0.836   9.412 -1.4630 -0.8313  0.1642
 3774SOL    HW215779   0.841   0.784   9.307  0.3433  1.6589  0.4863
 3775SOL     OW15780  10.726   6.307   5.093 -0.0444  0.4649 -0.0171
 3775SOL    HW115781  10.774   6.373   5.042 -0.8643  0.9562 -0.1750
 3775SOL    HW215782  10.675   6.359   5.155 -0.1713 -0.0628  0.3191
 3776SOL     OW15783   8.164   5.472   6.817 -0.0398  0.0387 -0.1049
 3776SOL    HW115784   8.111   5.516   6.883  1.4735  1.2122  0.3982
 3776SOL    HW215785   8.114   5.394   6.794 -2.0271  1.1492  0.2138
 3777SOL     OW15786   7.749   9.895   6.401  0.0263 -0.3509 -0.1845
 3777SOL    HW115787   7.725   9.817   6.451  0.0129  0.1389  0.5867
 3777SOL    HW215788   7.842   9.909   6.420 -0.3415  0.7237  0.9546
 3778SOL     OW15789   5.101   5.853   5.051  0.3917  0.1773 -0.1744
 3778SOL    HW115790   5.063   5.801   5.122  0.2904 -0.5726 -0.7606
 3778SOL    HW215791   5.096   5.796   4.975  0.9652  0.7849 -0.6768
 3779SOL     OW15792  10.479   1.889   3.902 -0.2537 -0.3251  0.8504
 3779SOL    HW115793  10.445   1.835   3.831  2.4565  0.2724 -1.0516
 3779SOL    HW215794  10.547   1.835   3.942  0.0294  0.3432  1.2827
 3780SOL     OW15795   1.535   9.952  10.076 -0.4278 -0.0750 -0.0284
 3780SOL    HW115796   1.449   9.990  10.060 -1.6018 -1.7566  1.7407
 3780SOL    HW215797   1.541   9.878  10.015 -1.1872 -1.2055  1.1982
 3781SOL     OW15798   5.157   7.013   3.961 -0.5019  0.0725  0.3120
 3781SOL    HW115799   5.062   7.007   3.962 -0.4798 -0.3128  0.8395
 3781SOL    HW215800   5.187   6.929   3.997  0.0379  0.1533  0.0687
 3782SOL     OW15801   3.936   6.663   2.424  0.0478  0.4260 -0.4918
 3782SOL    HW115802   3.905   6.725   2.358 -0.8556  0.2612 -0.2357
 3782SOL    HW215803   3.856   6.628   2.464  0.5586 -0.3494 -0.1191
 3783SOL     OW15804  10.617   8.271   9.880 -0.2116 -1.1252 -0.6452
 3783SOL    HW115805  10.574   8.357   9.882  0.8125 -0.5870 -0.7817
 3783SOL    HW215806  10.615   8.242   9.971 -2.2347 -1.8465 -0.8748
 3784SOL     OW15807   4.405   5.727   6.237  0.2426 -0.2540  0.0079
 3784SOL    HW115808   4.492   5.765   6.238  0.7552 -1.3831  1.2392
 3784SOL    HW215809   4.420   5.632   6.230 -0.8716 -0.4708  0.2976
 3785SOL     OW15810   9.673   6.559   5.255 -0.1885 -0.4544 -0.3868
 3785SOL    HW115811   9.603   6.535   5.195 -0.6014 -0.9662  0.2907
 3785SOL    HW215812   9.675   6.488   5.319  0.1504  0.1537  0.2876
 3786SOL     OW15813   4.444   2.398   9.393  0.1764  0.1088 -0.3718
 3786SOL    HW115814   4.448   2.467   9.460 -0.6495  0.1171 -0.3293
 3786SOL    HW215815   4.519   2.417   9.336  0.4539  0.5416  0.1188
 3787SOL     OW15816  10.717   3.757   5.801  0.1393 -0.5060 -0.1408
 3787SOL    HW115817  10.630   3.744   5.763 -0.6822 -0.5170  1.6498
 3787SOL    HW215818  10.735   3.676   5.848  0.1541  0.2674  1.2498
 3788SOL     OW15819  10.852   0.767   0.623  0.4325 -0.2153  0.2894
 3788SOL    HW115820  10.883   0.759   0.713  1.8978 -1.0949 -0.2497
 3788SOL    HW215821  10.809   0.683   0.605  0.3048 -0.1122  0.1196
 3789SOL     OW15822   3.579   5.170  10.247  0.1022  0.2246  0.3419
 3789SOL    HW115823   3.609   5.170  10.156 -0.7418  2.6954 -0.0120
 3789SOL    HW215824   3.486   5.147  10.241  0.1929 -0.2225  0.6478
 3790SOL     OW15825   7.646   5.378   2.827 -0.0839 -0.4461 -0.0950
 3790SOL    HW115826   7.680   5.467   2.819 -2.0219  0.2722 -1.1226
 3790SOL    HW215827   7.632   5.350   2.736 -1.9943 -0.7456  0.2598
 3791SOL     OW15828   6.666   5.801   3.036  0.1307 -0.1420 -0.4845
 3791SOL    HW115829   6.612   5.807   2.957 -1.2138  2.4067  0.4923
 3791SOL    HW215830   6.753   5.830   3.008 -0.2841  0.5608 -1.0936
 3792SOL     OW15831   0.191   4.231   4.707 -0.1740  0.1514 -0.3136
 3792SOL    HW115832   0.267   4.174   4.691  0.1391  0.6682 -0.6909
 3792SOL    HW215833   0.138   4.223   4.628  0.4973  1.3449 -0.9061
 3793SOL     OW15834   3.751   2.422   5.596 -0.2573  0.2509 -0.0290
 3793SOL    HW115835   3.741   2.334   5.560 -0.8544 -0.3586  1.5591
 3793SOL    HW215836   3.801   2.470   5.529  0.6665 -1.4637 -0.6261
 3794SOL     OW15837   5.531   0.930   1.040  0.2324  0.0321 -0.5047
 3794SOL    HW115838   5.491   0.843   1.047 -0.0783 -0.1440 -3.1327
 3794SOL    HW215839   5.465   0.983   0.995  1.1473  1.0947 -0.6368
 3795SOL     OW15840   8.820   6.040   0.378 -0.2616 -0.1781  0.3560
 3795SOL    HW115841   8.808   5.949   0.407  0.0694 -0.3453 -0.0200
 3795SOL    HW215842   8.915   6.050   0.372 -0.3198 -0.1476 -0.6651
 3796SOL     OW15843   4.114   5.701   0.476 -0.1121 -0.1700  0.1202
 3796SOL    HW115844   4.028   5.661   0.486 -0.0831  0.2264  2.5325
 3796SOL    HW215845   4.174   5.642   0.522  0.8277 -0.1483 -1.0318
 3797SOL     OW15846   0.692   5.524   6.623  0.1020  0.3285  0.0400
 3797SOL    HW115847   0.602   5.520   6.592 -0.5969  0.7202  1.9128
 3797SOL    HW215848   0.696   5.461   6.695  1.1475  0.8248  0.4409
 3798SOL     OW15849  10.953   8.189   8.836 -0.4227  0.1932 -0.1044
 3798SOL    HW115850  10.857   8.192   8.827 -0.3377  1.6052 -0.8951
 3798SOL    HW215851  10.981   8.121   8.775 -0.9872 -1.0243  0.9595
 3799SOL     OW15852   0.729   6.728   7.122  0.2398 -0.0056 -0.5512
 3799SOL    HW115853   0.765   6.774   7.045  2.4121 -1.6882 -0.6483
 3799SOL    HW215854   0.751   6.785   7.196  0.5677  0.3397 -0.9072
 3800SOL     OW15855   5.335   2.924   9.029  0.2110  0.1187  0.8772
 3800SOL    HW115856   5.382   2.846   9.058  0.2073  0.4680  1.8602
 3800SOL    HW215857   5.384   2.956   8.954 -0.3386 -1.3664 -0.1563
 3801SOL     OW15858   7.069   3.241   6.441 -0.0033  0.1658 -0.3648
 3801SOL    HW115859   7.055   3.332   6.418 -1.7664 -0.1262 -0.6395
 3801SOL    HW215860   6.983   3.200   6.428  0.4092 -1.2480  1.0281
 3802SOL     OW15861   4.010   3.121   7.703 -0.5435 -0.2761  0.4193
 3802SOL    HW115862   4.003   3.170   7.620 -1.6219  0.2645  0.8136
 3802SOL    HW215863   4.049   3.037   7.678 -0.6194 -0.0252 -0.5944
 3803SOL     OW15864   6.332   6.839   7.149 -0.0727  0.0328 -0.0482
 3803SOL    HW115865   6.351   6.797   7.233 -0.8777  1.4956  0.9016
 3803SOL    HW215866   6.415   6.838   7.102  0.8226  0.6811  1.4582
 3804SOL     OW15867   5.602   9.207   4.517 -0.4111  0.2960 -0.3116
 3804SOL    HW115868   5.516   9.241   4.493 -0.1874  0.6714 -0.6056
 3804SOL    HW215869   5.604   9.208   4.612 -0.7172  0.3272 -0.3073
 3805SOL     OW15870   4.759   5.557   5.525 -0.4427  0.0860 -0.0179
 3805SOL    HW115871   4.821   5.520   5.587 -0.6801  0.0463  0.1997
 3805SOL    HW215872   4.691   5.490   5.516 -0.4358  0.1126 -0.2823
 3806SOL     OW15873   0.712   9.140   4.915 -0.0585 -0.2119  0.0086
 3806SOL    HW115874   0.734   9.233   4.901 -1.5100 -0.1337 -2.2490
 3806SOL    HW215875   0.626   9.141   4.955  0.5386 -0.6124  1.3601
 3807SOL     OW15876   0.535   6.031   6.065  0.1687  0.2136  0.5166
 3807SOL    HW115877   0.573   5.944   6.083  0.9640  0.4271 -0.0716
 3807SOL    HW215878   0.610   6.090   6.067  0.3870  0.3105 -3.1281
 3808SOL     OW15879   6.265  10.225   2.904 -0.2612  0.3759 -0.7578
 3808SOL    HW115880   6.295  10.314   2.920  0.2250 -0.0915  1.1888
 3808SOL    HW215881   6.267  10.183   2.990 -3.2830 -0.6807 -1.0687
 3809SOL     OW15882   6.350   6.951   3.543  0.5338  0.5253 -0.6657
 3809SOL    HW115883   6.359   7.040   3.510  1.5085  0.7288  0.0916
 3809SOL    HW215884   6.418   6.943   3.610  0.4278 -0.7664 -0.6733
 3810SOL     OW15885  11.065   5.289   3.616 -0.1638 -0.6852  0.1152
 3810SOL    HW115886  11.156   5.265   3.598 -0.0615 -0.5434  0.4214
 3810SOL    HW215887  11.065   5.385   3.616 -0.9612 -0.6008 -3.0616
 3811SOL     OW15888   7.118   4.379   4.016  0.2961  0.3797  0.2328
 3811SOL    HW115889   7.059   4.327   4.070 -0.2606  0.2789 -0.4657
 3811SOL    HW215890   7.204   4.370   4.059  0.1104 -0.7074  0.4055
 3812SOL     OW15891  10.825   5.977   8.143 -0.4308  0.2731 -0.0289
 3812SOL    HW115892  10.888   5.905   8.148 -0.7124  0.0002 -0.3816
 3812SOL    HW215893  10.879   6.055   8.129 -0.0685  0.2438  1.1030
 3813SOL     OW15894   6.616   2.273   1.282  0.3155 -0.0999 -0.4126
 3813SOL    HW115895   6.633   2.215   1.208  1.2307 -1.3436  0.7321
 3813SOL    HW215896   6.589   2.214   1.353  0.7899  0.9099  0.6429
 3814SOL     OW15897  10.739   1.111   5.277  0.2760 -0.2506 -0.0238
 3814SOL    HW115898  10.764   1.179   5.215 -0.1871  2.1779  2.2565
 3814SOL    HW215899  10.817   1.100   5.332  0.3729 -1.6992 -0.4063
 3815SOL     OW15900  10.768   8.472   8.362 -0.3682  0.5147  0.2893
 3815SOL    HW115901  10.690   8.492   8.309 -0.1183  1.3724  0.2240
 3815SOL    HW215902  10.825   8.423   8.302 -0.9500 -0.3180  0.4085
 3816SOL     OW15903   9.146   8.529   5.220  0.7124  0.0403 -0.3153
 3816SOL    HW115904   9.118   8.446   5.182 -1.6908 -0.2574  1.8122
 3816SOL    HW215905   9.174   8.507   5.309 -3.4319  1.7320  1.6902
 3817SOL     OW15906   4.848   1.833   2.504  0.0690 -0.2893  0.3905
 3817SOL    HW115907   4.904   1.759   2.480 -1.0146 -1.2583  0.7494
 3817SOL    HW215908   4.905   1.909   2.496  1.5254 -1.2573  1.0091
 3818SOL     OW15909   2.417   4.235   5.966 -0.2593  0.1154  0.2942
 3818SOL    HW115910   2.370   4.298   6.020 -0.5287  0.8715 -0.7857
 3818SOL    HW215911   2.426   4.158   6.022 -1.6623  0.4005  0.9667
 3819SOL     OW15912   9.747   2.693   9.769  0.6473 -0.0406  0.7413
 3819SOL    HW115913   9.752   2.721   9.678  1.9264  1.6891  1.3001
 3819SOL    HW215914   9.676   2.746   9.807 -1.1424 -2.0298  0.4008
 3820SOL     OW15915   7.319   2.898   0.865  0.0142 -0.3488  0.0796
 3820SOL    HW115916   7.261   2.973   0.878 -0.2719 -0.8624  2.0972
 3820SOL    HW215917   7.284   2.853   0.788 -1.9639 -0.3256  0.9119
 3821SOL     OW15918   6.765   0.158   1.569 -0.3875  0.7734  0.3605
 3821SOL    HW115919   6.846   0.113   1.593 -0.4489  1.4812  1.9902
 3821SOL    HW215920   6.772   0.245   1.608 -1.2404  1.4206 -0.8576
 3822SOL     OW15921   8.003   0.542   8.514 -0.0114 -0.5512  0.6447
 3822SOL    HW115922   8.069   0.487   8.558  1.2906 -0.7459 -1.4314
 3822SOL    HW215923   7.950   0.480   8.464 -1.1020 -0.2692  1.4004
 3823SOL     OW15924   0.957  11.014   3.491  0.0823  0.4226  0.2113
 3823SOL    HW115925   0.943  11.108   3.502 -1.3419  0.0985  1.6166
 3823SOL    HW215926   0.988  10.985   3.576  0.5606 -0.3731 -0.2320
 3824SOL     OW15927   6.831   5.763   2.148  0.0950  0.0832 -0.6202
 3824SOL    HW115928   6.760   5.777   2.211  2.2209 -0.1073  2.0320
 3824SOL    HW215929   6.839   5.668   2.141  1.6214  0.0237  1.1273
 3825SOL     OW15930   9.791  10.392   7.762  0.2193  0.2829  0.3365
 3825SOL    HW115931   9.815  10.305   7.730  0.3871  0.0874  0.9819
 3825SOL    HW215932   9.700  10.403   7.733  0.3014  0.0304 -0.0328
 3826SOL     OW15933   9.199   8.324   4.204 -0.2409  0.2010  0.2527
 3826SOL    HW115934   9.108   8.319   4.175 -0.3817  2.4276  0.1298
 3826SOL    HW215935   9.226   8.414   4.184  1.4835  0.0804  1.7472
 3827SOL     OW15936   2.272   8.271   1.858  0.2425 -0.1585 -0.0226
 3827SOL    HW115937   2.286   8.199   1.921  0.0619  0.0455  0.2526
 3827SOL    HW215938   2.281   8.230   1.772  0.4383 -0.4529  0.1349
 3828SOL     OW15939   3.944   8.477   6.477  0.5672  0.2042  0.2054
 3828SOL    HW115940   3.974   8.567   6.473  0.4131  0.1965 -2.6764
 3828SOL    HW215941   3.865   8.475   6.423 -0.4435 -1.3299  1.6204
 3829SOL     OW15942   1.568   2.191   8.745 -0.2217 -0.1080 -0.4169
 3829SOL    HW115943   1.573   2.233   8.659 -0.1029  0.4724 -0.1311
 3829SOL    HW215944   1.489   2.228   8.785 -0.0603 -0.0830 -0.1229
 3830SOL     OW15945   7.745   0.164   2.588 -0.2178  0.0798  0.4551
 3830SOL    HW115946   7.815   0.189   2.647  0.4889 -2.7408  0.9623
 3830SOL    HW215947   7.670   0.145   2.645 -0.0679 -0.9629  0.3245
 3831SOL     OW15948   2.454   0.555   3.297 -0.0163 -1.0212  0.1221
 3831SOL    HW115949   2.363   0.583   3.284 -0.1254 -2.0777 -1.7843
 3831SOL    HW215950   2.452   0.460   3.284  1.7086 -0.7943 -2.5381
 3832SOL     OW15951   0.491   8.977  10.597 -0.3735  0.2117 -0.6543
 3832SOL    HW115952   0.500   8.911  10.528 -1.6932 -2.2193  1.3481
 3832SOL    HW215953   0.408   9.021  10.579 -0.6914 -0.3853 -0.6389
 3833SOL     OW15954   7.788   3.829   2.612  0.2790  0.1102 -0.5434
 3833SOL    HW115955   7.716   3.767   2.603 -1.1293  1.6360 -0.3622
 3833SOL    HW215956   7.836   3.799   2.689 -0.3643 -0.7552 -0.4705
 3834SOL     OW15957   1.190   4.659   8.492 -0.3019  0.4095  0.1340
 3834SOL    HW115958   1.111   4.652   8.545  0.2387  1.4227  1.1140
 3834SOL    HW215959   1.199   4.753   8.474  0.2325  0.2192 -0.6576
 3835SOL     OW15960   2.018   1.659   5.708  0.4739 -0.2847  0.0552
 3835SOL    HW115961   1.943   1.616   5.747 -0.6687  0.2075 -1.4795
 3835SOL    HW215962   2.050   1.597   5.642  0.2909  0.2212 -0.5214
 3836SOL     OW15963   9.633  10.951   4.796 -0.4099  0.1929  0.2643
 3836SOL    HW115964   9.548  10.959   4.752 -0.5076 -0.0773  0.4035
 3836SOL    HW215965   9.690  10.910   4.732 -0.2103  0.9534 -0.0566
 3837SOL     OW15966   8.166   5.527   8.780 -0.0765  0.0877  0.0215
 3837SOL    HW115967   8.124   5.574   8.708 -0.7612 -0.9200 -0.2588
 3837SOL    HW215968   8.108   5.544   8.855 -0.6385 -0.7677 -0.2133
 3838SOL     OW15969   9.024   6.893   3.285 -0.0435 -0.1785  0.0152
 3838SOL    HW115970   9.099   6.852   3.241 -0.4023 -1.7160  0.7611
 3838SOL    HW215971   9.059   6.922   3.369  0.4535  2.0650 -0.8870
 3839SOL     OW15972   5.897   5.346   2.545 -0.5509  0.3657  0.1611
 3839SOL    HW115973   5.984   5.370   2.579 -0.6418 -1.3516  1.7342
 3839SOL    HW215974   5.893   5.389   2.460  2.7823 -1.2050 -1.0080
 3840SOL     OW15975   2.638   9.762   2.843 -0.0896 -0.0740 -0.2255
 3840SOL    HW115976   2.663   9.817   2.768  0.9854 -1.3923 -0.8662
 3840SOL    HW215977   2.557   9.719   2.816 -1.3126  1.5959  0.5302
 3841SOL     OW15978   5.856   3.098   3.774  0.2069  0.5472  0.0778
 3841SOL    HW115979   5.905   3.101   3.857  0.5448  1.6538 -0.1438
 3841SOL    HW215980   5.764   3.098   3.800  0.3119  0.2395  0.4624
 3842SOL     OW15981   5.902   5.146   2.917  0.2469 -0.0487 -0.1377
 3842SOL    HW115982   5.865   5.153   2.829  1.2211  1.4672 -0.4683
 3842SOL    HW215983   5.891   5.234   2.954  1.7677 -0.0780  0.4477
 3843SOL     OW15984   5.320   5.536   0.342  0.1076  0.0289  0.1470
 3843SOL    HW115985   5.343   5.487   0.263  0.9830  1.6602 -0.6726
 3843SOL    HW215986   5.403   5.553   0.385 -0.2632  0.0678  0.8559
 3844SOL     OW15987   9.595  10.598  10.544 -0.3091  0.2809 -0.1267
 3844SOL    HW115988   9.544  10.646  10.609  0.7395 -0.4417  1.2840
 3844SOL    HW215989   9.677  10.646  10.538 -0.5399  0.5653 -1.2502
 3845SOL     OW15990   0.024   5.793   2.146  0.8281 -0.0638  0.5687
 3845SOL    HW115991   0.105   5.820   2.103 -0.3341  0.7965 -1.1815
 3845SOL    HW215992   0.024   5.698   2.138  1.5202 -0.0522  0.3301
 3846SOL     OW15993   4.415   3.525   3.441 -0.1862 -0.4018 -0.1583
 3846SOL    HW115994   4.426   3.600   3.383  0.6555 -0.4719 -0.1045
 3846SOL    HW215995   4.407   3.450   3.383  3.0660 -0.8167 -0.2616
 3847SOL     OW15996   1.409   1.151   6.709  0.2628 -0.0769 -0.5521
 3847SOL    HW115997   1.458   1.096   6.648 -0.2229 -0.1773 -0.8630
 3847SOL    HW215998   1.469   1.222   6.732 -0.2162  1.1420 -2.7794
 3848SOL     OW15999   6.331   1.415   9.720 -0.9845  0.1558 -0.2654
 3848SOL    HW116000   6.346   1.354   9.649  0.9185 -0.7072  0.7993
 3848SOL    HW216001   6.306   1.497   9.677  0.9751 -0.0806 -2.0149
 3849SOL     OW16002   2.458  10.831   1.461 -0.3107 -0.4779 -0.1397
 3849SOL    HW116003   2.450  10.847   1.367 -0.3539 -1.7408 -0.3666
 3849SOL    HW216004   2.446  10.917   1.501  1.8129  0.4887 -1.3958
 3850SOL     OW16005   1.821   3.281   8.822 -0.1329 -0.5176 -0.5388
 3850SOL    HW116006   1.767   3.266   8.745 -1.7474  0.9365  0.2482
 3850SOL    HW216007   1.815   3.375   8.838  1.7350 -0.4879  0.2554
 3851SOL     OW16008   8.635   3.583   6.470  0.0037  0.1979 -0.7394
 3851SOL    HW116009   8.723   3.595   6.506 -0.1477 -1.2526  0.2114
 3851SOL    HW216010   8.617   3.490   6.481 -1.9909  0.6038 -0.1246
 3852SOL     OW16011   6.827   8.584   5.239  0.1142  0.0340  0.3502
 3852SOL    HW116012   6.868   8.537   5.311 -1.6286 -2.1363  0.0265
 3852SOL    HW216013   6.872   8.553   5.161  0.5074  0.6896  0.3110
 3853SOL     OW16014   1.722   0.903   5.340  0.0234 -0.0632 -0.0255
 3853SOL    HW116015   1.720   0.999   5.344  0.6835 -0.0032 -0.8180
 3853SOL    HW216016   1.691   0.882   5.252  1.8146 -0.4569 -0.6057
 3854SOL     OW16017   0.110  10.264   7.419 -0.2974 -0.2554  0.0956
 3854SOL    HW116018   0.034  10.216   7.387 -0.7091  0.2372  0.3277
 3854SOL    HW216019   0.112  10.247   7.513  2.1400 -3.4546 -0.3717
 3855SOL     OW16020   6.302   9.529   3.369 -0.3533  0.0486 -0.1861
 3855SOL    HW116021   6.238   9.593   3.340 -0.5096 -0.5083 -1.1015
 3855SOL    HW216022   6.379   9.581   3.392 -0.3778  0.5559 -1.1905
 3856SOL     OW16023  10.607   4.647   6.262 -0.5644  0.9432  0.3845
 3856SOL    HW116024  10.539   4.655   6.329 -1.4608 -0.2401 -0.3444
 3856SOL    HW216025  10.587   4.565   6.218 -0.7266  2.2607 -2.1470
 3857SOL     OW16026   9.096   6.747   3.710 -0.0727  0.0422  0.0413
 3857SOL    HW116027   9.027   6.733   3.774  0.2061 -0.1597  0.2972
 3857SOL    HW216028   9.170   6.694   3.741 -0.0874 -0.4232 -0.6795
 3858SOL     OW16029   5.377  10.456   2.394  0.0907 -0.1504 -0.5526
 3858SOL    HW116030   5.363  10.368   2.428  0.8176  0.0157  0.2295
 3858SOL    HW216031   5.433  10.498   2.460  1.0920  0.3721 -1.6958
 3859SOL     OW16032   6.303  10.963   0.742 -0.0879  0.1232  0.0578
 3859SOL    HW116033   6.388  10.926   0.716  0.1116 -0.6495  1.6778
 3859SOL    HW216034   6.325  11.035   0.801 -0.5352  1.7107 -1.6132
 3860SOL     OW16035   6.790   5.347   3.559  0.2295  0.7637 -0.0411
 3860SOL    HW116036   6.801   5.423   3.617 -0.7197 -0.5597  2.0147
 3860SOL    HW216037   6.867   5.294   3.575  0.0343  0.4598 -0.1073
 3861SOL     OW16038  10.930   1.933   0.016  0.0359  0.1705  0.5216
 3861SOL    HW116039  10.912   2.013  -0.034  2.3043  0.2042 -0.3653
 3861SOL    HW216040  10.930   1.961   0.107  2.0758  1.5144  0.1624
 3862SOL     OW16041   2.167   8.657   9.238  0.2706  0.2094  0.2265
 3862SOL    HW116042   2.185   8.746   9.208  0.1424  0.6806  1.5119
 3862SOL    HW216043   2.125   8.668   9.323 -1.9332 -0.9956 -0.6232
 3863SOL     OW16044   8.249   0.380   4.179  0.1485 -0.0970 -0.0628
 3863SOL    HW116045   8.226   0.412   4.266 -0.1504 -1.3615  0.3395
 3863SOL    HW216046   8.341   0.356   4.185  0.4509  0.9010 -0.4460
 3864SOL     OW16047   0.983   6.905   5.073 -0.5064 -0.3501 -0.9199
 3864SOL    HW116048   1.014   6.963   5.003  0.1759 -0.1559 -0.4725
 3864SOL    HW216049   1.048   6.916   5.143 -1.3868 -0.2483 -0.1072
 3865SOL     OW16050   3.836  10.388   4.377 -0.1618  0.6147 -0.0386
 3865SOL    HW116051   3.777  10.399   4.451  1.5966  1.9909  1.2602
 3865SOL    HW216052   3.911  10.341   4.414  1.0207  1.8705 -0.7341
 3866SOL     OW16053   6.562   4.359   2.730  0.5190 -0.0751 -0.1026
 3866SOL    HW116054   6.651   4.394   2.722  0.8331 -0.6945  0.6292
 3866SOL    HW216055   6.521   4.414   2.796  0.6261 -0.3221  0.1691
 3867SOL     OW16056  10.714   6.299  10.390  0.4554  0.0493  0.1524
 3867SOL    HW116057  10.716   6.364  10.320  0.4495 -0.1515 -0.0342
 3867SOL    HW216058  10.803   6.298  10.424  0.8529 -0.9626 -0.8731
 3868SOL     OW16059   8.221   3.704   3.995  0.4211  0.1371 -0.0155
 3868SOL    HW116060   8.236   3.675   4.085 -0.0426  0.4540  0.1688
 3868SOL    HW216061   8.269   3.786   3.988 -0.3563  0.6334  0.2646
 3869SOL     OW16062   9.976   2.351   1.502 -0.1474  0.1603 -0.0480
 3869SOL    HW116063  10.005   2.422   1.444  0.3273  1.6611  1.9170
 3869SOL    HW216064   9.891   2.381   1.536 -2.4314 -2.4844 -2.8372
 3870SOL     OW16065   5.962   3.128   4.740 -0.1960 -0.4770 -0.4572
 3870SOL    HW116066   5.971   3.178   4.659  0.8055  0.0196 -0.0717
 3870SOL    HW216067   6.024   3.171   4.800 -1.8980  0.0543  1.0094
 3871SOL     OW16068   7.804   0.154   8.206  0.2859 -0.0758  0.1520
 3871SOL    HW116069   7.713   0.154   8.175  1.5400  0.8695 -4.2603
 3871SOL    HW216070   7.855   0.130   8.128  3.7562 -3.0931  3.0175
 3872SOL     OW16071   7.611   1.270   7.048 -0.1003  0.4718 -0.3025
 3872SOL    HW116072   7.638   1.228   7.130 -0.4037  0.9262  0.0391
 3872SOL    HW216073   7.615   1.200   6.983 -0.5341 -0.0771  0.2419
 3873SOL     OW16074   4.216   9.906   4.454 -0.0139 -0.1125  0.1910
 3873SOL    HW116075   4.224   9.858   4.537  2.3995  0.6487  0.4614
 3873SOL    HW216076   4.192   9.995   4.480 -3.0925 -0.7134 -0.2322
 3874SOL     OW16077   7.535  10.743   4.197  0.4531  0.5576 -0.3290
 3874SOL    HW116078   7.443  10.764   4.179 -0.4334 -3.1021 -0.8798
 3874SOL    HW216079   7.570  10.717   4.112  1.2264 -0.5259  0.2958
 3875SOL     OW16080   7.472   6.218   1.778  0.0064  0.3236 -0.0929
 3875SOL    HW116081   7.415   6.258   1.712  0.7134  2.8388  0.7312
 3875SOL    HW216082   7.412   6.191   1.848 -0.4214  0.4797 -0.3941
 3876SOL     OW16083   3.675   5.320   0.308  0.0521  0.2171  0.4977
 3876SOL    HW116084   3.657   5.414   0.310  3.9253  1.2148 -1.2027
 3876SOL    HW216085   3.623   5.287   0.234  0.7214  1.6619 -0.6673
 3877SOL     OW16086   8.408   4.744   2.917 -0.0848 -0.4604 -0.2499
 3877SOL    HW116087   8.350   4.726   2.991 -0.1947 -1.5129 -0.5779
 3877SOL    HW216088   8.495   4.718   2.948 -0.0532 -0.4408 -0.3221
 3878SOL     OW16089   7.992  10.901   2.017  0.6743 -0.6907  0.0553
 3878SOL    HW116090   8.057  10.957   1.975  0.1120  0.3747  0.5552
 3878SOL    HW216091   7.908  10.946   2.002  0.4782 -0.0977  2.5249
 3879SOL     OW16092   7.603   2.943   0.764 -0.1148  0.1068  0.3660
 3879SOL    HW116093   7.512   2.962   0.785  0.2300  0.8425  1.2352
 3879SOL    HW216094   7.614   2.974   0.674 -0.1988  1.8532  0.9406
 3880SOL     OW16095   5.595   4.340  10.127 -0.3734  0.3868 -0.2465
 3880SOL    HW116096   5.640   4.292  10.197 -0.3265  1.2483  0.3239
 3880SOL    HW216097   5.620   4.432  10.141 -0.9986  0.6652 -0.9179
 3881SOL     OW16098  10.863   5.376   5.952  0.5536  0.8417 -0.0916
 3881SOL    HW116099  10.805   5.406   6.021 -0.9010  1.2496 -1.4298
 3881SOL    HW216100  10.827   5.415   5.872 -0.1198 -2.6079 -1.6314
 3882SOL     OW16101   3.605   0.770   4.685  0.3928  0.0702  0.2234
 3882SOL    HW116102   3.591   0.701   4.619  0.0066  0.4820 -0.1355
 3882SOL    HW216103   3.700   0.784   4.684  0.1723  2.1853 -2.4775
 3883SOL     OW16104   1.891   7.909   0.609  0.6486  0.1336  1.0082
 3883SOL    HW116105   1.928   7.828   0.574  0.2460  0.6012 -0.5935
 3883SOL    HW216106   1.848   7.950   0.534  0.4725  1.6246  1.8800
 3884SOL     OW16107   9.681   7.468   5.954 -0.2231 -0.0787  0.6257
 3884SOL    HW116108   9.640   7.521   5.886  0.0021  1.1276  1.4009
 3884SOL    HW216109   9.723   7.531   6.012  1.8901 -1.1888  0.4327
 3885SOL     OW16110   0.884   4.167   6.622 -0.3139  0.5642  0.4668
 3885SOL    HW116111   0.942   4.205   6.557  0.1324 -1.2641 -0.2520
 3885SOL    HW216112   0.942   4.143   6.695 -0.2402 -0.6938  0.0085
 3886SOL     OW16113   8.668   7.899   4.839  0.0443  0.4405  0.9476
 3886SOL    HW116114   8.722   7.821   4.852 -0.0795  0.0544 -0.7275
 3886SOL    HW216115   8.659   7.907   4.744 -2.5051  0.7170  1.1458
 3887SOL     OW16116   3.755   4.553   8.872 -0.1361  0.1094  0.0187
 3887SOL    HW116117   3.701   4.610   8.927 -0.2547 -0.3522  0.3960
 3887SOL    HW216118   3.726   4.464   8.895  0.9632 -0.1600  0.4100
 3888SOL     OW16119   0.632   5.104   7.001  0.5627  0.3638  0.5512
 3888SOL    HW116120   0.724   5.080   7.010  0.4343 -0.7705 -0.8314
 3888SOL    HW216121   0.634   5.198   6.984  1.3903  0.5285  1.4431
 3889SOL     OW16122  10.516   0.333   2.460 -0.3576  0.1201  0.0985
 3889SOL    HW116123  10.560   0.410   2.426  0.3777 -0.7454 -0.9775
 3889SOL    HW216124  10.454   0.308   2.391  1.7251 -2.1379 -1.1075
 3890SOL     OW16125   7.937   6.985   2.252  0.2872 -0.0354 -0.1561
 3890SOL    HW116126   7.926   7.013   2.162  0.7724  0.5241 -0.0415
 3890SOL    HW216127   7.952   7.065   2.301  1.8118 -0.4827  0.1582
 3891SOL     OW16128   6.313   8.019   7.626 -0.0053 -0.5649 -0.1684
 3891SOL    HW116129   6.273   8.097   7.665  0.4885  0.0137 -0.8088
 3891SOL    HW216130   6.402   8.045   7.606  0.6119 -1.7301  0.8847
 3892SOL     OW16131   4.614   7.112   6.857  0.8235 -0.1161 -0.4570
 3892SOL    HW116132   4.547   7.162   6.904  0.9856  0.7383 -1.1096
 3892SOL    HW216133   4.662   7.065   6.925 -0.2325 -0.4976  0.0449
 3893SOL     OW16134   3.605   6.976   2.193 -0.1052 -0.4716  0.5002
 3893SOL    HW116135   3.592   7.028   2.114 -0.1518  0.7784  1.3019
 3893SOL    HW216136   3.595   7.038   2.265 -0.4028 -1.6410  1.5152
 3894SOL     OW16137   0.072   8.102   6.977 -0.0190  0.5844  0.0620
 3894SOL    HW116138   0.092   8.173   7.037 -1.6977  0.9943  0.1811
 3894SOL    HW216139  -0.023   8.089   6.985  0.0058 -0.5986 -1.1265
 3895SOL     OW16140   5.426   6.987   6.323  0.7068 -0.2033  0.0742
 3895SOL    HW116141   5.353   6.931   6.352  0.9052 -0.5348 -0.0572
 3895SOL    HW216142   5.482   6.996   6.400 -0.8090  2.2772  1.0060
 3896SOL     OW16143   8.265   5.692   2.516 -0.1553  0.0536 -0.0024
 3896SOL    HW116144   8.313   5.717   2.438  1.6128 -0.8860  0.7257
 3896SOL    HW216145   8.279   5.597   2.524  0.5712  0.2687  1.9423
 3897SOL     OW16146   9.881   6.066   1.174  0.1928  0.3426 -0.5575
 3897SOL    HW116147   9.939   6.004   1.218 -0.2460  0.4560  0.2196
 3897SOL    HW216148   9.924   6.086   1.091  0.9234 -0.0849 -0.2909
 3898SOL     OW16149   5.100   6.070   8.841  0.1160  0.9208 -0.7010
 3898SOL    HW116150   5.083   6.070   8.935  0.3655  2.8064 -0.6009
 3898SOL    HW216151   5.143   6.154   8.825 -1.0440  1.2204 -2.6683
 3899SOL     OW16152   8.754   2.737   8.768 -0.2738  0.2268  0.7575
 3899SOL    HW116153   8.813   2.688   8.711  0.2802  1.2138  0.4534
 3899SOL    HW216154   8.680   2.760   8.711  0.2875  1.2279  0.4057
 3900SOL     OW16155   9.369   8.979   4.565 -0.0182  0.2703  0.1364
 3900SOL    HW116156   9.441   8.979   4.629  1.5908 -0.5095 -1.5644
 3900SOL    HW216157   9.290   8.986   4.618  1.2832  0.8912  2.1210
 3901SOL     OW16158   5.415   7.577   7.631 -0.1173 -0.0625 -0.0091
 3901SOL    HW116159   5.405   7.585   7.726  1.1510  0.3536  0.1177
 3901SOL    HW216160   5.395   7.665   7.597  1.1787  0.2906  0.0767
 3902SOL     OW16161   1.000   9.956   2.964  0.0018  0.2506  0.3430
 3902SOL    HW116162   1.070   9.929   3.023  0.2193 -0.2295 -0.1303
 3902SOL    HW216163   0.923   9.965   3.021  0.2879  0.1267  0.7519
 3903SOL     OW16164   5.138   1.477   9.755 -0.1567 -0.1839  0.1660
 3903SOL    HW116165   5.139   1.561   9.710 -0.8370  0.5692  1.4757
 3903SOL    HW216166   5.116   1.499   9.846 -1.3195 -1.8454  0.3458
 3904SOL     OW16167   1.352   6.883   1.344 -0.0689  0.3053  0.8071
 3904SOL    HW116168   1.278   6.925   1.386 -1.2612 -1.1357  0.2164
 3904SOL    HW216169   1.399   6.839   1.415  0.4900  1.5375  1.2381
 3905SOL     OW16170   6.391   2.975  10.523 -0.6396 -0.2711  0.0590
 3905SOL    HW116171   6.440   2.950  10.601  0.3930  0.3382 -0.3724
 3905SOL    HW216172   6.375   3.069  10.534 -0.4798 -0.1810 -0.4714
 3906SOL     OW16173  10.436  10.247   7.453  0.9955  0.6241  0.1661
 3906SOL    HW116174  10.366  10.289   7.404  0.7528  1.6810  1.3605
 3906SOL    HW216175  10.390  10.188   7.514  1.1149  1.3538  0.9835
 3907SOL     OW16176   2.081   1.196   1.280  0.1083  0.0112  0.3947
 3907SOL    HW116177   1.986   1.187   1.275  0.2220 -0.5427 -1.1212
 3907SOL    HW216178   2.111   1.114   1.319  0.1098 -0.7443 -1.1327
 3908SOL     OW16179   6.046   4.362   2.081  0.3636 -0.2276 -0.4629
 3908SOL    HW116180   5.960   4.321   2.079 -0.3693  1.1905  0.0540
 3908SOL    HW216181   6.092   4.318   2.153  0.0616 -0.9847 -0.7336
 3909SOL     OW16182   7.545   7.604   9.948  0.1924  0.6328  0.5311
 3909SOL    HW116183   7.574   7.679   9.896  1.4657 -0.5149 -0.4961
 3909SOL    HW216184   7.449   7.606   9.942  0.2858  1.0512 -1.1025
 3910SOL     OW16185   5.020   8.272   4.548 -0.4029  0.4928  0.2769
 3910SOL    HW116186   5.109   8.241   4.563 -0.0226  0.4571 -1.7535
 3910SOL    HW216187   5.025   8.322   4.467 -2.4826 -0.8087 -0.7598
 3911SOL     OW16188   7.433   5.225   9.155 -0.1203 -0.5255  0.0088
 3911SOL    HW116189   7.430   5.169   9.232  0.4205 -0.1543  0.3058
 3911SOL    HW216190   7.451   5.313   9.189  2.9196 -0.7747 -0.7006
 3912SOL     OW16191   6.761   7.449   1.582  0.7336  0.3207 -0.3648
 3912SOL    HW116192   6.703   7.512   1.540  0.8346 -0.9329 -2.5269
 3912SOL    HW216193   6.825   7.427   1.515  0.1730 -2.7347 -0.0403
 3913SOL     OW16194   0.392   7.507   5.641  0.0492 -0.4847 -0.3941
 3913SOL    HW116195   0.452   7.512   5.566 -0.4956  0.1765 -0.7858
 3913SOL    HW216196   0.424   7.573   5.702  0.6281 -1.1727  0.0791
 3914SOL     OW16197   8.423   4.505   1.418 -0.0481 -0.0440 -0.5208
 3914SOL    HW116198   8.495   4.451   1.449  1.4926  0.9837 -2.0628
 3914SOL    HW216199   8.408   4.568   1.488  0.8028 -0.0665 -0.3038
 3915SOL     OW16200   4.928   5.722   3.148 -1.1018 -0.5079  1.0428
 3915SOL    HW116201   5.000   5.695   3.205  2.0372  1.6957 -1.5340
 3915SOL    HW216202   4.919   5.816   3.164  0.8063  0.5098 -2.7113
 3916SOL     OW16203   0.681   3.352   5.276 -0.1124  0.1262  0.1256
 3916SOL    HW116204   0.627   3.410   5.330  0.1865  0.1454  0.4025
 3916SOL    HW216205   0.770   3.364   5.309  0.0809  0.1824 -0.4056
 3917SOL     OW16206   9.981   6.266   5.291  0.0276  0.1906  0.4684
 3917SOL    HW116207   9.953   6.347   5.247 -1.2396 -0.2716  0.3934
 3917SOL    HW216208  10.077   6.270   5.290 -0.0132  1.6360  0.3632
 3918SOL     OW16209   1.128   2.621   1.966  0.1061 -0.2457  0.0765
 3918SOL    HW116210   1.173   2.537   1.974 -0.6847 -0.7299 -0.4755
 3918SOL    HW216211   1.106   2.628   1.874  0.1156  0.5534  0.1247
 3919SOL     OW16212   0.218  10.222   2.012  0.4954  0.6894 -0.2318
 3919SOL    HW116213   0.205  10.213   1.917 -0.0932  1.2240 -0.2098
 3919SOL    HW216214   0.134  10.251   2.045  0.5138 -0.1251  0.5608
 3920SOL     OW16215  10.406   8.694   4.036  0.1073  0.0566  0.1644
 3920SOL    HW116216  10.317   8.658   4.040  0.4841 -0.7953  1.9511
 3920SOL    HW216217  10.394   8.788   4.050 -0.4367 -0.2106  1.6531
 3921SOL     OW16218  10.484   5.243   5.663 -0.1559 -0.2727  0.4066
 3921SOL    HW116219  10.396   5.219   5.636  0.3199 -0.1475 -1.3896
 3921SOL    HW216220  10.476   5.264   5.757 -1.8905 -0.8203  0.4123
 3922SOL     OW16221  10.262   8.616   9.429  0.3779 -0.0635 -0.2943
 3922SOL    HW116222  10.176   8.579   9.451  0.1544  0.8288  0.4265
 3922SOL    HW216223  10.256   8.707   9.458  2.3223 -0.5201  1.9007
 3923SOL     OW16224   5.359   6.140   2.063 -0.4620  0.5784  0.3399
 3923SOL    HW116225   5.266   6.160   2.057 -0.6089  0.3326  1.5223
 3923SOL    HW216226   5.364   6.073   2.132  0.5647  0.4479  0.1466
 3924SOL     OW16227   0.584   3.055   5.387  0.4888  0.6185 -0.2231
 3924SOL    HW116228   0.554   3.139   5.352 -0.8403  0.2670  0.0180
 3924SOL    HW216229   0.577   3.065   5.482 -2.7206 -0.7328 -0.1824
 3925SOL     OW16230   6.091   3.648   3.564  0.0199  0.7031  0.2001
 3925SOL    HW116231   6.088   3.560   3.526  1.7897  0.9999 -0.7349
 3925SOL    HW216232   6.006   3.687   3.541 -1.2491 -1.0703  1.5620
 3926SOL     OW16233   1.537   7.049   0.400 -0.4316 -0.8236 -0.2639
 3926SOL    HW116234   1.539   7.101   0.480  0.2049 -0.7470 -0.3219
 3926SOL    HW216235   1.466   6.986   0.413 -0.7071 -0.4379  0.1201
 3927SOL     OW16236   8.025   1.344   2.423  0.0541  0.0061 -0.2804
 3927SOL    HW116237   8.002   1.379   2.337 -2.0108 -0.9250 -0.1601
 3927SOL    HW216238   8.055   1.420   2.472  0.6568  0.6628 -1.6011
 3928SOL     OW16239   7.875  10.010   4.250  0.1323  0.6947 -0.2692
 3928SOL    HW116240   7.947   9.949   4.265 -0.1075 -0.2531 -2.6091
 3928SOL    HW216241   7.916  10.096   4.249  0.8953  0.3523  0.3402
 3929SOL     OW16242   1.321   7.763   8.314  0.0956 -0.3442  0.7057
 3929SOL    HW116243   1.247   7.805   8.357  1.0159  0.8587  1.1683
 3929SOL    HW216244   1.336   7.816   8.235 -0.6164 -1.6266 -0.3450
 3930SOL     OW16245   7.823   6.668   8.231  0.1743 -0.1633  0.7240
 3930SOL    HW116246   7.801   6.639   8.143  1.7351 -1.2079  0.6361
 3930SOL    HW216247   7.792   6.759   8.235  0.0380 -0.1208 -0.8777
 3931SOL     OW16248   1.406   6.674   3.705  0.2064 -0.2708 -0.2997
 3931SOL    HW116249   1.497   6.661   3.732 -0.1124 -1.0595  0.4384
 3931SOL    HW216250   1.359   6.599   3.740 -0.9441  0.6946  0.3146
 3932SOL     OW16251   3.791   4.820   2.010 -0.1796  0.1613 -0.1294
 3932SOL    HW116252   3.719   4.758   2.023 -0.9280  1.1757  0.7161
 3932SOL    HW216253   3.812   4.852   2.098  0.9882  0.2376 -0.4231
 3933SOL     OW16254   5.023   7.365   6.808 -0.7139  0.3703  1.4087
 3933SOL    HW116255   5.063   7.415   6.736 -2.7458  1.9940  1.3088
 3933SOL    HW216256   5.045   7.415   6.887  0.3520 -0.6560  1.7820
 3934SOL     OW16257   9.287   9.515   9.736 -0.2505 -0.5101 -0.0755
 3934SOL    HW116258   9.258   9.430   9.769 -3.2209  0.8485  1.1668
 3934SOL    HW216259   9.367   9.534   9.784 -0.0702 -2.1776  0.3262
 3935SOL     OW16260   9.335   0.946   7.990 -0.0228  0.3679  0.1741
 3935SOL    HW116261   9.394   0.965   8.063  0.6757 -0.9594 -0.0165
 3935SOL    HW216262   9.351   1.017   7.928 -0.3689  1.3169  1.1336
 3936SOL     OW16263   1.053   8.146  11.027 -0.2563  0.4777 -0.0782
 3936SOL    HW116264   1.057   8.091  11.105  0.1480 -0.0412 -0.4577
 3936SOL    HW216265   0.961   8.140  10.998 -0.2509  0.1231 -0.0292
 3937SOL     OW16266   6.993   9.242   1.161  0.0495 -0.1681  0.5196
 3937SOL    HW116267   7.042   9.270   1.238  0.6741 -0.7280  0.3337
 3937SOL    HW216268   6.947   9.321   1.131  1.3113  0.5244  0.3479
 3938SOL     OW16269   6.852   8.552   7.441 -0.3720  0.3949  0.2252
 3938SOL    HW116270   6.766   8.545   7.400 -0.5798  0.2235  0.6915
 3938SOL    HW216271   6.894   8.468   7.422  0.7082  1.4016 -2.2587
 3939SOL     OW16272   7.094   9.925   8.614  0.2057 -0.4269  0.0390
 3939SOL    HW116273   7.041   9.954   8.540  0.7954 -0.4645 -0.4004
 3939SOL    HW216274   7.185   9.929   8.583  0.4097 -1.1850  0.5030
 3940SOL     OW16275  10.638   3.462   3.133  0.5662  0.3299  0.0088
 3940SOL    HW116276  10.544   3.450   3.122  0.6921 -0.2133 -0.5828
 3940SOL    HW216277  10.674   3.373   3.138  0.9770  0.5368  0.9379
 3941SOL     OW16278   5.755   5.839   0.935  0.0246 -0.2972 -0.7389
 3941SOL    HW116279   5.728   5.848   1.026  0.8307  0.1753 -0.5399
 3941SOL    HW216280   5.676   5.811   0.889 -0.7523  0.8665 -0.1479
 3942SOL     OW16281   7.088   0.223   2.947  0.8214 -0.0934  0.7088
 3942SOL    HW116282   7.009   0.214   3.001  0.0959  2.5883  0.2232
 3942SOL    HW216283   7.150   0.271   3.002  1.5504 -0.7949  0.5213
 3943SOL     OW16284  10.677   8.090  10.626 -0.1615 -0.1999  0.1093
 3943SOL    HW116285  10.687   8.030  10.552  0.0454  0.2362 -0.2216
 3943SOL    HW216286  10.761   8.084  10.673 -0.0690 -0.0306 -0.0317
 3944SOL     OW16287   0.627   8.387   8.543 -0.6242 -0.0375 -0.2788
 3944SOL    HW116288   0.719   8.358   8.541 -0.7947 -0.6042 -0.2502
 3944SOL    HW216289   0.619   8.445   8.468  0.3430  1.8785  1.0323
 3945SOL     OW16290   0.690   1.302   2.357  0.0334  0.5591 -0.0888
 3945SOL    HW116291   0.605   1.263   2.378  0.7251 -0.2888  1.2717
 3945SOL    HW216292   0.722   1.252   2.282  1.1963 -2.0400  2.0164
 3946SOL     OW16293   9.490   9.098   2.562  0.5247  0.0951  0.2366
 3946SOL    HW116294   9.495   9.018   2.614  2.3211 -0.2854 -0.4190
 3946SOL    HW216295   9.428   9.154   2.608  1.6776 -0.4070  2.5546
 3947SOL     OW16296   6.390   3.937   2.770  0.1898  0.4305  0.0232
 3947SOL    HW116297   6.428   4.009   2.820  0.4832 -0.8248  1.6928
 3947SOL    HW216298   6.453   3.921   2.699  1.4765  0.1177  1.1937
 3948SOL     OW16299   4.231   3.169   3.896  0.2766 -0.1212  0.6534
 3948SOL    HW116300   4.326   3.182   3.899  0.5485 -0.9916 -1.7082
 3948SOL    HW216301   4.203   3.215   3.817 -0.8728 -1.8511 -0.0129
 3949SOL     OW16302   6.751   7.554   4.727 -0.7194 -0.5510 -0.0156
 3949SOL    HW116303   6.722   7.512   4.645 -0.5210 -0.8013  0.0402
 3949SOL    HW216304   6.682   7.618   4.746 -0.4694 -0.0684 -0.6962
 3950SOL     OW16305   6.106   1.051   3.104  0.2123 -0.0066 -0.2194
 3950SOL    HW116306   6.143   1.105   3.174  3.0448 -0.8754 -0.9382
 3950SOL    HW216307   6.158   0.971   3.105 -1.9302 -1.5017 -1.1427
 3951SOL     OW16308   4.185   1.145   5.440 -0.0737 -0.0447  0.4271
 3951SOL    HW116309   4.238   1.079   5.395 -0.9449  0.4028 -1.3528
 3951SOL    HW216310   4.233   1.164   5.520  0.7594 -2.0273  0.4653
 3952SOL     OW16311   7.903   0.299   8.805  0.0460  0.0581 -0.8361
 3952SOL    HW116312   7.973   0.288   8.740  1.1581 -0.0228  0.3356
 3952SOL    HW216313   7.857   0.378   8.778  0.7373  0.2406 -1.5139
 3953SOL     OW16314   3.948   6.948   2.024 -0.1135 -0.0479  0.0815
 3953SOL    HW116315   4.004   7.022   2.001 -0.3148 -0.0810 -0.5335
 3953SOL    HW216316   3.875   6.953   1.962 -1.2351  0.4727  1.3945
 3954SOL     OW16317   6.353   7.748   4.635  0.6279  0.4194  0.6838
 3954SOL    HW116318   6.291   7.792   4.578 -2.3579 -1.6261  2.1197
 3954SOL    HW216319   6.439   7.767   4.597 -0.9732  1.6885 -2.6159
 3955SOL     OW16320   4.138   0.069   1.209  1.1964  0.1432  0.1799
 3955SOL    HW116321   4.128   0.153   1.253 -1.3064 -0.7565  1.5848
 3955SOL    HW216322   4.114   0.085   1.118  1.3046  1.0552  0.3073
 3956SOL     OW16323  10.806   2.319   4.034  0.1973  0.6197  0.0165
 3956SOL    HW116324  10.895   2.286   4.047  0.2896  0.6483 -0.5080
 3956SOL    HW216325  10.815   2.414   4.034 -0.2212  0.7400  2.6018
 3957SOL     OW16326   8.347   5.536   6.376  0.1545  0.2256 -0.4722
 3957SOL    HW116327   8.335   5.594   6.451 -0.4743  0.9210 -1.0882
 3957SOL    HW216328   8.260   5.503   6.356  0.6752 -2.0094  0.6599
 3958SOL     OW16329   6.472   4.157   4.480  0.3996 -0.4150  0.2584
 3958SOL    HW116330   6.542   4.217   4.455  0.9222 -0.6623  1.0840
 3958SOL    HW216331   6.502   4.071   4.449 -0.7157 -0.1711 -1.6543
 3959SOL     OW16332   6.502   1.131   1.633 -0.1225  0.1197  0.2105
 3959SOL    HW116333   6.514   1.052   1.684  0.4931 -0.5614 -0.9490
 3959SOL    HW216334   6.583   1.181   1.645 -0.2718  0.3027  0.4698
 3960SOL     OW16335   7.801   8.706   6.099  0.2624  0.0092  0.4248
 3960SOL    HW116336   7.760   8.635   6.148 -1.2936 -0.2906 -1.2354
 3960SOL    HW216337   7.803   8.675   6.009 -1.5014  2.4695 -0.5556
 3961SOL     OW16338   5.648  10.527  10.760 -0.2011 -0.1995  0.4161
 3961SOL    HW116339   5.736  10.504  10.789  0.5006  0.2713 -1.2625
 3961SOL    HW216340   5.641  10.622  10.776 -0.7728 -0.3987  1.4324
 3962SOL     OW16341   2.791   1.928   6.482 -0.7340  0.3135  0.0668
 3962SOL    HW116342   2.816   1.852   6.535  1.0113 -0.2477 -1.4523
 3962SOL    HW216343   2.815   2.004   6.535  2.0921 -0.2210 -0.3021
 3963SOL     OW16344   3.280   8.804   0.294 -0.0805 -0.4286  0.2718
 3963SOL    HW116345   3.269   8.784   0.201  1.6305  1.0135 -0.2896
 3963SOL    HW216346   3.252   8.895   0.303  2.2705  0.3460  0.5573
 3964SOL     OW16347   0.030   1.133   3.934 -1.4295 -0.1053 -0.6432
 3964SOL    HW116348   0.061   1.160   3.848  0.2525  0.4594  0.1066
 3964SOL    HW216349   0.038   1.037   3.933  1.0768  0.0419 -0.2614
 3965SOL     OW16350   8.094   4.372   5.857  0.7972 -0.3064 -0.1774
 3965SOL    HW116351   8.044   4.334   5.784  0.7920  1.1641 -0.9927
 3965SOL    HW216352   8.171   4.411   5.815  1.4326 -0.5034  0.7742
 3966SOL     OW16353   3.039   6.017   7.451  0.1021  0.3350 -0.0450
 3966SOL    HW116354   2.982   5.986   7.522  0.7229  1.3208  0.9153
 3966SOL    HW216355   3.093   5.942   7.429  0.3974  0.1985  1.0522
 3967SOL     OW16356   2.474   8.749   4.354 -0.5698 -0.5930 -0.7376
 3967SOL    HW116357   2.419   8.723   4.428  0.0331 -0.2600 -0.1617
 3967SOL    HW216358   2.497   8.666   4.312 -1.2312 -0.7590 -0.7896
 3968SOL     OW16359   9.752   6.928   6.973 -0.0809 -0.1512  0.3462
 3968SOL    HW116360   9.788   6.975   6.897 -0.2310 -0.8362 -0.1602
 3968SOL    HW216361   9.707   6.853   6.935  1.1906 -1.4072  1.2001
 3969SOL     OW16362   6.417   4.461   0.168 -0.4515 -0.2816  0.4567
 3969SOL    HW116363   6.324   4.440   0.157 -0.4643 -0.6667  1.2303
 3969SOL    HW216364   6.417   4.537   0.227 -0.3012  0.2684 -0.2353
 3970SOL     OW16365   5.546   6.386   5.322  0.6124  0.0124  0.0258
 3970SOL    HW116366   5.578   6.399   5.411  1.7233 -0.4276 -0.3045
 3970SOL    HW216367   5.459   6.348   5.334 -0.0623  1.7116  0.9355
 3971SOL     OW16368   8.879   6.206   3.123  0.0937 -0.1550 -0.4715
 3971SOL    HW116369   8.823   6.207   3.045 -1.5680 -0.1204  0.6851
 3971SOL    HW216370   8.819   6.190   3.196  1.8682 -2.5681  0.6196
 3972SOL     OW16371   8.582   2.436   5.789  0.5423 -0.0908  0.4092
 3972SOL    HW116372   8.642   2.395   5.851  0.7748  0.4419  0.5393
 3972SOL    HW216373   8.502   2.450   5.840  0.1346 -1.1992  0.1183
 3973SOL     OW16374   7.160   9.524   2.827  0.2269 -1.0773 -0.2869
 3973SOL    HW116375   7.149   9.601   2.771  1.2851  0.2764  1.2947
 3973SOL    HW216376   7.116   9.547   2.909 -2.0183 -3.3308 -0.7146
 3974SOL     OW16377   2.171   7.420   7.510  0.3440  0.0419 -0.6411
 3974SOL    HW116378   2.238   7.352   7.507 -0.9878 -1.4100  0.7661
 3974SOL    HW216379   2.110   7.396   7.440 -0.8425 -1.0509  0.7243
 3975SOL     OW16380   5.855   3.585   2.272 -0.0120  0.3723 -0.0803
 3975SOL    HW116381   5.832   3.580   2.179 -0.4281  1.2984 -0.0425
 3975SOL    HW216382   5.799   3.519   2.314  2.6177 -2.5721 -0.8591
 3976SOL     OW16383   2.722   9.704   4.082 -0.2815 -0.1751  0.1044
 3976SOL    HW116384   2.669   9.782   4.100  0.0278 -0.2259  1.3982
 3976SOL    HW216385   2.660   9.632   4.084 -0.3009 -0.1545  0.8946
 3977SOL     OW16386   8.244   1.757   4.485 -0.2153  0.1324  0.6315
 3977SOL    HW116387   8.330   1.717   4.468  0.3236  1.1670  0.8230
 3977SOL    HW216388   8.198   1.751   4.402  0.2603  0.0955  0.3674
 3978SOL     OW16389   7.030   5.236   3.605  0.1992  0.3924 -0.0563
 3978SOL    HW116390   7.025   5.156   3.658 -0.2602 -0.0567 -0.7544
 3978SOL    HW216391   7.105   5.221   3.547  0.7168  0.8923  0.4769
 3979SOL     OW16392   5.901   5.154   9.132 -0.3852 -0.4180 -0.4238
 3979SOL    HW116393   5.868   5.195   9.052  1.3865  0.9880 -0.5024
 3979SOL    HW216394   5.995   5.141   9.114 -0.3594 -1.9934  0.6710
 3980SOL     OW16395  10.224   3.353   0.992 -0.3699  0.0564 -0.3742
 3980SOL    HW116396  10.279   3.415   0.944 -0.5514  1.7498  1.4268
 3980SOL    HW216397  10.179   3.408   1.057 -1.7610 -1.7684  0.2814
 3981SOL     OW16398   5.529   6.884   2.843 -0.2103  0.2279 -0.0245
 3981SOL    HW116399   5.471   6.847   2.777  0.7219  0.7732 -1.1757
 3981SOL    HW216400   5.601   6.922   2.793  1.8021 -1.4872  1.4136
 3982SOL     OW16401   8.379   0.465   7.249  0.0014 -0.1013  0.0459
 3982SOL    HW116402   8.326   0.460   7.329 -0.7455 -1.0821 -0.4930
 3982SOL    HW216403   8.447   0.530   7.270 -1.7033  1.6035  0.5602
 3983SOL     OW16404   9.353   2.224   7.532 -0.2263  0.6393 -0.4186
 3983SOL    HW116405   9.415   2.260   7.596 -0.6566  0.1443  0.2964
 3983SOL    HW216406   9.324   2.142   7.572  0.7413 -0.5213 -2.0015
 3984SOL     OW16407   7.782   7.524   4.833 -0.9065 -0.1113 -0.4347
 3984SOL    HW116408   7.706   7.467   4.818 -1.0205 -1.3257  3.5440
 3984SOL    HW216409   7.857   7.465   4.834 -0.6442  0.2117  0.8482
 3985SOL     OW16410   8.822   9.160   6.344  0.1920 -0.3580 -0.2859
 3985SOL    HW116411   8.825   9.178   6.250 -3.4166 -0.6051 -0.5978
 3985SOL    HW216412   8.874   9.080   6.355 -0.4036 -1.0853 -2.3224
 3986SOL     OW16413   6.709   3.992   4.843 -0.5180 -0.1177 -0.4458
 3986SOL    HW116414   6.694   3.949   4.927  0.7452 -0.1402 -0.1994
 3986SOL    HW216415   6.709   3.921   4.779 -1.5951 -0.0864 -0.4841
 3987SOL     OW16416   0.127   7.460   2.993  0.8627 -0.0926  0.2982
 3987SOL    HW116417   0.138   7.462   3.088 -0.1348  0.1222  0.4129
 3987SOL    HW216418   0.188   7.393   2.963  2.2061  0.7879  0.9489
 3988SOL     OW16419   9.493   8.552   5.475  0.4368 -0.6380  0.2026
 3988SOL    HW116420   9.486   8.634   5.425 -0.6033 -0.5314  0.4976
 3988SOL    HW216421   9.479   8.578   5.566 -1.4928 -1.3288  0.1465
 3989SOL     OW16422   2.839   8.639   0.180  0.2960  0.3448 -0.4680
 3989SOL    HW116423   2.913   8.585   0.208 -0.2858 -0.3484 -0.2206
 3989SOL    HW216424   2.828   8.619   0.088 -1.3233 -1.7413  0.1012
 3990SOL     OW16425   3.785   5.376   6.050 -0.3443 -0.3833 -0.2222
 3990SOL    HW116426   3.864   5.427   6.064  0.0959 -0.8705 -0.8557
 3990SOL    HW216427   3.755   5.400   5.962 -1.3902  0.4368  0.3442
 3991SOL     OW16428   2.404   9.198   5.459  0.0384 -0.1331  0.3380
 3991SOL    HW116429   2.482   9.231   5.504  0.4534  1.6486 -1.4905
 3991SOL    HW216430   2.355   9.277   5.437 -0.7642 -0.9982 -1.1324
 3992SOL     OW16431   9.776   0.544   1.020 -0.2132  0.1806 -0.4796
 3992SOL    HW116432   9.695   0.592   1.002 -0.8625 -0.8611 -0.4916
 3992SOL    HW216433   9.813   0.527   0.934  0.6162  1.5934 -0.4301
 3993SOL     OW16434  10.406   8.957   4.082 -0.4582 -0.1250 -0.0132
 3993SOL    HW116435  10.477   9.013   4.113  0.2016 -0.2511 -1.2376
 3993SOL    HW216436  10.336   9.018   4.058 -1.8975 -0.0786  3.6336
 3994SOL     OW16437   9.855   0.441   4.080 -0.1632 -0.6170 -0.4409
 3994SOL    HW116438   9.795   0.499   4.125  1.4542  0.4126  0.4889
 3994SOL    HW216439   9.862   0.478   3.992 -0.1122 -0.1393 -0.2391
 3995SOL     OW16440   0.161   5.084   4.400 -0.3055  0.0637 -0.5140
 3995SOL    HW116441   0.153   5.082   4.495 -1.5882  1.3669 -0.5625
 3995SOL    HW216442   0.247   5.046   4.382 -1.1497 -2.8541  0.9712
 3996SOL     OW16443   5.543   8.819   4.205  0.6944  0.6118 -0.1005
 3996SOL    HW116444   5.460   8.810   4.251  0.3847 -1.7905 -0.9966
 3996SOL    HW216445   5.607   8.775   4.261  1.1102  1.2135 -0.0892
 3997SOL     OW16446   3.565   9.941   1.050  0.4577 -0.0295  0.6167
 3997SOL    HW116447   3.493   9.879   1.059  0.7387 -0.5348 -0.4612
 3997SOL    HW216448   3.544  10.011   1.112 -1.2579  0.1103 -0.0614
 3998SOL     OW16449   9.995   9.364   2.278 -0.1737  0.0367 -0.4906
 3998SOL    HW116450  10.055   9.318   2.337 -0.3975  0.6638  0.2573
 3998SOL    HW216451  10.037   9.449   2.263  0.2077 -0.3681 -1.8070
 3999SOL     OW16452   5.294   4.221   3.260 -0.2542  0.0622 -0.0544
 3999SOL    HW116453   5.298   4.144   3.203 -1.3862  0.4053 -0.6180
 3999SOL    HW216454   5.202   4.231   3.281  0.1739 -0.4672  2.4621
 4000SOL     OW16455  10.635   6.156   0.800 -0.0986  0.5562 -0.0026
 4000SOL    HW116456  10.585   6.086   0.841 -0.8645  0.6202 -0.7969
 4000SOL    HW216457  10.638   6.133   0.707  0.7796  0.9028 -0.0689
 4001SOL     OW16458   8.225   4.082   1.888  0.1015 -0.2440 -0.6070
 4001SOL    HW116459   8.202   4.114   1.801 -2.5748 -1.5347 -0.4710
 4001SOL    HW216460   8.145   4.043   1.922  1.4211 -1.0413  1.9092
 4002SOL     OW16461   9.300   4.932   8.263  0.4063  0.3879  0.4255
 4002SOL    HW116462   9.287   4.965   8.352  1.4022 -0.6009  0.9813
 4002SOL    HW216463   9.393   4.907   8.261  1.2038  3.1035 -1.8560
 4003SOL     OW16464   9.334   1.127   1.103  0.7556  0.1109 -0.1895
 4003SOL    HW116465   9.315   1.088   1.018  0.5136  0.1885 -0.1725
 4003SOL    HW216466   9.352   1.053   1.160 -0.3072 -0.0255 -0.0053
 4004SOL     OW16467  10.862   2.224  10.237  0.1691  0.1302  0.3123
 4004SOL    HW116468  10.882   2.237  10.330  0.0321 -0.7543  0.4686
 4004SOL    HW216469  10.825   2.136  10.232 -0.2665  0.3487 -0.5140
 4005SOL     OW16470   3.824  10.726   3.168 -0.0830  0.1173 -0.0419
 4005SOL    HW116471   3.902  10.747   3.117 -1.2489  0.4191 -1.7963
 4005SOL    HW216472   3.762  10.692   3.103 -1.2648 -0.5105  1.3736
 4006SOL     OW16473   4.393   9.836  11.075  0.0762  0.2588 -0.1054
 4006SOL    HW116474   4.360   9.818  11.164 -1.0427  0.6641 -0.4286
 4006SOL    HW216475   4.485   9.861  11.089  0.6498 -2.0217  0.7156
 4007SOL     OW16476   9.958   0.467   0.798  0.3258  0.0665  0.1251
 4007SOL    HW116477   9.937   0.528   0.727 -0.7539 -1.0953 -0.5818
 4007SOL    HW216478   9.909   0.388   0.777  0.7875 -0.6511  1.6448
 4008SOL     OW16479   9.163   8.330   3.241 -0.0108  0.4473 -0.0173
 4008SOL    HW116480   9.238   8.271   3.247  0.3794  0.8724 -0.5559
 4008SOL    HW216481   9.144   8.355   3.331  0.2329  0.0106  0.1571
 4009SOL     OW16482   3.998   4.904   6.064 -0.0708  0.4882 -0.4768
 4009SOL    HW116483   3.918   4.938   6.025  0.7763  0.7013 -2.0922
 4009SOL    HW216484   4.048   4.869   5.991  0.3890 -1.6181  0.7474
 4010SOL     OW16485   8.881   7.614   1.443  0.0281 -0.4912 -0.1286
 4010SOL    HW116486   8.881   7.672   1.367 -2.6286  0.5769  0.5683
 4010SOL    HW216487   8.974   7.593   1.458  1.0265  2.7756 -1.0194
 4011SOL     OW16488   8.340   3.976   2.379 -0.6938 -0.7938  0.0644
 4011SOL    HW116489   8.384   3.912   2.434 -1.8274 -1.2341  0.4988
 4011SOL    HW216490   8.340   3.938   2.292 -0.9764 -1.1901  0.2346
 4012SOL     OW16491   1.012   2.361   9.236  0.5600 -0.2346  0.2913
 4012SOL    HW116492   0.944   2.302   9.204  1.3310 -0.5438 -0.8795
 4012SOL    HW216493   0.982   2.390   9.322 -1.7078  0.7341 -0.7654
 4013SOL     OW16494   3.745   4.915   0.074  0.2060 -0.0594  0.5120
 4013SOL    HW116495   3.693   4.990   0.045  0.8617 -0.5782 -2.3012
 4013SOL    HW216496   3.820   4.953   0.119 -1.3259  0.7735  2.5062
 4014SOL     OW16497   6.758   7.081   1.070  0.6204  0.2675  0.1604
 4014SOL    HW116498   6.770   7.099   0.976 -1.6815  1.2995  0.0141
 4014SOL    HW216499   6.757   7.167   1.111  2.1143 -0.1954  1.2580
 4015SOL     OW16500   5.642   7.113   3.753 -0.2199 -0.3648 -0.2063
 4015SOL    HW116501   5.659   7.172   3.827  0.8112  0.1565 -0.8330
 4015SOL    HW216502   5.588   7.043   3.790  0.3369 -0.1558  1.0544
 4016SOL     OW16503   1.601   3.921   7.092 -0.0597 -0.3166  0.1689
 4016SOL    HW116504   1.654   3.909   7.171 -0.4282 -0.0584  0.4617
 4016SOL    HW216505   1.591   3.833   7.056  1.2344 -0.2724 -0.3360
 4017SOL     OW16506   1.229   7.304   7.269 -0.0050  0.3349 -0.2515
 4017SOL    HW116507   1.239   7.209   7.280  0.5588  0.6446  2.4643
 4017SOL    HW216508   1.143   7.314   7.229 -0.8749 -1.2753  1.0799
 4018SOL     OW16509   9.875   2.142   4.375  0.4879 -0.0439 -0.3332
 4018SOL    HW116510   9.950   2.184   4.418  0.3548 -1.2982  1.2347
 4018SOL    HW216511   9.800   2.193   4.404  0.5735  0.2608 -0.6364
 4019SOL     OW16512  10.020   7.394   9.142 -0.2585 -0.4693 -0.3904
 4019SOL    HW116513   9.956   7.326   9.120  1.2059 -1.6043 -1.3395
 4019SOL    HW216514   9.971   7.456   9.196 -2.0266 -1.5249 -0.6875
 4020SOL     OW16515   2.027   7.331   0.135  0.5924 -0.2499  0.2032
 4020SOL    HW116516   2.113   7.322   0.094  1.0360  0.3078  0.9954
 4020SOL    HW216517   2.032   7.275   0.212  0.1561 -0.3884  0.1333
 4021SOL     OW16518   3.496   8.158   0.645  0.2236 -0.2965  0.4021
 4021SOL    HW116519   3.589   8.143   0.632  0.2600  1.5730 -2.5840
 4021SOL    HW216520   3.456   8.134   0.561 -1.1491  3.8294 -0.3758
 4022SOL     OW16521   0.916   3.395   8.815 -0.1998  0.1571  0.1574
 4022SOL    HW116522   0.864   3.471   8.842  0.6068  0.9079 -0.3266
 4022SOL    HW216523   0.934   3.348   8.896 -1.0973  0.2270  0.4091
 4023SOL     OW16524   5.172   4.746   3.630  0.1424  0.0625  0.0350
 4023SOL    HW116525   5.203   4.676   3.572  0.0739  0.5805 -0.6520
 4023SOL    HW216526   5.131   4.809   3.570  1.1404  1.2010  0.5189
 4024SOL     OW16527   3.052   0.397   3.132  0.3994 -0.2896 -0.6996
 4024SOL    HW116528   3.077   0.403   3.224  1.5745  2.1476 -1.1183
 4024SOL    HW216529   3.125   0.352   3.090  0.6443  0.1033 -0.7004
 4025SOL     OW16530   4.836   6.112   0.217 -0.0955  0.7341 -0.1160
 4025SOL    HW116531   4.816   6.095   0.309 -0.5998 -0.2209 -0.3890
 4025SOL    HW216532   4.926   6.081   0.206  0.4155  1.9937  0.3334
 4026SOL     OW16533   4.599   1.880   4.254  0.3189  0.2463  0.7090
 4026SOL    HW116534   4.586   1.911   4.344  0.4971  0.7546  0.5609
 4026SOL    HW216535   4.511   1.875   4.217  0.3926  2.5865  0.0700
 4027SOL     OW16536   1.506   8.527   9.979 -0.1451 -0.1077 -0.1270
 4027SOL    HW116537   1.451   8.605   9.984  0.1414  0.0265  1.1470
 4027SOL    HW216538   1.566   8.544   9.906 -0.4727  0.5979 -0.2345
 4028SOL     OW16539   6.227   8.480   4.304 -0.1600  0.8670  0.3527
 4028SOL    HW116540   6.251   8.479   4.397 -0.1543 -1.1729  0.3670
 4028SOL    HW216541   6.311   8.481   4.257 -0.1003 -0.6361  0.3952
 4029SOL     OW16542   0.353  10.993   4.177 -0.9462  0.1732  0.2229
 4029SOL    HW116543   0.367  10.903   4.206  1.8011  0.7878  0.9873
 4029SOL    HW216544   0.283  11.025   4.233 -1.9990 -1.4247 -0.0726
 4030SOL     OW16545   8.259   5.293   8.890 -0.0482 -0.5409  0.6270
 4030SOL    HW116546   8.212   5.370   8.858 -0.8074 -1.0059  0.6040
 4030SOL    HW216547   8.227   5.221   8.835  1.5709 -0.6814 -0.2091
 4031SOL     OW16548   1.097   6.664   1.290  0.1718 -0.4182 -0.5761
 4031SOL    HW116549   1.165   6.600   1.268  1.5200  0.6388  0.3363
 4031SOL    HW216550   1.055   6.628   1.369  1.8221  0.3813  0.7398
 4032SOL     OW16551   0.141   8.999   5.124  0.2403 -0.1377 -0.2419
 4032SOL    HW116552   0.095   8.917   5.144  0.4413 -0.1081  0.3745
 4032SOL    HW216553   0.168   9.032   5.210  0.1220  0.5976 -0.4823
 4033SOL     OW16554   4.879  10.102   0.940  0.6411 -0.2461  0.3839
 4033SOL    HW116555   4.787  10.119   0.920  0.9549  0.5871 -0.4136
 4033SOL    HW216556   4.888  10.122   1.033 -0.1537 -1.1177  0.6635
 4034SOL     OW16557  10.011   9.339   7.270 -0.1920 -1.0716  0.1700
 4034SOL    HW116558   9.934   9.299   7.310 -0.0196  0.4007  2.1310
 4034SOL    HW216559  10.066   9.265   7.245 -1.6152 -2.1228 -0.0077
 4035SOL     OW16560   2.467   6.632   7.798 -0.1173 -0.0935  0.5888
 4035SOL    HW116561   2.444   6.710   7.747  0.7661 -0.5983 -0.6243
 4035SOL    HW216562   2.418   6.561   7.757 -1.2973 -0.1402  1.9851
 4036SOL     OW16563   8.348   2.501   7.406  0.2163  0.9277 -0.6682
 4036SOL    HW116564   8.313   2.465   7.324 -1.0473  2.2725 -0.7682
 4036SOL    HW216565   8.431   2.542   7.380  0.6673 -0.1352 -0.9305
 4037SOL     OW16566   0.992  10.889   3.954  0.1068  0.1371  0.0837
 4037SOL    HW116567   0.924  10.876   3.888  0.2090 -0.6385  0.1197
 4037SOL    HW216568   1.036  10.803   3.960  1.1073  0.6258  0.0294
 4038SOL     OW16569   6.960   7.108   2.322 -0.0630 -0.4665 -0.0750
 4038SOL    HW116570   7.001   7.058   2.252  0.9564  0.5694 -0.2459
 4038SOL    HW216571   6.866   7.106   2.301  0.0986 -1.2172 -0.7687
 4039SOL     OW16572   4.072   8.854   3.701  0.4564  0.0224  0.3797
 4039SOL    HW116573   4.157   8.894   3.682 -0.0526  0.6058 -0.7937
 4039SOL    HW216574   4.080   8.764   3.669  1.3531 -0.6423  2.3349
 4040SOL     OW16575   3.389  10.534   8.164 -0.0600  0.3746 -0.2878
 4040SOL    HW116576   3.326  10.506   8.098 -1.0771 -0.9042  1.1357
 4040SOL    HW216577   3.456  10.466   8.163 -0.2406  0.1792  0.1640
 4041SOL     OW16578   8.272   6.605   3.304  0.1375 -0.2345  0.3993
 4041SOL    HW116579   8.293   6.645   3.388 -2.6049  0.8794  0.6671
 4041SOL    HW216580   8.269   6.511   3.322  0.4513 -0.0766  1.3196
 4042SOL     OW16581   2.799   3.178   0.689  0.2981  0.1518  0.2587
 4042SOL    HW116582   2.827   3.253   0.741  0.3897  0.2858  0.0220
 4042SOL    HW216583   2.865   3.172   0.619  0.5202 -0.3993  0.5057
 4043SOL     OW16584  10.215   7.264   5.295 -0.2508 -0.0385  0.0733
 4043SOL    HW116585  10.205   7.321   5.372  1.6326 -0.5671  0.7619
 4043SOL    HW216586  10.217   7.325   5.221  0.4127  0.7074  0.6817
 4044SOL     OW16587   7.032   9.772   6.855  0.0111  0.2650 -0.2433
 4044SOL    HW116588   7.024   9.700   6.793 -0.4065  0.0296  0.0786
 4044SOL    HW216589   6.942   9.800   6.872  0.0183 -0.5186  1.2260
 4045SOL     OW16590   3.371   5.856   3.494  0.1099  0.0503  0.0218
 4045SOL    HW116591   3.314   5.784   3.523 -0.5097  0.4823 -0.1081
 4045SOL    HW216592   3.351   5.928   3.554  1.9129 -0.3669  1.2090
 4046SOL     OW16593   2.876   6.946   6.260  0.1747  0.0704 -0.1939
 4046SOL    HW116594   2.904   7.016   6.201 -0.9247  1.5272  0.9394
 4046SOL    HW216595   2.890   6.866   6.209  3.8686  0.8058 -0.6325
 4047SOL     OW16596   9.802   3.989   5.099 -0.4573  0.4334  0.1827
 4047SOL    HW116597   9.795   3.953   5.188  0.8596  1.2453  0.6449
 4047SOL    HW216598   9.807   3.912   5.042  0.4848 -0.1177  0.9821
 4048SOL     OW16599   4.168   0.651   8.879 -0.0374 -0.4477 -0.1620
 4048SOL    HW116600   4.096   0.635   8.940  0.6015 -1.1209  0.4373
 4048SOL    HW216601   4.242   0.602   8.916  0.4395 -0.6377 -1.3309
 4049SOL     OW16602   6.288   2.142   1.460  0.3534  0.5337 -0.1564
 4049SOL    HW116603   6.235   2.062   1.455 -1.3092  1.6086 -0.6189
 4049SOL    HW216604   6.377   2.111   1.476 -0.3520 -1.3752  0.3619
 4050SOL     OW16605   5.121   8.940   7.218  0.1111 -0.2249  0.4298
 4050SOL    HW116606   5.207   8.949   7.177  0.6699 -1.2448  1.3255
 4050SOL    HW216607   5.066   9.003   7.172  1.5391  1.0628  0.4088
 4051SOL     OW16608   3.931   0.106   5.573 -0.1542 -0.1356 -0.2048
 4051SOL    HW116609   3.844   0.146   5.580 -0.8531 -1.2901 -1.6331
 4051SOL    HW216610   3.919   0.036   5.508  2.0773  0.3007 -1.1647
 4052SOL     OW16611   6.956   7.751   6.095  0.0222 -0.0372 -1.0073
 4052SOL    HW116612   6.948   7.757   6.190  0.4671  2.6484 -1.0666
 4052SOL    HW216613   6.904   7.674   6.071 -2.7469  0.9952  1.1273
 4053SOL     OW16614   2.089   2.518   0.191 -0.7156  0.3692 -0.6791
 4053SOL    HW116615   2.180   2.512   0.162 -0.9094 -1.1398 -1.0650
 4053SOL    HW216616   2.088   2.593   0.251  0.5681  0.9864 -1.3911
 4054SOL     OW16617   9.378   9.701   9.551 -0.3751  0.1690 -0.1423
 4054SOL    HW116618   9.373   9.649   9.471  3.6856 -0.9511  0.1549
 4054SOL    HW216619   9.344   9.643   9.619  1.4665 -1.1003 -0.2531
 4055SOL     OW16620   7.411   1.523   2.314  0.2462 -0.2189 -0.1838
 4055SOL    HW116621   7.330   1.556   2.354  0.6444 -0.7097  1.0691
 4055SOL    HW216622   7.392   1.521   2.221 -0.6138  1.2704 -0.0784
 4056SOL     OW16623   0.664   0.140   4.362  0.3326 -0.0508 -0.4188
 4056SOL    HW116624   0.759   0.145   4.372  0.4984 -1.2691 -1.1026
 4056SOL    HW216625   0.643   0.202   4.293  0.8067 -0.6253 -1.0991
 4057SOL     OW16626   3.359   6.273  10.987  0.1071  0.2575  0.3879
 4057SOL    HW116627   3.405   6.236  10.912 -1.3655 -1.3944  0.2394
 4057SOL    HW216628   3.429   6.302  11.046  1.2910  0.6528 -1.1382
 4058SOL     OW16629   3.011   3.266   6.002 -0.3571  0.1264 -0.0894
 4058SOL    HW116630   3.086   3.274   5.943 -0.3845 -0.4355 -0.2070
 4058SOL    HW216631   3.025   3.182   6.047 -0.7817  0.1379  0.0672
 4059SOL     OW16632   8.117   7.050   0.232 -0.0537  0.0750  0.1157
 4059SOL    HW116633   8.118   7.067   0.327  0.6487 -1.8017  0.5103
 4059SOL    HW216634   8.027   7.025   0.213 -0.1595  0.2920  0.3245
 4060SOL     OW16635   2.673   0.308   5.080  0.7863  0.3631 -0.0761
 4060SOL    HW116636   2.586   0.283   5.047  1.3091 -1.5744 -0.0870
 4060SOL    HW216637   2.676   0.273   5.169  1.8541 -0.3201 -0.3636
 4061SOL     OW16638   2.037   3.341   6.034  0.1776  0.1424  0.1575
 4061SOL    HW116639   1.965   3.336   6.097 -1.4972 -1.2203 -1.7043
 4061SOL    HW216640   2.108   3.383   6.081 -1.4979  0.6084  2.4316
 4062SOL     OW16641   8.762   8.774  10.494 -0.2243  0.1084  0.1704
 4062SOL    HW116642   8.762   8.870  10.500  0.3905  0.1223 -0.0928
 4062SOL    HW216643   8.824   8.746  10.561 -1.1734 -0.1593  0.9686
 4063SOL     OW16644   3.001   9.591   4.637 -0.5583 -0.6065 -0.2571
 4063SOL    HW116645   3.044   9.566   4.719 -0.9900 -1.8396 -0.3919
 4063SOL    HW216646   2.973   9.509   4.598  0.0369 -0.0794 -1.8897
 4064SOL     OW16647   1.770   4.520   0.119  0.8214 -1.2798  0.4563
 4064SOL    HW116648   1.718   4.474   0.053  2.3450 -3.3258  0.5772
 4064SOL    HW216649   1.752   4.473   0.200 -0.0552  0.4181  1.2895
 4065SOL     OW16650   7.479  10.324   4.350  0.1331 -0.1676 -0.2476
 4065SOL    HW116651   7.452  10.415   4.363 -1.6625 -0.7643  0.5019
 4065SOL    HW216652   7.570  10.321   4.379 -0.1952  1.1123  0.9981
 4066SOL     OW16653   8.310   8.900   6.661 -0.1414  0.0704 -0.2374
 4066SOL    HW116654   8.238   8.928   6.604 -0.7625  0.8067  0.8786
 4066SOL    HW216655   8.375   8.970   6.654 -0.1639  0.1000 -0.1482
 4067SOL     OW16656   3.095   1.607   3.538  0.3387 -0.1586  0.2307
 4067SOL    HW116657   3.148   1.684   3.520 -0.0404  0.0963  0.1975
 4067SOL    HW216658   3.027   1.609   3.470 -1.2265  0.9077  1.7537
 4068SOL     OW16659   6.624   5.166   8.813 -0.3270  0.1896  0.4970
 4068SOL    HW116660   6.554   5.191   8.753 -0.8678  0.9830  1.4086
 4068SOL    HW216661   6.664   5.088   8.774 -1.3870  0.0256 -0.3034
 4069SOL     OW16662   6.769   6.782   6.438  0.0407 -0.3628  0.0887
 4069SOL    HW116663   6.803   6.703   6.480 -0.9760  0.1481  2.0101
 4069SOL    HW216664   6.708   6.750   6.372  0.4567 -1.1830  0.0905
 4070SOL     OW16665   1.461  10.964   9.417  0.1374  0.2048  0.5437
 4070SOL    HW116666   1.488  10.923   9.499 -0.2637 -0.6732  0.2596
 4070SOL    HW216667   1.539  11.008   9.385  0.5346 -0.1647  0.9803
 4071SOL     OW16668  10.254   9.169   9.516 -0.6204  0.2576 -0.2094
 4071SOL    HW116669  10.258   9.252   9.564 -0.5298 -0.0704  0.3565
 4071SOL    HW216670  10.205   9.190   9.436  0.2254  1.0754 -0.5278
 4072SOL     OW16671   0.515   5.785   2.468 -0.0546  0.2557 -0.1741
 4072SOL    HW116672   0.478   5.800   2.555 -0.7896  1.6979 -0.6995
 4072SOL    HW216673   0.533   5.691   2.465 -2.1045 -0.2164  0.7325
 4073SOL     OW16674   3.900   9.274   8.177 -0.0998  0.2961  0.0106
 4073SOL    HW116675   3.870   9.317   8.097  0.2988 -0.1685 -0.3971
 4073SOL    HW216676   3.847   9.313   8.247 -1.1806 -0.0236 -0.6086
 4074SOL     OW16677   7.392   1.582   7.938 -0.2671  0.1037 -0.2390
 4074SOL    HW116678   7.402   1.676   7.925 -1.2082  0.5206  1.6449
 4074SOL    HW216679   7.410   1.543   7.852 -0.2826  2.0217 -1.1527
 4075SOL     OW16680   3.587   9.287   6.741 -0.2242  0.0588  0.0940
 4075SOL    HW116681   3.677   9.291   6.776 -1.1301 -0.6060  2.7919
 4075SOL    HW216682   3.570   9.375   6.708  1.7176 -0.0632 -1.3833
 4076SOL     OW16683   2.665   4.357   9.391  0.1469  0.5035  0.1659
 4076SOL    HW116684   2.713   4.297   9.449 -2.8212 -1.0047  1.3011
 4076SOL    HW216685   2.668   4.441   9.436  0.5405  0.0913  0.9269
 4077SOL     OW16686   2.502   9.923   4.895 -0.4981  0.0330 -0.7302
 4077SOL    HW116687   2.522   9.932   4.988  1.6657 -0.6920 -1.0651
 4077SOL    HW216688   2.412   9.956   4.886 -0.7708  0.0767  1.5953
 4078SOL     OW16689   5.714   1.038   9.847 -0.1216  0.3078 -0.6666
 4078SOL    HW116690   5.639   1.074   9.893  1.4174  0.9734  1.5156
 4078SOL    HW216691   5.683   1.022   9.758 -2.1812  2.7084 -0.4805
 4079SOL     OW16692   2.705   6.639  10.393 -0.4482 -0.4629 -0.3125
 4079SOL    HW116693   2.713   6.583  10.470  0.3552  0.0952  0.0163
 4079SOL    HW216694   2.621   6.683  10.404  0.1707  0.4888  0.8470
 4080SOL     OW16695   1.228   3.410   9.201  0.0993 -0.1454  0.4312
 4080SOL    HW116696   1.163   3.343   9.222 -0.5485  0.4247  0.3064
 4080SOL    HW216697   1.203   3.485   9.254 -0.5776  0.7639 -1.0890
 4081SOL     OW16698   9.480   5.366   7.600 -0.6572 -0.8661  0.3750
 4081SOL    HW116699   9.487   5.276   7.633  4.0913 -1.9358 -2.6343
 4081SOL    HW216700   9.498   5.421   7.676  0.1218 -2.6538  1.5439
 4082SOL     OW16701  10.253   3.391   6.012 -0.3868 -0.4839 -0.1993
 4082SOL    HW116702  10.245   3.454   6.084 -0.4628  0.0038 -0.6237
 4082SOL    HW216703  10.181   3.329   6.027 -1.6331  0.7152 -0.9030
 4083SOL     OW16704   9.335   0.939   6.600  0.2291  0.2026 -0.0678
 4083SOL    HW116705   9.246   0.972   6.586  0.0650  0.3891  1.2231
 4083SOL    HW216706   9.392   1.012   6.576 -0.0900  1.0540  1.5755
 4084SOL     OW16707   8.444   8.142   1.360  0.5073 -0.5668 -0.1721
 4084SOL    HW116708   8.380   8.072   1.360 -0.3663  0.2148 -0.2103
 4084SOL    HW216709   8.443   8.176   1.271 -2.1627  2.1935  0.7329
 4085SOL     OW16710   4.862   3.119   3.483  0.5765 -0.4250 -0.5980
 4085SOL    HW116711   4.910   3.067   3.419 -0.8534 -0.7307 -1.4564
 4085SOL    HW216712   4.800   3.170   3.431 -1.7557 -1.8613  0.5931
 4086SOL     OW16713   7.630   8.250   2.959  0.7221  0.3689  0.1827
 4086SOL    HW116714   7.572   8.325   2.946  1.4726  0.8979 -0.2455
 4086SOL    HW216715   7.687   8.251   2.882  0.5040 -0.8712 -0.0044
 4087SOL     OW16716   1.542   5.811   3.303  0.1495  0.3001 -0.1144
 4087SOL    HW116717   1.463   5.802   3.357  1.7368  0.2265  2.3518
 4087SOL    HW216718   1.608   5.845   3.363  1.7073  1.6160 -2.4038
 4088SOL     OW16719   9.858   6.205   3.255  0.0194  0.1219 -0.0420
 4088SOL    HW116720   9.778   6.168   3.219  0.6802 -1.0505 -0.3707
 4088SOL    HW216721   9.864   6.292   3.217 -1.5571  0.5888  0.7101
 4089SOL     OW16722  10.853   0.439   8.167 -0.0308  0.4035 -0.0871
 4089SOL    HW116723  10.879   0.453   8.076 -1.1328 -0.6709 -0.5994
 4089SOL    HW216724  10.770   0.392   8.161  0.4690 -0.7564  1.4812
 4090SOL     OW16725   0.061   5.953  10.526 -0.2052  0.0628  0.2801
 4090SOL    HW116726   0.128   5.999  10.475  0.6522  0.7055  1.9251
 4090SOL    HW216727   0.016   6.021  10.576  0.7773 -0.7518  2.4067
 4091SOL     OW16728   0.723   5.936   8.074 -0.2701 -0.3084  0.6739
 4091SOL    HW116729   0.814   5.911   8.093  0.0015 -1.7010 -2.0382
 4091SOL    HW216730   0.730   6.005   8.008 -1.1155 -1.9489 -1.2287
 4092SOL     OW16731   4.090   6.539   3.876 -0.1826  0.2296  0.1194
 4092SOL    HW116732   4.100   6.500   3.963 -0.1920 -1.1886 -0.4959
 4092SOL    HW216733   4.012   6.594   3.884 -0.8815 -0.8004  0.7116
 4093SOL     OW16734   2.645   5.755   1.145 -0.1388  0.3703 -0.5843
 4093SOL    HW116735   2.606   5.676   1.183  0.5668  0.1520 -0.3152
 4093SOL    HW216736   2.615   5.826   1.202  2.1038 -0.1086  1.3179
 4094SOL     OW16737   3.280   6.494   6.531  0.5767  0.8727 -0.3014
 4094SOL    HW116738   3.260   6.508   6.439  2.1936  2.2797 -0.5101
 4094SOL    HW216739   3.248   6.407   6.551 -0.6662  0.9254 -1.9343
 4095SOL     OW16740   3.250  10.751  10.765  0.0564 -0.2973 -0.0493
 4095SOL    HW116741   3.266  10.826  10.822  0.1595  1.6576 -2.4638
 4095SOL    HW216742   3.156  10.733  10.775  0.1691 -0.3221  1.0719
 4096SOL     OW16743   2.454   1.548   1.712  0.0312 -0.3133  0.1666
 4096SOL    HW116744   2.416   1.475   1.760 -0.4408 -0.8676 -1.0188
 4096SOL    HW216745   2.484   1.608   1.780  0.3016 -1.5293  1.1639
 4097SOL     OW16746   2.109  10.132   5.861  0.5781  0.1971  0.3376
 4097SOL    HW116747   2.147  10.045   5.871  1.4285  0.5844  0.6210
 4097SOL    HW216748   2.172  10.190   5.905  0.1384  0.9752 -0.0446
 4098SOL     OW16749  10.444   3.781   9.390  0.2418  0.1004 -0.0782
 4098SOL    HW116750  10.357   3.815   9.369  0.5431  0.4607 -0.7731
 4098SOL    HW216751  10.491   3.855   9.428  0.5532  0.1776 -0.6054
 4099SOL     OW16752   4.248  10.599   2.732  0.6537  0.4237  0.1499
 4099SOL    HW116753   4.172  10.645   2.698 -0.3031  0.1941  1.8443
 4099SOL    HW216754   4.236  10.508   2.704  0.3315  0.4045  0.3430
 4100SOL     OW16755   6.040   8.765   8.124  0.4748  0.1784 -0.3092
 4100SOL    HW116756   6.101   8.739   8.194 -1.3953 -2.1991  0.5762
 4100SOL    HW216757   5.985   8.832   8.164 -0.2048 -0.7495  0.3529
 4101SOL     OW16758   5.783   6.475   2.452  0.1460 -0.8737 -0.9821
 4101SOL    HW116759   5.766   6.492   2.359  1.5264 -0.7680 -1.2373
 4101SOL    HW216760   5.850   6.538   2.477  0.5900 -1.6209 -0.2085
 4102SOL     OW16761   8.474   0.221   7.094 -0.1636 -0.4184 -0.1222
 4102SOL    HW116762   8.568   0.231   7.107  0.0514 -0.2601 -1.5909
 4102SOL    HW216763   8.437   0.305   7.120 -0.0455 -0.8333  1.4817
 4103SOL     OW16764  10.301   8.978   7.625 -0.0710  0.2884  0.3226
 4103SOL    HW116765  10.299   8.987   7.529  0.6300 -1.0139  0.1590
 4103SOL    HW216766  10.235   9.040   7.656  0.9956  2.1575 -0.8902
 4104SOL     OW16767   5.651   2.429   7.422 -0.3507  0.1264  0.2685
 4104SOL    HW116768   5.642   2.488   7.347  0.5238 -1.0122 -0.7830
 4104SOL    HW216769   5.671   2.486   7.496 -0.5464  1.2228 -0.5087
 4105SOL     OW16770   8.587   5.640   0.025  0.2606 -0.3800 -0.0065
 4105SOL    HW116771   8.533   5.699   0.077 -0.1736 -0.3085 -0.5346
 4105SOL    HW216772   8.568   5.553   0.059  2.0441 -0.1283  1.8262
 4106SOL     OW16773   9.845   2.919   5.171  0.2548 -0.5343 -0.2937
 4106SOL    HW116774   9.772   2.930   5.232  0.4406  2.2461 -0.4061
 4106SOL    HW216775   9.922   2.946   5.221  0.5447  0.8120 -1.3759
 4107SOL     OW16776   5.291   5.036   6.468  0.4102 -0.1129  0.1230
 4107SOL    HW116777   5.297   5.077   6.382  1.9051  0.2376  0.3643
 4107SOL    HW216778   5.369   4.981   6.474  0.2678 -0.2229  1.1953
 4108SOL     OW16779   8.581  10.944   7.029  0.6333 -0.0710  0.5993
 4108SOL    HW116780   8.496  10.903   7.012  0.6920  0.2068 -0.4358
 4108SOL    HW216781   8.580  11.024   6.978  0.7127  1.0092  2.2333
 4109SOL     OW16782   3.456   8.097   1.475 -0.2065  0.0498  0.0349
 4109SOL    HW116783   3.387   8.077   1.538 -2.0005 -1.2173 -2.1406
 4109SOL    HW216784   3.430   8.181   1.436  0.5376  0.5153  0.5370
 4110SOL     OW16785   1.853   4.320   5.214  0.0683  0.1166  0.1307
 4110SOL    HW116786   1.891   4.398   5.175 -0.4090 -0.4014 -1.4344
 4110SOL    HW216787   1.759   4.338   5.217  0.2087  0.9057  2.8643
 4111SOL     OW16788   3.740   0.871   9.001 -0.2636 -0.2511 -0.1449
 4111SOL    HW116789   3.659   0.912   9.032  0.4324 -0.3598  1.9466
 4111SOL    HW216790   3.759   0.917   8.919 -1.7659  0.6473 -0.0370
 4112SOL     OW16791  10.749   9.080   9.841 -0.2584  0.0230  0.3803
 4112SOL    HW116792  10.678   9.031   9.883 -1.8454  1.4554 -0.5221
 4112SOL    HW216793  10.760   9.038   9.756 -1.0153  0.6555 -0.0414
 4113SOL     OW16794   9.018   8.068  10.775 -0.0557  0.5909 -0.3612
 4113SOL    HW116795   9.083   8.103  10.836 -0.4180  0.6283  0.0050
 4113SOL    HW216796   8.952   8.137  10.769  0.2300  0.8073 -1.1978
 4114SOL     OW16797   1.300   6.622   8.394  0.2161  0.2945 -0.1942
 4114SOL    HW116798   1.222   6.617   8.450 -0.1502 -1.0816 -0.7661
 4114SOL    HW216799   1.350   6.544   8.416  1.3332  1.0429 -0.0170
 4115SOL     OW16800   9.609   9.486   1.375 -0.2622  0.5094  0.0014
 4115SOL    HW116801   9.632   9.417   1.438  1.5215  0.8143 -0.2562
 4115SOL    HW216802   9.528   9.455   1.335 -0.1138 -0.8901  0.6990
 4116SOL     OW16803   3.431   6.388   7.146 -0.4765 -0.0905  0.4563
 4116SOL    HW116804   3.443   6.429   7.060  0.4186 -0.6909  0.2867
 4116SOL    HW216805   3.336   6.389   7.159 -0.5690  0.7302 -0.1767
 4117SOL     OW16806   9.748   3.704  10.705 -0.6768  0.5188 -0.3225
 4117SOL    HW116807   9.821   3.735  10.652 -0.5867  0.7835 -0.0468
 4117SOL    HW216808   9.734   3.614  10.675 -0.0218  0.3515 -0.1583
 4118SOL     OW16809   3.193   0.007   4.311  0.2519 -0.2455 -0.5014
 4118SOL    HW116810   3.248   0.004   4.232  0.7428 -0.6138 -0.1509
 4118SOL    HW216811   3.211   0.093   4.349  0.5535 -0.3507 -0.4080
 4119SOL     OW16812   9.170   6.756   4.614  0.1992  0.6524 -0.6705
 4119SOL    HW116813   9.238   6.732   4.677  1.8587 -0.3442 -2.7012
 4119SOL    HW216814   9.155   6.676   4.564  0.1233  1.7610 -2.5329
 4120SOL     OW16815   5.728   4.699   2.241 -0.7068 -0.6397  0.2988
 4120SOL    HW116816   5.636   4.722   2.233 -0.0241  2.0979 -1.2037
 4120SOL    HW216817   5.753   4.666   2.155 -0.1066 -0.5848  0.4444
 4121SOL     OW16818   8.302   7.929   6.703 -0.4727  0.0625  0.7110
 4121SOL    HW116819   8.265   7.995   6.645  1.5378 -0.4877 -1.3509
 4121SOL    HW216820   8.261   7.847   6.675  0.9219 -0.2881 -0.3662
 4122SOL     OW16821   2.053   5.829   5.046 -0.0179  0.6673  0.0041
 4122SOL    HW116822   1.993   5.758   5.024 -2.2387  2.2273  0.6567
 4122SOL    HW216823   2.133   5.808   4.999 -0.7100 -2.0392 -0.1221
 4123SOL     OW16824   1.040   5.730   0.515  0.4344  0.2518 -0.0615
 4123SOL    HW116825   1.023   5.641   0.545  0.5992 -0.2099 -1.2553
 4123SOL    HW216826   1.014   5.786   0.588 -1.8607 -0.6369 -0.1087
 4124SOL     OW16827   0.034   6.346  10.101  0.5358 -0.1452  0.2751
 4124SOL    HW116828   0.123   6.344  10.136  1.3647  0.2220 -1.6666
 4124SOL    HW216829   0.014   6.440  10.092 -0.9868 -0.1350  2.7790
 4125SOL     OW16830   2.165   4.114   6.202  0.4117  0.2974  0.0190
 4125SOL    HW116831   2.073   4.091   6.197  0.7165 -1.8537  2.3109
 4125SOL    HW216832   2.208   4.053   6.141  0.4903 -0.0289  0.3978
 4126SOL     OW16833   6.518  10.187   5.417  0.1038  0.2179 -0.3189
 4126SOL    HW116834   6.461  10.180   5.341  0.1459 -1.3107 -0.2517
 4126SOL    HW216835   6.600  10.147   5.389  0.6122  0.9772  0.0722
 4127SOL     OW16836   1.623  10.688   4.542 -0.8936  0.4700  0.2725
 4127SOL    HW116837   1.601  10.624   4.473 -3.0264 -0.3170  1.5829
 4127SOL    HW216838   1.703  10.653   4.582 -1.3541 -0.7561  0.1745
 4128SOL     OW16839   5.771   0.639   0.805  0.3989 -0.4265  0.0006
 4128SOL    HW116840   5.853   0.688   0.796  0.3481 -0.2943  0.2472
 4128SOL    HW216841   5.759   0.630   0.900 -0.5285  0.6538 -0.0058
 4129SOL     OW16842   6.243   3.505  10.600 -0.3371  0.7000  0.1341
 4129SOL    HW116843   6.170   3.460  10.557 -0.4763 -0.1388  1.2078
 4129SOL    HW216844   6.291   3.547  10.528 -1.1443  0.2006 -0.7208
 4130SOL     OW16845  10.615   5.215   1.971 -0.0594 -0.7529 -0.1126
 4130SOL    HW116846  10.633   5.121   1.982  1.3277 -0.4043  0.9478
 4130SOL    HW216847  10.676   5.243   1.903  0.1793 -0.4472  0.2239
 4131SOL     OW16848   6.138   6.670  10.356 -0.2811 -0.1892  0.2903
 4131SOL    HW116849   6.102   6.581  10.359  2.6510 -1.4694  1.3053
 4131SOL    HW216850   6.159   6.691  10.447 -0.1308  1.2024 -0.0425
 4132SOL     OW16851   7.373   8.803   2.362  0.0986 -0.0964  0.1283
 4132SOL    HW116852   7.370   8.735   2.296 -0.0606  2.9563 -3.3359
 4132SOL    HW216853   7.282   8.829   2.375  0.2202  0.0518  0.7185
 4133SOL     OW16854   7.883   8.489   2.641  0.1193 -0.4040 -0.2131
 4133SOL    HW116855   7.964   8.492   2.692 -0.2202 -1.7161  0.4554
 4133SOL    HW216856   7.814   8.480   2.707 -0.5601  0.5346 -0.7819
 4134SOL     OW16857   8.779   1.155   8.162  0.2813 -0.1139 -0.6272
 4134SOL    HW116858   8.685   1.159   8.183  0.4655 -0.4280  0.2987
 4134SOL    HW216859   8.822   1.186   8.242  0.9645  0.2495 -1.1336
 4135SOL     OW16860   9.537   3.857   5.455 -0.3419  0.2618  0.0333
 4135SOL    HW116861   9.563   3.910   5.531  0.2401 -0.6684  0.5037
 4135SOL    HW216862   9.460   3.902   5.421 -0.6242  0.7096  1.1825
 4136SOL     OW16863   2.695   1.336  10.790 -0.0400  0.0914 -0.4518
 4136SOL    HW116864   2.728   1.292  10.712 -0.2740 -0.4380 -0.2619
 4136SOL    HW216865   2.710   1.429  10.774 -1.0587  0.0860 -1.6083
 4137SOL     OW16866   1.216   0.624   1.525  0.5797 -0.2172 -0.6354
 4137SOL    HW116867   1.121   0.618   1.527  0.5710  0.1115  0.7951
 4137SOL    HW216868   1.246   0.563   1.593  1.3780 -0.0157 -0.7904
 4138SOL     OW16869   5.796   5.079   7.969  0.0361 -0.3563 -0.1952
 4138SOL    HW116870   5.872   5.122   8.007 -0.4435 -1.2729  1.9274
 4138SOL    HW216871   5.832   5.025   7.898  1.7141 -2.2164  1.9117
 4139SOL     OW16872   7.888   3.839   3.080  0.5033 -0.3663 -0.0920
 4139SOL    HW116873   7.849   3.838   2.992  1.6494  2.0085 -0.7189
 4139SOL    HW216874   7.965   3.783   3.073  1.3068  0.7941 -1.0405
 4140SOL     OW16875   0.829   4.758   6.929 -0.2170  0.4718 -0.1407
 4140SOL    HW116876   0.920   4.774   6.955 -0.2037  0.8127 -0.3918
 4140SOL    HW216877   0.812   4.821   6.859 -1.1737  1.5702  1.0321
 4141SOL     OW16878   4.000   0.777   8.675  0.3996 -0.2333 -0.1381
 4141SOL    HW116879   4.023   0.741   8.590  1.1493 -1.2906  0.4811
 4141SOL    HW216880   4.065   0.740   8.735  1.6576  2.6812  0.4650
 4142SOL     OW16881  10.442   2.749   7.883 -0.6095  0.1688  0.2886
 4142SOL    HW116882  10.416   2.664   7.848  0.6158  0.6293 -1.9466
 4142SOL    HW216883  10.387   2.761   7.960 -0.7745 -2.6622  0.7403
 4143SOL     OW16884   6.808   3.667   8.453 -0.5787  0.4002  0.1098
 4143SOL    HW116885   6.851   3.748   8.429 -2.0689  0.8730 -1.1371
 4143SOL    HW216886   6.840   3.603   8.390 -0.7216  0.4442 -0.0082
 4144SOL     OW16887   6.500   8.567   8.953 -0.2737  0.5119 -0.1819
 4144SOL    HW116888   6.566   8.559   8.884  0.3198  0.5828  0.3722
 4144SOL    HW216889   6.531   8.638   9.008 -1.1835  1.0241 -0.3090
 4145SOL     OW16890   6.999   9.849   1.972 -0.3604  0.1324 -0.3046
 4145SOL    HW116891   6.986   9.902   2.051 -0.1682  0.0657 -0.2291
 4145SOL    HW216892   7.070   9.789   1.994  2.7171  2.8989 -1.9181
 4146SOL     OW16893   4.954   7.552   3.008 -0.3454  0.5525  0.1802
 4146SOL    HW116894   4.945   7.464   2.970 -1.7324  0.8073 -0.1542
 4146SOL    HW216895   5.036   7.549   3.057 -0.1267 -0.7819 -0.2280
 4147SOL     OW16896   9.292   5.747   0.882 -0.3271 -0.3042 -0.9429
 4147SOL    HW116897   9.336   5.832   0.892  1.8754 -1.4278 -0.5206
 4147SOL    HW216898   9.278   5.716   0.971 -2.6318  0.2797 -1.0439
 4148SOL     OW16899   0.036  10.138   6.843  0.6388  0.0311 -0.2024
 4148SOL    HW116900  -0.003  10.215   6.885  0.0284 -0.6769  0.5732
 4148SOL    HW216901  -0.039  10.081   6.825  1.0914 -0.4118 -0.7005
 4149SOL     OW16902   3.954   8.915   9.706  0.0120 -0.2902  0.3870
 4149SOL    HW116903   4.047   8.919   9.686  0.4498 -2.1947  1.8140
 4149SOL    HW216904   3.911   8.946   9.626  1.8397  1.8571  0.1334
 4150SOL     OW16905   1.330   6.802   8.879  0.0504 -0.2205  0.4029
 4150SOL    HW116906   1.358   6.878   8.929  1.2326 -1.7978  2.2407
 4150SOL    HW216907   1.325   6.833   8.788 -1.6348  2.5816  1.3463
 4151SOL     OW16908  10.783   6.892   8.471 -0.2559 -0.0286 -0.7238
 4151SOL    HW116909  10.705   6.915   8.421 -0.6275 -0.4095 -0.3292
 4151SOL    HW216910  10.853   6.886   8.405 -0.9771 -1.7143 -1.3799
 4152SOL     OW16911   4.939   6.763   0.893 -0.3482  0.7581 -0.7794
 4152SOL    HW116912   4.943   6.784   0.800  0.2940  0.7451 -0.7592
 4152SOL    HW216913   5.009   6.816   0.933  2.1496 -2.2123 -0.8831
 4153SOL     OW16914   6.517   5.580   9.446  0.7817  0.0870  0.2270
 4153SOL    HW116915   6.559   5.495   9.459  1.5119  0.5032  0.6658
 4153SOL    HW216916   6.449   5.563   9.381  0.4435 -0.9853  0.8249
 4154SOL     OW16917   5.537   7.531   3.300 -0.0511  0.1164 -0.2761
 4154SOL    HW116918   5.457   7.487   3.331  0.6494 -0.6463  0.5139
 4154SOL    HW216919   5.544   7.507   3.208 -0.1391 -0.7477 -0.0650
 4155SOL     OW16920   5.272   9.644   3.756 -0.1652 -0.2088 -0.1723
 4155SOL    HW116921   5.330   9.666   3.684 -0.2220 -0.7191 -0.3830
 4155SOL    HW216922   5.241   9.728   3.790 -0.6343  0.0262 -1.1458
 4156SOL     OW16923   2.643   2.038   4.160  0.0255  0.3555  0.1919
 4156SOL    HW116924   2.736   2.014   4.161 -0.0918 -0.5107 -2.3078
 4156SOL    HW216925   2.597   1.954   4.146 -0.9075  1.0758 -1.3719
 4157SOL     OW16926   0.349   1.916   1.499  0.2685  0.3447  0.0196
 4157SOL    HW116927   0.397   1.924   1.417  0.9802 -1.7359  0.1783
 4157SOL    HW216928   0.285   1.988   1.497  2.4132  2.3651 -0.8364
 4158SOL     OW16929   1.966   4.780   1.745 -0.0066 -0.2777 -0.0392
 4158SOL    HW116930   1.934   4.697   1.780  2.9999 -1.1521  0.8888
 4158SOL    HW216931   2.004   4.756   1.660  0.5062  0.2504  0.0434
 4159SOL     OW16932   8.859   9.349   4.641  0.0614  0.5070  0.0315
 4159SOL    HW116933   8.901   9.340   4.726 -0.9352  0.9223  0.5770
 4159SOL    HW216934   8.876   9.440   4.615  1.1965  0.1156 -0.6815
 4160SOL     OW16935   5.045   2.306   6.821 -0.6689  0.4710 -0.1428
 4160SOL    HW116936   5.010   2.223   6.789  0.3137 -0.0660  0.1326
 4160SOL    HW216937   4.985   2.332   6.891 -0.4746 -0.4930  0.4051
 4161SOL     OW16938   6.921   2.087   7.009  0.3770  0.7879  0.2690
 4161SOL    HW116939   6.943   2.024   7.078  0.5197 -0.4203 -0.8409
 4161SOL    HW216940   6.996   2.086   6.950  0.9794  3.0218  0.8725
 4162SOL     OW16941   9.872   4.969   9.927  0.0193  0.5603  0.1929
 4162SOL    HW116942   9.961   4.991   9.953  0.2395  1.4469 -1.2324
 4162SOL    HW216943   9.831   5.053   9.908 -0.1685  0.0229 -2.1106
 4163SOL     OW16944   3.634  10.621   0.123  0.1590  0.1201 -0.4288
 4163SOL    HW116945   3.626  10.682   0.196  1.8531 -0.2039  0.0651
 4163SOL    HW216946   3.567  10.554   0.139  0.2455  0.2755  0.6058
 4164SOL     OW16947   8.268   1.297  10.182  0.4840  0.0700 -0.1684
 4164SOL    HW116948   8.299   1.345  10.105  0.0597  0.2571 -0.2226
 4164SOL    HW216949   8.197   1.242  10.149 -0.0347  0.5277  0.1929
 4165SOL     OW16950   2.592   8.872   0.457 -0.3827  0.5144  0.2215
 4165SOL    HW116951   2.625   8.782   0.452 -2.0506 -0.2663  2.1359
 4165SOL    HW216952   2.553   8.879   0.544 -2.4314  2.3383 -0.7486
 4166SOL     OW16953   7.479   4.098   3.571 -0.0272 -0.5252  0.0763
 4166SOL    HW116954   7.440   4.043   3.639 -0.6741 -1.3426 -0.9398
 4166SOL    HW216955   7.572   4.077   3.574  0.3414  1.0037  2.1139
 4167SOL     OW16956   8.460   5.774   5.616  0.1134  0.2410 -0.0407
 4167SOL    HW116957   8.506   5.804   5.695  1.7929  0.0609 -0.8965
 4167SOL    HW216958   8.462   5.850   5.557  0.3862 -0.1424 -0.5319
 4168SOL     OW16959   7.438   7.821  10.395 -0.4043  0.3767 -0.0715
 4168SOL    HW116960   7.368   7.841  10.457 -0.5160 -0.0589 -0.0553
 4168SOL    HW216961   7.509   7.787  10.450 -0.5945 -0.2436 -0.2078
 4169SOL     OW16962  10.549   9.924   4.171  0.0545  0.0571 -0.0053
 4169SOL    HW116963  10.534   9.998   4.113 -0.3724  1.3873  1.6883
 4169SOL    HW216964  10.478   9.863   4.151  0.8260 -0.2821 -1.9248
 4170SOL     OW16965   9.165   5.057   3.851 -1.0278 -0.4269  0.2192
 4170SOL    HW116966   9.082   5.079   3.893 -2.1164 -1.8881 -1.0786
 4170SOL    HW216967   9.145   5.053   3.758  0.4786 -0.9565 -0.1077
 4171SOL     OW16968   8.531   2.531   3.402  0.3472  0.3874 -0.0009
 4171SOL    HW116969   8.524   2.477   3.323  0.7292  1.3621 -0.7287
 4171SOL    HW216970   8.459   2.594   3.395 -0.3952 -0.2946  1.0851
 4172SOL     OW16971   3.844   5.673   4.106 -0.3347 -0.3790  0.6971
 4172SOL    HW116972   3.820   5.666   4.198 -0.4620 -3.1643  0.5300
 4172SOL    HW216973   3.939   5.660   4.105  0.2307  2.9643  0.6509
 4173SOL     OW16974   5.444   9.880   4.832 -0.0322 -0.6138 -0.1820
 4173SOL    HW116975   5.537   9.892   4.851  0.8018 -0.8968 -3.5664
 4173SOL    HW216976   5.422   9.797   4.874  1.2555 -0.6056  0.5747
 4174SOL     OW16977   8.412   4.213   2.871  0.6854 -0.1654  0.1014
 4174SOL    HW116978   8.355   4.262   2.812 -1.1971  0.2407  2.1480
 4174SOL    HW216979   8.368   4.129   2.884  0.6996  0.0126  1.4426
 4175SOL     OW16980   5.369   1.833   2.979  0.0674  0.0577 -0.6614
 4175SOL    HW116981   5.285   1.854   3.020 -0.4858 -1.1099 -1.1542
 4175SOL    HW216982   5.432   1.887   3.025 -1.2054  2.5516 -1.6115
 4176SOL     OW16983   5.910   8.414   9.486  0.4598  0.2427  0.0675
 4176SOL    HW116984   5.966   8.358   9.433  0.3984  1.4553 -1.3579
 4176SOL    HW216985   5.920   8.381   9.575  1.1449 -1.4044 -0.5684
 4177SOL     OW16986   0.754   2.462   3.619 -0.4946  0.2425  0.4039
 4177SOL    HW116987   0.720   2.463   3.529  0.5001  0.4787  0.0051
 4177SOL    HW216988   0.825   2.527   3.618 -0.3788  0.1407  1.3224
 4178SOL     OW16989   5.453   4.194   5.258 -0.4992 -0.1772 -0.1593
 4178SOL    HW116990   5.441   4.146   5.340  0.6863  0.4725  0.4224
 4178SOL    HW216991   5.490   4.278   5.285  1.4480 -0.5467 -1.4302
 4179SOL     OW16992   0.713   5.737   8.661 -0.1761  0.1185 -0.8565
 4179SOL    HW116993   0.649   5.796   8.621  0.5324  0.4395 -1.5441
 4179SOL    HW216994   0.725   5.771   8.750 -2.8010 -1.4201  0.1947
 4180SOL     OW16995   9.925   3.123   4.253 -0.3877 -0.0353  0.0385
 4180SOL    HW116996  10.001   3.106   4.308 -0.5811 -1.4354 -0.0886
 4180SOL    HW216997   9.946   3.082   4.169 -0.3073  1.6422 -0.8087
 4181SOL     OW16998   3.092   5.632   8.417 -0.1943  0.2061 -0.2673
 4181SOL    HW116999   3.132   5.654   8.501 -0.1210  2.5415 -0.8352
 4181SOL    HW217000   3.166   5.611   8.360 -0.0864  0.5216 -0.2462
 4182SOL     OW17001   7.181   2.495   9.363  0.1810  0.0327  0.1688
 4182SOL    HW117002   7.088   2.480   9.378  0.4420 -2.5475 -0.4420
 4182SOL    HW217003   7.225   2.447   9.433  1.0920  1.1518  0.4038
 4183SOL     OW17004   2.413   2.421   8.062 -0.1013 -0.1094 -0.0015
 4183SOL    HW117005   2.370   2.445   7.979  0.0979 -2.2038 -0.7812
 4183SOL    HW217006   2.435   2.328   8.051  2.1652  0.1833  1.4537
 4184SOL     OW17007   5.664   7.030   7.398 -0.2292  0.2418  0.1999
 4184SOL    HW117008   5.617   6.963   7.348 -0.2788 -0.0712  0.6628
 4184SOL    HW217009   5.609   7.045   7.475 -0.1504  0.7175  0.1653
 4185SOL     OW17010   2.097   2.156   2.589  0.1202 -0.4522  0.7580
 4185SOL    HW117011   2.160   2.097   2.545 -1.3300 -0.6836 -1.1760
 4185SOL    HW217012   2.017   2.146   2.537 -0.4157  2.6501  0.8532
 4186SOL     OW17013   7.285  10.100   1.749 -0.0799 -0.2040  0.3835
 4186SOL    HW117014   7.260  10.015   1.713  1.7263 -0.1441 -1.1520
 4186SOL    HW217015   7.322  10.080   1.835  0.8372 -1.0714 -0.1887
 4187SOL     OW17016  10.027   6.086   7.672 -0.0894  0.7503 -0.1066
 4187SOL    HW117017  10.037   6.173   7.632  1.1031 -0.2372 -2.0964
 4187SOL    HW217018   9.960   6.044   7.619  0.0729  0.0877  0.2087
 4188SOL     OW17019   8.962   7.574  10.387  0.2206 -0.4344 -0.0949
 4188SOL    HW117020   9.011   7.647  10.351 -0.0091  0.5183  1.4289
 4188SOL    HW217021   8.872   7.606  10.394  0.2357 -0.6002  1.1708
 4189SOL     OW17022   0.702   2.015  10.274  0.3103 -0.1002 -0.1319
 4189SOL    HW117023   0.706   1.929  10.317 -0.2720  0.5723  1.3486
 4189SOL    HW217024   0.628   2.059  10.316  0.4914  1.0664 -0.9847
 4190SOL     OW17025   1.923   1.841   3.659  0.0566  0.2652  0.4309
 4190SOL    HW117026   2.009   1.867   3.627 -0.2298  0.9472  0.2077
 4190SOL    HW217027   1.877   1.807   3.581  0.3273 -0.6704  0.6637
 4191SOL     OW17028   2.725   5.656   2.259  0.2168  0.3135 -0.6354
 4191SOL    HW117029   2.725   5.569   2.299  3.7250  0.2167 -0.4892
 4191SOL    HW217030   2.727   5.639   2.165 -1.4392  0.3601 -0.7052
 4192SOL     OW17031   8.441   0.589   8.322  0.0946 -0.1215  0.3677
 4192SOL    HW117032   8.425   0.537   8.400 -2.0325 -1.7317 -0.9984
 4192SOL    HW217033   8.384   0.665   8.332 -0.9636 -0.8367 -0.0130
 4193SOL     OW17034   9.428   6.264   2.280  0.0811 -0.5295 -0.0196
 4193SOL    HW117035   9.453   6.338   2.336 -0.5705  0.6706 -1.2628
 4193SOL    HW217036   9.333   6.258   2.290  0.1738 -1.5037  0.4029
 4194SOL     OW17037   9.999   2.530   9.436  0.4139 -0.2145 -0.2486
 4194SOL    HW117038   9.927   2.514   9.497  0.9219 -1.5758  0.0174
 4194SOL    HW217039   9.981   2.471   9.362  0.8896 -0.0721 -0.4836
 4195SOL     OW17040   3.336   6.619   7.001 -0.3224 -0.3937  0.5907
 4195SOL    HW117041   3.342   6.644   7.093 -0.1283 -0.8410  0.7056
 4195SOL    HW217042   3.246   6.586   6.991 -0.9112  1.2322  0.1975
 4196SOL     OW17043   7.390   9.664   4.134 -0.2958  0.1598 -0.2244
 4196SOL    HW117044   7.353   9.594   4.189  0.9361 -1.2558 -1.1257
 4196SOL    HW217045   7.484   9.658   4.148  0.0158  0.0814 -2.0862
 4197SOL     OW17046  10.089   8.539  10.561 -0.0174 -0.7019  0.0520
 4197SOL    HW117047  10.000   8.510  10.540  0.2301 -0.5903 -1.2702
 4197SOL    HW217048  10.123   8.572  10.478  0.6586  0.8863  0.9131
 4198SOL     OW17049   3.190   9.889   0.610  0.3683  0.2693  0.1440
 4198SOL    HW117050   3.200   9.974   0.653 -0.3168  0.3899  0.0712
 4198SOL    HW217051   3.209   9.907   0.518 -1.3590  0.6918 -0.1556
 4199SOL     OW17052   9.187   0.514   5.366 -0.4982 -0.0458 -0.4598
 4199SOL    HW117053   9.218   0.604   5.375 -0.1271  0.1584 -3.0747
 4199SOL    HW217054   9.208   0.473   5.450 -0.6586  2.2776  0.7695
 4200SOL     OW17055   6.155   7.255   5.820 -0.0113  0.2929 -0.0696
 4200SOL    HW117056   6.184   7.165   5.833  2.7912  1.2261  0.7822
 4200SOL    HW217057   6.179   7.276   5.730 -0.5707  0.2480 -0.2360
 4201SOL     OW17058  10.202  10.272  10.829 -0.6189 -0.0572  0.1500
 4201SOL    HW117059  10.189  10.182  10.800 -0.6159 -0.2453  0.7283
 4201SOL    HW217060  10.145  10.282  10.905  0.1536  0.1097  0.7192
 4202SOL     OW17061   1.204  10.355   3.941 -0.7738  0.3261 -0.3474
 4202SOL    HW117062   1.118  10.321   3.963 -0.3903  0.4019  1.3642
 4202SOL    HW217063   1.246  10.285   3.892 -0.8995 -0.7062  0.9822
 4203SOL     OW17064   8.177  10.557   9.265  0.2409 -0.6555  0.0549
 4203SOL    HW117065   8.248  10.551   9.201 -0.4562 -1.8207 -0.6304
 4203SOL    HW217066   8.172  10.471   9.305  0.7910  0.1068  1.8614
 4204SOL     OW17067   9.025   3.218   2.437 -0.1510 -0.6633  0.1595
 4204SOL    HW117068   8.968   3.257   2.503 -0.2475  0.1077 -0.3717
 4204SOL    HW217069   8.965   3.167   2.381 -0.1776 -0.6867  0.2098
 4205SOL     OW17070   3.902   4.102   1.230 -0.2103  0.7861 -0.2271
 4205SOL    HW117071   3.890   4.020   1.182 -2.0827  0.0964  1.2929
 4205SOL    HW217072   3.964   4.079   1.300 -0.3051  0.8066 -0.1358
 4206SOL     OW17073   0.553   3.061   7.314 -0.1938  0.2213  0.1112
 4206SOL    HW117074   0.594   3.015   7.240 -1.2044  2.5164 -2.0626
 4206SOL    HW217075   0.620   3.122   7.344  0.8454 -1.8761  2.4245
 4207SOL     OW17076   3.372   1.203   5.204  0.1468 -0.1066  0.1351
 4207SOL    HW117077   3.392   1.295   5.188 -0.3708 -0.3347 -2.1349
 4207SOL    HW217078   3.443   1.156   5.160 -0.1263 -0.7985  0.4256
 4208SOL     OW17079   3.626   3.404   4.635 -0.4015 -0.2878  0.2633
 4208SOL    HW117080   3.628   3.318   4.678 -1.4217 -0.9084 -0.8588
 4208SOL    HW217081   3.594   3.464   4.702 -0.3465 -0.9066  0.8561
 4209SOL     OW17082   1.429   1.973   1.632 -0.4115  0.1507 -0.2676
 4209SOL    HW117083   1.418   2.033   1.706  2.2436  0.7235 -0.2620
 4209SOL    HW217084   1.523   1.956   1.628 -0.7306 -1.5478 -2.2342
 4210SOL     OW17085   9.152   9.062   3.863  0.5320 -0.1777 -0.3465
 4210SOL    HW117086   9.154   8.967   3.851  0.7072 -0.1713 -0.3687
 4210SOL    HW217087   9.211   9.078   3.937  0.0322 -0.1462  0.0487
 4211SOL     OW17088   0.464  10.780   8.837  0.9687  0.1858 -0.4479
 4211SOL    HW117089   0.557  10.774   8.861  0.5162 -1.2897  1.1053
 4211SOL    HW217090   0.421  10.716   8.893 -1.0595  1.1243 -0.8697
 4212SOL     OW17091   1.258   0.499   4.020  0.0381 -0.2846  0.1018
 4212SOL    HW117092   1.208   0.427   4.058  0.5123 -1.8815 -2.0905
 4212SOL    HW217093   1.197   0.573   4.017 -0.6507 -0.7385  1.8469
 4213SOL     OW17094   0.450   2.884   7.706 -0.1361 -0.1667  0.6191
 4213SOL    HW117095   0.529   2.863   7.656 -1.3726 -0.4416 -1.2773
 4213SOL    HW217096   0.424   2.801   7.746  0.3070 -0.1585  0.9317
 4214SOL     OW17097   7.217   6.582   5.962 -0.3322 -0.0516  0.1334
 4214SOL    HW117098   7.249   6.493   5.976  0.9703  0.2047 -0.9761
 4214SOL    HW217099   7.128   6.582   5.997 -1.1853 -2.4069 -1.7736
 4215SOL     OW17100   1.688   9.292   3.623 -0.6145 -0.1464 -0.6725
 4215SOL    HW117101   1.649   9.355   3.684  1.0281  0.4563 -0.2163
 4215SOL    HW217102   1.644   9.209   3.644  0.3380 -0.1083  1.8251
 4216SOL     OW17103   0.691   6.684   3.802  0.1161 -0.3723 -0.6106
 4216SOL    HW117104   0.752   6.626   3.849  0.1597 -1.3682 -1.8561
 4216SOL    HW217105   0.747   6.733   3.742 -0.1127 -0.0747 -0.5820
 4217SOL     OW17106  10.807   7.469   5.514  0.1028  0.7005  0.1960
 4217SOL    HW117107  10.834   7.454   5.604 -0.7418 -0.5793  0.2605
 4217SOL    HW217108  10.731   7.527   5.520 -1.9101 -1.8182  0.5861
 4218SOL     OW17109   4.542   3.503   8.625 -0.6315 -0.3045 -0.1536
 4218SOL    HW117110   4.551   3.463   8.538  0.0493  0.1780 -0.3089
 4218SOL    HW217111   4.578   3.438   8.685 -0.5586 -0.3937 -0.2924
 4219SOL     OW17112   2.188   0.151   0.765  0.3362 -0.3716  0.1613
 4219SOL    HW117113   2.181   0.246   0.774 -0.6320 -0.4589  0.4782
 4219SOL    HW217114   2.182   0.136   0.671  0.0927 -0.1469  0.1405
 4220SOL     OW17115  10.829   6.328   3.191  0.1854  0.0235  0.0117
 4220SOL    HW117116  10.877   6.356   3.269  0.0911  0.4263 -0.0729
 4220SOL    HW217117  10.742   6.305   3.224  0.3670 -0.5179  0.1346
 4221SOL     OW17118   7.915   9.417   4.044 -0.0498 -0.1402 -0.7127
 4221SOL    HW117119   7.921   9.363   4.123  1.0486 -0.3101 -0.8904
 4221SOL    HW217120   7.834   9.389   4.001  0.1783 -1.1947 -0.4743
 4222SOL     OW17121   6.658   2.731   1.270 -0.0911  0.0080  0.5488
 4222SOL    HW117122   6.667   2.740   1.175 -1.6034 -1.8993  0.1528
 4222SOL    HW217123   6.718   2.660   1.292 -0.3723 -0.1229  0.8878
 4223SOL     OW17124   4.405   1.828   6.171 -0.4437  0.1394 -0.8729
 4223SOL    HW117125   4.462   1.895   6.133  0.1591 -1.5039 -3.0760
 4223SOL    HW217126   4.466   1.769   6.217 -0.6682 -0.2396 -1.0614
 4224SOL     OW17127   6.853   4.260   1.821  0.0887  0.1778 -0.4620
 4224SOL    HW117128   6.856   4.188   1.884 -1.2303 -0.3810 -0.9922
 4224SOL    HW217129   6.780   4.238   1.764 -2.1457  3.2108  0.9305
 4225SOL     OW17130   9.573   3.694   4.219  0.3225 -0.5762  0.1549
 4225SOL    HW117131   9.502   3.691   4.282 -0.3582 -1.3503 -0.6117
 4225SOL    HW217132   9.538   3.651   4.141  1.8847 -1.7269  0.0186
 4226SOL     OW17133   7.469   6.283   3.625 -0.1268  0.0048 -0.1677
 4226SOL    HW117134   7.378   6.263   3.648 -0.2327  0.0171 -0.5618
 4226SOL    HW217135   7.507   6.198   3.604 -0.4356  0.1350 -1.3474
 4227SOL     OW17136   0.914   2.918   7.481 -0.1519 -0.0188  0.1863
 4227SOL    HW117137   0.987   2.967   7.442  0.8665 -0.9145  0.8990
 4227SOL    HW217138   0.867   2.983   7.533 -0.3954  0.7633 -0.9691
 4228SOL     OW17139   0.226   2.479   6.870  0.2674  0.3200  0.2177
 4228SOL    HW117140   0.266   2.465   6.784 -0.5773 -0.4928 -0.0592
 4228SOL    HW217141   0.139   2.440   6.862 -0.7734  2.3800  0.6480
 4229SOL     OW17142   4.474   5.426   5.777 -0.1187 -0.1274 -0.1541
 4229SOL    HW117143   4.570   5.431   5.775 -0.0494 -0.5270  1.1573
 4229SOL    HW217144   4.447   5.451   5.689  1.1810  0.2330 -0.4758
 4230SOL     OW17145  10.462   3.449   1.324 -0.2161  0.0768 -0.2069
 4230SOL    HW117146  10.499   3.509   1.388  0.9691  1.2762 -1.9410
 4230SOL    HW217147  10.516   3.370   1.332 -0.5475 -0.0685  0.7454
 4231SOL     OW17148   0.505   4.947   1.662 -0.1015 -0.4511 -0.0205
 4231SOL    HW117149   0.446   4.884   1.702 -0.6862 -0.0375 -0.2185
 4231SOL    HW217150   0.510   4.921   1.570 -0.0160 -0.4516 -0.0164
 4232SOL     OW17151   9.577   2.412   6.534  0.3306  0.1016  0.1331
 4232SOL    HW117152   9.657   2.460   6.555 -0.0157 -0.1631  2.3467
 4232SOL    HW217153   9.533   2.465   6.468  0.8702  1.8765  1.1491
 4233SOL     OW17154   8.549   3.946   0.731  0.2244  0.2267  0.3357
 4233SOL    HW117155   8.620   4.008   0.744  1.8873 -1.0175 -1.9930
 4233SOL    HW217156   8.478   3.998   0.694  1.3963  0.8794 -1.0939
 4234SOL     OW17157   0.606   8.695   9.827 -0.7057  0.2817  0.2045
 4234SOL    HW117158   0.566   8.684   9.741  0.6169 -0.6311 -0.3264
 4234SOL    HW217159   0.648   8.611   9.845  0.8772  1.1490  0.7686
 4235SOL     OW17160   9.236   0.413   0.974  0.4935 -0.2168  0.2192
 4235SOL    HW117161   9.291   0.336   0.988  1.1218 -0.5806 -3.3227
 4235SOL    HW217162   9.174   0.412   1.047  0.7610 -3.8253  0.5718
 4236SOL     OW17163   2.869   8.191   2.825  0.0431  0.2582  0.4569
 4236SOL    HW117164   2.799   8.202   2.890 -0.5603 -1.9543  0.2386
 4236SOL    HW217165   2.827   8.149   2.750  1.0431  1.4366 -0.8343
 4237SOL     OW17166   9.528   7.648   3.692  0.2635 -0.4273 -0.3330
 4237SOL    HW117167   9.512   7.554   3.700 -2.1182 -0.3414 -2.7490
 4237SOL    HW217168   9.551   7.660   3.600  0.2222  1.3948 -0.1288
 4238SOL     OW17169   1.764   4.796   0.356  0.1154  0.1460  0.0750
 4238SOL    HW117170   1.826   4.738   0.313  1.0470  0.9155  0.3496
 4238SOL    HW217171   1.732   4.746   0.431 -1.1425 -1.0184 -1.1651
 4239SOL     OW17172   9.592   9.421   6.448  0.0087 -0.0304  1.0365
 4239SOL    HW117173   9.672   9.459   6.484 -0.0258  3.6733 -2.0860
 4239SOL    HW217174   9.623   9.362   6.379  0.0058 -0.6722  1.5717
 4240SOL     OW17175   0.338   9.405   2.797  0.6354 -0.0271  0.2281
 4240SOL    HW117176   0.303   9.348   2.865  0.9103 -0.1938  0.2277
 4240SOL    HW217177   0.324   9.356   2.716 -0.6038  0.5850  0.0430
 4241SOL     OW17178  10.244   6.216   8.875  0.0240 -0.4806 -0.3188
 4241SOL    HW117179  10.198   6.146   8.922 -1.6943 -0.7576 -2.2338
 4241SOL    HW217180  10.185   6.291   8.880  0.0914 -0.3340 -1.4495
 4242SOL     OW17181   4.334   0.989   4.387 -0.0694 -0.1869 -1.0457
 4242SOL    HW117182   4.319   1.068   4.439  0.5941 -0.8092  0.1187
 4242SOL    HW217183   4.317   1.017   4.297 -0.5228  1.1012 -0.5913
 4243SOL     OW17184   4.414   9.730   6.956 -0.1643  0.0997  0.3241
 4243SOL    HW117185   4.460   9.814   6.959  0.0261 -0.0085  0.4567
 4243SOL    HW217186   4.484   9.665   6.945 -0.2998 -0.0514  0.3552
 4244SOL     OW17187   4.241  10.895   6.651 -0.3762  0.5277 -0.3547
 4244SOL    HW117188   4.195  10.873   6.570  1.0072  1.1495 -1.3556
 4244SOL    HW217189   4.217  10.986   6.668 -1.4309  0.1072  0.4983
 4245SOL     OW17190   6.656   3.351   4.872 -0.7322  0.6290  0.1526
 4245SOL    HW117191   6.697   3.390   4.795  0.1987  1.7699  1.1813
 4245SOL    HW217192   6.678   3.259   4.867  0.6708  0.9575 -0.1197
 4246SOL     OW17193   9.597   4.628   6.421 -0.1957 -0.3843  0.2376
 4246SOL    HW117194   9.511   4.662   6.445 -0.4090 -0.7443  0.0020
 4246SOL    HW217195   9.620   4.570   6.494 -0.2527 -0.4563  0.1994
 4247SOL     OW17196   6.427   4.860  10.422 -0.0168 -0.1482  0.5801
 4247SOL    HW117197   6.347   4.839  10.471 -0.9319 -0.3139 -0.8999
 4247SOL    HW217198   6.396   4.915  10.349  1.3238  0.3123  0.3396
 4248SOL     OW17199   2.581   2.661   0.020  0.1577  0.2052  0.2646
 4248SOL    HW117200   2.629   2.704  -0.051  0.9896 -0.8389  0.1680
 4248SOL    HW217201   2.605   2.568   0.012 -1.6207 -0.3012  0.4267
 4249SOL     OW17202   4.871   6.797   6.231 -0.1966  0.2845  0.7562
 4249SOL    HW117203   4.956   6.753   6.227  0.0264  0.7246  0.5710
 4249SOL    HW217204   4.876   6.851   6.309  0.9276  2.7648 -0.9034
 4250SOL     OW17205  10.877   2.985  11.002  0.5808 -0.2269 -0.3749
 4250SOL    HW117206  10.923   3.069  11.001 -0.7607  0.6269  1.9865
 4250SOL    HW217207  10.946   2.921  10.986  2.1969  1.1420  0.6292
 4251SOL     OW17208   0.298   1.970   1.078 -0.3635 -0.2178 -0.2883
 4251SOL    HW117209   0.332   2.050   1.038  0.0493  0.2288  0.9281
 4251SOL    HW217210   0.208   1.964   1.048 -0.5989  1.0560  0.1418
 4252SOL     OW17211   5.276   7.946   3.431 -0.0870  0.0195 -0.0199
 4252SOL    HW117212   5.239   7.989   3.508 -1.8242 -2.5591  0.7005
 4252SOL    HW217213   5.337   7.882   3.467 -0.7183 -1.0263 -0.7815
 4253SOL     OW17214   8.411   0.117   8.647 -0.0922 -0.1017  0.8018
 4253SOL    HW117215   8.384   0.104   8.738  0.8044  1.2770  1.2823
 4253SOL    HW217216   8.343   0.172   8.609  0.5781  1.0620  1.2421
 4254SOL     OW17217   9.126  11.006   1.560  0.3282  0.0294 -0.0329
 4254SOL    HW117218   9.058  10.942   1.541 -0.8836  1.6120 -1.3196
 4254SOL    HW217219   9.176  11.013   1.478 -0.6778  1.9622 -0.5441
 4255SOL     OW17220   1.324   3.892   6.805  0.1618 -0.2967  0.4701
 4255SOL    HW117221   1.229   3.889   6.814  0.0474 -1.6414 -0.7768
 4255SOL    HW217222   1.353   3.958   6.869 -1.3677 -1.6407  2.7017
 4256SOL     OW17223  10.749   0.090   9.832 -0.1950  0.1329  0.2605
 4256SOL    HW117224  10.797   0.051   9.758 -1.9760 -1.5153 -0.1125
 4256SOL    HW217225  10.736   0.018   9.893 -1.3785  0.7325  0.7605
 4257SOL     OW17226   4.151  10.456   0.433  0.1057 -0.1137 -0.5664
 4257SOL    HW117227   4.065  10.452   0.390  0.5161 -0.2664 -1.3854
 4257SOL    HW217228   4.158  10.547   0.463  0.0269  0.1449 -1.2932
 4258SOL     OW17229   3.318   4.987   4.815  0.4246 -0.5242 -0.2344
 4258SOL    HW117230   3.350   4.936   4.741  0.0034 -0.9929 -0.0997
 4258SOL    HW217231   3.234   5.022   4.785  0.5633 -0.1655 -0.2121
 4259SOL     OW17232   9.963   2.006   0.983 -0.1445  0.3700  0.3297
 4259SOL    HW117233   9.907   1.963   1.047 -0.2913 -0.5083 -0.3664
 4259SOL    HW217234  10.047   1.960   0.990 -0.3874 -0.2263 -0.6203
 4260SOL     OW17235   0.139   6.713   0.277 -0.2017  0.2298  0.1823
 4260SOL    HW117236   0.075   6.692   0.209  0.6929 -1.1629 -0.2523
 4260SOL    HW217237   0.118   6.653   0.349  1.5246 -1.3658 -0.5527
 4261SOL     OW17238   0.236   4.602   8.600 -0.1513  0.6572  0.3059
 4261SOL    HW117239   0.190   4.518   8.608 -0.7781  0.7986 -1.5108
 4261SOL    HW217240   0.168   4.665   8.576  0.6085  1.3376 -0.1046
 4262SOL     OW17241   5.801   8.083   8.168  0.0318 -0.8387  0.0568
 4262SOL    HW117242   5.838   8.149   8.108 -0.2701 -0.5534  0.1803
 4262SOL    HW217243   5.774   8.133   8.245 -3.7182 -0.4082 -1.3079
 4263SOL     OW17244   2.052   7.684   4.839 -0.7444 -0.0870 -0.0170
 4263SOL    HW117245   1.987   7.615   4.825  0.8820 -1.7192  0.1479
 4263SOL    HW217246   2.073   7.678   4.932 -0.1971  0.2880 -0.1156
 4264SOL     OW17247   9.501  10.694   0.537  0.1523 -0.6536 -0.4077
 4264SOL    HW117248   9.537  10.622   0.485  0.1022 -0.2295 -1.0260
 4264SOL    HW217249   9.461  10.650   0.612  0.6184 -1.2354 -0.4866
 4265SOL     OW17250   3.133   2.905   2.676  0.3916 -0.5461  0.3016
 4265SOL    HW117251   3.188   2.889   2.599  0.2255 -2.2099  0.5047
 4265SOL    HW217252   3.162   2.991   2.708  1.5015 -0.5034 -0.7330
 4266SOL     OW17253   2.100   9.694   8.504 -0.2185 -0.6833  0.3169
 4266SOL    HW117254   2.005   9.683   8.493 -0.0945 -1.1251 -0.3887
 4266SOL    HW217255   2.113   9.696   8.599 -0.7667 -2.3196  0.4622
 4267SOL     OW17256   9.452   7.294   9.120  0.1273  0.0230 -0.7338
 4267SOL    HW117257   9.478   7.259   9.205 -0.7797 -0.0395 -0.4745
 4267SOL    HW217258   9.357   7.281   9.117  0.2448 -0.7114 -2.0874
 4268SOL     OW17259   1.894   3.533   9.825  0.3655 -0.1934 -0.2546
 4268SOL    HW117260   1.845   3.507   9.747 -1.9700  0.0291  1.0497
 4268SOL    HW217261   1.855   3.617   9.850  2.2142  0.5527  0.2309
 4269SOL     OW17262   9.476   0.271   8.593 -0.1357  0.1709  0.3602
 4269SOL    HW117263   9.552   0.237   8.642 -0.2180 -0.5604 -0.0017
 4269SOL    HW217264   9.507   0.353   8.555  0.6808 -0.4208 -0.2849
 4270SOL     OW17265   2.426   1.834   1.655 -0.1969 -0.3553 -0.4283
 4270SOL    HW117266   2.464   1.801   1.737 -2.5687  0.2770  1.0193
 4270SOL    HW217267   2.385   1.757   1.615 -1.8644 -0.1008  0.6925
 4271SOL     OW17268   0.675   3.202   2.688  0.0803 -0.2578 -0.1659
 4271SOL    HW117269   0.724   3.251   2.753  2.5476 -1.7773 -0.7455
 4271SOL    HW217270   0.738   3.186   2.618 -1.1083 -2.6976 -0.7746
 4272SOL     OW17271   4.344   1.980   4.922 -0.0399 -0.4569 -0.5735
 4272SOL    HW117272   4.365   1.957   4.832 -0.0985  1.1404 -1.0299
 4272SOL    HW217273   4.248   1.987   4.924 -0.0612 -0.7972 -0.3029
 4273SOL     OW17274   2.621  10.725   0.870 -0.1303  0.6346  0.1862
 4273SOL    HW117275   2.582  10.646   0.909  0.5837 -1.0828 -2.3039
 4273SOL    HW217276   2.545  10.779   0.847 -0.8839 -0.8521 -1.0128
 4274SOL     OW17277   8.209   5.494   9.731 -0.3936 -0.3468  0.4614
 4274SOL    HW117278   8.203   5.538   9.647 -2.9330  0.4704  0.9961
 4274SOL    HW217279   8.299   5.510   9.760  0.0533  0.6748 -1.3510
 4275SOL     OW17280   1.945  11.001   2.994 -0.0096 -0.4105  0.5948
 4275SOL    HW117281   1.889  10.948   3.051  0.2549 -2.0907 -0.6421
 4275SOL    HW217282   2.024  11.016   3.045  0.2046 -1.8474  0.7189
 4276SOL     OW17283   1.752   8.561   4.875 -0.0839  0.4273 -0.2919
 4276SOL    HW117284   1.683   8.568   4.941  0.1506  0.0125  0.0008
 4276SOL    HW217285   1.820   8.621   4.905  0.3842 -0.3675  0.3076
 4277SOL     OW17286   4.759   3.310   2.198 -0.2412  0.1565  0.4161
 4277SOL    HW117287   4.708   3.253   2.141  1.1447 -0.8122  0.1125
 4277SOL    HW217288   4.837   3.332   2.147  1.5934 -1.6346  2.2686
 4278SOL     OW17289   3.127   6.014   0.751  0.5219 -0.0468  0.4136
 4278SOL    HW117290   3.179   6.091   0.729  0.1428  0.2146  0.4270
 4278SOL    HW217291   3.180   5.940   0.721  0.4145  0.2644 -0.5722
 4279SOL     OW17292  10.382  10.208   2.455 -0.1053  0.2045  0.0734
 4279SOL    HW117293  10.374  10.274   2.385 -0.6656  1.0494  0.9143
 4279SOL    HW217294  10.416  10.257   2.530  3.1208 -1.1823 -0.3024
 4280SOL     OW17295   1.176   5.549   8.686  0.2716 -0.0211  0.4089
 4280SOL    HW117296   1.142   5.465   8.653  0.8469  1.0536 -3.3730
 4280SOL    HW217297   1.111   5.614   8.658  1.3350  1.1412  0.5663
 4281SOL     OW17298   5.895   8.853   6.545  0.1750  0.7248 -0.1481
 4281SOL    HW117299   5.878   8.759   6.551  0.3899  0.6889 -0.0838
 4281SOL    HW217300   5.966   8.860   6.481 -0.8437  0.9621 -1.2825
 4282SOL     OW17301   2.479   5.913  10.943 -0.1561 -0.3674 -0.2110
 4282SOL    HW117302   2.476   5.978  10.872 -0.3609  0.2261  0.3321
 4282SOL    HW217303   2.396   5.867  10.935 -0.1807 -0.3021 -0.3529
 4283SOL     OW17304   7.761   2.894   1.645  0.1261 -0.6771  0.4655
 4283SOL    HW117305   7.707   2.918   1.570  1.1473  0.0595 -0.0524
 4283SOL    HW217306   7.713   2.929   1.720 -0.8461 -1.3234  0.1655
 4284SOL     OW17307   9.091   9.890   5.108 -0.3221  0.3446 -0.0582
 4284SOL    HW117308   9.126   9.803   5.087 -0.1203 -0.0550  1.7540
 4284SOL    HW217309   9.061   9.925   5.024  0.0998 -1.2440 -0.9108
 4285SOL     OW17310   4.842   8.913   9.238  0.0779  0.2755  0.0865
 4285SOL    HW117311   4.905   8.845   9.214  0.5466  0.3931  0.9258
 4285SOL    HW217312   4.819   8.955   9.155  2.0364  1.0195 -0.1343
 4286SOL     OW17313   7.902  10.832   3.953 -0.6711  0.0897 -0.2975
 4286SOL    HW117314   7.914  10.767   4.023 -0.8310  1.8021  1.4196
 4286SOL    HW217315   7.990  10.843   3.917 -0.7351 -1.4474 -1.0175
 4287SOL     OW17316   6.164   9.689   4.218  0.1814  0.1386  0.3734
 4287SOL    HW117317   6.105   9.644   4.158 -0.0962  0.2245  0.5779
 4287SOL    HW217318   6.233   9.625   4.237 -0.1409 -0.1595  0.5636
 4288SOL     OW17319   4.629   1.051   4.766  0.1816  0.0575 -0.1284
 4288SOL    HW117320   4.618   0.980   4.703 -0.6491 -0.6617  0.7820
 4288SOL    HW217321   4.701   1.022   4.823 -1.0308 -0.7202  1.0654
 4289SOL     OW17322   9.794   7.993   5.059  0.1250 -0.0203 -0.2598
 4289SOL    HW117323   9.718   8.035   5.018  2.1084  0.9696 -3.2133
 4289SOL    HW217324   9.831   7.939   4.990  1.0854 -1.9859  1.7018
 4290SOL     OW17325   8.475   3.898   6.981  0.4306  0.6745  0.2924
 4290SOL    HW117326   8.400   3.924   6.927  0.5870 -0.3381 -0.4439
 4290SOL    HW217327   8.454   3.930   7.068 -0.4447  1.1939 -0.0939
 4291SOL     OW17328   3.976   8.658  10.136 -0.0052  0.4344 -0.3903
 4291SOL    HW117329   3.923   8.578  10.134  0.9644 -0.2186 -0.7520
 4291SOL    HW217330   4.065   8.627  10.122  0.6405  1.3699  1.4339
 4292SOL     OW17331   6.559   8.083   4.243  0.5032  0.2874  0.2762
 4292SOL    HW117332   6.509   8.164   4.233 -0.1898  0.1535  2.2805
 4292SOL    HW217333   6.494   8.013   4.239  1.2692 -0.4211 -3.2019
 4293SOL     OW17334   7.509   3.391   3.581 -0.3396 -0.0478  0.5188
 4293SOL    HW117335   7.427   3.389   3.630 -0.4949 -0.2028  0.2529
 4293SOL    HW217336   7.504   3.316   3.522 -0.4146  0.4841 -0.1576
 4294SOL     OW17337   5.793   6.389   9.902  0.0005  0.2615 -0.0153
 4294SOL    HW117338   5.860   6.422   9.842 -0.4582  0.9400 -0.1643
 4294SOL    HW217339   5.841   6.369   9.982  0.1296  2.6078  0.5713
 4295SOL     OW17340   8.043   2.117   8.723  0.4165  0.1094  0.2537
 4295SOL    HW117341   8.020   2.210   8.723 -1.3213 -0.2700  0.0157
 4295SOL    HW217342   7.965   2.074   8.688  1.4347 -1.3941 -0.2533
 4296SOL     OW17343   1.231   7.390   1.308  0.0104 -0.1705  0.0204
 4296SOL    HW117344   1.211   7.314   1.363  1.3704 -0.2997  0.3855
 4296SOL    HW217345   1.244   7.354   1.221 -1.2566 -0.0853 -0.2187
 4297SOL     OW17346   1.144   3.425   3.684  0.3984 -0.2777  0.2152
 4297SOL    HW117347   1.051   3.441   3.668  0.3379 -0.4350  0.3981
 4297SOL    HW217348   1.186   3.510   3.672  0.1537 -0.0892  0.6729
 4298SOL     OW17349   5.203   5.567   5.197  0.1852  0.1057  0.0028
 4298SOL    HW117350   5.258   5.605   5.128  2.1130 -0.6701  1.0352
 4298SOL    HW217351   5.249   5.486   5.222 -1.1698 -0.3113  1.2900
 4299SOL     OW17352   3.757   5.086   1.006  0.1663  0.3375  0.0656
 4299SOL    HW117353   3.782   5.032   1.081 -1.9335 -2.8333 -1.3054
 4299SOL    HW217354   3.667   5.112   1.024 -0.5491 -0.9029 -1.4920
 4300SOL     OW17355   4.021   8.539   9.076 -0.0670 -0.0830 -0.3755
 4300SOL    HW117356   3.944   8.585   9.044  0.5820  0.1586 -1.7022
 4300SOL    HW217357   4.020   8.551   9.171 -0.9323  1.0390 -0.5143
 4301SOL     OW17358   2.394  10.461   5.667 -0.3833 -0.3667  0.8217
 4301SOL    HW117359   2.326  10.529   5.664 -1.1116 -1.0386  1.5927
 4301SOL    HW217360   2.442  10.471   5.585 -1.6828 -0.1382  0.0646
 4302SOL     OW17361   5.480   8.836   8.002  0.4674  0.2803  0.3242
 4302SOL    HW117362   5.550   8.901   8.004  1.0324 -0.3389  1.2126
 4302SOL    HW217363   5.506   8.774   7.934  0.4290  0.4214  0.1786
 4303SOL     OW17364   5.775   3.872   4.090 -0.1514 -0.2092  0.0938
 4303SOL    HW117365   5.701   3.852   4.033 -0.1034 -2.3457  0.7211
 4303SOL    HW217366   5.851   3.871   4.032 -0.2252 -1.3613  0.0086
 4304SOL     OW17367   5.055   5.396   9.769  0.1080 -0.1807 -0.2457
 4304SOL    HW117368   4.976   5.424   9.723  1.2658  0.0681 -2.2223
 4304SOL    HW217369   5.098   5.336   9.708  2.2504  0.9816  0.0143
 4305SOL     OW17370   5.697   3.649   9.374 -0.2796  0.1843  0.0793
 4305SOL    HW117371   5.734   3.664   9.462  0.7267  2.1588 -0.6211
 4305SOL    HW217372   5.603   3.654   9.387 -0.1941 -0.6345  1.2161
 4306SOL     OW17373   6.187   2.344   8.249  0.1194  0.5853  0.1064
 4306SOL    HW117374   6.178   2.279   8.179 -0.6844 -0.1347  0.8585
 4306SOL    HW217375   6.116   2.324   8.310 -1.3457  3.3291 -0.5177
 4307SOL     OW17376   8.239   4.817   6.687 -0.1791 -0.2479 -0.4307
 4307SOL    HW117377   8.283   4.758   6.749  1.0255 -0.4603 -1.4445
 4307SOL    HW217378   8.194   4.880   6.743 -2.7652 -2.9023  0.7589
 4308SOL     OW17379   6.334   4.728   8.747  0.4321  0.2782 -0.0264
 4308SOL    HW117380   6.291   4.645   8.769 -0.3972  0.2660 -1.5916
 4308SOL    HW217381   6.375   4.756   8.829  2.7568 -2.8261  0.0363
 4309SOL     OW17382   7.456   8.399   2.288 -0.4357 -0.1791  0.2921
 4309SOL    HW117383   7.488   8.450   2.363 -1.4820 -1.0559  1.3713
 4309SOL    HW217384   7.533   8.384   2.235  0.7553 -1.2510  2.2125
 4310SOL     OW17385   3.034   2.074  11.008 -0.1350 -0.5756  0.4104
 4310SOL    HW117386   3.061   2.025  10.931 -1.0839  0.4673 -0.6217
 4310SOL    HW217387   3.110   2.071  11.067  0.6672 -1.2284 -0.6270
 4311SOL     OW17388   2.052   1.279   4.123 -0.4237 -0.0051  0.3208
 4311SOL    HW117389   2.092   1.272   4.210  0.3544 -0.2701 -0.0470
 4311SOL    HW217390   1.966   1.238   4.133 -0.1168 -0.5458  0.8296
 4312SOL     OW17391   0.135   8.989   4.630  0.0665  0.6375  0.4178
 4312SOL    HW117392   0.208   8.930   4.646  1.9612  2.3275 -1.3424
 4312SOL    HW217393   0.121   9.034   4.713  2.4251  1.6530  0.3500
 4313SOL     OW17394   4.526   4.822  11.004  0.1899  0.2172 -0.1729
 4313SOL    HW117395   4.534   4.742  11.056  0.2946  1.1102  1.2759
 4313SOL    HW217396   4.441   4.815  10.961 -0.2188 -0.2670  0.6860
 4314SOL     OW17397   1.948   9.057   0.026  0.3285 -0.2629  0.1084
 4314SOL    HW117398   1.884   9.025  -0.038  0.4654  0.9089 -0.6589
 4314SOL    HW217399   1.944   9.153   0.017  2.7888 -0.1662 -0.5811
 4315SOL     OW17400   9.126   1.806   3.542 -0.0991  0.3634  0.0374
 4315SOL    HW117401   9.177   1.866   3.596  0.4258  1.5713 -1.6839
 4315SOL    HW217402   9.039   1.807   3.580  0.5478  0.1954  1.5672
 4316SOL     OW17403   3.505   2.783  10.723  0.5196 -0.0626 -0.8170
 4316SOL    HW117404   3.473   2.869  10.694  0.6930 -0.1776 -1.3657
 4316SOL    HW217405   3.472   2.722  10.657 -0.3163 -0.5459  0.0323
 4317SOL     OW17406   5.824  10.913   7.589  0.2575 -0.3003 -0.0547
 4317SOL    HW117407   5.765  10.838   7.592  0.1794 -0.2980 -1.1999
 4317SOL    HW217408   5.812  10.950   7.502 -1.7839  2.7459  1.3354
 4318SOL     OW17409   6.071   0.410   4.807 -0.3775  0.4099 -0.0336
 4318SOL    HW117410   6.157   0.450   4.796 -0.6112  1.2673  1.0512
 4318SOL    HW217411   6.032   0.458   4.881 -1.7664  0.0182 -0.4893
 4319SOL     OW17412   5.864   5.907   7.003  0.0878 -0.3826  0.0522
 4319SOL    HW117413   5.869   5.989   7.054 -0.3822  0.1844 -0.7926
 4319SOL    HW217414   5.940   5.857   7.032  0.1877  0.1963  0.8484
 4320SOL     OW17415   9.966   1.669   9.178  0.5065  0.2713  0.4852
 4320SOL    HW117416  10.057   1.692   9.197 -0.0144  2.0561  0.9488
 4320SOL    HW217417   9.972   1.609   9.103  2.0521  0.2269  0.6050
 4321SOL     OW17418   0.172   0.788   7.979  0.0100 -0.5099  0.6893
 4321SOL    HW117419   0.118   0.713   8.002 -0.4341 -1.1533 -2.0972
 4321SOL    HW217420   0.150   0.855   8.044 -3.2191 -1.1741  0.4074
 4322SOL     OW17421   9.746   1.844   1.943 -0.3143 -0.0108 -0.0997
 4322SOL    HW117422   9.801   1.782   1.992 -0.5795 -1.3700 -1.4535
 4322SOL    HW217423   9.683   1.875   2.007  0.3688 -0.4803  0.8269
 4323SOL     OW17424   0.840   0.504   4.818 -0.1012  0.7875 -0.2088
 4323SOL    HW117425   0.847   0.409   4.818  0.0172  0.7976  0.1732
 4323SOL    HW217426   0.930   0.535   4.813 -0.1752  0.8822 -1.5684
 4324SOL     OW17427  10.392   2.357  10.785 -0.2607 -0.4751  0.2051
 4324SOL    HW117428  10.367   2.266  10.801  0.9133 -0.5992  1.5637
 4324SOL    HW217429  10.470   2.370  10.838 -0.4184  1.3491  0.0587
 4325SOL     OW17430   2.532   5.688   5.726 -0.3200 -0.4607 -0.0616
 4325SOL    HW117431   2.518   5.777   5.693 -0.4844 -0.6307 -0.4542
 4325SOL    HW217432   2.596   5.699   5.796  1.6049 -0.3283 -1.7659
 4326SOL     OW17433   7.304   5.579  10.701 -0.2795 -0.3216  0.2092
 4326SOL    HW117434   7.339   5.494  10.674  2.3103  0.5747  0.5021
 4326SOL    HW217435   7.312   5.579  10.797 -0.1909  0.2783  0.2064
 4327SOL     OW17436   0.007   5.532   0.299  0.1781 -0.0960 -0.0482
 4327SOL    HW117437   0.022   5.444   0.263  0.9440 -0.3621  0.9005
 4327SOL    HW217438  -0.066   5.566   0.247 -1.4865 -2.0555  0.8289
 4328SOL     OW17439   3.339   4.028   8.188  0.3453  0.3521  0.1519
 4328SOL    HW117440   3.387   4.103   8.153  1.4434 -0.1552  0.5500
 4328SOL    HW217441   3.348   4.035   8.283  0.3234 -0.2050  0.1987
 4329SOL     OW17442   5.401   4.682   1.247  0.3542  0.4110  0.2550
 4329SOL    HW117443   5.397   4.765   1.295 -0.0128  0.7092 -0.2726
 4329SOL    HW217444   5.408   4.615   1.314 -0.4457  0.8007  0.7399
 4330SOL     OW17445   3.893   7.616   9.986  0.2164 -0.3206  0.3067
 4330SOL    HW117446   3.953   7.589  10.056  0.8242 -1.6467 -0.6636
 4330SOL    HW217447   3.811   7.573  10.007  1.2152 -3.3933 -1.3016
 4331SOL     OW17448   3.398   6.655   2.547  0.2109 -0.5549  0.7312
 4331SOL    HW117449   3.342   6.618   2.616 -0.5603 -0.3244  0.2512
 4331SOL    HW217450   3.459   6.711   2.594 -0.8823  0.3164  1.1726
 4332SOL     OW17451   5.987   0.607   7.387 -0.2556 -0.9328 -0.7804
 4332SOL    HW117452   5.990   0.697   7.419  1.2432 -0.5824 -1.7973
 4332SOL    HW217453   5.919   0.608   7.320  0.4909 -0.2568 -1.5565
 4333SOL     OW17454   3.255   4.250   4.276  0.4621  0.0512 -0.2133
 4333SOL    HW117455   3.249   4.300   4.194  0.9804 -0.3522 -0.5042
 4333SOL    HW217456   3.349   4.246   4.294  0.5903 -2.2643 -1.1184
 4334SOL     OW17457   0.956   6.484   0.642  0.9203 -0.1419  0.0937
 4334SOL    HW117458   0.928   6.394   0.621 -0.9466  0.7309 -1.4837
 4334SOL    HW217459   0.898   6.510   0.714 -0.1674  0.5475 -0.9942
 4335SOL     OW17460   0.353   9.121   0.751  0.1080  0.2561 -0.1988
 4335SOL    HW117461   0.324   9.210   0.771  0.3246  0.1103  0.7749
 4335SOL    HW217462   0.300   9.095   0.675 -1.7696  0.2701  1.0643
 4336SOL     OW17463   0.133   6.115   0.038 -0.5194 -0.1921 -0.2715
 4336SOL    HW117464   0.113   6.093   0.129 -1.2549  2.8745  0.4214
 4336SOL    HW217465   0.048   6.135  -0.001 -0.0062  0.5360 -1.0368
 4337SOL     OW17466   9.608   3.705   3.493  0.4201 -0.2607  0.1470
 4337SOL    HW117467   9.692   3.681   3.532  0.9472  1.3820  0.1202
 4337SOL    HW217468   9.561   3.749   3.564 -0.9170 -2.1407  0.4954
 4338SOL     OW17469   3.299  10.593   9.461 -0.5578  0.0373 -0.0411
 4338SOL    HW117470   3.386  10.553   9.454 -1.1972 -1.2209 -1.7125
 4338SOL    HW217471   3.254  10.540   9.527 -0.6531 -0.5964 -0.5931
 4339SOL     OW17472   8.732   8.946   1.245  0.0554 -0.6055 -0.7654
 4339SOL    HW117473   8.660   8.950   1.308 -1.3160 -1.9554 -2.1539
 4339SOL    HW217474   8.811   8.953   1.299 -1.0767  0.3579  0.8693
 4340SOL     OW17475   1.656   5.657   2.528  1.0200  0.1514 -0.3910
 4340SOL    HW117476   1.617   5.617   2.606  0.9666 -0.0509 -0.5196
 4340SOL    HW217477   1.698   5.736   2.560 -0.1254  0.7779 -0.3578
 4341SOL     OW17478   6.954   5.310   4.708 -0.4503  0.2375 -0.1831
 4341SOL    HW117479   6.883   5.354   4.661 -1.2032  0.2545  0.9511
 4341SOL    HW217480   6.928   5.218   4.711  0.4572 -0.0856 -1.3281
 4342SOL     OW17481   1.152   6.302   1.256  0.1997  0.2660  0.9729
 4342SOL    HW117482   1.203   6.320   1.335  1.8872  1.5746 -0.3430
 4342SOL    HW217483   1.170   6.376   1.198 -3.0643  0.6828  0.3037
 4343SOL     OW17484   7.553   0.023   9.635 -0.1788 -0.5049 -0.1006
 4343SOL    HW117485   7.475   0.011   9.581  0.6542 -0.1853 -1.4128
 4343SOL    HW217486   7.523   0.004   9.724 -2.3423  1.9388 -0.1801
 4344SOL     OW17487   4.085   2.784   4.945  0.1906 -0.5773  0.6017
 4344SOL    HW117488   4.165   2.750   4.903 -0.5517 -1.0193 -0.5079
 4344SOL    HW217489   4.106   2.785   5.038  1.4099 -0.9182  0.3566
 4345SOL     OW17490  10.062   2.487  10.131  1.1106  0.5822  0.2722
 4345SOL    HW117491  10.001   2.418  10.158  1.5734  1.1070  2.9231
 4345SOL    HW217492  10.023   2.523  10.052 -2.0506  0.8501  1.7638
 4346SOL     OW17493   7.094   7.026   5.310 -0.1691  0.0296 -0.2410
 4346SOL    HW117494   7.008   7.001   5.277  0.3826 -0.0515 -1.6619
 4346SOL    HW217495   7.078   7.106   5.361 -1.1731 -0.3509  0.0544
 4347SOL     OW17496   6.279   6.563   8.682  0.1801 -0.3707 -0.3569
 4347SOL    HW117497   6.321   6.647   8.666  0.1129 -0.4021 -0.7122
 4347SOL    HW217498   6.314   6.506   8.614  0.3784 -0.6847  0.0048
 4348SOL     OW17499   1.765   7.074   4.437 -0.7661 -0.1498 -0.2000
 4348SOL    HW117500   1.738   7.026   4.358 -2.1573  0.9236 -0.4223
 4348SOL    HW217501   1.850   7.111   4.414  0.8442 -3.2163  0.3263
 4349SOL     OW17502   4.240   3.060  10.727 -0.4173 -0.4644  0.2596
 4349SOL    HW117503   4.159   3.023  10.762 -0.2319 -1.3997 -0.2581
 4349SOL    HW217504   4.212   3.129  10.667 -0.7477  1.0550  2.0574
 4350SOL     OW17505   8.120   9.107   9.938  0.4709  0.3044  0.6102
 4350SOL    HW117506   8.054   9.059   9.987 -0.0026  0.5802  0.2476
 4350SOL    HW217507   8.125   9.063   9.853  0.8645  0.1918  0.6874
 4351SOL     OW17508   5.279   4.804   1.659 -0.3938 -0.4464 -0.4656
 4351SOL    HW117509   5.196   4.789   1.614  0.0003 -1.6085 -0.8667
 4351SOL    HW217510   5.262   4.782   1.750 -0.3243 -1.5673 -0.7052
 4352SOL     OW17511   6.743   2.078   0.831  0.6798  0.4986 -0.0500
 4352SOL    HW117512   6.833   2.056   0.855  0.2704 -0.1616  0.9384
 4352SOL    HW217513   6.726   2.026   0.753  1.4294  1.2873 -0.7669
 4353SOL     OW17514   2.912   4.240   9.424 -0.0936  0.0413 -0.1311
 4353SOL    HW117515   2.919   4.158   9.376  0.1191  0.7721 -1.4106
 4353SOL    HW217516   2.946   4.221   9.511  1.4464 -0.8152 -0.8950
 4354SOL     OW17517   2.349  10.763   5.660 -1.0507  0.5246  0.0477
 4354SOL    HW117518   2.369  10.856   5.646 -2.1017  0.5204 -1.7938
 4354SOL    HW217519   2.273  10.764   5.719 -0.4292  0.7731  0.8668
 4355SOL     OW17520   8.138   9.089   4.194 -0.2191  0.4573  0.5359
 4355SOL    HW117521   8.086   9.152   4.243 -2.2374 -0.2719 -0.5617
 4355SOL    HW217522   8.105   9.094   4.104  0.4536 -1.2189  0.1463
 4356SOL     OW17523  10.515   2.241   8.631 -0.1442  0.0239 -0.0262
 4356SOL    HW117524  10.474   2.307   8.688 -1.4922 -0.8947  0.1218
 4356SOL    HW217525  10.446   2.217   8.569  0.2127 -1.4588  0.1219
 4357SOL     OW17526  10.939   7.372  10.868 -0.2430 -0.2548  0.4341
 4357SOL    HW117527  10.913   7.295  10.917 -0.8879 -0.1358  0.2824
 4357SOL    HW217528  10.903   7.359  10.780 -2.7384  1.4253  1.1006
 4358SOL     OW17529   6.794   9.356  10.598 -0.7973 -0.9041 -0.4218
 4358SOL    HW117530   6.772   9.285  10.658  0.9234 -0.8749  0.2986
 4358SOL    HW217531   6.742   9.431  10.629  0.2419 -0.8170  1.2318
 4359SOL     OW17532   7.459   4.763  10.891 -0.1486 -0.2979  0.3803
 4359SOL    HW117533   7.429   4.703  10.822 -0.4643 -0.1248  0.3696
 4359SOL    HW217534   7.555   4.753  10.890 -0.2557 -1.6628  1.1571
 4360SOL     OW17535   0.032   1.565   9.271 -0.2310  0.4688  0.6508
 4360SOL    HW117536  -0.022   1.641   9.251 -1.1924  0.3486  2.5716
 4360SOL    HW217537   0.043   1.567   9.366 -1.6110 -2.5911  1.0071
 4361SOL     OW17538   4.948   3.168   5.709 -0.4705 -0.2676 -0.1377
 4361SOL    HW117539   4.921   3.086   5.667 -0.0803 -1.3916  1.6546
 4361SOL    HW217540   5.035   3.186   5.672 -0.9706 -0.1007 -1.2660
 4362SOL     OW17541   7.136   7.203   3.076  0.5937 -0.4870 -0.1630
 4362SOL    HW117542   7.209   7.145   3.054  0.2909 -0.6402 -0.7716
 4362SOL    HW217543   7.059   7.155   3.047  0.2650 -0.2267  0.2797
 4363SOL     OW17544   2.178   7.619   4.091 -0.1026  0.5384  0.2642
 4363SOL    HW117545   2.149   7.596   4.179 -0.8421 -1.5449 -0.4555
 4363SOL    HW217546   2.224   7.702   4.101 -0.0530  0.2747  2.6175
 4364SOL     OW17547   0.775   7.133   9.395 -0.2913  0.2213  0.2604
 4364SOL    HW117548   0.867   7.113   9.379  0.0293  2.4017 -0.8847
 4364SOL    HW217549   0.728   7.085   9.327 -0.1082 -1.3664  1.1971
 4365SOL     OW17550   0.128  10.801   8.295  0.2580 -0.0818  0.2518
 4365SOL    HW117551   0.113  10.893   8.274  1.0761  0.0000 -0.0281
 4365SOL    HW217552   0.051  10.775   8.345 -0.5241  0.4345 -0.6426
 4366SOL     OW17553  10.701   7.803   5.832  0.4501 -0.1375  0.0602
 4366SOL    HW117554  10.784   7.792   5.785  1.0291 -0.4153  1.1254
 4366SOL    HW217555  10.726   7.848   5.913 -0.5777  0.6090 -0.0270
 4367SOL     OW17556  10.516  10.129  10.429  0.1035  0.2859  0.0376
 4367SOL    HW117557  10.470  10.160  10.351  1.5474  2.2251 -0.1214
 4367SOL    HW217558  10.446  10.093  10.485 -2.0342  4.4668  0.4908
 4368SOL     OW17559   3.368  10.048   5.629  0.2733  0.4060  0.1064
 4368SOL    HW117560   3.321   9.978   5.583  0.7157 -0.1561  0.5020
 4368SOL    HW217561   3.320  10.058   5.711  1.4027 -0.8755  0.9701
 4369SOL     OW17562  10.447   4.622   4.405  0.2048 -0.0943 -0.0015
 4369SOL    HW117563  10.482   4.647   4.319  1.2799  0.5974  0.6099
 4369SOL    HW217564  10.359   4.591   4.387  1.5502 -3.3959 -1.8883
 4370SOL     OW17565   0.141   0.816  10.504 -0.0287  0.3869 -0.7380
 4370SOL    HW117566   0.158   0.855  10.589  1.1997 -1.5909 -0.0095
 4370SOL    HW217567   0.228   0.799  10.467 -0.5159 -0.6007 -1.4919
 4371SOL     OW17568   9.508   8.027   5.947 -0.4476 -0.1360  0.2074
 4371SOL    HW117569   9.468   7.963   5.888 -0.9748  0.3388  0.0469
 4371SOL    HW217570   9.481   8.000   6.035  0.1452 -0.7050  0.2249
 4372SOL     OW17571   8.299   3.066   6.990 -0.0045 -0.3375  0.5739
 4372SOL    HW117572   8.270   3.128   7.057  0.7379 -2.4330  2.9853
 4372SOL    HW217573   8.386   3.097   6.964  0.0060  0.1107  1.1278
 4373SOL     OW17574   0.112   6.131   9.071  0.3483 -0.1762 -0.2247
 4373SOL    HW117575   0.054   6.204   9.094  1.4997  0.5233  0.5884
 4373SOL    HW217576   0.132   6.089   9.155  0.2496 -1.0115 -0.6090
 4374SOL     OW17577   3.181   2.652  10.142  0.5292 -0.4154  0.1560
 4374SOL    HW117578   3.122   2.656  10.217 -0.0873 -0.5521 -0.3141
 4374SOL    HW217579   3.223   2.738  10.140  0.8806 -0.5663  0.9197
 4375SOL     OW17580  10.001  10.245   7.146 -0.1139  0.5886 -0.0336
 4375SOL    HW117581  10.076  10.192   7.174 -1.4511 -1.5577 -0.2769
 4375SOL    HW217582  10.038  10.305   7.081  1.4264 -0.3135 -0.0600
 4376SOL     OW17583   7.987   2.084   6.173  0.2412 -0.5699  0.1641
 4376SOL    HW117584   7.918   2.119   6.229  1.7199  1.5463  0.7970
 4376SOL    HW217585   8.037   2.026   6.229  0.0136 -0.7312  0.2014
 4377SOL     OW17586  10.210   7.386   2.411 -0.3481  0.4110 -0.0434
 4377SOL    HW117587  10.149   7.314   2.392  0.2294  0.1084 -0.7968
 4377SOL    HW217588  10.166   7.464   2.378 -0.1841  0.1476 -0.8996
 4378SOL     OW17589   9.154   3.258   9.509 -0.3340  0.5142 -0.5603
 4378SOL    HW117590   9.124   3.168   9.498 -0.4948  0.4253  0.5065
 4378SOL    HW217591   9.176   3.287   9.421 -0.5390 -0.4790 -0.9489
 4379SOL     OW17592  11.035   1.561  10.730  0.2201  0.5388  0.8996
 4379SOL    HW117593  11.067   1.500  10.664 -0.4840  1.1550 -0.0382
 4379SOL    HW217594  11.114   1.598  10.769  0.6448 -0.2194  0.7677
 4380SOL     OW17595   0.357   1.967   3.260  0.3944 -0.1506 -0.1359
 4380SOL    HW117596   0.285   1.928   3.310 -1.2867  2.4418 -0.3607
 4380SOL    HW217597   0.430   1.971   3.321 -0.9762  1.0566  1.5114
 4381SOL     OW17598   8.874   6.410   0.954 -0.2591  0.5561 -0.0962
 4381SOL    HW117599   8.961   6.441   0.978 -0.3098  0.6413 -0.0212
 4381SOL    HW217600   8.816   6.483   0.975 -0.4134  0.3146  0.3394
 4382SOL     OW17601   3.494   5.233   4.759  0.1444 -0.2763 -0.4613
 4382SOL    HW117602   3.508   5.241   4.665  0.8648 -1.0137 -0.4271
 4382SOL    HW217603   3.419   5.175   4.768  0.3313 -0.5324 -0.5726
 4383SOL     OW17604   9.126   4.417  10.575  0.9792 -0.2249 -0.1715
 4383SOL    HW117605   9.038   4.413  10.538  1.2075 -0.8057 -0.6604
 4383SOL    HW217606   9.122   4.360  10.652  0.1623  1.9203  1.4938
 4384SOL     OW17607   6.151   7.208   4.953 -0.1549 -0.2434 -0.2203
 4384SOL    HW117608   6.068   7.249   4.930  0.7088  1.7692  0.0911
 4384SOL    HW217609   6.198   7.201   4.870 -0.0848 -0.1263 -0.1897
 4385SOL     OW17610   3.249  10.677   4.660 -0.2900  0.2984 -0.5470
 4385SOL    HW117611   3.176  10.616   4.671  0.2150  0.1338  3.1145
 4385SOL    HW217612   3.228  10.725   4.580 -1.7931 -3.1136 -2.4224
 4386SOL     OW17613   5.876   0.333  10.121 -0.2178  0.6871  0.1349
 4386SOL    HW117614   5.849   0.356  10.210  0.2102  3.6156 -0.3860
 4386SOL    HW217615   5.965   0.300  10.130 -0.4642  0.2078  0.8630
 4387SOL     OW17616   9.177   9.740   9.317  0.3082 -0.7303 -0.6975
 4387SOL    HW117617   9.127   9.736   9.398  1.6321 -0.6201  0.1662
 4387SOL    HW217618   9.116   9.710   9.249 -1.2082  0.3526  0.1364
 4388SOL     OW17619   1.060   7.407   8.611 -0.1024  0.0875  0.1729
 4388SOL    HW117620   0.992   7.456   8.657 -1.2743  0.2314 -1.6219
 4388SOL    HW217621   1.106   7.359   8.680  0.0481  2.4179  1.7963
 4389SOL     OW17622   4.841   9.734   0.246 -0.4307 -0.2440  0.8296
 4389SOL    HW117623   4.933   9.714   0.265 -0.2889  1.1462  1.7160
 4389SOL    HW217624   4.795   9.714   0.327 -0.7265  0.2564  0.7854
 4390SOL     OW17625   9.555   9.371   0.520  0.6471  0.6376  0.3204
 4390SOL    HW117626   9.592   9.423   0.449 -1.8155  1.6686 -0.3203
 4390SOL    HW217627   9.575   9.280   0.498 -0.1133  0.9364 -1.7688
 4391SOL     OW17628   1.567   9.547   2.626 -0.2714  0.0250  0.3578
 4391SOL    HW117629   1.484   9.555   2.581 -0.0747 -0.6850 -0.1377
 4391SOL    HW217630   1.586   9.636   2.657 -1.3554  0.1291  0.7539
 4392SOL     OW17631   0.367  10.892   5.482 -0.5837 -0.0546 -0.4143
 4392SOL    HW117632   0.413  10.812   5.458  0.7343 -0.2969  2.4516
 4392SOL    HW217633   0.427  10.937   5.542 -2.0767  2.1408 -0.4338
 4393SOL     OW17634   7.619   4.628   3.275 -0.0636 -0.0200  0.0734
 4393SOL    HW117635   7.656   4.548   3.313 -1.0754  0.1200  1.4477
 4393SOL    HW217636   7.528   4.605   3.256 -0.1511  0.5726 -0.2395
 4394SOL     OW17637  10.852  10.865   5.951  0.4791 -0.1920  0.3446
 4394SOL    HW117638  10.814  10.953   5.945  0.5388 -0.1034  1.0621
 4394SOL    HW217639  10.815  10.829   6.032  0.6951 -0.7084  0.2163
 4395SOL     OW17640   6.065   6.042   6.514  0.0455  0.2117  0.0961
 4395SOL    HW117641   6.038   6.124   6.472  0.1705  0.4153  0.4118
 4395SOL    HW217642   6.007   5.976   6.475  0.9094  0.2013 -1.2566
 4396SOL     OW17643   6.459   6.378   8.025  0.1487 -0.7563  0.3309
 4396SOL    HW117644   6.424   6.437   7.958  1.4520 -1.6038 -1.1815
 4396SOL    HW217645   6.443   6.290   7.990  3.4038 -1.2206 -0.3963
 4397SOL     OW17646   2.822  10.142   2.532 -0.1450  0.0902 -0.2157
 4397SOL    HW117647   2.858  10.200   2.599 -0.9552  0.0869  0.2300
 4397SOL    HW217648   2.730  10.168   2.524 -0.5254 -1.1224 -0.0058
 4398SOL     OW17649   9.993  10.224   8.436 -0.0209  0.1140 -0.2664
 4398SOL    HW117650   9.944  10.303   8.416  0.8437  0.4589 -1.1336
 4398SOL    HW217651  10.082  10.242   8.404  0.0755 -1.3826 -0.9537
 4399SOL     OW17652   5.151   9.007   2.481  0.5478  0.3486  0.0005
 4399SOL    HW117653   5.057   9.019   2.469  0.4427 -1.1984 -0.8684
 4399SOL    HW217654   5.176   8.944   2.414  2.4810  1.7861 -0.7315
 4400SOL     OW17655   6.985   2.286   5.307 -0.3891  0.0772  0.0645
 4400SOL    HW117656   7.072   2.271   5.344 -0.5143  1.0726  0.8262
 4400SOL    HW217657   6.996   2.365   5.253 -0.3242 -1.0635 -1.6903
 4401SOL     OW17658   8.727  10.334   7.550 -0.7395  0.1266 -0.4637
 4401SOL    HW117659   8.772  10.325   7.466  0.1418 -1.0558  0.0999
 4401SOL    HW217660   8.644  10.287   7.538 -0.5710 -0.1288 -0.6383
 4402SOL     OW17661   6.008   9.418   0.261  0.4003 -0.6280  0.0244
 4402SOL    HW117662   6.001   9.329   0.295 -2.8805 -0.4580  0.1152
 4402SOL    HW217663   6.075   9.413   0.193  0.9533 -2.9298  0.6607
 4403SOL     OW17664   4.322   2.966   9.196 -0.4809 -0.5564  0.2976
 4403SOL    HW117665   4.270   2.890   9.169 -0.5133 -0.1406 -0.8817
 4403SOL    HW217666   4.359   3.000   9.115  1.9481 -1.0206  1.1299
 4404SOL     OW17667   4.737   5.321   8.378 -0.9932  0.4981  0.2390
 4404SOL    HW117668   4.730   5.385   8.307  0.1287  1.3123  0.8284
 4404SOL    HW217669   4.675   5.353   8.444 -1.1882  0.3952  0.1066
 4405SOL     OW17670   7.105   6.471   3.079  0.2046  0.3204  0.2478
 4405SOL    HW117671   7.138   6.484   3.167 -0.5283 -0.1238  0.6049
 4405SOL    HW217672   7.167   6.409   3.039  1.1203  1.3161  0.0798
 4406SOL     OW17673   6.495  10.605   2.431  0.8680  0.4595 -0.0830
 4406SOL    HW117674   6.480  10.511   2.427 -1.7539  0.7123  1.6664
 4406SOL    HW217675   6.575  10.615   2.484  0.0203 -0.7729  1.5064
 4407SOL     OW17676   4.258   9.794   8.264  0.4131  0.1512 -0.4624
 4407SOL    HW117677   4.168   9.826   8.267  1.2256  2.6504 -0.5383
 4407SOL    HW217678   4.290   9.805   8.354  0.3861 -1.6373 -0.2085
 4408SOL     OW17679   0.959   7.835   0.316 -0.1697  0.1256  0.4983
 4408SOL    HW117680   0.919   7.854   0.400 -0.3833 -0.3658  0.5123
 4408SOL    HW217681   0.896   7.779   0.271 -0.6606  1.4449 -0.5327
 4409SOL     OW17682   1.869   9.755   4.247  0.1113 -0.4169  0.0772
 4409SOL    HW117683   1.891   9.663   4.264  1.4595  0.0801  1.1924
 4409SOL    HW217684   1.948   9.803   4.271 -1.3656  1.2559  1.8109
 4410SOL     OW17685   4.666   3.976   8.915  0.4952 -0.0520 -0.5063
 4410SOL    HW117686   4.720   3.899   8.933  0.7956 -0.0041 -1.1665
 4410SOL    HW217687   4.729   4.048   8.909  0.1745  0.3317  0.5687
 4411SOL     OW17688   2.403   6.225   2.672  0.2811 -0.1804  0.0384
 4411SOL    HW117689   2.396   6.143   2.721 -0.1177 -0.5941 -0.6861
 4411SOL    HW217690   2.409   6.293   2.739  1.7657 -0.8775  0.6592
 4412SOL     OW17691   3.226   0.364  10.635  0.2599  0.1396 -0.5085
 4412SOL    HW117692   3.307   0.351  10.586 -1.4723 -1.3553 -3.2202
 4412SOL    HW217693   3.168   0.408  10.574 -0.9980  1.3022  1.4145
 4413SOL     OW17694  10.705   0.055   2.291 -0.6462 -0.0006 -0.0886
 4413SOL    HW117695  10.628   0.042   2.234 -1.8237  0.4327  1.3607
 4413SOL    HW217696  10.717  -0.030   2.334 -0.6316  0.0887  0.0824
 4414SOL     OW17697   8.693  10.432   9.703 -0.5949 -0.0802 -0.2452
 4414SOL    HW117698   8.705  10.337   9.698  0.0946 -0.0291  0.3869
 4414SOL    HW217699   8.764  10.468   9.651  0.0058  0.1245  0.6966
 4415SOL     OW17700   3.786   9.001  10.654  0.1145  0.1607 -0.2536
 4415SOL    HW117701   3.694   9.009  10.677  0.5203  1.0388  1.1424
 4415SOL    HW217702   3.791   8.920  10.603 -1.4504  0.2153 -0.5258
 4416SOL     OW17703   1.275   8.938   2.874  0.4953 -0.0536  0.3543
 4416SOL    HW117704   1.300   8.986   2.953  0.9329 -0.7257  0.6336
 4416SOL    HW217705   1.263   9.006   2.808  1.8004  0.3992  0.5543
 4417SOL     OW17706   3.073   2.889   7.042 -0.6895  0.3625  0.3854
 4417SOL    HW117707   3.165   2.892   7.070 -0.9474 -1.7439  1.7142
 4417SOL    HW217708   3.046   2.980   7.039  1.1889  0.9922  0.8898
 4418SOL     OW17709   8.561   1.761   9.413  0.3673 -0.1551  0.7943
 4418SOL    HW117710   8.568   1.672   9.448  0.5039 -1.0983 -1.4559
 4418SOL    HW217711   8.467   1.773   9.397  0.3779 -0.0032  0.8432
 4419SOL     OW17712  10.922   3.199   3.493 -0.6063  0.4602 -0.0550
 4419SOL    HW117713  10.978   3.159   3.560  0.3566 -0.0299 -1.1273
 4419SOL    HW217714  10.940   3.293   3.500 -2.1964  0.6788  1.8600
 4420SOL     OW17715   4.026   9.124   2.762 -0.6216  0.1484  0.5170
 4420SOL    HW117716   3.966   9.050   2.748  1.4870 -1.3714 -1.0914
 4420SOL    HW217717   3.968   9.200   2.769 -2.7810 -1.3325 -0.0570
 4421SOL     OW17718   2.519   0.494   1.353 -1.0044  0.0177  0.3725
 4421SOL    HW117719   2.578   0.450   1.415 -0.4167  0.5945  0.2323
 4421SOL    HW217720   2.465   0.551   1.408 -1.5129 -0.5923  0.5133
 4422SOL     OW17721   3.723   8.747   6.292  0.2389 -0.2534 -0.1376
 4422SOL    HW117722   3.653   8.775   6.351 -1.5401 -1.5094 -1.5344
 4422SOL    HW217723   3.704   8.792   6.209  2.7700  1.6008  0.1663
 4423SOL     OW17724   7.115   9.742   2.657 -0.0929  0.0214  0.1576
 4423SOL    HW117725   7.087   9.834   2.661 -1.0482 -0.2608  0.4388
 4423SOL    HW217726   7.181   9.740   2.588  1.4687  1.2890  1.5071
 4424SOL     OW17727   4.897   6.722   5.771 -0.4631  0.0218  0.9007
 4424SOL    HW117728   4.932   6.810   5.789  0.6351 -0.6976  2.5542
 4424SOL    HW217729   4.807   6.738   5.742  0.2951  1.7688 -0.6847
 4425SOL     OW17730   1.064   2.119   8.452  0.4435 -0.2414 -0.2608
 4425SOL    HW117731   1.151   2.082   8.435  1.3743  1.0754  1.2769
 4425SOL    HW217732   1.077   2.214   8.444 -1.2953 -0.0728 -1.6975
 4426SOL     OW17733  10.909   6.299   0.819 -0.1969 -0.0827  0.0832
 4426SOL    HW117734  10.935   6.287   0.910 -0.7529 -1.8477  0.0412
 4426SOL    HW217735  10.814   6.307   0.822 -0.1956  0.1063 -0.3206
 4427SOL     OW17736   7.547   9.100   4.490  0.1846 -0.0562  0.2571
 4427SOL    HW117737   7.562   9.037   4.561 -0.4588  0.4325  0.8424
 4427SOL    HW217738   7.525   9.182   4.535 -0.9335  0.0880 -0.5067
 4428SOL     OW17739   1.767   1.986   4.646 -0.3730 -0.0822  0.0537
 4428SOL    HW117740   1.692   1.996   4.704 -0.3100 -0.9944  0.3025
 4428SOL    HW217741   1.832   2.047   4.680 -0.3211 -0.6314  0.9691
 4429SOL     OW17742   7.978   3.950   3.659  0.1245 -0.3088  0.1151
 4429SOL    HW117743   7.908   3.928   3.597 -0.8001  0.1321  0.9739
 4429SOL    HW217744   7.988   3.871   3.712  0.8350 -0.6454 -0.5072
 4430SOL     OW17745   0.106  10.960   6.120  0.4050  0.0188 -0.2867
 4430SOL    HW117746   0.127  10.995   6.033 -0.8863  0.7462 -0.3344
 4430SOL    HW217747   0.183  10.978   6.173  1.0221  0.0039 -1.1464
 4431SOL     OW17748   9.047   3.322   4.148 -0.7059  0.2966  0.5792
 4431SOL    HW117749   9.055   3.323   4.244  1.1100  0.5879  0.4561
 4431SOL    HW217750   9.108   3.388   4.118 -0.2089 -0.7581 -0.8464
 4432SOL     OW17751   5.029   9.868   6.619 -0.1815  0.0651 -0.3297
 4432SOL    HW117752   5.109   9.917   6.601 -0.7777  1.0093 -0.4519
 4432SOL    HW217753   4.958   9.932   6.610 -0.9090 -0.6158  0.3558
 4433SOL     OW17754   4.752   2.913  10.713  0.2320 -0.2175 -0.1022
 4433SOL    HW117755   4.764   2.921  10.807  0.0400 -2.0128  0.1168
 4433SOL    HW217756   4.697   2.987  10.688 -2.1541 -1.2568  1.7010
 4434SOL     OW17757   3.860   7.660  10.328 -0.0571 -0.6465 -0.4690
 4434SOL    HW117758   3.936   7.625  10.282  0.4908 -0.1290  0.0410
 4434SOL    HW217759   3.829   7.586  10.381  0.1447 -0.8271 -0.5989
 4435SOL     OW17760   5.533   3.801   7.468 -0.4440 -0.1265  0.0852
 4435SOL    HW117761   5.611   3.746   7.474  0.2913  0.7478 -1.0444
 4435SOL    HW217762   5.557   3.881   7.515 -0.7764  0.0223  0.0024
 4436SOL     OW17763  10.935   0.510   8.789 -0.9171  0.0669 -0.1108
 4436SOL    HW117764  10.937   0.596   8.831 -1.2627  0.0776 -0.1136
 4436SOL    HW217765  10.848   0.504   8.751 -0.7381 -0.1016 -0.4982
 4437SOL     OW17766   1.304   7.742   6.622  0.4296  0.4462  0.2531
 4437SOL    HW117767   1.256   7.748   6.539  2.0272  1.0714 -0.6691
 4437SOL    HW217768   1.251   7.791   6.685 -0.4837  0.5035 -0.5442
 4438SOL     OW17769  10.056   3.292   9.403 -0.0737 -0.4453 -0.0359
 4438SOL    HW117770  10.037   3.201   9.380  1.4042 -0.8091  0.0464
 4438SOL    HW217771  10.002   3.310   9.479  0.8324 -1.8245  0.9808
 4439SOL     OW17772   4.207   6.404   1.465 -0.4667 -0.3042 -0.1275
 4439SOL    HW117773   4.217   6.499   1.476 -1.2006 -0.2792  0.4921
 4439SOL    HW217774   4.114   6.388   1.482 -0.0010 -1.3741  1.7240
 4440SOL     OW17775   3.721   9.523   5.115  0.1000  0.2433  0.3789
 4440SOL    HW117776   3.694   9.521   5.023  1.2714  2.3565 -0.0918
 4440SOL    HW217777   3.660   9.465   5.159 -0.8379 -0.4226 -1.6430
 4441SOL     OW17778   9.881   0.306   9.591 -0.1298  0.3197 -0.1282
 4441SOL    HW117779   9.963   0.338   9.554 -0.5839  0.9221 -0.6603
 4441SOL    HW217780   9.862   0.226   9.542  0.0784  0.2577 -0.1036
 4442SOL     OW17781   2.699   0.391   6.824  0.3868  0.2772  0.2933
 4442SOL    HW117782   2.636   0.349   6.766  2.4628  0.1211 -2.0230
 4442SOL    HW217783   2.757   0.320   6.853 -0.5258  0.3683  2.5826
 4443SOL     OW17784   1.307   5.094   7.914  0.0793 -0.8781  0.0770
 4443SOL    HW117785   1.230   5.150   7.902 -0.1534 -1.1167  0.4452
 4443SOL    HW217786   1.381   5.152   7.899 -0.1702 -0.6695 -0.3874
 4444SOL     OW17787   5.543   4.522   5.062  0.3181 -0.2695  0.2762
 4444SOL    HW117788   5.607   4.453   5.046  1.9843  0.9674  1.3128
 4444SOL    HW217789   5.460   4.486   5.030  1.1782 -2.6283  0.5191
 4445SOL     OW17790   3.349   5.539  10.668 -0.3776 -0.0035  0.1786
 4445SOL    HW117791   3.313   5.549  10.756  1.8028  0.5815  1.0714
 4445SOL    HW217792   3.360   5.444  10.657  0.2220 -0.0375  0.9539
 4446SOL     OW17793   5.471   9.978   7.993 -0.1530 -0.0759  0.1607
 4446SOL    HW117794   5.485   9.903   7.934  0.3486 -0.0489  0.2471
 4446SOL    HW217795   5.391   9.955   8.041  0.5351 -1.0140  0.8977
 4447SOL     OW17796   4.222   4.892   3.003  0.3126 -0.5803 -0.0521
 4447SOL    HW117797   4.296   4.942   2.967 -0.6987 -0.7563 -2.5402
 4447SOL    HW217798   4.227   4.807   2.959 -1.3351 -0.5933 -0.2844
 4448SOL     OW17799   5.615   1.164   9.046 -0.4764 -0.2707 -0.4972
 4448SOL    HW117800   5.603   1.203   9.132 -1.4736  0.2933 -0.8829
 4448SOL    HW217801   5.703   1.125   9.050 -1.5625 -2.7900  1.7412
 4449SOL     OW17802   0.075   7.121   8.851  0.2356 -0.3356 -0.7379
 4449SOL    HW117803  -0.002   7.121   8.793  0.4523 -0.9309 -1.0358
 4449SOL    HW217804   0.057   7.051   8.914  0.3655 -0.2249 -0.5770
 4450SOL     OW17805   0.477   6.485   3.332 -0.4816  0.3343 -0.0060
 4450SOL    HW117806   0.497   6.564   3.382 -0.4771 -0.2324  0.9092
 4450SOL    HW217807   0.491   6.413   3.394 -1.4318 -0.3278 -0.5373
 4451SOL     OW17808   0.770   8.772   4.490 -0.2015 -0.0104  0.4147
 4451SOL    HW117809   0.719   8.847   4.520  0.6355  0.1772  1.4062
 4451SOL    HW217810   0.786   8.721   4.569 -0.3173 -0.9769 -0.1678
 4452SOL     OW17811   9.949   2.377   8.174 -0.3311  0.4132 -0.0296
 4452SOL    HW117812  10.006   2.396   8.249 -1.8805 -0.2571  1.3980
 4452SOL    HW217813   9.908   2.293   8.196 -1.7205  0.7791 -1.0596
 4453SOL     OW17814   8.071   8.964   4.424 -0.0909  0.1353 -0.2262
 4453SOL    HW117815   8.099   9.017   4.349 -1.3092  3.7502  1.5988
 4453SOL    HW217816   7.976   8.977   4.428 -0.0940 -0.1095  1.7426
 4454SOL     OW17817   9.485   7.295   2.063  0.1392 -0.4624  0.2516
 4454SOL    HW117818   9.413   7.251   2.017 -0.5114  0.5443  0.2657
 4454SOL    HW217819   9.446   7.377   2.095  0.7846 -0.7760  1.9413
 4455SOL     OW17820   8.119   3.060   3.089 -0.1984 -0.0569  0.0224
 4455SOL    HW117821   8.025   3.070   3.105 -0.9478 -3.2559 -1.5829
 4455SOL    HW217822   8.125   3.023   3.001  2.7610  1.9994 -0.8038
 4456SOL     OW17823   3.391   7.926   6.413 -0.5680 -0.4104 -0.2027
 4456SOL    HW117824   3.323   7.979   6.454  0.0936  0.9559 -0.8107
 4456SOL    HW217825   3.348   7.889   6.335 -1.1388 -1.0889  0.4219
 4457SOL     OW17826   1.394   7.498   6.497 -0.3893  0.0851 -0.4473
 4457SOL    HW117827   1.374   7.587   6.523 -0.7431 -0.2835  0.5630
 4457SOL    HW217828   1.394   7.501   6.401 -3.2483  0.5646 -0.5106
 4458SOL     OW17829   4.070   4.767   0.969 -0.6032  0.0310  0.2118
 4458SOL    HW117830   4.084   4.705   0.898  0.2955  1.0519 -0.5246
 4458SOL    HW217831   3.992   4.816   0.944 -0.7511 -0.1452  0.3238
 4459SOL     OW17832   0.625   4.960   5.673 -0.2887  0.0020 -0.0458
 4459SOL    HW117833   0.631   4.866   5.692 -0.2480  0.1203  0.5417
 4459SOL    HW217834   0.716   4.990   5.669 -0.2912 -0.0434 -0.5721
 4460SOL     OW17835   7.384   2.180  11.036  0.8578 -0.3156 -0.0079
 4460SOL    HW117836   7.319   2.136  11.092  0.8519  0.0668  0.2897
 4460SOL    HW217837   7.448   2.112  11.016 -0.7673 -1.3597 -2.1739
 4461SOL     OW17838   3.717   8.731   2.075  0.1827 -0.2355  0.4334
 4461SOL    HW117839   3.807   8.765   2.078 -0.0248  0.5197 -0.8187
 4461SOL    HW217840   3.682   8.749   2.162  0.8925  0.4917  0.5852
 4462SOL     OW17841   2.340   7.780   5.399 -0.7595 -0.0368  0.2434
 4462SOL    HW117842   2.425   7.823   5.390 -0.7842 -0.2755 -1.5662
 4462SOL    HW217843   2.356   7.705   5.455  0.4343 -0.5750 -0.7750
 4463SOL     OW17844   0.627   4.139   4.065 -0.5413 -0.2128  0.2405
 4463SOL    HW117845   0.671   4.222   4.046  1.5627 -1.6767 -2.0053
 4463SOL    HW217846   0.694   4.086   4.109 -0.9038 -1.6178 -0.8295
 4464SOL     OW17847   6.046   5.088   9.887 -0.0801  0.1198  0.0431
 4464SOL    HW117848   5.985   5.058   9.954 -1.0660 -0.0304 -0.8959
 4464SOL    HW217849   6.015   5.175   9.863  0.6154  0.4138  0.1840
 4465SOL     OW17850   3.780   4.104   7.885 -0.2262 -0.0199 -0.5569
 4465SOL    HW117851   3.687   4.127   7.876 -0.2699 -0.1463 -0.4380
 4465SOL    HW217852   3.782   4.010   7.869 -0.1587 -0.0652 -0.2749
 4466SOL     OW17853   2.923   5.053  10.434  0.1025 -0.3238  0.6200
 4466SOL    HW117854   2.836   5.022  10.408  0.3287 -0.1452 -0.3849
 4466SOL    HW217855   2.965   5.078  10.352  2.1812 -3.0922  0.7127
 4467SOL     OW17856   5.756   8.590   6.149 -0.3246  0.5655  0.2876
 4467SOL    HW117857   5.846   8.574   6.179  0.3126  1.4371 -1.0547
 4467SOL    HW217858   5.737   8.518   6.089 -1.1000 -0.4321  1.6752
 4468SOL     OW17859   9.582   0.865   1.717  0.1520  0.1102 -0.2150
 4468SOL    HW117860   9.618   0.913   1.792 -1.6295  1.5207 -0.2003
 4468SOL    HW217861   9.520   0.803   1.756 -0.6352  0.7142 -0.4766
 4469SOL     OW17862   4.497   3.721   2.186 -0.3314 -0.6947  0.6692
 4469SOL    HW117863   4.584   3.738   2.221  0.3381 -0.6928 -0.9325
 4469SOL    HW217864   4.453   3.806   2.190  0.8792  0.0999 -1.5228
 4470SOL     OW17865   6.588   0.019   5.142 -0.3868  0.4247 -0.4158
 4470SOL    HW117866   6.524  -0.035   5.188 -0.0258  1.4542  1.4017
 4470SOL    HW217867   6.537   0.085   5.097 -0.6782  0.4737 -0.0184
 4471SOL     OW17868   4.812   3.949   6.048  0.0784 -0.4968  0.0708
 4471SOL    HW117869   4.804   3.981   6.138 -0.7503  0.8611 -0.4593
 4471SOL    HW217870   4.729   3.903   6.031 -0.6233  0.9601 -0.6202
 4472SOL     OW17871   5.759   7.142   6.214  0.1879 -0.2181  0.2971
 4472SOL    HW117872   5.853   7.159   6.201  0.0996 -1.5900 -2.9889
 4472SOL    HW217873   5.752   7.121   6.308  2.8106  1.6290  1.0224
 4473SOL     OW17874   7.153   3.124   0.563  0.1597  0.4035 -0.6600
 4473SOL    HW117875   7.121   3.209   0.593 -2.5978 -1.0486  1.0369
 4473SOL    HW217876   7.242   3.118   0.598 -0.4946  1.6054  1.4124
 4474SOL     OW17877   6.537   7.607   1.832  0.7780 -0.0476  0.1884
 4474SOL    HW117878   6.461   7.658   1.805  1.2115 -0.2514 -1.5966
 4474SOL    HW217879   6.516   7.517   1.805  1.3738 -0.2232  0.2852
 4475SOL     OW17880   5.101   9.590  10.003  0.0708 -0.2349 -0.1705
 4475SOL    HW117881   5.081   9.556  10.091 -1.4824  0.6865 -0.1399
 4475SOL    HW217882   5.196   9.598  10.002  0.1406 -0.5728  1.3134
 4476SOL     OW17883   7.268   2.068   6.934 -0.4732 -0.1422  0.9592
 4476SOL    HW117884   7.294   2.153   6.898  1.3933 -1.1084 -0.1316
 4476SOL    HW217885   7.349   2.032   6.971 -1.3313 -1.2609  1.8260
 4477SOL     OW17886   1.321   8.200   7.403  0.2064  0.6683 -0.8645
 4477SOL    HW117887   1.369   8.276   7.436 -0.1705  0.7625 -0.5268
 4477SOL    HW217888   1.229   8.224   7.410 -0.0382 -0.5992  1.3202
 4478SOL     OW17889   0.548   8.838   9.311 -0.1275 -0.0236 -0.0934
 4478SOL    HW117890   0.493   8.891   9.254 -0.0705  0.3203  0.1659
 4478SOL    HW217891   0.636   8.874   9.300  0.0629 -0.6205 -0.5670
 4479SOL     OW17892  10.939   4.620   9.563  0.5802 -0.0292  0.1478
 4479SOL    HW117893  10.911   4.697   9.612 -1.0081 -1.1833  1.1755
 4479SOL    HW217894  11.029   4.604   9.591  0.2020  0.2132  1.5725
 4480SOL     OW17895   2.999   6.512   7.984 -0.5199  0.0120  0.2677
 4480SOL    HW117896   2.917   6.469   8.009 -1.1327  0.6217 -0.6403
 4480SOL    HW217897   3.004   6.589   8.042  0.1461 -0.7787  1.3003
 4481SOL     OW17898   7.551   0.401   5.960 -0.4716  0.4488  0.1945
 4481SOL    HW117899   7.574   0.407   5.867 -0.6312  1.9705  0.2199
 4481SOL    HW217900   7.496   0.478   5.976 -0.6079  0.1108  1.5118
 4482SOL     OW17901   5.900   9.770   3.577 -0.2168  0.0930  0.6473
 4482SOL    HW117902   5.881   9.727   3.494  1.2024 -1.4496  1.0757
 4482SOL    HW217903   5.996   9.770   3.582 -0.2825 -0.2490  2.4747
 4483SOL     OW17904   7.932   8.051   4.124 -0.2250 -0.1053  0.5406
 4483SOL    HW117905   8.010   7.997   4.108  0.7365  0.8118  1.8915
 4483SOL    HW217906   7.956   8.137   4.092 -0.7983  0.1140  0.6991
 4484SOL     OW17907   3.133   8.170   5.518  0.2741 -0.1028 -0.3590
 4484SOL    HW117908   3.132   8.265   5.505  0.6119 -0.0610 -0.0778
 4484SOL    HW217909   3.046   8.150   5.554 -0.2434 -0.0641 -1.5317
 4485SOL     OW17910   3.875  10.050   2.211  0.2754  0.3864 -0.4300
 4485SOL    HW117911   3.798  10.050   2.154  1.6213  1.1789 -2.3577
 4485SOL    HW217912   3.907   9.960   2.209 -0.4892  0.0826  0.2803
 4486SOL     OW17913   0.650   2.400   6.794  0.8523 -0.2108 -0.0476
 4486SOL    HW117914   0.596   2.322   6.810 -1.2912  0.8572 -1.4810
 4486SOL    HW217915   0.658   2.404   6.699  1.6552  0.8483  0.0561
 4487SOL     OW17916  10.274   4.993   7.706  0.0881 -0.4435 -0.1316
 4487SOL    HW117917  10.224   4.949   7.637  2.0796 -1.3657 -1.0489
 4487SOL    HW217918  10.265   4.935   7.782  0.4543 -1.0523 -0.5426
 4488SOL     OW17919   0.165   6.492   0.029 -0.0250  0.6542  0.1727
 4488SOL    HW117920   0.145   6.473  -0.062 -0.0890  0.5951  0.1985
 4488SOL    HW217921   0.107   6.433   0.079  1.6480 -0.9967  0.2545
 4489SOL     OW17922   3.702   2.281   4.116  0.0056  0.2456  0.2615
 4489SOL    HW117923   3.746   2.200   4.088  1.5118  1.4646 -1.0669
 4489SOL    HW217924   3.750   2.351   4.072 -2.4475  1.7723 -0.1946
 4490SOL     OW17925   4.497   9.698   4.850  0.2174  0.2822  0.1505
 4490SOL    HW117926   4.582   9.721   4.887  0.5311 -2.1992  1.1670
 4490SOL    HW217927   4.502   9.604   4.834 -2.0113  0.2380 -0.7010
 4491SOL     OW17928   1.430   3.159   8.493 -0.4740 -0.0103  0.5775
 4491SOL    HW117929   1.501   3.148   8.557  0.2715  1.2450  0.0088
 4491SOL    HW217930   1.454   3.100   8.421 -0.8245 -0.7231  1.0311
 4492SOL     OW17931   3.111   7.927   6.135 -0.1798  0.1051 -0.1483
 4492SOL    HW117932   3.078   7.976   6.210 -0.1296  0.0140 -0.0669
 4492SOL    HW217933   3.100   7.986   6.060 -2.2693 -0.5972 -0.4436
 4493SOL     OW17934   7.601   0.003   0.053 -0.1288  0.5541 -0.2738
 4493SOL    HW117935   7.652  -0.042   0.121 -2.6288 -0.5937  0.9740
 4493SOL    HW217936   7.630   0.094   0.058  1.8311 -0.0585  0.3044
 4494SOL     OW17937   8.305   0.313   3.799 -0.1383  0.3840 -0.4269
 4494SOL    HW117938   8.327   0.402   3.773  0.8349  0.0624 -0.7338
 4494SOL    HW217939   8.375   0.259   3.763 -0.2201 -0.3981  0.5340
 4495SOL     OW17940   5.036   4.967   0.930  0.6412  0.0028 -0.1285
 4495SOL    HW117941   5.001   4.880   0.951 -1.3300  0.0720 -2.7027
 4495SOL    HW217942   5.130   4.953   0.920  0.5927 -1.4578  1.1742
 4496SOL     OW17943  10.699  10.906   6.860 -0.0653  0.4892  0.0426
 4496SOL    HW117944  10.708  10.922   6.954  1.4229  1.3327 -0.2149
 4496SOL    HW217945  10.604  10.902   6.846 -0.3377  1.1946  1.4399
 4497SOL     OW17946   6.536   1.305   3.130 -0.0157 -0.1552  0.1059
 4497SOL    HW117947   6.488   1.373   3.176  1.0035  1.3474 -0.9778
 4497SOL    HW217948   6.627   1.316   3.157  0.4452  0.1206 -1.4812
 4498SOL     OW17949   1.496   8.507  10.259  0.4429  0.3511 -0.1450
 4498SOL    HW117950   1.497   8.500  10.164 -1.1002  0.0652 -0.1605
 4498SOL    HW217951   1.404   8.495  10.283  0.6921  1.1716  1.3279
 4499SOL     OW17952   2.788   4.684   2.808 -0.0256  0.0537  0.3624
 4499SOL    HW117953   2.804   4.600   2.765  0.4833 -0.1759  0.9838
 4499SOL    HW217954   2.827   4.674   2.895 -0.4696  0.7346  0.6453
 4500SOL     OW17955   6.646  10.443   3.377  0.3073  0.3879 -0.1266
 4500SOL    HW117956   6.568  10.479   3.418  0.4681  0.9005 -0.2683
 4500SOL    HW217957   6.678  10.377   3.439 -0.5408 -0.2151 -0.3169
 4501SOL     OW17958   0.398   2.626   7.412 -0.1313  0.0555  0.1250
 4501SOL    HW117959   0.378   2.537   7.438  2.7124 -0.5837  0.5468
 4501SOL    HW217960   0.433   2.618   7.323  0.1606  0.7363  0.1719
 4502SOL     OW17961   4.649   2.161   2.623  0.3232  0.8196  0.5116
 4502SOL    HW117962   4.559   2.192   2.616  0.3544  0.7311 -0.3856
 4502SOL    HW217963   4.695   2.229   2.673 -0.1370  1.0694  0.5964
 4503SOL     OW17964   1.659  10.760   9.909 -0.1040 -0.2570  0.1089
 4503SOL    HW117965   1.601  10.741   9.982  0.2113 -1.0581  0.1578
 4503SOL    HW217966   1.710  10.835   9.938 -1.0336  0.3948  0.1044
 4504SOL     OW17967   8.609   9.043  10.654 -0.0566  0.0463 -0.4320
 4504SOL    HW117968   8.676   9.061  10.720 -1.8759  0.7656  1.3428
 4504SOL    HW217969   8.561   9.126  10.646 -0.7925 -0.4638 -1.5885
 4505SOL     OW17970   1.316   1.935   1.110  0.8997 -0.7416  0.0062
 4505SOL    HW117971   1.344   2.014   1.063  0.5690 -1.0781 -0.7755
 4505SOL    HW217972   1.306   1.869   1.041  1.3265 -1.5145  0.6648
 4506SOL     OW17973   8.227   0.576   7.968 -0.0088 -0.0244 -0.1953
 4506SOL    HW117974   8.206   0.561   7.876  0.0908  0.6860 -0.3406
 4506SOL    HW217975   8.216   0.670   7.980 -0.5566 -0.1868  0.6618
 4507SOL     OW17976   7.070   3.469   4.143 -0.9161  0.0654 -0.4079
 4507SOL    HW117977   7.044   3.377   4.145 -0.3490 -0.1018 -0.6560
 4507SOL    HW217978   7.152   3.472   4.192 -0.3650  0.2544 -1.3216
 4508SOL     OW17979   9.327   3.683   0.613 -0.1749 -0.2009 -0.2883
 4508SOL    HW117980   9.299   3.592   0.611  0.9640 -0.5506 -1.2555
 4508SOL    HW217981   9.382   3.690   0.692 -1.3403  0.0111  0.5338
 4509SOL     OW17982   8.089   3.841   1.996 -0.4059  0.4086 -0.1934
 4509SOL    HW117983   8.117   3.750   1.993  1.1043  0.8708 -1.7315
 4509SOL    HW217984   8.101   3.867   2.088  2.1127 -0.0955 -0.3116
 4510SOL     OW17985   3.732   5.759   5.112 -0.3730  0.5251 -0.2109
 4510SOL    HW117986   3.695   5.843   5.140 -2.2098  0.6402 -2.6093
 4510SOL    HW217987   3.710   5.698   5.184  0.4910  1.9100  1.2946
 4511SOL     OW17988   0.212   5.187   3.271  0.2325 -0.1124  0.1133
 4511SOL    HW117989   0.175   5.265   3.312  0.9266 -0.7912  2.1264
 4511SOL    HW217990   0.153   5.116   3.296  0.5971 -0.5357 -0.2111
 4512SOL     OW17991   7.890  10.604   4.132 -0.1878 -0.0024 -0.1396
 4512SOL    HW117992   7.800  10.571   4.128 -0.4889  0.7341  0.2853
 4512SOL    HW217993   7.938  10.553   4.067 -0.4162 -1.9381  1.1385
 4513SOL     OW17994   2.967   3.463   9.940 -0.5578 -0.1704 -0.0414
 4513SOL    HW117995   2.968   3.388   9.881 -0.4984 -0.7993  0.7399
 4513SOL    HW217996   3.009   3.431  10.020  1.4224  1.2842 -0.3984
 4514SOL     OW17997   2.629   3.496   3.697  0.0099 -0.1877 -0.4199
 4514SOL    HW117998   2.558   3.522   3.639  0.7274 -1.0453 -1.7427
 4514SOL    HW217999   2.694   3.566   3.689  0.2557 -0.4699 -0.9353
 4515SOL     OW18000   9.049   6.515   1.714 -0.0469 -0.3411  0.3427
 4515SOL    HW118001   9.069   6.599   1.754 -0.1839 -1.2219  2.3746
 4515SOL    HW218002   9.101   6.452   1.763 -1.3302 -1.6502  0.0909
 4516SOL     OW18003   0.100   8.000   1.354  0.2824  0.4176  0.1332
 4516SOL    HW118004   0.136   7.989   1.266 -2.2760  2.7542 -1.3628
 4516SOL    HW218005   0.171   8.042   1.403  1.4312 -0.0248 -1.0862
 4517SOL     OW18006  10.957   3.560   1.417  0.0566  0.0476  0.5910
 4517SOL    HW118007  10.963   3.494   1.485 -1.1849  0.5601  1.2163
 4517SOL    HW218008  11.022   3.533   1.352  0.6857 -0.8938  1.5756
 4518SOL     OW18009   7.937   5.229   1.203  0.3121  0.3508  0.3544
 4518SOL    HW118010   7.977   5.165   1.261  0.1035 -0.9488 -0.9025
 4518SOL    HW218011   7.843   5.209   1.205  0.2259  0.7036  0.0294
 4519SOL     OW18012   5.290   9.991   3.047  0.4123 -0.5540  0.0966
 4519SOL    HW118013   5.298  10.050   3.122  1.5514 -0.1979 -0.2863
 4519SOL    HW218014   5.291  10.049   2.971  2.2397 -1.0616 -0.3261
 4520SOL     OW18015   1.164   3.546   4.035 -0.3825 -0.7161  0.0067
 4520SOL    HW118016   1.219   3.512   4.105  1.3306 -1.1393 -1.4607
 4520SOL    HW218017   1.076   3.547   4.072  0.4607 -0.8786  2.1496
 4521SOL     OW18018   5.848  10.416   1.096 -0.3283  0.4083 -0.3793
 4521SOL    HW118019   5.777  10.376   1.045  0.7466 -1.2311 -0.6736
 4521SOL    HW218020   5.907  10.452   1.030  0.5523 -0.8202 -0.3042
 4522SOL     OW18021   5.599   8.229   9.734 -0.6140 -0.0325 -0.4121
 4522SOL    HW118022   5.532   8.214   9.667 -0.5835 -2.3333 -0.0089
 4522SOL    HW218023   5.550   8.264   9.809 -0.7524  1.8796 -1.3342
 4523SOL     OW18024  10.415   3.171   3.794 -0.2850 -0.0826 -0.8527
 4523SOL    HW118025  10.409   3.112   3.718  1.9585 -0.4325 -0.8123
 4523SOL    HW218026  10.460   3.248   3.760 -0.9540  0.5588 -0.3028
 4524SOL     OW18027   7.353   0.363   4.281 -0.3225  0.1581 -0.7614
 4524SOL    HW118028   7.388   0.445   4.316 -1.2568  0.9847 -1.7144
 4524SOL    HW218029   7.414   0.296   4.313 -0.5354  0.9723  1.5466
 4525SOL     OW18030   4.405   1.942   1.462 -0.3517  0.2076 -0.3369
 4525SOL    HW118031   4.427   1.912   1.373 -0.5117  0.3416 -0.4228
 4525SOL    HW218032   4.460   2.019   1.475 -1.4581  1.1379 -0.9326
 4526SOL     OW18033   5.574   1.151   5.639  0.1388 -0.1591  0.3465
 4526SOL    HW118034   5.586   1.240   5.672  0.7639  0.0973 -0.5282
 4526SOL    HW218035   5.513   1.160   5.566  1.3070 -0.2137 -0.6680
 4527SOL     OW18036   4.546   3.337   8.370 -0.1401  0.0276  0.6259
 4527SOL    HW118037   4.465   3.385   8.353 -0.7151 -1.1354  0.0090
 4527SOL    HW218038   4.518   3.256   8.413  0.7572 -0.1095  0.9873
 4528SOL     OW18039   4.633   1.277   3.296  0.2381 -0.3277 -0.1559
 4528SOL    HW118040   4.595   1.295   3.382  0.4502 -1.7725  0.2810
 4528SOL    HW218041   4.670   1.189   3.305  1.8068  0.1924 -1.2058
 4529SOL     OW18042   3.617   6.809   3.673 -0.2621  0.0481  0.2302
 4529SOL    HW118043   3.596   6.893   3.713 -0.2982 -0.4571  1.3127
 4529SOL    HW218044   3.535   6.761   3.674 -0.3308  0.1231 -0.7325
 4530SOL     OW18045   7.297  10.310   1.156 -0.3109  0.2315 -0.0844
 4530SOL    HW118046   7.271  10.222   1.182  0.6259 -0.3730 -1.1089
 4530SOL    HW218047   7.227  10.366   1.189  0.2266 -0.5742  2.6296
 4531SOL     OW18048   9.986   5.025   6.499 -0.3890  0.5187 -0.4717
 4531SOL    HW118049   9.924   5.008   6.428  0.5967  1.7781 -1.6719
 4531SOL    HW218050  10.039   5.098   6.468  1.4373 -0.2438  0.7013
 4532SOL     OW18051   4.991   9.116   7.042  0.1939 -0.6205 -0.1550
 4532SOL    HW118052   5.009   9.210   7.040  0.5908 -0.5811  2.3023
 4532SOL    HW218053   5.048   9.079   6.974  0.4701  0.8381 -0.7429
 4533SOL     OW18054   8.627   4.987  10.819  0.1327  0.1756 -0.0454
 4533SOL    HW118055   8.614   4.932  10.741 -0.6601 -1.6765  1.3236
 4533SOL    HW218056   8.721   4.981  10.837  0.0880 -0.5965 -0.0309
 4534SOL     OW18057   2.927   6.794   2.627 -0.0319  0.1761  0.6936
 4534SOL    HW118058   2.986   6.787   2.552 -0.6788  1.1067  0.0745
 4534SOL    HW218059   2.978   6.837   2.695  0.2824  0.1480  0.4763
 4535SOL     OW18060   7.323   6.692   8.677  0.2390 -0.1528  0.4903
 4535SOL    HW118061   7.375   6.738   8.744 -0.2796 -1.2924  1.7278
 4535SOL    HW218062   7.240   6.740   8.674  0.3831  0.0936  0.4375
 4536SOL     OW18063   9.428   7.032   7.210  0.1180 -0.1635  0.4916
 4536SOL    HW118064   9.439   6.949   7.163 -0.3779 -1.5997  2.7252
 4536SOL    HW218065   9.408   7.005   7.300  0.6836  2.4134  1.4557
 4537SOL     OW18066  10.401   5.358   4.738 -0.4030  0.2335  0.0539
 4537SOL    HW118067  10.368   5.440   4.774 -0.1648  0.5695 -0.4869
 4537SOL    HW218068  10.325   5.299   4.737 -0.8730  0.8390 -0.7070
 4538SOL     OW18069   2.651   3.705   6.513 -0.3116  0.0657 -0.3118
 4538SOL    HW118070   2.708   3.632   6.536  0.1175  0.8478  1.2205
 4538SOL    HW218071   2.563   3.669   6.518 -0.1180 -0.3056  0.6307
 4539SOL     OW18072   6.209   5.345  10.995 -0.4272  0.4056  0.5876
 4539SOL    HW118073   6.233   5.341  11.087  1.5972 -1.7976  0.0864
 4539SOL    HW218074   6.244   5.429  10.964 -0.6536  0.9151  1.6735
 4540SOL     OW18075   5.755   2.778   9.550  0.5764  0.0238  0.4810
 4540SOL    HW118076   5.796   2.710   9.605  2.2845  1.1504  0.6983
 4540SOL    HW218077   5.784   2.757   9.461 -0.2264 -0.4350  0.3212
 4541SOL     OW18078   7.602   0.727   0.708 -0.0563  0.2826  0.0062
 4541SOL    HW118079   7.527   0.783   0.688  0.3799  0.1039 -2.3956
 4541SOL    HW218080   7.678   0.774   0.675  0.6718 -0.3962  0.6594
 4542SOL     OW18081   4.309   6.609   4.672 -0.3863  0.3392 -0.0902
 4542SOL    HW118082   4.309   6.594   4.766 -1.7093 -0.4205 -0.1845
 4542SOL    HW218083   4.338   6.699   4.662  0.1506  0.3074  1.0096
 4543SOL     OW18084   0.709   1.219  10.909 -0.3002  0.3744 -0.3565
 4543SOL    HW118085   0.730   1.313  10.916  1.1623 -0.0709  3.1296
 4543SOL    HW218086   0.629   1.208  10.959 -1.4512 -0.0573 -2.2074
 4544SOL     OW18087   3.800   3.658   5.168  0.0834  0.0105 -0.1671
 4544SOL    HW118088   3.807   3.632   5.076 -1.3176 -2.4732  0.3420
 4544SOL    HW218089   3.885   3.696   5.189  0.9623 -0.7734 -2.0744
 4545SOL     OW18090  10.724   4.437   5.687  0.0798  0.1469 -0.4202
 4545SOL    HW118091  10.651   4.422   5.748  0.1708  0.5347 -0.2134
 4545SOL    HW218092  10.708   4.375   5.616 -0.8130  0.6625 -0.6900
 4546SOL     OW18093   5.068   4.049   3.504  0.3411  0.8166 -0.1307
 4546SOL    HW118094   5.160   4.059   3.529 -0.2091  1.2945  1.9243
 4546SOL    HW218095   5.021   4.101   3.569 -1.3619  0.8106 -1.3282
 4547SOL     OW18096   3.640  10.950   3.331 -0.3955 -0.4226 -0.0220
 4547SOL    HW118097   3.615  10.871   3.378  1.8338 -1.1449  0.0986
 4547SOL    HW218098   3.677  10.919   3.248 -0.9857  0.6087 -0.7013
 4548SOL     OW18099   0.619   6.297   0.742  0.6039  0.1126 -0.2192
 4548SOL    HW118100   0.666   6.284   0.660  0.8933 -1.1040  0.1284
 4548SOL    HW218101   0.565   6.219   0.752 -0.4804  0.8818  0.0732
 4549SOL     OW18102   0.955   8.099   4.662  0.1130  0.2193  0.5416
 4549SOL    HW118103   0.876   8.152   4.673 -0.3569  0.7327 -3.7347
 4549SOL    HW218104   0.923   8.008   4.658  0.2517  0.0597  2.1986
 4550SOL     OW18105   1.416   5.350   1.698 -0.0942  0.0418 -0.1781
 4550SOL    HW118106   1.455   5.335   1.784  0.7134  1.0776 -0.3552
 4550SOL    HW218107   1.376   5.266   1.676 -0.7293 -0.1127  1.4029
 4551SOL     OW18108   4.781   7.792   4.136  0.2079 -0.7439 -0.1199
 4551SOL    HW118109   4.845   7.775   4.067  0.7229 -0.5518  0.2991
 4551SOL    HW218110   4.821   7.861   4.189  0.7383 -2.2023  1.5115
 4552SOL     OW18111   4.723   1.574   7.672 -0.0558  0.6150  0.2810
 4552SOL    HW118112   4.693   1.590   7.582 -0.3896  0.3520  0.3447
 4552SOL    HW218113   4.819   1.572   7.665 -0.0757 -2.5179 -0.6335
 4553SOL     OW18114   9.204   1.063  11.009  0.1192  0.4522  0.2767
 4553SOL    HW118115   9.120   1.073  10.964  0.2401  0.2325  0.0009
 4553SOL    HW218116   9.250   1.145  10.992  0.4613  0.0849 -0.6286
 4554SOL     OW18117   0.070  10.204  10.094  0.2509  0.5549 -0.3356
 4554SOL    HW118118   0.140  10.194  10.159  0.7648  1.7282 -0.6745
 4554SOL    HW218119   0.027  10.119  10.092  0.4784  0.3652  1.2440
 4555SOL     OW18120   5.240   4.566   0.247 -0.5947  0.5727  0.1405
 4555SOL    HW118121   5.252   4.659   0.265  1.9603  0.4658 -0.5994
 4555SOL    HW218122   5.271   4.521   0.326  0.2045  0.3387 -0.2914
 4556SOL     OW18123  11.041   7.350   9.841  0.0227 -0.3717  0.2273
 4556SOL    HW118124  10.992   7.411   9.896 -0.5295 -0.3727 -0.2493
 4556SOL    HW218125  11.004   7.363   9.753  0.6445 -0.6214 -0.0719
 4557SOL     OW18126   4.114   8.235   5.928 -0.3780 -0.3624  0.6261
 4557SOL    HW118127   4.022   8.261   5.939 -0.8394 -1.0426 -1.2619
 4557SOL    HW218128   4.134   8.183   6.006 -1.8793 -0.9736  0.6383
 4558SOL     OW18129   8.908   0.753   6.258  0.2742  0.1336  0.2175
 4558SOL    HW118130   8.869   0.770   6.172  1.4548  0.2404 -0.3238
 4558SOL    HW218131   8.946   0.837   6.284 -1.8674  0.6974  1.8654
 4559SOL     OW18132   8.396   3.959   1.061 -0.8941 -0.0707 -0.7678
 4559SOL    HW118133   8.481   3.917   1.051 -1.0162 -0.7498  0.7801
 4559SOL    HW218134   8.413   4.032   1.121 -1.7659 -1.6030  1.4805
 4560SOL     OW18135   4.760   2.237  10.014  0.2600 -0.4235  0.1922
 4560SOL    HW118136   4.706   2.179  10.068  0.1531  0.1137  0.6653
 4560SOL    HW218137   4.820   2.177   9.968  1.3877 -0.8077  2.0556
 4561SOL     OW18138   8.160   5.105   7.574  0.3958 -0.0287  0.1984
 4561SOL    HW118139   8.222   5.141   7.637 -0.8505  0.3917  1.2211
 4561SOL    HW218140   8.169   5.010   7.584  0.2078  0.0290  1.0420
 4562SOL     OW18141   5.555   5.042   8.082  0.1055 -0.2544  0.6888
 4562SOL    HW118142   5.651   5.040   8.079  0.1608  0.4404  1.3565
 4562SOL    HW218143   5.528   4.953   8.064  0.8827 -0.4474  0.4370
 4563SOL     OW18144  10.447   2.736   9.437  0.0589 -0.4967 -0.6896
 4563SOL    HW118145  10.511   2.788   9.486  0.7943 -0.6500 -1.4854
 4563SOL    HW218146  10.498   2.686   9.374 -0.8422 -0.6105 -1.3547
 4564SOL     OW18147   3.657  10.229   6.649 -0.3877  0.6307 -0.0875
 4564SOL    HW118148   3.615  10.314   6.667 -0.1897  0.4236  1.4671
 4564SOL    HW218149   3.746  10.240   6.681 -0.6210 -0.4388  1.0107
 4565SOL     OW18150   0.714   0.004   8.946  0.2124  0.6095  0.5310
 4565SOL    HW118151   0.666  -0.014   9.026 -0.7867  0.2055 -0.1409
 4565SOL    HW218152   0.662   0.072   8.901  2.0868  2.7300  1.3873
 4566SOL     OW18153   2.135   2.565   1.100  0.3494 -0.3547  0.6397
 4566SOL    HW118154   2.161   2.529   1.015 -0.5518  0.5345 -0.0400
 4566SOL    HW218155   2.131   2.660   1.086 -0.7953 -0.2715  1.3836
 4567SOL     OW18156   4.387   7.119   1.725  0.1525  0.0113  0.4231
 4567SOL    HW118157   4.383   7.026   1.703  2.0085 -0.0707  0.2456
 4567SOL    HW218158   4.442   7.122   1.804 -0.1469  0.9224  0.5991
 4568SOL     OW18159   9.817   0.930   8.100  0.1416 -0.7725  0.3343
 4568SOL    HW118160   9.858   0.885   8.174 -0.0498 -1.7349 -0.1305
 4568SOL    HW218161   9.890   0.956   8.044  0.4959  1.8022  1.7855
 4569SOL     OW18162  10.138   9.408   6.723 -0.0577  0.5284  0.6482
 4569SOL    HW118163  10.208   9.406   6.789  0.3014 -1.8310  0.3175
 4569SOL    HW218164  10.132   9.317   6.694 -2.2200  0.9807 -0.4770
 4570SOL     OW18165  10.448   9.876   1.301  0.0401  0.1530  0.0601
 4570SOL    HW118166  10.477   9.906   1.387  0.2917  2.8829 -0.8741
 4570SOL    HW218167  10.529   9.865   1.251 -0.1718  0.0484 -0.2600
 4571SOL     OW18168  10.226   8.138   6.811  0.3218 -0.4386  0.4015
 4571SOL    HW118169  10.192   8.188   6.885  0.6442 -3.1356  2.5160
 4571SOL    HW218170  10.233   8.048   6.843  0.7867 -1.7049 -2.8382
 4572SOL     OW18171   8.478   5.745   4.695 -0.1698  0.0908 -0.4401
 4572SOL    HW118172   8.474   5.694   4.614  0.7648 -0.1490 -0.3540
 4572SOL    HW218173   8.387   5.766   4.715 -0.4985 -0.7459 -0.9851
 4573SOL     OW18174   3.917   5.219   3.416 -0.3076 -0.3110 -0.5914
 4573SOL    HW118175   4.008   5.195   3.398 -0.1085  0.4672 -0.6679
 4573SOL    HW218176   3.873   5.213   3.331 -0.7045 -2.1958 -0.2881
 4574SOL     OW18177   6.260   9.678   5.747 -0.2610  0.3930 -0.2448
 4574SOL    HW118178   6.243   9.714   5.660  1.5791 -1.4276 -1.4387
 4574SOL    HW218179   6.285   9.755   5.799 -2.6036  1.7103 -0.8894
 4575SOL     OW18180   0.080   5.619   4.281 -0.3092  1.1405  0.0446
 4575SOL    HW118181   0.104   5.528   4.261  1.3355  1.4256  0.5665
 4575SOL    HW218182   0.163   5.666   4.282 -1.3182  3.2403 -2.8197
 4576SOL     OW18183   4.054  10.533  11.073 -1.2164  0.2773  0.0096
 4576SOL    HW118184   4.088  10.608  11.025 -0.4575  0.6333  1.0641
 4576SOL    HW218185   3.978  10.567  11.121 -0.9038  0.3699  0.4468
 4577SOL     OW18186   1.456   0.702   0.290 -0.2030 -0.3336 -0.7305
 4577SOL    HW118187   1.375   0.739   0.255 -0.9028  0.1857  1.2858
 4577SOL    HW218188   1.477   0.630   0.231 -1.2251  0.5398 -2.2303
 4578SOL     OW18189   0.593  10.805   9.805  0.4748 -0.2964 -0.4666
 4578SOL    HW118190   0.520  10.863   9.826  0.8774  0.1018 -0.1545
 4578SOL    HW218191   0.559  10.749   9.735  0.3042  0.7942 -1.3020
 4579SOL     OW18192  10.650   4.907   5.109 -0.1037  0.9841  0.7482
 4579SOL    HW118193  10.658   4.877   5.019 -1.8051 -1.7432  1.3887
 4579SOL    HW218194  10.567   4.955   5.112  1.6522  4.3716  0.1888
 4580SOL     OW18195   5.881   8.796   1.235  0.1692 -0.6572 -0.6042
 4580SOL    HW118196   5.895   8.702   1.234 -0.4016 -0.7697 -2.1788
 4580SOL    HW218197   5.954   8.832   1.285  1.3015 -1.8175 -1.3646
 4581SOL     OW18198   8.138   3.092   2.117 -0.1637  0.0859 -0.1669
 4581SOL    HW118199   8.172   3.101   2.028 -0.6657  0.0024 -0.3706
 4581SOL    HW218200   8.043   3.097   2.107 -0.3321 -1.8080  0.1431
 4582SOL     OW18201   1.670   5.286   7.165  0.3027  0.4830 -0.8090
 4582SOL    HW118202   1.701   5.210   7.117  1.7770  0.5151  0.0276
 4582SOL    HW218203   1.667   5.356   7.099  1.8257  0.4128 -0.9941
 4583SOL     OW18204   4.300   4.443   6.388  0.2705 -0.1651  0.1752
 4583SOL    HW118205   4.391   4.439   6.419  0.5505  0.7282 -0.4767
 4583SOL    HW218206   4.285   4.536   6.371 -1.4995  0.0226  2.3737
 4584SOL     OW18207   4.060   2.568   4.647  0.2248  0.0769 -1.1059
 4584SOL    HW118208   4.144   2.581   4.691 -0.1034 -2.1490  0.3320
 4584SOL    HW218209   3.998   2.621   4.697  0.2291 -0.8426 -0.0841
 4585SOL     OW18210  10.202   2.518   4.961 -0.8458 -0.4132  0.6686
 4585SOL    HW118211  10.270   2.532   5.027  0.4848  0.7891 -0.8512
 4585SOL    HW218212  10.163   2.605   4.947  0.4865 -0.0942 -1.6797
 4586SOL     OW18213   7.199   4.849   9.422  0.4928 -0.7054 -0.3499
 4586SOL    HW118214   7.247   4.931   9.410 -2.0704  0.9009 -0.4685
 4586SOL    HW218215   7.173   4.823   9.333 -0.4181 -0.4857 -0.1629
 4587SOL     OW18216   8.018   8.882   6.138  0.4188  0.2996  0.3354
 4587SOL    HW118217   7.973   8.797   6.142 -0.4151  0.7206  0.1734
 4587SOL    HW218218   7.948   8.946   6.125  1.2210  0.8180 -1.8963
 4588SOL     OW18219   9.589   1.488   9.072  0.1673 -0.2549 -0.4632
 4588SOL    HW118220   9.595   1.397   9.044  0.4036 -0.4357  0.1394
 4588SOL    HW218221   9.636   1.538   9.005  1.5501 -0.7756  0.0772
 4589SOL     OW18222   3.826   0.157   8.180  0.1291  0.3198  0.4256
 4589SOL    HW118223   3.757   0.187   8.122  0.0039 -0.7526 -0.0082
 4589SOL    HW218224   3.903   0.209   8.156 -0.0371  0.1972 -0.4003
 4590SOL     OW18225  10.100   4.797   6.222 -0.1721  0.6159 -0.5925
 4590SOL    HW118226  10.035   4.737   6.258 -1.4650  2.5170  0.4497
 4590SOL    HW218227  10.050   4.856   6.166  0.3848  2.7729  1.0357
 4591SOL     OW18228   8.885   8.918   0.748  0.2951 -0.3226  0.0238
 4591SOL    HW118229   8.874   8.876   0.834  0.3695 -0.0502  0.1700
 4591SOL    HW218230   8.868   9.011   0.765 -1.7741 -0.5166 -0.6596
 4592SOL     OW18231   9.312   6.256   5.927  0.1380  0.0258 -0.2957
 4592SOL    HW118232   9.236   6.309   5.951 -0.4406 -0.2073 -1.4861
 4592SOL    HW218233   9.303   6.176   5.979  1.5775  1.4440  2.2932
 4593SOL     OW18234   9.647   1.968   0.794 -0.2208 -0.0358 -0.2992
 4593SOL    HW118235   9.687   2.018   0.723  0.7281  0.0165  0.2466
 4593SOL    HW218236   9.652   2.026   0.870 -1.8078  0.1564 -0.3167
 4594SOL     OW18237   6.667   6.665   4.064  0.1642 -0.5733 -0.5290
 4594SOL    HW118238   6.635   6.754   4.046 -0.2527 -0.7891 -0.8646
 4594SOL    HW218239   6.589   6.617   4.090  0.4673 -0.7281  0.0985
 4595SOL     OW18240   7.042   2.529   2.151  0.1920 -0.1820  0.1155
 4595SOL    HW118241   6.947   2.524   2.142  0.1418  1.2524 -0.4727
 4595SOL    HW218242   7.076   2.501   2.066  0.1963  1.2960 -0.3932
 4596SOL     OW18243  11.017   3.445   3.499  0.0519 -0.0724  0.1243
 4596SOL    HW118244  11.090   3.458   3.439 -0.5368 -1.0231 -0.8215
 4596SOL    HW218245  11.059   3.430   3.584  0.9016  0.9072 -0.0896
 4597SOL     OW18246   8.198   3.415   6.235 -0.2361 -0.1332 -0.0061
 4597SOL    HW118247   8.288   3.390   6.211 -0.9028 -2.6326 -0.2090
 4597SOL    HW218248   8.197   3.510   6.229  2.4721 -0.0121  0.2767
 4598SOL     OW18249   5.358   5.556   2.471  0.2568  0.0788 -0.6631
 4598SOL    HW118250   5.389   5.646   2.461  0.3759  0.4972  2.5607
 4598SOL    HW218251   5.436   5.502   2.458  0.8022  0.6476  0.1632
 4599SOL     OW18252   6.641  10.111   0.363  0.0683  0.3499  0.7448
 4599SOL    HW118253   6.736  10.117   0.352 -0.0161  1.2668  0.3773
 4599SOL    HW218254   6.607  10.096   0.275 -0.1444  0.2401  0.8435
 4600SOL     OW18255   9.322   9.956   3.919  0.3750  0.2893  0.7422
 4600SOL    HW118256   9.231   9.929   3.902  0.5408 -0.2251  0.6822
 4600SOL    HW218257   9.362   9.962   3.832  0.6102 -0.2242  0.8118
 4601SOL     OW18258  10.571   2.717   3.130 -0.4511 -0.0515 -0.0361
 4601SOL    HW118259  10.555   2.809   3.150  0.3905 -0.2017  1.4390
 4601SOL    HW218260  10.565   2.673   3.215 -0.2603 -1.2774 -0.6422
 4602SOL     OW18261   5.795   6.696   0.629  0.3426  0.1052  0.0988
 4602SOL    HW118262   5.845   6.690   0.548 -0.3964  0.0615 -0.3624
 4602SOL    HW218263   5.813   6.613   0.674  0.1266 -0.2164 -0.3964
 4603SOL     OW18264   9.444   9.147  10.688  0.0677  0.1999 -0.6279
 4603SOL    HW118265   9.404   9.105  10.765 -0.8006  0.9670 -0.6351
 4603SOL    HW218266   9.492   9.222  10.724  0.2071  0.1790 -0.7720
 4604SOL     OW18267   6.938   0.620   1.651  0.0038 -0.1403  0.4967
 4604SOL    HW118268   6.908   0.661   1.570 -0.2372 -0.1621  0.5746
 4604SOL    HW218269   7.034   0.624   1.646  0.0489 -1.5798 -0.5455
 4605SOL     OW18270  10.192   9.644   5.220  0.0492 -0.0106  0.2725
 4605SOL    HW118271  10.257   9.591   5.265 -0.3248 -0.2063  0.5874
 4605SOL    HW218272  10.112   9.591   5.221 -0.1615  0.2933  0.0336
 4606SOL     OW18273   0.614   3.820   3.691 -0.0061  0.2987 -0.3537
 4606SOL    HW118274   0.704   3.820   3.723 -0.3582  0.2684  0.6873
 4606SOL    HW218275   0.564   3.864   3.761 -0.9350 -0.5239 -0.4845
 4607SOL     OW18276   4.568   2.472   2.608  1.1063 -0.1032 -0.0452
 4607SOL    HW118277   4.549   2.479   2.515  0.1471  1.1029  0.2091
 4607SOL    HW218278   4.663   2.477   2.614  1.2285 -1.0599 -1.0071
 4608SOL     OW18279   5.396   2.858   3.147  0.3553  0.2732  0.1324
 4608SOL    HW118280   5.425   2.933   3.199  1.5148  0.0185 -0.1215
 4608SOL    HW218281   5.358   2.798   3.211  0.5290  0.5522  0.4996
 4609SOL     OW18282   9.450   3.540   2.410  0.1850  0.1092 -0.5050
 4609SOL    HW118283   9.522   3.486   2.378 -1.2657 -2.8906  0.8786
 4609SOL    HW218284   9.400   3.482   2.467 -1.7854  2.8704  0.8109
 4610SOL     OW18285   0.474   9.939   5.305 -0.4145 -0.0405 -0.1000
 4610SOL    HW118286   0.543   9.874   5.288  0.0802  0.4222  0.0910
 4610SOL    HW218287   0.522  10.020   5.321 -1.0424  0.4419 -0.6366
 4611SOL     OW18288   2.323   4.576   8.546 -0.0621  0.1573 -0.2444
 4611SOL    HW118289   2.245   4.628   8.563  1.1829  2.0750  0.0380
 4611SOL    HW218290   2.345   4.536   8.630  0.3333  1.2516  0.2001
 4612SOL     OW18291   0.203  10.960   6.907 -0.1768  0.3814 -0.2177
 4612SOL    HW118292   0.197  10.870   6.877 -3.8201  0.4762 -0.1690
 4612SOL    HW218293   0.168  10.959   6.996  0.5279  1.7393  0.1178
 4613SOL     OW18294   8.864   3.518   1.855  0.3584 -0.1061 -0.4272
 4613SOL    HW118295   8.871   3.441   1.799  3.1839  0.9595 -1.7470
 4613SOL    HW218296   8.859   3.484   1.944 -1.1095 -1.7982 -1.1044
 4614SOL     OW18297   7.875   3.362   1.102  0.2868 -0.2642 -0.3408
 4614SOL    HW118298   7.846   3.410   1.179  2.4794  2.7214 -1.1750
 4614SOL    HW218299   7.815   3.389   1.033 -0.3654 -1.2201 -0.1526
 4615SOL     OW18300   1.278   8.034  10.870  0.4921  0.6668  0.1447
 4615SOL    HW118301   1.357   8.074  10.834  2.0700  1.4753  4.1026
 4615SOL    HW218302   1.228   8.106  10.905 -1.5013  0.0109 -1.1745
 4616SOL     OW18303   9.581   3.301   8.906 -0.2689  0.1771  0.6982
 4616SOL    HW118304   9.575   3.332   8.816  0.3410  1.5704  1.1024
 4616SOL    HW218305   9.539   3.215   8.905 -3.1619  1.4664 -0.2853
 4617SOL     OW18306   0.722   1.598   3.278  0.5250 -0.7413  0.0765
 4617SOL    HW118307   0.704   1.673   3.334 -0.1865 -0.6430 -0.2617
 4617SOL    HW218308   0.795   1.626   3.223 -0.4742  0.1612 -0.8463
 4618SOL     OW18309   7.156   5.002   7.422 -0.3947 -0.4447 -0.4013
 4618SOL    HW118310   7.129   5.089   7.450 -1.1428 -1.2177  1.4281
 4618SOL    HW218311   7.119   4.942   7.487 -1.8496 -2.3620 -2.7873
 4619SOL     OW18312   7.195   8.496   9.778  0.0662 -0.0859  0.4774
 4619SOL    HW118313   7.213   8.584   9.812 -0.6248  0.1532  0.2531
 4619SOL    HW218314   7.133   8.458   9.841 -0.5632  0.0439 -0.0466
 4620SOL     OW18315   1.842   5.941   4.355 -0.1798 -0.0363  0.1852
 4620SOL    HW118316   1.829   5.981   4.269 -0.5713  0.0806  0.2970
 4620SOL    HW218317   1.834   5.847   4.340  1.0652 -0.1006 -0.1364
 4621SOL     OW18318   9.222   5.292   8.691 -0.3111  0.2527 -0.2729
 4621SOL    HW118319   9.138   5.336   8.707 -0.3133  0.6343 -1.2641
 4621SOL    HW218320   9.285   5.364   8.683 -0.3543  0.1106 -2.1433
 4622SOL     OW18321   7.395   9.353   9.467 -0.0457  0.2719  0.1963
 4622SOL    HW118322   7.328   9.289   9.493 -0.6230  1.1849  1.0286
 4622SOL    HW218323   7.381   9.428   9.526 -0.1000  1.6288 -1.4747
 4623SOL     OW18324   3.565   9.587   7.014 -0.0990 -0.2255  0.2146
 4623SOL    HW118325   3.591   9.495   7.018 -1.2517 -0.5347  1.2786
 4623SOL    HW218326   3.471   9.584   6.995 -0.1585  0.7242  0.3171
 4624SOL     OW18327   9.583   9.288   4.119  0.2610  0.2741  0.0993
 4624SOL    HW118328   9.602   9.263   4.029  1.9622  0.2364  0.4263
 4624SOL    HW218329   9.565   9.205   4.164 -1.8503  0.3980 -0.4342
 4625SOL     OW18330   0.041   4.879   5.464 -0.2018  0.2448 -0.0523
 4625SOL    HW118331  -0.026   4.841   5.407 -1.5293  0.1823  1.4919
 4625SOL    HW218332   0.089   4.939   5.407 -0.5507 -0.8483 -1.5798
 4626SOL     OW18333   3.885   9.862   9.925  0.3841  0.3241  0.1782
 4626SOL    HW118334   3.885   9.952   9.895 -0.7233  0.1937 -0.2572
 4626SOL    HW218335   3.869   9.810   9.847  1.7891 -0.3209  0.2900
 4627SOL     OW18336   4.783   8.571   0.811  0.1205  0.2687  0.0779
 4627SOL    HW118337   4.826   8.590   0.895  0.9408 -1.5420  0.1144
 4627SOL    HW218338   4.718   8.641   0.801  1.4026  1.6973  1.2090
 4628SOL     OW18339   1.113  10.422  10.133  0.0982 -0.3802 -0.6918
 4628SOL    HW118340   1.060  10.477  10.191  1.3251  0.2886 -0.1635
 4628SOL    HW218341   1.050  10.383  10.072 -0.7624  2.4273 -1.7585
 4629SOL     OW18342   0.392   3.715   5.542 -0.1269  0.0369 -0.2230
 4629SOL    HW118343   0.318   3.772   5.560 -0.4040 -0.3696 -0.0633
 4629SOL    HW218344   0.469   3.770   5.556 -0.4094  0.8552 -1.7175
 4630SOL     OW18345   1.157   7.795   0.950  0.6720 -0.6457 -0.0949
 4630SOL    HW118346   1.202   7.854   1.010  0.1821 -0.4607  0.1003
 4630SOL    HW218347   1.158   7.710   0.994  0.5976 -0.5819  0.0308
 4631SOL     OW18348   7.759  10.378   4.336  0.2761  0.8785 -0.4215
 4631SOL    HW118349   7.837  10.348   4.383  0.2479  1.6322  0.1206
 4631SOL    HW218350   7.780  10.361   4.244  0.6510  0.1190 -0.2120
 4632SOL     OW18351   5.721   4.536   0.374  0.0570 -0.2177 -0.0035
 4632SOL    HW118352   5.759   4.456   0.410  0.0246 -0.1029  0.2874
 4632SOL    HW218353   5.690   4.585   0.450  0.7410  0.4165 -0.1181
 4633SOL     OW18354   2.828   7.226   9.626  0.3614  0.0631 -0.2716
 4633SOL    HW118355   2.859   7.196   9.712 -2.1130 -1.3136  0.2408
 4633SOL    HW218356   2.902   7.274   9.589  2.2907 -1.2517  1.6582
 4634SOL     OW18357   1.039   2.230  10.613  0.4527 -0.2332 -0.3202
 4634SOL    HW118358   0.982   2.238  10.536  1.0085  1.4263 -0.6148
 4634SOL    HW218359   0.998   2.286  10.679  2.0273  1.5585 -0.7642
 4635SOL     OW18360  11.054   3.172   2.405 -0.1171 -0.5346  0.1948
 4635SOL    HW118361  11.054   3.258   2.447 -1.5411 -1.0621  1.3560
 4635SOL    HW218362  11.080   3.111   2.474 -2.4866 -1.4142  0.4109
 4636SOL     OW18363   1.494   9.869   5.508 -0.2924  0.5394  0.2463
 4636SOL    HW118364   1.493   9.946   5.564  0.6514  0.0396  0.9912
 4636SOL    HW218365   1.581   9.868   5.469 -0.5666  0.2753 -0.3887
 4637SOL     OW18366   6.927   2.107   5.653 -0.2392  0.3527  0.6517
 4637SOL    HW118367   6.850   2.117   5.709 -0.8999 -0.7352 -0.0183
 4637SOL    HW218368   7.001   2.100   5.714 -0.7041  1.0649  1.3088
 4638SOL     OW18369  10.729   2.929   9.356  0.1026  0.1290 -0.0319
 4638SOL    HW118370  10.823   2.915   9.368  0.3347  1.3032 -0.3171
 4638SOL    HW218371  10.714   3.018   9.390 -0.9236 -0.0768  0.0915
 4639SOL     OW18372   5.916   7.286   7.529  0.1421  0.2839 -0.5851
 4639SOL    HW118373   5.852   7.356   7.515  0.6897  0.7868 -0.6075
 4639SOL    HW218374   5.999   7.332   7.546  0.6267 -0.3515 -1.1588
 4640SOL     OW18375   5.400   5.162   2.430  0.2128 -0.3636  0.1915
 4640SOL    HW118376   5.315   5.205   2.443  0.1503 -0.4560  0.0893
 4640SOL    HW218377   5.463   5.234   2.433 -0.0262 -0.0210 -1.6393
 4641SOL     OW18378   3.824   4.948   7.563 -0.3553 -0.5757 -0.2258
 4641SOL    HW118379   3.814   4.861   7.524  0.1483 -0.9352  0.4211
 4641SOL    HW218380   3.864   5.002   7.494 -0.3683 -0.9438 -0.5220
 4642SOL     OW18381   4.257   1.095   3.373 -0.3595 -0.7938  0.0538
 4642SOL    HW118382   4.248   1.078   3.279 -0.0795  0.3942 -0.2003
 4642SOL    HW218383   4.345   1.131   3.382 -0.8291  0.2559  0.5887
 4643SOL     OW18384   6.317   9.297  10.456 -0.2766 -0.5049 -0.0899
 4643SOL    HW118385   6.355   9.263  10.375  0.0353 -0.8156  0.1822
 4643SOL    HW218386   6.235   9.338  10.429  0.0289 -0.2267 -0.6227
 4644SOL     OW18387   7.566   4.843   9.235  0.2814  0.0891 -0.1096
 4644SOL    HW118388   7.622   4.820   9.309  0.3419  0.8723  0.1007
 4644SOL    HW218389   7.564   4.939   9.236 -0.2627  0.0893 -0.7149
 4645SOL     OW18390   9.172  10.787   9.163  0.0912  0.2655 -0.4977
 4645SOL    HW118391   9.131  10.704   9.189 -0.8880  0.4017 -1.5154
 4645SOL    HW218392   9.180  10.836   9.245  0.0252 -0.5581  0.0132
 4646SOL     OW18393   3.312   5.076  10.158 -0.3361  0.3510  0.1866
 4646SOL    HW118394   3.230   5.123  10.173 -0.7572 -0.4076  0.3150
 4646SOL    HW218395   3.285   4.990  10.128  0.4312  0.2507 -0.2305
 4647SOL     OW18396   4.001   8.921   2.166  0.6923 -0.6004 -0.0888
 4647SOL    HW118397   3.980   8.908   2.258  1.0892 -1.0340 -0.0574
 4647SOL    HW218398   3.937   8.987   2.136 -0.6658 -1.8192  0.0190
 4648SOL     OW18399   2.642   4.009   8.792  0.2902  0.1271  0.0765
 4648SOL    HW118400   2.580   4.081   8.789  0.7845  0.5311 -1.8108
 4648SOL    HW218401   2.600   3.938   8.743  0.8415  0.0196 -0.2561
 4649SOL     OW18402   3.952   2.800  10.392 -0.9539  0.3792  0.7017
 4649SOL    HW118403   3.977   2.801  10.300  0.2048  1.0200  1.0074
 4649SOL    HW218404   3.897   2.722  10.401  0.3749 -0.7131 -0.1813
 4650SOL     OW18405  10.608   5.087   4.436  0.0098 -0.2430  0.1739
 4650SOL    HW118406  10.585   5.149   4.367 -0.7635 -1.2174 -0.4728
 4650SOL    HW218407  10.609   5.140   4.516  2.6281  1.2564 -0.7601
 4651SOL     OW18408   3.094   1.191   8.181 -0.4378  0.1523  0.0399
 4651SOL    HW118409   3.130   1.260   8.236 -0.4842  0.6123 -0.4920
 4651SOL    HW218410   3.140   1.201   8.097 -0.7960 -0.1509 -0.1971
 4652SOL     OW18411   0.150   1.876   9.085 -0.5871  0.1427 -0.3111
 4652SOL    HW118412   0.200   1.944   9.039 -0.2824 -0.8527 -1.4894
 4652SOL    HW218413   0.215   1.832   9.140 -0.6558  0.3680 -0.0451
 4653SOL     OW18414   3.896   9.475   1.752  0.4319 -0.5926  0.3005
 4653SOL    HW118415   3.838   9.445   1.822  2.0323 -0.5504  1.7117
 4653SOL    HW218416   3.971   9.416   1.756  1.1646  0.2579 -0.4803
 4654SOL     OW18417   7.014   9.703   6.461  0.0803  0.1066  0.6082
 4654SOL    HW118418   7.083   9.637   6.453 -1.6127 -1.5001 -1.9363
 4654SOL    HW218419   7.042   9.775   6.405  0.3361  0.0904  0.7143
 4655SOL     OW18420   8.492   3.815   8.626  0.2587  0.4083  0.1085
 4655SOL    HW118421   8.512   3.723   8.646 -0.2948 -0.0025 -1.1723
 4655SOL    HW218422   8.481   3.856   8.712 -0.6505 -0.9831  0.6844
 4656SOL     OW18423   0.736   2.927   5.858  0.5174  0.0114  0.2909
 4656SOL    HW118424   0.696   2.949   5.942 -0.2878 -1.9195  0.4589
 4656SOL    HW218425   0.830   2.921   5.877  0.0820 -4.1382  2.0637
 4657SOL     OW18426   0.221   7.356   2.410  0.6304 -0.0054 -0.0367
 4657SOL    HW118427   0.193   7.393   2.493  1.1421  0.4811 -0.0770
 4657SOL    HW218428   0.149   7.298   2.384 -0.1654  0.9308  0.0363
 4658SOL     OW18429   9.673   1.321   1.640  0.3409  0.5473  0.1646
 4658SOL    HW118430   9.630   1.236   1.634  1.5652 -0.1022  0.3688
 4658SOL    HW218431   9.605   1.384   1.615 -0.8977 -0.3818  1.0707
 4659SOL     OW18432   3.033   4.908   7.937 -0.1828  0.0295 -0.0882
 4659SOL    HW118433   3.124   4.899   7.964 -0.0224  0.4660 -0.4656
 4659SOL    HW218434   3.001   4.983   7.988 -0.8760 -1.2305  1.4216
 4660SOL     OW18435   8.547   0.135   1.907 -0.0090  0.8093  0.0671
 4660SOL    HW118436   8.631   0.127   1.862  0.0220  0.0126  0.2423
 4660SOL    HW218437   8.482   0.103   1.844 -0.1153  0.9360  0.1122
 4661SOL     OW18438  11.059   4.909  10.959 -0.3161 -0.2171  1.1831
 4661SOL    HW118439  11.064   4.848  11.033 -2.0032  0.6369  2.0787
 4661SOL    HW218440  10.989   4.874  10.903  1.2139 -1.0690 -0.2682
 4662SOL     OW18441   6.786   0.577  10.281 -0.3749 -0.0044  1.2483
 4662SOL    HW118442   6.873   0.603  10.251 -0.9162 -0.1290 -0.4925
 4662SOL    HW218443   6.803   0.532  10.364  1.2905 -0.5166  0.6787
 4663SOL     OW18444   8.830   3.732   4.188  0.2329 -0.1727 -0.2914
 4663SOL    HW118445   8.925   3.719   4.194  0.0716 -2.2442 -1.5298
 4663SOL    HW218446   8.799   3.720   4.278  1.1892  1.2164  0.2525
 4664SOL     OW18447  10.460   7.621   6.675 -0.0650 -0.2225  0.4412
 4664SOL    HW118448  10.509   7.663   6.746 -0.4426 -1.2140  1.2927
 4664SOL    HW218449  10.528   7.598   6.611  0.1993  1.2959  0.1320
 4665SOL     OW18450   9.586   7.369   0.868 -0.0178 -0.4563 -0.3294
 4665SOL    HW118451   9.628   7.364   0.782  1.4046 -0.8714  0.3665
 4665SOL    HW218452   9.656   7.396   0.927 -0.8225 -0.8144  0.8128
 4666SOL     OW18453   4.201   0.010   1.861 -0.7040 -0.3538  0.3455
 4666SOL    HW118454   4.282  -0.028   1.827 -1.5222 -1.8840 -0.0127
 4666SOL    HW218455   4.205   0.102   1.835  1.2890 -0.1879  1.0695
 4667SOL     OW18456   6.176   5.985   4.282 -0.1031  0.3771 -0.2572
 4667SOL    HW118457   6.195   6.022   4.368  1.4439 -0.4686 -0.1979
 4667SOL    HW218458   6.162   6.061   4.225  0.2507  0.9721  0.4454
 4668SOL     OW18459  10.398   5.384   6.613 -0.2118 -0.2747  0.3213
 4668SOL    HW118460  10.447   5.303   6.601  1.5521  0.5520  1.5545
 4668SOL    HW218461  10.463   5.447   6.645 -1.7611  1.3272  0.4697
 4669SOL     OW18462  10.717   1.735   9.304 -0.6072 -0.1579  0.5839
 4669SOL    HW118463  10.724   1.820   9.349  0.7119 -0.6858  1.4270
 4669SOL    HW218464  10.797   1.730   9.251 -1.4361 -0.2053 -0.7041
 4670SOL     OW18465   7.223   3.519   1.002 -0.2214  0.0511  0.0253
 4670SOL    HW118466   7.226   3.441   0.946 -0.9349  0.7471 -1.0010
 4670SOL    HW218467   7.136   3.516   1.041 -0.2752  0.3713 -0.0712
 4671SOL     OW18468   8.916   1.589   9.203 -0.3337  0.7094  0.4082
 4671SOL    HW118469   8.920   1.586   9.108  0.8715  1.7099  0.4118
 4671SOL    HW218470   8.860   1.664   9.223 -0.6327  0.4663  0.4951
 4672SOL     OW18471   6.998   0.140   8.697 -0.4829  0.1254  0.5372
 4672SOL    HW118472   7.030   0.214   8.748  2.1214 -1.4308  1.3681
 4672SOL    HW218473   7.005   0.065   8.757 -1.1303 -1.1296 -0.8932
 4673SOL     OW18474   2.424  10.726   2.494 -0.1727 -0.4831  0.3618
 4673SOL    HW118475   2.386  10.798   2.444  2.7100 -0.6457 -2.4093
 4673SOL    HW218476   2.457  10.767   2.574  0.3940  1.0862 -0.6226
 4674SOL     OW18477   4.826   3.114   9.420 -0.1739  0.0733 -0.2224
 4674SOL    HW118478   4.881   3.043   9.452  0.1375  0.1905 -0.4947
 4674SOL    HW218479   4.859   3.192   9.464 -0.4944  0.0538  0.0529
 4675SOL     OW18480  10.257   5.528   7.990  0.1571  0.1431 -0.0103
 4675SOL    HW118481  10.275   5.611   8.034  1.2611  1.0020 -1.9588
 4675SOL    HW218482  10.297   5.537   7.903 -2.0556 -1.3981 -1.2833
 4676SOL     OW18483   9.342   1.378   1.337  0.4220  0.4054 -0.2450
 4676SOL    HW118484   9.430   1.411   1.321  0.2342  0.9715 -0.1380
 4676SOL    HW218485   9.306   1.364   1.249  0.8062 -0.3458 -0.2843
 4677SOL     OW18486   2.521   4.245   8.845  0.2053 -0.1329  0.4312
 4677SOL    HW118487   2.561   4.292   8.919  2.0182  0.7361 -1.0024
 4677SOL    HW218488   2.548   4.296   8.768 -2.7807 -0.1905 -0.7797
 4678SOL     OW18489   0.432   5.433   3.565  0.2740  0.3558 -0.1465
 4678SOL    HW118490   0.414   5.491   3.639 -1.9870  1.5027 -1.4810
 4678SOL    HW218491   0.368   5.362   3.575  0.5868  0.0230 -0.4971
 4679SOL     OW18492  10.451   1.893   0.641  0.4216 -0.4791 -0.4129
 4679SOL    HW118493  10.407   1.978   0.635 -0.5617 -0.9111  0.4974
 4679SOL    HW218494  10.522   1.899   0.578  0.3570  1.0199 -0.3745
 4680SOL     OW18495   7.718   5.655   2.826 -0.4871  0.1637 -0.3023
 4680SOL    HW118496   7.782   5.716   2.790 -0.3023  0.3943  0.4127
 4680SOL    HW218497   7.654   5.711   2.870 -1.0005 -0.0858 -0.7132
 4681SOL     OW18498   4.521   8.653   4.943 -0.6722  0.2418  0.0103
 4681SOL    HW118499   4.447   8.626   4.997 -1.1659  1.9944  0.2521
 4681SOL    HW218500   4.510   8.603   4.861 -0.5433 -1.5869  1.0607
 4682SOL     OW18501   4.817   6.264   9.588  0.2177  0.1250 -0.2371
 4682SOL    HW118502   4.908   6.264   9.560  0.1098  1.1008 -0.6460
 4682SOL    HW218503   4.819   6.287   9.680  0.4767 -1.5110  0.1896
 4683SOL     OW18504   9.355   3.435   8.120  0.6349 -0.0578  0.2005
 4683SOL    HW118505   9.346   3.499   8.049 -0.7502  0.0588  0.4594
 4683SOL    HW218506   9.449   3.416   8.123  0.9747  1.3851 -0.3939
 4684SOL     OW18507   8.002   4.247   6.489 -0.2140  0.4665  0.1634
 4684SOL    HW118508   8.080   4.276   6.441 -0.2275  1.1740  0.5621
 4684SOL    HW218509   8.011   4.151   6.492  1.6381  0.6058  1.8189
 4685SOL     OW18510   3.349   9.082   8.357 -0.1593  0.8204 -0.0864
 4685SOL    HW118511   3.412   9.010   8.351  1.1418  1.7538  1.4175
 4685SOL    HW218512   3.265   9.040   8.371 -0.1309 -0.5200 -3.0327
 4686SOL     OW18513   8.804   0.836   6.028  0.2165  0.2099  0.3048
 4686SOL    HW118514   8.730   0.841   5.967 -0.5694  0.2995  1.2450
 4686SOL    HW218515   8.881   0.843   5.972 -0.4741  3.8705 -0.4063
 4687SOL     OW18516   5.291   6.539   2.019 -0.0272 -0.2025  0.0295
 4687SOL    HW118517   5.337   6.618   2.048 -0.2187 -0.0151 -0.1659
 4687SOL    HW218518   5.256   6.501   2.099  0.9071 -0.6359  0.2402
 4688SOL     OW18519   2.806  10.255   1.949  0.0561  0.2012  0.0179
 4688SOL    HW118520   2.815  10.348   1.931  0.9355  0.1159  0.0001
 4688SOL    HW218521   2.727  10.248   2.003  0.7424  1.1015  1.1610
 4689SOL     OW18522  10.923   8.837   3.107  0.1816 -0.1066 -0.3407
 4689SOL    HW118523  10.931   8.870   3.197 -1.2674 -0.0606 -0.2040
 4689SOL    HW218524  10.890   8.912   3.057 -0.5519 -0.5757 -0.5758
 4690SOL     OW18525   4.875   8.062   4.254  0.7021  0.5926 -0.4459
 4690SOL    HW118526   4.815   8.116   4.202  1.7002  0.6980 -1.5224
 4690SOL    HW218527   4.864   8.094   4.344 -0.5187  0.9004 -0.6848
 4691SOL     OW18528   0.400   7.003   1.997  0.1290 -0.0535 -0.5428
 4691SOL    HW118529   0.335   7.024   2.064 -0.4577  0.2067 -1.1854
 4691SOL    HW218530   0.476   7.057   2.020 -0.3232  0.5728 -0.4961
 4692SOL     OW18531   8.316   3.910   6.292  0.0732  0.6665 -0.3636
 4692SOL    HW118532   8.367   3.831   6.275  0.4357  0.9296 -0.5291
 4692SOL    HW218533   8.375   3.982   6.268  0.4718  1.0499  1.5556
 4693SOL     OW18534   7.775   0.063  10.645 -0.0795 -0.0613 -0.0008
 4693SOL    HW118535   7.803   0.134  10.702 -2.1870  1.1475 -0.3717
 4693SOL    HW218536   7.819   0.080  10.562  1.0634 -0.4258  0.5068
 4694SOL     OW18537  10.775   4.827   6.071  0.3990  0.4529  0.3510
 4694SOL    HW118538  10.754   4.878   6.149  2.0691 -0.7722  1.6929
 4694SOL    HW218539  10.746   4.738   6.091  1.3791 -0.0018 -0.1457
 4695SOL     OW18540   8.043   8.956   3.285  0.4154 -0.0613  0.0171
 4695SOL    HW118541   8.076   8.926   3.200  1.5560 -1.1927  0.8231
 4695SOL    HW218542   8.109   8.927   3.348 -0.2997  0.9448  1.2796
 4696SOL     OW18543   7.668   8.887   9.358  0.0712  0.1818 -0.2482
 4696SOL    HW118544   7.638   8.975   9.380 -0.8685  0.1546 -1.2908
 4696SOL    HW218545   7.754   8.879   9.398 -0.1940  1.2711  0.5629
 4697SOL     OW18546   5.768   0.435   1.854  0.4580  0.4451  0.0225
 4697SOL    HW118547   5.833   0.480   1.908  0.8068  1.1140 -0.9248
 4697SOL    HW218548   5.748   0.354   1.902 -1.8015  2.4838  2.9316
 4698SOL     OW18549   8.893   2.622   4.829  0.2807  0.0580  0.7716
 4698SOL    HW118550   8.910   2.708   4.791  0.9683 -0.0106  0.9110
 4698SOL    HW218551   8.814   2.591   4.785  0.7347  0.2245 -0.1874
 4699SOL     OW18552   7.619   2.035   3.348 -0.3556  0.0225  0.0744
 4699SOL    HW118553   7.594   2.112   3.400  1.8852  0.9850 -0.1845
 4699SOL    HW218554   7.693   1.998   3.395  0.1645 -0.5157 -1.1346
 4700SOL     OW18555   4.150   5.848   3.971  0.2190  0.3759 -0.0588
 4700SOL    HW118556   4.233   5.887   3.998 -0.1916  0.7120  0.7708
 4700SOL    HW218557   4.136   5.777   4.033 -0.0672  0.2555 -0.2605
 4701SOL     OW18558   7.443   5.065   5.830  0.4369  0.1162 -0.3373
 4701SOL    HW118559   7.362   5.047   5.783  0.2691 -0.9367  0.3335
 4701SOL    HW218560   7.486   5.132   5.777 -0.5262  0.1755 -1.0864
 4702SOL     OW18561   6.603   1.318   9.168 -0.4334 -0.0394 -0.3108
 4702SOL    HW118562   6.571   1.373   9.240 -0.7198  0.2400 -0.6489
 4702SOL    HW218563   6.557   1.234   9.180 -0.7002  0.1019 -0.3370
 4703SOL     OW18564   1.769   0.223   6.689 -0.3322 -0.4240 -0.3652
 4703SOL    HW118565   1.849   0.215   6.740 -0.5935  1.1554  0.3396
 4703SOL    HW218566   1.796   0.213   6.598  0.6338 -0.0497 -0.1219
 4704SOL     OW18567   5.096   7.203   3.675  0.2703 -0.0221 -0.0327
 4704SOL    HW118568   5.116   7.174   3.764  2.3277 -1.0489 -0.7780
 4704SOL    HW218569   5.157   7.275   3.659  0.5201 -0.4207 -0.9131
 4705SOL     OW18570   3.915   4.454   1.763 -0.3432  0.5266 -0.3574
 4705SOL    HW118571   3.939   4.545   1.742  2.2572 -0.1628 -0.8292
 4705SOL    HW218572   3.931   4.406   1.681 -0.4737 -0.5398  0.2219
 4706SOL     OW18573   9.355   4.626   5.374 -0.2327  0.3517  0.0781
 4706SOL    HW118574   9.385   4.713   5.347 -1.4273  1.5042  2.1462
 4706SOL    HW218575   9.397   4.611   5.459  0.2294 -1.2864 -0.3994
 4707SOL     OW18576   0.463   8.579   4.351 -0.4399 -0.0368 -0.5221
 4707SOL    HW118577   0.413   8.660   4.336  0.4171  0.2099 -2.3131
 4707SOL    HW218578   0.553   8.604   4.333  0.1318 -0.9024  1.0021
 4708SOL     OW18579  10.493  10.447  10.484  0.2134  0.5079 -0.0125
 4708SOL    HW118580  10.509  10.397  10.404 -0.3736  1.0554 -0.4796
 4708SOL    HW218581  10.574  10.438  10.535  1.3297  1.6583 -1.4770
 4709SOL     OW18582   7.781   3.193  10.493  0.2514 -0.4392 -0.6025
 4709SOL    HW118583   7.805   3.244  10.571  0.2581  1.0757 -1.5519
 4709SOL    HW218584   7.838   3.226  10.424 -0.8040 -0.6392 -1.6058
 4710SOL     OW18585   1.466   6.570   4.838 -0.4666 -0.0744  0.2191
 4710SOL    HW118586   1.504   6.653   4.810  1.3100 -0.9458 -0.1471
 4710SOL    HW218587   1.492   6.561   4.929  1.1987 -1.1414 -0.3071
 4711SOL     OW18588   4.476   5.318   8.867 -0.2035  0.0258  1.0650
 4711SOL    HW118589   4.532   5.392   8.893  0.2269  0.2794 -0.4827
 4711SOL    HW218590   4.496   5.250   8.932  0.9945  0.5364  1.2694
 4712SOL     OW18591   7.471   2.428   5.305 -0.0957  0.2479  0.0004
 4712SOL    HW118592   7.460   2.505   5.249  2.0520  2.4158  2.2841
 4712SOL    HW218593   7.557   2.394   5.281 -0.5534 -0.7887 -0.2094
 4713SOL     OW18594   6.061   9.503   0.916 -0.1212  0.2474  0.0382
 4713SOL    HW118595   6.091   9.525   0.828  0.5971 -2.2281 -0.4108
 4713SOL    HW218596   6.009   9.579   0.943  2.0370  2.3471 -1.3052
 4714SOL     OW18597   2.590   7.534  10.714  0.0097  0.3719  0.2303
 4714SOL    HW118598   2.677   7.571  10.700  0.0395 -0.0332 -0.7109
 4714SOL    HW218599   2.554   7.522  10.626  0.0760 -1.9877  0.4416
 4715SOL     OW18600   9.672   9.192   3.884  0.4704  0.0188  0.3689
 4715SOL    HW118601   9.609   9.120   3.893 -0.6772  0.9599  0.0603
 4715SOL    HW218602   9.724   9.169   3.807  1.9824 -1.8195  1.8298
 4716SOL     OW18603  10.037   8.606   1.398  0.3274 -0.0378  0.5964
 4716SOL    HW118604   9.954   8.577   1.436  0.1168  1.4780  1.3455
 4716SOL    HW218605  10.058   8.688   1.443  0.4027  1.5264 -2.0473
 4717SOL     OW18606   9.962  10.557   5.225  0.2213 -0.6154  0.3771
 4717SOL    HW118607   9.937  10.610   5.301  0.4802 -0.4025  0.3172
 4717SOL    HW218608   9.883  10.509   5.202 -0.0108 -0.2785  0.4554
 4718SOL     OW18609   0.496   7.395   7.579 -0.0143 -0.3063 -0.0526
 4718SOL    HW118610   0.494   7.422   7.487 -1.5893  0.0288  0.0491
 4718SOL    HW218611   0.474   7.302   7.578  1.0251 -0.5732 -0.0638
 4719SOL     OW18612   1.963   0.046   9.355  0.6704 -0.2331  0.4252
 4719SOL    HW118613   1.951   0.123   9.411 -0.1029 -0.1433  0.1514
 4719SOL    HW218614   2.031  -0.004   9.398 -0.7704 -0.8075  2.1813
 4720SOL     OW18615   9.072   9.088   9.654  0.1211  0.6373 -0.4377
 4720SOL    HW118616   9.066   9.039   9.572 -0.3210 -0.4869  0.2397
 4720SOL    HW218617   9.018   9.038   9.716 -0.7200  2.2281  0.1797
 4721SOL     OW18618   5.159   0.332  10.292 -0.3348  0.4582  0.3423
 4721SOL    HW118619   5.190   0.259  10.239 -0.9418 -0.3375  1.0424
 4721SOL    HW218620   5.064   0.331  10.280 -0.3361  1.2224  0.2563
 4722SOL     OW18621  10.928   4.389   0.935 -0.2345  0.5842 -0.3941
 4722SOL    HW118622  10.955   4.303   0.969 -0.1645  0.9518  0.5084
 4722SOL    HW218623  10.896   4.371   0.846  0.5099 -0.2557 -0.5043
 4723SOL     OW18624   2.630   4.190   5.785  0.6281  0.9112 -0.0449
 4723SOL    HW118625   2.647   4.201   5.879  2.5154  0.3266 -0.2853
 4723SOL    HW218626   2.599   4.100   5.776 -1.8280  1.6588  0.2595
 4724SOL     OW18627   0.754   3.498  10.283 -0.1339 -0.1760  0.3911
 4724SOL    HW118628   0.790   3.455  10.206  2.2239 -1.5696  2.1224
 4724SOL    HW218629   0.810   3.575  10.296 -0.7341  0.2466  0.5561
 4725SOL     OW18630  10.975   5.013   0.963  0.4442  0.0800 -0.2377
 4725SOL    HW118631  11.040   4.952   0.998 -0.0168 -0.0868  0.3294
 4725SOL    HW218632  10.896   4.996   1.013 -0.1964 -0.0710 -1.2592
 4726SOL     OW18633   9.382   2.805  10.683  0.5273  0.1722 -0.5892
 4726SOL    HW118634   9.316   2.736  10.690  0.1042  0.5463 -0.8166
 4726SOL    HW218635   9.440   2.791  10.758  1.4005 -1.4092 -1.5218
 4727SOL     OW18636   8.339   2.124   1.284  0.0989  0.0441 -0.1185
 4727SOL    HW118637   8.329   2.094   1.374  0.0435 -2.1388 -0.8159
 4727SOL    HW218638   8.297   2.210   1.284 -2.0326 -0.8965  1.4074
 4728SOL     OW18639   9.394   4.772  10.479  0.0148  0.1598 -0.2368
 4728SOL    HW118640   9.359   4.778  10.568  0.8410  0.3435  0.0876
 4728SOL    HW218641   9.346   4.699  10.439 -1.2680  0.8770 -0.0717
 4729SOL     OW18642   3.447   4.780   5.613  0.5519  0.0031 -0.0446
 4729SOL    HW118643   3.366   4.810   5.654  0.8087 -0.5400  0.8765
 4729SOL    HW218644   3.426   4.693   5.579  0.6629 -0.0060 -0.0910
 4730SOL     OW18645   7.556   7.564   2.244 -0.7488  0.0564  0.7514
 4730SOL    HW118646   7.575   7.471   2.255 -2.8958 -0.6595 -0.9464
 4730SOL    HW218647   7.622   7.595   2.181 -0.7793 -0.6024  0.3950
 4731SOL     OW18648   2.911   9.958   6.731 -0.0974  0.4992  0.0623
 4731SOL    HW118649   2.976  10.027   6.717 -1.8278  1.9567 -1.4307
 4731SOL    HW218650   2.943   9.884   6.680  0.3845  1.2027 -0.6809
 4732SOL     OW18651   2.364   7.274   1.023  0.3493 -0.1195 -0.0297
 4732SOL    HW118652   2.373   7.260   1.117  0.9717  0.8478  0.0661
 4732SOL    HW218653   2.406   7.358   1.007 -2.5074  1.3239 -0.6685
 4733SOL     OW18654   1.407   4.552   1.889 -0.8631 -0.0945 -0.1758
 4733SOL    HW118655   1.318   4.566   1.857 -1.2183  2.2682  1.5649
 4733SOL    HW218656   1.397   4.497   1.966 -0.8879  0.4637  0.2276
 4734SOL     OW18657   9.864   7.466   3.281 -0.0538  0.6490  0.3866
 4734SOL    HW118658   9.942   7.449   3.229  0.0674 -0.0952  0.7866
 4734SOL    HW218659   9.886   7.543   3.333  0.3690  0.5219  0.4019
 4735SOL     OW18660   4.578   3.260   4.889 -0.0627  0.1351 -0.5451
 4735SOL    HW118661   4.610   3.311   4.815 -1.8961 -0.1075 -1.5749
 4735SOL    HW218662   4.483   3.256   4.876 -0.5994  1.0355  2.4509
 4736SOL     OW18663  10.154   6.004   7.210  0.4869  0.6754 -0.3946
 4736SOL    HW118664  10.244   6.028   7.231  0.0722  1.1137  0.9393
 4736SOL    HW218665  10.136   6.049   7.127  0.8724  2.1668  0.3014
 4737SOL     OW18666   2.195   8.650   4.757  0.7330 -0.0653  0.0568
 4737SOL    HW118667   2.174   8.567   4.799  2.4513 -0.3411  0.4316
 4737SOL    HW218668   2.187   8.716   4.826 -1.2206  0.2157 -0.3781
 4738SOL     OW18669  10.578   7.362   9.749  0.1381 -0.0509  0.0935
 4738SOL    HW118670  10.615   7.337   9.664 -1.1935 -1.0299 -0.2220
 4738SOL    HW218671  10.494   7.318   9.753 -0.8822  1.8515  0.9398
 4739SOL     OW18672   6.499   3.952   3.386  0.7769 -0.1132  0.1160
 4739SOL    HW118673   6.447   3.903   3.449 -0.2176  0.8656  0.0947
 4739SOL    HW218674   6.590   3.928   3.405  0.4626 -0.2004  1.6170
 4740SOL     OW18675  10.922   5.243  10.467 -0.3394  0.9827 -0.1504
 4740SOL    HW118676  11.006   5.210  10.436 -0.1519  0.9244  0.4224
 4740SOL    HW218677  10.944   5.301  10.540 -0.8300  0.5548  0.3479
 4741SOL     OW18678   2.709   7.485   0.572 -0.2740 -0.0730 -0.0565
 4741SOL    HW118679   2.710   7.402   0.619  1.3805 -0.1076 -0.1019
 4741SOL    HW218680   2.676   7.463   0.484  0.0283 -0.6561 -0.0261
 4742SOL     OW18681   9.262   9.692   6.844  0.6179  0.0592  0.6419
 4742SOL    HW118682   9.213   9.765   6.806  1.2622  0.3663  0.3867
 4742SOL    HW218683   9.203   9.657   6.911 -0.1609  0.0951  0.0027
 4743SOL     OW18684   4.601   0.802   9.961 -0.0651 -0.0951 -0.1531
 4743SOL    HW118685   4.627   0.834   9.875 -0.9899  1.1717  0.0133
 4743SOL    HW218686   4.580   0.881  10.011  0.8413 -0.7776  1.3746
 4744SOL     OW18687   5.293   0.136   5.144 -0.3256 -0.0466 -0.4777
 4744SOL    HW118688   5.314   0.057   5.194  0.1533 -0.3758 -1.1944
 4744SOL    HW218689   5.341   0.127   5.062  0.8449  1.6459 -0.0236
 4745SOL     OW18690   5.868   0.598   9.964 -0.2319 -0.2669  0.3172
 4745SOL    HW118691   5.921   0.594   9.885 -0.1044  1.8430  0.2327
 4745SOL    HW218692   5.862   0.508   9.993  0.9721 -0.9155 -1.2678
 4746SOL     OW18693   2.335   4.776  10.372 -0.0318 -0.1399 -0.0351
 4746SOL    HW118694   2.406   4.711  10.373 -0.1158 -0.2927  2.3066
 4746SOL    HW218695   2.318   4.791  10.279  3.0113 -0.1345 -0.7034
 4747SOL     OW18696   4.968   9.736   4.246 -0.2795 -0.1207  0.4423
 4747SOL    HW118697   5.026   9.802   4.283  1.1717  0.2791 -2.3091
 4747SOL    HW218698   4.899   9.787   4.202 -0.4141 -0.4913  0.2210
 4748SOL     OW18699   0.125   2.760   8.838  0.4150  0.2969 -0.4304
 4748SOL    HW118700   0.060   2.804   8.892  2.0603  0.0616  1.9183
 4748SOL    HW218701   0.075   2.700   8.783 -1.4480  1.4482 -0.0638
 4749SOL     OW18702  10.991   4.128   8.376 -0.2810 -0.1019 -0.4932
 4749SOL    HW118703  11.035   4.126   8.461  1.4723 -3.0037 -1.3234
 4749SOL    HW218704  11.008   4.216   8.343  3.8363 -0.5417 -0.0972
 4750SOL     OW18705   3.005   0.291   5.795 -0.1965  0.2783  0.2121
 4750SOL    HW118706   2.974   0.209   5.833  0.6666 -0.0195  0.2875
 4750SOL    HW218707   2.989   0.281   5.701  2.0432 -0.9653 -0.0912
 4751SOL     OW18708   0.082   8.909   2.026  0.3618 -0.1222  0.2168
 4751SOL    HW118709   0.067   8.892   2.119 -1.3319  1.9894  0.3940
 4751SOL    HW218710   0.108   9.001   2.022  2.1877 -0.6228 -1.2938
 4752SOL     OW18711   4.971   3.725  10.667 -0.2428 -0.0952 -0.2330
 4752SOL    HW118712   4.976   3.649  10.725 -1.7414  0.2890  0.4435
 4752SOL    HW218713   4.891   3.770  10.693  1.1622  2.3617  0.1405
 4753SOL     OW18714   0.963   1.890  10.528  0.1574  0.1636 -0.7343
 4753SOL    HW118715   0.986   1.900  10.436 -0.7408  2.4793 -0.7908
 4753SOL    HW218716   1.045   1.904  10.575  0.9518 -2.5609 -1.1406
 4754SOL     OW18717   9.978   7.846   8.436 -0.5186  0.1324 -0.3177
 4754SOL    HW118718  10.020   7.926   8.469 -0.1409 -1.3504  3.1126
 4754SOL    HW218719   9.907   7.829   8.497 -1.2130 -1.6826 -1.5515
 4755SOL     OW18720   3.127   2.524   3.564 -0.2772 -0.2146 -0.1082
 4755SOL    HW118721   3.141   2.482   3.479 -1.1914 -0.4844 -0.1293
 4755SOL    HW218722   3.156   2.458   3.628  1.2100  0.2973 -0.2046
 4756SOL     OW18723   5.425   2.318   8.581  0.8691  0.0449  0.6198
 4756SOL    HW118724   5.476   2.397   8.597  1.2273 -0.1785  0.6063
 4756SOL    HW218725   5.441   2.298   8.488  0.4520  0.1866  0.5165
 4757SOL     OW18726   2.859   7.789   1.200  0.0917 -0.3821  0.6269
 4757SOL    HW118727   2.774   7.746   1.199 -0.0517 -0.1258 -0.8376
 4757SOL    HW218728   2.894   7.772   1.287 -1.6340 -0.1298  1.4135
 4758SOL     OW18729   6.505   4.957   5.170 -0.0412 -0.2590  0.1701
 4758SOL    HW118730   6.529   5.022   5.104  1.8388  0.7698  1.7688
 4758SOL    HW218731   6.532   4.873   5.132 -1.0986  0.0026 -1.2682
 4759SOL     OW18732   3.398   2.986  10.562 -0.2553 -0.2190  0.6584
 4759SOL    HW118733   3.381   2.960  10.471  1.2225  0.4026  0.1710
 4759SOL    HW218734   3.425   3.078  10.556  3.6760 -1.1806  1.1872
 4760SOL     OW18735   2.714   0.196  10.334 -0.3314  0.1132  0.1592
 4760SOL    HW118736   2.654   0.143  10.283  0.4781 -1.0452  0.3708
 4760SOL    HW218737   2.713   0.282  10.292 -0.0706 -0.6597 -1.4952
 4761SOL     OW18738  10.313   3.103   9.162  0.5828  0.2342  0.5392
 4761SOL    HW118739  10.246   3.095   9.094  1.2236  1.4939 -0.2837
 4761SOL    HW218740  10.350   3.015   9.169 -0.3285 -0.2021  0.1559
 4762SOL     OW18741   2.681   9.945   8.897  0.0598  0.2714 -0.3682
 4762SOL    HW118742   2.639   9.903   8.973  0.7441  0.6985  0.2588
 4762SOL    HW218743   2.711   9.872   8.843  1.1781 -0.0834  0.6720
 4763SOL     OW18744   9.993   5.007   6.951 -0.2890 -0.0215 -0.5555
 4763SOL    HW118745  10.065   5.021   7.012 -0.2880  0.5830 -0.6890
 4763SOL    HW218746   9.974   5.095   6.916 -2.5482  0.2254  1.1073
 4764SOL     OW18747  10.219   5.250   7.988  0.1769  0.1510  0.1999
 4764SOL    HW118748  10.228   5.345   7.988  0.2603  0.1501 -0.7321
 4764SOL    HW218749  10.228   5.225   8.080 -2.4642  1.2895  0.8701
 4765SOL     OW18750   3.660   1.309   4.226  0.3642 -0.0648  0.1362
 4765SOL    HW118751   3.674   1.284   4.317  1.6029  2.3460  0.6902
 4765SOL    HW218752   3.742   1.286   4.182 -0.6869 -2.4502 -0.7658
 4766SOL     OW18753   5.647  10.194   8.143  0.1526 -0.5161 -0.2850
 4766SOL    HW118754   5.608  10.114   8.109  1.0973 -0.7361 -0.8683
 4766SOL    HW218755   5.701  10.165   8.217 -2.1931 -0.0048  1.7699
 4767SOL     OW18756   2.690   2.182   0.874 -0.3640  0.0642  0.1398
 4767SOL    HW118757   2.700   2.087   0.878 -2.8593 -0.2629  0.1446
 4767SOL    HW218758   2.600   2.196   0.842  0.0381  2.4274 -0.1722
 4768SOL     OW18759   9.885   1.062   2.986 -0.9776 -0.0826  0.2904
 4768SOL    HW118760   9.824   1.132   2.962 -0.5682 -0.1686 -1.1218
 4768SOL    HW218761   9.970   1.093   2.956 -0.0797  0.4758  3.1226
 4769SOL     OW18762   8.317   9.979   6.780 -0.2464  0.1227  0.0624
 4769SOL    HW118763   8.281   9.917   6.716  0.8358  2.5943 -3.2326
 4769SOL    HW218764   8.408   9.951   6.792 -0.3638 -0.1627  0.3095
 4770SOL     OW18765   6.847   1.770   0.546 -0.0811  0.2076  0.7771
 4770SOL    HW118766   6.803   1.853   0.531 -0.8392  0.0521  2.0005
 4770SOL    HW218767   6.936   1.784   0.514 -0.4564  1.1833  0.1250
 4771SOL     OW18768   5.253   8.937   8.594 -0.4379  0.3155 -0.3158
 4771SOL    HW118769   5.288   8.992   8.664  1.9434 -0.0177 -1.1429
 4771SOL    HW218770   5.167   8.909   8.626  0.1472  0.9619  2.0247
 4772SOL     OW18771   7.371   9.006   8.616 -0.1985  0.7757 -0.1418
 4772SOL    HW118772   7.412   9.078   8.664 -1.0726  0.4861  1.0946
 4772SOL    HW218773   7.353   9.042   8.529 -0.5656  2.0333  0.4333
 4773SOL     OW18774   1.402   0.767   7.094 -0.0213  0.1212  0.4621
 4773SOL    HW118775   1.427   0.842   7.149  0.9758  0.8387 -0.8763
 4773SOL    HW218776   1.308   0.758   7.106  0.0760  0.6824  1.7548
 4774SOL     OW18777   0.135   2.091   4.045 -0.2748  0.2138  0.4228
 4774SOL    HW118778   0.106   2.038   4.119  0.0579  0.1898  0.5352
 4774SOL    HW218779   0.097   2.178   4.061 -1.9762 -0.3134 -0.4529
 4775SOL     OW18780   2.780   8.901   1.272  0.3528 -0.2066  0.1924
 4775SOL    HW118781   2.815   8.863   1.352  0.0370 -0.8379  0.0328
 4775SOL    HW218782   2.740   8.984   1.300  1.9371  0.5256  0.3809
 4776SOL     OW18783   2.735   8.863   9.579 -0.1790  0.1600  0.3657
 4776SOL    HW118784   2.766   8.778   9.548 -0.6719 -0.2826  1.0482
 4776SOL    HW218785   2.810   8.921   9.570  0.3363 -0.4872  0.4489
 4777SOL     OW18786  11.032   2.526   1.663 -0.2378 -0.0924  0.2692
 4777SOL    HW118787  11.056   2.436   1.687  0.0224  0.4756  2.2707
 4777SOL    HW218788  11.106   2.579   1.691 -1.1211  0.9517  0.6941
 4778SOL     OW18789   9.058  10.243   2.496  0.0501 -0.1828  0.4768
 4778SOL    HW118790   9.036  10.336   2.485 -0.1326 -0.2236  0.4903
 4778SOL    HW218791   9.049  10.206   2.408 -0.7101 -0.3633  0.6285
 4779SOL     OW18792   3.178   0.064   0.715 -0.0031  0.5961 -0.6579
 4779SOL    HW118793   3.198   0.006   0.641  0.5436 -0.0894  0.0175
 4779SOL    HW218794   3.111   0.123   0.681 -0.5481 -0.4044 -1.3738
 4780SOL     OW18795   4.161   5.976   6.674 -0.1394 -0.3556  0.2169
 4780SOL    HW118796   4.188   5.971   6.766 -1.0586  1.1140  0.5954
 4780SOL    HW218797   4.069   5.948   6.674  0.3944 -2.3292 -0.6061
 4781SOL     OW18798   8.987   1.430   8.959 -0.3973 -0.1973 -0.5400
 4781SOL    HW118799   8.994   1.414   8.865  1.0769  0.9022 -0.6539
 4781SOL    HW218800   9.052   1.372   8.999 -0.7384 -0.3735 -0.2345
 4782SOL     OW18801   3.160   3.850   0.030 -0.0119  0.2829  0.1177
 4782SOL    HW118802   3.172   3.868  -0.063  0.8545  1.6886  0.4662
 4782SOL    HW218803   3.121   3.930   0.066 -0.0220 -0.1080  1.0251
 4783SOL     OW18804  10.436   1.016   6.509 -0.5706 -0.1371 -0.4870
 4783SOL    HW118805  10.511   1.049   6.460 -0.3764 -2.2280 -1.7171
 4783SOL    HW218806  10.360   1.033   6.453 -0.3595 -2.4565 -1.5778
 4784SOL     OW18807   8.711   1.133   5.424  0.4247 -0.3861 -0.3127
 4784SOL    HW118808   8.623   1.157   5.395  0.3473  0.7297  0.7614
 4784SOL    HW218809   8.697   1.060   5.484  0.1732  0.1308  0.2661
 4785SOL     OW18810   8.898   3.631   6.793 -0.0443  0.8313 -0.0782
 4785SOL    HW118811   8.914   3.602   6.704  2.4002  2.0085 -0.1168
 4785SOL    HW218812   8.812   3.673   6.790 -0.2122  0.4283 -1.7457
 4786SOL     OW18813   1.095   7.040   4.799 -0.5628 -0.1406 -0.0251
 4786SOL    HW118814   1.146   6.968   4.762 -1.7709  0.2619 -2.6313
 4786SOL    HW218815   1.145   7.119   4.777 -0.7037  0.0434  0.2914
 4787SOL     OW18816   5.299   2.749  10.631  0.0425  0.4985  0.3139
 4787SOL    HW118817   5.266   2.661  10.648 -0.8201  0.4168 -1.6137
 4787SOL    HW218818   5.227   2.794  10.587  0.9251  1.7768  0.1190
 4788SOL     OW18819   3.798   4.961   3.520 -0.1016 -0.3707  0.1061
 4788SOL    HW118820   3.742   4.903   3.468  0.4568 -0.0017 -0.9139
 4788SOL    HW218821   3.833   5.024   3.458  1.0224 -0.2590  0.8270
 4789SOL     OW18822   4.461   3.236   1.167  0.0316 -0.2253 -0.5480
 4789SOL    HW118823   4.502   3.149   1.168  0.5948  0.0293  0.5558
 4789SOL    HW218824   4.416   3.242   1.251 -1.2912 -0.0241 -1.2482
 4790SOL     OW18825   3.876   8.659   4.114  0.0250  0.5740 -0.5008
 4790SOL    HW118826   3.838   8.598   4.050  0.8316  0.8063 -1.2097
 4790SOL    HW218827   3.857   8.746   4.079 -1.2682  0.7627  0.5939
 4791SOL     OW18828   8.109   4.011   7.759 -0.5807 -0.4382  0.0906
 4791SOL    HW118829   8.111   4.002   7.664 -0.2100  1.2521 -0.0990
 4791SOL    HW218830   8.026   4.054   7.777 -0.0308  0.5450  0.3701
 4792SOL     OW18831   2.337   6.893   2.667  0.4878  0.6175 -0.1970
 4792SOL    HW118832   2.263   6.875   2.610  0.1546  2.1762 -0.3187
 4792SOL    HW218833   2.366   6.808   2.699 -1.5000 -0.0095  0.0298
 4793SOL     OW18834   9.481   9.921   0.091 -0.7239 -0.2640  0.1597
 4793SOL    HW118835   9.456   9.888   0.178 -1.7306  1.0072  0.3778
 4793SOL    HW218836   9.466  10.015   0.096 -3.0561 -0.4208 -2.1294
 4794SOL     OW18837   0.389   8.994   2.200  0.1893  0.4292  0.4546
 4794SOL    HW118838   0.301   8.956   2.208  0.8381 -0.9282  1.7466
 4794SOL    HW218839   0.389   9.067   2.262  0.2822 -0.2661  1.3046
 4795SOL     OW18840   0.610   8.237  10.286 -0.1270  0.8504 -0.5683
 4795SOL    HW118841   0.699   8.269  10.275  0.9406 -2.2747 -2.2515
 4795SOL    HW218842   0.573   8.238  10.198  0.3312 -3.0401 -0.9796
 4796SOL     OW18843   2.132  10.153   7.516 -0.9088 -0.2101 -0.0878
 4796SOL    HW118844   2.089  10.120   7.437  0.4526 -1.2188 -0.4511
 4796SOL    HW218845   2.226  10.145   7.497 -0.5495 -0.0359  1.4625
 4797SOL     OW18846   7.066   8.377   8.819  0.4636  0.4248  0.3577
 4797SOL    HW118847   7.146   8.327   8.832  1.7782  2.3096 -0.0764
 4797SOL    HW218848   7.054   8.380   8.724 -0.7408 -0.7074  0.4406
 4798SOL     OW18849   5.471   6.086   8.212  0.2357  0.1641  0.4009
 4798SOL    HW118850   5.474   5.999   8.252 -0.8974  0.3277  0.8751
 4798SOL    HW218851   5.477   6.069   8.118 -0.4900 -0.4628  0.4645
 4799SOL     OW18852   5.873   5.453   5.428 -0.6351  0.3390 -0.3614
 4799SOL    HW118853   5.830   5.368   5.427 -3.6781  1.7700 -1.3342
 4799SOL    HW218854   5.959   5.436   5.389 -0.5865 -2.4937  0.7464
 4800SOL     OW18855   8.457  10.402  10.570  0.2206 -0.2961 -0.1568
 4800SOL    HW118856   8.431  10.484  10.528  1.0449  1.6964  2.9037
 4800SOL    HW218857   8.375  10.364  10.601 -0.0563  0.0267 -0.4896
 4801SOL     OW18858   0.872   1.419   8.864 -0.0584  0.2418  0.4712
 4801SOL    HW118859   0.898   1.384   8.778 -0.6095  1.9147 -0.4127
 4801SOL    HW218860   0.950   1.465   8.895  0.1726 -0.4469  0.9293
 4802SOL     OW18861   4.267   4.866   1.463 -0.2618  0.0112 -0.0614
 4802SOL    HW118862   4.280   4.868   1.558  0.1517 -1.2811 -0.0710
 4802SOL    HW218863   4.343   4.817   1.430 -0.5848  0.1444 -1.0196
 4803SOL     OW18864   1.826   2.808   0.082 -0.7972 -0.0727  0.9965
 4803SOL    HW118865   1.825   2.719   0.047 -0.7064 -0.3619  1.7043
 4803SOL    HW218866   1.877   2.858   0.018 -0.5233 -0.6121  0.7829
 4804SOL     OW18867   3.677   7.194  10.243  0.5582  0.1773 -0.8711
 4804SOL    HW118868   3.702   7.207  10.152 -2.4904 -0.4090 -1.9070
 4804SOL    HW218869   3.659   7.100  10.250  0.3627  0.2809  0.2090
 4805SOL     OW18870   6.341   4.022   1.729  0.5377 -0.2202  0.4478
 4805SOL    HW118871   6.307   4.103   1.767 -1.3472 -0.6566 -0.2090
 4805SOL    HW218872   6.381   3.976   1.803  0.1009  0.5383  1.1738
 4806SOL     OW18873  10.327   8.738   3.554 -0.2836  0.1086  0.4784
 4806SOL    HW118874  10.368   8.700   3.476 -1.3107  0.4006 -0.2245
 4806SOL    HW218875  10.272   8.668   3.589  1.6497 -0.6801  2.1056
 4807SOL     OW18876   6.654   2.358   6.171  0.4113  0.3390  0.5232
 4807SOL    HW118877   6.629   2.309   6.092 -0.3125  2.1069 -0.3932
 4807SOL    HW218878   6.748   2.341   6.180  0.1054 -1.6397  0.5936
 4808SOL     OW18879   1.202  10.887   2.377 -0.4387  0.5559 -0.1159
 4808SOL    HW118880   1.147  10.907   2.453 -0.7383  1.6789 -0.6035
 4808SOL    HW218881   1.267  10.958   2.376  0.0711  0.0868 -0.4254
 4809SOL     OW18882   0.796   3.144   2.452  0.1550 -0.0033 -0.0332
 4809SOL    HW118883   0.756   3.210   2.394 -0.0341 -1.3323 -1.4753
 4809SOL    HW218884   0.890   3.154   2.438  0.1234 -0.0842 -0.3067
 4810SOL     OW18885   0.519   8.401   2.297  0.1567  0.0127 -0.1565
 4810SOL    HW118886   0.515   8.455   2.376  1.5435  1.7069 -1.1758
 4810SOL    HW218887   0.515   8.464   2.225 -0.9521 -1.4753 -1.4648
 4811SOL     OW18888   3.282   5.074   7.433 -0.0372 -0.3400  0.9439
 4811SOL    HW118889   3.255   5.014   7.364  1.3915  0.5381 -0.4368
 4811SOL    HW218890   3.200   5.108   7.469 -0.8196  0.2019 -1.2493
 4812SOL     OW18891   8.480   7.738   2.533 -0.5064  0.0357  0.2663
 4812SOL    HW118892   8.460   7.788   2.612 -0.1583 -0.3445  0.6059
 4812SOL    HW218893   8.542   7.671   2.563  1.8147  1.5681 -0.8368
 4813SOL     OW18894  10.206   6.560   5.247  0.6207 -0.6710 -0.3172
 4813SOL    HW118895  10.219   6.469   5.274  1.3015 -0.0244  1.7615
 4813SOL    HW218896  10.111   6.571   5.242  0.2735 -0.5935  3.2808
 4814SOL     OW18897   0.735   2.508   6.084  0.0144 -1.0636  0.3828
 4814SOL    HW118898   0.739   2.424   6.039  2.0544 -0.5866 -0.4510
 4814SOL    HW218899   0.781   2.568   6.026  0.5716  0.1243  1.9907
 4815SOL     OW18900  10.175  10.645   6.904  0.5352 -0.3208 -0.5226
 4815SOL    HW118901  10.146  10.665   6.815 -0.1384 -0.9722 -0.4642
 4815SOL    HW218902  10.270  10.640   6.898  0.4292 -1.6811 -1.5016
 4816SOL     OW18903   9.478   4.586   4.796 -0.0442  0.0348  0.0696
 4816SOL    HW118904   9.400   4.634   4.823 -0.9238 -0.2706 -1.7124
 4816SOL    HW218905   9.474   4.587   4.700  0.8543 -2.0171 -0.0569
 4817SOL     OW18906   5.885   2.487   4.427  0.5007  0.1140 -0.0590
 4817SOL    HW118907   5.860   2.518   4.514 -0.4306 -0.8392  0.0394
 4817SOL    HW218908   5.957   2.426   4.442  0.6222  0.2700 -0.0039
 4818SOL     OW18909   9.958  10.793   4.460  0.0109 -0.0834  0.2741
 4818SOL    HW118910   9.955  10.812   4.554 -0.7433 -0.7839  0.4027
 4818SOL    HW218911  10.021  10.721   4.453  1.5191  1.2002 -0.0047
 4819SOL     OW18912   9.018   0.978   5.577  0.0348 -0.1376  0.3891
 4819SOL    HW118913   9.092   0.917   5.584  0.8152  0.8833  1.8118
 4819SOL    HW218914   9.059   1.065   5.583 -1.0231  0.5704 -1.6917
 4820SOL     OW18915   1.500   6.189   9.815  0.0952  0.1131  0.4613
 4820SOL    HW118916   1.515   6.169   9.907 -1.6510  1.6296  1.1132
 4820SOL    HW218917   1.542   6.274   9.802  0.6854 -0.2745 -0.2765
 4821SOL     OW18918  10.757   2.396  10.655 -0.4355  0.1581 -0.5034
 4821SOL    HW118919  10.805   2.437  10.727  0.2911 -1.0125 -0.2834
 4821SOL    HW218920  10.716   2.468  10.608  0.3997  1.0717  0.1474
 4822SOL     OW18921  10.348   4.660   2.913 -0.0925 -0.1730  0.2075
 4822SOL    HW118922  10.285   4.732   2.914 -0.8849 -0.7881 -1.4120
 4822SOL    HW218923  10.413   4.686   2.847  2.5218  1.3229  3.1279
 4823SOL     OW18924   1.520   8.856   2.786 -0.3554  0.4114  0.0340
 4823SOL    HW118925   1.454   8.923   2.803 -0.5322  0.0068  1.0265
 4823SOL    HW218926   1.551   8.830   2.873  1.4010  0.8632 -0.4144
 4824SOL     OW18927   5.996   3.098   9.688 -0.0861 -0.1308 -0.2379
 4824SOL    HW118928   5.986   3.134   9.600  0.8717 -0.3748 -0.4595
 4824SOL    HW218929   6.001   3.175   9.745  0.7739  0.0859 -0.5789
 4825SOL     OW18930   5.809   9.290   0.869 -0.7406 -0.7623 -0.0425
 4825SOL    HW118931   5.791   9.241   0.949  0.3176 -0.6097  0.3001
 4825SOL    HW218932   5.904   9.290   0.862 -0.7949 -0.0747 -0.8641
 4826SOL     OW18933   9.649   7.779   7.888 -0.2517 -0.4790  0.0581
 4826SOL    HW118934   9.638   7.766   7.982 -0.4876  0.3138  0.1547
 4826SOL    HW218935   9.718   7.845   7.881 -1.2006  0.5253 -0.2576
 4827SOL     OW18936   1.958  10.506   2.627  0.4707  0.0514 -0.0112
 4827SOL    HW118937   1.964  10.488   2.721 -0.0110  0.0775  0.0275
 4827SOL    HW218938   2.049  10.510   2.598  0.6239 -0.0330  0.4394
 4828SOL     OW18939   6.007   9.755   1.353  0.3612  0.1756 -0.2334
 4828SOL    HW118940   5.934   9.736   1.294  0.2160  1.6303 -0.5689
 4828SOL    HW218941   5.970   9.812   1.421  1.2034  1.1246 -0.5333
 4829SOL     OW18942   5.041  10.240   2.470  0.1762 -0.0483 -0.7822
 4829SOL    HW118943   5.001  10.319   2.507  1.2583 -0.7851  2.3519
 4829SOL    HW218944   4.968  10.190   2.435 -0.8754  1.1572 -0.4194
 4830SOL     OW18945   6.125   9.475  10.353 -0.3635 -0.5411  0.0023
 4830SOL    HW118946   6.045   9.481  10.405 -1.5370 -0.0399 -1.7359
 4830SOL    HW218947   6.153   9.566  10.342 -1.9643 -0.2771 -2.7921
 4831SOL     OW18948   8.922   3.544   9.928 -0.1893 -0.2141  0.0824
 4831SOL    HW118949   8.934   3.638   9.946  0.7117 -0.2093 -0.5086
 4831SOL    HW218950   9.003   3.517   9.885 -0.9018 -1.0173 -0.7892
 4832SOL     OW18951  10.948   7.657   6.848 -0.1753  0.3397  0.2665
 4832SOL    HW118952  10.909   7.726   6.903 -1.2662  0.0080 -0.0573
 4832SOL    HW218953  10.926   7.576   6.894 -3.1505 -0.1525 -1.7084
 4833SOL     OW18954   2.092  10.160   3.486 -0.0486  0.1387  0.3208
 4833SOL    HW118955   2.025  10.227   3.473  0.7590  0.7573 -0.7696
 4833SOL    HW218956   2.044  10.086   3.524 -1.0250  1.1692  1.1745
 4834SOL     OW18957   9.538   0.738   0.209 -0.4617 -0.0969  0.1459
 4834SOL    HW118958   9.475   0.788   0.157 -0.0227  1.8566  1.4015
 4834SOL    HW218959   9.583   0.683   0.145 -1.0025  1.0794 -1.3014
 4835SOL     OW18960   0.797   8.082  10.944 -0.5855  0.4813 -0.0867
 4835SOL    HW118961   0.799   7.997  10.900 -0.4672  0.6320 -0.3728
 4835SOL    HW218962   0.704   8.107  10.945 -0.5810  0.5120 -0.3198
 4836SOL     OW18963   5.090   6.220   2.852 -0.3225 -0.1351  0.5122
 4836SOL    HW118964   5.091   6.134   2.812 -0.9139  0.0952 -0.0216
 4836SOL    HW218965   5.038   6.208   2.932 -0.9181 -0.1592  0.1337
 4837SOL     OW18966   2.181   0.280   3.499  0.4598 -0.5665  0.2638
 4837SOL    HW118967   2.185   0.283   3.594 -1.0326  0.8255  0.3255
 4837SOL    HW218968   2.257   0.228   3.473  2.7965  1.6717  2.0650
 4838SOL     OW18969   5.176   1.821   6.364  0.3049  0.1379 -0.4584
 4838SOL    HW118970   5.155   1.914   6.352  0.1874  0.4386  1.8092
 4838SOL    HW218971   5.236   1.819   6.438  0.4460 -1.5960 -0.5788
 4839SOL     OW18972   5.527   8.056   0.348  0.0659  0.0499  0.1954
 4839SOL    HW118973   5.473   8.132   0.326 -1.7778 -1.2956 -0.1936
 4839SOL    HW218974   5.502   8.033   0.438 -0.4457 -0.8806 -0.1600
 4840SOL     OW18975   9.837   2.535   1.202 -0.1395 -0.1423 -0.0850
 4840SOL    HW118976   9.794   2.575   1.278 -2.6512  0.0283 -1.4894
 4840SOL    HW218977   9.873   2.453   1.235 -2.2970 -0.6898  1.0689
 4841SOL     OW18978   2.352   5.818   8.901 -0.2493  0.3542  0.3868
 4841SOL    HW118979   2.365   5.847   8.811 -0.1874 -2.2655 -0.5485
 4841SOL    HW218980   2.270   5.768   8.898 -0.2260  0.2057  1.7698
 4842SOL     OW18981   6.727   7.789  10.107 -0.1108 -0.1326 -0.6469
 4842SOL    HW118982   6.685   7.829  10.031  0.3858 -0.8802 -1.3316
 4842SOL    HW218983   6.694   7.699  10.107 -1.5678  0.3368  1.1279
 4843SOL     OW18984   0.317   2.308   1.550 -0.4713  0.8737  0.4994
 4843SOL    HW118985   0.394   2.252   1.561 -0.6659  1.0338  3.3618
 4843SOL    HW218986   0.242   2.248   1.555 -0.6250  1.1460  2.1440
 4844SOL     OW18987   1.504   3.747   3.642 -0.3155  1.0219 -0.2858
 4844SOL    HW118988   1.544   3.779   3.562 -1.3016  0.4938 -1.0159
 4844SOL    HW218989   1.569   3.688   3.680  0.1466  1.2552 -0.7086
 4845SOL     OW18990   1.784   3.740   2.536  0.0057 -0.1828  0.6357
 4845SOL    HW118991   1.783   3.829   2.499  1.2326 -0.0171  0.9751
 4845SOL    HW218992   1.806   3.684   2.462  1.5804  0.0565  0.9027
 4846SOL     OW18993   3.427   8.441   3.697 -0.4292  0.1596  0.0834
 4846SOL    HW118994   3.486   8.420   3.625  0.8049 -0.0003  1.1166
 4846SOL    HW218995   3.455   8.527   3.727 -1.3627  0.5214 -0.0296
 4847SOL     OW18996   7.414   3.426   9.969  0.7598 -0.6712 -0.2305
 4847SOL    HW118997   7.321   3.404   9.973  0.5875 -0.1355 -1.0058
 4847SOL    HW218998   7.439   3.406   9.879  0.7279  1.6953 -0.8288
 4848SOL     OW18999   2.928   4.889   6.574 -0.3436 -0.2637 -0.1815
 4848SOL    HW119000   2.997   4.824   6.586  0.5026  0.4078 -1.1997
 4848SOL    HW219001   2.892   4.902   6.662  1.5600  0.1359  0.5969
 4849SOL     OW19002   7.487   5.600   4.760 -0.8055 -0.0377 -0.3876
 4849SOL    HW119003   7.453   5.680   4.722 -0.1879 -0.0849 -1.0661
 4849SOL    HW219004   7.530   5.555   4.687 -1.8702 -1.4055 -0.2319
 4850SOL     OW19005  10.160   5.082   3.615 -0.0731 -0.0108 -0.0131
 4850SOL    HW119006  10.100   5.156   3.617 -0.8608 -0.5940 -0.8748
 4850SOL    HW219007  10.105   5.007   3.591  1.5155 -0.0017 -4.5537
 4851SOL     OW19008   3.685   3.070   4.299 -0.1862 -0.1458  0.0374
 4851SOL    HW119009   3.666   2.979   4.321  0.3138 -0.0307  0.9866
 4851SOL    HW219010   3.600   3.108   4.278 -0.5055 -0.6032  0.4879
 4852SOL     OW19011   7.875   0.601   8.891 -0.0344 -0.6986  0.2744
 4852SOL    HW119012   7.849   0.675   8.836 -1.9106 -1.5621 -0.0734
 4852SOL    HW219013   7.914   0.641   8.968  1.2676  0.5709 -0.9647
 4853SOL     OW19014   6.114   0.455   6.673 -0.0763  0.0026 -0.0567
 4853SOL    HW119015   6.166   0.467   6.753 -0.8271 -0.0794  0.4521
 4853SOL    HW219016   6.027   0.430   6.704 -0.5320  0.5189 -0.8840
 4854SOL     OW19017   4.444   9.787   3.374  0.4427 -0.4997 -0.7479
 4854SOL    HW119018   4.370   9.775   3.433  0.8077  2.2589  0.4082
 4854SOL    HW219019   4.408   9.835   3.299  0.7427 -0.7212 -1.0418
 4855SOL     OW19020   3.188   5.237   3.887  0.4388  0.2956  0.7859
 4855SOL    HW119021   3.253   5.301   3.858  0.1189  0.7447  1.0509
 4855SOL    HW219022   3.210   5.158   3.838  2.4524 -0.2059  2.3386
 4856SOL     OW19023   7.628   1.804  10.957  0.3919 -0.5217  0.1618
 4856SOL    HW119024   7.718   1.837  10.952  0.5587 -0.5238  2.0769
 4856SOL    HW219025   7.573   1.879  10.933  0.8748  0.0540  0.7975
 4857SOL     OW19026   1.385   4.397   8.976  0.5406  0.3255 -0.4610
 4857SOL    HW119027   1.478   4.390   8.998  0.3142  0.2699  0.5703
 4857SOL    HW219028   1.343   4.329   9.030 -0.1043  0.4166 -0.8391
 4858SOL     OW19029   8.107  10.191   7.290 -0.1459  0.2690 -0.4162
 4858SOL    HW119030   8.122  10.116   7.348  0.0810  0.8774  0.3293
 4858SOL    HW219031   8.168  10.179   7.218 -0.1079 -0.2550 -0.2980
 4859SOL     OW19032  10.465   5.301   0.904 -0.0190 -0.5937 -0.0146
 4859SOL    HW119033  10.415   5.222   0.928  0.3572 -0.2128  2.2750
 4859SOL    HW219034  10.555   5.278   0.924  0.4016 -0.2841 -1.4257
 4860SOL     OW19035  10.245   1.767   0.023 -0.2147  0.6678  0.1085
 4860SOL    HW119036  10.151   1.779   0.037 -0.0619  1.5207  0.4321
 4860SOL    HW219037  10.277   1.728   0.104 -1.0832 -4.5647 -1.6476
 4861SOL     OW19038   1.017   1.955   6.361 -0.3267 -0.1192 -0.6328
 4861SOL    HW119039   1.038   2.007   6.439 -0.0713 -1.0165 -0.0850
 4861SOL    HW219040   0.951   2.006   6.315  2.1371  2.2215 -1.8029
 4862SOL     OW19041   0.288   4.537   4.750  0.0872  0.7301 -0.3499
 4862SOL    HW119042   0.257   4.605   4.691 -0.1749 -1.4201 -2.8824
 4862SOL    HW219043   0.251   4.456   4.714  2.4221 -1.0549  1.0191
 4863SOL     OW19044   4.158   9.179   5.736 -0.3002  0.2676  0.0384
 4863SOL    HW119045   4.166   9.213   5.825  0.7724  0.2326 -0.0380
 4863SOL    HW219046   4.248   9.165   5.707 -0.6190  0.5578 -1.1623
 4864SOL     OW19047   1.192   2.881   3.548  0.0099  0.1597  0.5166
 4864SOL    HW119048   1.126   2.937   3.590  0.1641  0.4966  0.3113
 4864SOL    HW219049   1.227   2.827   3.619 -0.0557  0.4068  0.7348
 4865SOL     OW19050   2.540   0.254   9.334 -0.4767  0.0544  0.2957
 4865SOL    HW119051   2.449   0.236   9.357 -0.7901  1.9546  0.7128
 4865SOL    HW219052   2.535   0.302   9.252 -0.0586  2.0455  1.3612
 4866SOL     OW19053   5.115   6.945   7.823  0.4288 -0.1016  0.3988
 4866SOL    HW119054   5.193   6.951   7.878 -0.3603  0.1017  1.5402
 4866SOL    HW219055   5.046   6.988   7.874  0.0103  1.5987 -1.4528
 4867SOL     OW19056   1.276   4.020  10.381 -0.0435 -0.0532 -0.0335
 4867SOL    HW119057   1.351   4.025  10.322 -0.8660 -1.0410 -1.2203
 4867SOL    HW219058   1.251   4.111  10.395 -1.6955  0.3051 -3.8105
 4868SOL     OW19059   6.860   0.869   4.120 -0.5169  0.5883 -0.0435
 4868SOL    HW119060   6.771   0.883   4.087 -0.1023  1.2712 -0.9188
 4868SOL    HW219061   6.894   0.957   4.135  0.5580  0.4235 -1.2722
 4869SOL     OW19062   1.307   0.820   2.349 -0.1983  0.5323  0.0516
 4869SOL    HW119063   1.393   0.846   2.381  0.0978  0.4256 -0.6499
 4869SOL    HW219064   1.290   0.736   2.391  0.0052  0.5907  0.2531
 4870SOL     OW19065   6.281   0.103   4.064 -0.3984 -0.4181  0.0994
 4870SOL    HW119066   6.266   0.108   4.158  0.0241 -0.2588  0.1595
 4870SOL    HW219067   6.353   0.163   4.047  0.7245 -1.7467 -0.0490
 4871SOL     OW19068   3.980   6.091   1.035  0.2954 -0.1623  0.2831
 4871SOL    HW119069   4.003   6.121   0.947  0.0748 -1.7483 -0.3466
 4871SOL    HW219070   3.894   6.130   1.052  1.1980  1.8223  0.6837
 4872SOL     OW19071   0.243   3.214   8.634 -0.1906 -0.3478 -0.6166
 4872SOL    HW119072   0.177   3.145   8.642  0.4207 -1.0616 -1.5706
 4872SOL    HW219073   0.304   3.182   8.568  0.1740  1.0610 -1.0069
 4873SOL     OW19074   3.895  10.008   4.743  0.3775 -0.2074  0.3546
 4873SOL    HW119075   3.988   9.989   4.732  0.9332  0.7740  2.6238
 4873SOL    HW219076   3.864   9.941   4.804 -0.3623 -0.4377 -0.2711
 4874SOL     OW19077   5.163   2.653   6.880  0.6634 -0.0572 -0.2249
 4874SOL    HW119078   5.114   2.696   6.810  1.8070  1.9722  0.1419
 4874SOL    HW219079   5.097   2.604   6.929 -0.7852  1.5321 -0.5087
 4875SOL     OW19080   1.831   4.308   0.833  0.5366  0.1765 -0.1800
 4875SOL    HW119081   1.770   4.257   0.780 -0.1684  1.3670 -0.5469
 4875SOL    HW219082   1.777   4.375   0.875  1.5249  1.0265 -0.2198
 4876SOL     OW19083   1.162   1.185   2.029 -0.6040  0.2003  0.1481
 4876SOL    HW119084   1.199   1.098   2.045  1.7501  1.1092  0.0551
 4876SOL    HW219085   1.126   1.180   1.941 -0.2295 -0.6130  0.0356
 4877SOL     OW19086   4.560  10.980   5.912 -0.1526  0.3230 -0.0722
 4877SOL    HW119087   4.537  11.069   5.938  0.8165 -0.1668  2.9073
 4877SOL    HW219088   4.483  10.948   5.866 -1.0263  2.2754 -0.0640
 4878SOL     OW19089   5.937   0.492   8.710 -0.1264 -0.2962  0.3694
 4878SOL    HW119090   6.010   0.461   8.656  0.8952  1.8301  0.4348
 4878SOL    HW219091   5.976   0.505   8.796 -0.1797  2.1725  0.0725
 4879SOL     OW19092   6.689   9.289   1.425 -0.3269  0.2128 -0.5697
 4879SOL    HW119093   6.752   9.223   1.454 -0.5188  1.0903  2.1280
 4879SOL    HW219094   6.738   9.370   1.421 -0.5538  0.3155 -1.9031
 4880SOL     OW19095   0.976   8.066   2.689  0.0589  0.2625  0.1648
 4880SOL    HW119096   1.041   8.122   2.647 -0.1185  0.3551  0.0146
 4880SOL    HW219097   1.015   7.979   2.687 -0.4755  0.0382 -1.3149
 4881SOL     OW19098   5.838   6.990   1.436 -0.0781  0.1250 -0.5107
 4881SOL    HW119099   5.776   7.034   1.495  0.0983  0.5564 -0.6390
 4881SOL    HW219100   5.808   7.015   1.349 -0.7646 -1.0825 -0.6467
 4882SOL     OW19101   0.831   4.328   9.175  0.1179  0.2378 -0.4182
 4882SOL    HW119102   0.861   4.419   9.172 -0.9398  0.6943  1.3446
 4882SOL    HW219103   0.744   4.331   9.136  0.2663 -0.1169 -0.7778
 4883SOL     OW19104   7.084   3.741   8.190  0.2534 -0.1950 -0.0864
 4883SOL    HW119105   7.090   3.761   8.284  0.4195  0.3845 -0.2156
 4883SOL    HW219106   6.992   3.757   8.168  0.3084  0.0880 -0.1123
 4884SOL     OW19107   2.219   0.281   0.012  0.3994 -0.0615  0.5065
 4884SOL    HW119108   2.180   0.230  -0.059  0.8009 -1.0659  0.9843
 4884SOL    HW219109   2.224   0.370  -0.022 -1.3707 -0.0974  0.0609
 4885SOL     OW19110   0.205   0.637   0.724  0.2189  0.1701 -0.0362
 4885SOL    HW119111   0.190   0.667   0.814 -0.7719  0.5728 -0.3166
 4885SOL    HW219112   0.283   0.582   0.729  0.0583  0.0305  1.1033
 4886SOL     OW19113   2.197   3.013   8.037 -0.6186  0.4454  0.1065
 4886SOL    HW119114   2.231   2.975   8.119 -0.7234 -1.8949 -0.8435
 4886SOL    HW219115   2.181   3.105   8.058  3.2602  0.9910  1.5447
 4887SOL     OW19116  10.546   9.220   4.856  0.0268  0.0645  0.5339
 4887SOL    HW119117  10.547   9.288   4.924 -3.0939 -0.4508  1.2320
 4887SOL    HW219118  10.598   9.149   4.893  1.6847  1.2491  0.6222
 4888SOL     OW19119   2.945   0.034   9.126 -0.2776  0.3036 -0.3890
 4888SOL    HW119120   2.975  -0.056   9.118  1.1616  0.6996  0.1665
 4888SOL    HW219121   2.892   0.034   9.206  0.4372  0.1067  0.1006
 4889SOL     OW19122   7.836   7.213   1.438 -0.3223  0.3155  0.2905
 4889SOL    HW119123   7.752   7.200   1.482 -0.7130  0.7634 -0.2939
 4889SOL    HW219124   7.812   7.237   1.348  0.4270  0.5924  0.1576
 4890SOL     OW19125   4.426   9.432   7.533 -0.2361  0.3676  0.3643
 4890SOL    HW119126   4.481   9.378   7.590 -1.0167 -1.2900 -0.4097
 4890SOL    HW219127   4.473   9.435   7.450 -0.3914  0.5503  0.2831
 4891SOL     OW19128   2.154   2.349  11.022 -0.0748  0.2081  0.9496
 4891SOL    HW119129   2.137   2.389  10.937 -1.3201 -1.1885  0.4817
 4891SOL    HW219130   2.099   2.270  11.023  1.8388 -1.2163  2.0067
 4892SOL     OW19131   9.603   9.036   2.063  0.9469 -0.2481 -0.1484
 4892SOL    HW119132   9.545   8.997   2.129  0.4219 -0.4192 -0.7043
 4892SOL    HW219133   9.669   9.083   2.114  0.8429 -0.8026  0.5089
 4893SOL     OW19134   9.831   8.882   1.605  0.2930 -0.2299  0.5270
 4893SOL    HW119135   9.790   8.955   1.651 -0.6091  0.7060 -1.6306
 4893SOL    HW219136   9.779   8.806   1.629 -1.5006  0.5989 -0.5434
 4894SOL     OW19137   1.528   1.270   3.295 -0.1079 -0.1269  0.5218
 4894SOL    HW119138   1.442   1.293   3.260  0.6631  0.0521 -1.3696
 4894SOL    HW219139   1.556   1.347   3.343 -0.0215  0.7330 -0.8645
 4895SOL     OW19140  10.293  10.323   8.011  0.3430  0.7014 -0.2493
 4895SOL    HW119141  10.370  10.313   7.955  0.1552  2.6273 -0.9637
 4895SOL    HW219142  10.227  10.267   7.970  0.5013  1.3414 -1.4600
 4896SOL     OW19143   1.395   4.700  10.861  0.3553 -0.1299 -0.3507
 4896SOL    HW119144   1.423   4.614  10.831 -0.0067 -0.0181 -1.0201
 4896SOL    HW219145   1.361   4.684  10.949  3.0295 -0.1585  0.7658
 4897SOL     OW19146   1.723   8.769   1.118  0.2125  0.2167 -0.4097
 4897SOL    HW119147   1.680   8.694   1.159 -2.2317  1.5699 -0.2999
 4897SOL    HW219148   1.812   8.767   1.152  0.1266 -2.3902 -0.1366
 4898SOL     OW19149   4.422   5.827   6.884  0.0204 -0.2078  0.4536
 4898SOL    HW119150   4.386   5.744   6.853 -0.0296  0.4299 -1.3146
 4898SOL    HW219151   4.354   5.865   6.939 -0.3422 -0.8913  0.4784
 4899SOL     OW19152   2.444   3.029   0.344  0.2288 -0.3142  0.4461
 4899SOL    HW119153   2.369   3.011   0.288  0.2802 -0.7529  0.5162
 4899SOL    HW219154   2.420   3.109   0.391 -0.2206 -0.4864  0.5158
 4900SOL     OW19155   5.963   1.396   6.621 -0.5867  0.0817 -0.3111
 4900SOL    HW119156   5.922   1.366   6.540  0.1337  1.5465 -1.2487
 4900SOL    HW219157   6.042   1.343   6.630 -0.1308  0.6070 -1.1289
 4901SOL     OW19158   0.062   0.241   3.243  0.0836 -0.0074  0.4791
 4901SOL    HW119159   0.058   0.318   3.301  1.5173 -1.2584  2.3442
 4901SOL    HW219160   0.022   0.171   3.293  2.0734 -1.3213  0.2994
 4902SOL     OW19161   4.041   3.057   4.452 -0.6680  0.4928 -0.3975
 4902SOL    HW119162   4.000   3.087   4.533  0.8548  2.4649 -0.2738
 4902SOL    HW219163   4.093   2.980   4.478  0.7430  1.7945  0.8086
 4903SOL     OW19164   7.052   4.940   2.199  0.1303 -0.1343  0.0340
 4903SOL    HW119165   7.126   4.991   2.233  0.8064  0.1953 -1.8595
 4903SOL    HW219166   7.016   4.897   2.277  1.1779  1.1248  1.2748
 4904SOL     OW19167   9.554   0.146   7.916  0.2539 -0.8036 -0.0941
 4904SOL    HW119168   9.532   0.234   7.886  0.3855 -0.4194  0.9213
 4904SOL    HW219169   9.478   0.093   7.892  0.6711 -0.6838 -1.8056
 4905SOL     OW19170   9.711   0.654   3.589  0.2987 -0.1505 -0.2307
 4905SOL    HW119171   9.629   0.659   3.637  0.5626  1.8536  0.0856
 4905SOL    HW219172   9.716   0.564   3.558 -0.6899 -1.0521  2.0675
 4906SOL     OW19173   5.319  11.055   3.995  0.1512 -0.2351  0.3066
 4906SOL    HW119174   5.393  11.038   4.054 -0.0118 -0.0448  0.5684
 4906SOL    HW219175   5.307  11.150   3.999  0.4278 -0.1682 -0.3878
 4907SOL     OW19176   5.791   8.404   7.105 -0.4765  0.4099 -0.2102
 4907SOL    HW119177   5.757   8.492   7.093  1.7256  1.0922 -1.9953
 4907SOL    HW219178   5.813   8.399   7.199 -0.4485  1.8189 -0.1272
 4908SOL     OW19179   3.414   8.774   3.534 -0.5101 -0.1108  0.1655
 4908SOL    HW119180   3.419   8.737   3.622 -2.3355  0.6313  0.6039
 4908SOL    HW219181   3.346   8.840   3.538 -0.5671  0.0304 -1.7895
 4909SOL     OW19182   9.938   3.062   1.995 -0.2858 -0.2373  0.1511
 4909SOL    HW119183   9.926   3.039   2.086 -0.7977  0.0168  0.1533
 4909SOL    HW219184  10.014   3.011   1.966  2.5903  2.6507  1.8177
 4910SOL     OW19185   4.632   9.038   2.684 -0.0595 -0.8576  0.0542
 4910SOL    HW119186   4.586   9.095   2.746  2.3440 -0.9197  2.0462
 4910SOL    HW219187   4.596   8.951   2.700 -0.3239 -0.6733  0.4817
 4911SOL     OW19188   3.930  10.857   3.792 -0.4911 -0.1549 -0.1638
 4911SOL    HW119189   3.907  10.789   3.855 -1.0002 -0.5863 -0.8060
 4911SOL    HW219190   3.850  10.872   3.742 -0.0221 -0.0078 -0.8801
 4912SOL     OW19191   4.097   9.536   5.664 -0.3516 -0.3435 -0.4326
 4912SOL    HW119192   4.112   9.449   5.700  0.9426 -0.3296 -0.8797
 4912SOL    HW219193   4.173   9.552   5.607  0.1331  1.6104  0.6676
 4913SOL     OW19194   3.012   6.752   3.167 -0.0529 -0.0840  0.0677
 4913SOL    HW119195   3.064   6.832   3.171  0.4679 -0.4423  0.6585
 4913SOL    HW219196   3.072   6.685   3.136  0.4002 -0.9049  2.4688
 4914SOL     OW19197   5.276   7.315   4.352 -0.5730  0.6361  0.2138
 4914SOL    HW119198   5.240   7.307   4.441 -1.0103 -1.0477 -0.0674
 4914SOL    HW219199   5.199   7.334   4.297 -0.4420  0.7718  0.0776
 4915SOL     OW19200   8.617   5.567   2.401 -0.7474  0.2919  0.0412
 4915SOL    HW119201   8.609   5.653   2.442 -1.3743 -0.3767  1.3732
 4915SOL    HW219202   8.595   5.582   2.309  0.2243  1.7436  0.0138
 4916SOL     OW19203   6.117   0.389   8.546  0.4132  0.4133 -0.2129
 4916SOL    HW119204   6.143   0.298   8.560 -0.0221  0.5974  2.0967
 4916SOL    HW219205   6.103   0.395   8.451  1.8117 -1.5274 -0.5952
 4917SOL     OW19206   5.974   4.716   8.350 -0.0747 -0.4644 -0.1526
 4917SOL    HW119207   5.936   4.796   8.315  0.5406 -0.4757 -0.8725
 4917SOL    HW219208   6.064   4.717   8.318 -0.1027 -1.5169 -0.2754
 4918SOL     OW19209   8.246   4.131   4.545 -0.8248 -0.1807 -0.2722
 4918SOL    HW119210   8.271   4.216   4.508  2.0524 -0.4249  0.8404
 4918SOL    HW219211   8.288   4.066   4.488 -0.3816 -0.7147  0.6363
 4919SOL     OW19212   6.689   7.928   8.539  0.0586 -0.1287  0.2033
 4919SOL    HW119213   6.769   7.884   8.512  0.9223  1.1402  0.6331
 4919SOL    HW219214   6.681   7.908   8.632  0.8738  1.2160  0.5825
 4920SOL     OW19215   9.814   3.577   9.401 -0.4960 -0.4330 -0.2197
 4920SOL    HW119216   9.862   3.654   9.371 -0.4128 -0.0796  0.7583
 4920SOL    HW219217   9.829   3.511   9.334 -0.2393  0.2828 -0.8777
 4921SOL     OW19218   3.684   2.600   8.484 -0.7542 -0.4899 -0.4419
 4921SOL    HW119219   3.616   2.667   8.483  0.2376  0.5949  1.3653
 4921SOL    HW219220   3.725   2.606   8.397 -0.9247  1.0033 -0.4399
 4922SOL     OW19221   2.490   6.514   7.184 -0.0368 -0.1353 -0.0607
 4922SOL    HW119222   2.415   6.470   7.143 -0.0581  0.7055 -0.9538
 4922SOL    HW219223   2.566   6.472   7.145 -0.0475 -0.1763 -0.0378
 4923SOL     OW19224   2.347  10.154   8.268  0.5455 -0.0076  0.2558
 4923SOL    HW119225   2.316  10.108   8.346  1.2286 -0.7765  0.0850
 4923SOL    HW219226   2.288  10.126   8.198  0.9218 -0.5848  0.1652
 4924SOL     OW19227  10.471   1.148   7.994 -0.2196  0.2611 -0.8219
 4924SOL    HW119228  10.446   1.070   7.944  0.8390  0.0140 -0.9963
 4924SOL    HW219229  10.421   1.141   8.075  0.6403 -1.1894 -0.3693
 4925SOL     OW19230   9.943   7.899   0.910 -0.4995 -0.4392 -0.4370
 4925SOL    HW119231  10.036   7.875   0.904 -0.9479 -2.2535 -0.5493
 4925SOL    HW219232   9.909   7.887   0.822 -1.0921 -0.9561 -0.1466
 4926SOL     OW19233   0.870   9.611   7.617  0.3131 -0.5219 -0.5999
 4926SOL    HW119234   0.797   9.656   7.660 -2.5252 -1.6873 -3.6996
 4926SOL    HW219235   0.870   9.523   7.655  0.8530 -0.2045  0.1553
 4927SOL     OW19236   1.612   1.932   8.756  0.7320  0.0841 -0.0502
 4927SOL    HW119237   1.593   1.893   8.670 -1.9337 -1.7714  1.2406
 4927SOL    HW219238   1.592   2.025   8.745 -0.9606 -0.3571 -1.1146
 4928SOL     OW19239   6.021   3.647   2.616  0.1705  0.4146 -0.0244
 4928SOL    HW119240   6.115   3.630   2.624 -0.0481 -0.3322  1.0704
 4928SOL    HW219241   5.998   3.692   2.697 -0.6296 -0.3950  0.1983
 4929SOL     OW19242   5.605   0.790   1.506 -0.1608 -0.3255  0.2854
 4929SOL    HW119243   5.571   0.856   1.445  1.4202  0.6894  0.4704
 4929SOL    HW219244   5.532   0.728   1.515 -1.6010  1.2154 -0.1176
 4930SOL     OW19245   6.985   3.200   4.115  0.0272  0.7459 -0.7436
 4930SOL    HW119246   6.913   3.137   4.124  0.9319 -0.2539 -0.3116
 4930SOL    HW219247   7.044   3.180   4.187  0.1757  2.3382 -0.3888
 4931SOL     OW19248   1.589   2.369   9.831  0.1979  0.2975 -0.0979
 4931SOL    HW119249   1.614   2.277   9.818  1.0214  0.4854  0.0552
 4931SOL    HW219250   1.575   2.377   9.925  0.7626  0.4690 -0.0223
 4932SOL     OW19251   8.120   2.746   9.563 -0.6404  0.9969  0.1579
 4932SOL    HW119252   8.123   2.752   9.467 -1.0980  1.5288  0.1751
 4932SOL    HW219253   8.029   2.722   9.582 -0.3722  0.1470  0.4256
 4933SOL     OW19254   2.891   6.359   3.963  0.1591  0.1217 -0.2645
 4933SOL    HW119255   2.980   6.383   3.986 -0.4837  1.6668  0.8469
 4933SOL    HW219256   2.871   6.284   4.019  0.4527  0.4107  0.2392
 4934SOL     OW19257   8.376   9.341   5.689  0.3261  0.2945 -0.2884
 4934SOL    HW119258   8.402   9.426   5.724  0.0932  0.2977 -0.1237
 4934SOL    HW219259   8.341   9.293   5.764 -3.8622  1.6710 -1.0697
 4935SOL     OW19260   3.991   0.055   4.399 -0.5908 -0.0755 -0.3704
 4935SOL    HW119261   3.923   0.120   4.415 -1.0152 -0.5423 -0.2330
 4935SOL    HW219262   3.976   0.025   4.310 -0.3273  0.0867 -0.4725
 4936SOL     OW19263   0.147  10.655   1.090 -0.2354  0.3635 -0.6077
 4936SOL    HW119264   0.058  10.670   1.060  0.3365  0.3283 -2.4045
 4936SOL    HW219265   0.192  10.738   1.075  0.3757 -0.0307 -0.9920
 4937SOL     OW19266   6.024   5.584   3.410  0.3624  0.7683 -0.0613
 4937SOL    HW119267   6.090   5.516   3.401  1.2506  1.6499 -0.4114
 4937SOL    HW219268   5.954   5.558   3.350 -0.3012 -0.9312  1.3737
 4938SOL     OW19269   0.031  10.043   2.849 -0.4460  0.0814 -0.2770
 4938SOL    HW119270  -0.053  10.088   2.845 -0.8484 -0.5523  0.7820
 4938SOL    HW219271   0.010   9.955   2.880  0.6127 -0.0672  0.0715
 4939SOL     OW19272   7.028   4.785   0.025  0.0048  0.2107 -0.5002
 4939SOL    HW119273   7.062   4.702  -0.008 -1.0760 -0.3885 -0.1166
 4939SOL    HW219274   6.946   4.763   0.069 -0.2945  1.4746 -0.3800
 4940SOL     OW19275   0.355   7.707   2.456 -0.0446 -0.1080 -0.2872
 4940SOL    HW119276   0.393   7.650   2.389 -1.0367 -0.6660 -0.3900
 4940SOL    HW219277   0.366   7.659   2.538 -1.2249 -0.6596 -0.4234
 4941SOL     OW19278   0.011   9.301   0.413 -0.3071  0.3534 -0.1121
 4941SOL    HW119279   0.017   9.232   0.479  0.7023 -1.5109 -2.0008
 4941SOL    HW219280   0.096   9.345   0.416  0.6829 -1.2881 -1.6286
 4942SOL     OW19281   2.621   8.238   3.799  0.6598  0.2118  0.0169
 4942SOL    HW119282   2.564   8.268   3.870 -1.4267  3.7915 -2.8128
 4942SOL    HW219283   2.710   8.251   3.831 -0.1452  0.0736  2.5036
 4943SOL     OW19284   0.648   0.306   3.751 -0.2244 -0.4882  0.1296
 4943SOL    HW119285   0.720   0.300   3.814 -0.5377 -1.1500  0.4256
 4943SOL    HW219286   0.604   0.222   3.756 -1.5228  0.1934  0.5381
 4944SOL     OW19287   2.699   3.181   2.653  0.0479 -0.0621 -0.0929
 4944SOL    HW119288   2.789   3.213   2.642  0.4545 -0.6217  1.4117
 4944SOL    HW219289   2.707   3.106   2.711 -1.3479 -0.4833 -0.3966
 4945SOL     OW19290   4.954   9.346   8.761 -0.4336  0.0454 -0.1124
 4945SOL    HW119291   4.862   9.344   8.734 -0.3675  0.3675 -0.3786
 4945SOL    HW219292   4.954   9.399   8.841 -0.4868 -0.0081 -0.0767
 4946SOL     OW19293   3.494   9.097   4.559 -0.1218 -0.3496 -0.1992
 4946SOL    HW119294   3.564   9.120   4.620  0.3930 -1.7541 -0.2202
 4946SOL    HW219295   3.539   9.055   4.485 -0.7918  0.7952 -1.2810
 4947SOL     OW19296   1.791   6.719   4.285  0.4110 -0.3538  0.0331
 4947SOL    HW119297   1.784   6.695   4.192 -1.2847 -0.5297  0.1769
 4947SOL    HW219298   1.708   6.691   4.323 -0.2141  2.5047  0.9742
 4948SOL     OW19299   3.118  10.337   0.074  0.1733 -0.1330  0.2559
 4948SOL    HW119300   3.092  10.346  -0.018  2.0978 -2.0552 -0.5668
 4948SOL    HW219301   3.203  10.293   0.071  0.3575 -0.1561  2.9820
 4949SOL     OW19302   6.940   3.381   6.806 -0.2291  0.0952 -0.2065
 4949SOL    HW119303   6.905   3.434   6.735  1.1069  0.7379 -0.4199
 4949SOL    HW219304   6.946   3.293   6.770  0.6238  0.4516 -0.9936
 4950SOL     OW19305   5.622  10.853   4.760  0.1752 -0.2332 -0.2520
 4950SOL    HW119306   5.676  10.901   4.823  0.9970 -1.3783 -0.0732
 4950SOL    HW219307   5.551  10.816   4.813 -0.1706  0.3289 -0.3097
 4951SOL     OW19308   5.237   0.047   4.363 -0.2177  0.6034  0.5351
 4951SOL    HW119309   5.331   0.064   4.353 -0.4492  1.4163 -0.4939
 4951SOL    HW219310   5.196   0.131   4.344 -1.2456 -0.2662 -1.3612
 4952SOL     OW19311   0.997  10.933   5.929 -0.4134  0.7901 -0.1194
 4952SOL    HW119312   0.998  10.839   5.950 -0.9430  0.8858  0.3614
 4952SOL    HW219313   1.061  10.942   5.858 -0.7306 -0.0156 -0.5202
 4953SOL     OW19314   4.907   3.095   5.335  0.1941  0.1909  0.3306
 4953SOL    HW119315   4.845   3.121   5.267 -0.1503  0.6218  0.7985
 4953SOL    HW219316   4.984   3.149   5.320  0.1652  0.2001  0.2122
 4954SOL     OW19317   9.439   7.750   7.021  0.2791  0.2726  0.4137
 4954SOL    HW119318   9.507   7.817   7.015  1.7100 -1.1300  0.1448
 4954SOL    HW219319   9.487   7.669   7.040 -1.3676 -0.7026  0.6115
 4955SOL     OW19320   6.436  11.029   3.055  0.2113  0.4311 -0.4451
 4955SOL    HW119321   6.391  10.972   3.117  1.0249 -0.6592 -0.8317
 4955SOL    HW219322   6.366  11.078   3.012 -0.3709  1.1762  1.2760
 4956SOL     OW19323   6.384   9.377   7.441 -0.6059 -0.4248  0.4961
 4956SOL    HW119324   6.372   9.325   7.520 -0.3575  0.8058  1.3640
 4956SOL    HW219325   6.345   9.462   7.461 -0.8745 -0.1989 -0.8382
 4957SOL     OW19326   4.072   1.162  10.938  0.0095 -0.4292  0.4368
 4957SOL    HW119327   4.045   1.129  10.853  0.0019  1.0452 -0.1643
 4957SOL    HW219328   4.166   1.177  10.929 -0.1773  0.7880  0.2829
 4958SOL     OW19329   7.633  10.941   8.031 -0.0057  0.2600 -0.0869
 4958SOL    HW119330   7.722  10.913   8.014  0.2270  0.7243  0.3482
 4958SOL    HW219331   7.610  10.997   7.956  0.1700  0.3708 -0.0577
 4959SOL     OW19332   5.723   1.955   8.875 -0.1984 -1.0623 -0.0774
 4959SOL    HW119333   5.804   1.992   8.840 -0.1091 -0.8027  0.3951
 4959SOL    HW219334   5.657   2.024   8.861 -0.6125 -1.7167 -1.5271
 4960SOL     OW19335   4.241   9.161   7.402  0.2537  0.4108  0.0563
 4960SOL    HW119336   4.309   9.096   7.386 -1.2482 -0.7735 -2.1446
 4960SOL    HW219337   4.278   9.243   7.369  1.0360  0.0226 -0.0572
 4961SOL     OW19338  10.106  11.039   1.924  0.2196  0.2856 -0.1715
 4961SOL    HW119339  10.124  11.131   1.907 -1.8400  0.8260  0.2013
 4961SOL    HW219340  10.171  10.991   1.873  1.9273  1.9308  0.3580
 4962SOL     OW19341   7.255   4.542   7.121  0.6718 -0.3274  0.5656
 4962SOL    HW119342   7.243   4.572   7.030  0.9196  0.7001  0.8562
 4962SOL    HW219343   7.185   4.585   7.169 -0.2750 -1.9044  0.6676
 4963SOL     OW19344   0.138   4.700   0.774 -0.0631 -0.4383  0.1555
 4963SOL    HW119345   0.125   4.681   0.867  2.5947 -1.9251  0.3075
 4963SOL    HW219346   0.081   4.639   0.728 -0.2345 -0.7574  0.7879
 4964SOL     OW19347   5.237   3.239   9.951  0.3894 -0.0868  0.4001
 4964SOL    HW119348   5.291   3.254   9.873 -0.4317  2.2370  0.2182
 4964SOL    HW219349   5.171   3.177   9.921  0.4469  0.2989 -0.5914
 4965SOL     OW19350   2.414   3.535   7.696 -0.6996 -0.7459  0.3428
 4965SOL    HW119351   2.423   3.624   7.730  0.8478 -1.9493  3.4501
 4965SOL    HW219352   2.369   3.486   7.765  0.4516 -2.8542 -0.2929
 4966SOL     OW19353   4.125   7.639   9.283 -0.0259  0.0170 -0.3628
 4966SOL    HW119354   4.191   7.707   9.284 -0.3038  0.2864 -0.2795
 4966SOL    HW219355   4.053   7.674   9.336 -0.1380 -0.3689 -0.2567
 4967SOL     OW19356   4.331   6.583   1.931 -0.8849 -0.6539  0.1260
 4967SOL    HW119357   4.416   6.627   1.936 -0.9140 -0.5017 -0.6183
 4967SOL    HW219358   4.342   6.504   1.984 -1.2448  0.8810  2.6068
 4968SOL     OW19359   0.557   8.737  10.442  0.0245 -0.1948  0.3503
 4968SOL    HW119360   0.609   8.704  10.369  0.0813 -1.1101  0.7834
 4968SOL    HW219361   0.522   8.658  10.483 -1.3262  0.3761  0.3466
 4969SOL     OW19362   3.137   1.855   1.354  0.2385 -0.4728  0.2143
 4969SOL    HW119363   3.089   1.851   1.437  0.6061 -0.7815  0.4170
 4969SOL    HW219364   3.228   1.841   1.378  0.4275  0.0475 -0.1785
 4970SOL     OW19365   3.135   7.012   6.741 -0.1111 -0.4784 -0.0198
 4970SOL    HW119366   3.103   6.965   6.664 -0.4586  0.1852 -0.2918
 4970SOL    HW219367   3.057   7.030   6.793 -0.2199  1.1689 -0.6997
 4971SOL     OW19368   0.125   9.521   3.492  0.5258  0.0292  0.5944
 4971SOL    HW119369   0.085   9.507   3.577 -1.7162 -1.7915 -0.6412
 4971SOL    HW219370   0.054   9.551   3.436  0.8562 -2.7417 -1.5662
 4972SOL     OW19371   6.015   6.380   1.407 -0.2309  0.1390 -0.2368
 4972SOL    HW119372   6.001   6.326   1.329  0.6951 -0.2439 -0.1510
 4972SOL    HW219373   6.018   6.317   1.479  1.3602  0.2233 -0.1913
 4973SOL     OW19374   7.334   1.714   4.060 -0.1060  0.3777  0.0246
 4973SOL    HW119375   7.327   1.645   4.126 -0.4295  0.7282  0.3630
 4973SOL    HW219376   7.425   1.711   4.031 -0.0842 -0.0996  0.1355
 4974SOL     OW19377   4.869   5.708   2.069 -0.3428  0.9770 -0.4372
 4974SOL    HW119378   4.842   5.699   2.161  3.7540  0.6355  0.9447
 4974SOL    HW219379   4.877   5.619   2.037  0.9524  0.9662 -0.1390
 4975SOL     OW19380   1.873   7.895   5.718 -0.0562 -0.1257  0.3488
 4975SOL    HW119381   1.824   7.921   5.640  0.7227  0.9460  0.2066
 4975SOL    HW219382   1.863   7.968   5.779  3.4035  1.3412 -0.6264
 4976SOL     OW19383  10.491   2.737   6.143  0.2917 -0.1963  0.7199
 4976SOL    HW119384  10.439   2.806   6.185  1.0197  1.8175 -1.4402
 4976SOL    HW219385  10.428   2.689   6.089  0.3137  1.1473 -0.5673
 4977SOL     OW19386   9.378   5.069  10.986 -0.1643  0.3150 -0.4369
 4977SOL    HW119387   9.325   5.066  10.906 -1.8823 -0.7818  0.6871
 4977SOL    HW219388   9.351   4.992  11.035  1.8207  0.2593  0.6346
 4978SOL     OW19389   1.206   7.087   2.568 -0.0017 -0.1321  0.5965
 4978SOL    HW119390   1.260   7.114   2.494  0.4582 -0.8479  0.6505
 4978SOL    HW219391   1.188   7.167   2.616 -1.1547  0.4874 -0.8324
 4979SOL     OW19392   5.290   8.826   2.690  0.2088 -0.3022  0.0118
 4979SOL    HW119393   5.342   8.761   2.644  1.7479  1.2163 -0.4996
 4979SOL    HW219394   5.322   8.910   2.658 -2.9952  0.7626 -0.7743
 4980SOL     OW19395   6.884   4.120   4.565 -0.0221 -0.4449  0.2306
 4980SOL    HW119396   6.830   4.192   4.598 -1.4083  0.0516 -2.8514
 4980SOL    HW219397   6.967   4.162   4.540 -0.0395 -0.3141  0.3884
 4981SOL     OW19398   3.251   7.478   4.605  0.1261  0.2024 -0.2590
 4981SOL    HW119399   3.191   7.501   4.533 -0.2603 -0.5503 -0.1827
 4981SOL    HW219400   3.253   7.383   4.605  2.3175  0.1827 -1.0678
 4982SOL     OW19401   4.502   2.519  10.405  0.0012 -0.1531 -0.0877
 4982SOL    HW119402   4.537   2.511  10.316 -0.5132  0.4843 -0.3553
 4982SOL    HW219403   4.462   2.606  10.408 -0.5826 -0.4277  0.5534
 4983SOL     OW19404   0.477   9.214   8.939 -0.1452  0.1058  0.4444
 4983SOL    HW119405   0.464   9.242   8.848 -0.0621 -0.7717  0.1449
 4983SOL    HW219406   0.413   9.265   8.989  0.2275  1.0431 -0.0168
 4984SOL     OW19407   9.176   2.046   2.296  0.9813 -0.5054 -0.2116
 4984SOL    HW119408   9.215   2.058   2.382 -0.2294  0.6088  0.2245
 4984SOL    HW219409   9.145   1.955   2.296  0.1402 -0.2439  0.9194
 4985SOL     OW19410   5.280   5.738   9.798  0.1639  0.5148 -0.4395
 4985SOL    HW119411   5.191   5.705   9.812  0.7003 -0.9822 -0.3446
 4985SOL    HW219412   5.288   5.813   9.857 -0.6810 -0.0125  0.3709
 4986SOL     OW19413  10.557   5.265   6.350  0.1598  0.2214 -0.2790
 4986SOL    HW119414  10.583   5.191   6.406  0.8875 -0.4499 -1.4493
 4986SOL    HW219415  10.492   5.228   6.291 -0.3142  0.8220 -0.1382
 4987SOL     OW19416   4.970   3.759   5.864  0.1470 -0.0443 -0.1074
 4987SOL    HW119417   5.048   3.739   5.915 -0.9706 -0.9969  1.2892
 4987SOL    HW219418   4.902   3.777   5.929 -1.3541 -1.4160 -1.1999
 4988SOL     OW19419   4.825   2.972   7.015  0.3386  0.4454 -0.1926
 4988SOL    HW119420   4.811   3.045   7.076 -1.9741 -0.7786  0.8649
 4988SOL    HW219421   4.884   2.913   7.063  2.4724  1.6673 -1.1755
 4989SOL     OW19422   8.425   0.683   9.242 -0.6320 -0.3193 -0.2478
 4989SOL    HW119423   8.515   0.651   9.232 -0.4823 -0.7439  2.0024
 4989SOL    HW219424   8.373   0.619   9.193  0.2123 -0.3052 -1.2287
 4990SOL     OW19425   1.275   7.600   9.342  0.2499  0.0943 -0.0798
 4990SOL    HW119426   1.188   7.566   9.320  0.2549  0.1964 -0.2519
 4990SOL    HW219427   1.303   7.546   9.417  0.4480 -0.5853 -0.6342
 4991SOL     OW19428   3.169   0.338   5.256 -0.0384 -0.0280 -0.0542
 4991SOL    HW119429   3.200   0.284   5.328 -1.3271  1.1022  1.3999
 4991SOL    HW219430   3.240   0.334   5.191  0.7707 -1.7584  0.8721
 4992SOL     OW19431   6.926   5.046   5.057 -0.2173  0.3830 -0.3581
 4992SOL    HW119432   7.017   5.018   5.057  0.1217  1.3722  1.0169
 4992SOL    HW219433   6.930   5.141   5.045 -0.9748  0.6299  1.1341
 4993SOL     OW19434   9.591   7.986  10.324 -0.1552 -0.3139  0.6020
 4993SOL    HW119435   9.556   7.921  10.262 -0.2202  0.1654  0.1307
 4993SOL    HW219436   9.641   7.934  10.386  0.5387 -0.7428 -0.2859
 4994SOL     OW19437   9.098   7.925   1.011 -0.0907  0.5767 -0.5597
 4994SOL    HW119438   9.126   7.932   0.920 -0.9437  0.9971 -0.8069
 4994SOL    HW219439   9.161   7.866   1.051  0.2366  0.2957 -1.4523
 4995SOL     OW19440   4.290   6.953   9.230  0.5378  0.2305 -0.1250
 4995SOL    HW119441   4.346   6.892   9.279  1.4567  0.7422 -0.5319
 4995SOL    HW219442   4.303   7.037   9.272  0.5392  0.4749 -0.6112
 4996SOL     OW19443   7.424   8.058   1.374 -0.8512 -0.5101  0.0095
 4996SOL    HW119444   7.362   8.119   1.335  2.0341  1.0133 -2.7057
 4996SOL    HW219445   7.498   8.113   1.401  0.6620 -2.4760  0.1303
 4997SOL     OW19446   4.733   1.265   4.461  0.1861  0.1748 -0.2993
 4997SOL    HW119447   4.653   1.224   4.428 -0.1229  0.8456 -0.4127
 4997SOL    HW219448   4.701   1.341   4.511  0.6970 -0.2136  0.6422
 4998SOL     OW19449   7.895   5.235   8.876 -0.0656 -0.1444 -0.4127
 4998SOL    HW119450   7.919   5.156   8.924  2.3041  0.1989 -0.9185
 4998SOL    HW219451   7.915   5.306   8.935  1.9339  0.2348 -1.4597
 4999SOL     OW19452  10.116   8.388   0.598  1.0493  0.1110 -0.3352
 4999SOL    HW119453  10.070   8.448   0.537 -0.0774 -0.5922 -0.2115
 4999SOL    HW219454  10.170   8.446   0.652 -1.0103  1.2135  0.6707
 5000SOL     OW19455   2.773   9.366   6.798  0.1064 -0.1176 -0.4728
 5000SOL    HW119456   2.843   9.361   6.734  0.4472 -2.1468 -0.0220
 5000SOL    HW219457   2.716   9.291   6.778 -0.9620  0.4580  0.2584
 5001SOL     OW19458   6.905   1.598   9.756  0.4330  0.2492  0.4747
 5001SOL    HW119459   6.982   1.651   9.736 -0.9501  1.9006 -0.7850
 5001SOL    HW219460   6.875   1.566   9.671  0.7359 -1.9500  1.1275
 5002SOL     OW19461   7.865   5.066   3.443 -0.5032 -0.2811  0.0300
 5002SOL    HW119462   7.828   5.147   3.475  0.1049  0.4975 -1.1617
 5002SOL    HW219463   7.794   5.023   3.395 -0.0889  0.9450 -1.7816
 5003SOL     OW19464   9.169   7.698   3.760 -0.2649  0.4268  0.4714
 5003SOL    HW119465   9.187   7.626   3.700 -0.8240 -0.0520  0.8661
 5003SOL    HW219466   9.120   7.657   3.832  0.1933  1.0279  1.1397
 5004SOL     OW19467   8.863   9.362   2.038 -0.4907 -0.5959  0.0683
 5004SOL    HW119468   8.944   9.328   2.000 -0.3975  0.4122 -0.6930
 5004SOL    HW219469   8.820   9.406   1.965 -0.1606  1.6931  1.1739
 5005SOL     OW19470   0.248   7.311   0.843 -0.3751  0.2964 -0.5122
 5005SOL    HW119471   0.203   7.229   0.863  0.0229  0.1059 -0.3844
 5005SOL    HW219472   0.237   7.322   0.749 -1.0073  0.4466 -0.4297
 5006SOL     OW19473   8.617   7.589   6.972  0.3986 -0.2542  1.1028
 5006SOL    HW119474   8.529   7.559   6.993  0.6330 -0.0218  2.5119
 5006SOL    HW219475   8.654   7.520   6.917 -0.1899 -1.0037  1.6384
 5007SOL     OW19476  10.531  10.987   9.735  0.3966 -0.5415 -0.5344
 5007SOL    HW119477  10.513  10.967   9.643 -1.7298 -2.3841  0.1973
 5007SOL    HW219478  10.532  11.083   9.739 -1.6421 -0.3872 -2.1389
 5008SOL     OW19479   1.256   5.321   2.830 -0.5885 -0.2610  0.6024
 5008SOL    HW119480   1.248   5.230   2.801 -0.9618 -0.2554  0.6855
 5008SOL    HW219481   1.231   5.319   2.922  0.9885 -0.3522  1.0632
 5009SOL     OW19482   0.298   5.623   2.215  0.3208 -0.5741 -0.4836
 5009SOL    HW119483   0.331   5.545   2.260 -1.1714 -1.6835 -1.2281
 5009SOL    HW219484   0.358   5.693   2.242  1.7868 -1.9823  0.1148
 5010SOL     OW19485   9.445   0.358   1.217 -0.0388  0.1425 -0.0018
 5010SOL    HW119486   9.463   0.440   1.171 -0.7630 -0.1380 -0.8100
 5010SOL    HW219487   9.357   0.368   1.252  0.4002  0.2456  1.1213
 5011SOL     OW19488   0.669   0.443   2.051 -0.3490  0.4627 -0.8476
 5011SOL    HW119489   0.616   0.493   2.114 -0.7216 -0.4933 -0.3823
 5011SOL    HW219490   0.611   0.373   2.021  0.7705 -0.9289  0.0696
 5012SOL     OW19491   7.747   0.970  10.131  0.0544  0.0681  0.6152
 5012SOL    HW119492   7.655   0.969  10.157  0.1834 -2.6078  1.2908
 5012SOL    HW219493   7.784   0.890  10.170  2.1046 -0.1658 -1.5403
 5013SOL     OW19494   5.511   8.325   2.994  0.8296  0.1911 -0.0407
 5013SOL    HW119495   5.450   8.359   2.928 -0.5788 -0.9679  0.5916
 5013SOL    HW219496   5.472   8.243   3.022  0.9427  0.9907  2.7946
 5014SOL     OW19497   2.065   9.964   8.852 -0.4224  0.3126  0.4028
 5014SOL    HW119498   1.989   9.936   8.904 -0.9651 -0.7884 -0.9237
 5014SOL    HW219499   2.107   9.882   8.825 -1.0593  0.7734 -2.1851
 5015SOL     OW19500  10.801   8.304   6.698 -0.6340  0.3069  0.7650
 5015SOL    HW119501  10.784   8.299   6.793 -0.0842  0.6021  0.8806
 5015SOL    HW219502  10.878   8.360   6.691 -1.3739  1.2788  0.0665
 5016SOL     OW19503  10.064   8.131   6.409  0.4436 -0.0140 -0.1666
 5016SOL    HW119504  10.080   8.225   6.395  1.1481  0.0338  0.8511
 5016SOL    HW219505  10.136   8.102   6.464  0.6104 -1.3305 -1.0314
 5017SOL     OW19506   7.562   1.976   5.682  0.1098 -0.7331  0.1975
 5017SOL    HW119507   7.575   1.970   5.776  1.0795 -0.2953  0.1104
 5017SOL    HW219508   7.640   2.023   5.650  0.4194 -1.9762 -0.9745
 5018SOL     OW19509   6.521   7.134   6.554  0.2581  0.1498 -0.3991
 5018SOL    HW119510   6.446   7.187   6.527  1.6486  2.1293 -0.6096
 5018SOL    HW219511   6.525   7.145   6.649 -0.8751 -1.6434 -0.0934
 5019SOL     OW19512   0.797   7.571   9.314  0.5229  0.0290  0.7525
 5019SOL    HW119513   0.753   7.500   9.361 -0.7015  1.6273  2.1561
 5019SOL    HW219514   0.726   7.621   9.275  1.2075  1.4836  1.3086
 5020SOL     OW19515   1.605   4.656   2.523 -0.1045 -1.0824  0.8749
 5020SOL    HW119516   1.682   4.656   2.466 -1.0217  0.6126 -0.4672
 5020SOL    HW219517   1.605   4.744   2.562 -2.1450 -0.4693 -0.3603
 5021SOL     OW19518   1.112   3.725   4.291 -0.1038  0.3031 -0.1828
 5021SOL    HW119519   1.115   3.797   4.228  0.1983 -0.6868 -1.3343
 5021SOL    HW219520   1.033   3.676   4.268 -1.5537  1.4346  1.9903
 5022SOL     OW19521   6.769   5.190   0.736  0.2418 -0.1007 -0.0421
 5022SOL    HW119522   6.681   5.168   0.705  0.7061 -0.0980 -1.4219
 5022SOL    HW219523   6.805   5.107   0.768  0.4888 -0.5667 -1.4461
 5023SOL     OW19524  11.002   9.499   1.850 -0.0566  0.1420  0.3682
 5023SOL    HW119525  11.037   9.526   1.934  1.3264 -0.8215  0.1347
 5023SOL    HW219526  10.958   9.577   1.816 -0.9566  0.4503  2.0977
 5024SOL     OW19527   0.199  10.431   3.555 -0.5704 -0.4834 -0.0831
 5024SOL    HW119528   0.242  10.434   3.470 -1.2777 -0.6119 -0.4538
 5024SOL    HW219529   0.190  10.338   3.574  3.2896 -0.6248  2.0823
 5025SOL     OW19530   9.338  10.563   4.016 -0.5667 -0.0771 -0.0491
 5025SOL    HW119531   9.287  10.535   3.940  0.3744  0.8135 -1.0390
 5025SOL    HW219532   9.384  10.641   3.986 -0.4668  0.5131  1.5703
 5026SOL     OW19533   7.844   1.096   5.864 -0.6575  0.5380  0.3888
 5026SOL    HW119534   7.770   1.042   5.891 -0.6508 -0.7736 -1.9482
 5026SOL    HW219535   7.806   1.165   5.810 -0.2533 -0.0478 -0.6903
 5027SOL     OW19536   7.505   3.258   7.685 -0.0117 -0.2519  0.3090
 5027SOL    HW119537   7.509   3.342   7.731  1.2378  0.3208 -0.7910
 5027SOL    HW219538   7.468   3.280   7.599  0.6977 -0.7507 -0.1315
 5028SOL     OW19539   5.752   6.149   9.525  0.2284  0.3330 -0.0210
 5028SOL    HW119540   5.754   6.145   9.620 -0.5966  0.8256  0.0201
 5028SOL    HW219541   5.739   6.242   9.504  0.6696  0.2714 -0.6229
 5029SOL     OW19542   3.761   0.635   2.938 -0.2189  0.3305  0.0880
 5029SOL    HW119543   3.801   0.581   2.871 -2.8996 -1.0095 -0.5766
 5029SOL    HW219544   3.702   0.693   2.890 -0.8211  0.6212  1.1384
 5030SOL     OW19545   8.963   3.976   6.222  0.3939  0.0987 -0.0629
 5030SOL    HW119546   8.890   4.037   6.237  1.4536  1.0419  1.5682
 5030SOL    HW219547   8.999   4.002   6.137  1.6445  2.7404  1.1549
 5031SOL     OW19548   5.852   9.449   5.751 -0.6766 -0.2971  0.3055
 5031SOL    HW119549   5.811   9.386   5.692  1.1002  0.2541 -1.6222
 5031SOL    HW219550   5.795   9.526   5.747 -0.4321 -0.1678 -0.9263
 5032SOL     OW19551   6.843   2.642   8.935  0.6258 -0.4731 -0.5142
 5032SOL    HW119552   6.883   2.723   8.902 -0.2372 -0.1990 -0.9052
 5032SOL    HW219553   6.837   2.655   9.029 -1.3894  0.8030 -0.7708
 5033SOL     OW19554   2.101   4.415   2.217  0.6517  0.8092 -0.0096
 5033SOL    HW119555   2.083   4.466   2.296  2.4789  0.2618  0.8005
 5033SOL    HW219556   2.113   4.325   2.248  0.3673  0.3974 -1.0496
 5034SOL     OW19557   8.768   8.194   9.564 -0.0660 -0.1467  0.6137
 5034SOL    HW119558   8.709   8.125   9.533 -0.6286  0.6909 -0.2561
 5034SOL    HW219559   8.848   8.148   9.588 -0.3405 -1.0878 -0.1698
 5035SOL     OW19560   9.592  10.653   3.197 -0.0723  0.0005  0.0713
 5035SOL    HW119561   9.540  10.585   3.155 -1.1648  1.0410 -0.2840
 5035SOL    HW219562   9.560  10.656   3.287  1.4733 -1.4209  0.7368
 5036SOL     OW19563  10.042  10.010  10.822 -0.1109 -0.2821  0.1388
 5036SOL    HW119564   9.994   9.990  10.741  1.2609 -1.5336 -0.3936
 5036SOL    HW219565   9.975  10.006  10.890 -0.5248 -3.9558 -0.2988
 5037SOL     OW19566   5.075   8.699  10.442  0.4397  0.4207  0.3768
 5037SOL    HW119567   5.018   8.688  10.366  0.6063 -0.6809  0.4027
 5037SOL    HW219568   5.164   8.688  10.408  0.4879 -0.6745  0.8218
 5038SOL     OW19569   1.192   0.872   8.695 -0.3756  0.1615 -0.8590
 5038SOL    HW119570   1.284   0.877   8.718 -0.1282  1.9042 -2.0359
 5038SOL    HW219571   1.146   0.900   8.774  0.1100 -0.3572 -0.3859
 5039SOL     OW19572  11.058   1.107   4.949  0.0908 -0.0102 -0.1605
 5039SOL    HW119573  10.970   1.118   4.913  0.5433  0.4353 -1.1831
 5039SOL    HW219574  11.075   1.013   4.943 -0.5600 -0.1801  0.6459
 5040SOL     OW19575   6.618   3.611  11.037  0.0940  0.1721 -0.2993
 5040SOL    HW119576   6.678   3.608  10.962  0.9183 -1.2511  0.3859
 5040SOL    HW219577   6.675   3.610  11.114 -0.7615 -2.2739  0.3961
 5041SOL     OW19578   5.305   7.142   9.976  0.6222 -0.2359 -0.0350
 5041SOL    HW119579   5.393   7.153  10.013  0.8576  0.7665 -0.8591
 5041SOL    HW219580   5.282   7.228   9.943 -0.4076 -0.6506 -0.4317
 5042SOL     OW19581   6.074   1.788  10.592  0.1553 -0.4303 -0.1016
 5042SOL    HW119582   6.035   1.725  10.653 -0.3781  0.4830  0.5399
 5042SOL    HW219583   6.130   1.843  10.647 -0.2070  0.3090 -0.4495
 5043SOL     OW19584   4.459   5.643   8.798 -0.0805  0.1306 -0.6951
 5043SOL    HW119585   4.450   5.717   8.738  0.1093  1.4186  0.8117
 5043SOL    HW219586   4.553   5.631   8.809 -0.1157  0.2817 -0.2095
 5044SOL     OW19587   6.645   3.529   2.354 -0.3538 -0.1319 -0.4363
 5044SOL    HW119588   6.552   3.507   2.359 -0.2402 -0.6561 -0.6391
 5044SOL    HW219589   6.655   3.601   2.416 -1.6916  2.6122 -3.1116
 5045SOL     OW19590   6.955   4.339   8.535  0.3968 -0.4436 -0.0690
 5045SOL    HW119591   6.935   4.396   8.609  0.6259 -1.2371  0.6130
 5045SOL    HW219592   7.041   4.368   8.505  0.1219  0.1525 -0.2966
 5046SOL     OW19593   3.049   2.995   9.139  0.3413 -0.0564 -0.0822
 5046SOL    HW119594   3.015   2.939   9.209  3.8884 -1.9831  0.3548
 5046SOL    HW219595   3.025   2.948   9.059  1.3210 -1.0369  0.1768
 5047SOL     OW19596   0.663   7.942   0.675  0.2712 -0.1623  0.2259
 5047SOL    HW119597   0.701   8.013   0.727 -2.2240  1.2962  0.2216
 5047SOL    HW219598   0.591   7.909   0.729 -0.4628 -0.6855 -1.0330
 5048SOL     OW19599   2.444   3.473   7.050 -0.2002 -0.1078  0.0184
 5048SOL    HW119600   2.437   3.435   6.963 -0.9943 -2.0925  0.8852
 5048SOL    HW219601   2.386   3.419   7.105 -0.1658  1.4321  1.6566
 5049SOL     OW19602   6.092   7.055   1.615 -0.8269 -0.6513 -0.4290
 5049SOL    HW119603   6.033   7.119   1.656  0.3439 -0.6520  1.3599
 5049SOL    HW219604   6.074   6.973   1.661  1.1766 -0.4460  0.8602
 5050SOL     OW19605   6.144   6.754   6.962  0.2312 -0.3413  0.2018
 5050SOL    HW119606   6.081   6.819   6.995 -0.1348  0.6137 -2.1904
 5050SOL    HW219607   6.217   6.758   7.025 -1.2194 -0.0486  1.9312
 5051SOL     OW19608   1.447   2.665   5.476  0.6694  0.2401 -0.0159
 5051SOL    HW119609   1.359   2.679   5.511  0.4014  0.6235 -0.8156
 5051SOL    HW219610   1.433   2.628   5.389  1.3365 -1.2735  0.4888
 5052SOL     OW19611   6.467   1.688   8.541 -0.8430  0.3252  0.1407
 5052SOL    HW119612   6.549   1.675   8.588 -1.4133 -1.0235  0.8312
 5052SOL    HW219613   6.482   1.766   8.487  0.3951  0.9259  1.2934
 5053SOL     OW19614   3.459  10.357   9.316 -0.0931  0.4427  0.3427
 5053SOL    HW119615   3.513  10.277   9.313  0.7962  0.8443  3.0100
 5053SOL    HW219616   3.504  10.413   9.379 -1.4477  2.5280 -0.4682
 5054SOL     OW19617   8.510   6.751   7.173 -0.1060 -0.0785  0.0919
 5054SOL    HW119618   8.597   6.736   7.210 -0.1491  1.7238  1.0451
 5054SOL    HW219619   8.472   6.820   7.228 -1.1077  1.0430 -1.8718
 5055SOL     OW19620   5.978   2.350   0.503  0.9856  0.1978 -0.2687
 5055SOL    HW119621   5.922   2.291   0.554  0.7821 -0.5636 -1.3241
 5055SOL    HW219622   6.017   2.409   0.568 -1.5311  1.1973  0.4489
 5056SOL     OW19623   0.621   6.775   3.006 -0.1682  0.0713 -0.1449
 5056SOL    HW119624   0.528   6.753   3.011 -0.1445 -0.4199 -1.3236
 5056SOL    HW219625   0.664   6.692   2.987  0.2928  0.5747 -1.4625
 5057SOL     OW19626   4.588   2.669   4.565 -0.0318  0.3059 -0.2429
 5057SOL    HW119627   4.561   2.742   4.509 -0.1001  1.2043  0.9005
 5057SOL    HW219628   4.509   2.647   4.616 -0.4774 -1.6766 -1.6837
 5058SOL     OW19629   3.001   5.018   5.915 -0.3359 -0.9457  0.0061
 5058SOL    HW119630   3.040   5.102   5.890  0.7104 -0.8234  1.8494
 5058SOL    HW219631   3.064   4.980   5.977 -2.3134 -1.5909  1.7256
 5059SOL     OW19632   8.916   5.779   1.634  0.4203  0.2615  0.0970
 5059SOL    HW119633   8.999   5.784   1.587  1.1750 -0.5780  1.2944
 5059SOL    HW219634   8.889   5.870   1.644  0.4239  0.4760 -1.6032
 5060SOL     OW19635   4.759   5.447   3.395  0.1854 -0.1119  0.5812
 5060SOL    HW119636   4.721   5.367   3.431 -0.4484 -0.2335 -0.3033
 5060SOL    HW219637   4.763   5.508   3.469 -2.8242  0.2865  0.5609
 5061SOL     OW19638   0.466   0.762   4.176  1.0220  0.0342  0.4633
 5061SOL    HW119639   0.558   0.735   4.174  1.7323  2.2244  0.9776
 5061SOL    HW219640   0.459   0.830   4.109 -0.7446 -1.3996 -0.9354
 5062SOL     OW19641   6.360  10.034   4.462  0.2642 -0.0053  0.2221
 5062SOL    HW119642   6.414   9.961   4.434 -1.6160 -1.2718 -0.2609
 5062SOL    HW219643   6.394  10.109   4.414  0.6687 -1.0576 -1.1957
 5063SOL     OW19644   6.217   1.444   9.058  0.4862  0.1748 -0.4049
 5063SOL    HW119645   6.280   1.480   8.996  2.5490  0.0984  1.5331
 5063SOL    HW219646   6.214   1.508   9.129  0.9727 -1.4188  1.1008
 5064SOL     OW19647   1.336  10.473   7.189  0.2687  0.3210 -0.1858
 5064SOL    HW119648   1.388  10.540   7.145  1.1245 -0.8352 -1.0109
 5064SOL    HW219649   1.279  10.438   7.120  0.7426 -0.6609 -0.1040
 5065SOL     OW19650   8.839   1.465   2.037  0.5355 -0.5848 -0.0373
 5065SOL    HW119651   8.885   1.545   2.014 -1.3464  0.4161 -0.5856
 5065SOL    HW219652   8.859   1.404   1.966  0.7119 -0.0529 -0.4474
 5066SOL     OW19653   5.812   1.109   8.347  0.2736  0.5849  0.1473
 5066SOL    HW119654   5.835   1.199   8.322 -1.0053  0.5154 -1.4145
 5066SOL    HW219655   5.717   1.105   8.335  0.1595 -0.6687  1.2894
 5067SOL     OW19656   4.453   8.466   4.239 -0.1046 -0.5386 -0.2959
 5067SOL    HW119657   4.390   8.526   4.200 -1.2981 -0.2723  1.9094
 5067SOL    HW219658   4.403   8.419   4.306  1.2950 -2.5614 -0.5834
 5068SOL     OW19659   3.354  11.068   6.209  0.2696  0.0418 -1.1253
 5068SOL    HW119660   3.294  11.040   6.277 -0.3437 -1.4894 -2.2387
 5068SOL    HW219661   3.396  11.146   6.245  0.8299 -1.3462  1.4736
 5069SOL     OW19662  10.274   1.337   0.205  0.1168 -0.3393  0.4768
 5069SOL    HW119663  10.220   1.265   0.173  0.0924 -0.8166  1.5596
 5069SOL    HW219664  10.261   1.407   0.140 -2.0551 -0.3286  0.8268
 5070SOL     OW19665   9.840   1.375   5.634 -0.3780 -0.0183 -0.1143
 5070SOL    HW119666   9.921   1.338   5.669 -0.4963 -0.3254 -0.1632
 5070SOL    HW219667   9.863   1.465   5.613 -0.5382  0.4515  1.5709
 5071SOL     OW19668  10.565   7.390   6.434  0.0365 -0.0011  0.2301
 5071SOL    HW119669  10.619   7.386   6.355 -0.9491  0.0339 -0.4648
 5071SOL    HW219670  10.475   7.392   6.401 -0.3843  0.1599  1.3540
 5072SOL     OW19671  10.223   0.632   8.194  0.4889 -0.0388  0.4781
 5072SOL    HW119672  10.162   0.583   8.139  1.5199 -2.1164  1.0887
 5072SOL    HW219673  10.228   0.718   8.153 -1.0497 -0.5600 -0.9173
 5073SOL     OW19674   6.582   0.410   6.002  0.1708  0.5589  0.3014
 5073SOL    HW119675   6.504   0.355   5.991  1.0947 -0.7132 -0.1137
 5073SOL    HW219676   6.611   0.391   6.091  1.2441 -0.6801 -0.2855
 5074SOL     OW19677   4.669   5.182   9.744 -0.4220  0.0917  0.3882
 5074SOL    HW119678   4.743   5.157   9.800 -0.1060  1.5136  0.6479
 5074SOL    HW219679   4.710   5.207   9.662 -0.3618  2.7853  1.1577
 5075SOL     OW19680   9.030   3.106   5.291 -0.2319 -0.7330  0.0927
 5075SOL    HW119681   8.976   3.144   5.221  1.2337 -0.2128 -0.8176
 5075SOL    HW219682   9.052   3.180   5.347 -0.5729 -0.9686  0.5405
 5076SOL     OW19683   8.211   3.868   6.657 -0.2191  0.0172 -0.3106
 5076SOL    HW119684   8.305   3.855   6.639 -0.3621 -1.1836 -0.3035
 5076SOL    HW219685   8.208   3.927   6.732  0.5225  0.3573 -0.5387
 5077SOL     OW19686  10.949   7.621   6.339  0.1063  0.1391 -0.0803
 5077SOL    HW119687  11.010   7.670   6.283  0.0296 -0.4656 -0.7049
 5077SOL    HW219688  11.005   7.559   6.385 -0.0679 -0.6041 -0.8608
 5078SOL     OW19689   7.691   6.783  10.541  0.0399  0.0049  0.1660
 5078SOL    HW119690   7.673   6.874  10.516  0.6922 -0.2215 -1.1973
 5078SOL    HW219691   7.695   6.736  10.458 -0.2148 -1.2675  0.8549
 5079SOL     OW19692   0.112   5.479   5.108  0.1786 -0.0918 -0.4587
 5079SOL    HW119693   0.136   5.543   5.175  0.8361 -1.0009  0.2164
 5079SOL    HW219694   0.184   5.483   5.045 -0.3409  0.6218 -1.0170
 5080SOL     OW19695   7.460   8.539   0.817  0.3250  0.0498  0.1968
 5080SOL    HW119696   7.397   8.524   0.887  0.9498 -0.3346  0.6878
 5080SOL    HW219697   7.544   8.548   0.862  0.8623 -1.0357 -0.5602
 5081SOL     OW19698   3.832   8.552   2.424 -0.1140  0.8082  0.4086
 5081SOL    HW119699   3.858   8.476   2.476 -3.0298  0.4004  1.4316
 5081SOL    HW219700   3.794   8.515   2.345 -0.4682  1.2498  0.3693
 5082SOL     OW19701  10.166  10.420   9.266  0.5870  0.0206 -0.2421
 5082SOL    HW119702  10.246  10.412   9.317 -0.8391 -0.8150  2.0056
 5082SOL    HW219703  10.119  10.338   9.281  0.2299 -0.4706 -3.3005
 5083SOL     OW19704   5.975   8.904  11.011 -0.6401  0.4200  0.2653
 5083SOL    HW119705   5.939   8.927  10.925 -1.6283 -1.1005  0.2306
 5083SOL    HW219706   5.918   8.949  11.073 -2.5371 -1.7317  0.1986
 5084SOL     OW19707   7.157   1.838   6.195  0.1957 -0.4296  0.1255
 5084SOL    HW119708   7.153   1.774   6.124 -0.4938 -1.1207  0.7733
 5084SOL    HW219709   7.215   1.797   6.260  0.4823  0.0145  0.1546
 5085SOL     OW19710   8.565   3.825   7.458  0.4958 -0.1246  0.0270
 5085SOL    HW119711   8.658   3.814   7.437  0.9185  0.8750  1.2739
 5085SOL    HW219712   8.564   3.868   7.543 -1.1256 -0.2639  0.1160
 5086SOL     OW19713   9.022   0.021  10.199  0.3669  0.2269  0.4982
 5086SOL    HW119714   9.053   0.075  10.126 -0.0477  0.2111  0.3058
 5086SOL    HW219715   9.052  -0.067  10.179 -1.4171 -0.1757 -0.6939
 5087SOL     OW19716   9.276   1.655   1.482 -0.0008  0.6819  0.5386
 5087SOL    HW119717   9.183   1.637   1.495 -0.7754  2.3058 -2.0485
 5087SOL    HW219718   9.297   1.619   1.396  1.8612  0.1153  1.1713
 5088SOL     OW19719   5.671   8.148   3.494  0.5527  0.1853 -0.1686
 5088SOL    HW119720   5.717   8.135   3.577  1.2977  2.4394 -0.1756
 5088SOL    HW219721   5.739   8.173   3.432 -0.2862  0.7085 -0.9088
 5089SOL     OW19722   0.554   1.489   2.208  0.1716 -0.2500 -0.2311
 5089SOL    HW119723   0.631   1.521   2.162 -0.4777  0.2472 -1.0047
 5089SOL    HW219724   0.585   1.416   2.261  1.0802 -0.3349 -0.8738
 5090SOL     OW19725   1.458   1.776   7.529  0.2453 -0.4642  0.2624
 5090SOL    HW119726   1.548   1.749   7.547  0.1079 -0.8900  0.3178
 5090SOL    HW219727   1.412   1.695   7.512  0.0749 -0.1799 -0.7235
 5091SOL     OW19728   3.184   6.301   8.394  0.5543 -0.3089 -0.1530
 5091SOL    HW119729   3.090   6.306   8.373  0.6448 -1.1774 -0.8443
 5091SOL    HW219730   3.222   6.379   8.355  0.5204 -1.2672 -2.3012
 5092SOL     OW19731  10.862   5.308   1.791  0.7177  0.0934  0.3880
 5092SOL    HW119732  10.823   5.383   1.746 -0.5568  2.2639  4.6184
 5092SOL    HW219733  10.953   5.333   1.805  0.8362 -0.1080 -0.0029
 5093SOL     OW19734   2.729   4.028  10.010 -0.1759  0.3662 -0.0675
 5093SOL    HW119735   2.809   3.994   9.969 -0.6557 -2.2016  0.9351
 5093SOL    HW219736   2.664   3.960   9.996 -1.1194  0.6543  2.4560
 5094SOL     OW19737  10.755   8.902  10.102 -0.4467  0.4197 -0.9505
 5094SOL    HW119738  10.697   8.947  10.041 -2.6828 -0.1455  0.6162
 5094SOL    HW219739  10.765   8.814  10.064 -0.9844  0.3919 -1.0436
 5095SOL     OW19740   3.311  10.671   7.391  0.6258 -0.4799 -0.0731
 5095SOL    HW119741   3.335  10.756   7.353  0.0033 -0.0323  0.4961
 5095SOL    HW219742   3.296  10.614   7.316  1.3505 -0.1771 -0.4591
 5096SOL     OW19743   7.340   3.820   5.199 -0.2701 -0.2791 -0.0519
 5096SOL    HW119744   7.279   3.751   5.226 -1.0305  0.2928 -0.2807
 5096SOL    HW219745   7.426   3.787   5.225 -0.7352 -0.8156  0.8554
 5097SOL     OW19746   0.244   4.247   7.609 -0.4029 -0.8638 -0.2261
 5097SOL    HW119747   0.241   4.157   7.643 -0.8064 -0.9057 -0.3606
 5097SOL    HW219748   0.273   4.236   7.518 -0.7724 -0.8896 -0.3418
 5098SOL     OW19749   7.383   0.100   2.980 -0.1019  0.1048 -0.7693
 5098SOL    HW119750   7.404   0.182   3.024 -1.4934 -0.2326  0.6363
 5098SOL    HW219751   7.289   0.105   2.962  0.1540 -0.3924 -2.4390
 5099SOL     OW19752   0.791   2.982   4.321 -0.5797 -0.5284 -0.1136
 5099SOL    HW119753   0.734   3.045   4.278 -0.3611 -1.6070 -2.0855
 5099SOL    HW219754   0.751   2.897   4.304  1.3783 -1.2986 -1.2928
 5100SOL     OW19755   6.241   7.679   4.998 -0.1948  0.0799 -0.0498
 5100SOL    HW119756   6.291   7.690   4.916 -0.0017  0.1944  0.0834
 5100SOL    HW219757   6.268   7.752   5.052 -1.0033  0.5119 -0.2209
 5101SOL     OW19758   7.861   1.155   8.916  0.5520 -0.1946 -0.0738
 5101SOL    HW119759   7.869   1.242   8.956  0.4989 -0.2178 -0.0131
 5101SOL    HW219760   7.883   1.094   8.987 -2.1986 -0.3736  0.7445
 5102SOL     OW19761   2.391   6.341   3.476  0.2980  0.1911  0.8199
 5102SOL    HW119762   2.455   6.275   3.503  0.7688  0.6734  0.8875
 5102SOL    HW219763   2.417   6.420   3.523  1.3055  1.1345 -1.1916
 5103SOL     OW19764   5.530   9.632   2.717 -0.2976  0.2055 -0.0865
 5103SOL    HW119765   5.531   9.554   2.663 -0.3896  1.1831 -1.5674
 5103SOL    HW219766   5.438   9.643   2.741 -0.1878 -0.4918  0.6849
 5104SOL     OW19767   6.764   4.083   9.715  0.2754 -0.1965 -0.1618
 5104SOL    HW119768   6.710   4.036   9.778  0.2764 -0.7377 -0.5586
 5104SOL    HW219769   6.842   4.028   9.704  2.2431  1.7906  2.4221
 5105SOL     OW19770   0.714   4.031   8.478  0.0378  0.0819  0.0428
 5105SOL    HW119771   0.716   3.951   8.426 -1.6654  0.2107 -0.2566
 5105SOL    HW219772   0.807   4.053   8.491  0.5166 -1.2561 -0.8860
 5106SOL     OW19773  10.999   8.264   4.496  0.3858 -1.0026  0.7212
 5106SOL    HW119774  11.011   8.328   4.426 -0.1988  1.1312  2.4562
 5106SOL    HW219775  10.958   8.189   4.453 -2.1486  1.1122 -0.8944
 5107SOL     OW19776   8.094   6.963   3.073 -0.7629 -0.2091  0.5358
 5107SOL    HW119777   8.158   6.931   3.008 -0.2131 -0.7055  1.3052
 5107SOL    HW219778   8.136   6.946   3.157 -1.3647  0.6687  1.0183
 5108SOL     OW19779   5.969   6.939   3.638  0.2000  0.0170 -0.0264
 5108SOL    HW119780   5.995   7.031   3.632  0.3355 -0.0844 -1.2438
 5108SOL    HW219781   6.052   6.891   3.647  0.0490  0.0975  2.1274
 5109SOL     OW19782   8.990   2.805   0.280 -0.2881  0.5634 -0.2905
 5109SOL    HW119783   8.897   2.815   0.298  0.0304  0.3623  1.7900
 5109SOL    HW219784   9.023   2.751   0.352  0.9606 -1.7994 -2.4694
 5110SOL     OW19785   5.453   4.323   7.666  0.3571  0.0664 -0.0656
 5110SOL    HW119786   5.479   4.298   7.754  1.5496 -2.5025 -1.0173
 5110SOL    HW219787   5.360   4.345   7.673 -0.2078 -2.3993  1.5002
 5111SOL     OW19788  10.222   7.088   0.895 -0.4202 -0.2285  0.2285
 5111SOL    HW119789  10.158   7.065   0.829 -0.6956  0.8181  0.1075
 5111SOL    HW219790  10.306   7.085   0.849 -0.2293 -2.5580  0.6273
 5112SOL     OW19791  10.999   0.722   0.866  0.4091 -0.0261  0.1507
 5112SOL    HW119792  11.070   0.663   0.841  1.5847  2.1087 -2.0183
 5112SOL    HW219793  11.005   0.728   0.962  1.6425 -1.6576  0.2203
 5113SOL     OW19794   5.387   4.787   9.465 -0.2573  0.3122 -0.0376
 5113SOL    HW119795   5.470   4.800   9.511  0.7424 -1.1605 -1.3289
 5113SOL    HW219796   5.338   4.868   9.481  2.6199  2.5903 -1.6420
 5114SOL     OW19797   7.615   7.673   1.474  0.4706  0.4706  0.7033
 5114SOL    HW119798   7.582   7.715   1.554  0.9553 -0.5067  1.4474
 5114SOL    HW219799   7.557   7.704   1.405 -1.2032 -0.1760  1.7523
 5115SOL     OW19800   1.327   1.211   4.645  0.4589 -0.2115  0.0295
 5115SOL    HW119801   1.348   1.147   4.577  0.0164 -0.3316  0.0079
 5115SOL    HW219802   1.274   1.164   4.708  0.3909  0.0535  0.1723
 5116SOL     OW19803  10.868   3.776   6.525 -0.2136  0.2790  0.1335
 5116SOL    HW119804  10.870   3.797   6.618 -0.3982 -0.3823  0.2943
 5116SOL    HW219805  10.876   3.861   6.481 -1.1479  0.7118  0.7533
 5117SOL     OW19806   1.196   5.289   3.091 -0.0417 -0.2253  0.2724
 5117SOL    HW119807   1.182   5.199   3.120 -0.0928 -0.6329 -0.9838
 5117SOL    HW219808   1.251   5.327   3.160 -2.7289 -0.1595  2.5921
 5118SOL     OW19809   1.800   2.047   9.021 -0.1887 -0.0286  0.0384
 5118SOL    HW119810   1.772   1.956   9.009 -1.1152  0.3429 -0.8318
 5118SOL    HW219811   1.719   2.097   9.014  0.0154  0.7394  2.5001
 5119SOL     OW19812   7.150   0.467   0.237 -0.5687 -0.4017  0.6809
 5119SOL    HW119813   7.216   0.399   0.224 -0.5834  0.0073 -2.2829
 5119SOL    HW219814   7.086   0.452   0.168 -0.4985  2.6209 -0.2008
 5120SOL     OW19815   9.857   6.773   6.640 -0.2870 -0.0161 -0.4411
 5120SOL    HW119816   9.780   6.793   6.586 -0.3300  0.6262 -0.1516
 5120SOL    HW219817   9.825   6.708   6.704 -0.3830 -0.3384 -0.8107
 5121SOL     OW19818   4.792   3.255   1.080  0.3446  0.5126 -0.4481
 5121SOL    HW119819   4.750   3.207   1.008  2.6080  1.8559 -2.8308
 5121SOL    HW219820   4.856   3.193   1.116 -0.7658 -0.1499  0.4554
 5122SOL     OW19821   8.591   8.761   1.011  0.5084  0.5067  0.0707
 5122SOL    HW119822   8.687   8.764   1.007  0.7928 -1.9723  1.9755
 5122SOL    HW219823   8.571   8.667   1.016 -1.9023  1.0029  1.2962
 5123SOL     OW19824   5.352   5.091   4.108 -0.1697 -0.2451 -0.3344
 5123SOL    HW119825   5.428   5.060   4.157  0.3294  0.9479 -0.3069
 5123SOL    HW219826   5.310   5.153   4.167  0.8608  1.7923 -1.6263
 5124SOL     OW19827   2.999   4.187   7.763 -0.6077  0.2239 -0.0158
 5124SOL    HW119828   3.010   4.272   7.804  0.6914 -0.8498  2.0062
 5124SOL    HW219829   3.083   4.168   7.721 -0.3698 -0.6674  0.8206
 5125SOL     OW19830   2.544  10.260   5.754  0.4789 -0.0296 -0.2273
 5125SOL    HW119831   2.478  10.305   5.702  0.5634 -0.4926 -0.7413
 5125SOL    HW219832   2.617  10.322   5.758 -0.0215  0.5276  0.4371
 5126SOL     OW19833   6.030   1.173   6.927 -0.0789 -0.2940 -0.0227
 5126SOL    HW119834   6.048   1.245   6.867  2.3793 -1.3030 -0.6184
 5126SOL    HW219835   5.951   1.132   6.892  0.5885 -0.0910 -1.8593
 5127SOL     OW19836   3.823  10.306   6.372 -0.1381 -0.3337 -0.0644
 5127SOL    HW119837   3.904  10.309   6.424 -0.5012 -1.2336  0.5672
 5127SOL    HW219838   3.763  10.254   6.424 -0.5220 -1.2788 -1.4059
 5128SOL     OW19839   1.516   2.285   6.915  0.0579 -0.3114 -0.4966
 5128SOL    HW119840   1.561   2.367   6.897  1.1249 -0.9251 -0.7318
 5128SOL    HW219841   1.534   2.267   7.007  0.0237 -0.3987 -0.5061
 5129SOL     OW19842   6.052   2.701   7.066  0.1959  0.4313 -0.6751
 5129SOL    HW119843   6.131   2.752   7.052 -0.7001  2.8065  1.9826
 5129SOL    HW219844   5.989   2.737   7.003  0.8896 -0.8808 -2.1966
 5130SOL     OW19845   7.107   8.331   9.989  0.1591 -0.2951 -0.4459
 5130SOL    HW119846   7.057   8.260   9.949  0.0572 -0.8808  0.6616
 5130SOL    HW219847   7.192   8.292  10.009  0.2600  0.0269 -0.2331
 5131SOL     OW19848   3.753   5.436  10.552 -0.0124  0.1142  0.1413
 5131SOL    HW119849   3.725   5.495  10.483 -0.9522  0.1941  0.5825
 5131SOL    HW219850   3.796   5.493  10.616  0.3942  0.1069 -0.1151
 5132SOL     OW19851   3.806   1.222   3.658  0.2807  0.0256  0.6110
 5132SOL    HW119852   3.711   1.232   3.666  0.0048 -2.6958  1.7543
 5132SOL    HW219853   3.818   1.157   3.589  1.0999 -1.6988  2.2665
 5133SOL     OW19854   4.312   8.891   1.552  0.2370  0.0465  0.3230
 5133SOL    HW119855   4.302   8.795   1.550  0.3900 -0.0305  1.9574
 5133SOL    HW219856   4.339   8.914   1.463  2.3030 -1.6928  0.4264
 5134SOL     OW19857   3.683   3.361   7.342 -0.3226  0.4766  0.0620
 5134SOL    HW119858   3.714   3.425   7.279 -3.0230  0.8468 -1.0370
 5134SOL    HW219859   3.634   3.297   7.290  0.3298 -1.2234  1.4041
 5135SOL     OW19860   2.784   2.291   2.756 -0.4548 -0.3289 -0.0415
 5135SOL    HW119861   2.695   2.323   2.744 -0.9427 -1.9726 -1.1051
 5135SOL    HW219862   2.808   2.254   2.671  0.4340 -1.7989  0.8057
 5136SOL     OW19863   4.071  10.524   7.741  0.1887 -0.7514  0.0417
 5136SOL    HW119864   4.110  10.445   7.778  1.9721  0.7057  1.4708
 5136SOL    HW219865   4.096  10.523   7.648 -0.5883 -2.2622 -0.1819
 5137SOL     OW19866   9.486   5.701   2.044  0.2423 -0.1436 -0.3445
 5137SOL    HW119867   9.402   5.711   1.999  0.8490 -0.5815 -1.6353
 5137SOL    HW219868   9.543   5.766   2.003  0.8619 -0.6609 -0.3175
 5138SOL     OW19869   3.983   7.171   7.582 -0.0621 -0.1683  0.0159
 5138SOL    HW119870   3.956   7.194   7.671  0.0400 -0.7517  0.2012
 5138SOL    HW219871   3.953   7.245   7.529  0.2357  0.3731  0.5875
 5139SOL     OW19872   6.462   7.645   7.786 -0.4642 -0.0200 -0.6241
 5139SOL    HW119873   6.449   7.593   7.866 -0.7150 -0.0108 -0.6581
 5139SOL    HW219874   6.541   7.608   7.746  0.3543  0.7442  0.2396
 5140SOL     OW19875  10.627   2.276   0.777  0.0095 -0.3003  0.1823
 5140SOL    HW119876  10.639   2.302   0.685 -0.8187  1.2108  0.4779
 5140SOL    HW219877  10.660   2.350   0.827 -1.6178 -0.1384  1.0790
 5141SOL     OW19878   7.993   0.592   5.634  0.5859 -0.1136 -0.2291
 5141SOL    HW119879   7.937   0.639   5.695 -0.9183 -1.6477 -0.3686
 5141SOL    HW219880   7.960   0.617   5.548 -1.3428 -2.5446 -0.3115
 5142SOL     OW19881  10.357   8.768  10.823  0.0477  0.3049  0.3330
 5142SOL    HW119882  10.448   8.776  10.850  0.1623  1.5000 -0.3200
 5142SOL    HW219883  10.321   8.699  10.878  0.8229  1.1744  2.0048
 5143SOL     OW19884   9.375   6.920   3.932 -0.2573 -0.0379 -0.1003
 5143SOL    HW119885   9.468   6.933   3.917 -0.2359 -0.7246 -0.5958
 5143SOL    HW219886   9.353   6.840   3.883 -1.0247 -0.0880  0.3031
 5144SOL     OW19887   2.859   5.801   8.477  0.5173 -0.3343 -0.3904
 5144SOL    HW119888   2.922   5.751   8.425 -1.0467 -1.2231 -1.5036
 5144SOL    HW219889   2.798   5.736   8.510  0.1135  0.5255  0.6041
 5145SOL     OW19890   3.988   0.056   7.448  0.4136 -0.4302  0.3593
 5145SOL    HW119891   4.067   0.109   7.443  0.5494 -0.5829  0.7901
 5145SOL    HW219892   4.016  -0.027   7.488 -0.0580 -0.2732  1.0469
 5146SOL     OW19893   6.453   0.403   7.325  0.4720 -0.5149 -0.2438
 5146SOL    HW119894   6.454   0.395   7.230  0.7807 -1.6329 -0.1556
 5146SOL    HW219895   6.360   0.400   7.348  0.4014 -0.3311 -0.4959
 5147SOL     OW19896   8.847  11.035   0.818  0.2922  0.0752 -0.0257
 5147SOL    HW119897   8.776  11.075   0.868 -0.5432 -1.2612 -0.0972
 5147SOL    HW219898   8.923  11.090   0.836 -0.8756  1.9170 -0.4441
 5148SOL     OW19899   7.343   0.567  10.476  0.5889  0.2220  0.2481
 5148SOL    HW119900   7.255   0.531  10.488  0.5008  0.5570  0.6390
 5148SOL    HW219901   7.378   0.574  10.565  1.1815 -0.3234  0.0622
 5149SOL     OW19902   1.281   3.169   0.061  0.4100  0.4546  0.0087
 5149SOL    HW119903   1.244   3.129  -0.017  2.0341  0.7883 -0.9885
 5149SOL    HW219904   1.218   3.236   0.087  0.1594  0.7971 -1.4237
 5150SOL     OW19905   2.713   7.321   3.814 -0.1369  0.0747 -0.2571
 5150SOL    HW119906   2.770   7.246   3.830  2.2242  1.6153 -0.9338
 5150SOL    HW219907   2.688   7.351   3.901 -1.4167 -1.6465  0.0196
 5151SOL     OW19908   3.393   1.243   5.525 -0.0067 -0.0070  0.1096
 5151SOL    HW119909   3.476   1.289   5.527  0.6093 -1.0867  0.2217
 5151SOL    HW219910   3.409   1.166   5.471 -0.3745 -1.2097  1.6176
 5152SOL     OW19911   4.200   3.298   2.809 -0.4992  0.5602 -0.1758
 5152SOL    HW119912   4.177   3.272   2.898 -0.0656  0.1073 -0.1937
 5152SOL    HW219913   4.268   3.364   2.820 -1.1813  1.2718 -0.1475
 5153SOL     OW19914   6.082   1.209   1.919 -0.1881  0.4293  0.1098
 5153SOL    HW119915   6.046   1.297   1.913  3.6375  2.2934  1.4375
 5153SOL    HW219916   6.158   1.209   1.861 -0.8299 -2.5443 -0.9428
 5154SOL     OW19917   9.399   1.181   7.050 -0.1952 -0.4280  0.4210
 5154SOL    HW119918   9.358   1.135   6.976 -1.5038  0.8109  0.3377
 5154SOL    HW219919   9.326   1.212   7.103  0.7190 -0.7432  1.9310
 5155SOL     OW19920   0.251   2.017   4.925 -0.0333 -0.1867 -0.1186
 5155SOL    HW119921   0.191   2.038   4.853  0.4746  0.4157 -0.3716
 5155SOL    HW219922   0.199   2.031   5.004  0.0858  1.4331 -0.2977
 5156SOL     OW19923   2.055  10.237   1.998  0.6068 -0.1753 -0.0423
 5156SOL    HW119924   1.965  10.251   1.969 -0.0006 -0.8348  1.4157
 5156SOL    HW219925   2.067  10.142   1.994  0.3339 -0.3673  2.1177
 5157SOL     OW19926   7.604   6.939   8.095 -1.1353 -0.0535  0.4508
 5157SOL    HW119927   7.694   6.961   8.072 -1.1540  1.7380  1.8775
 5157SOL    HW219928   7.554   7.017   8.073 -2.3978 -1.0694 -0.4361
 5158SOL     OW19929   8.863   4.668   4.811  0.1035  0.4441  0.4903
 5158SOL    HW119930   8.918   4.598   4.775 -1.4654 -0.9234  0.6588
 5158SOL    HW219931   8.829   4.632   4.892 -1.4621  1.0360  0.1223
 5159SOL     OW19932   8.193   7.769   0.032  0.1636 -0.1614 -0.1270
 5159SOL    HW119933   8.243   7.817   0.098  0.9106  0.3409 -1.0305
 5159SOL    HW219934   8.221   7.679   0.041 -0.1932 -0.1999  0.6434
 5160SOL     OW19935   4.268   4.458  10.277 -0.2416  0.1084 -0.2054
 5160SOL    HW119936   4.299   4.386  10.332  0.5885  1.2634  0.9248
 5160SOL    HW219937   4.322   4.452  10.197 -0.4497 -0.7349 -0.2901
 5161SOL     OW19938   3.091   6.014   5.169  0.1906  0.0605  0.3801
 5161SOL    HW119939   3.085   6.095   5.219 -1.2545  0.3536 -0.2243
 5161SOL    HW219940   3.179   6.016   5.130  0.7055  0.6149  1.5385
 5162SOL     OW19941   9.554   7.221   5.945  0.5869 -0.4168 -0.3037
 5162SOL    HW119942   9.592   7.179   5.868 -0.5603 -0.2187 -0.9878
 5162SOL    HW219943   9.605   7.302   5.956  0.5722 -0.3099 -1.0155
 5163SOL     OW19944  10.169   7.669   2.309 -0.4049 -0.2010  0.6388
 5163SOL    HW119945  10.245   7.716   2.344  0.7223 -0.3820 -1.3972
 5163SOL    HW219946  10.101   7.736   2.300  1.0463  1.1063 -1.8391
 5164SOL     OW19947   9.111   4.373   7.131  0.6884 -0.5619  0.1768
 5164SOL    HW119948   9.127   4.296   7.186 -0.4109  0.6306  2.3337
 5164SOL    HW219949   9.016   4.373   7.119  0.7151  0.2888 -0.0429
 5165SOL     OW19950   9.762   8.328   6.318  0.2962  0.4746  0.6091
 5165SOL    HW119951   9.775   8.287   6.404  2.9722 -0.4218 -0.1473
 5165SOL    HW219952   9.721   8.412   6.339  1.7236  0.6966  2.8855
 5166SOL     OW19953   8.768   1.316   2.535  0.6081  0.0323 -0.8030
 5166SOL    HW119954   8.690   1.331   2.482  0.5914  0.7374 -0.5797
 5166SOL    HW219955   8.811   1.401   2.540  0.2518  0.1390  0.8891
 5167SOL     OW19956   2.415   7.216   8.389  0.1484 -0.3758 -0.0393
 5167SOL    HW119957   2.406   7.175   8.475 -0.8176 -0.3498 -0.1144
 5167SOL    HW219958   2.325   7.225   8.357  0.3473  1.5167 -0.1755
 5168SOL     OW19959   0.031   4.069  10.036 -0.1730 -0.1447 -0.1153
 5168SOL    HW119960   0.098   4.102  10.095  0.2234 -1.0427 -0.0373
 5168SOL    HW219961  -0.033   4.026  10.093  0.8295 -2.0958 -0.3595
 5169SOL     OW19962   8.958   5.107   5.765 -0.2814 -0.1835  0.0501
 5169SOL    HW119963   9.028   5.083   5.825 -1.1393 -2.5568  0.2230
 5169SOL    HW219964   8.995   5.092   5.678  0.0941  0.6500  0.0590
 5170SOL     OW19965   7.372   2.187   0.250  0.8361 -0.2483  0.4870
 5170SOL    HW119966   7.286   2.215   0.283  0.1641  0.2631 -1.5400
 5170SOL    HW219967   7.434   2.246   0.292  0.0131  0.5020  0.6818
 5171SOL     OW19968   7.885   4.434   0.631 -0.0453  0.1290  0.1462
 5171SOL    HW119969   7.832   4.374   0.684  0.5451 -0.1227  0.4556
 5171SOL    HW219970   7.918   4.498   0.693 -0.3958  0.5867 -0.1311
 5172SOL     OW19971   2.555   7.081   5.745 -0.0361 -0.0510 -0.0813
 5172SOL    HW119972   2.649   7.061   5.745  0.0505  0.1443  1.5221
 5172SOL    HW219973   2.517   7.022   5.681  0.9421 -1.4562  0.5795
 5173SOL     OW19974   0.780   8.494   2.297 -0.6113 -0.7091  0.2180
 5173SOL    HW119975   0.774   8.502   2.202 -0.5455  0.1841  0.2797
 5173SOL    HW219976   0.711   8.432   2.321 -2.3530  0.9909 -0.1639
 5174SOL     OW19977   1.910   2.240   1.319 -0.0951 -0.1421 -0.0794
 5174SOL    HW119978   1.999   2.208   1.326 -0.0737 -0.0039  0.3042
 5174SOL    HW219979   1.915   2.312   1.256 -0.0139 -0.4097 -0.3797
 5175SOL     OW19980   8.002   7.988  10.436  0.5350 -0.1637  0.2202
 5175SOL    HW119981   8.035   8.063  10.388 -0.5956  0.8157  0.9282
 5175SOL    HW219982   7.932   8.023  10.490 -0.3094 -1.8023  0.2521
 5176SOL     OW19983   7.318   6.005   0.029  0.7259 -0.1759 -0.4389
 5176SOL    HW119984   7.370   6.045   0.099  1.0092  1.5180 -1.5628
 5176SOL    HW219985   7.288   6.079  -0.024 -0.2614 -1.3484 -1.5922
 5177SOL     OW19986  10.931  10.632   3.339 -0.2323 -0.3661 -0.3586
 5177SOL    HW119987  11.001  10.698   3.335  0.0840 -0.6639  0.1318
 5177SOL    HW219988  10.976  10.549   3.324 -0.2621 -0.6891  1.1894
 5178SOL     OW19989   9.784  10.424   1.219 -0.1962  0.0834  0.4206
 5178SOL    HW119990   9.880  10.430   1.220 -0.0747 -0.8650 -1.5138
 5178SOL    HW219991   9.754  10.511   1.245  1.1919  0.7307 -0.0578
 5179SOL     OW19992   4.487   4.768   9.505 -0.5427 -0.4805 -0.0073
 5179SOL    HW119993   4.544   4.777   9.428 -0.8973  2.2229 -0.0609
 5179SOL    HW219994   4.547   4.776   9.580 -0.4481 -1.0539 -0.0196
 5180SOL     OW19995   4.452   2.144   7.481  0.3933  0.0838 -0.3403
 5180SOL    HW119996   4.492   2.059   7.460  1.1695  0.4797 -0.4859
 5180SOL    HW219997   4.521   2.208   7.466 -0.0991  0.7226  0.0534
 5181SOL     OW19998   1.483   1.047   3.808  0.2829  0.0453 -0.1716
 5181SOL    HW119999   1.573   1.062   3.780  0.4638  0.4832  0.6044
 5181SOL    HW220000   1.482   0.957   3.840  0.1692 -0.3250 -1.1865
 5182SOL     OW20001  10.214   6.670   3.455  0.3461 -0.5821 -0.4985
 5182SOL    HW120002  10.179   6.610   3.389 -0.7615 -0.0662 -0.3978
 5182SOL    HW220003  10.184   6.756   3.427  1.1374 -0.1775 -0.1293
 5183SOL     OW20004   4.408   6.105   1.184 -0.4604  0.4081 -0.0614
 5183SOL    HW120005   4.315   6.106   1.205 -0.4875 -1.4667  0.0545
 5183SOL    HW220006   4.445   6.177   1.236 -1.7807  0.9817  0.1216
 5184SOL     OW20007   0.581   4.217   9.912 -0.0698 -0.5077 -0.2608
 5184SOL    HW120008   0.508   4.266   9.873 -0.6658 -0.9252  0.3142
 5184SOL    HW220009   0.588   4.139   9.857 -0.6172 -0.8780  0.1829
 5185SOL     OW20010   2.285   7.546  10.097  0.1848  0.1350  0.1577
 5185SOL    HW120011   2.288   7.451  10.111 -0.3362  0.3487  1.9149
 5185SOL    HW220012   2.355   7.580  10.152 -1.7092  0.9925  2.2072
 5186SOL     OW20013   3.302  10.290   7.465 -0.6353 -0.2439  0.1092
 5186SOL    HW120014   3.341  10.261   7.547 -0.6474 -1.4864 -0.2891
 5186SOL    HW220015   3.235  10.353   7.491 -1.0604 -1.0704  1.1197
 5187SOL     OW20016  10.324   7.803   6.456  0.0788 -0.2968 -0.0336
 5187SOL    HW120017  10.254   7.758   6.408  0.6167 -1.8111  0.5281
 5187SOL    HW220018  10.339   7.748   6.533  1.6291  0.1939  0.0471
 5188SOL     OW20019   0.187   1.860   5.670  0.2961 -0.3444  0.1251
 5188SOL    HW120020   0.150   1.946   5.688  1.9825  1.0347 -2.3988
 5188SOL    HW220021   0.131   1.823   5.602 -0.7693 -1.5878  1.5973
 5189SOL     OW20022   9.258   9.008   3.369 -0.0284 -0.4204  0.5364
 5189SOL    HW120023   9.188   9.046   3.316 -0.0315 -1.1848 -0.0288
 5189SOL    HW220024   9.333   9.066   3.356  0.3683 -1.2886 -1.3758
 5190SOL     OW20025   7.026   1.829   5.835 -0.1452 -0.2687  0.1194
 5190SOL    HW120026   6.987   1.897   5.889  0.8388 -0.0046  0.5156
 5190SOL    HW220027   7.074   1.877   5.767  1.9253 -0.4646  1.3371
 5191SOL     OW20028   5.687   5.842  10.059 -0.1108 -0.2907  0.3791
 5191SOL    HW120029   5.689   5.803   9.971  1.3110  1.4319 -0.4265
 5191SOL    HW220030   5.640   5.925  10.046  1.0031  0.4605  0.9918
 5192SOL     OW20031   9.994   9.487   4.674  0.4285  0.0947  0.2390
 5192SOL    HW120032   9.985   9.464   4.767  1.8934  0.0729  0.4022
 5192SOL    HW220033  10.081   9.455   4.650 -0.3805 -0.9415 -1.4748
 5193SOL     OW20034   4.361   1.152   4.947  0.0721  0.4563  0.6912
 5193SOL    HW120035   4.390   1.075   4.996 -0.2837 -0.0885  0.0734
 5193SOL    HW220036   4.390   1.135   4.857  0.8559  1.5105  0.7269
 5194SOL     OW20037   3.071   1.492   8.718 -0.3258  0.0698 -0.5556
 5194SOL    HW120038   3.000   1.429   8.727  0.0540 -0.3102 -0.1228
 5194SOL    HW220039   3.040   1.569   8.765  0.2588 -0.7232  1.2449
 5195SOL     OW20040   6.678   9.109   2.592  0.2901  0.0613  0.3490
 5195SOL    HW120041   6.701   9.099   2.684  0.2444  0.4270  0.4020
 5195SOL    HW220042   6.588   9.140   2.592 -0.1661 -1.2068  0.1416
 5196SOL     OW20043   8.987   0.260   7.659 -0.0377  0.1097  0.2811
 5196SOL    HW120044   9.061   0.318   7.677  0.5174 -0.2288 -0.8364
 5196SOL    HW220045   9.027   0.179   7.626 -0.8826 -0.2186  0.0344
 5197SOL     OW20046   2.703   0.123   7.772  0.2057 -0.1336 -0.5128
 5197SOL    HW120047   2.698   0.037   7.813 -2.7860  0.6243  1.0448
 5197SOL    HW220048   2.795   0.135   7.751  0.7415 -3.6077 -0.6668
 5198SOL     OW20049  10.250   5.709   2.868  0.3359  0.0486  0.5696
 5198SOL    HW120050  10.338   5.739   2.891 -0.0172  2.2841 -0.6823
 5198SOL    HW220051  10.261   5.664   2.785  0.3581 -0.1747  0.6913
 5199SOL     OW20052  10.517  11.043   8.309  0.6786 -0.2587 -0.2010
 5199SOL    HW120053  10.604  11.027   8.272  1.1494  0.0660  0.7395
 5199SOL    HW220054  10.481  10.956   8.325  1.7968 -0.4271  1.6054
 5200SOL     OW20055   2.403   4.668   5.081  0.1006  0.0750  0.2377
 5200SOL    HW120056   2.383   4.666   4.988 -1.1857 -0.6731  0.5157
 5200SOL    HW220057   2.463   4.742   5.090  0.0203  0.3416 -1.1309
 5201SOL     OW20058  10.741   6.976   6.787 -0.5826  0.5577  0.0604
 5201SOL    HW120059  10.695   6.895   6.767 -1.9925  0.8382  1.9435
 5201SOL    HW220060  10.692   7.044   6.740  1.4310  0.2919 -2.7176
 5202SOL     OW20061   0.393  10.228   4.472  0.4727  0.4242  0.1633
 5202SOL    HW120062   0.342  10.164   4.521 -0.2553 -0.0058 -1.1327
 5202SOL    HW220063   0.369  10.215   4.380 -0.7624  3.4424 -0.0794
 5203SOL     OW20064   0.457  10.187   1.182 -0.0915  0.2099  0.2591
 5203SOL    HW120065   0.475  10.277   1.206 -1.0461  0.4313  0.1647
 5203SOL    HW220066   0.371  10.168   1.219  0.2079 -0.7478  0.5065
 5204SOL     OW20067   9.179  10.574   6.133  0.7404  0.6754  0.0559
 5204SOL    HW120068   9.194  10.608   6.221  1.8074  0.6595 -0.1027
 5204SOL    HW220069   9.114  10.504   6.145  0.7382  0.7965  0.7988
 5205SOL     OW20070   4.534   6.140   7.112 -0.9252 -0.0313 -0.1051
 5205SOL    HW120071   4.557   6.048   7.127 -2.3788 -0.5764 -1.0128
 5205SOL    HW220072   4.486   6.165   7.191 -1.2413 -0.3072 -0.2068
 5206SOL     OW20073   3.736   1.906   2.867 -0.5165 -0.4144 -0.0111
 5206SOL    HW120074   3.830   1.892   2.865 -0.4681 -0.7792  2.0460
 5206SOL    HW220075   3.719   1.970   2.798  0.9183 -1.8424 -1.7652
 5207SOL     OW20076  10.951   1.112   5.439  0.3247  0.0112 -0.1214
 5207SOL    HW120077  10.971   1.019   5.433  0.3798  0.0988 -1.9694
 5207SOL    HW220078  10.908   1.123   5.524 -3.3252 -2.4309 -1.3968
 5208SOL     OW20079  10.591   3.809   2.610  0.5265  0.4491 -0.3360
 5208SOL    HW120080  10.678   3.824   2.648  0.2469  1.4925 -0.0692
 5208SOL    HW220081  10.545   3.892   2.623 -0.4639 -0.0442 -0.6123
 5209SOL     OW20082   2.552   7.874  10.858  0.7669 -0.0850 -0.1924
 5209SOL    HW120083   2.556   7.788  10.900 -1.3447 -0.2652 -0.2639
 5209SOL    HW220084   2.459   7.888  10.840  1.2627  1.3361 -2.0212
 5210SOL     OW20085  10.858   2.272   8.872  0.1785 -0.1445  0.5816
 5210SOL    HW120086  10.854   2.324   8.791 -0.2116 -1.9321 -0.5898
 5210SOL    HW220087  10.767   2.268   8.902  0.0264 -1.0529  0.0434
 5211SOL     OW20088   8.692   6.551   3.588  0.2788  0.0494  0.2482
 5211SOL    HW120089   8.752   6.497   3.640 -0.0919  1.1493  1.9283
 5211SOL    HW220090   8.749   6.619   3.550  0.3284  0.2081  0.5984
 5212SOL     OW20091   7.583   2.917   9.675  0.6707 -0.3134 -0.0192
 5212SOL    HW120092   7.489   2.907   9.660  0.6892  1.1454 -1.2797
 5212SOL    HW220093   7.623   2.892   9.592  1.4442 -1.2067  0.6006
 5213SOL     OW20094   1.737  10.980   1.095  0.6883  0.1342 -0.2719
 5213SOL    HW120095   1.766  11.013   1.180 -1.4753  0.2779  0.4611
 5213SOL    HW220096   1.643  10.999   1.092  0.6243 -0.2030 -2.5493
 5214SOL     OW20097   6.825   3.615   1.362 -0.2707 -0.3784  0.2686
 5214SOL    HW120098   6.798   3.533   1.403 -5.1890  0.3270 -0.9424
 5214SOL    HW220099   6.854   3.670   1.435 -0.9388 -1.8189  1.6745
 5215SOL     OW20100   6.187  10.006  10.921  0.1426  0.3269  0.1117
 5215SOL    HW120101   6.148  10.063  10.855 -0.5231 -1.0530 -0.7475
 5215SOL    HW220102   6.259   9.963  10.876 -1.1374 -1.6275 -0.2022
 5216SOL     OW20103   2.540   9.125   5.836 -0.2010 -0.7074  0.0579
 5216SOL    HW120104   2.557   9.089   5.923  0.6254  0.2365  0.3006
 5216SOL    HW220105   2.626   9.133   5.796 -0.5823 -1.2248 -0.9036
 5217SOL     OW20106   2.892   0.088   3.319 -0.5556  0.1823  0.2771
 5217SOL    HW120107   2.968   0.126   3.363 -0.0278  0.5691 -0.9181
 5217SOL    HW220108   2.862   0.156   3.259 -1.1420 -0.3775 -0.0862
 5218SOL     OW20109   5.410   1.217  10.242 -0.2009  0.0033  0.0269
 5218SOL    HW120110   5.450   1.300  10.268  0.9553  0.4720 -2.9093
 5218SOL    HW220111   5.449   1.152  10.301  0.2649  1.2754  1.1717
 5219SOL     OW20112   2.000   3.927   2.675  0.2695 -0.2510 -0.2932
 5219SOL    HW120113   1.940   3.980   2.621  1.1709  0.8463 -0.2680
 5219SOL    HW220114   2.020   3.983   2.750  1.8014 -0.3297 -0.6096
 5220SOL     OW20115   8.600   5.505   6.990  0.1802  0.0346  0.2658
 5220SOL    HW120116   8.677   5.538   6.943  1.1843 -2.2704  0.1502
 5220SOL    HW220117   8.548   5.463   6.922 -0.3581  0.1191  0.6214
 5221SOL     OW20118   1.101   1.583  10.265  0.0821  0.4632 -0.2175
 5221SOL    HW120119   1.062   1.497  10.253  0.8863 -0.0477  0.6873
 5221SOL    HW220120   1.030   1.644  10.243 -0.4581 -0.4072 -0.9928
 5222SOL     OW20121   6.105   2.437  10.117  0.0802 -0.2127  0.3110
 5222SOL    HW120122   6.141   2.384  10.045  0.3907 -0.8494  0.9114
 5222SOL    HW220123   6.154   2.407  10.194 -0.9654 -0.2916  0.9631
 5223SOL     OW20124   7.956   9.661   5.505  0.0706 -0.4766  0.0505
 5223SOL    HW120125   7.973   9.578   5.549  0.5843 -0.2679  0.2544
 5223SOL    HW220126   8.037   9.679   5.457 -0.9699 -1.4586 -2.2394
 5224SOL     OW20127   5.558   9.837   7.177  0.7285  0.2396 -0.2091
 5224SOL    HW120128   5.571   9.854   7.083  0.5987  0.3635 -0.2051
 5224SOL    HW220129   5.571   9.743   7.186 -2.1011 -0.3044 -0.8488
 5225SOL     OW20130   8.210   5.744   5.715 -0.1792  0.5663  0.3584
 5225SOL    HW120131   8.293   5.747   5.667 -1.1109  1.7764 -1.2822
 5225SOL    HW220132   8.177   5.834   5.712 -1.6480  0.0784  0.8149
 5226SOL     OW20133   8.099   9.154   8.329 -0.3628  0.0408 -0.3291
 5226SOL    HW120134   8.176   9.144   8.386 -0.4277 -0.4218 -0.3181
 5226SOL    HW220135   8.032   9.099   8.369 -1.0451  1.2658  0.2467
 5227SOL     OW20136   8.710   1.826   6.409  0.4350  0.1471  0.5212
 5227SOL    HW120137   8.641   1.797   6.469  1.5382 -2.7157  0.5663
 5227SOL    HW220138   8.785   1.845   6.466  1.2281 -1.7848  0.2065
 5228SOL     OW20139   1.823   5.461   4.552 -0.5690  0.5327  0.3505
 5228SOL    HW120140   1.743   5.502   4.519 -1.1294  0.0180  1.0297
 5228SOL    HW220141   1.793   5.406   4.624  0.0232 -1.7793 -1.0692
 5229SOL     OW20142   5.810   6.071  10.228 -0.7199 -0.2280  0.3424
 5229SOL    HW120143   5.824   6.163  10.206  0.0446 -0.2268  0.7859
 5229SOL    HW220144   5.717   6.066  10.250 -0.5767  0.6527  1.2631
 5230SOL     OW20145   5.805   6.450   0.815  0.2457 -0.0826 -0.1035
 5230SOL    HW120146   5.828   6.401   0.737 -0.9319 -1.3476  0.3101
 5230SOL    HW220147   5.846   6.403   0.887  0.5931  0.5726  0.1426
 5231SOL     OW20148   2.951   5.152   9.657 -0.3873 -0.3337  0.5531
 5231SOL    HW120149   2.982   5.069   9.621  2.7715  1.1031 -0.4970
 5231SOL    HW220150   2.877   5.176   9.601 -0.8006 -1.9949  0.3207
 5232SOL     OW20151   6.890  10.758   4.464 -0.0828 -0.3558  0.7444
 5232SOL    HW120152   6.914  10.787   4.552 -1.0115  0.1454  0.8420
 5232SOL    HW220153   6.795  10.767   4.461 -0.0411 -0.1794 -0.3846
 5233SOL     OW20154  10.925   3.410   7.700  0.0833  0.6286  0.0203
 5233SOL    HW120155  10.955   3.498   7.722  0.4559  0.5197 -0.0370
 5233SOL    HW220156  11.002   3.368   7.662  0.1406  0.0052  0.8102
 5234SOL     OW20157   7.619   1.066   2.590 -0.1727  0.0667  0.4133
 5234SOL    HW120158   7.589   0.997   2.650 -0.9898  0.8676  0.9374
 5234SOL    HW220159   7.546   1.079   2.530 -0.1817  0.7754  0.5745
 5235SOL     OW20160   0.650   0.380  10.382 -0.0151  0.5282  0.0154
 5235SOL    HW120161   0.645   0.439  10.307 -0.3622  1.1948  0.5501
 5235SOL    HW220162   0.641   0.292  10.344  0.7131  0.7957 -0.8107
 5236SOL     OW20163   0.745   3.611   2.103 -0.0234  0.1260 -0.4428
 5236SOL    HW120164   0.820   3.605   2.043  0.3364  0.8194 -0.0775
 5236SOL    HW220165   0.752   3.698   2.141 -0.6260 -0.0621  0.1164
 5237SOL     OW20166   7.181   7.670   7.357  0.3064  0.1953 -0.3353
 5237SOL    HW120167   7.155   7.717   7.277  0.6021  0.5083 -0.2518
 5237SOL    HW220168   7.227   7.592   7.325  0.0868  0.1239 -0.4746
 5238SOL     OW20169   8.876   0.513   4.798 -0.0823  0.5979 -0.5034
 5238SOL    HW120170   8.887   0.442   4.861 -3.7056  0.5023  0.2170
 5238SOL    HW220171   8.919   0.589   4.839  1.0354 -0.3829  0.2024
 5239SOL     OW20172   9.780  10.330   5.140  0.7392 -0.6732 -0.0279
 5239SOL    HW120173   9.755  10.301   5.228  1.2975  2.1894  1.1859
 5239SOL    HW220174   9.858  10.280   5.119 -0.6332 -3.0195  0.0704
 5240SOL     OW20175   4.140   9.909   6.969 -0.1791  0.5021 -0.5980
 5240SOL    HW120176   4.169   9.866   6.888 -0.1587 -2.3387  0.7691
 5240SOL    HW220177   4.218   9.952   7.003 -0.1498  1.5846 -1.9648
 5241SOL     OW20178   1.170   1.570   5.989 -0.8186  0.3517  0.0069
 5241SOL    HW120179   1.165   1.489   5.938 -1.4698 -0.1596  0.8582
 5241SOL    HW220180   1.175   1.541   6.080 -1.0186  1.2724  0.3231
 5242SOL     OW20181   8.903   7.943   9.610  0.6642 -0.3439  0.1445
 5242SOL    HW120182   8.829   7.922   9.554 -0.2013 -1.1119  1.5290
 5242SOL    HW220183   8.923   7.861   9.655 -0.1504  0.7402  2.6376
 5243SOL     OW20184   7.567   4.995   8.808 -0.1235  0.1123  0.1328
 5243SOL    HW120185   7.630   4.982   8.880 -2.5320  1.6920  2.7325
 5243SOL    HW220186   7.534   4.907   8.790  0.6043 -0.3431  0.8922
 5244SOL     OW20187   0.846   9.369   3.966 -0.1512  0.1103 -0.3063
 5244SOL    HW120188   0.881   9.458   3.957 -0.3969  0.1672 -0.7793
 5244SOL    HW220189   0.919   9.312   3.943 -0.0288  0.1980 -0.1284
 5245SOL     OW20190   4.343  10.042   7.744 -0.0553  0.0584  0.0651
 5245SOL    HW120191   4.426  10.030   7.698  1.2460  2.5782  1.5487
 5245SOL    HW220192   4.362  10.016   7.834 -1.8265 -2.2841 -0.1477
 5246SOL     OW20193   5.766   3.329   9.499  0.2369 -0.6434  0.5085
 5246SOL    HW120194   5.697   3.288   9.551 -0.5976 -0.5239 -0.4682
 5246SOL    HW220195   5.775   3.416   9.538  0.5497 -1.0081  1.2721
 5247SOL     OW20196   9.015   9.774   6.301  0.4105  0.9054 -0.3887
 5247SOL    HW120197   9.021   9.679   6.313  0.8882  0.8091 -1.3308
 5247SOL    HW220198   9.073   9.792   6.227  2.6345  2.3059  1.5720
 5248SOL     OW20199  10.343   0.535   3.770 -0.9485  0.2002 -0.1174
 5248SOL    HW120200  10.331   0.498   3.683  1.5412  0.3555 -0.6136
 5248SOL    HW220201  10.268   0.594   3.782 -0.7474  1.0874 -2.6636
 5249SOL     OW20202   3.854   9.474   2.389 -0.1069  0.0825  0.3607
 5249SOL    HW120203   3.816   9.558   2.362 -1.0924 -0.2043  0.8058
 5249SOL    HW220204   3.912   9.450   2.317 -0.4442  0.7512 -0.1493
 5250SOL     OW20205   1.629   2.018   1.252  0.1346 -0.7185 -0.0033
 5250SOL    HW120206   1.682   2.060   1.320 -0.4651 -0.1485  0.1287
 5250SOL    HW220207   1.547   2.067   1.252 -0.2402 -1.3256 -0.4834
 5251SOL     OW20208  10.899   5.641   0.140 -0.1698  0.1597 -0.1688
 5251SOL    HW120209  10.876   5.612   0.051 -0.8994  0.0637  0.0484
 5251SOL    HW220210  10.884   5.735   0.140  1.1761  0.4053 -0.5519
 5252SOL     OW20211  10.318   5.408   6.930 -0.0693 -0.4370 -0.2276
 5252SOL    HW120212  10.330   5.349   7.005  1.4678  0.1529  0.0430
 5252SOL    HW220213  10.258   5.362   6.872  1.1073 -2.3131 -0.0542
 5253SOL     OW20214   5.818   7.083   0.526 -0.2159  0.3868 -0.0867
 5253SOL    HW120215   5.739   7.035   0.550 -0.6884  0.7562 -0.8598
 5253SOL    HW220216   5.891   7.028   0.556 -0.7650  0.3211  1.1704
 5254SOL     OW20217   2.545   6.949   3.849 -0.2883  0.5081  0.5149
 5254SOL    HW120218   2.469   7.007   3.851 -1.3790 -0.8860  0.8030
 5254SOL    HW220219   2.561   6.933   3.756 -2.0219 -1.2569  0.4618
 5255SOL     OW20220  10.349   2.373   7.557  0.1226 -1.0105  0.2567
 5255SOL    HW120221  10.383   2.298   7.605  0.1212 -0.5801  0.9450
 5255SOL    HW220222  10.309   2.429   7.624  2.8193  1.1396  0.2686
 5256SOL     OW20223   0.912   7.791   3.633  0.7115 -0.0388 -0.4476
 5256SOL    HW120224   0.855   7.756   3.565 -0.4049  0.7691  0.0477
 5256SOL    HW220225   0.928   7.718   3.692 -0.0137 -0.2125 -0.4619
 5257SOL     OW20226   0.559   3.959   0.436 -0.8702 -0.4799 -0.4266
 5257SOL    HW120227   0.595   3.900   0.503 -1.0094 -1.9436 -1.5899
 5257SOL    HW220228   0.511   4.025   0.486  0.9831 -0.1404  1.0329
 5258SOL     OW20229   7.683   0.939   0.072 -0.1074 -0.6136 -0.0713
 5258SOL    HW120230   7.600   0.917   0.030  0.5810 -1.2223 -1.1489
 5258SOL    HW220231   7.747   0.880   0.032  0.9767  0.3175  0.2424
 5259SOL     OW20232   7.723   0.128   8.508 -0.1388  0.5699 -0.3432
 5259SOL    HW120233   7.744   0.149   8.417 -2.2609  2.2028 -0.5475
 5259SOL    HW220234   7.687   0.039   8.505 -0.9189  0.9038 -1.2481
 5260SOL     OW20235   3.154   9.488  10.556 -0.2017  0.5828  0.0789
 5260SOL    HW120236   3.183   9.541  10.482 -0.4213  0.2281 -0.2647
 5260SOL    HW220237   3.059   9.494  10.553 -0.1919  1.3187  0.8901
 5261SOL     OW20238   2.255   8.396   3.499 -0.8708  0.2730 -0.2730
 5261SOL    HW120239   2.250   8.436   3.586 -1.1390 -1.3771  0.5110
 5261SOL    HW220240   2.349   8.387   3.483 -0.8207  0.0602  0.1140
 5262SOL     OW20241   0.121   2.548   4.809 -0.1617  0.0702  0.2127
 5262SOL    HW120242   0.101   2.637   4.839  2.8605  2.1234 -2.9575
 5262SOL    HW220243   0.196   2.522   4.863 -1.4578 -0.9299  1.5925
 5263SOL     OW20244   1.638   6.404   5.262 -0.0352 -0.0270  0.1366
 5263SOL    HW120245   1.719   6.353   5.267  0.5389  0.8651  0.0104
 5263SOL    HW220246   1.579   6.360   5.324  0.9330  0.0019  1.1118
 5264SOL     OW20247   1.885   7.884  10.293  0.3958 -0.1832 -0.3536
 5264SOL    HW120248   1.830   7.946  10.341  0.2874  1.2635 -2.2277
 5264SOL    HW220249   1.959   7.866  10.351 -0.6913 -0.0691  1.1249
 5265SOL     OW20250   9.235   8.409   6.081 -0.2015  0.1775 -0.1771
 5265SOL    HW120251   9.328   8.429   6.089 -0.2076  0.2214 -0.2139
 5265SOL    HW220252   9.227   8.366   5.995 -0.1117 -0.4238  0.1086
 5266SOL     OW20253   4.534   2.396  10.642  0.7330 -0.0491 -1.3211
 5266SOL    HW120254   4.468   2.327  10.642 -1.4437  1.8670  0.4079
 5266SOL    HW220255   4.499   2.463  10.584  0.1190  1.7916  1.0251
 5267SOL     OW20256   4.140   2.634   0.552  0.4503 -0.5614  0.2307
 5267SOL    HW120257   4.130   2.708   0.491  3.1503 -1.4955 -1.4934
 5267SOL    HW220258   4.092   2.562   0.511  0.9652 -0.7702 -0.0095
 5268SOL     OW20259   0.177   3.182   2.211 -0.2467 -0.3714  0.2048
 5268SOL    HW120260   0.117   3.190   2.137 -1.4863  1.9844  1.3400
 5268SOL    HW220261   0.120   3.161   2.285  0.6197 -0.1550  0.9411
 5269SOL     OW20262   9.870  10.934   6.742 -0.2047  0.0904  0.0762
 5269SOL    HW120263   9.836  10.983   6.816  0.6564  1.5768 -0.4638
 5269SOL    HW220264   9.811  10.953   6.670  0.0515  0.2270 -0.1011
 5270SOL     OW20265   4.885   8.306   3.901 -0.1698  0.4017  0.4091
 5270SOL    HW120266   4.878   8.359   3.822 -1.9530  2.2573  1.6897
 5270SOL    HW220267   4.976   8.316   3.929  0.4824 -0.2782 -1.3467
 5271SOL     OW20268   5.434   9.522   5.302  0.0284 -0.5855  0.2504
 5271SOL    HW120269   5.348   9.556   5.278 -0.7027 -2.7777 -0.4111
 5271SOL    HW220270   5.489   9.539   5.225  0.0664  0.3131  0.4643
 5272SOL     OW20271   7.051   8.599   0.714 -0.8315  0.1903 -0.2435
 5272SOL    HW120272   7.077   8.507   0.710 -0.8954  0.0986  1.1121
 5272SOL    HW220273   7.007   8.608   0.798 -1.6479  1.2645 -0.7545
 5273SOL     OW20274  10.125   0.928   9.096 -0.5990  0.2838  0.0427
 5273SOL    HW120275  10.166   0.969   9.021  0.5186 -0.5871  0.1485
 5273SOL    HW220276  10.031   0.927   9.075 -0.5492  1.9107 -0.3973
 5274SOL     OW20277   3.494   4.214   9.674 -0.3256 -0.4595  0.3230
 5274SOL    HW120278   3.400   4.208   9.658 -0.5667  0.4083  1.2828
 5274SOL    HW220279   3.512   4.146   9.739 -0.5516  0.2230  1.1210
 5275SOL     OW20280   9.295   4.319   5.470 -0.2258  0.4560 -0.3753
 5275SOL    HW120281   9.301   4.280   5.557 -0.9944  1.1239 -0.0154
 5275SOL    HW220282   9.381   4.358   5.455 -0.0923  0.3468  0.0835
 5276SOL     OW20283   1.462   6.491   7.924 -0.5042 -0.1275  0.0273
 5276SOL    HW120284   1.551   6.523   7.938 -0.1824 -0.5481 -0.9739
 5276SOL    HW220285   1.415   6.513   8.005  0.1829  1.1956  0.0854
 5277SOL     OW20286   5.199  10.918   4.838 -0.6810  0.0451 -0.6905
 5277SOL    HW120287   5.261  10.968   4.784 -1.4888  0.0240 -1.6611
 5277SOL    HW220288   5.114  10.959   4.823 -0.9972 -0.2258  0.2558
 5278SOL     OW20289   6.297   9.865   0.104  0.1523  0.3751  0.4558
 5278SOL    HW120290   6.258   9.894   0.186  1.1110  1.6151  0.4966
 5278SOL    HW220291   6.229   9.879   0.039 -0.5363 -0.4032  0.9774
 5279SOL     OW20292   0.415   2.905   3.513 -0.3655  0.2147  0.0245
 5279SOL    HW120293   0.456   2.831   3.557  0.3023  0.0165 -0.9053
 5279SOL    HW220294   0.468   2.981   3.539  0.2370  0.0487 -0.6812
 5280SOL     OW20295  11.008  10.828   2.815  0.8375 -0.0660  0.4331
 5280SOL    HW120296  10.919  10.813   2.782  1.3378  0.1928 -1.1170
 5280SOL    HW220297  11.021  10.922   2.805  1.1817 -0.0541  0.9574
 5281SOL     OW20298   0.885   2.187   5.871 -0.3961  0.6365  0.3846
 5281SOL    HW120299   0.932   2.270   5.879  1.8704 -0.5542  0.1978
 5281SOL    HW220300   0.891   2.164   5.779  0.7559 -0.6600  0.7465
 5282SOL     OW20301   9.004   6.966   0.212  0.2426 -0.1404 -0.0300
 5282SOL    HW120302   9.037   7.035   0.154  1.5064 -1.0707 -0.4449
 5282SOL    HW220303   8.961   7.013   0.283 -1.6198  1.0544 -1.8337
 5283SOL     OW20304   3.621   4.266   9.375  0.1086 -0.4518 -0.6088
 5283SOL    HW120305   3.542   4.231   9.333 -0.6675  1.5770 -0.9462
 5283SOL    HW220306   3.631   4.214   9.454 -1.3815 -0.9863 -0.7383
 5284SOL     OW20307   2.236   4.095   3.090 -0.1068 -0.3079  0.6286
 5284SOL    HW120308   2.247   4.005   3.120 -2.0012 -0.7329  0.2230
 5284SOL    HW220309   2.241   4.089   2.994  0.1944  0.0862  0.6187
 5285SOL     OW20310  10.625   0.311   8.071 -0.1791  0.0310  0.3860
 5285SOL    HW120311  10.567   0.381   8.098 -0.9747 -0.2710 -0.4903
 5285SOL    HW220312  10.567   0.237   8.053  0.6442 -0.8741  1.3282
 5286SOL     OW20313   5.387   4.936   5.437 -0.0147  0.1571 -0.1241
 5286SOL    HW120314   5.348   5.000   5.497 -1.3305 -0.2843 -0.4820
 5286SOL    HW220315   5.345   4.954   5.353  0.1604 -0.6973 -0.3971
 5287SOL     OW20316   8.700   1.268   4.658  0.2361  0.0837  0.4192
 5287SOL    HW120317   8.693   1.342   4.598 -0.5914 -1.0532 -0.9231
 5287SOL    HW220318   8.766   1.211   4.619  0.5417 -0.1273  1.2166
 5288SOL     OW20319   0.250   2.464   5.423  0.1503 -0.5677  0.2997
 5288SOL    HW120320   0.223   2.455   5.514 -0.1355 -0.2851  0.2449
 5288SOL    HW220321   0.342   2.489   5.427 -0.2922  1.1254  0.5557
 5289SOL     OW20322   6.159   7.945   3.629 -0.3645  0.5426  0.3161
 5289SOL    HW120323   6.209   8.013   3.583  1.0445 -0.1078  0.8566
 5289SOL    HW220324   6.073   7.985   3.644 -0.3760  1.3250 -1.5231
 5290SOL     OW20325   4.608   3.083  11.020 -0.1090  0.0815 -0.0794
 5290SOL    HW120326   4.645   2.995  11.022 -1.4706 -0.5216  1.1846
 5290SOL    HW220327   4.568   3.094  11.106 -0.9950  1.4759 -0.6244
 5291SOL     OW20328   3.467   1.377   8.151  0.0619 -1.0834 -0.0586
 5291SOL    HW120329   3.529   1.314   8.114 -0.0718 -0.6288 -1.0941
 5291SOL    HW220330   3.522   1.448   8.184  0.1169 -0.7396 -0.8620
 5292SOL     OW20331   2.574   9.557   0.014  0.8284 -0.6369 -0.0824
 5292SOL    HW120332   2.623   9.600  -0.056  1.8431  0.4094  1.2168
 5292SOL    HW220333   2.619   9.473   0.027  0.2941 -1.0851 -1.0308
 5293SOL     OW20334   7.276   5.088   4.338 -0.0296  0.0199 -0.0643
 5293SOL    HW120335   7.297   5.147   4.266 -0.9735  1.1211  0.5126
 5293SOL    HW220336   7.278   5.001   4.300  1.0532  0.4443 -1.0366
 5294SOL     OW20337   0.437   3.736   9.772  0.2300 -0.6323 -0.2855
 5294SOL    HW120338   0.354   3.689   9.765 -0.9093  1.3373 -0.4521
 5294SOL    HW220339   0.496   3.688   9.713 -1.7581 -0.0687 -2.9408
 5295SOL     OW20340   2.911  11.030   3.942 -0.1760  0.3566 -0.4048
 5295SOL    HW120341   2.899  11.116   3.901 -0.3673  0.3584 -0.3459
 5295SOL    HW220342   3.006  11.020   3.949 -0.1420  0.3248 -0.9093
 5296SOL     OW20343   4.481   1.518   9.828 -0.3018  0.3898  0.0649
 5296SOL    HW120344   4.399   1.518   9.877 -0.9394 -2.8451 -0.7699
 5296SOL    HW220345   4.457   1.552   9.741 -1.0670 -1.4310 -0.4867
 5297SOL     OW20346   0.981   3.028   3.651  0.0219 -0.5310 -0.2391
 5297SOL    HW120347   0.890   3.002   3.636  0.3731 -0.7916 -2.1860
 5297SOL    HW220348   0.986   3.042   3.746 -2.0115 -0.5771 -0.0660
 5298SOL     OW20349   3.564  10.712   3.417  0.0905 -0.5187  0.4624
 5298SOL    HW120350   3.633  10.651   3.391  0.3550  0.1218 -0.3804
 5298SOL    HW220351   3.484  10.675   3.380  0.0613 -0.9575  0.9479
 5299SOL     OW20352   1.492   2.983   6.570  0.3581  0.6629  0.2128
 5299SOL    HW120353   1.414   2.957   6.521  0.2161  0.5553  0.4949
 5299SOL    HW220354   1.561   2.924   6.539 -0.0369 -0.2686  1.0869
 5300SOL     OW20355   3.382   9.042   6.250  0.2032 -0.4626  0.2913
 5300SOL    HW120356   3.381   8.948   6.231 -0.7470 -0.3565 -0.2157
 5300SOL    HW220357   3.312   9.078   6.196  1.2232  0.6989 -0.2917
 5301SOL     OW20358   7.210  10.382   6.290 -0.0635 -0.0323  0.1398
 5301SOL    HW120359   7.169  10.361   6.206  0.5776  1.4386 -0.5618
 5301SOL    HW220360   7.295  10.337   6.286  0.2008  0.4938 -0.2422
 5302SOL     OW20361   1.077   8.904   5.409 -0.1317 -0.1500 -0.0903
 5302SOL    HW120362   1.051   8.996   5.415  0.7364  0.1935 -1.3529
 5302SOL    HW220363   1.146   8.895   5.475  1.1441  0.6233 -1.2645
 5303SOL     OW20364   2.348   2.364   6.352  0.2995 -0.0447 -0.1418
 5303SOL    HW120365   2.334   2.458   6.339 -0.7345 -0.2365 -0.5632
 5303SOL    HW220366   2.389   2.358   6.438 -1.2322  0.6919  0.6810
 5304SOL     OW20367   8.205   4.691   7.785  0.4737 -0.0802 -0.2723
 5304SOL    HW120368   8.289   4.649   7.804  1.1354  1.5448  0.5260
 5304SOL    HW220369   8.172   4.718   7.871 -1.3542 -1.5104 -0.4542
 5305SOL     OW20370   6.892   9.780   4.689 -0.0386  0.2854 -0.1752
 5305SOL    HW120371   6.884   9.807   4.781 -1.1125  2.9989 -0.9749
 5305SOL    HW220372   6.802   9.774   4.658  0.3247  1.4274 -1.5554
 5306SOL     OW20373   8.000   2.359   8.568  0.3760 -0.5839 -0.1958
 5306SOL    HW120374   7.916   2.404   8.566  0.1113 -1.0583  0.0340
 5306SOL    HW220375   8.062   2.420   8.527  0.0686  0.0621  0.3059
 5307SOL     OW20376   3.513   2.222   4.511 -0.2450  0.6239 -0.0853
 5307SOL    HW120377   3.533   2.165   4.437 -0.5214  1.9263 -1.2103
 5307SOL    HW220378   3.427   2.193   4.542 -0.2940  0.3083 -0.5112
 5308SOL     OW20379   9.806   9.140   3.625 -0.1818 -0.1148 -0.6951
 5308SOL    HW120380   9.888   9.144   3.575 -0.0449 -0.8674 -0.5404
 5308SOL    HW220381   9.814   9.060   3.677  0.2256  1.2655  1.4903
 5309SOL     OW20382   6.533  10.330   2.361  0.5509  0.1484  0.0781
 5309SOL    HW120383   6.604  10.337   2.298  0.6081  0.1727  0.1459
 5309SOL    HW220384   6.572  10.286   2.436  0.2142 -0.8980 -0.3285
 5310SOL     OW20385   4.303   4.870   7.809  0.6660 -0.4716  0.6223
 5310SOL    HW120386   4.257   4.898   7.888 -0.2992 -0.2824  0.0066
 5310SOL    HW220387   4.272   4.930   7.741  2.5769  0.2932  0.3749
 5311SOL     OW20388   8.610   7.032  10.625  0.3257 -0.2194 -0.1442
 5311SOL    HW120389   8.681   7.038  10.561 -0.4759 -2.2306 -1.3104
 5311SOL    HW220390   8.654   7.022  10.709  1.5737 -3.4982 -1.0370
 5312SOL     OW20391   4.058  10.185  10.039  0.2178 -0.2405 -0.1844
 5312SOL    HW120392   4.043  10.097  10.075  1.5125 -0.9024 -1.1945
 5312SOL    HW220393   4.151  10.201  10.053  0.0404  0.9056 -0.2125
 5313SOL     OW20394   5.787   3.542   6.100 -0.1678  0.1099 -0.1589
 5313SOL    HW120395   5.855   3.609   6.099 -0.5402  0.4787 -0.6678
 5313SOL    HW220396   5.729   3.564   6.027  0.8764 -1.9694 -1.7275
 5314SOL     OW20397   5.890   0.392   6.847  0.4805 -0.0975  0.1313
 5314SOL    HW120398   5.808   0.420   6.889 -0.0997  0.3669 -1.2580
 5314SOL    HW220399   5.898   0.299   6.870 -1.4615 -0.6800 -1.2392
 5315SOL     OW20400   6.264   7.850   6.983 -0.0748  0.1308 -0.4335
 5315SOL    HW120401   6.209   7.891   6.916  0.2625  1.8104  0.2540
 5315SOL    HW220402   6.354   7.868   6.954  0.0752  0.9558  0.4776
 5316SOL     OW20403   5.586   8.055  10.258  0.1685 -0.2520  0.5995
 5316SOL    HW120404   5.646   7.981  10.263 -0.8778 -1.3206 -1.4023
 5316SOL    HW220405   5.555   8.067  10.348  2.2057 -0.6081  1.4026
 5317SOL     OW20406   6.367   0.448   3.815 -0.0587 -0.7406 -0.5336
 5317SOL    HW120407   6.401   0.419   3.731 -0.2390  0.5801 -1.0810
 5317SOL    HW220408   6.379   0.372   3.873  0.5369 -1.4902 -1.6032
 5318SOL     OW20409   4.594   0.702   0.481  0.4326 -0.3639 -0.4760
 5318SOL    HW120410   4.661   0.685   0.548  0.8221  1.0870 -0.4711
 5318SOL    HW220411   4.513   0.668   0.519  0.4012  1.5416  1.3222
 5319SOL     OW20412   2.595   8.188   0.271 -0.0943  0.4660 -0.5350
 5319SOL    HW120413   2.545   8.156   0.195 -1.3579 -0.3771  0.5962
 5319SOL    HW220414   2.568   8.279   0.280 -2.1791 -0.1911  0.5561
 5320SOL     OW20415   1.545   0.024   1.301  0.3175 -0.1610 -0.5037
 5320SOL    HW120416   1.496   0.096   1.339  1.2397  1.1978 -1.7964
 5320SOL    HW220417   1.612   0.002   1.367  0.1424  0.2814 -0.1801
 5321SOL     OW20418   5.094   7.978   5.955 -0.4292 -0.4062  0.4871
 5321SOL    HW120419   5.001   7.970   5.976 -0.6911 -0.6031 -0.6593
 5321SOL    HW220420   5.127   7.888   5.954 -0.3426 -0.3738  0.3870
 5322SOL     OW20421   3.821   6.791   8.561 -0.3213 -0.1477 -0.5377
 5322SOL    HW120422   3.863   6.739   8.493  0.8810  0.3253 -0.1896
 5322SOL    HW220423   3.889   6.853   8.589 -1.0988  0.3051  0.4086
 5323SOL     OW20424   6.131   4.443   8.151  0.1305  0.2933  0.2169
 5323SOL    HW120425   6.054   4.460   8.097 -0.1549  0.1842  0.5839
 5323SOL    HW220426   6.169   4.529   8.169  0.9608  0.2579 -1.2027
 5324SOL     OW20427   5.747   9.406   7.602 -0.1588  0.1482 -0.4344
 5324SOL    HW120428   5.758   9.452   7.518  0.1897 -1.6166 -1.4231
 5324SOL    HW220429   5.837   9.384   7.628 -0.3593 -1.4761 -0.9360
 5325SOL     OW20430   5.098   7.775   5.230 -0.5398 -0.4376  0.2967
 5325SOL    HW120431   5.166   7.715   5.198  1.9722  0.7435  2.9821
 5325SOL    HW220432   5.055   7.807   5.151  2.1326 -1.1687 -1.5848
 5326SOL     OW20433   2.859   5.189   2.359 -0.3923 -0.0292  0.1120
 5326SOL    HW120434   2.803   5.256   2.320 -2.5039 -3.0379 -2.5213
 5326SOL    HW220435   2.938   5.189   2.304 -1.4324 -1.2314 -1.4440
 5327SOL     OW20436  10.136  10.760   5.664 -0.0279 -0.1913  0.5268
 5327SOL    HW120437  10.169  10.698   5.729 -1.0273  0.0976  1.3190
 5327SOL    HW220438  10.067  10.809   5.709 -0.2608  0.4955 -0.5357
 5328SOL     OW20439   3.713   1.509   4.927  0.2633 -0.0024  0.0993
 5328SOL    HW120440   3.664   1.579   4.884  0.0701  0.8314  1.5936
 5328SOL    HW220441   3.802   1.544   4.934 -0.3079  1.1263  2.8589
 5329SOL     OW20442   8.297   6.325   3.357  0.2642 -0.1524  0.0276
 5329SOL    HW120443   8.321   6.247   3.306  0.4620 -0.5567  0.7268
 5329SOL    HW220444   8.207   6.309   3.384 -0.2630  0.6058 -1.1808
 5330SOL     OW20445  10.865   5.423   7.176 -0.4158 -0.1466  0.5248
 5330SOL    HW120446  10.957   5.429   7.202 -0.3859  0.2225  0.3340
 5330SOL    HW220447  10.862   5.350   7.114 -0.3672 -0.5841  1.0350
 5331SOL     OW20448   4.093   3.703   2.965  0.1576 -0.0544 -0.0539
 5331SOL    HW120449   4.058   3.665   2.885  2.8247 -0.5221 -1.1073
 5331SOL    HW220450   4.116   3.628   3.020  0.0030  0.2188  0.3901
 5332SOL     OW20451   2.903   6.512   9.468  0.4020  0.3848 -0.4485
 5332SOL    HW120452   2.912   6.443   9.535  1.5930  0.9250 -0.0189
 5332SOL    HW220453   2.944   6.474   9.390  1.2051  0.6568 -0.1658
 5333SOL     OW20454   7.786   7.273   8.957  0.1122 -0.0280 -0.2742
 5333SOL    HW120455   7.822   7.295   8.871 -0.1287  0.5413 -0.2336
 5333SOL    HW220456   7.696   7.305   8.954  0.2682  0.4843  0.3804
 5334SOL     OW20457   8.328   3.680   5.867  0.1297 -0.6687 -0.1493
 5334SOL    HW120458   8.274   3.652   5.794  0.6106 -1.7905 -0.1027
 5334SOL    HW220459   8.350   3.771   5.848 -2.7573  0.2301  0.4443
 5335SOL     OW20460   5.455   2.763   6.680  0.2578 -0.1799 -0.0615
 5335SOL    HW120461   5.426   2.676   6.707  0.0765 -0.0857  0.0459
 5335SOL    HW220462   5.531   2.746   6.624  0.4407 -0.3919  0.2460
 5336SOL     OW20463   4.689   5.883   4.021 -0.4180  0.4758  1.0084
 5336SOL    HW120464   4.703   5.845   3.934 -0.6302 -0.6575  1.4554
 5336SOL    HW220465   4.609   5.935   4.011  0.9381  2.5517 -0.1312
 5337SOL     OW20466   1.424   1.663   3.021 -0.5339 -0.5626 -0.4001
 5337SOL    HW120467   1.491   1.596   3.037 -2.1418 -2.2375 -0.3238
 5337SOL    HW220468   1.374   1.667   3.103 -0.4646  0.7855 -0.3991
 5338SOL     OW20469   9.042   7.101   8.032  0.8428  0.0949 -0.4775
 5338SOL    HW120470   9.052   7.006   8.019 -0.1234 -0.3233  1.3713
 5338SOL    HW220471   9.115   7.125   8.089  0.9515  0.4352 -0.7544
 5339SOL     OW20472   4.501   6.078   8.732  0.1661 -0.2307 -0.6024
 5339SOL    HW120473   4.407   6.096   8.739  0.3013  1.1162 -1.7160
 5339SOL    HW220474   4.508   6.010   8.665  0.0715  1.1251 -2.0408
 5340SOL     OW20475   7.886   6.985  10.267 -0.3540 -0.3749 -0.5198
 5340SOL    HW120476   7.905   7.073  10.234 -0.6963 -0.1814 -0.2068
 5340SOL    HW220477   7.799   6.993  10.306  1.4284  0.4076  3.9085
 5341SOL     OW20478   2.300   2.387   0.418 -0.3181  0.3215  0.0008
 5341SOL    HW120479   2.247   2.415   0.493 -1.9588 -2.7485  0.1692
 5341SOL    HW220480   2.240   2.335   0.365  2.0429 -1.6989 -0.8754
 5342SOL     OW20481   3.604   0.053   4.326  0.5394 -0.0423  0.0773
 5342SOL    HW120482   3.600   0.006   4.243 -1.0972 -0.3438  0.3002
 5342SOL    HW220483   3.625  -0.014   4.391  1.0344  0.0532  0.0189
 5343SOL     OW20484   6.585  10.908   0.950  0.1901 -0.0080  0.3988
 5343SOL    HW120485   6.574  10.986   0.895  1.4245  0.9114  1.4029
 5343SOL    HW220486   6.679  10.887   0.943 -0.5420 -3.2608 -2.2402
 5344SOL     OW20487   7.209   6.970   0.563  0.0734  0.3768 -0.2000
 5344SOL    HW120488   7.287   6.932   0.523  0.1198 -0.9637  1.1011
 5344SOL    HW220489   7.243   7.025   0.634 -0.0790  1.7742 -1.1490
 5345SOL     OW20490   8.731   2.301   4.264 -0.2792  0.3413 -0.1798
 5345SOL    HW120491   8.720   2.377   4.320 -2.1681  1.1723 -1.5737
 5345SOL    HW220492   8.755   2.337   4.179  0.0750 -0.7226 -0.5451
 5346SOL     OW20493   5.390   8.615   9.751  0.2543 -0.0465  0.1800
 5346SOL    HW120494   5.410   8.558   9.677  0.3326  1.4686 -1.0050
 5346SOL    HW220495   5.296   8.604   9.765 -0.2815  1.5060 -1.8093
 5347SOL     OW20496   5.735   4.636   1.201  0.1434  0.4490 -0.0480
 5347SOL    HW120497   5.661   4.633   1.261  1.1594  1.3474  1.3180
 5347SOL    HW220498   5.711   4.703   1.136 -0.8323 -0.3071 -0.4873
 5348SOL     OW20499   9.365   0.575  10.751  0.3291  0.1203  0.6359
 5348SOL    HW120500   9.381   0.602  10.841  2.1028  1.5267 -0.0197
 5348SOL    HW220501   9.329   0.653  10.709 -0.6102 -0.5618  0.1499
 5349SOL     OW20502   8.641   2.516   4.421  0.0066 -0.0513 -0.1285
 5349SOL    HW120503   8.638   2.480   4.510  0.3269  1.0194  0.3347
 5349SOL    HW220504   8.551   2.545   4.405  0.0133  0.0209 -0.0399
 5350SOL     OW20505   1.784   4.234  10.980 -0.0710 -0.0501 -0.4187
 5350SOL    HW120506   1.877   4.250  10.967 -0.3477  2.5124  0.2407
 5350SOL    HW220507   1.778   4.141  11.001  2.1628 -0.5651 -1.8326
 5351SOL     OW20508   3.739   2.318   7.757 -0.4128 -0.0363 -0.0514
 5351SOL    HW120509   3.722   2.296   7.665  0.9978  1.0957 -0.6198
 5351SOL    HW220510   3.712   2.240   7.805 -0.7234 -0.8519 -1.4662
 5352SOL     OW20511  10.640   2.239   7.205  0.1168 -0.3194  0.1453
 5352SOL    HW120512  10.699   2.209   7.135  1.7997  0.4987  1.1445
 5352SOL    HW220513  10.662   2.183   7.279  0.8662  1.0895  1.0261
 5353SOL     OW20514   9.555   3.412   7.231 -0.3377  0.3317 -0.5737
 5353SOL    HW120515   9.638   3.441   7.193 -0.6931  0.2994 -1.4174
 5353SOL    HW220516   9.493   3.416   7.158 -0.9111 -0.3538 -0.1408
 5354SOL     OW20517   3.807   4.665   5.885  0.5381 -0.2366 -0.4302
 5354SOL    HW120518   3.727   4.625   5.851  0.7681 -2.2828  1.2289
 5354SOL    HW220519   3.866   4.667   5.809 -0.6997  0.3428 -1.4178
 5355SOL     OW20520   8.463   3.698   3.153 -0.3428  0.3591  0.3457
 5355SOL    HW120521   8.547   3.728   3.119 -0.7066  1.8626  0.7028
 5355SOL    HW220522   8.453   3.610   3.117  1.6388 -0.0909  0.7753
 5356SOL     OW20523  10.973   9.305   0.177 -0.0750 -0.1532 -0.0937
 5356SOL    HW120524  11.010   9.320   0.264 -0.1421 -0.1197 -0.0705
 5356SOL    HW220525  10.890   9.354   0.178 -1.3103 -2.1332  0.6966
 5357SOL     OW20526   8.951   8.102   4.862  0.1185 -0.4779 -0.0570
 5357SOL    HW120527   8.902   8.125   4.782 -1.4756 -2.3785  0.2866
 5357SOL    HW220528   8.885   8.107   4.932  0.9856 -0.9101  0.8063
 5358SOL     OW20529  10.702   6.089  10.650 -0.6606  0.1895  0.2944
 5358SOL    HW120530  10.631   6.074  10.587 -0.8280 -0.9616  0.7208
 5358SOL    HW220531  10.717   6.003  10.689  0.0756  0.6964  1.1604
 5359SOL     OW20532  10.327   9.631   8.827 -0.2791  0.4257  0.0973
 5359SOL    HW120533  10.309   9.723   8.810  0.8324  0.7632  0.5999
 5359SOL    HW220534  10.388   9.605   8.758 -1.3369 -0.2265 -0.6252
 5360SOL     OW20535   7.294   6.233   5.233  0.0499 -0.3068  0.5189
 5360SOL    HW120536   7.308   6.325   5.255  0.2548 -0.0526 -0.5720
 5360SOL    HW220537   7.203   6.227   5.206  0.5924  0.0964 -1.6057
 5361SOL     OW20538   5.552   8.995   6.129  0.7839  0.3439  0.2602
 5361SOL    HW120539   5.634   8.961   6.092  1.7303  1.8687  0.8528
 5361SOL    HW220540   5.543   8.948   6.213  0.4251 -0.6457 -0.3128
 5362SOL     OW20541   6.225   4.910   8.596 -0.0657 -0.5496 -0.4228
 5362SOL    HW120542   6.146   4.947   8.636  0.1242 -0.7441  0.1321
 5362SOL    HW220543   6.248   4.835   8.651  1.0502  0.0640 -0.0200
 5363SOL     OW20544   3.470   3.564   4.810 -0.0264 -0.2368  0.0752
 5363SOL    HW120545   3.403   3.603   4.755  0.0741  0.9922  0.7878
 5363SOL    HW220546   3.454   3.600   4.897  1.6656  0.2362  0.2277
 5364SOL     OW20547   0.052   2.327   4.083  0.5460  0.1475 -0.2087
 5364SOL    HW120548   0.028   2.371   4.164  0.1302  0.6479 -0.5939
 5364SOL    HW220549   0.060   2.398   4.019 -2.0419 -0.4397 -1.3119
 5365SOL     OW20550   8.732   1.294   5.919  0.0136  0.3822 -0.3617
 5365SOL    HW120551   8.641   1.321   5.936  0.1475  0.0142  1.0702
 5365SOL    HW220552   8.740   1.298   5.824 -1.0258  1.9808 -0.4370
 5366SOL     OW20553   2.044   0.316   1.752 -0.0765  0.0336 -0.0294
 5366SOL    HW120554   1.954   0.345   1.769 -0.0178 -0.0006  0.3367
 5366SOL    HW220555   2.080   0.384   1.694 -0.2023  0.2679  0.1631
 5367SOL     OW20556   9.294   0.934   3.095  0.1522  0.3256  0.0829
 5367SOL    HW120557   9.365   0.936   3.159  0.3794 -1.3920 -0.0761
 5367SOL    HW220558   9.254   0.848   3.105 -0.8875  0.6551 -0.9448
 5368SOL     OW20559   2.688   0.698   5.751 -0.2235 -0.7291 -0.0819
 5368SOL    HW120560   2.626   0.769   5.741 -0.4006 -0.7014  1.1350
 5368SOL    HW220561   2.764   0.737   5.793  0.8655 -0.6534 -1.9707
 5369SOL     OW20562   2.536   0.401   7.883  0.5230  0.3748  0.2777
 5369SOL    HW120563   2.576   0.403   7.796  0.7290  0.8114  0.3815
 5369SOL    HW220564   2.484   0.321   7.883  1.1580 -0.0494  0.0344
 5370SOL     OW20565   0.236   0.429   1.869 -0.4859  0.0668  0.6382
 5370SOL    HW120566   0.189   0.502   1.829 -0.4506  0.3180  1.0483
 5370SOL    HW220567   0.314   0.417   1.814  0.2036  1.2080  1.3225
 5371SOL     OW20568   4.196   5.379   9.722  0.0050 -0.5463  0.3409
 5371SOL    HW120569   4.199   5.449   9.657 -0.5926 -1.7418 -1.0063
 5371SOL    HW220570   4.288   5.355   9.737  0.2755  1.0105  1.3989
 5372SOL     OW20571   7.684   2.821  10.818  0.3485 -0.0067  0.2632
 5372SOL    HW120572   7.618   2.765  10.859 -0.8651 -0.2779 -1.9109
 5372SOL    HW220573   7.644   2.849  10.736  2.1919  1.4583 -0.2021
 5373SOL     OW20574   3.095   3.573   5.566  0.3988  0.3157  0.0957
 5373SOL    HW120575   3.144   3.525   5.632 -0.9141  0.1651  1.0031
 5373SOL    HW220576   3.105   3.521   5.486  2.0696  0.5458  0.1366
 5374SOL     OW20577   8.206   7.695   1.238 -0.1804 -0.3461  0.0321
 5374SOL    HW120578   8.282   7.659   1.193 -1.8312 -1.5040 -1.9634
 5374SOL    HW220579   8.198   7.643   1.318 -0.7406 -2.4215 -1.3294
 5375SOL     OW20580   9.799   2.806   4.361 -0.0033  0.0479 -0.4148
 5375SOL    HW120581   9.744   2.882   4.341 -0.8776 -0.1066  1.2316
 5375SOL    HW220582   9.779   2.743   4.291 -0.3770  0.7701 -0.9703
 5376SOL     OW20583   1.384   8.361   5.292 -0.3062 -0.5104 -0.2542
 5376SOL    HW120584   1.430   8.356   5.376 -3.7564 -3.2113  1.7339
 5376SOL    HW220585   1.314   8.425   5.307 -0.4858 -0.4328 -1.3708
 5377SOL     OW20586  10.829   2.787   4.811  0.2369 -0.5832  0.0823
 5377SOL    HW120587  10.765   2.718   4.797 -0.0843 -0.1992 -0.4071
 5377SOL    HW220588  10.849   2.819   4.723 -0.2811  0.5268  0.3445
 5378SOL     OW20589   6.018   5.352   9.881  0.1343  0.2760  0.2789
 5378SOL    HW120590   6.021   5.448   9.878  1.1055  0.2461 -0.1716
 5378SOL    HW220591   6.022   5.331   9.974  0.1289  0.6758  0.3716
 5379SOL     OW20592   9.848   8.888   9.683  0.4052  0.0558  0.5453
 5379SOL    HW120593   9.893   8.967   9.714  0.9286 -0.6032  1.4895
 5379SOL    HW220594   9.758   8.899   9.713  0.0515  1.0465 -0.7476
 5380SOL     OW20595   0.006  10.153  10.421 -0.2121  0.1751 -0.2118
 5380SOL    HW120596   0.009  10.064  10.386  0.6251 -1.0801  2.7736
 5380SOL    HW220597   0.095  10.185  10.412  0.0365 -0.1996  0.7778
 5381SOL     OW20598   6.173   8.895  10.388  0.0314 -0.1073 -0.4157
 5381SOL    HW120599   6.128   8.846  10.319 -0.5513 -0.7269  0.3868
 5381SOL    HW220600   6.262   8.906  10.354  0.0935 -1.4427 -0.7737
 5382SOL     OW20601  10.101   7.877   1.821 -0.0659  0.4824 -0.8425
 5382SOL    HW120602  10.157   7.941   1.778  2.1099 -0.3744  0.5260
 5382SOL    HW220603  10.085   7.913   1.908  1.3625 -0.8381  0.0229
 5383SOL     OW20604   4.195   3.635   3.628  0.0793 -0.3519 -0.0785
 5383SOL    HW120605   4.268   3.682   3.670  0.0137 -0.9824  0.7687
 5383SOL    HW220606   4.235   3.589   3.555  0.1691  0.9029 -0.8436
 5384SOL     OW20607   7.934   3.002   7.341 -0.3422 -0.1538 -0.0796
 5384SOL    HW120608   7.963   2.948   7.415  0.0005 -0.2122 -0.2547
 5384SOL    HW220609   7.849   3.035   7.368 -0.8859 -1.3559 -0.2504
 5385SOL     OW20610   2.127   1.892   7.794  0.2582 -0.1977  0.5934
 5385SOL    HW120611   2.198   1.867   7.853  1.3038 -0.5210 -0.7257
 5385SOL    HW220612   2.167   1.891   7.707 -0.4194  3.1841  0.0972
 5386SOL     OW20613   8.254   6.552  10.628 -0.1288  0.2783 -0.0274
 5386SOL    HW120614   8.231   6.544  10.720 -1.5074  2.1347 -0.1628
 5386SOL    HW220615   8.305   6.634  10.623  0.7080 -0.2651 -0.7950
 5387SOL     OW20616   4.274   6.764   3.973 -0.2556 -0.1465 -0.0009
 5387SOL    HW120617   4.366   6.789   3.973 -0.7992  2.1099 -1.2308
 5387SOL    HW220618   4.275   6.669   3.963  1.9259 -0.3069  1.2135
 5388SOL     OW20619   2.882   5.348   7.892 -0.0169 -0.0224  0.1225
 5388SOL    HW120620   2.850   5.407   7.960  0.6722 -0.2124  0.6290
 5388SOL    HW220621   2.813   5.283   7.881 -0.2780  0.2053  0.4003
 5389SOL     OW20622   3.362   2.702   6.224 -0.3085  0.5851  0.0569
 5389SOL    HW120623   3.404   2.724   6.307 -0.1634  0.1348  0.1078
 5389SOL    HW220624   3.272   2.732   6.233 -0.0552  1.3653  0.0304
 5390SOL     OW20625   5.768   7.242   2.013  0.3480  0.2662  0.3958
 5390SOL    HW120626   5.715   7.297   2.070 -1.0235 -0.6494  0.0691
 5390SOL    HW220627   5.725   7.156   2.016  0.1964  0.1882 -2.0271
 5391SOL     OW20628   0.759   2.736   9.488 -0.2053  0.4396 -0.2244
 5391SOL    HW120629   0.743   2.778   9.404 -2.7870 -1.1660 -0.6641
 5391SOL    HW220630   0.678   2.749   9.537 -0.0960 -1.6485  0.6090
 5392SOL     OW20631   9.838   3.494   1.042 -0.2194 -0.0887  0.6294
 5392SOL    HW120632   9.884   3.441   0.978  1.2345  2.5173 -0.6585
 5392SOL    HW220633   9.881   3.580   1.038 -1.0860  0.6669  4.0035
 5393SOL     OW20634   7.716   8.412   0.655 -0.1334  0.3516  0.0311
 5393SOL    HW120635   7.630   8.390   0.692 -0.1194 -0.9917 -0.6812
 5393SOL    HW220636   7.745   8.488   0.706 -2.0373  1.2932 -0.1789
 5394SOL     OW20637   3.185   4.037   6.043 -0.4157  0.1592 -0.1025
 5394SOL    HW120638   3.268   4.053   5.997 -0.9661  0.2483 -1.0834
 5394SOL    HW220639   3.132   4.114   6.025 -0.8310 -0.0335  0.2639
 5395SOL     OW20640   1.179   7.224   5.723 -0.1729 -0.2385 -0.1167
 5395SOL    HW120641   1.144   7.187   5.642  0.5275  2.7926 -1.9599
 5395SOL    HW220642   1.273   7.226   5.710 -0.1690  2.1072 -0.1873
 5396SOL     OW20643   2.971  10.029   0.968 -0.1333  0.1435  0.2068
 5396SOL    HW120644   2.914  10.104   0.984 -1.7376 -1.3110  1.8916
 5396SOL    HW220645   3.054  10.052   1.009 -0.0306  1.6046 -0.7387
 5397SOL     OW20646   3.789   2.959   1.171 -0.0646 -0.5455 -0.5419
 5397SOL    HW120647   3.854   2.983   1.237 -0.9665  1.4026 -0.2947
 5397SOL    HW220648   3.718   2.920   1.221 -0.6189  0.6557 -0.3681
 5398SOL     OW20649   7.222   6.999   5.820 -0.0713 -0.5098  0.1830
 5398SOL    HW120650   7.172   6.942   5.879 -0.7971  1.5970  1.6970
 5398SOL    HW220651   7.293   6.943   5.788 -2.4453 -3.1530 -0.8320
 5399SOL     OW20652   4.475   5.007   6.028  0.0425 -0.3238 -0.5594
 5399SOL    HW120653   4.511   5.084   5.984 -0.5826 -0.5207 -1.4347
 5399SOL    HW220654   4.532   4.935   6.000 -0.0627 -0.3713 -0.6498
 5400SOL     OW20655   8.571   4.126   3.079 -0.0811  0.7414  0.6707
 5400SOL    HW120656   8.501   4.083   3.127 -0.3322 -0.7607 -0.9555
 5400SOL    HW220657   8.526   4.184   3.018 -0.1988 -2.1659 -2.2619
 5401SOL     OW20658   1.468   9.467   5.238  0.0604 -0.0214 -0.2773
 5401SOL    HW120659   1.426   9.538   5.286 -2.6449 -1.3307 -0.5247
 5401SOL    HW220660   1.406   9.446   5.168  1.9765 -0.9290 -1.7873
 5402SOL     OW20661   8.520  10.044   9.208  0.0228  0.3486  0.0073
 5402SOL    HW120662   8.567   9.973   9.251  2.1770  0.8856 -1.3344
 5402SOL    HW220663   8.474  10.089   9.279  1.6667 -0.1117  1.4160
 5403SOL     OW20664   0.265   3.402   2.811  0.5398 -0.2073 -0.0812
 5403SOL    HW120665   0.340   3.392   2.752  0.3211  1.5004 -0.7357
 5403SOL    HW220666   0.302   3.442   2.890  0.5899 -1.0224  0.3086
 5404SOL     OW20667   7.275   3.931   4.905  0.4443  0.0022  0.0633
 5404SOL    HW120668   7.187   3.964   4.922  1.2721  1.0895  2.6640
 5404SOL    HW220669   7.268   3.887   4.820 -1.8013  2.9129 -1.4275
 5405SOL     OW20670   2.674   5.348   4.496  0.8327  0.4699 -0.0161
 5405SOL    HW120671   2.675   5.332   4.590 -0.3461 -1.0797 -0.2481
 5405SOL    HW220672   2.735   5.421   4.484  2.3018 -0.4006  1.7422
 5406SOL     OW20673   0.340   9.749   8.729  0.2488  0.0376  0.1122
 5406SOL    HW120674   0.332   9.665   8.775 -0.4186  0.1856  0.2709
 5406SOL    HW220675   0.322   9.814   8.796  3.7290  0.4981  0.7963
 5407SOL     OW20676  10.030   7.614  10.297  0.1485  0.1568  0.0291
 5407SOL    HW120677  10.070   7.699  10.317  1.1433  0.2830 -2.1446
 5407SOL    HW220678  10.102   7.551  10.304  0.4462  0.1432 -2.2973
 5408SOL     OW20679   5.873   5.392   3.032 -0.2958 -0.6774  0.6199
 5408SOL    HW120680   5.812   5.442   3.087 -0.5206 -0.7705  0.4558
 5408SOL    HW220681   5.958   5.403   3.075 -0.2691  0.1946  0.3461
 5409SOL     OW20682   7.056   2.614   8.078  0.0130 -0.2883 -0.4195
 5409SOL    HW120683   7.149   2.608   8.099 -0.2411 -0.6749  0.7067
 5409SOL    HW220684   7.033   2.705   8.096  0.4486  0.1742 -2.0386
 5410SOL     OW20685   3.420   8.285   4.821 -0.4992 -0.3423  0.4210
 5410SOL    HW120686   3.344   8.228   4.813  0.0767 -1.2385  1.1345
 5410SOL    HW220687   3.489   8.229   4.856  0.2759  0.6370  0.5277
 5411SOL     OW20688   6.274   3.764   5.851  0.6110  0.7262  0.0442
 5411SOL    HW120689   6.267   3.844   5.902 -0.9577  0.3615  0.4320
 5411SOL    HW220690   6.197   3.713   5.874  0.3629  0.1064 -1.9574
 5412SOL     OW20691   6.383   7.417   2.408  0.2069  0.3939 -0.9315
 5412SOL    HW120692   6.432   7.419   2.491  2.3167 -0.5885 -2.0825
 5412SOL    HW220693   6.339   7.502   2.405 -0.1804  0.3405  1.3191
 5413SOL     OW20694   4.522   1.317   4.060 -0.1776  0.7033 -0.0383
 5413SOL    HW120695   4.578   1.377   4.110  3.8004 -2.0980 -0.6000
 5413SOL    HW220696   4.513   1.241   4.117 -1.7650  0.2403 -0.8434
 5414SOL     OW20697   6.965   8.574   3.096 -0.5023  0.2166  0.0100
 5414SOL    HW120698   6.999   8.638   3.159  0.4699 -0.4688  0.2221
 5414SOL    HW220699   6.972   8.618   3.011  0.8560  0.1522  0.0621
 5415SOL     OW20700   1.373   3.143   1.568 -0.7278 -0.2411  0.1048
 5415SOL    HW120701   1.362   3.237   1.582  0.6665  0.5561 -3.1094
 5415SOL    HW220702   1.467   3.132   1.553 -0.9645 -2.0171 -0.2677
 5416SOL     OW20703   9.777  10.089   5.954 -0.9554 -0.5621  0.0122
 5416SOL    HW120704   9.734  10.004   5.962 -1.3585 -0.3980 -0.3632
 5416SOL    HW220705   9.730  10.145   6.015 -2.6280  0.1384 -1.8323
 5417SOL     OW20706   8.893   2.037   0.741  0.0938  0.2296 -0.2425
 5417SOL    HW120707   8.952   1.980   0.792 -1.2761 -1.3817 -0.3805
 5417SOL    HW220708   8.874   2.109   0.800  0.1947 -0.5457  0.7751
 5418SOL     OW20709   0.560   3.525   5.456 -0.0664 -0.1391 -0.2273
 5418SOL    HW120710   0.504   3.600   5.436 -0.1221 -0.1375 -0.0707
 5418SOL    HW220711   0.526   3.491   5.539 -0.6357 -0.9168 -0.7722
 5419SOL     OW20712   7.154   6.075   8.890 -0.2769  0.0494  0.5976
 5419SOL    HW120713   7.142   6.165   8.859  0.4150 -0.5733 -1.7330
 5419SOL    HW220714   7.107   6.022   8.826  2.9518 -1.4854 -0.7411
 5420SOL     OW20715   3.523   0.679  10.181  0.7740 -0.4252  0.3076
 5420SOL    HW120716   3.572   0.672  10.263 -1.9189 -0.2709  2.0194
 5420SOL    HW220717   3.501   0.772  10.175  0.4070 -0.5494 -0.2823
 5421SOL     OW20718   9.533   0.361   8.963  0.1450  0.5545 -0.0558
 5421SOL    HW120719   9.566   0.279   9.000 -0.6879 -0.3606 -1.2430
 5421SOL    HW220720   9.607   0.398   8.916  0.1112 -0.4009 -0.9103
 5422SOL     OW20721   4.731  10.872   2.076  0.0907  0.1026 -0.2877
 5422SOL    HW120722   4.777  10.953   2.055  1.7134 -0.9036 -0.8954
 5422SOL    HW220723   4.797  10.803   2.061 -1.9336 -1.5520 -2.2502
 5423SOL     OW20724   4.156   2.766   2.690 -0.2237 -0.2446 -0.0267
 5423SOL    HW120725   4.237   2.730   2.654 -0.4189 -0.2358 -0.4761
 5423SOL    HW220726   4.180   2.855   2.719 -0.1064 -0.1890 -0.2924
 5424SOL     OW20727   2.904   7.286   0.407 -0.1758  0.3211 -0.0688
 5424SOL    HW120728   2.915   7.292   0.502  0.1268  0.7619 -0.1258
 5424SOL    HW220729   2.810   7.289   0.393 -0.3391 -1.5155  0.3192
 5425SOL     OW20730   0.876   4.384   7.255  0.0072 -0.5116 -0.1748
 5425SOL    HW120731   0.969   4.392   7.233 -0.2898 -1.2159 -1.8702
 5425SOL    HW220732   0.839   4.471   7.237  0.2920 -0.2670  0.3838
 5426SOL     OW20733   8.871   7.799   2.954  0.5155 -0.0140 -0.0361
 5426SOL    HW120734   8.783   7.800   2.917 -0.2914  2.7769  1.6738
 5426SOL    HW220735   8.862   7.756   3.039  0.7893  0.2564  0.1344
 5427SOL     OW20736   6.300   3.537   3.993  0.5639  0.6569  0.8072
 5427SOL    HW120737   6.318   3.628   3.970  1.8376  0.3000  0.3031
 5427SOL    HW220738   6.219   3.516   3.948  1.3111  0.9605 -0.7281
 5428SOL     OW20739   0.633   0.172   1.487 -0.1239 -0.4599  0.4082
 5428SOL    HW120740   0.633   0.268   1.485  2.5337 -0.3805 -1.6159
 5428SOL    HW220741   0.660   0.149   1.576 -1.2491  0.5948  1.0577
 5429SOL     OW20742   3.353  10.178   0.037  0.1786  0.3379  0.2459
 5429SOL    HW120743   3.378  10.180  -0.055  0.6015  0.9550  0.3730
 5429SOL    HW220744   3.325  10.087   0.052  0.0516  0.2495 -0.4974
 5430SOL     OW20745   9.424   6.049   0.249  0.2398 -0.1244 -0.9136
 5430SOL    HW120746   9.438   6.024   0.158 -0.8829 -0.5326 -0.9922
 5430SOL    HW220747   9.442   5.970   0.299  2.9364  0.6262 -0.5345
 5431SOL     OW20748   0.627   2.221  10.690  0.0267  0.0600 -0.0676
 5431SOL    HW120749   0.644   2.129  10.672 -1.1323 -0.4018  1.0315
 5431SOL    HW220750   0.713   2.257  10.713  0.3795 -0.9371  0.2417
 5432SOL     OW20751   2.378   7.267   4.816 -0.2237  0.3051 -0.3294
 5432SOL    HW120752   2.373   7.332   4.887  1.5897 -0.9214  1.0139
 5432SOL    HW220753   2.289   7.231   4.811 -0.2993  0.0666  1.7389
 5433SOL     OW20754   2.812   1.700   7.572 -0.5187 -0.4066  0.1160
 5433SOL    HW120755   2.846   1.612   7.588  2.9076  0.6399 -0.4696
 5433SOL    HW220756   2.878   1.758   7.612 -0.0773  1.9277 -3.5260
 5434SOL     OW20757   2.948   3.422   8.830 -0.2309  0.1507  0.5600
 5434SOL    HW120758   3.016   3.443   8.767 -0.5617 -1.2449 -0.2958
 5434SOL    HW220759   2.891   3.499   8.831  0.7143  0.8600  0.4292
 5435SOL     OW20760   8.745   3.000   1.089 -0.4298  0.1820 -0.3028
 5435SOL    HW120761   8.723   2.940   1.160 -0.8776  0.1248 -0.4813
 5435SOL    HW220762   8.822   2.960   1.047 -0.2151  0.1754  0.0960
 5436SOL     OW20763   7.109   3.910   6.330  0.2857 -0.2163  0.0212
 5436SOL    HW120764   7.127   3.922   6.236  1.0808 -1.3605  0.0085
 5436SOL    HW220765   7.037   3.847   6.333  0.3774 -0.3126  0.1864
 5437SOL     OW20766   1.717   4.482   1.491  0.1435  0.2913  0.0005
 5437SOL    HW120767   1.674   4.513   1.570  2.0467  0.2602  1.1004
 5437SOL    HW220768   1.776   4.552   1.465  0.3448 -0.1412 -0.7714
 5438SOL     OW20769   2.737   1.810   8.879 -0.9379 -0.4432 -0.0934
 5438SOL    HW120770   2.690   1.726   8.881 -2.1381  0.1990 -0.3761
 5438SOL    HW220771   2.670   1.875   8.901 -0.5041  0.6578 -1.8918
 5439SOL     OW20772   9.189   9.768   0.530 -0.3617  0.4266 -0.2647
 5439SOL    HW120773   9.252   9.742   0.597 -0.1197 -1.0969 -1.0327
 5439SOL    HW220774   9.134   9.690   0.516  0.2444  0.3126 -2.5273
 5440SOL     OW20775   6.665   3.544   0.580 -0.1601 -0.1520  0.5233
 5440SOL    HW120776   6.659   3.637   0.602  0.2801 -0.1017  0.4446
 5440SOL    HW220777   6.700   3.503   0.659  0.6913 -0.0854  0.1845
 5441SOL     OW20778   7.739   8.160  10.142  0.0828 -0.0498 -0.0675
 5441SOL    HW120779   7.747   8.229  10.076  1.1431 -0.0359  0.0615
 5441SOL    HW220780   7.730   8.079  10.091 -0.1251  0.0734 -0.2263
 5442SOL     OW20781   9.850   2.813   8.517 -0.2863  0.0376  0.1363
 5442SOL    HW120782   9.799   2.777   8.590 -0.4978  0.3311  0.1368
 5442SOL    HW220783   9.938   2.778   8.529 -0.7676 -1.5041 -0.5659
 5443SOL     OW20784   8.398   3.737   4.551 -0.4312 -0.2393 -0.2519
 5443SOL    HW120785   8.305   3.729   4.529  0.0590  0.6203 -3.0258
 5443SOL    HW220786   8.400   3.740   4.647 -3.3819  1.0114 -0.1178
 5444SOL     OW20787   5.505   6.665   0.799  0.0077  0.2306  0.2291
 5444SOL    HW120788   5.566   6.648   0.871 -0.2155 -1.2955  0.0939
 5444SOL    HW220789   5.561   6.684   0.724  0.3712 -1.3732  0.0509
 5445SOL     OW20790   1.049   8.329   1.722  0.1110  0.6035 -0.0568
 5445SOL    HW120791   0.968   8.297   1.762  1.3189 -0.8831  1.3116
 5445SOL    HW220792   1.119   8.281   1.766  1.6474  0.1031 -2.8182
 5446SOL     OW20793  10.471   2.550   8.145  0.3258 -0.4738  0.1054
 5446SOL    HW120794  10.492   2.484   8.211 -1.0965  0.5643  1.6998
 5446SOL    HW220795  10.529   2.623   8.165 -0.7757  0.2237  0.9046
 5447SOL     OW20796   0.275   9.321  10.754 -0.2646 -0.0185 -0.1166
 5447SOL    HW120797   0.322   9.316  10.670 -2.6336  0.0483 -1.5333
 5447SOL    HW220798   0.232   9.407  10.752  0.1372  0.2502  1.4924
 5448SOL     OW20799   5.314   1.557   1.364  0.1594  0.4458  0.7624
 5448SOL    HW120800   5.306   1.634   1.420  2.2325 -0.0178  1.7742
 5448SOL    HW220801   5.351   1.489   1.420 -0.2222 -0.8695 -0.4921
 5449SOL     OW20802   8.759   8.902   7.279  0.2677  0.2572  0.5800
 5449SOL    HW120803   8.825   8.964   7.310 -0.1466  0.4176  1.1708
 5449SOL    HW220804   8.682   8.920   7.334 -1.4593  2.4044 -2.2630
 5450SOL     OW20805   9.313   3.418   4.445  0.1854  0.3111  0.1278
 5450SOL    HW120806   9.225   3.381   4.433  0.2525  0.0979  0.2719
 5450SOL    HW220807   9.368   3.341   4.463  0.0916  0.6018  1.7748
 5451SOL     OW20808   0.408   0.838   7.612  0.3408  0.3208  0.1954
 5451SOL    HW120809   0.331   0.802   7.567  0.8455  1.3125 -1.5429
 5451SOL    HW220810   0.380   0.847   7.703 -0.7866 -1.5958  0.1046
 5452SOL     OW20811  10.247   6.346   8.145  0.4695 -0.1913  0.3689
 5452SOL    HW120812  10.320   6.384   8.097  0.2858 -0.7072 -0.3321
 5452SOL    HW220813  10.186   6.317   8.077  0.5072 -1.5459  0.8778
 5453SOL     OW20814   7.082   6.348  10.162  0.0081 -0.4732  0.0668
 5453SOL    HW120815   7.017   6.417  10.175  0.5642 -0.4310  3.6092
 5453SOL    HW220816   7.162   6.394  10.138  0.1970  0.1312  1.7206
 5454SOL     OW20817  10.067   3.683   4.019  0.1690  0.3544  0.4978
 5454SOL    HW120818  10.158   3.707   4.003  0.3642 -0.6064  0.1267
 5454SOL    HW220819  10.031   3.664   3.933 -0.2632  0.3211  0.6827
 5455SOL     OW20820  10.846   7.738   0.314 -0.3322 -0.1967  0.0613
 5455SOL    HW120821  10.817   7.758   0.403  1.9258  0.8699  0.6507
 5455SOL    HW220822  10.809   7.652   0.295 -1.5903 -0.0606  1.6743
 5456SOL     OW20823   7.245   4.353   6.331  0.0053  0.3003 -0.6047
 5456SOL    HW120824   7.253   4.293   6.405  0.6544  0.2999 -0.6662
 5456SOL    HW220825   7.252   4.296   6.254 -1.7530  0.1572 -0.6923
 5457SOL     OW20826   6.701   6.344  10.624 -0.2909 -0.2086  0.1400
 5457SOL    HW120827   6.643   6.334  10.549 -1.6763 -2.4014  1.3854
 5457SOL    HW220828   6.643   6.364  10.698  1.1087  2.8286  0.5881
 5458SOL     OW20829   9.796   9.975   7.882 -0.0458 -0.2048 -0.1152
 5458SOL    HW120830   9.711   9.939   7.855  0.3838 -0.8831 -0.5968
 5458SOL    HW220831   9.827  10.023   7.806  0.2961 -0.4992 -0.1615
 5459SOL     OW20832   9.497   8.800  10.098  0.0184  0.1573 -0.1889
 5459SOL    HW120833   9.432   8.857  10.059 -0.2505  1.1784  1.6429
 5459SOL    HW220834   9.452   8.716  10.111 -0.6646  0.5828  0.2282
 5460SOL     OW20835   3.917   1.243   8.848  0.0042 -0.1451  0.3859
 5460SOL    HW120836   3.997   1.224   8.799 -0.6028  0.1998 -0.7793
 5460SOL    HW220837   3.874   1.158   8.858  1.5557 -0.7518  3.0461
 5461SOL     OW20838   3.317   9.752   8.835 -0.1551 -0.3602 -0.1717
 5461SOL    HW120839   3.288   9.834   8.796 -1.6415 -1.0267 -0.5758
 5461SOL    HW220840   3.400   9.772   8.877 -0.2255  1.2036 -0.7372
 5462SOL     OW20841   9.281   3.422  10.011  0.6053 -0.3604 -0.6217
 5462SOL    HW120842   9.278   3.506  10.056 -0.4194 -0.5551 -0.2961
 5462SOL    HW220843   9.247   3.439   9.924 -1.3059 -0.7510  0.0078
 5463SOL     OW20844   4.212   4.779   0.357 -0.1020 -0.1527  0.0988
 5463SOL    HW120845   4.140   4.737   0.311  0.5916 -2.0713  0.6795
 5463SOL    HW220846   4.208   4.745   0.446 -1.1264  3.1286  1.4658
 5464SOL     OW20847  10.468   8.158   3.544 -0.4714  0.0402 -0.9191
 5464SOL    HW120848  10.500   8.162   3.454  1.6110 -2.7312 -0.4657
 5464SOL    HW220849  10.381   8.119   3.537 -0.2061 -0.4338 -1.7523
 5465SOL     OW20850   8.826   7.230   2.050 -0.7749  0.0572  0.0384
 5465SOL    HW120851   8.778   7.291   1.994  0.9566 -0.3406 -2.0072
 5465SOL    HW220852   8.845   7.155   1.993  1.1394 -0.3422  1.0975
 5466SOL     OW20853  10.904   2.128   2.843 -0.2804  0.0111 -0.1274
 5466SOL    HW120854  11.000   2.130   2.848 -0.3056 -0.3087  0.5137
 5466SOL    HW220855  10.883   2.194   2.776  0.4581 -1.1253 -1.5502
 5467SOL     OW20856  10.982   1.908   6.354 -0.2973  0.2385  0.2874
 5467SOL    HW120857  10.908   1.953   6.312  0.2360  0.0320 -0.9008
 5467SOL    HW220858  11.022   1.857   6.284  1.5631  1.1102  0.6701
 5468SOL     OW20859   0.383   0.172  10.518 -0.0354  0.1501  0.2459
 5468SOL    HW120860   0.290   0.174  10.541  0.1575  0.2801  1.0564
 5468SOL    HW220861   0.421   0.245  10.567  0.6823 -0.5896  0.8341
 5469SOL     OW20862   5.137   8.909   5.681 -0.2449 -0.2232 -0.1561
 5469SOL    HW120863   5.222   8.886   5.719 -1.7078 -1.2543  2.8527
 5469SOL    HW220864   5.121   8.999   5.710 -0.2022 -0.0210 -0.7388
 5470SOL     OW20865   4.779  10.420   8.880  0.1503 -0.3658 -0.4132
 5470SOL    HW120866   4.812  10.407   8.791  3.4847  0.0430  0.6063
 5470SOL    HW220867   4.791  10.514   8.895  1.4508 -0.7237  1.0343
 5471SOL     OW20868   1.106   6.599  11.035 -0.1692 -0.3627 -0.4999
 5471SOL    HW120869   1.105   6.586  11.130 -2.4771 -0.6795 -0.4927
 5471SOL    HW220870   1.059   6.523  11.001 -1.8751  1.1216 -1.6357
 5472SOL     OW20871   2.392   0.994   3.992 -0.0152  0.4792  0.0159
 5472SOL    HW120872   2.305   0.989   4.031  0.0926  0.4923  0.2604
 5472SOL    HW220873   2.424   0.904   3.992 -0.7474  0.1831 -1.7450
 5473SOL     OW20874   1.490   5.599   1.078  0.4400 -0.1056 -0.0038
 5473SOL    HW120875   1.435   5.608   1.155 -1.4472 -0.9859 -1.1548
 5473SOL    HW220876   1.487   5.505   1.058 -1.2173  0.3886 -2.5171
 5474SOL     OW20877   3.986   6.168   2.826 -0.1779  0.4036  0.2735
 5474SOL    HW120878   4.034   6.221   2.890  1.9482 -0.2426 -0.6818
 5474SOL    HW220879   3.940   6.103   2.879 -2.2021  2.6030  1.4144
 5475SOL     OW20880   9.361   2.290   8.334 -0.1235 -0.6123  0.2034
 5475SOL    HW120881   9.283   2.248   8.371 -0.0925 -1.6289 -0.8531
 5475SOL    HW220882   9.364   2.261   8.243  1.7561 -0.9630  0.3376
 5476SOL     OW20883   0.064   8.332   3.723 -0.1503  0.0279 -0.2014
 5476SOL    HW120884   0.029   8.413   3.759 -0.7331  0.8472 -2.4174
 5476SOL    HW220885   0.159   8.342   3.726 -0.2081  1.3873 -1.5654
 5477SOL     OW20886   2.330   3.267   9.896  0.0979  0.5654  0.2600
 5477SOL    HW120887   2.267   3.330   9.861  0.3722 -0.3198 -1.9647
 5477SOL    HW220888   2.308   3.261   9.989 -3.0217  0.3836 -0.3993
 5478SOL     OW20889   6.879   8.487  10.520 -0.5799  0.5696  0.1631
 5478SOL    HW120890   6.926   8.405  10.534 -1.1311  0.5218  1.9948
 5478SOL    HW220891   6.905   8.515  10.432  3.6977  1.0525  1.3276
 5479SOL     OW20892   4.568   5.054   3.179  0.1560 -0.2154  0.0207
 5479SOL    HW120893   4.644   5.053   3.237 -1.5982 -2.5179  2.5514
 5479SOL    HW220894   4.516   5.129   3.208  0.6305  0.3821 -0.6221
 5480SOL     OW20895   8.338   1.930   1.810 -0.4603 -0.6943 -0.1966
 5480SOL    HW120896   8.277   1.865   1.775 -1.1315 -0.3567  0.3317
 5480SOL    HW220897   8.310   1.943   1.900  0.8088 -1.0266  0.2680
 5481SOL     OW20898   7.531  10.507   7.677  0.1527 -0.2762 -0.6214
 5481SOL    HW120899   7.612  10.547   7.708  0.5916 -1.7753  0.3236
 5481SOL    HW220900   7.547  10.488   7.585  0.8466 -0.4403 -0.4724
 5482SOL     OW20901   4.445   3.696   9.179 -0.1309 -0.5825 -0.2377
 5482SOL    HW120902   4.380   3.755   9.141 -0.6721 -0.3462  0.9742
 5482SOL    HW220903   4.393   3.625   9.218  0.3556 -0.6351  0.3443
 5483SOL     OW20904   7.087   7.508  10.437  0.2708 -0.3207  0.2558
 5483SOL    HW120905   7.026   7.582  10.439 -3.0359 -2.7872 -0.2453
 5483SOL    HW220906   7.150   7.531  10.368 -0.8061  1.8486 -0.1193
 5484SOL     OW20907  10.508   6.476   8.028  0.2081  0.0487 -0.2201
 5484SOL    HW120908  10.426   6.524   8.023  1.2807  1.9583 -0.4786
 5484SOL    HW220909  10.554   6.497   7.947  2.3053  1.7224  1.2693
 5485SOL     OW20910   1.499   3.059   2.950 -0.0898  0.4247 -0.4087
 5485SOL    HW120911   1.583   3.102   2.935 -0.5008  0.9177 -1.3923
 5485SOL    HW220912   1.461   3.050   2.863 -1.1220  0.3394  0.0383
 5486SOL     OW20913   4.690   6.955   7.865  0.0427 -0.0028  0.0147
 5486SOL    HW120914   4.713   6.961   7.772  2.2795  1.3389  0.5903
 5486SOL    HW220915   4.675   6.862   7.880  1.5492 -0.5011 -1.2919
 5487SOL     OW20916   7.237   8.914   0.906 -0.4971  0.1759  0.1542
 5487SOL    HW120917   7.226   8.948   0.817 -0.3195  1.1794  0.4974
 5487SOL    HW220918   7.332   8.907   0.918 -0.3972  2.2006  1.0051
 5488SOL     OW20919   4.583   1.211   3.037  0.0782  0.1403 -0.1783
 5488SOL    HW120920   4.671   1.244   3.017  0.0272  0.1110 -0.4549
 5488SOL    HW220921   4.570   1.231   3.129  1.1265 -1.5813  0.3824
 5489SOL     OW20922   8.897   9.992   6.539 -0.0030 -0.6389 -0.9315
 5489SOL    HW120923   8.981   9.984   6.493  0.0925 -2.9657 -0.4543
 5489SOL    HW220924   8.920  10.019   6.627  0.4092 -2.4232 -0.4518
 5490SOL     OW20925   9.301   8.729   8.904  0.1708 -0.2393  0.0157
 5490SOL    HW120926   9.216   8.734   8.947  0.4071 -0.3599  0.4971
 5490SOL    HW220927   9.349   8.805   8.937  0.0334  0.1817 -0.7337
 5491SOL     OW20928   5.058   9.635   6.401  0.0011 -0.2893  0.2048
 5491SOL    HW120929   5.093   9.723   6.388  0.7857 -0.7032 -0.6298
 5491SOL    HW220930   4.966   9.649   6.424  0.1943  0.7531  0.4030
 5492SOL     OW20931   2.540   7.291  10.204 -0.1536  0.3839  0.2320
 5492SOL    HW120932   2.521   7.263  10.115 -0.7831 -1.3763  0.8720
 5492SOL    HW220933   2.454   7.312  10.242  0.0920  0.9861  0.4590
 5493SOL     OW20934   9.391   4.176   5.696  0.3848  0.2294  0.2572
 5493SOL    HW120935   9.369   4.085   5.715 -1.4441  0.2420 -1.5577
 5493SOL    HW220936   9.476   4.172   5.652 -1.1588 -1.0360 -2.9084
 5494SOL     OW20937   0.131  10.733   5.548  0.3583  0.5210  0.0265
 5494SOL    HW120938   0.078  10.734   5.468  1.1183  0.8746 -0.4829
 5494SOL    HW220939   0.181  10.815   5.544  0.1289  0.7229  1.0523
 5495SOL     OW20940   8.782   6.184   2.516  0.5608 -0.6737 -0.6065
 5495SOL    HW120941   8.730   6.108   2.539 -1.0029  0.8499  1.2904
 5495SOL    HW220942   8.854   6.185   2.579 -1.0646  0.9141  1.3567
 5496SOL     OW20943   4.506   9.064   1.401 -0.7441 -0.1952  0.4018
 5496SOL    HW120944   4.454   9.131   1.445  0.6165  0.4414  1.0780
 5496SOL    HW220945   4.552   9.019   1.471  0.2701 -0.1836 -0.2365
 5497SOL     OW20946   9.082   9.954   3.238 -0.3487 -0.2217  0.7529
 5497SOL    HW120947   9.068   9.883   3.175 -0.4376 -0.2993  0.8585
 5497SOL    HW220948   9.058   9.915   3.323  3.1346 -1.2938  1.4160
 5498SOL     OW20949   1.038   3.940   7.399  0.0788  0.3573 -0.0580
 5498SOL    HW120950   1.042   3.944   7.495 -1.6281  1.3015  0.0142
 5498SOL    HW220951   0.985   4.016   7.374 -0.3689 -0.4428 -1.6874
 5499SOL     OW20952   8.984   5.958   6.671  0.1766 -0.7265  0.5310
 5499SOL    HW120953   8.970   6.004   6.589 -1.9969 -1.3668  0.4745
 5499SOL    HW220954   9.071   5.919   6.663 -0.2624 -1.3701 -1.7730
 5500SOL     OW20955   5.620   5.675   0.028 -0.0902  0.1579 -0.6484
 5500SOL    HW120956   5.576   5.658  -0.055 -0.1444  0.5708 -0.7088
 5500SOL    HW220957   5.678   5.600   0.041  0.1995  0.2719 -1.2514
 5501SOL     OW20958   7.941  10.401   8.559 -0.1727  0.2955 -0.0073
 5501SOL    HW120959   7.964  10.485   8.521 -0.3972  0.5052  0.3176
 5501SOL    HW220960   8.024  10.353   8.562  0.0817  0.7612  0.4476
 5502SOL     OW20961   7.692   3.924   3.890  0.2329 -0.3391 -0.3762
 5502SOL    HW120962   7.601   3.951   3.877 -0.1309 -1.6375 -0.6628
 5502SOL    HW220963   7.737   4.004   3.917 -1.6783 -0.2380  3.1741
 5503SOL     OW20964   7.942   8.460   7.985  0.5704  0.1671  0.2348
 5503SOL    HW120965   7.968   8.408   7.909  0.2508 -0.1434  0.3365
 5503SOL    HW220966   7.894   8.534   7.948 -0.8560 -0.7389  0.2056
 5504SOL     OW20967   6.854  10.704  10.836  0.0971 -0.8092  0.1437
 5504SOL    HW120968   6.868  10.702  10.741  0.7201  0.6416  0.1773
 5504SOL    HW220969   6.781  10.644  10.851  1.4326 -2.8713 -0.9723
 5505SOL     OW20970   1.188   5.586   7.408  0.6950 -0.2524 -0.1068
 5505SOL    HW120971   1.122   5.635   7.358 -0.0669 -1.3961 -0.2622
 5505SOL    HW220972   1.154   5.587   7.498  1.0558  0.1174  0.0293
 5506SOL     OW20973   7.832   2.414   8.257 -0.6170  0.2051 -0.2111
 5506SOL    HW120974   7.923   2.433   8.281 -0.1829 -0.9026 -0.9080
 5506SOL    HW220975   7.829   2.318   8.250 -1.7468  0.2582 -0.5475
 5507SOL     OW20976   6.099   7.055   0.900 -1.0655  0.3171  0.3580
 5507SOL    HW120977   6.013   7.090   0.877 -0.9517 -0.1949 -0.9330
 5507SOL    HW220978   6.161   7.119   0.867 -0.8928 -0.5276 -1.0431
 5508SOL     OW20979   0.405   3.062   5.002  0.0080 -0.0363  1.0457
 5508SOL    HW120980   0.433   2.985   5.052 -0.2823 -1.1062 -0.3550
 5508SOL    HW220981   0.471   3.071   4.934 -0.3092  0.5663  0.8110
 5509SOL     OW20982   6.793   1.190   8.288 -0.3971  0.4890  0.2689
 5509SOL    HW120983   6.731   1.178   8.216  0.9042 -1.7208 -0.5888
 5509SOL    HW220984   6.877   1.205   8.244  0.4147 -0.8297  1.3077
 5510SOL     OW20985   3.473   2.587   0.340  0.1267  0.2933  0.4782
 5510SOL    HW120986   3.408   2.638   0.292 -1.5102 -2.2616 -0.1939
 5510SOL    HW220987   3.554   2.600   0.291 -1.0233 -0.4921 -1.7752
 5511SOL     OW20988   2.892   1.433   7.667  0.5125 -0.2564 -0.7693
 5511SOL    HW120989   2.848   1.349   7.653  0.5224 -0.3276 -0.3920
 5511SOL    HW220990   2.984   1.409   7.681  0.2090 -0.3672  1.2843
 5512SOL     OW20991   5.660   3.985   9.619 -0.1616  0.4271 -0.7481
 5512SOL    HW120992   5.591   3.951   9.563 -0.0311  1.9173 -1.8746
 5512SOL    HW220993   5.698   4.057   9.570  2.3240 -0.4232 -0.2138
 5513SOL     OW20994   7.985   6.425   5.630 -0.0168  0.3681  0.2114
 5513SOL    HW120995   8.059   6.461   5.581 -0.2332  0.0483 -0.3692
 5513SOL    HW220996   7.922   6.498   5.634 -1.3089 -0.4303 -2.7202
 5514SOL     OW20997   7.158   7.239   6.000 -0.5811  0.2133 -0.0991
 5514SOL    HW120998   7.178   7.184   5.925 -2.0431  0.5470 -0.7583
 5514SOL    HW220999   7.187   7.188   6.076  1.1712 -0.0061 -0.8779
 5515SOL     OW21000  10.646   0.636   1.782  0.1043 -0.0572  0.1304
 5515SOL    HW121001  10.682   0.670   1.701 -0.7050 -1.2654 -0.7692
 5515SOL    HW221002  10.691   0.684   1.851  1.5864  0.2256 -1.0037
 5516SOL     OW21003   4.037   0.320  10.815  0.1345 -0.1725 -0.1778
 5516SOL    HW121004   3.963   0.352  10.867  0.4169  0.9905 -0.4652
 5516SOL    HW221005   4.113   0.363  10.853  0.4269  0.1378 -1.0936
 5517SOL     OW21006   8.700   2.669   9.752 -0.2049  0.1472 -0.1189
 5517SOL    HW121007   8.633   2.613   9.712  1.6151 -2.8553  0.7259
 5517SOL    HW221008   8.679   2.668   9.845  0.2338  0.3370 -0.0190
 5518SOL     OW21009   2.216   4.857   4.851 -0.6598 -0.5665  0.0890
 5518SOL    HW121010   2.248   4.775   4.812  1.1287  0.5472 -0.9377
 5518SOL    HW221011   2.170   4.901   4.780  0.7028  0.4780 -0.1945
 5519SOL     OW21012   0.381   9.469   3.432  0.5307 -0.0363 -0.8408
 5519SOL    HW121013   0.290   9.492   3.449  1.3398  1.3471  2.3409
 5519SOL    HW221014   0.402   9.513   3.349 -1.3908  0.4515 -1.1134
 5520SOL     OW21015  10.165   2.351  11.048  0.1041 -0.6372  0.2948
 5520SOL    HW121016  10.224   2.277  11.059  0.8652 -0.4855 -2.1709
 5520SOL    HW221017  10.219   2.420  11.009 -1.2475  0.1954 -0.1898
 5521SOL     OW21018   2.439   5.260   2.178  0.2507  0.4586 -0.1475
 5521SOL    HW121019   2.369   5.250   2.114  0.3015  2.1334 -0.5105
 5521SOL    HW221020   2.400   5.310   2.249  0.6125 -0.1061  0.4607
 5522SOL     OW21021   6.225   3.808   5.186 -0.0106 -0.2324 -0.0219
 5522SOL    HW121022   6.218   3.874   5.117 -2.2250 -0.1829  0.1805
 5522SOL    HW221023   6.255   3.729   5.141  0.3109  0.2621 -0.6959
 5523SOL     OW21024   5.909   8.207   1.276  0.5755 -0.2369 -0.0591
 5523SOL    HW121025   5.824   8.164   1.274 -1.5314  3.4421  1.0630
 5523SOL    HW221026   5.936   8.214   1.185 -1.4704  0.4499 -0.6523
 5524SOL     OW21027   8.376   1.977   6.352 -0.0318  0.0909  0.6266
 5524SOL    HW121028   8.428   1.928   6.416 -1.4856 -0.3790  1.4921
 5524SOL    HW221029   8.379   1.922   6.273  0.4901 -0.0984  0.7729
 5525SOL     OW21030  10.384  10.551   3.813 -0.2178  0.4495 -0.3292
 5525SOL    HW121031  10.441  10.549   3.736  0.5659  2.1038  0.1703
 5525SOL    HW221032  10.359  10.642   3.823  1.4832  0.7372  2.6173
 5526SOL     OW21033   5.715   0.185   1.978  0.4232 -0.2995 -0.2512
 5526SOL    HW121034   5.743   0.169   2.068 -0.0138  1.9088  0.3439
 5526SOL    HW221035   5.636   0.132   1.967  0.0110  0.0324  0.9591
 5527SOL     OW21036   0.167   3.122   0.861  0.0114 -0.0690  0.8801
 5527SOL    HW121037   0.242   3.093   0.810  0.7996  0.3597  1.7583
 5527SOL    HW221038   0.092   3.113   0.802  0.9174  0.6579 -0.4232
 5528SOL     OW21039   2.288   8.443  10.782  0.3289 -0.4844  0.1005
 5528SOL    HW121040   2.372   8.409  10.813  0.6913 -0.7930 -1.1357
 5528SOL    HW221041   2.301   8.454  10.687 -0.0853  2.1825  0.2770
 5529SOL     OW21042   3.142   3.205   1.836 -0.2089 -0.0371 -0.6235
 5529SOL    HW121043   3.188   3.166   1.762  1.5527 -1.1613  0.9394
 5529SOL    HW221044   3.111   3.130   1.887 -1.1216  0.6965 -0.0535
 5530SOL     OW21045   9.162   0.230   4.142 -0.0134 -0.2618  0.0181
 5530SOL    HW121046   9.115   0.300   4.096  1.8076  1.2959  0.3888
 5530SOL    HW221047   9.128   0.233   4.231 -0.9999 -0.8606 -0.3335
 5531SOL     OW21048   5.514   0.002   2.008 -0.3178  0.3435 -0.0143
 5531SOL    HW121049   5.561  -0.040   2.080 -0.5648  0.9300  0.4963
 5531SOL    HW221050   5.422  -0.017   2.024 -0.3597  0.3303 -0.2661
 5532SOL     OW21051   6.695   2.330   9.363  0.4126  0.1342  0.1098
 5532SOL    HW121052   6.697   2.239   9.392 -1.2322 -0.4568 -1.4581
 5532SOL    HW221053   6.639   2.374   9.427  0.5803 -0.1247  0.4378
 5533SOL     OW21054   4.812   6.425   3.915  0.3872  0.0230  0.2675
 5533SOL    HW121055   4.817   6.494   3.849  0.3797 -0.4242 -0.1988
 5533SOL    HW221056   4.735   6.374   3.890 -0.6439  0.8512  1.5906
 5534SOL     OW21057   1.790   6.061   6.375 -1.0307 -0.1454  0.1487
 5534SOL    HW121058   1.733   6.064   6.452 -0.3668  1.5835  0.6209
 5534SOL    HW221059   1.738   6.014   6.309 -1.9055 -1.0095  1.3881
 5535SOL     OW21060   3.077   2.107   5.020 -0.6246  0.4062 -0.1340
 5535SOL    HW121061   3.141   2.178   5.017  0.5140 -0.3955  2.7057
 5535SOL    HW221062   2.992   2.151   5.029 -0.0406  1.4179  0.5178
 5536SOL     OW21063  11.058   9.864   4.581  0.6992  0.1529  0.0570
 5536SOL    HW121064  11.004   9.790   4.554 -0.1857  0.4095  1.0556
 5536SOL    HW221065  11.132   9.824   4.627  1.8706 -0.2462 -2.0505
 5537SOL     OW21066  10.274   6.383   7.562  0.1658 -0.1547 -0.4394
 5537SOL    HW121067  10.263   6.478   7.568  1.7684 -0.0226  2.2933
 5537SOL    HW221068  10.185   6.349   7.551 -0.3505  1.6456 -2.5110
 5538SOL     OW21069   6.762   7.826   3.840 -0.0042 -0.1234  0.5545
 5538SOL    HW121070   6.767   7.919   3.815  0.3557 -0.3575 -0.2777
 5538SOL    HW221071   6.828   7.784   3.786 -0.1618 -0.8693  0.9398
 5539SOL     OW21072   3.947   1.632   4.892  0.0926  0.1233 -0.3427
 5539SOL    HW121073   3.971   1.681   4.970 -1.3794  1.0347 -0.4282
 5539SOL    HW221074   3.932   1.699   4.825  1.5197 -0.6517 -1.4792
 5540SOL     OW21075  11.072   6.052   3.219  0.3340 -0.2171 -0.4442
 5540SOL    HW121076  11.166   6.056   3.239  0.0136  0.1222  1.1392
 5540SOL    HW221077  11.029   6.070   3.302 -1.1530 -0.1003 -1.1997
 5541SOL     OW21078   9.993   4.886   3.621 -0.7525  0.1822 -0.5253
 5541SOL    HW121079  10.016   4.815   3.681 -2.3904 -1.1131 -1.3377
 5541SOL    HW221080   9.898   4.897   3.632 -0.7433  1.3311 -1.3951
 5542SOL     OW21081   7.174   1.188   4.071  0.3285  0.2760  0.0011
 5542SOL    HW121082   7.108   1.186   4.140 -0.2316  1.2949 -0.4830
 5542SOL    HW221083   7.155   1.111   4.017  1.0320 -0.7691  1.1882
 5543SOL     OW21084   3.895   7.243   8.476 -0.1803 -0.0028  0.0790
 5543SOL    HW121085   3.901   7.155   8.440  1.1880  0.4551 -0.9193
 5543SOL    HW221086   3.885   7.230   8.570  0.4954 -1.2190  0.0056
 5544SOL     OW21087   6.388   3.586   2.374 -0.1972  0.2410 -0.2532
 5544SOL    HW121088   6.385   3.626   2.287 -1.9806  1.3077  0.2510
 5544SOL    HW221089   6.331   3.641   2.428  2.7207  1.0851  2.2502
 5545SOL     OW21090   4.721   6.548   6.337 -0.2922  0.0972  0.0361
 5545SOL    HW121091   4.700   6.479   6.275 -1.5934  1.2380 -0.8564
 5545SOL    HW221092   4.781   6.606   6.290  1.5912 -0.8659  1.1101
 5546SOL     OW21093  10.204   0.200   2.839  0.0751 -0.3244 -0.2029
 5546SOL    HW121094  10.232   0.108   2.836  0.8114 -0.2478  2.1973
 5546SOL    HW221095  10.285   0.250   2.839 -0.2645  0.2310  0.4210
 5547SOL     OW21096   7.472   6.980   2.519  0.0023 -0.0703 -0.2784
 5547SOL    HW121097   7.404   7.046   2.534 -0.6163 -0.7958  0.2100
 5547SOL    HW221098   7.536   6.995   2.589  0.7801  1.1297 -1.2122
 5548SOL     OW21099   7.117   2.391   1.924  0.0059 -0.2495  0.4745
 5548SOL    HW121100   7.110   2.428   1.836 -1.7144  2.2408  1.5575
 5548SOL    HW221101   7.109   2.296   1.910 -1.4376  0.1272 -1.9470
 5549SOL     OW21102   7.769  11.002  10.928  0.2620 -0.4460 -0.2393
 5549SOL    HW121103   7.758  11.076  10.868  0.1883  0.4107  0.7876
 5549SOL    HW221104   7.709  11.021  11.000  1.0073 -0.9625  0.5410
 5550SOL     OW21105   3.556   4.951   6.256 -0.2077  0.3371 -0.5940
 5550SOL    HW121106   3.628   5.006   6.225 -1.2203  1.3892 -1.1669
 5550SOL    HW221107   3.547   4.884   6.188 -0.4346  0.8282 -1.0608
 5551SOL     OW21108   3.019   7.354   3.286 -0.5490 -0.1587  0.3866
 5551SOL    HW121109   3.029   7.278   3.344 -0.3387 -2.6735 -2.7186
 5551SOL    HW221110   2.925   7.357   3.267 -0.6429  0.7794  0.9114
 5552SOL     OW21111   4.842   8.703   6.473  0.4058 -0.3381 -0.1564
 5552SOL    HW121112   4.875   8.754   6.399  2.1071 -0.8096  0.2202
 5552SOL    HW221113   4.920   8.684   6.525 -0.6919 -0.4016  1.5295
 5553SOL     OW21114   1.821  10.168   6.177  0.0100 -0.0188 -0.1900
 5553SOL    HW121115   1.854  10.254   6.150 -0.1667 -0.5102 -2.1513
 5553SOL    HW221116   1.899  10.120   6.205  0.2793  0.3912 -0.2266
 5554SOL     OW21117   2.077   6.190   5.986 -0.0749 -0.3676 -0.4515
 5554SOL    HW121118   2.124   6.170   5.905  1.1871 -1.4618  0.5238
 5554SOL    HW221119   2.134   6.251   6.033  0.5659 -1.9119  0.8599
 5555SOL     OW21120   0.052   4.830   9.361 -0.3938  0.1624  0.0349
 5555SOL    HW121121   0.055   4.735   9.349 -1.4680 -0.0406  1.1392
 5555SOL    HW221122  -0.028   4.844   9.412 -1.2355  1.8264 -1.6323
 5556SOL     OW21123  10.191   9.998   8.566  0.9814  0.0012  0.1351
 5556SOL    HW121124  10.151  10.040   8.489  2.4370  1.3183  0.0575
 5556SOL    HW221125  10.284   9.992   8.545  1.2503 -0.5905  1.3880
 5557SOL     OW21126   3.668   8.825   8.777 -0.4733  0.0227  0.5169
 5557SOL    HW121127   3.676   8.753   8.714  0.6880 -0.0603  0.7391
 5557SOL    HW221128   3.676   8.784   8.863 -0.5398  0.3313  0.6732
 5558SOL     OW21129  10.975   1.851   7.010 -0.0479 -0.4625 -0.0821
 5558SOL    HW121130  11.027   1.832   6.931 -0.8263  0.1430 -0.7646
 5558SOL    HW221131  10.909   1.782   7.013 -0.6341  0.0614 -0.5360
 5559SOL     OW21132   7.254   1.685   1.638  0.0023  0.1620  0.0414
 5559SOL    HW121133   7.250   1.766   1.689 -1.2454  0.3774 -0.3597
 5559SOL    HW221134   7.293   1.621   1.697  1.0354  1.0507  0.3567
 5560SOL     OW21135   0.305   6.461   5.771 -0.2758  0.0103 -0.6952
 5560SOL    HW121136   0.212   6.452   5.793  0.1438  0.8969  1.8005
 5560SOL    HW221137   0.350   6.409   5.837  1.0407  0.3502 -1.2944
 5561SOL     OW21138   0.176   4.322   4.960 -0.4140  0.0043 -0.2751
 5561SOL    HW121139   0.189   4.291   4.870 -1.4895  3.4157 -1.8089
 5561SOL    HW221140   0.175   4.418   4.952  1.4373  0.5623  3.7409
 5562SOL     OW21141   3.939   7.210   5.601 -0.0645  0.2839  0.0638
 5562SOL    HW121142   3.949   7.222   5.507  0.1269 -0.6840 -0.0499
 5562SOL    HW221143   3.890   7.287   5.630  0.9598  1.2223 -0.6209
 5563SOL     OW21144   9.314   2.293   6.997  0.1841  0.2289 -0.3767
 5563SOL    HW121145   9.240   2.247   6.958 -0.5784  0.0859  1.1403
 5563SOL    HW221146   9.283   2.320   7.084  1.6453  0.8794 -0.0085
 5564SOL     OW21147   5.979   0.151   1.848 -0.3182  0.2011 -0.4907
 5564SOL    HW121148   6.004   0.233   1.804 -0.0774  0.7856  0.6952
 5564SOL    HW221149   5.901   0.174   1.898 -0.0082 -0.1736  0.1801
 5565SOL     OW21150   8.231   5.823   9.620  0.1524 -0.2536  0.2020
 5565SOL    HW121151   8.289   5.870   9.559 -0.6852  1.3194  0.5623
 5565SOL    HW221152   8.224   5.882   9.695 -2.4836 -0.0660 -0.1282
 5566SOL     OW21153   6.352   3.004   7.811 -0.0663 -0.1261 -0.0982
 5566SOL    HW121154   6.389   2.920   7.786 -0.2960  0.2946 -2.0160
 5566SOL    HW221155   6.273   3.013   7.756 -1.0482  0.5458  1.3678
 5567SOL     OW21156   3.161   2.471   6.407  0.0401 -0.0691  0.2590
 5567SOL    HW121157   3.238   2.480   6.463 -0.3296 -1.4171  1.0417
 5567SOL    HW221158   3.089   2.501   6.462 -0.0429  0.7993 -0.3253
 5568SOL     OW21159   7.466   1.463   1.180  0.2106 -0.0786 -0.1567
 5568SOL    HW121160   7.377   1.462   1.214  0.4230 -0.8262  0.3978
 5568SOL    HW221161   7.519   1.424   1.249  1.2335  1.8687  0.2324
 5569SOL     OW21162   7.960   2.892   8.552  0.0374  0.2779 -0.1655
 5569SOL    HW121163   7.940   2.985   8.540 -1.0017 -0.2383 -3.6157
 5569SOL    HW221164   7.973   2.859   8.463  4.2625 -2.1551  1.0942
 5570SOL     OW21165  10.314   0.278   3.310  0.0651 -0.5267  0.1147
 5570SOL    HW121166  10.283   0.208   3.367  0.8363 -0.6224  0.4337
 5570SOL    HW221167  10.408   0.263   3.303  0.6731  1.7827  2.0598
 5571SOL     OW21168   4.298   6.820   1.790 -0.2238  0.0936 -0.6336
 5571SOL    HW121169   4.269   6.770   1.713  0.4976 -3.2543  1.1075
 5571SOL    HW221170   4.285   6.761   1.864 -1.2826  3.2984  2.0071
 5572SOL     OW21171   8.191   2.747   0.799 -0.0769  0.2762 -0.6813
 5572SOL    HW121172   8.164   2.812   0.864  0.8693  0.8004 -0.7962
 5572SOL    HW221173   8.177   2.663   0.842 -2.2742  0.4793 -0.8881
 5573SOL     OW21174   8.715   6.409   9.916 -0.5086  0.0430  0.3206
 5573SOL    HW121175   8.736   6.474   9.983 -1.8295  0.0649  0.7406
 5573SOL    HW221176   8.625   6.428   9.891 -1.2863 -2.2206  1.1666
 5574SOL     OW21177   8.646   7.642   8.376  0.2451 -0.5186 -0.2494
 5574SOL    HW121178   8.624   7.723   8.331 -0.4790 -1.1515 -1.0582
 5574SOL    HW221179   8.630   7.661   8.468  1.1884  0.6064 -0.2903
 5575SOL     OW21180   0.955   5.188   2.878 -0.6787  0.2879  0.4438
 5575SOL    HW121181   1.017   5.239   2.931  1.2223 -0.7252 -0.7064
 5575SOL    HW221182   0.896   5.148   2.942  1.4473 -0.7853  1.8317
 5576SOL     OW21183   0.136   9.993   0.844 -0.4607 -0.1425  0.1426
 5576SOL    HW121184   0.063   9.955   0.796 -0.8828 -0.9140  1.3614
 5576SOL    HW221185   0.214   9.962   0.798 -0.8509 -1.0005  0.0476
 5577SOL     OW21186   5.009   4.189   3.287  0.5791  0.1304  0.1355
 5577SOL    HW121187   5.037   4.254   3.351  1.6270 -0.0028 -0.1667
 5577SOL    HW221188   5.006   4.106   3.336  2.4144 -0.1731 -0.1764
 5578SOL     OW21189   4.059   4.379  10.668 -0.1831 -0.0602  0.2954
 5578SOL    HW121190   3.984   4.378  10.727 -0.6398  0.1402 -0.2720
 5578SOL    HW221191   4.036   4.315  10.600  0.4460 -0.4734  0.4652
 5579SOL     OW21192   0.029   1.564   9.542 -0.0331 -0.1891 -0.1190
 5579SOL    HW121193   0.101   1.561   9.605  0.5117  1.6487 -0.5948
 5579SOL    HW221194  -0.021   1.485   9.559  1.9722 -1.4211  0.3645
 5580SOL     OW21195   4.078   9.430   7.650 -0.2494 -0.0231  0.1355
 5580SOL    HW121196   4.034   9.504   7.691  1.7985  0.8670  0.8899
 5580SOL    HW221197   4.127   9.469   7.578  1.1314 -0.5405  0.7574
 5581SOL     OW21198   8.527   4.698   0.327  0.6290 -0.0144  0.2377
 5581SOL    HW121199   8.453   4.644   0.355  0.3504  0.4061  0.3386
 5581SOL    HW221200   8.511   4.714   0.234 -0.1134  1.1279  0.5295
 5582SOL     OW21201   5.855   7.260   7.818  0.3191  1.0667 -0.4655
 5582SOL    HW121202   5.854   7.164   7.820 -1.0862  1.0672 -0.3907
 5582SOL    HW221203   5.874   7.282   7.727  0.0354  0.7088 -0.6148
 5583SOL     OW21204   6.764   7.529  10.948  0.5543 -0.1378  0.9522
 5583SOL    HW121205   6.724   7.586  11.014 -2.1295  1.4332 -1.7911
 5583SOL    HW221206   6.804   7.590  10.885  1.6069 -1.5216  0.2198
 5584SOL     OW21207   1.648   3.109   7.346 -0.2621  0.3525  0.1311
 5584SOL    HW121208   1.722   3.124   7.288 -0.2012  0.8085  0.3224
 5584SOL    HW221209   1.651   3.182   7.408 -0.6841  0.2021  0.3327
 5585SOL     OW21210   6.875   5.662   5.453  0.1545  0.1116 -0.4575
 5585SOL    HW121211   6.878   5.687   5.545  0.4918  0.2439 -0.5024
 5585SOL    HW221212   6.842   5.572   5.453  1.0486 -0.2247 -0.1378
 5586SOL     OW21213   4.987   8.418   4.304  0.1935  0.0653  0.2520
 5586SOL    HW121214   4.993   8.357   4.230 -0.2202  0.4174 -0.0743
 5586SOL    HW221215   5.036   8.495   4.275  1.2379 -0.3357  0.9026
 5587SOL     OW21216   1.581   5.160   6.418 -0.1215 -0.3124 -0.2819
 5587SOL    HW121217   1.652   5.223   6.403  0.6535 -0.9132  0.7288
 5587SOL    HW221218   1.625   5.077   6.433 -0.9984 -0.6040  0.8913
 5588SOL     OW21219   5.966   5.882   1.545  0.4712 -0.0547 -0.3203
 5588SOL    HW121220   6.018   5.841   1.475 -0.4059 -4.6445  1.3437
 5588SOL    HW221221   5.875   5.868   1.518  0.0998  1.2000  0.2173
 5589SOL     OW21222   7.886   5.682   1.638 -0.2415 -0.7148 -0.1620
 5589SOL    HW121223   7.921   5.600   1.674  2.0982 -0.1882 -1.0695
 5589SOL    HW221224   7.947   5.749   1.668 -2.5378  0.9317  1.2610
 5590SOL     OW21225   5.936   6.961   4.434 -0.0790  0.4212  0.7082
 5590SOL    HW121226   5.870   7.027   4.414  1.3392  1.3200 -1.2761
 5590SOL    HW221227   5.902   6.880   4.397 -1.4382  0.1543  2.4205
 5591SOL     OW21228   8.407   9.612   5.771 -0.4506  0.2419  0.3553
 5591SOL    HW121229   8.316   9.638   5.789  0.3191  1.7082  2.4901
 5591SOL    HW221230   8.458   9.655   5.839  1.6827 -1.9685  0.2882
 5592SOL     OW21231   7.983   1.551   3.920 -0.1011 -0.3488 -0.0081
 5592SOL    HW121232   7.973   1.506   3.836 -1.2637  0.0393 -0.0958
 5592SOL    HW221233   8.013   1.484   3.980 -1.9751 -1.3241 -0.0877
 5593SOL     OW21234   1.357  10.358   6.898  0.5696  0.1590 -0.2849
 5593SOL    HW121235   1.295  10.431   6.887  0.9542  0.4815 -0.3345
 5593SOL    HW221236   1.442  10.396   6.877  0.8928 -0.0770  0.5922
 5594SOL     OW21237   5.382   0.765   6.186 -0.1818  0.1141  0.4560
 5594SOL    HW121238   5.401   0.701   6.255 -1.5136 -1.3160 -0.4351
 5594SOL    HW221239   5.427   0.733   6.109 -1.9732 -0.5740 -0.3625
 5595SOL     OW21240   8.146   4.815   4.090 -0.1974  0.4189  0.5320
 5595SOL    HW121241   8.111   4.889   4.039 -0.4492 -0.6458 -0.9006
 5595SOL    HW221242   8.133   4.739   4.034  0.9800 -0.5826  1.5592
 5596SOL     OW21243   9.439   1.529   5.793  0.4418  0.1860  0.4788
 5596SOL    HW121244   9.430   1.540   5.888 -0.4687  1.4430  0.2707
 5596SOL    HW221245   9.503   1.595   5.767  1.9188 -1.2103  0.3977
 5597SOL     OW21246   3.372   5.159   3.070  0.7011 -0.2373  0.5893
 5597SOL    HW121247   3.396   5.178   2.980  0.4169  0.0941  0.5792
 5597SOL    HW221248   3.312   5.231   3.094 -0.6106 -1.2535  0.4755
 5598SOL     OW21249   4.099   4.285   8.688 -0.2001 -0.0660 -0.1102
 5598SOL    HW121250   4.178   4.232   8.700  0.3723  0.6062 -0.7787
 5598SOL    HW221251   4.095   4.301   8.594 -0.1688  1.3502  0.1133
 5599SOL     OW21252   4.473   9.755   6.417 -0.2979 -0.1134 -0.3697
 5599SOL    HW121253   4.423   9.690   6.467  0.5773 -1.2778 -0.9628
 5599SOL    HW221254   4.406   9.810   6.377 -1.0753 -0.8848 -0.1715
 5600SOL     OW21255   9.609   3.624   5.303  0.4567 -0.4064  0.8327
 5600SOL    HW121256   9.585   3.700   5.357  2.1848  0.1772  0.8328
 5600SOL    HW221257   9.527   3.577   5.290 -0.6025  1.2825  1.1193
 5601SOL     OW21258   8.778  10.020   7.429 -0.5868  0.1479  0.1266
 5601SOL    HW121259   8.743  10.062   7.351 -0.9327  2.5335  1.4730
 5601SOL    HW221260   8.869  10.050   7.434  0.2778 -2.0697 -0.6771
 5602SOL     OW21261   5.495   1.743   5.906 -0.2352  0.0223  0.4453
 5602SOL    HW121262   5.417   1.754   5.853 -0.2128  1.4684  0.6627
 5602SOL    HW221263   5.463   1.744   5.996 -0.2838 -2.4878  0.5128
 5603SOL     OW21264   0.274   7.987   4.753 -0.5411  0.0875 -0.0173
 5603SOL    HW121265   0.285   8.020   4.842 -2.4233 -0.1312  0.3429
 5603SOL    HW221266   0.217   7.911   4.763  1.6175 -1.7999 -1.1180
 5604SOL     OW21267   7.526   6.399   7.087 -0.1475  0.1194 -0.2236
 5604SOL    HW121268   7.573   6.456   7.148  2.7615  1.1119 -3.0766
 5604SOL    HW221269   7.469   6.346   7.143  2.2554  0.8711  3.3313
 5605SOL     OW21270   1.620  10.717   5.187  0.0145  0.0216  0.8232
 5605SOL    HW121271   1.550  10.783   5.187  0.2816  0.3149  0.6335
 5605SOL    HW221272   1.595  10.655   5.254 -0.5932 -0.0510  0.5401
 5606SOL     OW21273   1.661   9.336   4.063  0.7514 -0.0845  1.3405
 5606SOL    HW121274   1.695   9.249   4.086 -0.0604 -0.6212  0.5899
 5606SOL    HW221275   1.569   9.334   4.089  0.4809  0.1980  0.4465
 5607SOL     OW21276   4.607   8.659   3.505 -0.2405  0.5981 -0.0677
 5607SOL    HW121277   4.634   8.748   3.528  0.3269  0.4204 -0.0272
 5607SOL    HW221278   4.668   8.633   3.436  0.8306 -0.4415  1.2133
 5608SOL     OW21279   0.180   9.905  10.809  0.4323  0.7730  0.3382
 5608SOL    HW121280   0.237   9.924  10.735  1.6985  0.3036  1.1471
 5608SOL    HW221281   0.234   9.924  10.886 -0.0792 -0.7967  1.1399
 5609SOL     OW21282   7.219   9.943   2.458 -0.0732 -0.2663  0.2288
 5609SOL    HW121283   7.179  10.026   2.432  0.6135  0.5672  1.7431
 5609SOL    HW221284   7.303   9.941   2.412  0.2618  0.2751  0.7947
 5610SOL     OW21285   1.980   5.607   5.713  0.1479 -0.6681 -0.6841
 5610SOL    HW121286   1.902   5.641   5.667 -0.4892 -3.7616 -2.1540
 5610SOL    HW221287   2.049   5.608   5.647  0.6185 -0.5430 -0.1981
 5611SOL     OW21288   2.252   3.907  10.208 -0.2719 -0.2133  0.3826
 5611SOL    HW121289   2.288   3.944  10.128 -2.5173 -0.1620 -0.6690
 5611SOL    HW221290   2.326   3.862  10.249  1.0222  0.1105 -1.4932
 5612SOL     OW21291   6.399   9.749   5.495 -0.0243 -0.5232 -0.1223
 5612SOL    HW121292   6.347   9.670   5.483 -2.2345  0.8433 -0.1379
 5612SOL    HW221293   6.337   9.821   5.482  1.6869  1.2123  0.7490
 5613SOL     OW21294   9.393   0.371   3.692 -0.1664  0.2126 -0.3219
 5613SOL    HW121295   9.302   0.340   3.699  0.2707 -0.7554  1.8889
 5613SOL    HW221296   9.432   0.312   3.627 -0.1330 -2.1175  1.6627
 5614SOL     OW21297   9.891   8.093   1.102  0.1636  0.1549 -0.5318
 5614SOL    HW121298   9.916   8.016   1.050  1.0837 -0.1356  0.3195
 5614SOL    HW221299   9.926   8.167   1.053  0.9778 -0.1144 -0.3653
 5615SOL     OW21300   0.509   7.223   5.147  0.2259 -0.0392  0.0656
 5615SOL    HW121301   0.447   7.219   5.219  0.3517  0.7981  0.2363
 5615SOL    HW221302   0.574   7.288   5.175 -0.9442  2.0378 -1.7303
 5616SOL     OW21303   1.297   5.543   1.249 -0.9909  0.0998 -0.1583
 5616SOL    HW121304   1.220   5.534   1.193 -1.1146  0.7834 -0.1074
 5616SOL    HW221305   1.264   5.531   1.337 -1.1671  1.0174 -0.0855
 5617SOL     OW21306   2.770   7.866   6.861 -0.3934 -0.3577 -0.0866
 5617SOL    HW121307   2.810   7.802   6.920 -0.3000  2.0650  2.6833
 5617SOL    HW221308   2.678   7.841   6.858 -0.1970 -1.1544  0.2068
 5618SOL     OW21309   7.801   7.430   6.576 -0.4219  0.5352 -0.5304
 5618SOL    HW121310   7.709   7.450   6.593 -0.5197  0.2120 -0.6811
 5618SOL    HW221311   7.821   7.357   6.634 -0.0513  1.0877  0.0542
 5619SOL     OW21312   1.359   1.879   8.194  0.9804 -0.5967  0.3182
 5619SOL    HW121313   1.386   1.795   8.156  0.5672 -1.2341  1.3701
 5619SOL    HW221314   1.330   1.856   8.283 -1.9849  0.1839 -0.3563
 5620SOL     OW21315   3.052   1.250   4.851 -0.4066 -0.0504  0.6835
 5620SOL    HW121316   3.068   1.239   4.945  1.4490  1.0185  0.5507
 5620SOL    HW221317   3.084   1.169   4.811  0.5731  0.2666  0.8186
 5621SOL     OW21318   6.105   5.685   5.916 -0.8735  0.2426 -0.3736
 5621SOL    HW121319   6.079   5.770   5.881 -1.1374  0.0576 -0.6311
 5621SOL    HW221320   6.169   5.706   5.985 -1.5295  0.6861  0.1076
 5622SOL     OW21321   3.236   8.397   0.467 -0.0621 -0.1051  1.0270
 5622SOL    HW121322   3.159   8.427   0.418  0.6612 -0.2471 -0.2464
 5622SOL    HW221323   3.230   8.302   0.466 -0.4858 -0.0950  1.9659
 5623SOL     OW21324   8.210   5.395   1.397  0.0712  0.1305 -0.2033
 5623SOL    HW121325   8.228   5.380   1.304  0.5393  1.2411 -0.3143
 5623SOL    HW221326   8.204   5.308   1.435 -1.9508 -0.3998 -1.5889
 5624SOL     OW21327   7.033   3.819   1.436  0.0088  0.1244 -0.1622
 5624SOL    HW121328   7.068   3.807   1.348 -1.1686  2.5466 -1.0390
 5624SOL    HW221329   7.098   3.872   1.481 -0.7324  1.4166 -0.5718
 5625SOL     OW21330   9.446   7.417   4.556 -0.4152  0.2863 -0.2401
 5625SOL    HW121331   9.530   7.431   4.598 -0.0626 -0.9473 -0.4879
 5625SOL    HW221332   9.387   7.391   4.627 -0.5770  1.0741 -0.0788
 5626SOL     OW21333   3.016   0.663   7.060  0.0976 -0.2327  0.1939
 5626SOL    HW121334   3.072   0.678   6.983 -0.2696  1.4251  0.2122
 5626SOL    HW221335   3.066   0.602   7.114  1.3728  0.3088 -0.3243
 5627SOL     OW21336   5.445   5.197   7.885 -0.3311 -0.1376  0.5250
 5627SOL    HW121337   5.497   5.152   7.952  2.8924  0.5236 -1.3186
 5627SOL    HW221338   5.434   5.286   7.918 -1.0815 -0.5045  1.3005
 5628SOL     OW21339   5.384   6.183   3.970 -0.2915  0.0848 -0.5756
 5628SOL    HW121340   5.425   6.221   4.048 -0.4614  1.4137 -1.1095
 5628SOL    HW221341   5.336   6.107   4.003  0.4659  0.0249  0.4530
 5629SOL     OW21342   6.325   5.367   2.363  0.4945  0.0439  0.2570
 5629SOL    HW121343   6.368   5.295   2.318  0.1319  0.4337 -0.7301
 5629SOL    HW221344   6.262   5.401   2.300  0.0661  0.6876  1.0097
 5630SOL     OW21345   2.645   7.252   5.251 -0.0893 -0.1175  0.2591
 5630SOL    HW121346   2.646   7.318   5.182 -0.6224 -0.4271 -0.0476
 5630SOL    HW221347   2.713   7.190   5.226 -1.6914 -1.4011 -1.1593
 5631SOL     OW21348  10.438   4.069   6.209  0.0063 -0.4107  0.0810
 5631SOL    HW121349  10.399   4.073   6.121 -2.2150 -0.9864  0.9516
 5631SOL    HW221350  10.475   3.981   6.214  0.0415 -0.4178 -0.2467
 5632SOL     OW21351   9.511   7.485   7.660  0.2344  0.6419 -0.0744
 5632SOL    HW121352   9.424   7.493   7.623  0.9258  0.0858 -1.9149
 5632SOL    HW221353   9.512   7.548   7.732 -1.6606  0.6611 -0.0134
 5633SOL     OW21354   3.232   4.429   2.283  0.3502 -0.2075  0.1236
 5633SOL    HW121355   3.262   4.391   2.366  0.9255  0.4132  0.2074
 5633SOL    HW221356   3.141   4.451   2.299  1.1783  2.5639  1.6033
 5634SOL     OW21357   9.210  10.175   6.144  0.2559 -0.0342 -0.0852
 5634SOL    HW121358   9.200  10.150   6.052  0.2794  0.9915 -0.3753
 5634SOL    HW221359   9.261  10.103   6.182 -1.0231 -1.2219 -0.4977
 5635SOL     OW21360   1.095   6.847   3.296  0.1634 -0.2814  0.0542
 5635SOL    HW121361   1.002   6.838   3.274  0.2077 -1.9502  0.4288
 5635SOL    HW221362   1.116   6.938   3.273 -1.5726  0.1604  0.0471
 5636SOL     OW21363   6.573   2.809   7.822  0.6051 -0.4370 -0.1554
 5636SOL    HW121364   6.614   2.724   7.839 -1.5075 -1.8733 -1.7348
 5636SOL    HW221365   6.634   2.853   7.762  1.5946 -0.9133  0.4640
 5637SOL     OW21366  10.397   0.183   9.661  0.2746 -0.5110 -0.3264
 5637SOL    HW121367  10.444   0.266   9.671  0.7312 -0.8813  0.7030
 5637SOL    HW221368  10.318   0.193   9.714 -0.3540 -0.2424 -1.2931
 5638SOL     OW21369   5.274   8.608   7.644  0.9704  0.2575  0.0233
 5638SOL    HW121370   5.267   8.666   7.720  1.0419  0.1648  0.1009
 5638SOL    HW221371   5.276   8.667   7.569  2.0612  0.4065  0.1570
 5639SOL     OW21372   3.830   2.052   2.241 -0.2150 -0.1385  0.3051
 5639SOL    HW121373   3.873   2.018   2.319 -0.5859  0.6301  0.8637
 5639SOL    HW221374   3.837   1.982   2.177 -0.8349 -1.2052  1.3644
 5640SOL     OW21375   3.662   6.131   0.208 -0.4799 -0.1274  0.1298
 5640SOL    HW121376   3.751   6.112   0.178 -1.7244  0.5597 -4.7269
 5640SOL    HW221377   3.614   6.050   0.193 -1.3377  0.4805 -0.5210
 5641SOL     OW21378   2.558   0.823   5.125 -0.3325  0.0444 -0.2700
 5641SOL    HW121379   2.611   0.887   5.173 -1.0153  0.3440  0.1049
 5641SOL    HW221380   2.584   0.738   5.161  0.8119  0.0613 -0.9928
 5642SOL     OW21381   1.676   5.333   0.836  0.1360 -0.0799  0.0247
 5642SOL    HW121382   1.705   5.276   0.765  1.3974 -1.3445  1.4514
 5642SOL    HW221383   1.752   5.389   0.854 -0.1318  0.1649  0.4088
 5643SOL     OW21384   6.098   4.887   9.294 -0.0374 -0.0619 -0.3509
 5643SOL    HW121385   6.062   4.857   9.211 -0.2547 -0.1917 -0.2118
 5643SOL    HW221386   6.192   4.895   9.278 -0.2226  1.1618 -0.9855
 5644SOL     OW21387   8.767   8.981   2.065  0.1774 -0.0775  0.3216
 5644SOL    HW121388   8.687   9.028   2.090  0.5620  0.6478  0.2263
 5644SOL    HW221389   8.838   9.030   2.107  0.6884  0.1124 -0.7146
 5645SOL     OW21390   1.305   7.227   4.787 -0.5227 -0.6308  0.3097
 5645SOL    HW121391   1.352   7.154   4.828  1.1438  0.2686  0.1279
 5645SOL    HW221392   1.263   7.272   4.860 -0.3995 -0.9886  0.6056
 5646SOL     OW21393   1.239   5.315   5.490  1.0058  0.1429  0.7924
 5646SOL    HW121394   1.324   5.271   5.501  0.6225 -0.6423  0.6883
 5646SOL    HW221395   1.240   5.347   5.400  0.8886 -0.5533  0.5329
 5647SOL     OW21396   6.620   5.209   3.721  0.3333 -0.2894 -0.2927
 5647SOL    HW121397   6.657   5.209   3.809 -0.5029  1.8676  0.1063
 5647SOL    HW221398   6.669   5.276   3.674  0.7004 -1.3499 -1.4828
 5648SOL     OW21399  10.603   8.444   2.333 -0.1582  0.3403 -0.8959
 5648SOL    HW121400  10.631   8.527   2.371 -2.1570  0.4787  0.3896
 5648SOL    HW221401  10.550   8.468   2.258  1.1221  0.1228 -1.9194
 5649SOL     OW21402   9.000  11.073   0.140 -0.8378  0.3919 -0.2707
 5649SOL    HW121403   8.907  11.083   0.163 -1.1744  2.3628 -2.1761
 5649SOL    HW221404   8.999  11.051   0.047  0.6044  0.7677 -0.3984
 5650SOL     OW21405   6.032   3.197   6.416 -0.0040  0.0944  0.5169
 5650SOL    HW121406   6.019   3.163   6.327  0.3382 -0.1890  0.5733
 5650SOL    HW221407   6.094   3.137   6.456 -0.3675  0.0632  1.0447
 5651SOL     OW21408   1.725   6.901   1.553 -0.0164  0.2224  0.3414
 5651SOL    HW121409   1.660   6.929   1.618 -1.4938 -1.0646 -0.5144
 5651SOL    HW221410   1.684   6.920   1.469  0.9625 -0.1239 -0.2240
 5652SOL     OW21411   9.756   7.615   4.483 -0.2478  0.6059 -0.4802
 5652SOL    HW121412   9.779   7.622   4.575 -0.7511  0.8395 -0.3658
 5652SOL    HW221413   9.715   7.699   4.462 -1.3159  0.0772 -0.5730
 5653SOL     OW21414   8.753   4.873   8.380 -0.3910 -0.0545  0.0759
 5653SOL    HW121415   8.803   4.820   8.319  3.5280  0.2186  2.7011
 5653SOL    HW221416   8.724   4.811   8.447  2.0898  0.5436  1.8546
 5654SOL     OW21417   7.089   0.109   9.411  0.5894 -0.0276  0.2376
 5654SOL    HW121418   7.055   0.023   9.435  0.0555 -0.0185 -0.4717
 5654SOL    HW221419   7.053   0.168   9.477  1.3934 -0.4196  1.0434
 5655SOL     OW21420   3.943   5.052   5.273  0.2290 -1.0515  0.2574
 5655SOL    HW121421   3.897   5.007   5.202  2.0172 -0.0400 -1.6669
 5655SOL    HW221422   3.879   5.113   5.308  0.2550  1.2921 -3.2150
 5656SOL     OW21423   9.142   5.844   8.342  0.4324 -1.0091  0.0435
 5656SOL    HW121424   9.179   5.759   8.320  0.1621 -0.7351 -1.5615
 5656SOL    HW221425   9.215   5.905   8.336 -0.0644 -0.5640 -2.5411
 5657SOL     OW21426   6.148   5.972   7.779 -0.8831  0.2615 -0.7882
 5657SOL    HW121427   6.078   6.027   7.744 -1.7857  0.4029  1.1332
 5657SOL    HW221428   6.207   5.958   7.705 -1.7448  2.0437 -1.8674
 5658SOL     OW21429   4.888   4.817   3.753  0.5630 -0.3904  0.1576
 5658SOL    HW121430   4.918   4.726   3.752 -0.5773 -0.8197 -2.1868
 5658SOL    HW221431   4.880   4.839   3.846 -0.9548 -3.3128  0.8221
 5659SOL     OW21432   2.387   1.718   3.003 -0.5114 -0.2005  0.1963
 5659SOL    HW121433   2.389   1.730   2.908 -0.4011  2.1049  0.4362
 5659SOL    HW221434   2.296   1.693   3.022 -0.4272 -1.1189 -0.5331
 5660SOL     OW21435  10.162  10.072   7.342  0.1595  0.3011 -0.3211
 5660SOL    HW121436  10.164  10.160   7.378  0.4295  0.1025  0.1580
 5660SOL    HW221437  10.168  10.014   7.418 -2.4244 -0.1917 -0.3852
 5661SOL     OW21438   1.751   2.427   5.260 -0.3187 -0.1213 -0.2250
 5661SOL    HW121439   1.732   2.491   5.328 -0.4234  0.7894 -1.0909
 5661SOL    HW221440   1.831   2.383   5.290  1.1725  2.0860 -0.7563
 5662SOL     OW21441   6.479   5.134   0.745  0.6188 -0.2857  0.3051
 5662SOL    HW121442   6.407   5.191   0.718  0.1982 -0.5771  0.7831
 5662SOL    HW221443   6.447   5.045   0.729  0.5679 -0.4441  1.2347
 5663SOL     OW21444   5.744   0.703   8.368  0.1144  0.1536  0.2464
 5663SOL    HW121445   5.780   0.659   8.291 -2.6888 -0.1087 -1.0132
 5663SOL    HW221446   5.775   0.794   8.360 -1.1009  0.4381 -1.9049
 5664SOL     OW21447   7.688   9.287   4.939 -0.0599 -0.0658  0.4301
 5664SOL    HW121448   7.655   9.358   4.993  1.5877  0.4768  0.7801
 5664SOL    HW221449   7.718   9.221   5.002  0.3488 -0.1508  0.1494
 5665SOL     OW21450   1.573   2.119   4.829  0.0647 -0.0484  0.2363
 5665SOL    HW121451   1.586   2.106   4.923  1.0198 -0.7686  0.0156
 5665SOL    HW221452   1.484   2.086   4.812  0.3268 -1.0195  0.6876
 5666SOL     OW21453   9.611   7.571   0.122 -0.3254  0.6268  1.0105
 5666SOL    HW121454   9.546   7.508   0.091  1.4878 -1.2740  0.8364
 5666SOL    HW221455   9.564   7.624   0.187 -1.9495 -0.8950  1.1552
 5667SOL     OW21456   6.958  10.124   0.262  0.3596 -0.1269 -0.9822
 5667SOL    HW121457   7.005  10.044   0.284  0.9776  0.7962  1.3169
 5667SOL    HW221458   7.017  10.194   0.290 -1.5916  1.0752  0.3390
 5668SOL     OW21459   9.926   5.875   4.372  0.1186 -0.1900 -0.4844
 5668SOL    HW121460   9.995   5.936   4.346  0.6939 -1.6499 -2.6341
 5668SOL    HW221461   9.969   5.818   4.436 -0.3564  1.4045  1.3541
 5669SOL     OW21462   6.500   7.944   4.967  0.2189 -0.8273  0.4029
 5669SOL    HW121463   6.514   7.946   5.061 -0.4633  2.3777  0.5331
 5669SOL    HW221464   6.406   7.957   4.955  0.5030  0.4861 -0.6973
 5670SOL     OW21465   5.485   7.097   6.760 -0.5822  0.1635 -0.3873
 5670SOL    HW121466   5.483   7.089   6.856 -1.9145 -0.3781 -0.4325
 5670SOL    HW221467   5.444   7.181   6.742 -2.7254 -0.8376 -0.5333
 5671SOL     OW21468   9.084   4.213   7.989 -0.1445 -0.0464  0.3882
 5671SOL    HW121469   9.143   4.268   8.041  0.1530 -0.9899  1.0752
 5671SOL    HW221470   9.105   4.123   8.015 -1.4453 -0.4378  0.1805
 5672SOL     OW21471   5.776  10.967   1.868 -0.0851  0.5305  0.0042
 5672SOL    HW121472   5.696  10.917   1.881 -0.3352  0.9998  0.2975
 5672SOL    HW221473   5.813  10.978   1.956  1.1072 -0.9770 -0.2698
 5673SOL     OW21474   9.440  10.134   6.384 -0.2333  0.0451 -0.6235
 5673SOL    HW121475   9.534  10.136   6.401 -0.4876 -0.1487  1.0316
 5673SOL    HW221476   9.410  10.223   6.402 -0.3046  0.2158 -1.5746
 5674SOL     OW21477   5.084   5.487   0.443 -0.2613  0.3688 -0.0800
 5674SOL    HW121478   5.118   5.430   0.512  0.0910  1.5346  0.7490
 5674SOL    HW221479   5.162   5.521   0.399 -0.4892 -1.0470 -1.6793
 5675SOL     OW21480   2.029   0.450   2.022  0.6398 -0.0009 -0.0035
 5675SOL    HW121481   2.034   0.372   1.966  1.0316  1.0227 -1.4778
 5675SOL    HW221482   2.120   0.478   2.032  0.4964  0.3053  0.4399
 5676SOL     OW21483   4.256   0.844   4.625  0.0491  0.2575 -0.1019
 5676SOL    HW121484   4.300   0.802   4.551  0.1657  0.4948 -0.1689
 5676SOL    HW221485   4.278   0.789   4.700 -0.9207 -0.5863 -0.4028
 5677SOL     OW21486  10.724   0.557  10.287 -0.5295  0.0523 -0.7005
 5677SOL    HW121487  10.652   0.619  10.300 -0.9499 -0.6162  0.3813
 5677SOL    HW221488  10.777   0.566  10.366 -0.5794 -0.9195 -0.5415
 5678SOL     OW21489   4.306   2.378   4.678  0.2370 -0.5556  0.5500
 5678SOL    HW121490   4.331   2.465   4.708 -1.3777  1.0450 -2.2942
 5678SOL    HW221491   4.213   2.385   4.657  0.0153 -3.0439  0.3617
 5679SOL     OW21492   2.144   2.623   2.505  0.0193 -0.1006 -0.0066
 5679SOL    HW121493   2.097   2.642   2.424  0.0239 -0.2439 -0.0425
 5679SOL    HW221494   2.075   2.604   2.569 -0.0371  1.0641  0.2988
 5680SOL     OW21495   2.887   6.129   1.912 -0.2436 -0.0151  0.1683
 5680SOL    HW121496   2.880   6.076   1.833 -2.1099 -1.2849  1.0878
 5680SOL    HW221497   2.819   6.196   1.903 -0.5943 -0.2830  0.7548
 5681SOL     OW21498   7.403   9.494   1.736  0.1259 -0.0204 -0.2625
 5681SOL    HW121499   7.347   9.469   1.810  0.7324  0.2082  0.2793
 5681SOL    HW221500   7.491   9.499   1.773  0.2572  1.3287 -0.7080
 5682SOL     OW21501   2.651  10.146   9.271 -0.1543 -0.2876  0.0371
 5682SOL    HW121502   2.589  10.117   9.337 -0.6672  2.1894  0.7693
 5682SOL    HW221503   2.611  10.226   9.235  0.7589 -0.8112 -2.3109
 5683SOL     OW21504  10.986   7.013   9.996 -0.0981  0.1392  0.3285
 5683SOL    HW121505  10.902   7.018   9.952 -0.6806 -2.2628  1.0539
 5683SOL    HW221506  11.049   6.998   9.926 -0.7356 -1.4026  0.0522
 5684SOL     OW21507   0.375   0.027   5.962  0.3905  0.4719 -0.2696
 5684SOL    HW121508   0.318  -0.027   5.907  1.2124  0.6070 -1.2915
 5684SOL    HW221509   0.400  -0.030   6.034 -1.1494  0.4621  0.2924
 5685SOL     OW21510   2.206   8.195   0.513 -0.0948 -0.6122  0.1716
 5685SOL    HW121511   2.169   8.139   0.444  1.3236 -0.8257 -0.4471
 5685SOL    HW221512   2.199   8.142   0.593  0.7258 -1.4700 -0.3055
 5686SOL     OW21513   4.203   5.952   3.513  0.1614 -0.6178  0.2468
 5686SOL    HW121514   4.253   6.004   3.576  0.2908 -0.0870 -0.2868
 5686SOL    HW221515   4.142   5.901   3.567  0.5166 -0.4367  0.8224
 5687SOL     OW21516   0.203  10.388   2.489 -0.1294 -0.2132 -0.1228
 5687SOL    HW121517   0.123  10.337   2.495 -0.5502  0.4966  0.5618
 5687SOL    HW221518   0.176  10.471   2.451  0.0910  0.3859  0.9876
 5688SOL     OW21519   8.576   8.105   4.978 -0.1872  0.2453 -0.5011
 5688SOL    HW121520   8.618   8.038   4.924 -0.1851  0.5944 -0.9351
 5688SOL    HW221521   8.603   8.083   5.067 -1.1501 -1.0341 -0.5045
 5689SOL     OW21522   3.855   4.044   6.766 -0.0982 -0.7091 -0.2139
 5689SOL    HW121523   3.908   3.998   6.701 -0.8777 -0.9193 -0.7046
 5689SOL    HW221524   3.919   4.076   6.829  0.8356  0.6504 -1.7654
 5690SOL     OW21525   0.810   0.724   4.107 -0.3124  0.0168 -0.0535
 5690SOL    HW121526   0.833   0.727   4.200  0.4600 -1.1731 -0.1905
 5690SOL    HW221527   0.880   0.772   4.063  0.5608 -1.3869 -0.2258
 5691SOL     OW21528   0.712   0.780   3.351  0.4235  0.1733  0.2542
 5691SOL    HW121529   0.724   0.712   3.418  1.6813  0.0829 -0.0284
 5691SOL    HW221530   0.741   0.861   3.394  1.7026  0.0360 -0.3133
 5692SOL     OW21531   3.135   8.810   1.362  0.1638  0.5296 -0.1028
 5692SOL    HW121532   3.195   8.820   1.435  0.3245  0.1896 -0.1854
 5692SOL    HW221533   3.048   8.803   1.403  0.1028  1.6014 -0.0148
 5693SOL     OW21534   3.766   6.356   2.312  0.1647 -0.4026 -0.2127
 5693SOL    HW121535   3.862   6.359   2.315  0.2600 -2.2976  2.2857
 5693SOL    HW221536   3.738   6.421   2.376 -0.1688 -0.6348 -0.1213
 5694SOL     OW21537   2.243   0.245   1.229  0.0463  0.4125  0.0400
 5694SOL    HW121538   2.320   0.243   1.286  0.3607 -0.2356 -0.3898
 5694SOL    HW221539   2.249   0.164   1.178 -1.2519  0.0204  0.4428
 5695SOL     OW21540  10.787   2.833   9.108 -0.1709  0.8096  0.0675
 5695SOL    HW121541  10.701   2.801   9.079  0.6101 -1.8155  0.4148
 5695SOL    HW221542  10.771   2.864   9.197 -0.8286  0.5903  0.0387
 5696SOL     OW21543   5.237   6.418   2.729  0.2663  0.4574 -0.1754
 5696SOL    HW121544   5.319   6.443   2.771 -0.1468  1.9798 -0.1890
 5696SOL    HW221545   5.197   6.356   2.790  0.8731  0.6310  0.4163
 5697SOL     OW21546   4.038  10.900   8.959 -0.2155  0.3506  0.2912
 5697SOL    HW121547   4.090  10.962   9.010  1.3884  0.0443 -0.9212
 5697SOL    HW221548   3.970  10.871   9.020  0.0301  1.9916  1.4130
 5698SOL     OW21549  10.816   6.511   4.448 -0.7584  0.2202  0.1428
 5698SOL    HW121550  10.746   6.576   4.446 -1.5847 -0.6508  0.1493
 5698SOL    HW221551  10.780   6.436   4.399 -0.1863 -0.5859  0.9310
 5699SOL     OW21552   2.202   6.987   7.893 -0.0564 -0.1140 -0.0708
 5699SOL    HW121553   2.248   6.999   7.977  0.8645 -2.2070 -0.2052
 5699SOL    HW221554   2.117   7.029   7.906  1.2295  2.4279  0.7737
 5700SOL     OW21555   4.811   3.356   0.563 -0.1703  0.2757 -0.2567
 5700SOL    HW121556   4.740   3.348   0.628  0.4408 -0.1906  0.3672
 5700SOL    HW221557   4.891   3.359   0.615  0.3787 -0.7052 -1.0055
 5701SOL     OW21558   7.739   1.345   2.190  0.7091 -0.2311 -0.0190
 5701SOL    HW121559   7.722   1.345   2.284 -0.6098  0.7636 -0.2201
 5701SOL    HW221560   7.830   1.372   2.182  0.5108  0.8062  0.9528
 5702SOL     OW21561   5.813  10.897   9.473 -0.2800 -0.2018  0.1905
 5702SOL    HW121562   5.782  10.962   9.409  0.8592 -0.2403 -0.4146
 5702SOL    HW221563   5.858  10.831   9.420 -0.7073 -1.0672  0.8853
 5703SOL     OW21564   6.137  10.049   7.415 -0.1050 -0.5315  0.1621
 5703SOL    HW121565   6.230  10.034   7.431 -0.1148 -0.6732  0.0891
 5703SOL    HW221566   6.098  10.056   7.502  0.3475  1.9337  0.2465
 5704SOL     OW21567   8.938   4.529   7.566  0.3970 -0.2833  0.2359
 5704SOL    HW121568   9.024   4.571   7.561 -0.5525  1.6527 -1.5743
 5704SOL    HW221569   8.902   4.557   7.651  0.7862  0.5229  0.1415
 5705SOL     OW21570   7.548   4.509   7.276 -0.0371  0.2456 -0.1487
 5705SOL    HW121571   7.610   4.482   7.209 -1.6068 -1.0927 -1.1283
 5705SOL    HW221572   7.478   4.552   7.227 -0.6808  0.2431  0.7543
 5706SOL     OW21573  10.826   4.021   8.690 -0.5837 -0.2554 -0.0609
 5706SOL    HW121574  10.810   3.927   8.686  0.8532 -0.4964 -2.1047
 5706SOL    HW221575  10.887   4.032   8.763  1.7301 -1.4348 -1.6896
 5707SOL     OW21576   5.489   8.326   4.614 -0.5921 -0.1844 -0.5507
 5707SOL    HW121577   5.576   8.289   4.629 -0.1205  0.8625 -0.6456
 5707SOL    HW221578   5.495   8.415   4.648 -0.7148  0.9172 -3.2075
 5708SOL     OW21579   1.000   9.087   2.760  0.3458  0.7193  0.3134
 5708SOL    HW121580   0.970   8.997   2.748  1.1791  0.5272 -0.3986
 5708SOL    HW221581   0.999   9.124   2.672  2.6489  0.5553  0.1786
 5709SOL     OW21582   5.385   2.774   9.535  0.4699 -0.4199 -0.0179
 5709SOL    HW121583   5.357   2.806   9.621 -1.0948 -1.4812 -0.0887
 5709SOL    HW221584   5.442   2.843   9.501  0.8159  0.1929  1.6956
 5710SOL     OW21585   2.998   1.739   2.867  0.0840 -0.2682  0.1639
 5710SOL    HW121586   2.952   1.656   2.872  1.4191 -0.9952  1.1883
 5710SOL    HW221587   2.948   1.791   2.805 -1.0830 -1.6378 -0.0904
 5711SOL     OW21588   9.525   5.518   0.901  0.2718  0.1689  0.3148
 5711SOL    HW121589   9.483   5.575   0.966 -0.0456  0.3224 -0.0230
 5711SOL    HW221590   9.558   5.577   0.834  0.6248  0.0123  0.3486
 5712SOL     OW21591   6.039  10.563   0.328 -0.1567 -0.0757 -0.1786
 5712SOL    HW121592   5.951  10.526   0.325 -0.2303  0.0621  0.2152
 5712SOL    HW221593   6.026  10.657   0.314  0.2238 -0.4197 -3.4920
 5713SOL     OW21594   1.753   7.776   7.521  0.3815  0.0900 -0.3869
 5713SOL    HW121595   1.728   7.856   7.474  0.1035  0.3886  0.2520
 5713SOL    HW221596   1.817   7.734   7.464  0.5418  0.7736 -0.7309
 5714SOL     OW21597   7.127   6.725   5.042 -0.3901 -1.0603  0.2347
 5714SOL    HW121598   7.045   6.767   5.068  0.1286  0.5242 -0.5431
 5714SOL    HW221599   7.105   6.633   5.031 -2.5227 -0.4219 -1.6676
 5715SOL     OW21600   8.440   9.024   0.535 -0.7467  0.0053 -0.0989
 5715SOL    HW121601   8.523   8.989   0.569 -1.6549 -0.9277  1.2580
 5715SOL    HW221602   8.442   9.117   0.559 -0.5715 -0.2533  0.9397
 5716SOL     OW21603   8.621   7.894   9.794 -0.2985  0.1324  0.2454
 5716SOL    HW121604   8.694   7.879   9.854 -0.8438 -1.4357  0.5748
 5716SOL    HW221605   8.655   7.867   9.708 -1.0839 -2.7816  0.7413
 5717SOL     OW21606   1.400   9.178   1.275 -0.1219 -0.1928 -0.0390
 5717SOL    HW121607   1.450   9.099   1.254  0.8569  0.6635 -1.0642
 5717SOL    HW221608   1.352   9.199   1.195 -1.4297 -0.4653  0.6393
 5718SOL     OW21609   1.020   2.745   6.557 -0.0545  0.1401 -0.6459
 5718SOL    HW121610   0.954   2.681   6.535  0.2674 -0.4161 -0.0203
 5718SOL    HW221611   1.089   2.695   6.602 -1.1349  1.3127  2.6173
 5719SOL     OW21612  10.014   6.029   3.381  0.6499 -0.5278  0.4737
 5719SOL    HW121613   9.963   6.083   3.321  2.8594  2.3410  0.9241
 5719SOL    HW221614   9.957   6.017   3.457  0.2223  1.8714  0.6233
 5720SOL     OW21615   6.435   4.256   2.009  0.1359  0.9923  0.1659
 5720SOL    HW121616   6.512   4.286   1.960  0.1822 -1.9508 -1.8568
 5720SOL    HW221617   6.363   4.263   1.946 -0.0464 -1.7835 -0.0441
 5721SOL     OW21618   0.082   1.784   7.628  0.1675 -0.2649 -0.7155
 5721SOL    HW121619   0.026   1.724   7.676  0.6243 -0.4555 -0.4181
 5721SOL    HW221620   0.168   1.741   7.626  0.4346  0.2560 -0.7112
 5722SOL     OW21621   2.256   6.344   5.637  0.4874 -0.2898 -0.2364
 5722SOL    HW121622   2.350   6.325   5.633  0.2046 -1.6089 -1.6933
 5722SOL    HW221623   2.219   6.270   5.685  0.0771 -0.2772 -0.5315
 5723SOL     OW21624  10.996   9.222  10.960 -0.3369  0.1001  0.3310
 5723SOL    HW121625  10.919   9.167  10.947 -0.1960 -0.6753  2.3825
 5723SOL    HW221626  10.971   9.282  11.030  0.3028  1.1339 -0.2940
 5724SOL     OW21627  10.993   1.637   8.292 -0.1690  0.2036 -0.2451
 5724SOL    HW121628  11.005   1.676   8.205  2.1367 -0.6957 -0.3843
 5724SOL    HW221629  10.910   1.589   8.285  0.0103  0.0786 -1.9775
 5725SOL     OW21630  10.892   7.028   2.259  0.3331 -0.4277  0.3073
 5725SOL    HW121631  10.824   6.962   2.275  0.9812 -0.4763  3.6531
 5725SOL    HW221632  10.939   6.996   2.183 -1.4748 -2.0034 -0.2431
 5726SOL     OW21633   1.281   3.723   5.252  0.0566  0.0994 -0.0067
 5726SOL    HW121634   1.300   3.816   5.248  0.7938 -0.0111  0.7345
 5726SOL    HW221635   1.215   3.715   5.321  1.3624 -0.1127  1.2689
 5727SOL     OW21636   4.641   0.436   5.926 -0.3664  0.1720 -0.0567
 5727SOL    HW121637   4.659   0.427   6.020 -1.6996  1.5080  0.3854
 5727SOL    HW221638   4.686   0.362   5.885  1.0105  0.0741  1.5265
 5728SOL     OW21639   1.831   5.825   4.045 -0.3989 -0.0992 -0.4136
 5728SOL    HW121640   1.893   5.784   3.985  0.8774  0.2820  0.6101
 5728SOL    HW221641   1.824   5.764   4.119 -1.4168 -0.2341 -0.6060
 5729SOL     OW21642   1.356  10.665   6.691 -0.1815 -0.2009 -0.0949
 5729SOL    HW121643   1.420  10.598   6.667  0.5502  0.4190  0.0791
 5729SOL    HW221644   1.374  10.738   6.633 -0.6937  0.0078  0.0007
 5730SOL     OW21645   2.930   1.064   5.960 -0.5876  0.1011 -0.0234
 5730SOL    HW121646   2.978   1.028   5.885 -0.0993 -0.3981  0.5155
 5730SOL    HW221647   2.854   1.008   5.969  0.6366 -1.4376  1.3772
 5731SOL     OW21648   7.999  10.413   6.440  0.4451  0.4489 -0.3833
 5731SOL    HW121649   8.038  10.500   6.432 -1.0089  1.1411 -0.3396
 5731SOL    HW221650   7.981  10.387   6.350  2.0765 -0.4222 -0.5001
 5732SOL     OW21651   8.605   2.312  10.983 -0.1258  0.2060 -0.3399
 5732SOL    HW121652   8.695   2.341  10.970 -0.8262  2.9998  0.3031
 5732SOL    HW221653   8.555   2.360  10.917 -1.6259  2.0863  2.0108
 5733SOL     OW21654   1.234   5.483   7.931 -0.9359  0.2854  0.3539
 5733SOL    HW121655   1.152   5.527   7.910 -0.3304  0.9959 -0.6746
 5733SOL    HW221656   1.299   5.554   7.935  0.0515 -0.4616 -1.2574
 5734SOL     OW21657   5.161   9.666   0.854  0.3826  0.4785 -0.4350
 5734SOL    HW121658   5.147   9.660   0.948  1.1645  0.0865 -0.3279
 5734SOL    HW221659   5.117   9.747   0.828 -1.5776 -0.4394 -0.0884
 5735SOL     OW21660  11.072   6.041   6.951  0.1815 -0.0189  0.4465
 5735SOL    HW121661  11.087   6.082   7.036  0.5264  0.5147  0.1390
 5735SOL    HW221662  11.159   6.037   6.911 -0.0935  0.4942 -0.2188
 5736SOL     OW21663   1.472   3.385   2.293 -0.2071 -0.0860  0.4628
 5736SOL    HW121664   1.552   3.398   2.241 -0.3578  2.9250  0.7676
 5736SOL    HW221665   1.504   3.379   2.383 -0.2655  2.0541  0.6893
 5737SOL     OW21666   7.814   8.615   1.609  0.3309  0.1639  0.3570
 5737SOL    HW121667   7.729   8.581   1.640 -0.3128  0.7429 -0.7403
 5737SOL    HW221668   7.820   8.702   1.648  0.5191  0.0507  0.5861
 5738SOL     OW21669   6.507   7.442   2.640  0.0646 -0.2727 -0.3161
 5738SOL    HW121670   6.537   7.442   2.731  1.1935 -0.5108 -0.6784
 5738SOL    HW221671   6.415   7.413   2.646 -0.4694  1.5019  0.9071
 5739SOL     OW21672   7.317   0.609   5.450  0.0797  0.4571 -0.1604
 5739SOL    HW121673   7.236   0.564   5.474  0.1604 -0.8448 -2.0423
 5739SOL    HW221674   7.288   0.692   5.413 -0.1526  1.4706  2.1462
 5740SOL     OW21675   5.232   8.199   9.983 -1.1321  0.0699  0.0925
 5740SOL    HW121676   5.273   8.285   9.994 -0.3365 -0.1431 -1.0572
 5740SOL    HW221677   5.151   8.205  10.033 -0.7678  1.2649  0.5785
 5741SOL     OW21678   2.897   8.286   9.441  0.6468 -0.1637 -0.1721
 5741SOL    HW121679   2.816   8.333   9.461  0.5292 -0.6389  0.5096
 5741SOL    HW221680   2.913   8.305   9.349 -1.0858 -1.3386 -0.7660
 5742SOL     OW21681   8.223   3.729   7.996  0.0375  0.4273  0.1029
 5742SOL    HW121682   8.244   3.794   7.929  0.9483 -0.5722 -0.6049
 5742SOL    HW221683   8.128   3.738   8.008 -0.2722  0.1554 -1.8252
 5743SOL     OW21684   8.322   8.765   3.174 -0.3045 -0.1996 -0.2026
 5743SOL    HW121685   8.290   8.748   3.262 -0.3341  0.3755 -0.1006
 5743SOL    HW221686   8.338   8.678   3.137  1.9883 -0.4673  1.1998
 5744SOL     OW21687   1.286   8.176   8.328  0.4059  0.3965 -0.1694
 5744SOL    HW121688   1.332   8.221   8.257 -0.1864  0.1942 -0.6934
 5744SOL    HW221689   1.194   8.175   8.300  0.0406  0.9562  0.9376
 5745SOL     OW21690   2.816   3.681   3.737  0.0442  0.4130  1.0875
 5745SOL    HW121691   2.901   3.705   3.774 -0.7229  2.3887  1.7337
 5745SOL    HW221692   2.798   3.750   3.673 -2.2056  1.6441  2.8716
 5746SOL     OW21693   4.507   7.761   3.492  0.0516 -0.6380  0.9987
 5746SOL    HW121694   4.550   7.825   3.435 -2.4256 -0.8628 -1.2922
 5746SOL    HW221695   4.573   7.692   3.504  0.8707 -0.3138 -1.1854
 5747SOL     OW21696   6.843   9.104   7.624 -0.1271 -0.3859 -0.1536
 5747SOL    HW121697   6.906   9.150   7.680 -1.8262  1.1677  0.6084
 5747SOL    HW221698   6.845   9.152   7.541 -1.3067  0.6592  0.3711
 5748SOL     OW21699   2.185   4.114   7.814 -0.6352 -0.1729 -0.7844
 5748SOL    HW121700   2.252   4.115   7.745  0.0069  0.6818 -0.1671
 5748SOL    HW221701   2.210   4.041   7.871  2.8936  3.0102  2.3385
 5749SOL     OW21702   7.369   4.621   1.613 -0.5238 -0.8090 -0.5772
 5749SOL    HW121703   7.308   4.612   1.540 -1.3284  0.5419 -0.1128
 5749SOL    HW221704   7.372   4.715   1.630 -1.6366 -1.1621  2.1733
 5750SOL     OW21705   6.284   6.078   8.479  0.0691  0.2389  0.1938
 5750SOL    HW121706   6.352   6.040   8.534 -0.9923 -2.4264 -0.2150
 5750SOL    HW221707   6.331   6.109   8.401  1.0799  0.6125  0.9230
 5751SOL     OW21708   4.649   2.731   7.395 -0.1463  0.2342  0.2739
 5751SOL    HW121709   4.629   2.749   7.486 -2.5382  1.1869 -0.3695
 5751SOL    HW221710   4.743   2.712   7.394 -0.2247 -0.6771  3.0285
 5752SOL     OW21711   0.729   0.343   9.132  0.0923 -0.2937 -0.1091
 5752SOL    HW121712   0.711   0.406   9.201 -0.0768  1.2473 -1.5015
 5752SOL    HW221713   0.644   0.303   9.113  0.1254 -0.6652  0.4849
 5753SOL     OW21714   2.130   3.520   9.000 -0.4151  0.1214 -0.1056
 5753SOL    HW121715   2.082   3.572   8.936  0.0159 -0.9609 -1.3588
 5753SOL    HW221716   2.162   3.444   8.950  1.2061 -0.0025  1.0394
 5754SOL     OW21717   6.047   0.585   1.188  0.2970  0.4318 -0.3370
 5754SOL    HW121718   5.993   0.582   1.267 -1.7066 -3.2505 -1.6169
 5754SOL    HW221719   5.985   0.581   1.116  2.1334 -1.6348 -1.9510
 5755SOL     OW21720   2.589   3.227  10.842  0.9095  0.4278 -0.0359
 5755SOL    HW121721   2.537   3.246  10.764  1.9944  0.3556 -0.8029
 5755SOL    HW221722   2.593   3.131  10.845 -2.4082  0.1874  2.3781
 5756SOL     OW21723   8.732  10.533   5.512 -0.2089  0.2445 -0.1829
 5756SOL    HW121724   8.826  10.549   5.513 -0.1586 -0.0400  0.8731
 5756SOL    HW221725   8.700  10.576   5.591 -1.0366  0.6731 -0.7281
 5757SOL     OW21726   2.620   9.294   2.317  0.0950  0.2783  0.3845
 5757SOL    HW121727   2.655   9.220   2.367 -0.9464 -0.9874 -0.6516
 5757SOL    HW221728   2.538   9.316   2.360  0.7806  1.3784  1.1567
 5758SOL     OW21729   8.106   3.441   8.815 -0.0472  0.2399 -0.8520
 5758SOL    HW121730   8.186   3.408   8.773  1.1349 -0.8191  2.0254
 5758SOL    HW221731   8.043   3.369   8.807 -0.3883  0.6388 -2.0854
 5759SOL     OW21732   1.688   0.185  10.203  0.5912 -0.3067 -0.3345
 5759SOL    HW121733   1.646   0.270  10.190 -0.5467 -1.0082 -1.4802
 5759SOL    HW221734   1.616   0.127  10.228  1.2093 -1.1155 -0.4052
 5760SOL     OW21735   8.605   4.960   1.193  0.4293 -0.0288  0.1784
 5760SOL    HW121736   8.667   4.892   1.166  1.2562  0.9802 -0.5288
 5760SOL    HW221737   8.623   5.033   1.135 -1.2274  0.4061  0.1785
 5761SOL     OW21738   7.334   6.192   7.188  0.1138  0.0786  0.8066
 5761SOL    HW121739   7.419   6.191   7.233  1.5245  0.2101 -1.6501
 5761SOL    HW221740   7.324   6.103   7.154 -0.9392 -0.0315  1.3552
 5762SOL     OW21741   5.329  10.479   8.598  0.5492  0.7244  0.0540
 5762SOL    HW121742   5.414  10.443   8.622  1.0323  0.4469 -1.9691
 5762SOL    HW221743   5.346  10.535   8.523 -1.1623  0.0439 -0.8963
 5763SOL     OW21744   4.903   7.759   5.406 -0.2203  0.1189  0.0548
 5763SOL    HW121745   4.904   7.820   5.480 -1.8440  1.1653 -0.7047
 5763SOL    HW221746   4.984   7.777   5.359 -0.4292  1.3862  0.1289
 5764SOL     OW21747   3.058   7.395   9.467 -0.3551  0.5694  0.2556
 5764SOL    HW121748   3.108   7.412   9.387  1.3198  0.5864  1.2606
 5764SOL    HW221749   3.106   7.325   9.511 -2.1585 -0.5919  0.4867
 5765SOL     OW21750   8.629   0.070   9.357 -0.3175  0.1092 -0.0186
 5765SOL    HW121751   8.689   0.025   9.298  2.3490  2.6461  0.5003
 5765SOL    HW221752   8.687   0.114   9.420 -2.8032  1.8965  1.1824
 5766SOL     OW21753   8.409   2.612   9.361  0.0846  0.2403 -0.4719
 5766SOL    HW121754   8.383   2.643   9.448  0.7692  0.2022 -0.2483
 5766SOL    HW221755   8.340   2.644   9.303 -1.4072 -1.3118  0.3317
 5767SOL     OW21756   4.477   7.216   2.203 -0.5166  0.1708  0.2272
 5767SOL    HW121757   4.403   7.270   2.176  0.3280  0.9224 -0.6736
 5767SOL    HW221758   4.480   7.224   2.299 -0.4735  1.6625  0.1200
 5768SOL     OW21759   1.283   9.847   8.816 -0.1782 -0.1434  0.1842
 5768SOL    HW121760   1.282   9.757   8.782  1.1419 -0.1167  0.0007
 5768SOL    HW221761   1.205   9.853   8.870 -0.2174 -1.4588  0.3245
 5769SOL     OW21762   0.530   4.274   2.599 -0.5858 -0.0813 -0.3963
 5769SOL    HW121763   0.461   4.304   2.657 -0.6578 -0.0122 -0.5166
 5769SOL    HW221764   0.593   4.231   2.656 -0.7921 -0.2605 -0.3037
 5770SOL     OW21765   4.443   9.336   4.375  0.5465  0.0808  0.2818
 5770SOL    HW121766   4.379   9.406   4.381  0.1128 -0.0305 -2.0927
 5770SOL    HW221767   4.405   9.264   4.427 -1.3109  0.0189 -1.0431
 5771SOL     OW21768   9.169   2.148   8.417 -0.3784 -0.1456 -0.3477
 5771SOL    HW121769   9.158   2.135   8.511  0.4729 -1.2040 -0.3760
 5771SOL    HW221770   9.165   2.060   8.379 -0.1800  0.2121 -1.2442
 5772SOL     OW21771   2.587   0.009   2.154 -0.0637 -0.1517 -0.0410
 5772SOL    HW121772   2.674   0.041   2.179 -0.5395  0.5220  0.7621
 5772SOL    HW221773   2.561   0.065   2.081  0.1184 -0.2620 -0.1907
 5773SOL     OW21774   4.333  10.269  10.027 -0.1106  0.2979 -0.0045
 5773SOL    HW121775   4.322  10.282  10.121  0.5177 -1.6909  0.3909
 5773SOL    HW221776   4.381  10.346   9.998  0.1396  0.6969  1.3994
 5774SOL     OW21777   7.238   2.534   1.302  0.3011 -0.3617  0.0081
 5774SOL    HW121778   7.317   2.554   1.351  0.0442  1.6787 -0.3151
 5774SOL    HW221779   7.235   2.600   1.233 -1.0731 -1.1151 -0.7024
 5775SOL     OW21780   4.773   4.077   7.968  0.2998  0.2125  0.9083
 5775SOL    HW121781   4.708   4.121   8.023  0.2571  0.6337  0.5206
 5775SOL    HW221782   4.857   4.115   7.994  0.2255  0.8064  0.3140
 5776SOL     OW21783   4.979   0.628   8.291 -0.4814  0.0587  0.3584
 5776SOL    HW121784   5.054   0.687   8.275  1.1618 -1.9196  0.3554
 5776SOL    HW221785   5.007   0.576   8.366 -1.0014 -2.0583 -0.8565
 5777SOL     OW21786   5.354   1.081   9.269  0.0494  0.4148 -0.5979
 5777SOL    HW121787   5.285   1.017   9.286  0.6017 -0.5080 -1.6885
 5777SOL    HW221788   5.315   1.165   9.295 -0.9764 -0.2453  0.1051
 5778SOL     OW21789   1.067  10.874   9.611 -0.5543 -0.1683 -0.6901
 5778SOL    HW121790   0.976  10.903   9.612 -0.5544 -0.0743  1.2309
 5778SOL    HW221791   1.092  10.869   9.704  1.6839  0.7187 -1.1588
 5779SOL     OW21792  11.044   3.734   9.321  0.0304  0.4405  0.1109
 5779SOL    HW121793  11.046   3.779   9.236 -0.3241 -0.5618 -0.4463
 5779SOL    HW221794  11.122   3.679   9.321 -1.0384 -1.1553 -0.4925
 5780SOL     OW21795   4.451  10.303   7.517 -0.1034  0.2327 -0.5813
 5780SOL    HW121796   4.492  10.218   7.530 -0.8725 -0.0096  0.3408
 5780SOL    HW221797   4.515  10.366   7.550 -1.4594 -0.2807  3.5629
 5781SOL     OW21798   7.060   5.372   8.507  0.3207  0.0878  0.2971
 5781SOL    HW121799   7.123   5.326   8.452  0.3207 -1.3328  1.3973
 5781SOL    HW221800   7.112   5.439   8.552  0.6817  0.0746 -0.0900
 5782SOL     OW21801   1.962   1.915   1.186 -0.1220  0.0003  0.6159
 5782SOL    HW121802   1.894   1.960   1.135 -0.1817 -2.8392 -2.1371
 5782SOL    HW221803   2.044   1.957   1.158 -0.3030 -0.4861 -0.7602
 5783SOL     OW21804   1.844   5.237  10.976 -0.5224  0.1023 -0.0591
 5783SOL    HW121805   1.818   5.313  11.028  2.0137 -0.2603  1.9677
 5783SOL    HW221806   1.922   5.265  10.930  0.3093 -1.1596  0.5274
 5784SOL     OW21807   0.171   3.113   7.272  0.2272  0.1095  0.1087
 5784SOL    HW121808   0.190   3.090   7.181  0.6293  0.4890  0.0918
 5784SOL    HW221809   0.207   3.042   7.324 -1.2428 -0.8301 -0.0826
 5785SOL     OW21810   3.640   5.582   0.915 -0.1333 -0.3076 -0.1689
 5785SOL    HW121811   3.669   5.641   0.985 -0.9164  0.3343 -0.3684
 5785SOL    HW221812   3.703   5.596   0.844 -0.6596  0.7731 -0.4511
 5786SOL     OW21813   1.047   7.575   4.383 -0.2125 -0.3472 -0.1114
 5786SOL    HW121814   1.044   7.571   4.479 -1.1624 -0.3080 -0.1264
 5786SOL    HW221815   0.957   7.598   4.358 -0.3132 -1.7401 -1.0796
 5787SOL     OW21816   8.575   6.370   4.329 -0.1232  0.1839  0.3715
 5787SOL    HW121817   8.628   6.423   4.388  2.4727 -0.9583 -0.7676
 5787SOL    HW221818   8.608   6.391   4.242  0.2744 -2.4256 -0.1967
 5788SOL     OW21819  10.582   8.233   9.576 -0.4550 -0.4476 -0.3938
 5788SOL    HW121820  10.618   8.243   9.665 -0.1688 -2.0337 -0.3013
 5788SOL    HW221821  10.532   8.314   9.561 -0.2030  0.0089  1.0657
 5789SOL     OW21822   0.483   7.235   4.344  0.2040 -0.5275 -0.3144
 5789SOL    HW121823   0.451   7.298   4.280 -0.6346 -0.2695  0.3353
 5789SOL    HW221824   0.424   7.245   4.419  1.0783 -0.9181  0.4450
 5790SOL     OW21825   9.381   7.329  10.858 -0.6177 -0.5400  0.5212
 5790SOL    HW121826   9.375   7.412  10.812  0.6496 -2.0571 -2.6477
 5790SOL    HW221827   9.290   7.302  10.871 -1.0303  0.1363 -0.7968
 5791SOL     OW21828   9.018  10.115   2.980  0.6694 -0.3323 -0.5019
 5791SOL    HW121829   9.020  10.033   2.932  1.0943 -0.1998 -0.7181
 5791SOL    HW221830   9.039  10.091   3.071  0.4988 -0.5005 -0.5087
 5792SOL     OW21831   2.289   8.163   6.795 -0.1087 -0.0283 -0.0505
 5792SOL    HW121832   2.240   8.218   6.734 -0.8547 -0.6853 -0.0582
 5792SOL    HW221833   2.226   8.142   6.865  0.6669  0.5220  0.8251
 5793SOL     OW21834   1.437   2.867   0.048  0.3250  0.6203  0.5739
 5793SOL    HW121835   1.396   2.953   0.045 -0.9921 -0.0067 -0.6166
 5793SOL    HW221836   1.440   2.845   0.141 -0.7827  1.2913  0.7867
 5794SOL     OW21837   2.416   6.785   7.149  0.6222 -0.1959  0.2901
 5794SOL    HW121838   2.465   6.703   7.160  2.3475  0.8511  0.6111
 5794SOL    HW221839   2.427   6.831   7.231  0.4958  0.8056 -0.2386
 5795SOL     OW21840   8.463   9.684   0.939  0.4753  0.2354 -0.3558
 5795SOL    HW121841   8.518   9.610   0.913 -0.7871 -0.9563  0.2137
 5795SOL    HW221842   8.397   9.690   0.869  0.2807  0.5016 -0.1504
 5796SOL     OW21843  10.961   8.603   2.965  0.2427  0.2436 -0.4221
 5796SOL    HW121844  10.869   8.578   2.954 -0.0323 -1.2151  3.5321
 5796SOL    HW221845  10.959   8.683   3.016  1.1199 -0.3821  0.6437
 5797SOL     OW21846   4.720   5.859   6.787  1.2817 -0.0613 -0.0782
 5797SOL    HW121847   4.736   5.778   6.835  1.8372 -0.5930 -1.1379
 5797SOL    HW221848   4.630   5.883   6.809  0.0285 -2.5542 -2.0191
 5798SOL     OW21849   9.929   6.248   2.796  0.4366 -0.5425  0.5938
 5798SOL    HW121850   9.922   6.156   2.824 -0.7512 -0.4104  0.7496
 5798SOL    HW221851   9.941   6.243   2.702 -2.9339 -0.8247  0.0608
 5799SOL     OW21852   5.101   6.637   8.534 -0.1962 -0.2141 -0.0899
 5799SOL    HW121853   5.159   6.628   8.458 -0.4249 -1.3888 -0.1423
 5799SOL    HW221854   5.085   6.731   8.540  1.8303  0.1858  0.0107
 5800SOL     OW21855   2.011   0.162   2.157  0.2983 -0.3076  0.2390
 5800SOL    HW121856   1.964   0.169   2.240 -1.0493  0.6154 -0.5782
 5800SOL    HW221857   1.943   0.150   2.091  1.3102 -0.4579 -0.8058
 5801SOL     OW21858   0.770   4.871   4.449  0.0212 -0.3109  0.1971
 5801SOL    HW121859   0.718   4.844   4.525 -0.9313  0.2130 -0.2451
 5801SOL    HW221860   0.790   4.963   4.466  1.0135 -0.5713  0.4713
 5802SOL     OW21861   1.982   4.862   9.921  0.1794 -0.3066 -0.5890
 5802SOL    HW121862   1.919   4.793   9.899 -1.1601  0.7558 -0.2492
 5802SOL    HW221863   1.937   4.943   9.896  1.0766  0.5349  0.4648
 5803SOL     OW21864   6.267  10.181   1.259 -0.0054 -0.4912  0.0074
 5803SOL    HW121865   6.209  10.237   1.208  0.7304  0.3702  0.0818
 5803SOL    HW221866   6.238  10.191   1.349 -0.1774 -0.6088 -0.0347
 5804SOL     OW21867  10.827  10.142   9.210  0.0529  0.5386 -0.0848
 5804SOL    HW121868  10.917  10.147   9.177 -0.5624 -1.3569 -2.3319
 5804SOL    HW221869  10.780  10.209   9.161 -0.4679 -1.0313 -1.8816
 5805SOL     OW21870   2.407   2.021  10.689  0.0113  0.3738  0.0697
 5805SOL    HW121871   2.406   2.084  10.617  0.7321 -0.3445 -0.5900
 5805SOL    HW221872   2.499   2.020  10.718 -0.1679  0.2609  0.6475
 5806SOL     OW21873   5.490   7.009   1.183 -0.3217 -0.2016 -0.4103
 5806SOL    HW121874   5.490   7.029   1.276  0.4241  1.2023 -0.6759
 5806SOL    HW221875   5.437   6.930   1.175 -2.8528  1.2259  0.8659
 5807SOL     OW21876   8.867   2.338   2.380  0.1834  0.3627  0.2304
 5807SOL    HW121877   8.781   2.372   2.404  0.1479  0.3577  0.1109
 5807SOL    HW221878   8.848   2.262   2.325  0.2626  0.1685  0.4659
 5808SOL     OW21879   4.360   9.552   3.817 -0.2501  0.0634 -0.3061
 5808SOL    HW121880   4.397   9.577   3.733 -0.3181  1.3688  0.0262
 5808SOL    HW221881   4.268   9.580   3.812  0.2476  2.1174  0.9387
 5809SOL     OW21882  10.009   4.167   9.588 -0.1607  0.4879 -0.4683
 5809SOL    HW121883  10.031   4.223   9.663  1.5812 -0.1643 -0.4447
 5809SOL    HW221884   9.988   4.082   9.628  0.4708  0.2249 -0.6820
 5810SOL     OW21885   8.526   1.779   2.639  0.1139  0.2954  0.5596
 5810SOL    HW121886   8.475   1.842   2.690 -0.1725  0.8999 -0.4487
 5810SOL    HW221887   8.595   1.831   2.597 -0.9130  0.2155 -1.3430
 5811SOL     OW21888  10.807  10.097   1.226  0.2193  0.1669  0.0769
 5811SOL    HW121889  10.752  10.035   1.177  0.7613  0.6310 -1.1629
 5811SOL    HW221890  10.822  10.169   1.165  1.1411  0.6424  0.8389
 5812SOL     OW21891   1.235   8.281   3.400 -0.8063  0.3721 -0.0181
 5812SOL    HW121892   1.252   8.288   3.493  1.2010 -0.9720 -0.2168
 5812SOL    HW221893   1.208   8.369   3.373  2.2290  1.7939  1.1775
 5813SOL     OW21894   0.453   7.443  10.840 -0.3979  0.2821 -0.1636
 5813SOL    HW121895   0.541   7.479  10.832 -0.3638  0.3313  0.4326
 5813SOL    HW221896   0.396   7.512  10.804 -0.4197  1.3673  1.7967
 5814SOL     OW21897   4.360   5.928   0.359 -0.1998  0.0473  0.3511
 5814SOL    HW121898   4.279   5.934   0.409 -0.8136  1.2734 -0.7611
 5814SOL    HW221899   4.390   5.838   0.374 -1.3654 -0.2060  1.3463
 5815SOL     OW21900   9.823   1.018   5.636 -0.2570  0.4422  0.4198
 5815SOL    HW121901   9.745   0.976   5.671  0.1925 -1.6239 -0.9136
 5815SOL    HW221902   9.888   1.009   5.705 -0.5848  0.2850  0.7103
 5816SOL     OW21903   4.522   0.232   4.662 -0.0638 -1.3039  0.3336
 5816SOL    HW121904   4.542   0.147   4.702  0.6535 -2.0963 -1.5732
 5816SOL    HW221905   4.507   0.212   4.570 -0.2561  0.6064 -0.0963
 5817SOL     OW21906   0.356   4.304   7.351 -0.2519 -0.0778 -0.4066
 5817SOL    HW121907   0.407   4.321   7.271  0.6512  1.5649  0.4436
 5817SOL    HW221908   0.283   4.366   7.346  0.2601  0.6164  0.3862
 5818SOL     OW21909   3.723   6.154   9.687  0.1624 -0.3088  0.2531
 5818SOL    HW121910   3.756   6.101   9.759  2.1112  1.0484  0.4405
 5818SOL    HW221911   3.742   6.102   9.609  0.2438 -0.7398  0.5529
 5819SOL     OW21912   2.172   0.219   5.534 -0.4548  0.2455  0.0259
 5819SOL    HW121913   2.225   0.278   5.587  1.6009 -1.3849 -0.0966
 5819SOL    HW221914   2.128   0.163   5.598  1.4093 -1.2034  0.1241
 5820SOL     OW21915   3.461   5.350   2.425 -0.0920 -0.6825  0.7660
 5820SOL    HW121916   3.433   5.346   2.334  0.1516 -2.5619  0.7456
 5820SOL    HW221917   3.529   5.418   2.426 -0.1518 -0.5846 -0.4368
 5821SOL     OW21918   1.045   1.201   1.742 -0.0639  0.2037 -0.0226
 5821SOL    HW121919   1.083   1.270   1.687 -0.9710 -0.5649 -1.6893
 5821SOL    HW221920   1.087   1.120   1.711  0.2017 -0.1380  1.1808
 5822SOL     OW21921   4.553   9.397   8.853  0.2713  0.0975 -0.3071
 5822SOL    HW121922   4.587   9.310   8.833  0.8535  0.8753 -3.2495
 5822SOL    HW221923   4.458   9.388   8.844  0.2560 -0.4482  0.3795
 5823SOL     OW21924   0.927   1.883   8.442  0.2206  0.0337 -0.1372
 5823SOL    HW121925   0.940   1.842   8.528  0.6779  1.1128  0.3229
 5823SOL    HW221926   0.955   1.973   8.454 -4.2895  1.7071 -0.0073
 5824SOL     OW21927   5.556   2.222   5.720 -0.1414 -0.1716  0.4394
 5824SOL    HW121928   5.593   2.227   5.808 -0.1148 -2.6599  0.6180
 5824SOL    HW221929   5.466   2.194   5.733 -0.3979  0.2631 -0.3068
 5825SOL     OW21930   4.052   7.657   3.456  0.3912 -0.6151  0.1057
 5825SOL    HW121931   4.121   7.722   3.469 -0.0742 -0.0262 -0.3292
 5825SOL    HW221932   4.093   7.590   3.401  0.7368 -0.4737  0.1864
 5826SOL     OW21933   4.963   5.274   2.805 -0.4785 -0.2386 -0.0555
 5826SOL    HW121934   4.994   5.286   2.715 -1.1932  0.4128 -0.2280
 5826SOL    HW221935   5.000   5.347   2.854  0.0561 -0.6908  0.2263
 5827SOL     OW21936   9.636   6.110   4.198 -0.3935 -0.1371  0.3455
 5827SOL    HW121937   9.685   6.116   4.116 -0.9910 -0.8884 -0.0879
 5827SOL    HW221938   9.579   6.187   4.198  0.3587  0.4261  0.5709
 5828SOL     OW21939   4.041   3.114   6.768  0.0120 -0.0248  0.6293
 5828SOL    HW121940   4.027   3.121   6.673  0.4323  1.3676  0.6403
 5828SOL    HW221941   3.967   3.162   6.806  0.1750 -0.0527  0.9811
 5829SOL     OW21942   5.011   4.325   6.215 -0.3298  0.5226  0.3159
 5829SOL    HW121943   4.979   4.413   6.200  0.0458  0.5069 -0.6643
 5829SOL    HW221944   5.105   4.336   6.229 -0.2749  0.2731  0.1460
 5830SOL     OW21945   0.303   2.427   1.919  0.4619 -0.2880  0.5680
 5830SOL    HW121946   0.248   2.377   1.980 -2.9423  1.7098 -0.5715
 5830SOL    HW221947   0.290   2.518   1.945  2.3195  0.3565 -0.5973
 5831SOL     OW21948   4.093   4.628   9.602  0.0314  0.3859 -0.5276
 5831SOL    HW121949   4.065   4.615   9.693 -0.3143 -0.1213 -0.6991
 5831SOL    HW221950   4.072   4.545   9.559 -0.9033  1.0304 -1.3432
 5832SOL     OW21951   1.869   4.752   5.759 -0.2480 -0.0429  0.5913
 5832SOL    HW121952   1.899   4.796   5.680  1.2175  1.4648  1.9306
 5832SOL    HW221953   1.919   4.670   5.762 -0.2384 -0.0586  0.0151
 5833SOL     OW21954   1.375   1.915  11.007 -0.0551 -0.4662 -0.2858
 5833SOL    HW121955   1.359   1.952  10.920  0.7387  0.8199  0.0906
 5833SOL    HW221956   1.291   1.922  11.052  0.1406  1.2421 -0.1182
 5834SOL     OW21957   7.326   8.899   9.174 -0.7027 -0.3477 -0.1984
 5834SOL    HW121958   7.332   8.897   9.269 -0.3592  0.3281 -0.2088
 5834SOL    HW221959   7.257   8.835   9.154 -0.2831 -1.0170  0.4554
 5835SOL     OW21960   1.214   6.314   1.575 -0.0898 -0.0183 -0.4587
 5835SOL    HW121961   1.136   6.265   1.547 -0.4602 -0.2376  0.8874
 5835SOL    HW221962   1.205   6.320   1.670  0.2014  2.2639 -0.5327
 5836SOL     OW21963   5.557   8.558   4.314  0.7093 -0.1241  0.3776
 5836SOL    HW121964   5.540   8.466   4.336  3.1586 -0.8810 -0.5797
 5836SOL    HW221965   5.625   8.585   4.376  1.0726  0.5829 -0.3220
 5837SOL     OW21966   5.274  10.377   6.050 -0.1744 -0.1857 -0.0642
 5837SOL    HW121967   5.281  10.290   6.089 -0.3263  0.2918  1.0476
 5837SOL    HW221968   5.364  10.400   6.027  0.3851  0.6758  2.6075
 5838SOL     OW21969  10.421   9.596   9.867  0.3499  0.3829 -0.0157
 5838SOL    HW121970  10.461   9.535   9.805  0.1065  1.2325 -1.0348
 5838SOL    HW221971  10.476   9.591   9.945  0.7624 -0.5798 -0.3549
 5839SOL     OW21972   1.036   0.121   1.477  0.4643  1.0091 -0.4657
 5839SOL    HW121973   0.941   0.120   1.467  0.4116  1.4260 -0.0372
 5839SOL    HW221974   1.062   0.030   1.463 -0.1660  0.5757  0.9807
 5840SOL     OW21975   0.820   1.889   9.828  0.3077  0.0831 -0.6724
 5840SOL    HW121976   0.906   1.911   9.863 -0.4459  1.0493  0.6983
 5840SOL    HW221977   0.830   1.892   9.733  1.7340  0.3219 -0.5267
 5841SOL     OW21978   3.996  10.814  10.032 -0.1152  0.0800  0.0160
 5841SOL    HW121979   4.075  10.768  10.005 -1.0466 -1.5889 -0.0106
 5841SOL    HW221980   4.026  10.876  10.099  1.0022 -1.5702  1.1072
 5842SOL     OW21981   0.548   4.035  10.499 -0.3995  0.6020  0.0956
 5842SOL    HW121982   0.520   4.000  10.584 -0.6818 -1.3117 -0.7356
 5842SOL    HW221983   0.598   3.964  10.459 -1.7943  0.7649 -2.1010
 5843SOL     OW21984   0.588   8.326   0.107 -0.0437 -0.5230 -0.7479
 5843SOL    HW121985   0.606   8.414   0.076  0.6506 -1.1578 -2.2311
 5843SOL    HW221986   0.545   8.282   0.034  1.6289 -2.0541 -0.8952
 5844SOL     OW21987   4.209   2.719   9.099 -0.2809  0.1625  0.8183
 5844SOL    HW121988   4.261   2.677   9.030 -1.1125  1.2263 -0.5206
 5844SOL    HW221989   4.196   2.651   9.165  0.2706 -0.9996 -0.2315
 5845SOL     OW21990  10.731   1.027   0.823  0.1212  0.3482  0.0188
 5845SOL    HW121991  10.724   1.118   0.794 -0.8398  0.5430  0.8031
 5845SOL    HW221992  10.667   0.980   0.769 -1.0358  0.5602  1.1426
 5846SOL     OW21993   2.049   2.480   7.141  0.6251 -0.0515  0.1812
 5846SOL    HW121994   1.974   2.422   7.132  0.7058 -0.0143 -0.7509
 5846SOL    HW221995   2.012   2.565   7.162  0.4308 -0.1279  0.1456
 5847SOL     OW21996   9.355   9.974   2.121 -0.0488 -0.1295 -0.0466
 5847SOL    HW121997   9.382   9.885   2.100  1.9214  0.5893 -0.8340
 5847SOL    HW221998   9.306  10.004   2.044  1.2600  0.2012 -0.7785
 5848SOL     OW21999   7.394   0.857   3.808  0.7949  0.3846 -0.1162
 5848SOL    HW122000   7.310   0.861   3.853  0.0013  2.5319 -1.6193
 5848SOL    HW222001   7.420   0.765   3.812 -1.9493 -0.4657 -0.1863
 5849SOL     OW22002   2.973   2.261   7.174 -0.1144 -0.5474 -0.6580
 5849SOL    HW122003   2.903   2.205   7.140 -1.1962 -0.9019  1.9534
 5849SOL    HW222004   2.928   2.338   7.207  0.8109 -0.3872  0.2808
 5850SOL     OW22005   0.811   0.045   3.749  0.5265  0.1949 -0.0347
 5850SOL    HW122006   0.853   0.110   3.806  0.1036  0.4375  0.0037
 5850SOL    HW222007   0.828   0.077   3.660  1.4351 -0.3376 -0.0607
 5851SOL     OW22008   9.516   8.018   4.511 -0.8090 -0.0663  0.0519
 5851SOL    HW122009   9.508   8.105   4.472  0.1429 -0.0194 -0.0592
 5851SOL    HW222010   9.484   7.959   4.442 -1.4463  0.1897  0.1245
 5852SOL     OW22011  10.387  10.686   6.127 -0.3097  0.5658  0.2394
 5852SOL    HW122012  10.323  10.654   6.191 -0.0295  0.4818  0.4783
 5852SOL    HW222013  10.381  10.781   6.132 -3.7490  0.8020 -2.9841
 5853SOL     OW22014   1.747   1.577  10.903  0.4748  0.0177 -0.1702
 5853SOL    HW122015   1.712   1.635  10.971  0.4884 -1.7686  1.4310
 5853SOL    HW222016   1.808   1.632  10.854  0.3510  1.4040  1.1520
 5854SOL     OW22017   3.617   1.933   6.669  0.1796  0.1159 -0.3665
 5854SOL    HW122018   3.709   1.947   6.695 -0.0968  0.8777  0.2416
 5854SOL    HW222019   3.622   1.866   6.600  1.1437 -0.2628  0.0427
 5855SOL     OW22020   4.221   1.165   0.943  0.4140  0.5762  0.3957
 5855SOL    HW122021   4.216   1.255   0.976 -0.2412  1.6252 -2.2974
 5855SOL    HW222022   4.130   1.140   0.927  0.6979  0.1534 -0.6120
 5856SOL     OW22023   5.127   6.930   0.369  0.3586  0.2544  0.5190
 5856SOL    HW122024   5.117   6.956   0.461 -0.5630  1.0471  0.2124
 5856SOL    HW222025   5.044   6.889   0.347 -0.4790  2.4157 -0.6753
 5857SOL     OW22026   1.165   3.039   9.281  0.3005 -0.0919  0.1639
 5857SOL    HW122027   1.133   3.006   9.197  2.7449  0.9038 -1.2966
 5857SOL    HW222028   1.249   2.995   9.293  0.9066  1.2367  1.0785
 5858SOL     OW22029   8.732   0.466   6.438  0.2276 -0.1169 -0.4434
 5858SOL    HW122030   8.713   0.533   6.372 -0.1962  0.3762  0.1747
 5858SOL    HW222031   8.647   0.429   6.461  0.1506  0.9777  1.1509
 5859SOL     OW22032   5.739   9.448   9.556 -0.2793 -0.2771  0.3364
 5859SOL    HW122033   5.674   9.503   9.513 -0.4741  0.0630  1.0485
 5859SOL    HW222034   5.782   9.506   9.619  0.6083 -0.5324 -0.0145
 5860SOL     OW22035   8.239   0.958   0.084 -0.0816 -0.0379 -0.5238
 5860SOL    HW122036   8.304   1.014   0.127 -0.6964 -0.1827  0.6302
 5860SOL    HW222037   8.187   0.922   0.156 -0.4494 -1.1595 -1.3269
 5861SOL     OW22038   7.756   5.073   0.382 -0.1169 -0.3662 -0.0465
 5861SOL    HW122039   7.664   5.055   0.398  0.2830 -1.7849  0.8516
 5861SOL    HW222040   7.783   5.006   0.319  0.3929 -0.1868 -0.0222
 5862SOL     OW22041   9.319   8.983  10.902  0.1376 -0.4604 -0.0290
 5862SOL    HW122042   9.307   9.000  10.995 -1.1665  0.4080 -0.3323
 5862SOL    HW222043   9.412   8.962  10.893  0.3432 -0.2291  1.4135
 5863SOL     OW22044   3.253  10.447   6.146 -0.0259 -0.0389 -0.2081
 5863SOL    HW122045   3.208  10.382   6.200 -1.7113  0.9954 -0.2951
 5863SOL    HW222046   3.295  10.506   6.209  0.0397 -0.2191 -0.0847
 5864SOL     OW22047   5.079   6.336   9.823 -0.2982 -0.4232  0.3594
 5864SOL    HW122048   4.988   6.325   9.853 -0.2601 -1.1467  0.2192
 5864SOL    HW222049   5.110   6.414   9.870 -0.5311 -1.0068  1.5375
 5865SOL     OW22050   5.348   2.398   1.021 -0.1410  0.0816 -0.0950
 5865SOL    HW122051   5.413   2.464   1.042 -0.6197  0.7491 -0.6489
 5865SOL    HW222052   5.292   2.393   1.099  0.9540 -0.9966  0.6535
 5866SOL     OW22053   5.447   7.395   7.447  0.1043 -0.4298  0.2946
 5866SOL    HW122054   5.393   7.464   7.485 -0.3963 -0.0391 -1.0683
 5866SOL    HW222055   5.394   7.316   7.453 -0.2263 -0.2461 -0.1189
 5867SOL     OW22056   4.568   5.034   2.442  0.4746  0.1982 -0.6638
 5867SOL    HW122057   4.484   5.054   2.402 -0.1054 -0.5430  0.1513
 5867SOL    HW222058   4.598   4.955   2.398 -1.2318 -1.9685  1.7602
 5868SOL     OW22059   4.388   1.733   3.211  0.0144  0.2127  0.7397
 5868SOL    HW122060   4.324   1.797   3.181 -1.5652 -1.4084  0.4885
 5868SOL    HW222061   4.393   1.746   3.306  1.1480  1.9271  0.4783
 5869SOL     OW22062   6.203  10.747   0.075  0.1150 -0.0988 -0.5515
 5869SOL    HW122063   6.154  10.771   0.154  0.8803 -2.4427  0.7525
 5869SOL    HW222064   6.260  10.821   0.058  0.2436  0.2951  1.3800
 5870SOL     OW22065   6.888   8.367   9.003 -0.3605  0.1245  0.0322
 5870SOL    HW122066   6.947   8.371   8.928  1.4397  0.4826  1.4112
 5870SOL    HW222067   6.814   8.314   8.973  0.8663 -0.7350 -1.6070
 5871SOL     OW22068   4.147   6.147   7.281 -0.0064 -0.0587  0.5195
 5871SOL    HW122069   4.118   6.088   7.350  0.3222 -0.7874  0.0566
 5871SOL    HW222070   4.125   6.101   7.200  0.0611  0.5569  0.1480
 5872SOL     OW22071   8.346   8.421   5.305  0.2729  0.2240 -0.1461
 5872SOL    HW122072   8.270   8.456   5.259  0.9968  1.1137 -0.6954
 5872SOL    HW222073   8.421   8.446   5.251  0.9402 -0.9375  0.1981
 5873SOL     OW22074   2.352   5.181   3.795 -0.1662 -0.3533 -0.4006
 5873SOL    HW122075   2.336   5.237   3.870 -1.1542 -0.8270 -0.2460
 5873SOL    HW222076   2.443   5.152   3.806 -0.2808 -0.3663  0.5720
 5874SOL     OW22077   2.075   4.227   5.601 -0.5298  0.3589 -0.6512
 5874SOL    HW122078   2.117   4.193   5.522 -0.6285  0.4016 -0.7233
 5874SOL    HW222079   2.008   4.162   5.622  0.0832 -0.1018 -0.0879
 5875SOL     OW22080   5.789  10.941   4.970 -0.6594  0.1269 -0.4493
 5875SOL    HW122081   5.833  10.859   4.994  1.7461  1.4760  0.0027
 5875SOL    HW222082   5.748  10.971   5.051  1.0544  0.8641  0.1838
 5876SOL     OW22083   7.806   1.397  10.665  0.1832  0.0649  0.1070
 5876SOL    HW122084   7.725   1.430  10.625 -0.0861 -0.6506  0.0336
 5876SOL    HW222085   7.870   1.466  10.652  0.5199 -0.6845 -2.8536
 5877SOL     OW22086   0.622   9.716   9.645 -0.0365  0.1296  0.2561
 5877SOL    HW122087   0.546   9.745   9.695 -1.8603 -0.8916 -1.7583
 5877SOL    HW222088   0.598   9.630   9.612  0.1064  1.4836 -3.9931
 5878SOL     OW22089   7.317  10.699   9.642  0.1833  0.6412 -0.5517
 5878SOL    HW122090   7.355  10.783   9.616 -1.1980  1.1338 -1.0152
 5878SOL    HW222091   7.273  10.718   9.725 -0.3509  0.4309 -0.7876
 5879SOL     OW22092   2.558   5.617  10.152 -0.1988  0.5107  0.1713
 5879SOL    HW122093   2.473   5.576  10.170 -0.2903  0.7128  0.1947
 5879SOL    HW222094   2.605   5.612  10.236  0.5006 -1.2172 -0.2725
 5880SOL     OW22095   5.044   9.294   4.057 -0.0461  0.3206  0.0682
 5880SOL    HW122096   5.104   9.292   4.132  0.9865 -0.7387 -0.7594
 5880SOL    HW222097   5.073   9.222   4.001 -0.6283  1.2505 -1.4817
 5881SOL     OW22098  10.868   9.999   6.803  0.2300 -0.1913 -0.1253
 5881SOL    HW122099  10.822  10.048   6.735  2.3111  0.4250 -1.1844
 5881SOL    HW222100  10.933   9.947   6.755  0.7550 -0.9043  1.2908
 5882SOL     OW22101   6.296   7.454   4.614  0.0237 -0.1751  0.0476
 5882SOL    HW122102   6.358   7.525   4.630 -0.4862  0.2067  0.3381
 5882SOL    HW222103   6.261   7.472   4.527  1.1537 -1.0276 -0.6177
 5883SOL     OW22104   0.734  10.873   5.843  0.4467 -0.2023 -0.1188
 5883SOL    HW122105   0.712  10.946   5.784  0.5460  0.8980  1.1532
 5883SOL    HW222106   0.828  10.884   5.860  1.0598 -2.1275 -1.8479
 5884SOL     OW22107   5.152   9.477   7.875  0.1149  0.3633 -0.8282
 5884SOL    HW122108   5.220   9.523   7.825 -0.4617  0.9512 -1.0948
 5884SOL    HW222109   5.113   9.417   7.812  0.5601 -0.1719 -0.6023
 5885SOL     OW22110   9.452   0.284  11.046  0.0605 -0.3526  0.0806
 5885SOL    HW122111   9.406   0.227  11.109 -0.8749 -0.5610 -0.7575
 5885SOL    HW222112   9.415   0.259  10.961 -1.8332  2.8261 -0.1630
 5886SOL     OW22113   4.126  10.129   5.781  0.1753 -0.2523  0.4444
 5886SOL    HW122114   4.145  10.042   5.814 -0.2923 -0.8399 -0.7973
 5886SOL    HW222115   4.049  10.157   5.831 -1.6457 -1.8634 -1.2647
 5887SOL     OW22116   1.314   3.925   9.193  0.0455 -0.1953  0.6849
 5887SOL    HW122117   1.300   3.893   9.104  1.3520  0.1616  0.3288
 5887SOL    HW222118   1.383   3.869   9.229 -0.1934 -0.0813  1.3405
 5888SOL     OW22119   8.285   6.157   7.179  0.4723 -0.0654  0.1113
 5888SOL    HW122120   8.241   6.110   7.250 -1.3303  0.3592 -0.6587
 5888SOL    HW222121   8.217   6.169   7.113  1.6600  1.0494 -0.9669
 5889SOL     OW22122   4.573   8.267   9.377  0.0004 -0.4386 -0.6334
 5889SOL    HW122123   4.631   8.285   9.304  0.3597 -0.9306 -0.4750
 5889SOL    HW222124   4.485   8.266   9.339 -0.3931  3.8336 -0.3305
 5890SOL     OW22125   9.149   4.030   5.125  0.2367  0.1693  0.3044
 5890SOL    HW122126   9.146   4.115   5.168 -1.1240  0.2658  0.0611
 5890SOL    HW222127   9.202   3.975   5.183 -0.1191  0.7702  1.2110
 5891SOL     OW22128   7.543   4.547   4.649  0.5517 -0.3607 -0.3275
 5891SOL    HW122129   7.468   4.565   4.592 -0.1922 -1.5602  0.2149
 5891SOL    HW222130   7.610   4.610   4.622 -0.3204  0.1184 -1.4642
 5892SOL     OW22131   4.632   4.596   9.898  0.5138 -0.2230 -1.0475
 5892SOL    HW122132   4.686   4.525   9.864 -0.8293 -1.0905 -1.4645
 5892SOL    HW222133   4.566   4.610   9.830  1.9285  2.8907 -1.9393
 5893SOL     OW22134   8.551  11.070   4.232 -0.4100 -0.1719  0.3555
 5893SOL    HW122135   8.470  11.081   4.282 -0.8336 -0.2054 -0.3105
 5893SOL    HW222136   8.619  11.111   4.286 -0.0465 -3.8134  3.0441
 5894SOL     OW22137   3.859   1.196   4.050  0.5218 -0.5570  0.2915
 5894SOL    HW122138   3.911   1.264   4.007  0.8150 -0.4925  0.7374
 5894SOL    HW222139   3.787   1.178   3.989  0.7979 -0.3021 -0.1140
 5895SOL     OW22140   1.057   4.239   8.699  0.7922  1.0188 -0.2835
 5895SOL    HW122141   0.989   4.299   8.731  1.5693  1.2504  0.9998
 5895SOL    HW222142   1.138   4.271   8.740  1.7172  0.8561 -1.9138
 5896SOL     OW22143   8.091   4.602   7.070 -0.0211  0.5464  0.0635
 5896SOL    HW122144   8.025   4.668   7.094 -0.3526  0.8416 -1.5590
 5896SOL    HW222145   8.042   4.534   7.024  0.5061 -0.2844  0.6978
 5897SOL     OW22146   1.176   4.696   0.073 -0.0045  0.0331  0.4084
 5897SOL    HW122147   1.214   4.782   0.092  0.8371 -0.0723 -0.6559
 5897SOL    HW222148   1.238   4.634   0.111 -1.5698 -0.1495  2.8928
 5898SOL     OW22149   4.261   5.100   9.391 -0.4892 -0.1898  0.3438
 5898SOL    HW122150   4.249   5.042   9.316  0.3924 -0.1240  0.1423
 5898SOL    HW222151   4.249   5.044   9.467  0.0602 -0.5800  0.1500
 5899SOL     OW22152   8.283   7.327   4.247 -0.5495 -0.4622  0.5230
 5899SOL    HW122153   8.226   7.270   4.195 -1.6830  2.4394 -1.6535
 5899SOL    HW222154   8.223   7.387   4.291  0.7070  1.1096  0.1610
 5900SOL     OW22155   5.750  10.350   7.829  0.0023 -0.0380  0.1217
 5900SOL    HW122156   5.673  10.402   7.808 -0.3033 -0.6569 -0.3398
 5900SOL    HW222157   5.816  10.413   7.857 -0.4039  0.5766 -0.3035
 5901SOL     OW22158   5.249   4.494   2.351  0.6836 -0.1674 -0.4108
 5901SOL    HW122159   5.216   4.513   2.439  0.2898 -1.4809 -0.2487
 5901SOL    HW222160   5.170   4.477   2.299  0.9676 -0.7356 -0.6688
 5902SOL     OW22161   0.349   9.386   4.813 -0.0146  0.2887  0.0063
 5902SOL    HW122162   0.308   9.450   4.756  0.0045  0.8259  0.5879
 5902SOL    HW222163   0.292   9.309   4.808 -0.5624  0.6859  0.0540
 5903SOL     OW22164   9.411   0.967   6.027 -0.2009  0.8182  0.0730
 5903SOL    HW122165   9.321   0.982   5.998  0.1125  1.4076 -0.6240
 5903SOL    HW222166   9.410   0.878   6.062 -1.0636  0.8387  0.1287
 5904SOL     OW22167   7.775   5.905   0.641 -0.4591  0.6630  0.5311
 5904SOL    HW122168   7.767   5.953   0.559  2.4460 -2.0947 -1.6425
 5904SOL    HW222169   7.854   5.940   0.681 -0.3017  0.1393  0.6914
 5905SOL     OW22170   0.933   9.708   6.556 -0.0868 -0.0649 -0.4196
 5905SOL    HW122171   0.946   9.648   6.629  1.4982  0.8764  0.1331
 5905SOL    HW222172   1.021   9.727   6.525 -0.5621  1.6241 -0.8437
 5906SOL     OW22173   8.923   0.944   7.394  0.0295 -0.2050  0.2379
 5906SOL    HW122174   8.828   0.957   7.399  0.0011 -0.7099  1.1655
 5906SOL    HW222175   8.936   0.897   7.312 -1.0208 -3.9663  1.9902
 5907SOL     OW22176   0.907   6.373   4.204  0.1785  0.4282  0.0666
 5907SOL    HW122177   0.938   6.299   4.152 -0.5431  0.4489 -0.4093
 5907SOL    HW222178   0.982   6.432   4.208  0.4454  0.1322 -0.4081
 5908SOL     OW22179   3.618   9.530   8.705  0.1100 -0.5349  0.1725
 5908SOL    HW122180   3.643   9.529   8.613 -0.2442 -1.6934  0.0776
 5908SOL    HW222181   3.618   9.438   8.731 -0.2732 -0.2574  1.2012
 5909SOL     OW22182   9.080   7.163   7.643 -0.6194 -0.2665 -0.0754
 5909SOL    HW122183   9.046   7.221   7.712 -1.5188 -0.3353 -0.4441
 5909SOL    HW222184   9.119   7.090   7.690  0.5015  0.6111  0.3976
 5910SOL     OW22185   5.484   0.835   5.855  0.1065 -0.0492  0.6475
 5910SOL    HW122186   5.525   0.857   5.771 -2.2089  1.0784 -0.2839
 5910SOL    HW222187   5.422   0.765   5.834  0.8011 -1.0539  1.8232
 5911SOL     OW22188   0.357   6.637   3.050  0.1061  0.0195  0.3537
 5911SOL    HW122189   0.329   6.570   2.988  0.5458 -0.4120  0.6081
 5911SOL    HW222190   0.369   6.589   3.132  3.0076 -0.1421 -0.0683
 5912SOL     OW22191   9.761   1.426   3.727  0.7753 -0.2153 -0.4803
 5912SOL    HW122192   9.794   1.358   3.786  0.1900 -0.4512 -0.4220
 5912SOL    HW222193   9.752   1.503   3.783  0.5969 -0.3307 -0.3504
 5913SOL     OW22194   8.890   3.805   5.740  0.4421  0.5544  0.2814
 5913SOL    HW122195   8.909   3.889   5.697  2.4651  0.3024  0.5866
 5913SOL    HW222196   8.963   3.749   5.716 -1.5101 -1.6154 -0.9957
 5914SOL     OW22197   8.881  11.051   3.845 -0.0609  0.5431 -0.2848
 5914SOL    HW122198   8.880  10.961   3.875  0.5176  0.5786 -0.1528
 5914SOL    HW222199   8.974  11.075   3.843 -0.2133  1.1580 -0.2445
 5915SOL     OW22200   3.678   7.430   0.702  0.0382  0.5150 -0.7269
 5915SOL    HW122201   3.595   7.432   0.749  0.2180  1.9797 -0.4209
 5915SOL    HW222202   3.740   7.394   0.765 -0.2620 -0.1623 -0.8071
 5916SOL     OW22203   4.272   3.484   5.336  0.1500  0.4127 -0.6423
 5916SOL    HW122204   4.184   3.492   5.373 -0.2392 -0.6194 -1.2945
 5916SOL    HW222205   4.259   3.499   5.242  0.6705  0.2306 -0.7447
 5917SOL     OW22206   6.821   2.985   9.467 -0.1284  0.1794  0.5338
 5917SOL    HW122207   6.793   2.999   9.376 -1.0353  1.8590  1.0201
 5917SOL    HW222208   6.916   2.977   9.462  0.0656  2.3356 -0.3966
 5918SOL     OW22209   3.342   2.368   9.680  0.1438 -0.0055  0.4983
 5918SOL    HW122210   3.367   2.277   9.666 -1.1215  0.0436 -3.1102
 5918SOL    HW222211   3.251   2.363   9.708 -0.2809  0.0871 -0.7725
 5919SOL     OW22212   0.002   8.124   6.487  0.3899 -0.1999  0.6079
 5919SOL    HW122213   0.039   8.038   6.503 -1.2234 -1.3221 -1.2522
 5919SOL    HW222214   0.029   8.176   6.562  0.3526 -2.6701  2.4498
 5920SOL     OW22215   2.169  10.820   1.604  0.1601 -0.4246 -0.2653
 5920SOL    HW122216   2.209  10.889   1.551 -1.6664  0.8247 -0.1052
 5920SOL    HW222217   2.128  10.866   1.677  2.6305 -2.0956  2.4057
 5921SOL     OW22218   8.558   9.143   2.130 -0.3328  1.2740  0.7120
 5921SOL    HW122219   8.516   9.179   2.052 -2.2057 -0.1809  0.9657
 5921SOL    HW222220   8.566   9.217   2.190 -0.0521  2.1450 -0.3717
 5922SOL     OW22221   9.125   8.672   4.305  0.2955 -0.0632  0.2204
 5922SOL    HW122222   9.114   8.596   4.362 -0.4633 -0.8848 -0.9718
 5922SOL    HW222223   9.102   8.747   4.360 -1.8407 -0.9515  0.6485
 5923SOL     OW22224   2.391   4.234   9.675  0.0024  0.3660  0.0948
 5923SOL    HW122225   2.446   4.155   9.674 -0.9336 -0.2919 -0.5081
 5923SOL    HW222226   2.357   4.241   9.586  0.2390  1.5876  0.0853
 5924SOL     OW22227   6.171   1.871   2.384 -0.6801  0.3105  1.2629
 5924SOL    HW122228   6.174   1.918   2.467 -0.3019  1.0088  0.8677
 5924SOL    HW222229   6.217   1.928   2.323 -1.2702 -0.0266  0.4870
 5925SOL     OW22230   9.172   3.818   5.916  0.7258  0.1233 -0.3477
 5925SOL    HW122231   9.257   3.801   5.957 -0.0884  1.3149  1.9857
 5925SOL    HW222232   9.193   3.833   5.823  3.0954  0.5706  0.2025
 5926SOL     OW22233   6.957   7.569   0.219  0.2502 -0.2345 -0.5245
 5926SOL    HW122234   6.993   7.545   0.134  0.1398 -1.5244 -0.2285
 5926SOL    HW222235   6.901   7.496   0.243  0.9268 -0.2886  1.0239
 5927SOL     OW22236   1.792   0.108   6.003 -0.1565  0.4358 -0.2624
 5927SOL    HW122237   1.703   0.084   6.030 -0.7214 -1.0541 -3.0010
 5927SOL    HW222238   1.780   0.165   5.928  1.1939  0.1389 -0.7379
 5928SOL     OW22239   4.897   1.013  10.681  0.6660  0.3579  0.2082
 5928SOL    HW122240   4.889   0.931  10.632 -0.1436  0.8536 -0.5206
 5928SOL    HW222241   4.956   0.992  10.753 -0.5821 -1.2184  0.8224
 5929SOL     OW22242  10.807   5.145   9.704 -0.1902 -0.0407 -0.3813
 5929SOL    HW122243  10.738   5.212   9.708  0.6792  0.8529  0.2441
 5929SOL    HW222244  10.868   5.170   9.774  0.1100 -1.5591 -0.0728
 5930SOL     OW22245   5.197   7.540   2.341 -0.0713 -0.1318 -0.5042
 5930SOL    HW122246   5.165   7.510   2.256  1.3815 -0.9776 -0.7943
 5930SOL    HW222247   5.256   7.471   2.369 -0.5758  0.1088  1.2468
 5931SOL     OW22248  10.418   5.333   4.435 -0.3027  0.3916 -0.0675
 5931SOL    HW122249  10.413   5.338   4.530  0.1982  0.8823 -0.0644
 5931SOL    HW222250  10.388   5.418   4.404  0.3480  0.5398 -0.3123
 5932SOL     OW22251   4.809   4.232   4.254 -0.2590 -0.2730 -0.1501
 5932SOL    HW122252   4.889   4.224   4.201 -0.6549  0.5293 -0.8948
 5932SOL    HW222253   4.840   4.255   4.341  0.3587 -0.5348 -0.2972
 5933SOL     OW22254   2.602   6.232   8.681 -0.1265  0.0919 -0.4857
 5933SOL    HW122255   2.583   6.254   8.590  0.7135  0.2709 -0.6272
 5933SOL    HW222256   2.628   6.315   8.721  0.6006 -0.1768 -0.3790
 5934SOL     OW22257   3.189   6.950   1.605 -0.8037 -0.7702 -0.5455
 5934SOL    HW122258   3.189   6.858   1.633 -0.7724 -0.7755 -0.5619
 5934SOL    HW222259   3.106   6.985   1.635 -0.1412 -0.3647  0.9140
 5935SOL     OW22260   1.995  10.467   5.221  0.1743 -0.6495  0.1873
 5935SOL    HW122261   1.922  10.422   5.180  0.3314 -1.4873  0.7806
 5935SOL    HW222262   1.958  10.507   5.300  0.3885 -1.3185  0.6444
 5936SOL     OW22263   6.207   0.070   2.954 -0.3920 -0.3078 -0.6413
 5936SOL    HW122264   6.162   0.046   2.873  0.0912 -2.2410 -0.3934
 5936SOL    HW222265   6.137   0.086   3.017 -0.7699 -0.6520 -0.9658
 5937SOL     OW22266   2.717   6.045   8.827  0.2410  0.1407 -0.4768
 5937SOL    HW122267   2.808   6.071   8.815 -0.4059  2.5808 -0.4847
 5937SOL    HW222268   2.667   6.108   8.777 -1.5962  0.4414  1.5811
 5938SOL     OW22269   7.146   8.757   3.625  0.1426  0.2548  0.3648
 5938SOL    HW122270   7.207   8.711   3.683 -0.7151  1.0514  1.9791
 5938SOL    HW222271   7.176   8.848   3.628  0.4981  0.2102 -1.0391
 5939SOL     OW22272   0.846   5.670   1.468  0.1289 -0.3259  0.1693
 5939SOL    HW122273   0.797   5.633   1.541  0.4931  0.7341  0.9804
 5939SOL    HW222274   0.780   5.706   1.410 -0.1037  0.3415  0.8342
 5940SOL     OW22275   5.903   5.290   1.411 -0.0547  0.4349 -0.1055
 5940SOL    HW122276   5.931   5.293   1.502 -1.3847  0.1732  0.3318
 5940SOL    HW222277   5.921   5.200   1.384 -0.6374  0.2085  0.2369
 5941SOL     OW22278   1.609   2.065   6.694  0.2811  0.4734  0.5580
 5941SOL    HW122279   1.584   2.149   6.733 -0.9876  0.8246 -0.9009
 5941SOL    HW222280   1.696   2.080   6.658  0.0710  1.1871  0.3179
 5942SOL     OW22281   8.535   6.406   2.390  0.5406 -0.0955 -0.8823
 5942SOL    HW122282   8.483   6.478   2.356  0.9542  1.2669  1.1655
 5942SOL    HW222283   8.625   6.431   2.374  0.7231  0.3295  0.6338
 5943SOL     OW22284   1.607   9.598   7.413  0.6377  0.3978  0.0196
 5943SOL    HW122285   1.517   9.620   7.436 -0.0127 -0.5455 -1.4797
 5943SOL    HW222286   1.655   9.604   7.496 -0.4072  2.6824  0.5295
 5944SOL     OW22287   2.063   9.864   9.334 -0.4060  0.1955  0.3470
 5944SOL    HW122288   2.109   9.782   9.320  0.1486  0.4911  0.4321
 5944SOL    HW222289   1.995   9.843   9.398 -1.2974 -0.5655 -0.7901
 5945SOL     OW22290   6.568   3.417   3.138  0.0791 -0.0823  0.3339
 5945SOL    HW122291   6.588   3.419   3.044 -0.6612 -0.0373  0.1715
 5945SOL    HW222292   6.586   3.506   3.168  0.4950 -0.1451  0.2735
 5946SOL     OW22293   4.120   6.751   2.057  0.0363  0.0928 -0.9950
 5946SOL    HW122294   4.039   6.801   2.050 -1.3813 -1.8563  0.1098
 5946SOL    HW222295   4.098   6.665   2.020  1.3594 -0.7128 -0.0257
 5947SOL     OW22296   6.626   4.847   2.034  0.3472  0.9389 -0.5797
 5947SOL    HW122297   6.550   4.814   2.081  0.4825  0.5888 -0.6056
 5947SOL    HW222298   6.698   4.842   2.097 -0.1474  3.6944  0.3192
 5948SOL     OW22299   6.395  10.411  10.555 -0.1690 -0.1354 -0.1883
 5948SOL    HW122300   6.322  10.443  10.609  0.3205 -0.3289  0.6121
 5948SOL    HW222301   6.359  10.405  10.467 -0.9820  0.2391  0.1052
 5949SOL     OW22302   9.918   9.817   3.690 -0.6333 -0.0472  0.6321
 5949SOL    HW122303   9.923   9.886   3.623 -0.4553 -0.0116  0.6813
 5949SOL    HW222304   9.849   9.758   3.659 -0.3187 -0.2154  0.2397
 5950SOL     OW22305   0.865  10.238   7.219  0.6506  0.3318 -0.2398
 5950SOL    HW122306   0.826  10.179   7.154  2.0209  0.6252 -1.3910
 5950SOL    HW222307   0.921  10.183   7.272  0.3260  0.2575  0.0238
 5951SOL     OW22308   1.071   3.562   6.632  0.1012  0.0177  0.0125
 5951SOL    HW122309   1.034   3.571   6.720 -0.1983 -0.1188 -0.0978
 5951SOL    HW222310   1.068   3.468   6.614  0.3829  0.0206 -0.0497
 5952SOL     OW22311   0.934   6.968   3.913 -0.0710 -0.1261  0.8885
 5952SOL    HW122312   1.006   6.977   3.975 -0.0706 -1.2071  1.0610
 5952SOL    HW222313   0.955   6.889   3.863 -1.5759 -0.9904  1.5601
 5953SOL     OW22314   6.081   2.675   6.576 -0.1668 -0.4123  0.0441
 5953SOL    HW122315   6.079   2.611   6.648 -0.3541 -1.4696 -0.8621
 5953SOL    HW222316   6.022   2.638   6.511 -0.3429  0.7587 -0.4791
 5954SOL     OW22317   0.509   5.124   4.103 -0.1122 -0.2827 -0.0062
 5954SOL    HW122318   0.473   5.157   4.186  0.9103 -1.2556  0.8411
 5954SOL    HW222319   0.593   5.169   4.093  1.2440 -2.4139  1.0999
 5955SOL     OW22320  10.524   8.658   0.104  0.3171  0.2229  0.5141
 5955SOL    HW122321  10.473   8.579   0.120  0.6015  0.2461  1.5769
 5955SOL    HW222322  10.524   8.704   0.188  0.2129  1.3218 -0.0663
 5956SOL     OW22323   4.301   2.519   8.720 -0.5436  0.1665 -0.2482
 5956SOL    HW122324   4.376   2.475   8.679 -2.6043 -2.8450 -1.1354
 5956SOL    HW222325   4.326   2.530   8.811  1.4426  0.4220 -0.7859
 5957SOL     OW22326   1.193   1.598   1.179  0.2847  0.2918  0.6049
 5957SOL    HW122327   1.260   1.548   1.227  1.2519  0.5733 -0.4267
 5957SOL    HW222328   1.240   1.639   1.107 -1.1226 -0.0398 -0.5537
 5958SOL     OW22329   9.827   2.581   2.315 -0.1946 -0.0813  0.7306
 5958SOL    HW122330   9.833   2.615   2.226 -0.7421  0.0593  0.7429
 5958SOL    HW222331   9.914   2.546   2.334  0.0615  0.3355  0.3217
 5959SOL     OW22332   7.129  11.073   7.110 -0.1121  0.3426 -0.8624
 5959SOL    HW122333   7.209  11.071   7.163  0.1674  0.5714 -1.2757
 5959SOL    HW222334   7.060  11.050   7.172  0.1550  1.0368 -0.2866
 5960SOL     OW22335   8.627   5.360   8.625  0.3259 -0.0610  0.1705
 5960SOL    HW122336   8.654   5.270   8.646 -1.0992 -0.2756  1.2526
 5960SOL    HW222337   8.535   5.351   8.598  0.6798  0.8741 -1.4598
 5961SOL     OW22338   5.516   5.494   5.385 -0.1180 -0.4102 -0.3972
 5961SOL    HW122339   5.528   5.588   5.398  0.7954 -0.5873  0.1094
 5961SOL    HW222340   5.431   5.487   5.340 -0.0676  0.6666 -0.7000
 5962SOL     OW22341   6.256   3.484   8.783 -0.2335  0.3080 -0.1000
 5962SOL    HW122342   6.190   3.537   8.827  0.5042  0.7040  0.5568
 5962SOL    HW222343   6.268   3.409   8.842 -0.6367 -0.1503 -0.5916
 5963SOL     OW22344   5.222   3.284   1.114  0.3312 -0.3295 -0.2455
 5963SOL    HW122345   5.148   3.228   1.136  0.4380 -0.3185  0.1478
 5963SOL    HW222346   5.299   3.232   1.139  0.4713 -0.5085 -1.0307
 5964SOL     OW22347   1.850   7.213   8.598  0.6004  0.4623  0.2794
 5964SOL    HW122348   1.877   7.130   8.559  1.3581  0.0212  1.7068
 5964SOL    HW222349   1.861   7.277   8.527 -1.3511 -0.8175 -1.3114
 5965SOL     OW22350   7.110   2.134   8.762  0.0281 -0.1557  0.5867
 5965SOL    HW122351   7.028   2.088   8.745  0.6968 -2.3644  2.6681
 5965SOL    HW222352   7.167   2.109   8.689 -0.9323  1.0241 -0.6266
 5966SOL     OW22353   7.022   0.680   2.606  0.3548  0.0390  0.2933
 5966SOL    HW122354   7.019   0.621   2.681  0.8122  1.0127  1.0994
 5966SOL    HW222355   7.034   0.767   2.644  1.2111  0.4913 -0.9318
 5967SOL     OW22356   5.452  11.014   5.331  0.4742  0.3143  0.0143
 5967SOL    HW122357   5.529  11.065   5.355  0.4830  0.4499 -0.2952
 5967SOL    HW222358   5.454  10.938   5.390  1.3948 -0.2074 -0.6658
 5968SOL     OW22359   7.501   3.536   6.131  0.5055 -0.4589  1.0183
 5968SOL    HW122360   7.509   3.550   6.036 -0.3494 -4.3629  0.1877
 5968SOL    HW222361   7.583   3.494   6.156 -0.7733 -3.2503  0.9847
 5969SOL     OW22362   3.425   1.911   2.216  0.0469 -0.0989 -0.4938
 5969SOL    HW122363   3.477   1.987   2.240 -0.0814 -0.2421  0.2560
 5969SOL    HW222364   3.472   1.872   2.142  1.0447 -0.2548  0.2006
 5970SOL     OW22365   2.430   4.002  10.021  0.1277 -0.3986 -0.4534
 5970SOL    HW122366   2.486   4.077  10.042  2.2254 -1.8201 -0.6317
 5970SOL    HW222367   2.437   3.993   9.926  1.2885 -1.8048 -0.2610
 5971SOL     OW22368  10.822   0.406  10.823 -0.0255 -0.2678  0.1482
 5971SOL    HW122369  10.744   0.462  10.820  0.6008  0.5900 -1.0704
 5971SOL    HW222370  10.856   0.416  10.912 -0.0380  1.1740  0.0110
 5972SOL     OW22371   2.103   2.865   8.637 -0.0088 -0.7716 -0.2166
 5972SOL    HW122372   2.186   2.827   8.666 -0.5769 -0.7092  1.6130
 5972SOL    HW222373   2.039   2.795   8.648 -0.3494 -0.5503 -0.7599
 5973SOL     OW22374   6.677   5.338   2.086  0.4260  0.3616  0.9133
 5973SOL    HW122375   6.617   5.338   2.161  0.6116 -0.8570  1.0886
 5973SOL    HW222376   6.746   5.276   2.110 -0.1018 -0.9357 -0.6839
 5974SOL     OW22377   9.458   8.873   2.743 -0.1127  0.0381  0.2399
 5974SOL    HW122378   9.374   8.853   2.702  0.4799  0.2451 -1.1110
 5974SOL    HW222379   9.486   8.790   2.782  0.1769 -0.6581 -1.3870
 5975SOL     OW22380   5.460   1.856   7.090  0.3424 -0.1126 -0.4416
 5975SOL    HW122381   5.420   1.915   7.026 -0.5039  0.5316  0.6405
 5975SOL    HW222382   5.545   1.895   7.109 -0.2470  0.8565  0.3339
 5976SOL     OW22383   5.036   7.628  10.197 -0.0542  0.6234 -0.7959
 5976SOL    HW122384   4.946   7.600  10.185  0.4879 -1.7173 -0.0360
 5976SOL    HW222385   5.047   7.634  10.292  0.7661  0.0770 -0.8372
 5977SOL     OW22386   5.589   7.395   5.590  0.3701  0.0893 -0.3748
 5977SOL    HW122387   5.598   7.446   5.510 -0.2540  0.8447  0.0268
 5977SOL    HW222388   5.495   7.376   5.596  0.3896  0.1582  0.2526
 5978SOL     OW22389   4.699   3.307   5.809 -0.2783  0.6802 -0.2713
 5978SOL    HW122390   4.772   3.252   5.783 -0.3333 -0.4011  1.6608
 5978SOL    HW222391   4.625   3.274   5.757 -0.3622 -1.2908  1.0112
 5979SOL     OW22392   6.830   3.026   9.724 -0.4159  0.0152 -0.8531
 5979SOL    HW122393   6.812   2.943   9.768  1.5257  0.0232  0.0574
 5979SOL    HW222394   6.829   3.005   9.631  1.7250 -1.4743 -0.6069
 5980SOL     OW22395   9.711   6.079   5.736 -0.8157  0.0381 -0.4898
 5980SOL    HW122396   9.663   6.161   5.747 -0.1319  0.4970 -0.8813
 5980SOL    HW222397   9.776   6.097   5.669 -1.6216 -1.2518 -1.6811
 5981SOL     OW22398   5.777   2.120   2.709  0.3848 -0.4860  0.3140
 5981SOL    HW122399   5.712   2.187   2.686 -0.7749 -1.0941  1.6040
 5981SOL    HW222400   5.736   2.038   2.684  2.5709 -0.7538 -3.0367
 5982SOL     OW22401   6.782   4.383   1.578 -0.1784 -0.0145 -0.4641
 5982SOL    HW122402   6.852   4.336   1.623  0.3563  0.9132 -0.2985
 5982SOL    HW222403   6.812   4.474   1.575 -1.0781  0.2812 -0.9850
 5983SOL     OW22404   2.793   9.421   4.861 -0.8329  0.2652 -0.5253
 5983SOL    HW122405   2.705   9.391   4.885 -0.7829 -1.4945 -2.2350
 5983SOL    HW222406   2.780   9.470   4.780 -0.4247  1.6268  0.2149
 5984SOL     OW22407   7.730   0.380   8.598 -0.2698 -0.2794 -0.6658
 5984SOL    HW122408   7.732   0.432   8.517  0.3873  1.3298  0.3321
 5984SOL    HW222409   7.741   0.290   8.569 -1.6826  0.0756 -2.4932
 5985SOL     OW22410   3.906   3.753   5.774 -0.0227 -0.3185  0.0862
 5985SOL    HW122411   3.865   3.670   5.800 -0.4750 -0.0718  0.1694
 5985SOL    HW222412   3.842   3.820   5.799 -0.5138 -0.0577 -1.7228
 5986SOL     OW22413   4.837   4.114   2.829  0.0104  0.0356 -0.2080
 5986SOL    HW122414   4.900   4.086   2.762 -0.2745  0.6955 -0.7629
 5986SOL    HW222415   4.886   4.174   2.885 -0.1777  0.7417 -0.7846
 5987SOL     OW22416   1.569   1.107   4.260  0.7590  0.0165 -0.5835
 5987SOL    HW122417   1.491   1.066   4.223  0.9179  0.4498 -1.4315
 5987SOL    HW222418   1.548   1.122   4.352 -0.2072  0.2733 -0.8423
 5988SOL     OW22419   7.911   9.941   5.142 -0.6593  0.1998 -0.5877
 5988SOL    HW122420   8.006   9.946   5.147 -0.6913  0.8865 -0.5898
 5988SOL    HW222421   7.894   9.865   5.087 -0.1221 -0.2278 -0.1657
 5989SOL     OW22422   5.803  10.009   2.417  0.6764  0.3877  0.0769
 5989SOL    HW122423   5.855  10.030   2.495 -0.4081 -1.8470  1.5052
 5989SOL    HW222424   5.755   9.930   2.441  1.7485 -1.5615 -3.5654
 5990SOL     OW22425   4.860   6.516   1.585 -0.2461 -0.4172 -0.3298
 5990SOL    HW122426   4.897   6.604   1.577 -0.3380 -0.3569 -0.0825
 5990SOL    HW222427   4.868   6.479   1.497  1.9521 -1.0194  0.0590
 5991SOL     OW22428   9.039   0.381   0.797  0.3202  0.6236 -0.2807
 5991SOL    HW122429   9.125   0.395   0.837  1.3793 -1.1127 -1.7875
 5991SOL    HW222430   8.989   0.333   0.862  2.0387 -2.2336 -0.8749
 5992SOL     OW22431  10.770   5.698  10.310  0.0917 -0.2300  0.0206
 5992SOL    HW122432  10.816   5.782  10.316  1.8970 -1.1450 -0.2324
 5992SOL    HW222433  10.802   5.649  10.386 -1.3461 -0.5295  0.4588
 5993SOL     OW22434   8.492   7.491   4.311 -0.3748  0.2633 -0.0026
 5993SOL    HW122435   8.533   7.527   4.233  0.0008  1.4670  0.7181
 5993SOL    HW222436   8.413   7.448   4.278 -1.0756  2.1045 -0.9193
 5994SOL     OW22437   7.946   0.923   3.177 -0.0512 -0.2266  0.1348
 5994SOL    HW122438   7.886   0.894   3.108  1.7487 -0.4417 -1.4047
 5994SOL    HW222439   7.973   0.842   3.220 -0.0099 -0.2340  0.0951
 5995SOL     OW22440   6.948   5.504   7.200  0.6175 -0.2541 -0.6847
 5995SOL    HW122441   7.023   5.444   7.198 -0.1032 -1.2373  0.2764
 5995SOL    HW222442   6.941   5.530   7.292  0.4120  0.6698 -0.9486
 5996SOL     OW22443   5.143   4.481   0.535 -1.1289 -0.8081  0.0791
 5996SOL    HW122444   5.049   4.464   0.541 -0.7325 -3.0725  0.8487
 5996SOL    HW222445   5.179   4.448   0.617  0.3239  0.3706 -0.0360
 5997SOL     OW22446   6.059   3.161   9.136 -0.6629  0.0912 -0.1503
 5997SOL    HW122447   6.048   3.173   9.231  0.8086  2.2631 -0.1772
 5997SOL    HW222448   6.001   3.088   9.114 -0.9514 -0.5611  2.4376
 5998SOL     OW22449   1.421  10.498   3.453  0.1131  0.0027 -0.0017
 5998SOL    HW122450   1.511  10.502   3.485  0.3959 -0.8885 -0.6452
 5998SOL    HW222451   1.430  10.472   3.361 -0.7320  1.3566 -0.4976
 5999SOL     OW22452   1.465  10.703   2.513  0.6627  0.1240 -0.1857
 5999SOL    HW122453   1.371  10.721   2.516  0.6973  0.3439  2.9221
 5999SOL    HW222454   1.503  10.784   2.480 -0.0556  1.3794  1.8832
 6000SOL     OW22455  10.630  10.139   2.707 -0.0208  0.1561  0.2705
 6000SOL    HW122456  10.555  10.196   2.726 -0.8179 -0.3398 -1.2382
 6000SOL    HW222457  10.617  10.063   2.764 -0.9843 -0.1762 -0.3700
 6001SOL     OW22458   8.562   0.549   1.157  0.2798 -0.1181 -0.2088
 6001SOL    HW122459   8.657   0.538   1.152  0.3165 -0.8911  1.6946
 6001SOL    HW222460   8.546   0.633   1.115  1.7783 -0.0623 -0.7301
 6002SOL     OW22461   4.708   1.441   2.846  0.3620 -0.1253  0.6581
 6002SOL    HW122462   4.768   1.423   2.918  0.6860  0.8889  0.6621
 6002SOL    HW222463   4.644   1.502   2.883  1.0732  1.1563 -0.1379
 6003SOL     OW22464   6.987   3.070   3.091  1.1178 -0.0241 -0.3270
 6003SOL    HW122465   6.919   3.038   3.150  1.5682 -0.7423 -0.1835
 6003SOL    HW222466   6.957   3.157   3.064  0.6608  0.1036  0.5623
 6004SOL     OW22467   8.396   9.868   4.766 -0.4923  0.0389  0.0946
 6004SOL    HW122468   8.486   9.875   4.797 -0.1824  0.1091 -0.7950
 6004SOL    HW222469   8.361   9.791   4.809  0.2119 -0.3825 -0.0773
 6005SOL     OW22470  10.488   1.299   2.254  0.2039 -0.1958  0.3330
 6005SOL    HW122471  10.547   1.329   2.184  2.0006  1.2531  2.3322
 6005SOL    HW222472  10.424   1.244   2.209  0.6373  1.4579 -2.5982
 6006SOL     OW22473   2.250   8.510   9.594 -0.4658  0.3737 -0.2962
 6006SOL    HW122474   2.265   8.441   9.530 -0.6766 -0.8218  0.9056
 6006SOL    HW222475   2.286   8.477   9.675 -0.7510  1.6015  0.3641
 6007SOL     OW22476   0.586   3.085   0.900 -0.0635  0.1620  0.1781
 6007SOL    HW122477   0.623   3.134   0.826  0.7686 -0.3932  0.2125
 6007SOL    HW222478   0.603   3.140   0.976  0.2848  0.1249  0.1301
 6008SOL     OW22479  10.057   7.871  10.414 -0.5318  0.5577  0.4784
 6008SOL    HW122480  10.095   7.827  10.490 -0.3629  1.3828  0.8853
 6008SOL    HW222481  10.124   7.934  10.387  0.5582 -1.4927 -2.0144
 6009SOL     OW22482   5.279   4.634   9.756  0.2783  0.3207 -0.7443
 6009SOL    HW122483   5.209   4.697   9.737  0.1643  0.5528  0.3972
 6009SOL    HW222484   5.351   4.661   9.698  0.1917  1.4285 -0.3627
 6010SOL     OW22485   0.662   3.022   6.910  0.2728  0.0726  0.2091
 6010SOL    HW122486   0.623   2.960   6.849  1.0551  0.3889 -0.6442
 6010SOL    HW222487   0.668   2.975   6.993 -1.7016 -0.0474  0.3266
 6011SOL     OW22488   6.038  10.313   8.634 -0.4623 -0.2195  0.0209
 6011SOL    HW122489   5.961  10.277   8.678 -0.0566 -0.0700  0.8760
 6011SOL    HW222490   6.110  10.295   8.694 -0.0192  0.6985 -0.2266
 6012SOL     OW22491   3.566   9.841   4.813 -0.4753 -0.8867 -0.1828
 6012SOL    HW122492   3.546   9.918   4.866  0.1420  0.3479 -1.6725
 6012SOL    HW222493   3.629   9.792   4.866 -0.6273 -0.1996  0.6581
 6013SOL     OW22494   0.644   5.564   2.749 -0.4208 -0.4966  0.3580
 6013SOL    HW122495   0.715   5.569   2.684 -1.0531 -0.3790 -0.3289
 6013SOL    HW222496   0.579   5.507   2.709 -1.0627  0.0188  0.6537
 6014SOL     OW22497   0.025   8.257   8.360 -0.1288 -0.4914  0.5282
 6014SOL    HW122498   0.074   8.210   8.292 -1.0362  0.5990 -0.9305
 6014SOL    HW222499  -0.016   8.330   8.314 -2.2591 -0.7452  1.9124
 6015SOL     OW22500   4.449  10.017   0.671 -0.1754 -0.0035  0.5583
 6015SOL    HW122501   4.446   9.923   0.657  0.0824  0.0455  0.1449
 6015SOL    HW222502   4.372  10.051   0.625  0.1075  0.0521  0.1127
 6016SOL     OW22503   1.842   3.176   8.032  0.3880  0.2844 -0.4940
 6016SOL    HW122504   1.789   3.119   7.977 -0.6144  1.3223 -0.6235
 6016SOL    HW222505   1.840   3.135   8.118  0.6877 -0.5160 -0.8577
 6017SOL     OW22506   1.406   3.392   1.357 -0.1511  0.4901 -0.0077
 6017SOL    HW122507   1.338   3.370   1.422 -0.2673 -1.9679 -0.8722
 6017SOL    HW222508   1.455   3.311   1.345  2.2870  1.9077 -0.2517
 6018SOL     OW22509   8.808  10.077   1.111 -0.4893  0.1621 -0.3339
 6018SOL    HW122510   8.725  10.031   1.100 -0.7659  0.4857  0.3923
 6018SOL    HW222511   8.784  10.164   1.143  0.1655 -0.0045  0.6556
 6019SOL     OW22512   8.188   8.139   6.551  0.0509 -0.1417  0.1982
 6019SOL    HW122513   8.093   8.130   6.544 -0.0539  0.4167  0.8286
 6019SOL    HW222514   8.207   8.227   6.519  0.4288 -0.4542 -0.4673
 6020SOL     OW22515   0.057   5.919   2.613 -0.2253  0.1366 -0.0076
 6020SOL    HW122516   0.131   5.924   2.553 -0.4410 -0.3954 -0.3200
 6020SOL    HW222517  -0.018   5.898   2.558 -0.7684  1.4396  0.1896
 6021SOL     OW22518   8.479   9.931   2.261 -0.3008  0.0538 -0.2052
 6021SOL    HW122519   8.430   9.993   2.207  1.8279  1.9121 -0.1025
 6021SOL    HW222520   8.524   9.875   2.199 -0.1054  0.3456 -0.3258
 6022SOL     OW22521   5.952   6.078   4.867 -0.0004 -0.5831  0.5933
 6022SOL    HW122522   5.864   6.076   4.905 -0.1349 -4.1421  0.4790
 6022SOL    HW222523   5.939   6.113   4.779 -1.1755 -0.3475  0.8405
 6023SOL     OW22524   4.429   0.161   5.957 -0.7898  0.2137  0.1637
 6023SOL    HW122525   4.345   0.185   5.916 -0.9575 -0.0354  0.3557
 6023SOL    HW222526   4.439   0.222   6.029 -0.9212  0.0947  0.2830
 6024SOL     OW22527   7.596   6.308   5.532  0.1553  0.8035  0.3382
 6024SOL    HW122528   7.516   6.295   5.482  1.7462  0.1787 -2.2528
 6024SOL    HW222529   7.616   6.222   5.569 -1.8409  1.5765  3.6331
 6025SOL     OW22530   7.259   9.928  10.770 -0.0988 -0.0340  0.2142
 6025SOL    HW122531   7.230   9.968  10.688 -1.7633  0.3298  0.9327
 6025SOL    HW222532   7.354   9.923  10.762 -0.0902  1.4231 -1.0964
 6026SOL     OW22533  10.749  10.973  10.054 -0.2804  0.0698 -0.0198
 6026SOL    HW122534  10.808  10.928  10.114 -1.2958 -2.9558 -1.0834
 6026SOL    HW222535  10.669  10.985  10.105 -0.3205 -0.2333 -0.0064
 6027SOL     OW22536   1.216   1.303   6.578  0.2561 -0.8343  0.6507
 6027SOL    HW122537   1.296   1.251   6.586  0.7093 -0.0925  1.0557
 6027SOL    HW222538   1.171   1.290   6.662  0.0064 -1.1584  0.4675
 6028SOL     OW22539   6.105   8.223   5.620  0.7541  0.3115  0.3088
 6028SOL    HW122540   6.103   8.255   5.711  3.1562 -1.1416  0.9580
 6028SOL    HW222541   6.061   8.292   5.570 -2.3810  0.3165  2.7396
 6029SOL     OW22542   0.412   4.298   8.653  0.2808 -0.6906  0.3286
 6029SOL    HW122543   0.375   4.370   8.703  0.1917 -0.7432  0.3388
 6029SOL    HW222544   0.356   4.291   8.575  1.5498  0.6518 -0.7710
 6030SOL     OW22545   7.745   5.995   6.092  0.3240 -0.0982  0.0486
 6030SOL    HW122546   7.751   6.033   6.180  2.3389 -0.4395  0.1121
 6030SOL    HW222547   7.756   6.069   6.033 -2.0379  0.2892  0.0096
 6031SOL     OW22548   6.730   6.888   1.649  0.1202  0.2243 -0.1266
 6031SOL    HW122549   6.651   6.885   1.704  0.3735  0.3935  0.2543
 6031SOL    HW222550   6.754   6.796   1.637  0.1478  0.1886  0.1799
 6032SOL     OW22551   7.501   4.346   5.166 -0.6485  0.1501 -0.6532
 6032SOL    HW122552   7.413   4.357   5.129 -1.9035 -0.4240  1.9189
 6032SOL    HW222553   7.527   4.434   5.192 -1.5109  0.0502  0.6544
 6033SOL     OW22554   3.447   1.747   6.276  0.3416 -0.1919 -0.0657
 6033SOL    HW122555   3.438   1.836   6.309  1.0537 -0.4000  0.7151
 6033SOL    HW222556   3.383   1.742   6.205 -0.5342  0.5855  0.6241
 6034SOL     OW22557   1.069  10.861  10.298  0.0428 -0.2473 -0.5747
 6034SOL    HW122558   1.007  10.924  10.260 -1.4181 -2.4174 -2.0351
 6034SOL    HW222559   1.038  10.776  10.268  2.8402 -1.5898  0.0279
 6035SOL     OW22560   7.162   4.823   5.246  0.0667 -0.2804  0.2729
 6035SOL    HW122561   7.163   4.914   5.216 -0.5042 -0.7122 -1.1333
 6035SOL    HW222562   7.213   4.775   5.180  0.5644 -0.9641  1.1220
 6036SOL     OW22563  10.939   9.251   9.546  0.5349  0.0818  0.4320
 6036SOL    HW122564  10.893   9.168   9.530  0.9706 -0.0573 -0.1344
 6036SOL    HW222565  11.026   9.238   9.507 -0.5948  2.1497 -3.2475
 6037SOL     OW22566   7.217   1.031   5.550  0.3827  0.0208 -1.1482
 6037SOL    HW122567   7.194   0.946   5.586  1.7927  0.7706  1.7864
 6037SOL    HW222568   7.176   1.094   5.609  0.7339  1.3873 -2.3015
 6038SOL     OW22569   1.396   6.964   9.075 -0.7209  0.2132 -0.8436
 6038SOL    HW122570   1.399   7.049   9.032  2.2014  0.6601 -0.0376
 6038SOL    HW222571   1.374   6.984   9.166 -1.0303 -0.0049 -0.8710
 6039SOL     OW22572   0.928  10.833  10.022  0.0389  0.0438  0.5004
 6039SOL    HW122573   1.005  10.848   9.966  0.0892 -1.0235  0.2610
 6039SOL    HW222574   0.882  10.761   9.980  0.9292 -1.8967  2.6748
 6040SOL     OW22575   2.988  10.649   6.211  0.1384  0.2687  0.2765
 6040SOL    HW122576   3.054  10.674   6.275 -0.9082  1.1263  1.0578
 6040SOL    HW222577   2.907  10.688   6.244 -0.8948 -1.3059 -0.3021
 6041SOL     OW22578   7.063   3.951   1.709 -0.1200  0.5152 -0.2726
 6041SOL    HW122579   7.106   3.868   1.728  0.0883  0.1357 -2.2042
 6041SOL    HW222580   7.115   4.016   1.757 -0.7891 -0.4916  1.9679
 6042SOL     OW22581   4.764   6.874   8.179 -0.4938  0.3828 -0.3042
 6042SOL    HW122582   4.852   6.908   8.195 -0.4429  0.6345 -1.0591
 6042SOL    HW222583   4.768   6.840   8.089 -1.2319  0.6293 -0.4347
 6043SOL     OW22584   0.577   4.370   7.759  0.6582 -0.5762  0.1672
 6043SOL    HW122585   0.606   4.434   7.824 -0.1036 -0.2616  0.2105
 6043SOL    HW222586   0.569   4.420   7.678 -0.7097 -0.4123  0.3781
 6044SOL     OW22587   4.247   8.413   0.217 -0.0862  0.5459  0.0042
 6044SOL    HW122588   4.171   8.463   0.246 -0.9732 -0.9771  0.4424
 6044SOL    HW222589   4.217   8.368   0.137  0.2994 -0.1757  0.2538
 6045SOL     OW22590   1.175   7.531   5.352 -0.2376  0.0780 -0.2458
 6045SOL    HW122591   1.267   7.554   5.337  0.0686  0.2614  1.6458
 6045SOL    HW222592   1.177   7.438   5.375 -0.6792 -0.2162 -1.3689
 6046SOL     OW22593   5.822  10.949   7.986 -0.3082  0.2581  0.5026
 6046SOL    HW122594   5.766  10.880   7.949 -0.6287  0.3938  0.7326
 6046SOL    HW222595   5.865  10.987   7.910 -0.8166  0.4031  0.2792
 6047SOL     OW22596   8.047   2.059   5.256 -0.4140 -0.3858  0.3736
 6047SOL    HW122597   7.965   2.106   5.273 -1.1872 -2.1275  1.7221
 6047SOL    HW222598   8.112   2.129   5.245 -1.9228  1.0243 -0.0464
 6048SOL     OW22599   4.121   4.645   7.848  0.6536 -0.0733 -0.3448
 6048SOL    HW122600   4.200   4.693   7.823  0.1825 -0.4024 -2.6402
 6048SOL    HW222601   4.068   4.643   7.769 -1.3261 -0.5565  0.9303
 6049SOL     OW22602   7.072   6.546   6.501 -0.0994 -0.1099  0.7043
 6049SOL    HW122603   6.989   6.546   6.548 -0.6739 -2.1820 -0.2169
 6049SOL    HW222604   7.123   6.476   6.541 -0.3432 -1.4647 -1.1998
 6050SOL     OW22605  10.920   9.389   6.784  0.3426  0.4023 -0.3083
 6050SOL    HW122606  10.988   9.421   6.843 -0.9342  0.5536  1.1208
 6050SOL    HW222607  10.914   9.296   6.802  0.8702  0.1775 -1.1957
 6051SOL     OW22608   9.104   0.983   7.581  0.1966  0.5999 -0.3306
 6051SOL    HW122609   9.170   1.037   7.536  0.2001 -0.4070 -1.5708
 6051SOL    HW222610   9.032   0.977   7.519 -1.7677  2.8673  1.5438
 6052SOL     OW22611   5.801   2.873   0.002 -0.2221  0.1449 -0.4968
 6052SOL    HW122612   5.708   2.883   0.021 -0.7197 -0.0192 -2.6171
 6052SOL    HW222613   5.826   2.956  -0.039  0.7602  0.4469  0.6549
 6053SOL     OW22614   9.811   7.271   8.064  0.2631 -0.2779 -0.3982
 6053SOL    HW122615   9.795   7.185   8.102  1.7323  1.1188  3.9710
 6053SOL    HW222616   9.903   7.270   8.039 -0.2364 -0.5603 -2.3806
 6054SOL     OW22617   4.975   5.200   5.500 -0.2150 -0.3521  0.4742
 6054SOL    HW122618   4.981   5.294   5.517 -0.9406 -0.0743 -0.7509
 6054SOL    HW222619   5.017   5.160   5.577 -0.7228  0.9254  1.4571
 6055SOL     OW22620   1.721  10.693   1.375  0.3673  0.0811  0.2939
 6055SOL    HW122621   1.718  10.670   1.282 -2.4139  1.4864 -0.0517
 6055SOL    HW222622   1.653  10.639   1.415  0.6780  0.4242  1.3137
 6056SOL     OW22623  10.090   3.577   8.182 -0.1942 -0.0671 -0.1641
 6056SOL    HW122624  10.057   3.661   8.213  0.2378  0.1872 -0.3819
 6056SOL    HW222625  10.099   3.589   8.087 -0.1069 -0.3466 -0.1917
 6057SOL     OW22626   5.223   4.627   3.875  0.1745 -0.2464  0.2523
 6057SOL    HW122627   5.318   4.638   3.883  0.0698 -0.2027  1.5305
 6057SOL    HW222628   5.199   4.685   3.802  0.7801  1.8410  1.6302
 6058SOL     OW22629   8.386   7.229   1.938 -0.0139 -0.1315  0.1936
 6058SOL    HW122630   8.381   7.264   2.026 -0.8482 -0.5519  0.3251
 6058SOL    HW222631   8.415   7.302   1.883  1.8963 -0.2118  1.0028
 6059SOL     OW22632   4.026   1.660   9.872 -0.2102  0.3510  0.5558
 6059SOL    HW122633   3.954   1.722   9.881  0.3048  0.9295  0.7580
 6059SOL    HW222634   4.022   1.608   9.953 -0.2181  0.5747  0.6996
 6060SOL     OW22635   2.096   6.531   7.672 -0.5261  0.3389 -0.9306
 6060SOL    HW122636   2.109   6.591   7.599 -1.2340  0.7936 -0.6945
 6060SOL    HW222637   2.020   6.478   7.646  0.0585 -0.4296 -1.1157
 6061SOL     OW22638   2.469   4.593   0.535 -0.1770  0.3551  0.3690
 6061SOL    HW122639   2.440   4.509   0.570  1.0384 -0.6034 -0.8062
 6061SOL    HW222640   2.531   4.627   0.600  0.2611 -0.2681  0.2878
 6062SOL     OW22641  10.156   3.700   6.744 -0.0467  0.6366  0.4381
 6062SOL    HW122642  10.240   3.689   6.789  0.9497  0.3491 -1.4043
 6062SOL    HW222643  10.147   3.795   6.734  1.2627  0.6106 -1.4318
 6063SOL     OW22644   9.183   4.633   3.469 -0.7005  0.2775 -0.0632
 6063SOL    HW122645   9.096   4.594   3.459  0.3365 -2.0112 -0.9128
 6063SOL    HW222646   9.192   4.648   3.563 -1.3956 -1.0664  0.2409
 6064SOL     OW22647   5.065   9.298   7.701  0.1718 -1.0919 -0.4689
 6064SOL    HW122648   4.978   9.258   7.697  0.7470 -2.4016 -0.0798
 6064SOL    HW222649   5.126   9.225   7.700  1.3522 -0.1538 -2.1275
 6065SOL     OW22650   9.545  10.332   7.934  0.0650 -0.3329 -0.0582
 6065SOL    HW122651   9.505  10.270   7.872 -0.2293  1.2153 -1.5047
 6065SOL    HW222652   9.480  10.402   7.942  1.5845  1.2621 -0.8813
 6066SOL     OW22653   6.151   3.954  10.828 -0.1020  0.0796 -0.1648
 6066SOL    HW122654   6.142   4.046  10.806  0.2851  0.2873  0.5203
 6066SOL    HW222655   6.159   3.910  10.743  3.1190  1.0523 -0.5041
 6067SOL     OW22656   9.148  10.254   7.696 -0.1272  0.0777 -0.4858
 6067SOL    HW122657   9.132  10.327   7.637  0.6130 -0.4488 -1.3859
 6067SOL    HW222658   9.063  10.212   7.706 -0.2515  0.1251 -1.2688
 6068SOL     OW22659   4.709   7.808   5.182 -0.5708  0.5706 -0.1880
 6068SOL    HW122660   4.618   7.786   5.203 -1.0660  2.2058 -0.4646
 6068SOL    HW222661   4.760   7.763   5.249 -1.5574 -0.5521 -0.1533
 6069SOL     OW22662  10.813   9.241   6.477  0.3062 -0.8180 -0.0663
 6069SOL    HW122663  10.870   9.177   6.519  0.4977 -0.7432 -0.2154
 6069SOL    HW222664  10.871   9.298   6.427  0.0326 -1.3394 -1.0236
 6070SOL     OW22665   0.776   4.960  10.732 -0.2059 -0.2879 -0.0688
 6070SOL    HW122666   0.708   5.018  10.766 -0.2247 -1.1066  1.3587
 6070SOL    HW222667   0.831   4.941  10.808  2.1127  0.9821 -1.3332
 6071SOL     OW22668   0.555   3.975   3.248 -0.1557 -0.0363 -0.4114
 6071SOL    HW122669   0.566   4.067   3.273  0.3095  0.2993 -1.7690
 6071SOL    HW222670   0.460   3.961   3.249 -0.2086  0.3433  0.1830
 6072SOL     OW22671   0.940   7.076   2.451 -0.2632 -0.1688 -0.1179
 6072SOL    HW122672   1.035   7.069   2.460 -0.2510 -0.6957 -0.6353
 6072SOL    HW222673   0.922   7.170   2.457  0.5259  0.1646 -2.2047
 6073SOL     OW22674   1.237   4.621   9.868 -0.4586  0.2778  0.3583
 6073SOL    HW122675   1.142   4.621   9.871 -0.5843 -3.6100  1.6022
 6073SOL    HW222676   1.259   4.571   9.789  0.6940  2.4215 -0.7885
 6074SOL     OW22677   6.853   8.537   0.336  0.0302 -0.1266 -0.4604
 6074SOL    HW122678   6.765   8.539   0.299  0.0047 -2.5922 -0.6580
 6074SOL    HW222679   6.842   8.494   0.421  0.8747  0.7098  0.0924
 6075SOL     OW22680   7.752   9.742   9.030  0.1944  0.0096  0.2788
 6075SOL    HW122681   7.786   9.800   9.098 -1.5730  1.8421 -0.3005
 6075SOL    HW222682   7.697   9.798   8.975 -1.1541 -2.0975 -0.6757
 6076SOL     OW22683   8.486  10.860   5.501  0.0897 -0.8255 -0.1924
 6076SOL    HW122684   8.448  10.773   5.518 -2.8776  0.4834  0.6228
 6076SOL    HW222685   8.564  10.843   5.449 -1.5662 -3.8721 -1.9189
 6077SOL     OW22686   6.225   7.120   6.777 -0.2911  0.0691  0.1502
 6077SOL    HW122687   6.146   7.156   6.817 -0.3611 -0.5570  0.5788
 6077SOL    HW222688   6.208   7.026   6.768 -0.6106  0.2714 -2.1151
 6078SOL     OW22689   0.446   6.685   6.048 -0.1257 -0.0756 -0.4851
 6078SOL    HW122690   0.523   6.738   6.028  0.0650  0.2019  0.9003
 6078SOL    HW222691   0.386   6.702   5.975 -0.1543  2.2253  0.0231
 6079SOL     OW22692   5.715   7.027   2.720 -0.1584  0.0820  0.2565
 6079SOL    HW122693   5.768   7.046   2.643  0.1522 -2.1127 -0.1461
 6079SOL    HW222694   5.771   7.050   2.794  0.4964 -0.0907 -0.1767
 6080SOL     OW22695   3.973   2.386   8.943 -0.2586 -0.0189 -0.2211
 6080SOL    HW122696   3.991   2.480   8.937 -2.5022  0.4356 -0.6070
 6080SOL    HW222697   3.962   2.370   9.037 -1.9194  0.5802 -0.2760
 6081SOL     OW22698   0.288   0.935   6.190 -0.2575  0.8759 -0.3570
 6081SOL    HW122699   0.358   0.947   6.254 -0.4579  2.5943 -0.4183
 6081SOL    HW222700   0.207   0.946   6.239 -0.6206 -2.2243 -0.0501
 6082SOL     OW22701  10.734   8.869   2.313  0.4758  0.0171  0.6063
 6082SOL    HW122702  10.785   8.943   2.282 -1.4937  1.6423  1.0270
 6082SOL    HW222703  10.686   8.838   2.236 -0.7798  0.9908  0.9597
 6083SOL     OW22704   7.075   0.398   4.853  0.6442 -0.6597  0.1238
 6083SOL    HW122705   7.049   0.472   4.908  0.0945 -0.2627 -0.6511
 6083SOL    HW222706   7.113   0.335   4.914  0.3903 -0.0764  0.9028
 6084SOL     OW22707   6.004  10.767   8.752  0.5354 -0.3211 -0.0132
 6084SOL    HW122708   5.917  10.795   8.725  1.5046  0.6529 -2.4216
 6084SOL    HW222709   5.989  10.689   8.805 -1.7951 -0.0485 -0.1697
 6085SOL     OW22710   5.539   0.781   5.371 -0.0043  0.2465 -0.0054
 6085SOL    HW122711   5.583   0.705   5.408  2.4227  1.0026 -1.1764
 6085SOL    HW222712   5.530   0.761   5.278 -0.7927  0.7485 -0.0444
 6086SOL     OW22713   6.275   5.773   9.959 -0.1894 -0.1940 -0.1898
 6086SOL    HW122714   6.360   5.747   9.924 -0.3059 -0.0171 -0.5996
 6086SOL    HW222715   6.290   5.782  10.053  0.7704  1.8601 -0.5068
 6087SOL     OW22716  10.393   8.422   0.122 -0.2811  0.2817  0.2418
 6087SOL    HW122717  10.326   8.428   0.053  0.0947  1.0696 -0.0677
 6087SOL    HW222718  10.349   8.377   0.194 -1.4800  1.6247  0.4116
 6088SOL     OW22719   3.810   8.644   1.632 -0.2107  0.4394 -0.3260
 6088SOL    HW122720   3.851   8.720   1.674 -1.1055  1.7004 -1.6455
 6088SOL    HW222721   3.860   8.632   1.551  1.1499 -1.6319  0.7069
 6089SOL     OW22722   9.900   0.499   6.621 -0.5729  0.2648 -0.2914
 6089SOL    HW122723   9.807   0.494   6.642 -0.1552  0.0256  1.7213
 6089SOL    HW222724   9.934   0.411   6.640 -0.0354  0.1748 -1.5842
 6090SOL     OW22725   7.622   1.844   0.953  0.1078 -0.1329  0.1088
 6090SOL    HW122726   7.577   1.820   1.034  0.0745 -0.7744 -0.0918
 6090SOL    HW222727   7.563   1.906   0.910 -0.5181 -0.8244 -0.0606
 6091SOL     OW22728   7.126  11.030   4.588 -0.8025 -0.3109 -0.2017
 6091SOL    HW122729   7.188  10.969   4.628  0.4149  0.8627 -0.2501
 6091SOL    HW222730   7.041  11.002   4.621 -0.0139 -0.4506  1.8666
 6092SOL     OW22731   0.036   3.827   2.316  0.5295  0.2119 -0.0032
 6092SOL    HW122732  -0.037   3.856   2.261  0.9494 -0.7155 -1.0854
 6092SOL    HW222733   0.025   3.732   2.321 -0.2117  0.3583  2.5839
 6093SOL     OW22734  10.072   9.742   9.746  0.4809  0.5040  0.0958
 6093SOL    HW122735  10.033   9.670   9.696  0.9245  0.5695 -0.3436
 6093SOL    HW222736  10.161   9.750   9.713  0.0997  1.9815 -0.6598
 6094SOL     OW22737   3.274   3.079   9.681 -0.1676  0.1525  0.5301
 6094SOL    HW122738   3.304   3.021   9.751 -0.6451 -1.8119 -0.8105
 6094SOL    HW222739   3.344   3.077   9.616 -1.1639 -0.8546 -0.5753
 6095SOL     OW22740   8.962   1.888   5.883  1.0776 -0.1287 -0.0780
 6095SOL    HW122741   8.971   1.954   5.951  0.8348  0.0124 -0.1802
 6095SOL    HW222742   8.969   1.804   5.930 -0.1405 -0.0475  0.2903
 6096SOL     OW22743   8.815   3.397  10.112 -0.2755 -0.4261  0.0857
 6096SOL    HW122744   8.879   3.404  10.182  0.3981  0.0363 -0.5713
 6096SOL    HW222745   8.848   3.454  10.043 -0.7060 -1.2012 -0.7776
 6097SOL     OW22746   3.284   1.201   7.975 -0.1548  0.7226 -0.6295
 6097SOL    HW122747   3.328   1.279   8.010 -0.1781  0.3294  0.2966
 6097SOL    HW222748   3.342   1.171   7.905  1.2473  0.0402  0.7611
 6098SOL     OW22749   1.397   3.627  10.222  0.2270 -1.1976 -0.3820
 6098SOL    HW122750   1.412   3.719  10.198  0.3350 -1.7315 -2.6122
 6098SOL    HW222751   1.307   3.610  10.194  0.0304 -1.6619  0.4952
 6099SOL     OW22752   2.791   8.151   6.092  0.2812 -0.0367 -0.0756
 6099SOL    HW122753   2.754   8.203   6.020  2.4176 -1.4648 -2.3842
 6099SOL    HW222754   2.840   8.214   6.145 -1.9131  1.1631  0.6368
 6100SOL     OW22755   3.324  10.223   3.503 -0.0087 -0.2505 -0.2110
 6100SOL    HW122756   3.243  10.218   3.452 -0.2812  0.5615  0.1327
 6100SOL    HW222757   3.392  10.242   3.438 -0.2760  0.2666 -0.3437
 6101SOL     OW22758   1.115   3.341   6.965  0.3418  0.4785  0.5840
 6101SOL    HW122759   1.074   3.274   6.910  0.7814  0.6550  0.0282
 6101SOL    HW222760   1.092   3.316   7.054  1.2144 -0.9046  0.4476
 6102SOL     OW22761   6.367   3.794   7.112 -0.2701 -0.1993  0.5131
 6102SOL    HW122762   6.432   3.813   7.044  1.1441 -2.4081  1.1032
 6102SOL    HW222763   6.315   3.722   7.075 -1.8890  0.9905  0.3889
 6103SOL     OW22764   4.526  10.413   6.051 -0.5980 -0.0016 -0.0030
 6103SOL    HW122765   4.588  10.402   6.123  1.1520 -1.6406 -1.6402
 6103SOL    HW222766   4.581  10.427   5.974 -2.1428 -2.6497 -1.7478
 6104SOL     OW22767   1.654   7.427   4.600  0.5776  0.2477 -0.3710
 6104SOL    HW122768   1.719   7.414   4.530 -1.3544 -3.0459 -1.7379
 6104SOL    HW222769   1.582   7.474   4.558 -0.6413 -1.8389 -0.7325
 6105SOL     OW22770   1.343   7.316   3.250  0.5044 -0.3446 -0.8031
 6105SOL    HW122771   1.397   7.293   3.175  0.2492 -1.4811 -0.6597
 6105SOL    HW222772   1.264   7.263   3.240  1.1850 -1.8274  1.1458
 6106SOL     OW22773   4.534   1.387   9.315 -0.9000 -0.5086  0.5192
 6106SOL    HW122774   4.627   1.391   9.297 -1.1267  0.0059 -0.6262
 6106SOL    HW222775   4.513   1.293   9.312 -0.9690 -0.4954 -2.4373
 6107SOL     OW22776   6.321   9.051   5.025  0.2053  0.2187 -0.3189
 6107SOL    HW122777   6.343   8.965   5.060 -0.3955  0.9724  2.1115
 6107SOL    HW222778   6.371   9.058   4.944  2.9878 -1.0382  1.1708
 6108SOL     OW22779   5.713   3.984   5.991 -0.1223  0.0804 -0.2479
 6108SOL    HW122780   5.767   3.976   6.069  2.2887 -0.6599 -1.8980
 6108SOL    HW222781   5.734   4.070   5.955 -0.2286 -0.1051 -0.7725
 6109SOL     OW22782   0.470  10.281   5.797 -0.0687  0.1631 -0.5727
 6109SOL    HW122783   0.438  10.351   5.740 -2.3865 -0.7608 -0.5106
 6109SOL    HW222784   0.496  10.326   5.878  0.6100  1.1750 -1.3303
 6110SOL     OW22785   6.206  10.177  10.590  0.3151  0.0850  0.4228
 6110SOL    HW122786   6.177  10.268  10.598  1.1353  0.2794  1.3629
 6110SOL    HW222787   6.128  10.129  10.560  0.2833  1.3311 -1.6743
 6111SOL     OW22788   5.855   4.133   9.468 -0.2575  0.2259  0.3805
 6111SOL    HW122789   5.847   4.149   9.374 -1.4239 -0.3648  0.3651
 6111SOL    HW222790   5.831   4.216   9.509  0.5583  0.5801  0.1673
 6112SOL     OW22791   3.897   5.401   4.478 -0.0942 -0.1221 -0.3328
 6112SOL    HW122792   3.875   5.492   4.460 -0.3377 -0.5453 -2.4902
 6112SOL    HW222793   3.814   5.354   4.476  0.1993 -0.6406 -1.1003
 6113SOL     OW22794   6.984   2.246  10.153  0.6125 -0.0044 -0.0120
 6113SOL    HW122795   6.914   2.310  10.145  0.0565 -0.3607  1.6703
 6113SOL    HW222796   7.053   2.279  10.095  0.0562  1.7004  0.2407
 6114SOL     OW22797  11.007  10.385   2.753  0.0850  0.2164  0.6464
 6114SOL    HW122798  11.018  10.309   2.697 -1.1552  1.2507 -1.1052
 6114SOL    HW222799  10.995  10.349   2.841 -0.5521 -1.6205 -0.1460
 6115SOL     OW22800   9.478   6.589   5.038 -1.1633  0.4338  0.5473
 6115SOL    HW122801   9.486   6.494   5.036  0.8929  0.5733 -0.4364
 6115SOL    HW222802   9.394   6.605   5.082 -0.6258 -1.7785  2.6139
 6116SOL     OW22803   4.468   5.246   9.413 -0.3135 -0.0744 -0.3696
 6116SOL    HW122804   4.399   5.180   9.411  1.6327 -2.3073  0.8473
 6116SOL    HW222805   4.471   5.274   9.505  0.4252 -0.0815 -0.3848
 6117SOL     OW22806  10.226   0.853   0.910 -0.1263  0.3082  0.2985
 6117SOL    HW122807  10.210   0.761   0.929 -1.2342  0.4074 -0.0426
 6117SOL    HW222808  10.171   0.871   0.833 -0.0741  1.2921  0.4779
 6118SOL     OW22809   3.026   9.219   9.310  1.0637 -0.0989 -0.0140
 6118SOL    HW122810   3.106   9.232   9.259 -0.3156  0.7950 -2.1068
 6118SOL    HW222811   3.003   9.306   9.341  1.4924 -0.5306  1.5618
 6119SOL     OW22812   3.706   6.929   1.407 -0.1398 -0.3219  0.0262
 6119SOL    HW122813   3.687   7.003   1.350 -1.9560 -0.2457  0.6588
 6119SOL    HW222814   3.623   6.880   1.412  0.7167 -1.7888  0.4867
 6120SOL     OW22815   8.028   7.483   2.213 -0.0729 -0.1208 -0.5723
 6120SOL    HW122816   8.035   7.570   2.252  0.7418 -0.6279  0.4625
 6120SOL    HW222817   7.969   7.495   2.139 -2.1244  0.7739  1.1070
 6121SOL     OW22818   8.801  10.313   4.933 -0.1852 -0.5796 -0.3151
 6121SOL    HW122819   8.894  10.301   4.915 -0.1286  0.4104 -0.7728
 6121SOL    HW222820   8.770  10.367   4.861 -1.2439 -1.3462 -0.4548
 6122SOL     OW22821   5.472   9.080   7.699 -0.2405  0.2873  0.0196
 6122SOL    HW122822   5.460   9.030   7.618 -0.6417  1.4144 -0.6401
 6122SOL    HW222823   5.390   9.066   7.747  0.4122 -1.2477  0.7511
 6123SOL     OW22824   5.610   0.576   2.347 -0.0255  0.0669  0.1594
 6123SOL    HW122825   5.593   0.507   2.412 -0.6784 -0.3720 -0.4645
 6123SOL    HW222826   5.593   0.534   2.263 -1.2257  1.2077 -0.2005
 6124SOL     OW22827   6.016   9.256   4.844  0.0848  0.1209  0.6315
 6124SOL    HW122828   6.028   9.200   4.922 -1.4381 -0.9352  0.1438
 6124SOL    HW222829   6.089   9.318   4.849  1.1628 -1.1494  1.8471
 6125SOL     OW22830   2.286  10.616   6.241 -0.1973 -0.1312 -0.2497
 6125SOL    HW122831   2.221  10.658   6.297  0.1143 -0.0773  0.0814
 6125SOL    HW222832   2.283  10.524   6.266  1.6655  0.2429  1.6726
 6126SOL     OW22833   7.100   1.751   9.684 -0.2189 -0.0413 -0.8422
 6126SOL    HW122834   7.174   1.732   9.626 -0.0984 -1.6678 -0.1838
 6126SOL    HW222835   7.086   1.845   9.673 -0.4116 -0.2957 -3.7654
 6127SOL     OW22836   0.903   2.141   0.300 -0.0703 -0.9478  0.0665
 6127SOL    HW122837   0.846   2.071   0.268 -1.6330 -0.0268  0.7594
 6127SOL    HW222838   0.955   2.166   0.224 -1.3796 -1.0423 -0.8955
 6128SOL     OW22839   8.191   6.394   6.458  0.1217  0.2028  0.1697
 6128SOL    HW122840   8.220   6.450   6.386  0.4596  0.1700  0.2783
 6128SOL    HW222841   8.267   6.389   6.516  0.4838 -1.2783 -0.3878
 6129SOL     OW22842   6.808   2.505   8.666  0.2298  0.0603  0.9094
 6129SOL    HW122843   6.821   2.515   8.760 -0.1541  2.8372  0.7657
 6129SOL    HW222844   6.801   2.595   8.634  0.3110 -0.8132 -1.7794
 6130SOL     OW22845   4.712   1.438   7.937  0.5445 -0.2595 -0.2791
 6130SOL    HW122846   4.786   1.377   7.928  1.2411  0.7311 -1.5401
 6130SOL    HW222847   4.729   1.506   7.873 -0.5116  0.9958  0.7204
 6131SOL     OW22848   8.098   9.205   5.462 -0.1040  0.5703  0.2612
 6131SOL    HW122849   8.166   9.215   5.396 -0.4026 -1.4031 -0.4152
 6131SOL    HW222850   8.135   9.144   5.526 -1.1476 -0.4371 -0.0596
 6132SOL     OW22851   7.793   6.956   4.504 -0.1860 -0.0150  0.8096
 6132SOL    HW122852   7.817   6.923   4.418  0.4687  0.2457  0.8813
 6132SOL    HW222853   7.754   6.881   4.549 -0.0650 -0.2874  0.4611
 6133SOL     OW22854   6.265   2.877   6.482  0.8397 -0.0381  0.0714
 6133SOL    HW122855   6.208   2.821   6.535 -0.3910 -0.1956 -1.3462
 6133SOL    HW222856   6.211   2.902   6.407  1.7204  2.1537  0.0870
 6134SOL     OW22857   6.907   8.504   0.953 -1.4933 -0.6613  0.1014
 6134SOL    HW122858   6.950   8.560   1.018 -1.4272 -1.3769  0.6900
 6134SOL    HW222859   6.928   8.415   0.980  1.3367 -1.0337 -2.7979
 6135SOL     OW22860   8.038   0.895   5.803  0.0305  0.2290 -0.1116
 6135SOL    HW122861   7.966   0.953   5.825 -0.3514 -0.3115  0.0885
 6135SOL    HW222862   8.068   0.860   5.887  0.3506  0.2502 -0.2158
 6136SOL     OW22863   1.287   9.104   4.772 -0.2343  0.0066  0.0233
 6136SOL    HW122864   1.353   9.170   4.794  0.8081 -0.6927 -0.9080
 6136SOL    HW222865   1.256   9.129   4.685  0.9954 -1.3468 -0.8319
 6137SOL     OW22866   5.159   0.190  10.766  0.6171  0.1166  0.2604
 6137SOL    HW122867   5.161   0.151  10.679  0.1442  1.2871 -0.2930
 6137SOL    HW222868   5.244   0.232  10.776 -0.1795  2.0671 -0.6570
 6138SOL     OW22869   5.493   0.782   9.905  0.0251 -0.1817  0.0317
 6138SOL    HW122870   5.565   0.736   9.947 -0.1532  0.5802  1.2068
 6138SOL    HW222871   5.430   0.800   9.975  0.6261  2.8902 -0.0660
 6139SOL     OW22872   6.900   1.342   8.937 -0.5183  0.1739  0.1332
 6139SOL    HW122873   6.913   1.325   8.844 -3.1863 -0.5054 -0.2249
 6139SOL    HW222874   6.943   1.426   8.953 -1.0951  0.9486 -2.0379
 6140SOL     OW22875   2.129   5.403   8.736 -0.0180 -0.1213  0.0868
 6140SOL    HW122876   2.175   5.439   8.661 -0.3978 -0.9850 -0.5880
 6140SOL    HW222877   2.133   5.308   8.723 -0.9839 -0.2482  0.6098
 6141SOL     OW22878   9.963   2.208   9.544  0.0334 -0.0084  0.1908
 6141SOL    HW122879   9.989   2.119   9.521 -0.2720  0.3883 -1.9243
 6141SOL    HW222880   9.922   2.242   9.464  1.0132  2.3626  0.6220
 6142SOL     OW22881   8.331   3.115   6.412  0.4317 -0.2509  0.3986
 6142SOL    HW122882   8.379   3.196   6.392 -0.1611  0.1529  0.5823
 6142SOL    HW222883   8.380   3.075   6.483  0.8324 -0.1438  0.1868
 6143SOL     OW22884  10.674   8.255   6.282 -0.5167  0.1643  0.5022
 6143SOL    HW122885  10.580   8.238   6.275 -0.5003 -0.6358  1.7970
 6143SOL    HW222886  10.704   8.192   6.348  1.3728 -1.2880 -1.6006
 6144SOL     OW22887   8.518   8.903   5.847  0.2664  0.2229 -0.2577
 6144SOL    HW122888   8.493   8.824   5.798 -0.6291 -0.3035  0.9973
 6144SOL    HW222889   8.434   8.945   5.869  0.4465 -0.7287  2.6725
 6145SOL     OW22890   2.589   8.398   5.016 -0.2400 -0.0809  0.1514
 6145SOL    HW122891   2.599   8.303   5.016  0.4910 -0.0133 -0.2756
 6145SOL    HW222892   2.613   8.424   5.106  0.1438 -0.2529  0.1035
 6146SOL     OW22893  10.048   1.938   8.552 -0.4390  0.1566  0.0818
 6146SOL    HW122894  10.064   2.020   8.505  0.6674 -0.1257 -0.0402
 6146SOL    HW222895  10.041   1.872   8.483  0.2958 -0.1153  0.2687
 6147SOL     OW22896   8.661   8.377   3.801 -0.1528  0.3405 -0.0079
 6147SOL    HW122897   8.600   8.309   3.831 -1.4885  0.7993 -1.5583
 6147SOL    HW222898   8.637   8.455   3.851 -0.2764  0.3080 -0.0159
 6148SOL     OW22899   2.350   5.256   6.922 -0.4084  0.6536 -0.7913
 6148SOL    HW122900   2.297   5.331   6.949 -1.3089 -0.4971  0.7924
 6148SOL    HW222901   2.305   5.223   6.844 -1.0842  0.6601 -0.4138
 6149SOL     OW22902   1.680   6.536   8.720 -0.1552 -0.2870  0.3304
 6149SOL    HW122903   1.674   6.463   8.780 -1.3261 -0.3325  0.1745
 6149SOL    HW222904   1.755   6.515   8.664  0.7570 -0.3880  1.5412
 6150SOL     OW22905   0.897   4.151   5.490 -0.2703 -0.7472 -0.3101
 6150SOL    HW122906   0.906   4.082   5.424 -1.2643 -0.6972 -0.5124
 6150SOL    HW222907   0.805   4.178   5.484  0.4615  1.7685 -1.3957
 6151SOL     OW22908   7.635   1.606   5.033 -0.0487  0.6324  0.1375
 6151SOL    HW122909   7.685   1.631   5.110 -1.5185  2.3063  0.6046
 6151SOL    HW222910   7.689   1.540   4.990  1.0483  0.0481  2.2909
 6152SOL     OW22911   1.884   0.878   2.588  0.1173  0.0243 -0.3263
 6152SOL    HW122912   1.827   0.806   2.562 -0.0790  0.3531 -0.8232
 6152SOL    HW222913   1.973   0.846   2.571  0.0716 -0.3661  0.1421
 6153SOL     OW22914   4.183   1.250   3.031  0.1378 -0.0716 -0.2839
 6153SOL    HW122915   4.126   1.232   3.105  1.0248  0.0238  0.4350
 6153SOL    HW222916   4.234   1.327   3.057  0.7448 -0.2772 -0.8230
 6154SOL     OW22917   4.194   2.744   6.820  0.6760  0.0832  0.9919
 6154SOL    HW122918   4.207   2.787   6.736  2.8772 -1.4291  0.4892
 6154SOL    HW222919   4.116   2.690   6.808  1.4317 -0.7643 -0.4008
 6155SOL     OW22920   7.075   7.603   7.857  0.0392  0.4762 -0.3874
 6155SOL    HW122921   7.094   7.671   7.922 -0.0374  0.5563 -0.4483
 6155SOL    HW222922   7.143   7.537   7.870 -0.2948  0.2360  0.1314
 6156SOL     OW22923  10.170   6.825   2.046 -0.4836 -0.8319 -0.2556
 6156SOL    HW122924  10.166   6.919   2.025  0.1109 -0.6355  0.4472
 6156SOL    HW222925  10.263   6.804   2.042 -0.5649 -1.2645  0.0949
 6157SOL     OW22926   7.395  10.753   0.913 -0.2489 -0.3918  0.6017
 6157SOL    HW122927   7.318  10.748   0.969 -1.0008 -0.3287 -0.4045
 6157SOL    HW222928   7.455  10.687   0.948 -0.3872  0.1330  1.9158
 6158SOL     OW22929   4.499   4.709   9.139  0.2457  0.2470  0.4183
 6158SOL    HW122930   4.515   4.619   9.110  0.7679  0.6423 -0.5804
 6158SOL    HW222931   4.583   4.753   9.128  0.2306  0.6502  1.7615
 6159SOL     OW22932   9.036   5.461   8.356 -0.0274  0.1068 -0.6381
 6159SOL    HW122933   9.076   5.440   8.440 -1.2353  0.6261  0.0802
 6159SOL    HW222934   9.107   5.502   8.305  0.4678  0.6380  0.4532
 6160SOL     OW22935  10.059   7.358   8.010 -0.0032  0.6187  0.6602
 6160SOL    HW122936  10.114   7.290   8.049  1.9454  0.4964 -2.0282
 6160SOL    HW222937  10.122   7.417   7.967 -1.8969  1.3237 -1.3037
 6161SOL     OW22938   6.038   0.647   9.754  0.5040  0.0331 -0.4140
 6161SOL    HW122939   6.115   0.607   9.712  0.8536 -0.7094  0.8797
 6161SOL    HW222940   6.066   0.737   9.774  0.7506  0.0144 -0.6659
 6162SOL     OW22941   4.126   2.480   2.752 -0.1867 -0.0730 -0.5982
 6162SOL    HW122942   4.156   2.473   2.843  0.9437 -0.3930 -0.9776
 6162SOL    HW222943   4.130   2.573   2.732 -1.2576  0.0974 -0.0630
 6163SOL     OW22944   6.532   9.844   4.960 -0.1288 -0.0862 -0.0588
 6163SOL    HW122945   6.482   9.917   4.924 -0.9984 -0.8899 -0.5331
 6163SOL    HW222946   6.624   9.869   4.948 -0.3922  1.4631  0.9254
 6164SOL     OW22947   0.712   1.136  10.148 -0.0641 -0.3557  0.3889
 6164SOL    HW122948   0.753   1.174  10.069 -0.7760 -0.6112 -0.1072
 6164SOL    HW222949   0.634   1.091  10.116  0.4822 -1.8277  1.0361
 6165SOL     OW22950   9.722   8.825   0.603 -0.0843  0.2552 -0.5659
 6165SOL    HW122951   9.672   8.906   0.615  0.7725  0.7399 -0.2421
 6165SOL    HW222952   9.765   8.837   0.518 -1.2411 -0.5626 -1.2967
 6166SOL     OW22953   2.605   4.957   5.310  0.6569 -0.0076 -0.2530
 6166SOL    HW122954   2.656   5.009   5.372  2.5985 -2.1537  0.0620
 6166SOL    HW222955   2.550   4.902   5.365  2.0922 -1.6304 -0.3626
 6167SOL     OW22956   3.284   8.362   6.579  0.0438  0.6468 -0.7784
 6167SOL    HW122957   3.332   8.284   6.607  0.5036  1.0053 -0.5604
 6167SOL    HW222958   3.352   8.428   6.563 -0.4436  1.8166  1.5553
 6168SOL     OW22959   4.530  10.149   9.349  0.0758 -0.2649  0.3051
 6168SOL    HW122960   4.532  10.072   9.292  3.0382 -0.9741  1.1985
 6168SOL    HW222961   4.554  10.222   9.292  0.1921 -0.4949  0.0577
 6169SOL     OW22962   1.109   2.521   6.930 -0.6727  0.6524 -0.0216
 6169SOL    HW122963   1.144   2.468   7.002  0.0891  2.6205  1.1187
 6169SOL    HW222964   1.014   2.517   6.942 -0.6906 -0.9820 -0.3965
 6170SOL     OW22965   0.987   9.807   9.850  0.0638  0.1094 -0.2600
 6170SOL    HW122966   0.920   9.739   9.858  0.5660 -0.3867 -0.2286
 6170SOL    HW222967   0.941   9.882   9.812 -0.2566 -0.5923 -1.2946
 6171SOL     OW22968   5.117   4.935   3.152  0.5830  0.3147 -0.0129
 6171SOL    HW122969   5.113   4.964   3.061 -0.1246 -1.8654 -0.7288
 6171SOL    HW222970   5.108   5.016   3.203 -0.1554  1.4588 -1.8518
 6172SOL     OW22971  10.358   6.508   3.674 -0.0765  0.1843  0.1652
 6172SOL    HW122972  10.353   6.413   3.670 -0.1570  0.2169 -0.6186
 6172SOL    HW222973  10.282   6.538   3.624 -0.1396  0.6609  0.5406
 6173SOL     OW22974   8.758   5.070   9.639 -0.1452  0.0654  0.0412
 6173SOL    HW122975   8.848   5.084   9.669  1.2372 -0.6079 -3.3375
 6173SOL    HW222976   8.744   5.139   9.574 -2.3257  0.4742  0.8704
 6174SOL     OW22977   8.653   2.068   3.875 -0.0554  0.5724 -0.4645
 6174SOL    HW122978   8.735   2.022   3.895 -0.7289  0.1450  1.4881
 6174SOL    HW222979   8.681   2.146   3.827  1.6147  0.9886  1.0774
 6175SOL     OW22980   8.056   3.767   4.748  0.1480  0.0172 -0.2875
 6175SOL    HW122981   8.019   3.772   4.836 -1.0773 -1.0430 -0.6928
 6175SOL    HW222982   8.123   3.835   4.745 -0.3917  0.6503  1.1735
 6176SOL     OW22983   8.624   4.027   5.609  0.3209  0.0684 -0.0735
 6176SOL    HW122984   8.650   3.941   5.574  1.7429  0.5679 -0.3350
 6176SOL    HW222985   8.587   4.072   5.533 -1.0039 -0.5168  0.2083
 6177SOL     OW22986   9.863   7.677   6.336 -0.0984  0.1696 -0.1783
 6177SOL    HW122987   9.888   7.737   6.407 -2.0652  1.2449 -0.2960
 6177SOL    HW222988   9.941   7.670   6.281  0.8503  0.9024  1.0225
 6178SOL     OW22989   7.397   0.108  10.340  0.3733  0.5130 -0.4221
 6178SOL    HW122990   7.393   0.191  10.388  0.8158  0.2235  0.1251
 6178SOL    HW222991   7.318   0.061  10.367 -0.5429  1.2631 -1.7017
 6179SOL     OW22992   3.352   3.741  10.004  0.2144  0.0793 -0.2174
 6179SOL    HW122993   3.282   3.756  10.068 -1.4834 -0.1273 -1.9312
 6179SOL    HW222994   3.334   3.654   9.969 -0.4095  1.1299 -2.7102
 6180SOL     OW22995   5.629   4.632   7.009  0.0759  0.5261 -0.0553
 6180SOL    HW122996   5.696   4.578   6.968 -0.5975 -0.7785  0.4867
 6180SOL    HW222997   5.624   4.710   6.955  0.4597 -0.3452 -1.3902
 6181SOL     OW22998   4.820   8.711   9.870  0.7096 -0.3467  0.4033
 6181SOL    HW122999   4.795   8.621   9.890  0.0823 -0.5081 -0.9568
 6181SOL    HW223000   4.738   8.761   9.875  0.5567 -0.3591 -1.3766
 6182SOL     OW23001   4.204   5.355   8.805 -0.6445 -0.1457 -0.2855
 6182SOL    HW123002   4.284   5.310   8.832 -0.7030 -0.3992 -0.5300
 6182SOL    HW223003   4.218   5.376   8.713  0.2217  2.1498  0.3078
 6183SOL     OW23004   0.757   5.483   1.099 -1.2136 -0.5835 -0.1729
 6183SOL    HW123005   0.797   5.414   1.153 -0.7698  1.7281  2.7041
 6183SOL    HW223006   0.664   5.461   1.099 -0.8368 -2.3697 -1.2569
 6184SOL     OW23007   2.413  10.953   9.189 -0.0733 -0.2836  0.1796
 6184SOL    HW123008   2.400  10.859   9.204  1.7398 -0.8266 -1.2269
 6184SOL    HW223009   2.393  10.994   9.273  0.9319 -2.1451  1.3846
 6185SOL     OW23010   9.572   5.276   2.272 -0.0961 -0.5344 -0.2674
 6185SOL    HW123011   9.610   5.235   2.195  0.5623  1.8051 -1.2783
 6185SOL    HW223012   9.612   5.363   2.276 -0.8593 -0.2003  2.1586
 6186SOL     OW23013   5.593   9.652   3.825 -0.0353  0.2342  0.0831
 6186SOL    HW123014   5.556   9.606   3.751 -1.1819  1.2010  0.0250
 6186SOL    HW223015   5.555   9.609   3.902  1.5055 -1.0677  0.1735
 6187SOL     OW23016   0.864   7.794   8.884 -0.3570 -0.0886 -0.1552
 6187SOL    HW123017   0.885   7.720   8.940 -2.0095 -0.8968 -0.5401
 6187SOL    HW223018   0.826   7.859   8.943 -0.8077 -0.3822 -0.1182
 6188SOL     OW23019   3.971   4.128   3.150 -0.0451  0.7057  0.6536
 6188SOL    HW123020   4.039   4.062   3.168 -0.4974  0.4388  1.4373
 6188SOL    HW223021   3.927   4.141   3.234  0.4047  2.4591  0.6556
 6189SOL     OW23022   1.412   9.816   7.047 -0.1179  0.3506 -0.6003
 6189SOL    HW123023   1.370   9.857   7.123  1.9621  0.9653  0.2707
 6189SOL    HW223024   1.349   9.749   7.018 -1.1610  0.4256  1.3547
 6190SOL     OW23025   1.506   1.908   5.300 -0.5611 -0.7421 -0.9313
 6190SOL    HW123026   1.467   1.896   5.386 -0.3619  1.4107 -0.4840
 6190SOL    HW223027   1.600   1.897   5.315 -0.5327 -0.4482 -0.9033
 6191SOL     OW23028   2.771   7.117   2.701  0.6642  0.0634 -0.4387
 6191SOL    HW123029   2.833   7.093   2.771  0.4830 -2.8892 -1.1830
 6191SOL    HW223030   2.826   7.125   2.623  0.7622  2.6879 -0.1961
 6192SOL     OW23031   4.755   1.030   3.232 -0.2675  0.1461  0.0094
 6192SOL    HW123032   4.743   1.042   3.138  1.0125  0.5943 -0.1142
 6192SOL    HW223033   4.714   0.946   3.251  0.2479 -0.3776 -1.1134
 6193SOL     OW23034   6.276   7.048   7.949  0.4451 -0.2271 -0.9736
 6193SOL    HW123035   6.291   6.969   7.899  0.8559 -0.3321 -0.6853
 6193SOL    HW223036   6.327   7.116   7.904  0.9311 -0.3525 -0.6211
 6194SOL     OW23037   5.973   0.230   5.830  0.3130  0.0113  0.2355
 6194SOL    HW123038   5.892   0.231   5.779  1.5872 -0.4374 -1.9871
 6194SOL    HW223039   5.966   0.152   5.885 -1.3255  0.7699  1.1449
 6195SOL     OW23040   0.542   7.856   6.107 -0.3018 -0.6262 -0.1352
 6195SOL    HW123041   0.552   7.900   6.192  1.5586  0.0260 -0.6340
 6195SOL    HW223042   0.522   7.765   6.129  0.7794 -0.6117  1.0334
 6196SOL     OW23043   2.537   0.362   0.779  0.4533 -0.0510  0.0612
 6196SOL    HW123044   2.554   0.409   0.860  0.7245  1.2343 -0.7230
 6196SOL    HW223045   2.504   0.428   0.718  0.3007 -0.9720 -0.9023
 6197SOL     OW23046   7.233   9.424   1.942 -1.0610 -0.0653  0.3735
 6197SOL    HW123047   7.138   9.415   1.950 -1.4701 -0.0331 -2.9442
 6197SOL    HW223048   7.268   9.340   1.972 -2.1419 -0.2492  1.1656
 6198SOL     OW23049   2.175   0.823   6.196  0.0449 -0.0693 -0.6601
 6198SOL    HW123050   2.224   0.770   6.258  0.1496  0.8563  0.0764
 6198SOL    HW223051   2.145   0.898   6.247 -0.2648  0.4798 -1.6166
 6199SOL     OW23052  10.448   8.982   3.678  0.0234  0.0262 -0.0850
 6199SOL    HW123053  10.403   8.918   3.623  0.2330 -0.2153  0.0219
 6199SOL    HW223054  10.481   8.931   3.752  0.4215  0.2099 -0.1337
 6200SOL     OW23055   7.412   3.945   4.039  0.9584 -0.6299 -0.0110
 6200SOL    HW123056   7.360   3.980   4.112 -1.3814 -2.3170 -0.7460
 6200SOL    HW223057   7.448   3.863   4.073  2.2995 -0.0131  0.1237
 6201SOL     OW23058   3.128   5.567   0.062  0.6181  0.0305  0.2553
 6201SOL    HW123059   3.216   5.532   0.052  0.3919  0.0333 -2.2445
 6201SOL    HW223060   3.079   5.496   0.105  1.8651  0.1774  2.0056
 6202SOL     OW23061   7.358   2.172   5.647  0.3651  0.2073  0.1533
 6202SOL    HW123062   7.271   2.149   5.680  1.0312 -0.1764  1.7238
 6202SOL    HW223063   7.403   2.088   5.637  1.0003  0.4700  0.7058
 6203SOL     OW23064   1.583   0.441   3.292  0.2000  0.5541  0.4963
 6203SOL    HW123065   1.495   0.403   3.285  1.0331 -1.4819  0.3457
 6203SOL    HW223066   1.640   0.374   3.254  1.7868  2.0189  0.2014
 6204SOL     OW23067   5.757   5.960   2.370  0.3266 -0.5534  0.3643
 6204SOL    HW123068   5.788   5.995   2.286 -1.4972 -0.8698 -0.4934
 6204SOL    HW223069   5.806   5.879   2.383  0.9983 -0.2311 -0.1233
 6205SOL     OW23070   7.662   5.648   0.964 -0.0609 -0.4230  0.7507
 6205SOL    HW123071   7.679   5.558   0.991  1.7345 -0.9728 -1.8334
 6205SOL    HW223072   7.749   5.688   0.960 -0.7249  1.0845  0.7102
 6206SOL     OW23073  11.012   0.680   0.090 -0.2120 -0.5824 -0.0343
 6206SOL    HW123074  11.045   0.752   0.035 -1.5984 -0.9133 -1.3854
 6206SOL    HW223075  11.020   0.712   0.179  1.3360  0.3245 -0.4643
 6207SOL     OW23076   2.509   8.490   4.323  0.0439  0.0490 -0.5118
 6207SOL    HW123077   2.459   8.423   4.371 -0.3769 -0.1059 -1.1563
 6207SOL    HW223078   2.559   8.441   4.258  0.9606  0.2172  0.0580
 6208SOL     OW23079   6.817  10.963   2.827  0.7335 -0.3803  0.0177
 6208SOL    HW123080   6.826  11.011   2.909 -1.8629  1.2485 -0.5453
 6208SOL    HW223081   6.751  10.896   2.846  0.6618 -0.4715 -0.5407
 6209SOL     OW23082   0.972   5.811   0.812 -0.0902  0.4606  0.2097
 6209SOL    HW123083   1.057   5.781   0.845  0.9120  3.4300  0.6067
 6209SOL    HW223084   0.935   5.861   0.884 -1.8460 -0.0735 -0.2782
 6210SOL     OW23085   5.736   0.033   3.680 -0.4444 -0.2193  0.1262
 6210SOL    HW123086   5.770  -0.042   3.632 -1.2786 -2.6588  3.0972
 6210SOL    HW223087   5.813   0.072   3.721 -0.2471 -0.7318  0.2482
 6211SOL     OW23088   4.501   2.959   0.994 -0.6495  0.1714  0.6056
 6211SOL    HW123089   4.560   3.034   1.000 -2.3187  1.7694 -1.4960
 6211SOL    HW223090   4.517   2.923   0.906 -0.6464 -1.3255  1.1802
 6212SOL     OW23091   5.622   3.976   4.681  0.4949  0.2777 -0.1127
 6212SOL    HW123092   5.597   3.890   4.715  1.9451 -0.3670 -0.6334
 6212SOL    HW223093   5.650   4.025   4.758 -1.3405  0.6922  0.3473
 6213SOL     OW23094   8.623   8.592   6.893  0.3418  0.3637  0.0933
 6213SOL    HW123095   8.600   8.641   6.814  0.1571 -0.4818 -0.3972
 6213SOL    HW223096   8.554   8.612   6.955 -1.2244 -1.2902 -0.9961
 6214SOL     OW23097   3.049   6.871   8.978  0.9527 -0.5813  0.6054
 6214SOL    HW123098   3.015   6.940   8.921 -1.0571 -0.1100  2.2796
 6214SOL    HW223099   3.124   6.911   9.023  1.0568 -0.1902  0.0932
 6215SOL     OW23100   3.987   2.375   0.484 -0.1544  0.1587  0.1079
 6215SOL    HW123101   3.897   2.396   0.508 -0.6998 -1.4422 -0.4214
 6215SOL    HW223102   4.009   2.298   0.537  0.9665  0.6047  0.3326
 6216SOL     OW23103   0.558   4.802   0.793 -0.1472 -0.0253 -0.0536
 6216SOL    HW123104   0.632   4.862   0.785 -0.6159  0.3878 -1.6692
 6216SOL    HW223105   0.494   4.850   0.846  0.5097 -0.1768  0.9052
 6217SOL     OW23106   2.012   3.488   1.934 -0.1063 -0.4094  0.3153
 6217SOL    HW123107   1.970   3.476   1.849  1.4136 -3.1193 -0.1727
 6217SOL    HW223108   2.001   3.404   1.979  1.2497  0.1430  1.8001
 6218SOL     OW23109   9.572   2.758   9.154 -0.1586  0.0027 -0.2391
 6218SOL    HW123110   9.597   2.669   9.177 -1.7085 -0.4022 -0.0317
 6218SOL    HW223111   9.525   2.749   9.071 -1.4055  0.4544  0.4017
 6219SOL     OW23112   9.057   3.616   8.964  0.4099  0.3250 -0.0319
 6219SOL    HW123113   8.982   3.557   8.971  1.1776 -0.7079 -0.2791
 6219SOL    HW223114   9.047   3.659   8.879  0.4962 -0.3756 -0.4012
 6220SOL     OW23115  10.059   3.367   8.833  0.1454 -0.0094 -0.2643
 6220SOL    HW123116  10.017   3.283   8.818 -0.0541  0.3437 -1.8386
 6220SOL    HW223117  10.091   3.394   8.747  1.1416  1.0301  0.4029
 6221SOL     OW23118   6.634   8.059   5.460 -0.1584 -0.2983  0.1410
 6221SOL    HW123119   6.660   7.984   5.513  0.3935  1.9051  3.2648
 6221SOL    HW223120   6.716   8.101   5.434 -0.4592  0.0832 -0.2139
 6222SOL     OW23121  10.319   8.979   0.802 -0.1238 -1.1332  0.0228
 6222SOL    HW123122  10.245   8.957   0.859 -0.8848  2.3200  0.5708
 6222SOL    HW223123  10.382   9.022   0.859  0.7138 -0.8307 -1.0888
 6223SOL     OW23124   2.474   1.527   3.390  0.1498 -0.6446 -0.3266
 6223SOL    HW123125   2.444   1.552   3.478 -1.5312 -2.1481 -0.4112
 6223SOL    HW223126   2.535   1.455   3.405 -0.5482 -1.2603 -0.3941
 6224SOL     OW23127   0.535   2.016   4.042 -0.1442 -0.4940 -0.0641
 6224SOL    HW123128   0.542   1.935   3.993  1.9216  1.4071 -3.2413
 6224SOL    HW223129   0.606   2.012   4.106  0.5444 -0.8484 -0.8358
 6225SOL     OW23130   4.388  10.961   3.924  0.0911 -0.0705  0.3472
 6225SOL    HW123131   4.428  11.042   3.957 -1.3210  0.8664 -0.1700
 6225SOL    HW223132   4.414  10.957   3.832 -0.6647  0.3263  0.1147
 6226SOL     OW23133   2.821   0.014   2.302  0.0425 -0.5059 -0.3763
 6226SOL    HW123134   2.903   0.046   2.338 -0.7534 -0.6069  1.6119
 6226SOL    HW223135   2.767  -0.007   2.378 -2.5742  1.4599 -1.5257
 6227SOL     OW23136   5.417   1.416   4.863 -0.3690  0.5336 -0.5566
 6227SOL    HW123137   5.326   1.400   4.886  0.1544 -1.7337  0.2030
 6227SOL    HW223138   5.454   1.460   4.939 -0.9670  2.1360 -1.1625
 6228SOL     OW23139   0.338   3.718   6.861 -0.3206  0.2026  0.8305
 6228SOL    HW123140   0.343   3.667   6.780  1.8928  1.1543  0.2897
 6228SOL    HW223141   0.245   3.723   6.880 -0.7667 -2.0713 -0.3241
 6229SOL     OW23142  10.916   2.334   6.527  0.1948 -0.4257  0.5143
 6229SOL    HW123143  10.822   2.338   6.540  0.2160  0.4279  0.4317
 6229SOL    HW223144  10.944   2.257   6.578 -0.3944 -0.0101  1.4924
 6230SOL     OW23145   4.353   0.585   0.553 -0.2326 -0.0273 -0.2411
 6230SOL    HW123146   4.266   0.550   0.533 -0.9376  0.9127  1.0667
 6230SOL    HW223147   4.341   0.632   0.635  1.8426 -1.1271  0.7611
 6231SOL     OW23148   2.312   7.921   1.126  0.2624 -0.2033 -0.1519
 6231SOL    HW123149   2.396   7.931   1.170  0.2599  0.1070 -0.2180
 6231SOL    HW223150   2.291   7.828   1.136 -0.1565  0.0075  1.2727
 6232SOL     OW23151   7.544   9.975   7.685 -0.4491  0.5219 -0.0829
 6232SOL    HW123152   7.460   9.941   7.657 -0.2414  0.4143 -0.5894
 6232SOL    HW223153   7.533   9.993   7.778 -0.6950 -0.4949  0.0941
 6233SOL     OW23154   0.521   5.964  10.862  0.0535 -0.0677  0.2042
 6233SOL    HW123155   0.514   6.014  10.781  0.7974  1.5509  1.0838
 6233SOL    HW223156   0.501   5.874  10.837 -0.0317  0.4449 -1.7047
 6234SOL     OW23157   1.682   5.132   3.241  0.3575 -0.0014 -0.1737
 6234SOL    HW123158   1.743   5.195   3.280  0.4080 -0.7040  0.9562
 6234SOL    HW223159   1.642   5.179   3.169  2.2622  0.4775 -0.9932
 6235SOL     OW23160   9.237   4.322   1.850  0.1436  0.0443  0.1046
 6235SOL    HW123161   9.302   4.388   1.876  0.1987 -0.4859  1.4278
 6235SOL    HW223162   9.191   4.301   1.932 -1.7373  0.4333 -0.8132
 6236SOL     OW23163   0.725  10.092  10.001  0.3673 -0.0548 -0.5289
 6236SOL    HW123164   0.683  10.093  10.087 -0.0234 -1.2780 -0.6797
 6236SOL    HW223165   0.708  10.004   9.967 -0.3635  0.6953 -2.2819
 6237SOL     OW23166   1.177  10.109   1.819 -0.2145  0.3087  0.1355
 6237SOL    HW123167   1.217  10.196   1.827 -0.5531  0.3155  2.2387
 6237SOL    HW223168   1.083  10.128   1.811 -0.3854  0.1310  1.5764
 6238SOL     OW23169   3.432   4.937   5.897 -0.2757  0.4044  0.5685
 6238SOL    HW123170   3.356   4.924   5.840  0.6835 -1.9260 -0.2951
 6238SOL    HW223171   3.486   5.000   5.850 -0.4605  0.0892 -0.0710
 6239SOL     OW23172   1.526   1.398   2.041  0.2558 -0.0341  0.0382
 6239SOL    HW123173   1.494   1.486   2.063  0.4245 -0.0515  0.3699
 6239SOL    HW223174   1.491   1.343   2.111  0.4267 -0.1740  0.0131
 6240SOL     OW23175   7.028   0.562   8.306  0.5367 -0.4384 -1.0078
 6240SOL    HW123176   7.016   0.475   8.344 -0.9995 -0.2279 -0.9554
 6240SOL    HW223177   6.964   0.617   8.352  0.5960  0.4270 -1.9364
 6241SOL     OW23178   0.182   5.754   6.271 -0.1051 -0.2607 -0.0077
 6241SOL    HW123179   0.134   5.795   6.199 -0.6872 -0.1768  0.4228
 6241SOL    HW223180   0.156   5.804   6.348  0.8308 -0.0843  0.2064
 6242SOL     OW23181   8.833   0.880   2.305 -0.3091  0.1543  0.1353
 6242SOL    HW123182   8.914   0.925   2.282  1.4552 -3.0651 -0.5853
 6242SOL    HW223183   8.764   0.945   2.291  2.0187  2.7003 -0.2813
 6243SOL     OW23184   7.667   5.438   2.185  0.6161 -0.6123 -0.8002
 6243SOL    HW123185   7.589   5.480   2.221  0.5979 -1.5818  0.3531
 6243SOL    HW223186   7.731   5.509   2.177  0.6761 -0.3649  1.3501
 6244SOL     OW23187  10.292   3.926  10.465 -0.0949 -0.1754  0.3782
 6244SOL    HW123188  10.272   3.934  10.558  1.4136 -0.3580  0.7416
 6244SOL    HW223189  10.303   4.016  10.434 -0.4027 -0.1247  0.4107
 6245SOL     OW23190   7.263   0.507   6.516 -0.5527 -0.0660 -0.0457
 6245SOL    HW123191   7.264   0.590   6.563  1.4042 -0.6129  0.9849
 6245SOL    HW223192   7.311   0.525   6.434  0.0660 -0.2088  0.2777
 6246SOL     OW23193   4.137   3.265   6.003  0.1989 -0.0144  0.2452
 6246SOL    HW123194   4.218   3.218   5.983 -0.2754  0.0093 -2.0062
 6246SOL    HW223195   4.167   3.351   6.034  1.0334 -0.1620 -0.1159
 6247SOL     OW23196   3.639   4.608   7.253 -0.0264 -0.2662  0.0678
 6247SOL    HW123197   3.676   4.531   7.210 -0.7010 -0.4414 -0.2109
 6247SOL    HW223198   3.606   4.575   7.337  0.1723 -0.1708  0.1839
 6248SOL     OW23199   5.536   0.982   2.197 -0.2545  0.0416  0.0961
 6248SOL    HW123200   5.468   0.988   2.264 -1.0792 -0.7022 -0.6472
 6248SOL    HW223201   5.615   0.955   2.245 -0.1544  1.9923  1.1356
 6249SOL     OW23202   8.415   7.263   5.210  0.3762  0.0885  0.1765
 6249SOL    HW123203   8.320   7.248   5.213  0.4897 -0.9002 -0.5217
 6249SOL    HW223204   8.450   7.200   5.273  0.6923 -0.9361 -0.9872
 6250SOL     OW23205   7.882   9.431   1.248  0.0927 -0.3957  0.1418
 6250SOL    HW123206   7.873   9.340   1.277 -2.6992 -0.0905  0.4932
 6250SOL    HW223207   7.839   9.434   1.163  0.2695  0.5871  0.0689
 6251SOL     OW23208   9.592   3.753   3.216 -0.3155  0.5054 -0.6605
 6251SOL    HW123209   9.581   3.752   3.311 -0.7778 -0.0324 -0.7109
 6251SOL    HW223210   9.582   3.661   3.190 -0.6911  0.7144 -1.2790
 6252SOL     OW23211   7.398   2.908   4.166 -0.2075  0.1243  0.4521
 6252SOL    HW123212   7.355   2.959   4.098 -0.6102 -0.6520  0.1122
 6252SOL    HW223213   7.365   2.819   4.154 -0.5793  0.0289  1.8901
 6253SOL     OW23214   2.957  10.558   5.035  0.0255 -0.1999  0.0427
 6253SOL    HW123215   2.939  10.592   4.948 -2.3358 -0.6287  0.2903
 6253SOL    HW223216   3.052  10.562   5.044  0.5352 -1.8747 -3.2518
 6254SOL     OW23217   7.203   8.195   7.450  0.0319 -0.4417  0.2474
 6254SOL    HW123218   7.276   8.218   7.509  0.1683 -0.6165  0.1469
 6254SOL    HW223219   7.243   8.139   7.384  0.1089  0.5924 -0.6224
 6255SOL     OW23220   5.863   1.253   2.917 -0.6118 -0.4417 -0.4005
 6255SOL    HW123221   5.883   1.314   2.988 -0.5013 -2.2801  1.2195
 6255SOL    HW223222   5.942   1.251   2.863 -0.1221 -0.1793  0.3060
 6256SOL     OW23223  10.653   7.287   9.482  0.5963  0.0094  0.1319
 6256SOL    HW123224  10.625   7.371   9.445 -0.3108  0.0482  0.8565
 6256SOL    HW223225  10.628   7.222   9.417  1.7690  0.3365 -0.6649
 6257SOL     OW23226   8.907   9.813   9.899 -0.2540 -0.4241  0.0066
 6257SOL    HW123227   8.957   9.852   9.827 -0.0019  0.0261  0.4201
 6257SOL    HW223228   8.915   9.719   9.885  0.0111 -0.3421 -0.4104
 6258SOL     OW23229   8.726   4.867   4.213  0.4424  0.3993  0.7053
 6258SOL    HW123230   8.680   4.866   4.129  0.0501  3.7049  0.7592
 6258SOL    HW223231   8.680   4.803   4.267  0.0919 -1.0887 -1.2561
 6259SOL     OW23232   5.723   0.785   4.200 -0.1092 -0.4403 -0.1119
 6259SOL    HW123233   5.811   0.774   4.166 -0.1159 -2.1203  0.3351
 6259SOL    HW223234   5.669   0.797   4.122  0.6932  2.5282 -0.3192
 6260SOL     OW23235   5.725   0.177   5.723 -0.4830  0.0395 -0.2117
 6260SOL    HW123236   5.708   0.271   5.724 -0.1177  0.1235  1.7073
 6260SOL    HW223237   5.716   0.152   5.631 -0.0752  2.0365 -0.8398
 6261SOL     OW23238   0.119   5.953  10.185 -0.5402  0.3784  0.2618
 6261SOL    HW123239   0.062   6.001  10.246 -1.1262 -0.8480  0.7215
 6261SOL    HW223240   0.185   5.913  10.242  0.9028  1.8766 -0.2777
 6262SOL     OW23241  10.246  10.283   0.173  0.7587 -0.2043  0.4194
 6262SOL    HW123242  10.265  10.366   0.129 -0.3601 -0.1503  0.0011
 6262SOL    HW223243  10.299  10.219   0.126 -1.3350 -0.3612 -1.9151
 6263SOL     OW23244   1.958   0.446   5.211  0.1005 -0.7621 -0.3704
 6263SOL    HW123245   1.961   0.534   5.248 -0.0854 -0.7234 -0.4436
 6263SOL    HW223246   2.042   0.407   5.234  1.9999  0.8240 -3.8375
 6264SOL     OW23247  10.550  10.544   9.175 -0.8364 -0.1404 -0.0522
 6264SOL    HW123248  10.581  10.568   9.262 -0.1750  0.4997 -0.4481
 6264SOL    HW223249  10.585  10.457   9.160 -0.4781 -0.0239  0.1023
 6265SOL     OW23250   4.058   7.204   9.299  0.9653  0.7272  0.2258
 6265SOL    HW123251   4.048   7.174   9.390  2.0394  1.0581  0.4766
 6265SOL    HW223252   4.132   7.266   9.303  0.8369  0.9617 -0.8254
 6266SOL     OW23253   0.394   6.752   8.673 -0.3987 -0.2225 -0.3081
 6266SOL    HW123254   0.394   6.846   8.659 -1.8640  0.0297  1.1979
 6266SOL    HW223255   0.335   6.717   8.606 -1.2235  0.1198  0.2410
 6267SOL     OW23256   6.203   0.208   8.003 -0.4107 -0.5245  0.5647
 6267SOL    HW123257   6.248   0.172   8.080  0.4111  1.5597  1.1416
 6267SOL    HW223258   6.263   0.192   7.930 -0.4801 -1.1117  0.6297
 6268SOL     OW23259   1.891   3.856   9.544 -0.2840  0.2603  0.1992
 6268SOL    HW123260   1.925   3.840   9.632  2.1642 -1.0690 -0.8955
 6268SOL    HW223261   1.816   3.798   9.537 -0.6683  0.5591  1.4806
 6269SOL     OW23262   1.222  10.795   1.153  0.9611  0.4444 -0.2110
 6269SOL    HW123263   1.187  10.754   1.073 -0.2364 -0.7087  0.8524
 6269SOL    HW223264   1.295  10.739   1.178 -0.8786 -1.4254  1.4269
 6270SOL     OW23265   3.439   3.406   6.055  0.7251 -0.0178 -0.5538
 6270SOL    HW123266   3.516   3.445   6.014  0.8244  0.8426  0.4043
 6270SOL    HW223267   3.405   3.474   6.113  0.0955 -0.8876  0.1437
 6271SOL     OW23268   3.029  10.968  10.641 -0.0927 -0.0890 -0.6581
 6271SOL    HW123269   2.994  11.057  10.645 -2.9722 -1.1402  0.3606
 6271SOL    HW223270   3.096  10.972  10.573 -0.5456  2.7002 -1.0792
 6272SOL     OW23271   7.551  10.507   7.005 -0.1126  0.5552 -0.2725
 6272SOL    HW123272   7.587  10.531   7.091  0.6474  0.9001 -0.6823
 6272SOL    HW223273   7.619  10.451   6.966  0.9106  2.7476 -1.8489
 6273SOL     OW23274   4.594  10.380   4.662  0.0245 -0.0620  0.4901
 6273SOL    HW123275   4.557  10.433   4.592  1.7586 -1.1231 -1.3213
 6273SOL    HW223276   4.664  10.329   4.621  0.6058 -1.3432  2.8220
 6274SOL     OW23277   8.404   9.069   0.096 -0.1818 -0.0822  0.0829
 6274SOL    HW123278   8.350   9.019   0.157 -1.9974  1.3535 -0.2436
 6274SOL    HW223279   8.464   9.119   0.151  0.7470 -1.5545  0.4642
 6275SOL     OW23280   7.181   2.119   1.340  0.2200 -0.1006  0.1340
 6275SOL    HW123281   7.102   2.170   1.361  0.5932  1.0884 -1.2538
 6275SOL    HW223282   7.250   2.160   1.391  0.4187  0.4912 -0.5908
 6276SOL     OW23283   5.389   7.565   7.923 -0.1107  0.1929 -0.1463
 6276SOL    HW123284   5.304   7.561   7.966 -0.2729  0.7502 -0.4037
 6276SOL    HW223285   5.439   7.492   7.960 -0.5092  0.2004  0.4083
 6277SOL     OW23286   8.561   5.418   2.666  0.1851  0.1449 -0.3932
 6277SOL    HW123287   8.599   5.494   2.712 -0.0374 -0.2276  0.4225
 6277SOL    HW223288   8.531   5.453   2.582 -0.4223  1.0868  0.1989
 6278SOL     OW23289   3.650   2.967   6.117 -0.6623  0.5138 -0.5478
 6278SOL    HW123290   3.698   2.919   6.184  0.5898  1.4097 -0.7777
 6278SOL    HW223291   3.621   2.900   6.056  0.6941 -0.0166 -0.6435
 6279SOL     OW23292   1.398  10.937   9.936  0.0554 -0.5302 -0.1933
 6279SOL    HW123293   1.431  10.881  10.006  2.0362 -1.8991 -2.0610
 6279SOL    HW223294   1.468  11.000   9.921 -0.6569  0.2105 -0.4593
 6280SOL     OW23295   4.871   6.061   2.218 -0.1677  0.4439 -0.6061
 6280SOL    HW123296   4.917   6.020   2.292  0.4035 -0.1604 -1.2901
 6280SOL    HW223297   4.783   6.025   2.222  0.1487 -0.3545 -0.8175
 6281SOL     OW23298   1.944  10.448   6.185 -0.1985  0.0964 -0.3276
 6281SOL    HW123299   1.955  10.432   6.279 -1.3119  0.1430 -0.1660
 6281SOL    HW223300   2.033  10.454   6.151  0.2685 -1.8877  0.3792
 6282SOL     OW23301   7.180   2.270   0.437  0.2722 -0.8260  0.6133
 6282SOL    HW123302   7.101   2.323   0.422  0.8502 -0.4486 -1.3616
 6282SOL    HW223303   7.204   2.289   0.528 -0.4099  1.1415  0.4335
 6283SOL     OW23304   8.311   2.789   2.458  0.3035 -0.0717 -0.5636
 6283SOL    HW123305   8.274   2.872   2.489  1.2625 -0.4439  1.7772
 6283SOL    HW223306   8.385   2.815   2.403  0.2323  0.6259 -0.3444
 6284SOL     OW23307   8.367   2.699   5.907 -0.1415 -0.4948 -0.6196
 6284SOL    HW123308   8.401   2.632   5.967  1.0626 -0.2152 -0.9681
 6284SOL    HW223309   8.415   2.779   5.931 -0.0711 -0.2439 -1.5686
 6285SOL     OW23310   2.986   4.364   5.021 -0.7522 -0.0496  0.0657
 6285SOL    HW123311   2.906   4.410   4.995  0.6691  0.9343 -2.8831
 6285SOL    HW223312   3.030   4.424   5.080 -0.5249  0.9743 -1.1178
 6286SOL     OW23313   0.806   2.699  10.015  0.2896 -0.0510 -0.4089
 6286SOL    HW123314   0.725   2.649  10.017  0.5782 -0.5077  1.3675
 6286SOL    HW223315   0.802   2.748   9.932 -0.5281 -2.1026 -1.6719
 6287SOL     OW23316   6.652   2.899   6.152 -0.4382  0.1538  0.1893
 6287SOL    HW123317   6.597   2.977   6.142 -2.2196 -0.8621  1.4064
 6287SOL    HW223318   6.619   2.856   6.231  1.0571 -1.3980  0.0384
 6288SOL     OW23319   5.061   2.793  10.125 -0.4872 -0.3432  0.0920
 6288SOL    HW123320   5.001   2.738  10.175  2.0332 -1.8591  1.7179
 6288SOL    HW223321   5.051   2.881  10.163 -0.4489 -0.9475  1.5953
 6289SOL     OW23322   3.850   1.182   6.175  0.5308 -0.0695 -0.1215
 6289SOL    HW123323   3.794   1.107   6.157  0.4975  0.0732 -0.6064
 6289SOL    HW223324   3.864   1.224   6.090  0.8846  0.2383  0.0834
 6290SOL     OW23325   8.075   2.709   8.715  0.5330 -0.0248 -0.0026
 6290SOL    HW123326   8.033   2.759   8.645  0.5294  0.4316  0.3254
 6290SOL    HW223327   8.117   2.636   8.669 -1.0840 -0.8265 -0.2869
 6291SOL     OW23328   1.940   8.179   2.753 -0.1637  0.2569  0.2239
 6291SOL    HW123329   2.002   8.148   2.820 -1.0109 -0.3693  0.7349
 6291SOL    HW223330   1.914   8.266   2.784 -1.5123 -0.5281  1.4184
 6292SOL     OW23331   2.768   9.358   8.778  0.0289  0.2162 -0.0201
 6292SOL    HW123332   2.856   9.325   8.758 -0.1859  0.2561 -1.0922
 6292SOL    HW223333   2.756   9.340   8.871  0.3293 -1.7859 -0.3310
 6293SOL     OW23334   5.778   1.647   5.209 -0.2177 -0.0763 -0.2474
 6293SOL    HW123335   5.734   1.593   5.275  0.3729 -1.8078 -1.2002
 6293SOL    HW223336   5.767   1.736   5.240  1.1387 -0.8513  2.8830
 6294SOL     OW23337   7.572   3.022  11.047  0.2046 -0.4360  0.1152
 6294SOL    HW123338   7.539   3.107  11.016 -0.3865 -0.0752  1.6735
 6294SOL    HW223339   7.580   2.970  10.967 -2.0483  0.1906 -0.5993
 6295SOL     OW23340  10.559   4.305   9.279 -0.4503 -0.1449 -0.2275
 6295SOL    HW123341  10.613   4.360   9.336 -1.8937  0.8070  0.2504
 6295SOL    HW223342  10.617   4.282   9.206  1.1368 -0.5921  1.1028
 6296SOL     OW23343   4.591   7.698   4.853 -0.2223  0.4761 -0.0766
 6296SOL    HW123344   4.593   7.602   4.854 -0.9079  0.4531  1.0583
 6296SOL    HW223345   4.517   7.720   4.798 -0.5318  0.3315  0.2773
 6297SOL     OW23346   1.325   9.294   2.051  0.3589 -0.1546 -0.3894
 6297SOL    HW123347   1.250   9.332   2.006 -0.1449  1.2460  1.5484
 6297SOL    HW223348   1.390   9.364   2.052  0.0223  0.1934  1.7822
 6298SOL     OW23349   0.721   8.026   6.530 -0.2994  0.2902  0.2762
 6298SOL    HW123350   0.710   7.996   6.620  1.5413  0.5938  0.6351
 6298SOL    HW223351   0.744   7.947   6.481  0.0694  0.3542  0.3448
 6299SOL     OW23352   4.219   8.602   8.901 -0.5468 -0.7936  0.3278
 6299SOL    HW123353   4.294   8.621   8.957 -1.3455  1.2651  0.7841
 6299SOL    HW223354   4.151   8.572   8.961 -1.0814  0.4502  0.3783
 6300SOL     OW23355   3.571   2.064   0.121 -0.2198  0.0164 -0.3609
 6300SOL    HW123356   3.580   1.969   0.110 -0.5566  0.0833 -1.3208
 6300SOL    HW223357   3.505   2.074   0.189 -0.8742 -0.4468 -0.9093
 6301SOL     OW23358   0.879   4.819   1.169  0.2517  0.4389  0.5373
 6301SOL    HW123359   0.935   4.861   1.103  1.4171 -1.6171  0.1331
 6301SOL    HW223360   0.885   4.725   1.150  0.1813 -0.2018  3.2212
 6302SOL     OW23361   6.128   4.611   1.149  0.3964 -0.0765 -0.2918
 6302SOL    HW123362   6.040   4.575   1.139  0.6804 -0.7221 -0.4859
 6302SOL    HW223363   6.186   4.545   1.111  0.9457  0.4618 -0.4083
 6303SOL     OW23364  10.316   2.859  10.205  0.0483 -0.1988  0.4733
 6303SOL    HW123365  10.291   2.780  10.252  1.1965 -0.6410  0.3594
 6303SOL    HW223366  10.232   2.900  10.181 -0.5645 -1.7187 -0.0589
 6304SOL     OW23367   6.408   5.669   2.585  0.1375 -0.3068 -0.2790
 6304SOL    HW123368   6.388   5.720   2.506  0.7687  0.1986 -0.1161
 6304SOL    HW223369   6.327   5.672   2.636  0.5939  1.8667  0.4467
 6305SOL     OW23370  10.875   6.103   5.158 -0.3716 -0.3878  0.4227
 6305SOL    HW123371  10.966   6.129   5.147 -0.4882  0.4149  1.3149
 6305SOL    HW223372  10.824   6.177   5.123 -0.6869 -0.3579  0.9364
 6306SOL     OW23373   0.264   9.199   4.510  0.2819  0.3365  0.0391
 6306SOL    HW123374   0.319   9.185   4.432  0.1168 -0.9934  0.1441
 6306SOL    HW223375   0.219   9.116   4.523 -1.8025  1.3885 -0.0499
 6307SOL     OW23376  10.027   5.021   3.043  0.7775 -0.1230 -0.3026
 6307SOL    HW123377   9.945   5.006   3.090  1.2685 -0.8426  0.3378
 6307SOL    HW223378  10.079   5.077   3.101  1.8098 -1.8671  0.5524
 6308SOL     OW23379  10.096   6.483   6.834 -0.1576 -0.1977  0.1258
 6308SOL    HW123380  10.126   6.408   6.783 -0.3385 -0.4402  0.3740
 6308SOL    HW223381  10.162   6.551   6.818 -0.5628 -0.0389 -0.9564
 6309SOL     OW23382   2.871   5.643  10.762 -0.3222 -0.5350 -0.2668
 6309SOL    HW123383   2.848   5.572  10.702  0.7825 -1.0795 -0.0585
 6309SOL    HW223384   2.963   5.628  10.784 -0.4439  0.1947  0.8330
 6310SOL     OW23385   0.627   7.144   8.135  0.4229 -0.6506 -0.3635
 6310SOL    HW123386   0.554   7.121   8.194 -0.9883 -0.4990 -1.9695
 6310SOL    HW223387   0.624   7.239   8.129  1.7747 -0.5129  0.7607
 6311SOL     OW23388   3.321   3.262   6.774 -0.2856 -0.0798  0.6121
 6311SOL    HW123389   3.358   3.334   6.722 -3.0462  3.4456  3.0514
 6311SOL    HW223390   3.396   3.224   6.818  1.3640  0.9496 -1.1321
 6312SOL     OW23391   6.212   2.766   9.387 -0.5057 -0.1638  0.1277
 6312SOL    HW123392   6.273   2.715   9.440 -0.0852 -0.3979 -0.5774
 6312SOL    HW223393   6.238   2.857   9.401 -0.2817 -0.2354  0.1774
 6313SOL     OW23394   6.978   5.893   0.942 -0.7861 -0.1954  0.3401
 6313SOL    HW123395   6.976   5.861   0.852  0.6713 -0.2651  0.3063
 6313SOL    HW223396   7.015   5.981   0.936 -2.6131  0.6300  0.6798
 6314SOL     OW23397   7.633   2.997   0.522 -0.3825 -0.3242 -0.3147
 6314SOL    HW123398   7.717   2.990   0.476  1.0245 -0.4962  2.1125
 6314SOL    HW223399   7.568   2.999   0.452  1.4999 -1.9190 -2.2662
 6315SOL     OW23400   1.751   1.153   6.078  0.1316  0.5943  0.4671
 6315SOL    HW123401   1.721   1.175   5.989  1.1522 -0.6577 -0.2211
 6315SOL    HW223402   1.703   1.074   6.101  0.4310  0.4861  0.7182
 6316SOL     OW23403   0.487   2.264   5.930  0.1314 -0.1343 -0.3198
 6316SOL    HW123404   0.409   2.238   5.979 -0.1488  1.3549  0.0697
 6316SOL    HW223405   0.465   2.349   5.893  1.3855  0.0646 -0.6533
 6317SOL     OW23406   1.437   1.398  10.578 -0.3753 -0.0754  0.2352
 6317SOL    HW123407   1.480   1.404  10.663 -0.0629 -1.1146  0.1692
 6317SOL    HW223408   1.509   1.392  10.515 -0.6062  0.6626 -0.1018
 6318SOL     OW23409   8.757   8.245   2.458  0.1864  0.3360 -0.3730
 6318SOL    HW123410   8.834   8.218   2.407  1.2130  0.8336  0.8784
 6318SOL    HW223411   8.717   8.162   2.485  1.3006  0.0296  0.4386
 6319SOL     OW23412   1.395   0.878   6.054 -0.0111 -0.3406 -0.3151
 6319SOL    HW123413   1.487   0.901   6.065 -0.3947  0.9909  0.2781
 6319SOL    HW223414   1.397   0.792   6.011  1.5048 -1.1431  1.2438
 6320SOL     OW23415   5.851  10.186  10.951  0.0977  0.7419  0.2236
 6320SOL    HW123416   5.903  10.263  10.972 -2.1509  2.3946  0.1441
 6320SOL    HW223417   5.767  10.221  10.922 -0.8102 -1.7469 -0.4434
 6321SOL     OW23418   4.485   2.060   9.336  0.0835  0.3333 -0.5126
 6321SOL    HW123419   4.512   2.064   9.244  0.8738  0.0739 -0.2952
 6321SOL    HW223420   4.491   1.967   9.358 -3.2937 -0.1654 -1.1229
 6322SOL     OW23421   8.742   8.492   1.818  0.1191  0.3197 -0.2376
 6322SOL    HW123422   8.701   8.453   1.895 -0.0340 -1.8708 -1.3527
 6322SOL    HW223423   8.773   8.578   1.848 -1.8043  0.4470  1.6773
 6323SOL     OW23424   0.294   7.143   2.203  0.9931  0.1527  0.0522
 6323SOL    HW123425   0.211   7.129   2.248  0.1224  0.0040 -1.5445
 6323SOL    HW223426   0.357   7.158   2.274 -0.6442  1.7631  1.2499
 6324SOL     OW23427   7.120   9.044   0.178  0.5804 -0.0255 -0.5843
 6324SOL    HW123428   7.131   9.095   0.258  1.8996 -0.2514 -0.5896
 6324SOL    HW223429   7.061   8.973   0.203  0.3279  0.3673 -0.0374
 6325SOL     OW23430   5.658   1.481   8.399  0.2296 -0.4124 -0.6742
 6325SOL    HW123431   5.640   1.418   8.469  1.5809 -1.1352 -0.9375
 6325SOL    HW223432   5.578   1.534   8.393  0.8308  1.1566  2.8880
 6326SOL     OW23433   1.438   7.005   4.923  0.3023 -0.1084 -0.2089
 6326SOL    HW123434   1.387   6.999   5.004 -1.1540 -1.3162 -1.1650
 6326SOL    HW223435   1.529   6.996   4.952 -0.2247 -1.3920  1.2186
 6327SOL     OW23436   2.169  10.889   9.639  0.0259 -0.2338 -0.7942
 6327SOL    HW123437   2.203  10.801   9.624  3.6219  1.1906 -1.9415
 6327SOL    HW223438   2.158  10.894   9.734  1.4633 -1.4067 -0.5282
 6328SOL     OW23439   9.368   7.318   8.487  0.1543 -0.3385  0.2115
 6328SOL    HW123440   9.433   7.283   8.548 -0.5715 -0.6354  0.8301
 6328SOL    HW223441   9.285   7.282   8.517 -0.4055  0.6348 -0.1089
 6329SOL     OW23442   9.105   0.457   8.024 -0.3236 -0.3961 -0.5072
 6329SOL    HW123443   9.092   0.551   8.038 -1.2507 -0.4902 -0.6790
 6329SOL    HW223444   9.192   0.439   8.059 -0.0417  0.5728 -0.6858
 6330SOL     OW23445  10.548   9.506   1.296 -0.3899  0.0266 -0.5846
 6330SOL    HW123446  10.601   9.486   1.219  0.0159 -1.1005 -0.0447
 6330SOL    HW223447  10.599   9.571   1.344 -0.3124  0.2131 -0.9137
 6331SOL     OW23448   5.079   5.984   0.986  0.2844 -0.3792  0.2162
 6331SOL    HW123449   5.158   5.943   0.952  1.7823  0.0762  2.8716
 6331SOL    HW223450   5.079   5.963   1.080 -2.3463  0.2962  0.4613
 6332SOL     OW23451   6.034  10.598   3.633 -0.3780 -0.1482 -0.0599
 6332SOL    HW123452   5.967  10.536   3.602  0.5276 -1.2103  0.0491
 6332SOL    HW223453   6.114  10.572   3.588 -0.0108  1.0813 -0.1556
 6333SOL     OW23454   7.277   6.968   1.242  0.5479  0.8864  0.3572
 6333SOL    HW123455   7.372   6.979   1.251  0.6499  0.1947  0.1880
 6333SOL    HW223456   7.259   6.881   1.279  0.5172 -0.6150 -2.8349
 6334SOL     OW23457   9.943  10.734   7.070 -0.1018  0.2605 -0.3508
 6334SOL    HW123458  10.019  10.698   7.025  1.4719  1.6578  1.0405
 6334SOL    HW223459   9.917  10.666   7.133 -0.3820 -0.4429 -1.2090
 6335SOL     OW23460   6.416   0.343   2.899 -0.2357 -0.6340 -0.0544
 6335SOL    HW123461   6.354   0.332   2.828  0.7717 -0.8093 -0.9259
 6335SOL    HW223462   6.395   0.273   2.961  0.7114 -2.3260 -1.5495
 6336SOL     OW23463   0.616  10.053   5.708  1.0630  0.4535 -0.0513
 6336SOL    HW123464   0.595  10.146   5.702  1.2687  0.5043 -0.0257
 6336SOL    HW223465   0.553  10.009   5.652  2.2652  0.8050 -1.7573
 6337SOL     OW23466   1.417  10.710   9.184 -0.7184 -0.0468  0.5484
 6337SOL    HW123467   1.478  10.781   9.163 -1.9330  0.8608 -0.1181
 6337SOL    HW223468   1.454  10.667   9.261  0.1189  1.2521  0.8978
 6338SOL     OW23469   6.354   4.210   2.605  0.4622 -0.0444 -0.0281
 6338SOL    HW123470   6.377   4.179   2.518  1.4270  2.0918 -0.6052
 6338SOL    HW223471   6.422   4.273   2.627 -0.3584  0.2692  1.8235
 6339SOL     OW23472   3.802   9.853   5.014 -0.3402 -0.1945  0.2245
 6339SOL    HW123473   3.782   9.940   5.049 -0.2573  0.7904 -1.9993
 6339SOL    HW223474   3.873   9.820   5.069  2.0455  2.6410 -0.8423
 6340SOL     OW23475   1.300   2.057   4.854 -0.2905 -0.0428  0.1691
 6340SOL    HW123476   1.242   2.004   4.799 -1.3643  0.1318  1.1033
 6340SOL    HW223477   1.302   2.011   4.938 -0.3037  0.7675  0.6239
 6341SOL     OW23478   3.268   1.111  10.163 -0.3746  0.3080 -0.2001
 6341SOL    HW123479   3.208   1.123  10.237  0.8706 -1.7978  1.2489
 6341SOL    HW223480   3.231   1.166  10.093 -2.7463  0.7788  1.3045
 6342SOL     OW23481   3.033   9.421   0.060  0.0913  0.3647 -0.3037
 6342SOL    HW123482   3.012   9.402  -0.032 -0.5860 -0.5179  0.0232
 6342SOL    HW223483   2.952   9.456   0.096 -0.5190 -1.8515  0.6398
 6343SOL     OW23484  10.238   8.940   4.634  0.2034 -0.1791  0.0197
 6343SOL    HW123485  10.157   8.894   4.654  0.2443 -0.1561  0.2397
 6343SOL    HW223486  10.222   8.980   4.548 -0.2095  0.2541  0.2900
 6344SOL     OW23487   6.082  10.028   2.091 -0.0289 -0.1295 -0.2398
 6344SOL    HW123488   6.056  10.102   2.146 -0.1655 -0.2053 -0.2011
 6344SOL    HW223489   6.138  10.066   2.024 -0.3445  0.0580 -0.3991
 6345SOL     OW23490   8.226   2.651   6.511 -0.0951 -0.5769  0.7209
 6345SOL    HW123491   8.246   2.576   6.455 -1.9475 -1.2729  0.9150
 6345SOL    HW223492   8.292   2.717   6.488  1.2680 -2.0545  0.1788
 6346SOL     OW23493   7.502   2.178   1.949 -0.2588  0.1768  0.0216
 6346SOL    HW123494   7.572   2.206   2.008  0.3275 -0.8244 -0.1723
 6346SOL    HW223495   7.421   2.199   1.997  0.1509  1.6932  0.0758
 6347SOL     OW23496   5.982   8.402   2.642  0.2380 -0.3246 -0.5588
 6347SOL    HW123497   5.919   8.331   2.658  0.2432 -0.4150 -0.9217
 6347SOL    HW223498   5.999   8.397   2.548 -0.0562  0.4046 -0.6540
 6348SOL     OW23499   3.969   5.585   6.159 -0.0882  0.1661 -0.8396
 6348SOL    HW123500   4.012   5.670   6.152  0.3787  0.1467  1.1814
 6348SOL    HW223501   4.040   5.522   6.153 -0.2560 -0.0250 -0.8283
 6349SOL     OW23502   2.746   3.287   8.918 -0.6018 -0.0013 -0.0744
 6349SOL    HW123503   2.785   3.292   9.005  0.3319 -0.3391 -0.4612
 6349SOL    HW223504   2.806   3.337   8.862 -0.1381 -1.3829 -0.8625
 6350SOL     OW23505   6.219   2.602   2.130 -0.4130 -0.3438  0.2823
 6350SOL    HW123506   6.189   2.634   2.045  0.6114  0.4677  0.2029
 6350SOL    HW223507   6.141   2.566   2.171 -1.1360  0.1960 -0.5790
 6351SOL     OW23508   9.630   0.475   0.028 -0.4751  0.0110  0.1165
 6351SOL    HW123509   9.611   0.522  -0.053 -0.3193  0.9190  0.5837
 6351SOL    HW223510   9.569   0.401   0.029 -1.1578  0.5542 -0.3527
 6352SOL     OW23511   4.768   8.330   9.160  0.0595  0.3987 -0.3771
 6352SOL    HW123512   4.824   8.264   9.200  0.9481  0.7822 -0.9515
 6352SOL    HW223513   4.704   8.280   9.110  2.7565 -0.1233 -3.6410
 6353SOL     OW23514   9.824   3.152   2.691 -0.2341  0.6810  0.6413
 6353SOL    HW123515   9.847   3.076   2.639 -0.2133  0.2775  1.2384
 6353SOL    HW223516   9.897   3.213   2.678  0.2093  0.2154  0.9309
 6354SOL     OW23517   5.789   7.548   6.736  0.0806  0.4008 -0.1097
 6354SOL    HW123518   5.754   7.504   6.659  0.2521 -1.0528  0.6023
 6354SOL    HW223519   5.729   7.524   6.807  0.6629  0.6091  0.4690
 6355SOL     OW23520   0.358   5.768   2.709 -0.1096  0.1326  0.0486
 6355SOL    HW123521   0.373   5.679   2.677 -0.9901 -0.2715  0.7167
 6355SOL    HW223522   0.275   5.763   2.756  0.6368  0.9428  1.5221
 6356SOL     OW23523   1.838   7.783   3.757  0.0650  0.6227  0.2590
 6356SOL    HW123524   1.823   7.711   3.696 -3.6448  1.2888  0.1713
 6356SOL    HW223525   1.842   7.741   3.843  0.0780  0.1439  0.0264
 6357SOL     OW23526  10.162   9.882   5.440 -0.3276  0.4196 -0.0515
 6357SOL    HW123527  10.256   9.873   5.420 -0.1741  0.7067  0.5248
 6357SOL    HW223528  10.132   9.793   5.456  0.3062  0.4949  1.7457
 6358SOL     OW23529   0.142   3.406   7.895 -0.2257  0.2008  0.2442
 6358SOL    HW123530   0.214   3.352   7.928  1.7668  1.5261 -1.6451
 6358SOL    HW223531   0.170   3.496   7.912 -1.7758  0.7442  0.0673
 6359SOL     OW23532   2.097   1.504   5.520 -0.1256  0.2542  0.6751
 6359SOL    HW123533   2.171   1.446   5.537  1.6199  1.4789 -2.0236
 6359SOL    HW223534   2.040   1.453   5.462 -0.2423  0.1006  0.9248
 6360SOL     OW23535   5.023   8.007  10.501  0.6730  0.5555 -0.3013
 6360SOL    HW123536   4.991   7.984  10.588  1.6397  0.5206  0.0525
 6360SOL    HW223537   4.946   8.041  10.456  0.4812  2.0780  1.0921
 6361SOL     OW23538   0.719   2.203   6.464  0.2714  0.1541 -0.3971
 6361SOL    HW123539   0.683   2.140   6.526  0.9180 -0.4986 -0.6707
 6361SOL    HW223540   0.644   2.256   6.437 -0.0702  0.2515  0.7058
 6362SOL     OW23541   9.917   4.331   2.873  0.0657  1.1394 -0.2917
 6362SOL    HW123542   9.892   4.336   2.781 -0.6325  2.1144 -0.0777
 6362SOL    HW223543   9.930   4.423   2.899 -0.0014  0.8997  0.6396
 6363SOL     OW23544   4.698   2.161  11.066 -0.0611 -0.4170 -0.1766
 6363SOL    HW123545   4.606   2.140  11.051 -0.4289  2.3297 -2.3802
 6363SOL    HW223546   4.696   2.242  11.116  1.2076 -0.6608  0.3031
 6364SOL     OW23547   6.677   8.833   4.876  0.1675  0.5222 -0.0097
 6364SOL    HW123548   6.590   8.803   4.852  0.1927 -1.4943  2.0130
 6364SOL    HW223549   6.668   8.928   4.887 -1.7122  0.3812 -0.0514
 6365SOL     OW23550   8.828   1.649   1.676  0.7965 -0.3920 -0.0489
 6365SOL    HW123551   8.747   1.688   1.645 -0.0466 -1.6116  0.5509
 6365SOL    HW223552   8.887   1.653   1.601 -0.9393 -2.5974 -1.6882
 6366SOL     OW23553   4.104   0.039   5.249  0.1407  0.8051 -0.2777
 6366SOL    HW123554   4.163  -0.032   5.225 -0.5112  0.3761 -0.6524
 6366SOL    HW223555   4.134   0.114   5.198 -0.6189  0.1663 -1.7148
 6367SOL     OW23556   9.243  10.129   8.892 -0.3111 -0.1539  0.1623
 6367SOL    HW123557   9.309  10.147   8.825  0.8690  1.5376  1.6803
 6367SOL    HW223558   9.164  10.105   8.843  0.4426  1.2199 -1.8252
 6368SOL     OW23559   5.438   2.945   9.747  0.0635  0.0480  0.2734
 6368SOL    HW123560   5.429   3.039   9.764 -0.8236  0.1884 -0.8393
 6368SOL    HW223561   5.458   2.907   9.832 -2.9364  0.8357  1.4466
 6369SOL     OW23562   8.956   2.146   7.134  0.2802  0.1664  0.0717
 6369SOL    HW123563   9.037   2.146   7.186 -0.1207 -1.0921  0.7453
 6369SOL    HW223564   8.982   2.107   7.050  0.6983  1.2186 -0.3007
 6370SOL     OW23565   2.339   4.867   7.784  0.2700 -0.4511 -0.6348
 6370SOL    HW123566   2.320   4.917   7.704  1.2230  0.0413 -0.5730
 6370SOL    HW223567   2.311   4.925   7.855  1.5012  0.0947 -0.5580
 6371SOL     OW23568   3.457   6.003   2.522  0.2745 -0.1573  0.1437
 6371SOL    HW123569   3.544   5.964   2.523  0.3525 -0.1155 -1.6748
 6371SOL    HW223570   3.456   6.061   2.598  1.5439 -0.7444  0.6389
 6372SOL     OW23571   0.322   7.280  10.124  0.4135  0.0024 -0.2051
 6372SOL    HW123572   0.288   7.290  10.035 -1.7304  1.2028  0.6575
 6372SOL    HW223573   0.286   7.197  10.155  1.9199 -0.8797 -0.7198
 6373SOL     OW23574   1.037   1.365   1.383 -0.0284 -0.5564 -0.1073
 6373SOL    HW123575   1.099   1.305   1.342 -0.5254 -1.7212  0.7671
 6373SOL    HW223576   1.073   1.382   1.470  0.4367  0.9806 -0.5613
 6374SOL     OW23577   4.083   7.984   7.889  0.1753  0.0737  0.4819
 6374SOL    HW123578   3.995   7.998   7.854 -0.5123  0.6677  2.3202
 6374SOL    HW223579   4.072   7.918   7.957  0.3589  2.6799  3.2782
 6375SOL     OW23580   9.675   5.061   2.407  0.5287 -0.0152 -0.2194
 6375SOL    HW123581   9.616   5.132   2.381 -0.1674 -0.9531 -1.2562
 6375SOL    HW223582   9.730   5.046   2.331  0.9724 -0.3030  0.1548
 6376SOL     OW23583   5.485   0.078   0.270 -0.5552 -0.3626  0.3677
 6376SOL    HW123584   5.481   0.169   0.301 -1.6908 -0.4534  0.5207
 6376SOL    HW223585   5.579   0.059   0.264 -0.2604  1.2483 -0.9235
 6377SOL     OW23586   5.599   0.962   7.686  0.3028  0.0696  0.3398
 6377SOL    HW123587   5.587   1.023   7.613 -0.6225 -0.4484  0.0339
 6377SOL    HW223588   5.667   0.902   7.656  1.4288  1.1057  0.7587
 6378SOL     OW23589   8.984   1.280   2.225  0.1441 -0.3602 -0.3049
 6378SOL    HW123590   8.939   1.321   2.151  0.9475 -0.6892 -0.9915
 6378SOL    HW223591   8.993   1.188   2.200 -0.6374 -0.7376  0.7366
 6379SOL     OW23592   6.285   5.987   8.104  0.0754 -0.0707  0.1297
 6379SOL    HW123593   6.378   6.008   8.104  0.3867 -1.1643  2.1286
 6379SOL    HW223594   6.260   5.985   8.012  2.0501  0.1497 -0.4407
 6380SOL     OW23595   8.652   1.733  11.004 -0.2397 -0.3125 -0.0238
 6380SOL    HW123596   8.642   1.781  10.922  0.7968  1.3554  0.7829
 6380SOL    HW223597   8.734   1.685  10.994 -0.9006 -1.3871 -0.5361
 6381SOL     OW23598   7.240   5.423   7.816  0.1935 -0.1683  0.0712
 6381SOL    HW123599   7.303   5.366   7.860 -0.2916 -1.0512 -0.3666
 6381SOL    HW223600   7.267   5.422   7.724  0.2732  0.4451  0.0790
 6382SOL     OW23601   1.325   9.433   3.543  0.0999  0.2998  0.1226
 6382SOL    HW123602   1.355   9.344   3.527 -2.3833 -0.6202  0.1822
 6382SOL    HW223603   1.235   9.434   3.511 -0.1155  2.6554  0.6060
 6383SOL     OW23604   0.779   2.034   1.804  0.4331  0.3802  0.4432
 6383SOL    HW123605   0.715   1.981   1.757 -0.3833  1.0377  0.7789
 6383SOL    HW223606   0.753   2.026   1.896  1.5703 -0.3084  0.7248
 6384SOL     OW23607   0.491  10.879   2.937 -0.0710  0.2635 -0.0685
 6384SOL    HW123608   0.446  10.946   2.988 -0.7114  0.9253 -1.4366
 6384SOL    HW223609   0.582  10.883   2.966 -0.0710  1.8267 -0.1907
 6385SOL     OW23610   0.207   3.755   1.666  0.1444  0.5883  0.5119
 6385SOL    HW123611   0.144   3.808   1.617  1.0557  0.3384 -0.9975
 6385SOL    HW223612   0.286   3.756   1.612  0.8488 -0.5942  1.4719
 6386SOL     OW23613   0.740   3.398   2.320 -0.6843 -0.4549 -0.0417
 6386SOL    HW123614   0.718   3.483   2.282  3.0320  0.8960  0.3602
 6386SOL    HW223615   0.767   3.344   2.246  0.7579  0.1438  0.0053
 6387SOL     OW23616   5.073   4.595   7.821  0.2914 -0.8666 -0.3838
 6387SOL    HW123617   5.049   4.525   7.883  1.2272 -0.4131  0.5313
 6387SOL    HW223618   4.990   4.631   7.791 -0.2342 -0.0442  1.8492
 6388SOL     OW23619   6.740   7.138   9.517 -0.9101 -0.3916 -0.9068
 6388SOL    HW123620   6.775   7.078   9.452 -0.5086  2.0481 -3.1204
 6388SOL    HW223621   6.647   7.118   9.521 -0.6848 -1.5195 -1.1575
 6389SOL     OW23622   5.314   9.961   1.932 -0.0645  0.5026 -0.3250
 6389SOL    HW123623   5.359   9.888   1.890  0.8482  1.3306 -0.8162
 6389SOL    HW223624   5.334  10.037   1.877 -0.4535  1.2473  0.5375
 6390SOL     OW23625  10.746   5.119   3.962 -0.8644  0.6105 -0.2432
 6390SOL    HW123626  10.738   5.172   4.041 -0.9097  0.0809  0.1165
 6390SOL    HW223627  10.751   5.182   3.891  1.3887  1.2098  0.3527
 6391SOL     OW23628   5.946   5.551   6.836 -0.4965 -0.7094 -0.0141
 6391SOL    HW123629   5.877   5.557   6.903 -0.7394 -0.8282 -0.2474
 6391SOL    HW223630   6.009   5.619   6.860 -0.7456 -0.5316  0.1453
 6392SOL     OW23631   9.682   9.188   6.640  0.3837  0.5567 -0.1042
 6392SOL    HW123632   9.642   9.273   6.622 -1.1808 -0.2296 -0.4926
 6392SOL    HW223633   9.737   9.204   6.717  1.9667  2.4241 -1.4915
 6393SOL     OW23634   2.284   8.148   5.641  0.0110  0.4264  0.4768
 6393SOL    HW123635   2.261   8.205   5.714  1.0440 -0.4366  1.5193
 6393SOL    HW223636   2.236   8.067   5.657  2.5518 -0.9135  1.9741
 6394SOL     OW23637   9.966   9.889   0.923  0.3911  0.1025 -0.0996
 6394SOL    HW123638  10.007   9.824   0.867  0.8759 -0.8113  1.2829
 6394SOL    HW223639   9.970   9.852   1.011 -3.3450 -0.0305  0.1606
 6395SOL     OW23640   3.218   9.074   5.841  0.4833 -0.1610  0.1054
 6395SOL    HW123641   3.219   8.985   5.807 -0.7547 -0.4985  0.9032
 6395SOL    HW223642   3.183   9.126   5.768 -0.1681 -0.5612  0.1208
 6396SOL     OW23643   8.713   6.889   3.945  0.3415  0.0910 -0.0749
 6396SOL    HW123644   8.754   6.905   3.860 -0.4476  2.8460 -0.0434
 6396SOL    HW223645   8.626   6.856   3.924 -0.0790  1.3386 -0.4304
 6397SOL     OW23646  10.260   9.702   1.200  0.1194  0.2530 -0.3823
 6397SOL    HW123647  10.332   9.762   1.220 -0.6431  0.4302  2.0945
 6397SOL    HW223648  10.287   9.619   1.240 -1.3746  0.5414  1.3121
 6398SOL     OW23649   6.680   4.864   6.687  0.2397 -0.0435 -0.3368
 6398SOL    HW123650   6.641   4.781   6.715 -2.4041  1.1466 -0.2478
 6398SOL    HW223651   6.730   4.893   6.763 -0.6347 -0.4978  0.4337
 6399SOL     OW23652  10.653   3.239   4.871 -0.0131 -0.4330 -0.3567
 6399SOL    HW123653  10.594   3.164   4.882 -0.2219 -0.1258  0.7545
 6399SOL    HW223654  10.603   3.300   4.817  0.1127 -1.0207 -1.1716
 6400SOL     OW23655   1.282  10.541   6.317 -0.4176  0.1802  0.0194
 6400SOL    HW123656   1.220  10.559   6.246  0.0585 -0.5825 -0.6103
 6400SOL    HW223657   1.364  10.581   6.286 -0.7718  2.0010  1.2542
 6401SOL     OW23658   7.978   7.583   2.874  0.2077  0.0059 -0.4418
 6401SOL    HW123659   7.976   7.677   2.890 -0.9640 -0.1594  0.5827
 6401SOL    HW223660   7.886   7.557   2.875  0.5548 -1.2783  0.1646
 6402SOL     OW23661   1.735   7.800   4.630  0.0034 -0.0771  0.4770
 6402SOL    HW123662   1.684   7.739   4.683 -0.5588 -1.1153 -1.2021
 6402SOL    HW223663   1.696   7.886   4.648 -2.7710 -0.8783 -1.1132
 6403SOL     OW23664   3.645   8.880   9.203  0.6189  0.0661 -0.1275
 6403SOL    HW123665   3.668   8.971   9.225  1.1823 -0.1734  0.3098
 6403SOL    HW223666   3.550   8.881   9.194  0.1389 -0.0182  3.4571
 6404SOL     OW23667   7.367   4.634   5.727  0.2069  0.1795 -0.3391
 6404SOL    HW123668   7.396   4.545   5.711 -2.0244 -0.9984  1.5797
 6404SOL    HW223669   7.316   4.656   5.649  2.1046  0.4665 -1.5547
 6405SOL     OW23670   9.592   6.750   6.846  0.3811  0.2915  0.0389
 6405SOL    HW123671   9.558   6.661   6.834 -1.8029  0.9419  0.8681
 6405SOL    HW223672   9.589   6.789   6.759 -0.9474  0.2743  0.0563
 6406SOL     OW23673   5.408   5.458   3.035  0.1170  0.1495 -0.3683
 6406SOL    HW123674   5.364   5.422   2.958  2.0723 -0.6225 -1.1842
 6406SOL    HW223675   5.339   5.465   3.101 -1.3644 -0.2778 -1.8079
 6407SOL     OW23676   9.215   5.656  10.849  0.6837  0.1642  0.0996
 6407SOL    HW123677   9.210   5.561  10.846  1.3068  0.1178  0.4587
 6407SOL    HW223678   9.308   5.676  10.842  0.4801  0.7950 -1.1368
 6408SOL     OW23679   0.377   2.524   9.288  0.1469  0.6739 -0.7749
 6408SOL    HW123680   0.303   2.548   9.344 -0.1991 -0.4315 -0.7360
 6408SOL    HW223681   0.377   2.591   9.219 -1.0003  0.5982 -0.8748
 6409SOL     OW23682   4.815   5.409   8.703  0.7229 -0.0591  0.0626
 6409SOL    HW123683   4.791   5.465   8.776 -0.9065 -0.3773 -0.2044
 6409SOL    HW223684   4.746   5.422   8.638  0.9233 -1.4925 -0.4828
 6410SOL     OW23685   3.533   6.691   7.727 -0.2138  0.4341  0.1268
 6410SOL    HW123686   3.465   6.743   7.769  0.2971 -0.8320  2.6868
 6410SOL    HW223687   3.505   6.600   7.736  1.6158 -0.1061  1.0083
 6411SOL     OW23688   9.261   1.266   2.713  0.1324 -0.1138  0.4997
 6411SOL    HW123689   9.173   1.258   2.676  0.1822 -0.3836  0.4390
 6411SOL    HW223690   9.304   1.183   2.692  0.6371  0.2842 -0.0818
 6412SOL     OW23691   5.579   8.722   0.441 -0.6642 -0.6003 -0.0322
 6412SOL    HW123692   5.568   8.650   0.380 -0.6581 -0.1304 -0.5971
 6412SOL    HW223693   5.490   8.753   0.457 -0.5160  1.0319 -1.9642
 6413SOL     OW23694   4.301   7.872   2.896  0.6003  0.2980  0.3676
 6413SOL    HW123695   4.378   7.924   2.871  0.3700  0.1653 -0.6652
 6413SOL    HW223696   4.323   7.837   2.982  1.4229  0.8040  0.3770
 6414SOL     OW23697   6.864   8.613   9.789  0.0471 -0.4667  0.5940
 6414SOL    HW123698   6.933   8.632   9.725 -0.9515  0.3657 -0.2661
 6414SOL    HW223699   6.817   8.538   9.752 -1.3295  0.7994 -0.3591
 6415SOL     OW23700   8.021   1.356   5.055 -0.3289 -0.1853  0.6294
 6415SOL    HW123701   7.989   1.447   5.054  1.2689  0.4510 -1.2455
 6415SOL    HW223702   7.957   1.308   5.002  1.3767  1.0088 -2.8396
 6416SOL     OW23703   6.003  10.575   1.423  0.4310  0.0793 -0.4603
 6416SOL    HW123704   5.986  10.586   1.330 -1.4584  0.3470 -0.1110
 6416SOL    HW223705   6.019  10.481   1.433  0.6019  0.0443 -1.0422
 6417SOL     OW23706   9.589   9.697   4.761  0.7180  0.2851  0.3126
 6417SOL    HW123707   9.591   9.742   4.677  0.0401 -1.8467 -0.9342
 6417SOL    HW223708   9.598   9.604   4.739 -0.9630 -0.4839  2.4630
 6418SOL     OW23709   3.743   6.433   3.414  0.1748 -0.1514 -0.3487
 6418SOL    HW123710   3.674   6.471   3.469  0.8236  0.0009  0.3954
 6418SOL    HW223711   3.698   6.373   3.356 -0.2416 -3.3895  2.9716
 6419SOL     OW23712   2.550   3.648   8.792  0.8990 -0.1489 -0.4393
 6419SOL    HW123713   2.638   3.662   8.757  0.9409 -0.0815 -0.3104
 6419SOL    HW223714   2.560   3.661   8.887  0.4660  1.3634 -0.5714
 6420SOL     OW23715  10.362   4.525   7.331  0.3436  0.0948  0.0965
 6420SOL    HW123716  10.272   4.553   7.314 -0.6341 -3.2762 -0.9911
 6420SOL    HW223717  10.415   4.602   7.310 -2.0422  1.1747 -2.6618
 6421SOL     OW23718   6.810   0.017   2.590  0.1378  0.3010 -0.0621
 6421SOL    HW123719   6.878   0.079   2.616  3.0055 -1.5056 -2.5626
 6421SOL    HW223720   6.780  -0.021   2.673  0.9395  2.3382  1.2410
 6422SOL     OW23721  10.062   9.479   3.288  0.4493 -0.2269  0.2638
 6422SOL    HW123722  10.134   9.536   3.312  0.3234  0.0973 -0.1298
 6422SOL    HW223723  10.062   9.477   3.193 -0.9040  0.8808  0.2104
 6423SOL     OW23724  10.835   5.020  10.645  0.2755 -0.3137  0.0710
 6423SOL    HW123725  10.798   5.039  10.559  0.3192 -1.5517 -0.2399
 6423SOL    HW223726  10.927   5.044  10.637 -0.3256  2.4839  0.7515
 6424SOL     OW23727   7.832   8.118   8.810  0.3062  0.5362  0.1283
 6424SOL    HW123728   7.801   8.175   8.739  2.3203  1.7235  0.1426
 6424SOL    HW223729   7.900   8.064   8.770  0.6911  0.4439  0.8909
 6425SOL     OW23730   3.737   0.689   9.505 -0.6390 -0.2718 -0.0872
 6425SOL    HW123731   3.779   0.651   9.428  0.0910  1.1947 -0.4526
 6425SOL    HW223732   3.681   0.619   9.538  1.6479 -2.1292  0.1170
 6426SOL     OW23733   2.330   4.175   2.493  0.1752  0.2064 -0.3047
 6426SOL    HW123734   2.289   4.246   2.542  0.3891  1.3216 -1.6926
 6426SOL    HW223735   2.267   4.154   2.424  0.0558 -1.0751  0.1534
 6427SOL     OW23736   3.378   2.998   7.746 -0.2845  0.1390  0.2143
 6427SOL    HW123737   3.427   2.920   7.720  1.3095  1.1515  0.0650
 6427SOL    HW223738   3.384   2.998   7.842 -2.4391 -1.2351  0.4064
 6428SOL     OW23739   6.202   2.582  10.798 -0.2442  0.5991  0.1373
 6428SOL    HW123740   6.191   2.494  10.833 -0.7019  0.0700 -1.2914
 6428SOL    HW223741   6.145   2.585  10.721 -0.5153  2.2649  0.3556
 6429SOL     OW23742   1.700   6.573   1.552 -0.4942  0.0862  0.5014
 6429SOL    HW123743   1.697   6.666   1.573 -0.0887 -0.0496  1.2380
 6429SOL    HW223744   1.786   6.561   1.510 -1.1695  0.2978 -0.9945
 6430SOL     OW23745   1.596   1.591   9.991 -0.0800  0.3978 -0.8711
 6430SOL    HW123746   1.578   1.498   9.986  0.2485  0.2534  0.2001
 6430SOL    HW223747   1.515   1.630  10.024 -0.4035  0.5743 -1.8572
 6431SOL     OW23748  10.531   0.195   6.372  0.4060 -0.0379  0.4658
 6431SOL    HW123749  10.605   0.145   6.336 -0.5226 -0.9514 -0.2300
 6431SOL    HW223750  10.494   0.138   6.439 -1.0184 -0.5918 -0.7272
 6432SOL     OW23751   4.228   2.978   1.139  0.3661 -0.5013  0.5201
 6432SOL    HW123752   4.235   2.910   1.206  0.5943 -1.9320 -0.8910
 6432SOL    HW223753   4.276   2.942   1.064 -0.5820  0.6818 -0.6893
 6433SOL     OW23754   2.428   6.556   9.013 -0.2023  0.0140 -0.2417
 6433SOL    HW123755   2.394   6.516   8.932 -0.5047 -0.2014 -0.0126
 6433SOL    HW223756   2.458   6.643   8.987 -0.7997  0.1532 -0.4819
 6434SOL     OW23757   9.763   5.126   5.379  0.1099  0.4310  0.5237
 6434SOL    HW123758   9.792   5.180   5.306 -0.0015 -1.2559 -0.8216
 6434SOL    HW223759   9.830   5.139   5.446  1.0453  0.8232 -0.4624
 6435SOL     OW23760   3.284   9.582   0.582 -0.0349  0.0175 -0.0663
 6435SOL    HW123761   3.336   9.655   0.616 -0.0961 -0.1263  0.3399
 6435SOL    HW223762   3.251   9.613   0.498 -0.4572  0.6332  0.3255
 6436SOL     OW23763   0.154   6.580   3.324 -0.4202  0.4175 -0.5518
 6436SOL    HW123764   0.098   6.554   3.252 -0.6045 -0.4925 -0.0913
 6436SOL    HW223765   0.169   6.674   3.310 -1.3700  0.4939 -1.1328
 6437SOL     OW23766   5.200   5.851   6.935  0.1203 -0.6897 -0.4013
 6437SOL    HW123767   5.147   5.903   6.875 -2.5739 -1.2703  1.3150
 6437SOL    HW223768   5.217   5.770   6.887  0.2536 -0.1404 -1.3171
 6438SOL     OW23769   9.065   1.342   1.676 -0.3496  0.3300 -0.7928
 6438SOL    HW123770   8.998   1.276   1.659 -0.5641 -0.1760  1.6603
 6438SOL    HW223771   9.146   1.292   1.683 -0.4258  0.3661  0.5288
 6439SOL     OW23772   8.822   5.786   2.030  0.1158  0.2512  0.2622
 6439SOL    HW123773   8.906   5.817   1.998 -0.8788  0.5602 -2.2454
 6439SOL    HW223774   8.758   5.847   1.993 -1.2435  0.3469  2.5188
 6440SOL     OW23775   2.635   1.255   5.921  0.0243 -0.0216  0.1018
 6440SOL    HW123776   2.632   1.351   5.926  0.9117  0.0467 -0.3851
 6440SOL    HW223777   2.727   1.234   5.936 -0.2284 -0.8341  0.5920
 6441SOL     OW23778   3.856   4.925   4.829  0.1460 -0.1275  0.1871
 6441SOL    HW123779   3.804   4.847   4.811  2.3876 -1.7269  0.2382
 6441SOL    HW223780   3.858   4.973   4.745 -0.3759 -0.6685 -0.1378
 6442SOL     OW23781   1.331   3.981  10.814  0.3502  0.0370 -0.0497
 6442SOL    HW123782   1.291   3.921  10.750 -0.1717  0.7871 -0.4465
 6442SOL    HW223783   1.257   4.033  10.847  1.0471  1.9154 -1.2818
 6443SOL     OW23784   1.142   7.561   7.454 -0.2033 -0.3303 -0.3501
 6443SOL    HW123785   1.202   7.492   7.425 -0.6186 -0.0846 -1.8724
 6443SOL    HW223786   1.196   7.640   7.455 -0.1860 -0.3410 -0.4324
 6444SOL     OW23787   6.759   7.155   4.130  0.0626 -0.6406  0.0680
 6444SOL    HW123788   6.836   7.168   4.074  1.6622  0.7655  2.3833
 6444SOL    HW223789   6.739   7.242   4.164 -0.6636 -1.4317  1.8094
 6445SOL     OW23790  10.433   8.958   4.883 -0.4005  0.0865 -0.1806
 6445SOL    HW123791  10.400   9.037   4.840 -1.2887 -0.2664 -0.1650
 6445SOL    HW223792  10.493   8.919   4.820 -0.9440  0.0895 -0.6986
 6446SOL     OW23793   1.876   9.294   7.634  0.0310  0.0888 -0.1114
 6446SOL    HW123794   1.885   9.262   7.724 -0.6005 -1.3046 -0.5151
 6446SOL    HW223795   1.839   9.382   7.644 -0.7737 -0.3430  0.9772
 6447SOL     OW23796   7.822   2.560   8.547  0.4002  0.1127  0.3001
 6447SOL    HW123797   7.836   2.654   8.550 -2.3258  0.7186 -1.6625
 6447SOL    HW223798   7.771   2.540   8.625  1.3988  0.1566  0.9711
 6448SOL     OW23799   2.055   6.210   6.336 -0.0180  0.1304 -0.3915
 6448SOL    HW123800   2.019   6.257   6.411 -1.6775 -0.4606 -0.7667
 6448SOL    HW223801   2.084   6.279   6.276 -0.5058  0.6314 -0.0595
 6449SOL     OW23802   3.230   7.513   1.248  0.6970  0.2999  0.7213
 6449SOL    HW123803   3.212   7.431   1.201  0.3537  0.9164 -0.2537
 6449SOL    HW223804   3.181   7.505   1.330  0.6726 -0.4700  0.6387
 6450SOL     OW23805  11.038   2.828   2.359 -1.1577 -0.3483 -0.3827
 6450SOL    HW123806  11.029   2.739   2.326 -2.4510  0.4288 -2.2679
 6450SOL    HW223807  10.995   2.883   2.294  0.5122  1.7874  0.1858
 6451SOL     OW23808   8.521   9.911   1.882  0.2447 -0.7532  0.2109
 6451SOL    HW123809   8.615   9.929   1.888  0.3629 -1.7305  2.3481
 6451SOL    HW223810   8.515   9.816   1.871 -0.4974 -0.6194 -0.6631
 6452SOL     OW23811  10.179   3.498   4.278  0.6023 -0.2197 -0.0374
 6452SOL    HW123812  10.192   3.420   4.224  1.2256 -0.3811  0.3411
 6452SOL    HW223813  10.248   3.494   4.343 -0.9593 -0.7830  1.6768
 6453SOL     OW23814   9.373   5.746   3.370 -0.0662  0.3978  0.2118
 6453SOL    HW123815   9.319   5.667   3.369 -1.5113  1.2978  1.1330
 6453SOL    HW223816   9.432   5.737   3.296 -0.4420 -1.3613  0.0861
 6454SOL     OW23817   0.398   8.921   9.869 -0.4273  0.3996 -0.1244
 6454SOL    HW123818   0.310   8.918   9.831 -0.8282  1.0268  0.7109
 6454SOL    HW223819   0.413   8.832   9.901 -1.0068  0.4221  0.2332
 6455SOL     OW23820   4.138   6.038   1.307 -0.3008 -0.2196  0.2088
 6455SOL    HW123821   4.057   6.006   1.346 -0.7627 -1.2590 -1.5124
 6455SOL    HW223822   4.110   6.081   1.226  0.8655 -0.6331 -0.4346
 6456SOL     OW23823   5.613   2.495   1.938  0.2389  0.9190  0.6405
 6456SOL    HW123824   5.655   2.529   2.018  0.4764  1.8268  0.1406
 6456SOL    HW223825   5.554   2.427   1.970 -1.1981  2.6398  1.8200
 6457SOL     OW23826   1.628   2.203  10.646 -0.2457 -0.7783  0.4390
 6457SOL    HW123827   1.572   2.258  10.590 -0.6687 -2.2472 -0.6276
 6457SOL    HW223828   1.664   2.264  10.710 -0.7826  0.7340 -0.6327
 6458SOL     OW23829  10.751   0.788   1.581 -0.7357  0.7490 -0.4533
 6458SOL    HW123830  10.785   0.829   1.661  0.2380  0.9149 -0.9340
 6458SOL    HW223831  10.758   0.856   1.514  0.0225  0.1066 -1.0461
 6459SOL     OW23832  10.365   3.606   8.679  0.3545 -0.1324  0.6552
 6459SOL    HW123833  10.345   3.630   8.770 -0.9512  1.5462 -0.0190
 6459SOL    HW223834  10.403   3.685   8.641  0.5187 -0.6890 -0.3863
 6460SOL     OW23835   2.070   7.731   2.008 -0.1950  0.1090  0.2137
 6460SOL    HW123836   2.091   7.752   1.916 -1.0306  0.0606  0.0055
 6460SOL    HW223837   1.979   7.700   2.005  0.5120 -2.2620  0.6949
 6461SOL     OW23838   5.517   3.365   3.623 -0.1681 -0.3956  0.0573
 6461SOL    HW123839   5.584   3.379   3.556  2.1453 -0.0199  2.3271
 6461SOL    HW223840   5.476   3.451   3.633  0.7227  0.0046  0.3693
 6462SOL     OW23841   4.717  10.903   2.406  0.1883  0.3702  0.1299
 6462SOL    HW123842   4.645  10.850   2.440  1.0911 -2.1804 -1.5940
 6462SOL    HW223843   4.793  10.877   2.459  0.1775  1.8640  0.9077
 6463SOL     OW23844   1.188   0.795  10.378 -0.1198 -0.0400  0.5356
 6463SOL    HW123845   1.227   0.758  10.298 -0.0996  0.7541  0.1651
 6463SOL    HW223846   1.130   0.864  10.346 -2.0222 -1.3366  1.0635
 6464SOL     OW23847  10.581   1.963   1.871  0.2963 -0.1582  0.2555
 6464SOL    HW123848  10.559   2.055   1.853 -0.1059 -0.1396  0.8205
 6464SOL    HW223849  10.610   1.963   1.963  0.4629 -0.5696  0.2053
 6465SOL     OW23850   7.492   7.766   7.073 -0.9162 -0.3688 -0.1802
 6465SOL    HW123851   7.522   7.854   7.097  0.8592 -0.9002 -0.3226
 6465SOL    HW223852   7.428   7.744   7.140 -0.6058  0.6232  0.4640
 6466SOL     OW23853   8.070   0.402   0.167  0.5952  0.2666 -0.0924
 6466SOL    HW123854   8.028   0.487   0.158 -2.1993 -0.9318  0.3983
 6466SOL    HW223855   8.091   0.394   0.260 -2.4662 -0.8456  0.6452
 6467SOL     OW23856   0.636   8.354   4.090  0.1432  0.1844  0.5300
 6467SOL    HW123857   0.702   8.285   4.085  0.3508  0.2821  1.5316
 6467SOL    HW223858   0.600   8.346   4.179 -1.1453  0.1809  0.0349
 6468SOL     OW23859   9.892   4.554   6.248 -0.2337 -0.5559  0.3867
 6468SOL    HW123860   9.814   4.606   6.231 -0.9533 -1.1477  1.6716
 6468SOL    HW223861   9.877   4.517   6.335  0.9720 -1.6156  0.1741
 6469SOL     OW23862   9.764   0.420   2.638  0.6147  0.2726 -0.3715
 6469SOL    HW123863   9.826   0.361   2.681  0.5903 -0.0543 -0.7816
 6469SOL    HW223864   9.689   0.424   2.698  0.9522  0.5260  0.0392
 6470SOL     OW23865   4.359   5.440   2.086  0.3574  0.6772 -0.6118
 6470SOL    HW123866   4.296   5.403   2.148 -0.0883  1.6261 -0.4871
 6470SOL    HW223867   4.319   5.521   2.055  0.6030  0.2697 -2.0968
 6471SOL     OW23868   9.450   6.954   4.965 -0.3595  0.4944 -0.0336
 6471SOL    HW123869   9.444   6.954   5.061 -0.5985  1.3871 -0.0409
 6471SOL    HW223870   9.436   7.046   4.940  2.3866  0.8081 -0.7565
 6472SOL     OW23871   8.954  10.297   9.796 -0.0779  0.2468  0.5728
 6472SOL    HW123872   9.005  10.229   9.841  0.5797 -0.2312 -0.8251
 6472SOL    HW223873   8.871  10.254   9.776 -1.0961  1.0171  2.8241
 6473SOL     OW23874   9.483   7.096   4.446 -0.3779 -0.1012 -0.6170
 6473SOL    HW123875   9.411   7.036   4.468 -0.6087  0.5733  0.5196
 6473SOL    HW223876   9.548   7.082   4.514  1.7302 -2.4436 -2.9164
 6474SOL     OW23877   1.024   7.752   2.952  0.5000 -0.4954  0.0197
 6474SOL    HW123878   0.929   7.747   2.959  0.3097 -0.0730 -1.7646
 6474SOL    HW223879   1.056   7.727   3.039 -1.2166 -0.9452  0.5595
 6475SOL     OW23880   0.421   4.105   5.259  0.6931 -0.1218  0.1210
 6475SOL    HW123881   0.353   4.043   5.285  0.0529 -1.2608 -3.6906
 6475SOL    HW223882   0.496   4.050   5.235  0.5096  0.5639 -2.2479
 6476SOL     OW23883   2.358   2.793   8.700  0.2675 -0.2236 -0.3581
 6476SOL    HW123884   2.404   2.747   8.630  1.4798 -0.4351  0.5538
 6476SOL    HW223885   2.330   2.724   8.761 -1.0897 -0.0789 -0.7710
 6477SOL     OW23886   4.691   4.403   5.829  0.1348 -0.4449  0.1735
 6477SOL    HW123887   4.702   4.474   5.892  0.2384  0.1672 -0.5198
 6477SOL    HW223888   4.745   4.332   5.863  0.7401  0.1241  0.4078
 6478SOL     OW23889   9.541   2.879   4.669  0.0176 -0.0562 -0.2030
 6478SOL    HW123890   9.542   2.922   4.754  0.1314  0.7186 -0.5770
 6478SOL    HW223891   9.453   2.895   4.635  0.0333 -0.1933 -0.3081
 6479SOL     OW23892   0.584   4.411   3.787  0.1780  0.5437 -0.4148
 6479SOL    HW123893   0.624   4.415   3.700  2.1032 -3.2249  0.0630
 6479SOL    HW223894   0.647   4.454   3.844  1.4264 -1.2758 -0.3239
 6480SOL     OW23895  10.928   7.880   7.093 -0.2128  0.3500 -0.0399
 6480SOL    HW123896  10.974   7.868   7.176 -2.5164  0.7014  1.3794
 6480SOL    HW223897  10.836   7.883   7.117 -0.9643  0.4813 -2.6420
 6481SOL     OW23898   6.804  11.026   1.913  0.6271  0.6870  0.0826
 6481SOL    HW123899   6.812  11.118   1.889  0.9090  0.5950 -0.1928
 6481SOL    HW223900   6.832  11.022   2.004 -0.7161  1.0837  0.5231
 6482SOL     OW23901  10.548   5.064   6.514  0.4990 -0.6196  0.3014
 6482SOL    HW123902  10.479   5.000   6.496 -1.7086  1.0440  2.2181
 6482SOL    HW223903  10.590   5.032   6.594  0.0775 -0.2249  0.6857
 6483SOL     OW23904   7.857   6.427   1.128  0.0359 -0.3901  0.9132
 6483SOL    HW123905   7.938   6.452   1.172 -0.8590  1.3447  1.6854
 6483SOL    HW223906   7.794   6.495   1.153 -0.7621  0.3305 -2.4224
 6484SOL     OW23907   4.892   3.565   4.575  0.6545 -0.1748  0.0909
 6484SOL    HW123908   4.848   3.565   4.660 -0.4946  0.2507 -0.4739
 6484SOL    HW223909   4.820   3.563   4.511  1.4896 -1.7624 -0.8788
 6485SOL     OW23910   3.625   7.253   2.063 -0.3268  0.1323 -0.0962
 6485SOL    HW123911   3.697   7.243   2.125  1.9458  2.1554 -2.1691
 6485SOL    HW223912   3.554   7.291   2.115 -0.0840 -2.1643  2.0876
 6486SOL     OW23913   8.538   3.088   2.519  0.1877  0.2156  0.2130
 6486SOL    HW123914   8.539   3.182   2.535  0.1589  0.1699  0.4988
 6486SOL    HW223915   8.475   3.075   2.449  1.7692  0.6386 -1.3494
 6487SOL     OW23916   6.165   5.592   5.619 -0.2374  0.3762  0.5559
 6487SOL    HW123917   6.103   5.623   5.553 -1.9688 -3.0888  0.2999
 6487SOL    HW223918   6.115   5.591   5.700  0.8423  1.4436  1.2618
 6488SOL     OW23919   3.277   0.284   8.558  0.2516 -0.2302  0.5519
 6488SOL    HW123920   3.345   0.315   8.498 -0.2334  0.1613  0.1911
 6488SOL    HW223921   3.195   0.316   8.519 -0.0482  0.3387  1.6154
 6489SOL     OW23922   5.980   5.730   5.455 -0.3323 -0.3688 -0.5874
 6489SOL    HW123923   5.943   5.789   5.390 -0.0003  0.5468  0.0372
 6489SOL    HW223924   5.912   5.663   5.469 -1.0520  0.3305 -0.6917
 6490SOL     OW23925   7.001   6.228  10.380 -0.2524 -0.5226  0.3178
 6490SOL    HW123926   7.077   6.271  10.421  1.1757 -2.8230  0.2746
 6490SOL    HW223927   7.022   6.226  10.287 -1.6139  1.0815 -0.0678
 6491SOL     OW23928   0.205  10.186   1.748 -0.2344 -0.3690 -0.4152
 6491SOL    HW123929   0.274  10.175   1.683  0.8355  0.8227  0.4690
 6491SOL    HW223930   0.185  10.097   1.777  0.7535 -0.7601 -0.8764
 6492SOL     OW23931   0.587  10.566   2.716  0.0677 -0.5155  0.5971
 6492SOL    HW123932   0.513  10.516   2.751 -0.6226  0.3597  0.4264
 6492SOL    HW223933   0.658  10.502   2.707 -0.6152 -1.3300  0.9270
 6493SOL     OW23934   5.773   1.686   4.337  0.1458  0.3501 -0.0017
 6493SOL    HW123935   5.741   1.639   4.414  0.5169 -0.0251 -0.0744
 6493SOL    HW223936   5.864   1.658   4.328  0.1643  0.5477 -0.4597
 6494SOL     OW23937   0.313   6.870   9.591 -0.1468 -0.3259 -0.2848
 6494SOL    HW123938   0.322   6.779   9.619  0.5642  0.0672  0.8284
 6494SOL    HW223939   0.397   6.890   9.550  0.1734  0.2044  0.6191
 6495SOL     OW23940   8.801   8.580  10.867 -0.4243 -0.1119 -0.4832
 6495SOL    HW123941   8.738   8.523  10.822 -0.9452 -0.5841  0.7848
 6495SOL    HW223942   8.807   8.544  10.956 -1.0646  2.0031  0.5002
 6496SOL     OW23943   1.690   5.525   6.961  0.7449 -0.1398  0.0077
 6496SOL    HW123944   1.752   5.484   6.900 -0.3696  0.8289 -1.8587
 6496SOL    HW223945   1.689   5.617   6.937 -2.3813 -0.3015 -1.0008
 6497SOL     OW23946  10.771   2.582   8.405 -0.0300  0.5809  0.3218
 6497SOL    HW123947  10.788   2.640   8.479  0.4029 -1.0815  1.6115
 6497SOL    HW223948  10.691   2.616   8.365 -0.5765  1.2494  1.8850
 6498SOL     OW23949   1.052   2.782   8.002 -0.1896  0.2105 -0.3452
 6498SOL    HW123950   1.005   2.744   8.076 -1.7796  1.5144 -0.6229
 6498SOL    HW223951   0.986   2.832   7.954  1.0361  0.3275 -2.0256
 6499SOL     OW23952   3.383   7.492   2.003  0.6042 -0.9066 -0.3217
 6499SOL    HW123953   3.410   7.416   2.055  0.6358 -0.7503 -0.1073
 6499SOL    HW223954   3.415   7.567   2.052 -2.0153 -0.5806  1.0768
 6500SOL     OW23955   8.349   6.085   7.586 -0.1926 -0.2264  0.1054
 6500SOL    HW123956   8.381   6.174   7.601  0.9931 -0.2290 -1.9803
 6500SOL    HW223957   8.402   6.031   7.643  1.4499  0.1091 -1.0343
 6501SOL     OW23958   4.811   4.904   1.151 -0.0141 -0.7432  1.2328
 6501SOL    HW123959   4.827   4.821   1.108 -0.5267 -0.0888 -0.2856
 6501SOL    HW223960   4.869   4.966   1.107 -2.1068  0.3864 -0.1270
 6502SOL     OW23961   5.658   8.970   0.330 -0.4368 -0.0912  0.3251
 6502SOL    HW123962   5.644   8.876   0.338 -1.6243  0.1743  2.0713
 6502SOL    HW223963   5.607   9.007   0.402 -1.3211  2.0196 -1.2979
 6503SOL     OW23964   0.310   6.418   0.288 -0.0854  0.3555  0.4226
 6503SOL    HW123965   0.333   6.498   0.336  1.9462  0.2012 -0.1914
 6503SOL    HW223966   0.296   6.447   0.198 -1.2161  0.2627  0.5569
 6504SOL     OW23967   4.464   9.416   5.441 -0.3478 -0.3438  0.2989
 6504SOL    HW123968   4.389   9.374   5.399  0.0255 -1.2405  0.5184
 6504SOL    HW223969   4.538   9.358   5.423  0.0010 -0.2515  1.3956
 6505SOL     OW23970   9.323   4.720   9.209  0.3647 -0.4115 -0.6374
 6505SOL    HW123971   9.373   4.693   9.286 -1.8277 -2.5742  0.1411
 6505SOL    HW223972   9.367   4.676   9.136  1.6957  0.6393 -0.5227
 6506SOL     OW23973   3.585   1.046   5.056 -0.2728 -0.1471 -0.2416
 6506SOL    HW123974   3.667   1.076   5.097  1.2249 -1.4627 -2.0788
 6506SOL    HW223975   3.574   1.105   4.981  1.0277 -2.0853 -2.0814
 6507SOL     OW23976   5.107   4.700   1.245  0.2061 -0.1776 -0.2280
 6507SOL    HW123977   5.064   4.689   1.161  1.1548 -0.9678 -0.6267
 6507SOL    HW223978   5.184   4.644   1.240  0.5937  0.2251  0.9449
 6508SOL     OW23979   4.298   0.945   5.279  0.5895 -0.2468  0.1442
 6508SOL    HW123980   4.367   0.952   5.213  0.2798  1.7950 -0.0487
 6508SOL    HW223981   4.216   0.954   5.229  0.3519  1.3263  0.7540
 6509SOL     OW23982   5.036   2.144   5.341  0.1385  0.8095  0.6002
 6509SOL    HW123983   5.111   2.151   5.400  0.2309 -1.5145  0.8353
 6509SOL    HW223984   5.069   2.095   5.266 -0.9430  0.4374  0.3515
 6510SOL     OW23985  10.217   9.122   1.285  0.6166 -0.2069 -0.0264
 6510SOL    HW123986  10.301   9.094   1.322  0.7384 -1.4361 -1.1470
 6510SOL    HW223987  10.162   9.140   1.361  2.0515  1.2530  0.7506
 6511SOL     OW23988   8.844   5.405   1.134  0.4700 -0.3488  0.1718
 6511SOL    HW123989   8.862   5.349   1.210 -0.3053 -0.0248  0.6103
 6511SOL    HW223990   8.844   5.494   1.170 -1.6535 -0.3042  0.1618
 6512SOL     OW23991   8.742   0.894   5.625  0.5448  0.2755 -0.0255
 6512SOL    HW123992   8.836   0.912   5.615  0.6376  0.0077  0.3260
 6512SOL    HW223993   8.739   0.811   5.674  0.1270  0.9163  1.0788
 6513SOL     OW23994   3.980   9.672   4.419 -0.2928 -0.1021  0.1252
 6513SOL    HW123995   3.984   9.712   4.332  0.6925  0.0148  0.2174
 6513SOL    HW223996   3.919   9.728   4.468  0.8889  1.1980  0.1779
 6514SOL     OW23997   9.938   4.319   5.436 -0.2871 -0.5917  0.0890
 6514SOL    HW123998   9.914   4.402   5.395 -1.1037 -1.3276 -0.9721
 6514SOL    HW223999   9.869   4.303   5.500 -1.1015 -1.2876 -0.9334
 6515SOL     OW24000   6.115   4.350   0.595  0.6217  0.2265  0.2742
 6515SOL    HW124001   6.210   4.359   0.595  0.4729  2.2390  0.6557
 6515SOL    HW224002   6.096   4.299   0.673  1.3071  1.1023  1.0299
 6516SOL     OW24003   4.535   2.721   7.880  0.2513  0.1782  0.3015
 6516SOL    HW124004   4.480   2.657   7.927 -0.4937  0.7149  0.1904
 6516SOL    HW224005   4.556   2.678   7.797  0.4301 -0.2386  0.5598
 6517SOL     OW24006   3.534   0.099   0.150  0.1249 -0.2270  0.6614
 6517SOL    HW124007   3.475   0.032   0.184 -1.4358  0.3101 -0.8263
 6517SOL    HW224008   3.585   0.127   0.226  1.5064 -3.6789  1.1831
 6518SOL     OW24009   0.288   9.380   1.185  0.6540 -0.0002  0.7525
 6518SOL    HW124010   0.300   9.332   1.268  1.1577  0.0755  0.7251
 6518SOL    HW224011   0.250   9.315   1.126  0.4400 -0.1001  0.9944
 6519SOL     OW24012   2.582   5.529   3.838 -0.4867  0.1839  0.2752
 6519SOL    HW124013   2.659   5.574   3.874  0.1278  0.3101 -1.1284
 6519SOL    HW224014   2.582   5.443   3.879  0.2798  0.2638  0.4498
 6520SOL     OW24015   3.333   5.144   1.770 -0.1132 -0.7019 -0.3861
 6520SOL    HW124016   3.336   5.070   1.831 -0.1373 -0.6337 -0.3016
 6520SOL    HW224017   3.423   5.175   1.766 -0.0629 -0.8756 -0.5941
 6521SOL     OW24018   0.089   6.833   1.016  0.1814  0.3387  0.1729
 6521SOL    HW124019   0.174   6.814   0.976  0.5382  2.9623 -0.5150
 6521SOL    HW224020   0.103   6.818   1.109  1.6665  1.3752  0.1618
 6522SOL     OW24021   0.599   5.951   0.400  0.0593  0.2125 -0.3091
 6522SOL    HW124022   0.670   5.892   0.373  0.8281 -0.1000  2.0908
 6522SOL    HW224023   0.603   6.023   0.338  1.3676 -0.6174 -1.2529
 6523SOL     OW24024   4.978   4.659   5.636 -0.1222  0.3800 -0.0362
 6523SOL    HW124025   4.889   4.693   5.634 -0.3452 -0.1326 -2.4607
 6523SOL    HW224026   5.033   4.736   5.646 -0.7540  1.1661 -1.9831
 6524SOL     OW24027   6.567   8.726   0.421  0.3023  0.3480  0.0399
 6524SOL    HW124028   6.631   8.743   0.491  2.2929  0.7339 -1.7821
 6524SOL    HW224029   6.498   8.676   0.465  1.3145  0.7971  2.3451
 6525SOL     OW24030   0.304   6.912  10.671 -0.0960 -0.2595  0.0436
 6525SOL    HW124031   0.319   6.999  10.634  0.3258  0.2456  1.3589
 6525SOL    HW224032   0.222   6.883  10.631 -1.3994  1.6458  1.1721
 6526SOL     OW24033   3.827   2.357   5.846  0.4604 -0.2050 -0.5180
 6526SOL    HW124034   3.790   2.390   5.764 -0.0577 -1.9267 -1.0070
 6526SOL    HW224035   3.910   2.318   5.821  1.2386  0.9881  0.1124
 6527SOL     OW24036   3.741   8.300   9.278  0.1857 -0.5474  0.4305
 6527SOL    HW124037   3.770   8.343   9.359 -0.2172  1.3993 -0.3893
 6527SOL    HW224038   3.749   8.207   9.296  3.7086 -0.2105  1.4134
 6528SOL     OW24039  10.006   4.081   1.014  0.3299 -0.0543  0.3809
 6528SOL    HW124040   9.972   4.145   1.077 -0.3738  0.5543 -0.5869
 6528SOL    HW224041   9.971   4.110   0.930 -1.8037 -2.9085  0.1355
 6529SOL     OW24042   1.140   5.527   0.073 -0.1194  0.3512 -0.3826
 6529SOL    HW124043   1.142   5.465  -0.000  1.3912 -0.3577  0.2237
 6529SOL    HW224044   1.218   5.507   0.124 -1.3000  0.6081  1.6301
 6530SOL     OW24045   8.376   1.832   0.800  0.2366  0.0668 -0.7765
 6530SOL    HW124046   8.409   1.920   0.819  1.0499 -0.0254 -1.6999
 6530SOL    HW224047   8.315   1.813   0.872 -0.3729  1.5978 -0.8529
 6531SOL     OW24048   3.880   0.336   6.273  0.2151  0.1104  0.0166
 6531SOL    HW124049   3.792   0.361   6.300  0.5174  0.9039  0.2944
 6531SOL    HW224050   3.870   0.307   6.183 -0.5320 -0.9912  0.4273
 6532SOL     OW24051   7.469   7.789   1.284 -0.2597  0.2260 -0.4290
 6532SOL    HW124052   7.449   7.878   1.310  1.6745  1.0042 -1.4260
 6532SOL    HW224053   7.500   7.797   1.193  0.3105 -1.4065 -0.4125
 6533SOL     OW24054   7.574   3.723  10.815  0.1735  0.0035  0.1169
 6533SOL    HW124055   7.663   3.733  10.779  0.0240  0.4410 -0.1384
 6533SOL    HW224056   7.517   3.754  10.745 -0.1512  0.3159  0.5209
 6534SOL     OW24057   7.970   4.590   7.706 -0.2540 -0.0772 -0.4039
 6534SOL    HW124058   7.923   4.661   7.663 -0.2959  0.1796  0.0552
 6534SOL    HW224059   8.058   4.626   7.721 -0.9510  0.7903  2.0072
 6535SOL     OW24060   3.562   1.930   0.611 -0.2727 -0.7892 -0.0190
 6535SOL    HW124061   3.631   1.975   0.660  0.0518 -1.6269  0.3148
 6535SOL    HW224062   3.484   1.940   0.665  0.2854 -2.5293  1.2077
 6536SOL     OW24063   1.706   2.715   0.306  0.0669  1.3949  0.1817
 6536SOL    HW124064   1.633   2.776   0.307 -1.2077 -0.0502  0.2346
 6536SOL    HW224065   1.758   2.741   0.231 -0.7473  2.1970 -0.1232
 6537SOL     OW24066   5.087   2.165   9.871  0.3280  0.0261 -0.2559
 6537SOL    HW124067   5.025   2.229   9.835 -0.8036 -0.4905  0.7024
 6537SOL    HW224068   5.102   2.194   9.961 -1.4473 -1.8795  0.7264
 6538SOL     OW24069   1.355   7.201   9.723  0.0949 -0.1319 -0.5331
 6538SOL    HW124070   1.447   7.181   9.704  0.7520 -0.7444  2.6856
 6538SOL    HW224071   1.358   7.264   9.795 -1.9163 -2.0760  1.4061
 6539SOL     OW24072   2.337   1.345   9.231  0.0197 -0.1926 -0.0196
 6539SOL    HW124073   2.358   1.372   9.142  0.5225  0.7208  0.3623
 6539SOL    HW224074   2.265   1.403   9.257 -0.3682 -0.6991  0.0488
 6540SOL     OW24075   5.342   8.118   3.137 -0.0174  0.2726 -0.1923
 6540SOL    HW124076   5.346   8.060   3.213  1.1746  1.5804  0.8126
 6540SOL    HW224077   5.354   8.061   3.061  1.1658 -0.7872  0.7535
 6541SOL     OW24078   0.186   4.865   7.562  0.4475  0.4756  0.1931
 6541SOL    HW124079   0.222   4.951   7.540  0.8564  0.2389 -0.0725
 6541SOL    HW224080   0.223   4.806   7.497 -0.2602  0.1853  0.0478
 6542SOL     OW24081   6.894   7.374   7.038  0.3975 -0.1026 -0.3445
 6542SOL    HW124082   6.805   7.375   7.002  0.4331  0.2967 -0.4187
 6542SOL    HW224083   6.945   7.325   6.973 -0.3853 -3.1857  1.1817
 6543SOL     OW24084   9.516   5.548   4.529  0.3500 -0.3467 -0.2518
 6543SOL    HW124085   9.539   5.581   4.616  1.3864  1.0915 -1.0235
 6543SOL    HW224086   9.420   5.542   4.530  0.2181  1.3125  0.4404
 6544SOL     OW24087   3.638   5.915   7.942  0.7723  0.3274 -0.2671
 6544SOL    HW124088   3.649   6.010   7.940  1.3151  0.2642 -0.5674
 6544SOL    HW224089   3.678   5.884   7.860 -0.0709 -0.0955 -0.5354
 6545SOL     OW24090   0.960   8.148   9.206 -0.5612 -0.1995  0.2200
 6545SOL    HW124091   0.869   8.171   9.187 -0.7444 -2.0879 -1.5392
 6545SOL    HW224092   0.960   8.052   9.209  1.5647 -0.3047 -1.0682
 6546SOL     OW24093   7.342   0.832   2.244 -0.3194  0.3834 -0.0724
 6546SOL    HW124094   7.360   0.813   2.152 -0.4713  1.5461 -0.3563
 6546SOL    HW224095   7.278   0.766   2.270  2.3237 -2.2470  0.2594
 6547SOL     OW24096   8.652   8.627   4.269 -0.0205 -0.6373  0.1287
 6547SOL    HW124097   8.646   8.722   4.255 -0.8718 -0.5584  0.8850
 6547SOL    HW224098   8.561   8.598   4.272  0.2404 -1.4994 -0.2139
 6548SOL     OW24099   5.884   0.942  10.432 -0.3822 -0.0333 -0.7621
 6548SOL    HW124100   5.966   0.990  10.422  0.1928 -0.8754 -0.2077
 6548SOL    HW224101   5.895   0.863  10.379 -0.5794 -0.4604 -0.1740
 6549SOL     OW24102   8.766   3.896   3.955  0.4237 -0.1803 -0.3516
 6549SOL    HW124103   8.682   3.876   3.913  0.1574 -2.3762  1.0370
 6549SOL    HW224104   8.782   3.821   4.013  0.8141  2.5359  3.3646
 6550SOL     OW24105  10.452   5.235   7.111 -0.3564 -0.1933  0.0688
 6550SOL    HW124106  10.535   5.230   7.063  0.1230 -1.2373  0.9649
 6550SOL    HW224107  10.460   5.169   7.180 -1.5387  0.3972  0.8002
 6551SOL     OW24108   0.149   2.668   5.196 -0.1587  0.2486  0.3577
 6551SOL    HW124109   0.057   2.647   5.211  0.0942 -0.3627  1.1569
 6551SOL    HW224110   0.194   2.638   5.275  0.6085  1.4067  0.3943
 6552SOL     OW24111   0.283   3.562   0.981 -0.5717  0.0192  0.2644
 6552SOL    HW124112   0.225   3.487   0.967 -1.0358  0.3601  0.3375
 6552SOL    HW224113   0.255   3.597   1.066 -0.7345  0.6108 -0.0278
 6553SOL     OW24114   2.091   8.510   6.328 -0.2939  0.0164 -0.2466
 6553SOL    HW124115   2.047   8.488   6.410  1.7655 -1.7409  0.4971
 6553SOL    HW224116   2.090   8.605   6.324  0.4101  0.2091  2.3688
 6554SOL     OW24117   1.348   4.532   6.621 -0.7430 -0.0763 -0.0303
 6554SOL    HW124118   1.272   4.508   6.675 -1.3700 -0.4411 -1.0283
 6554SOL    HW224119   1.312   4.588   6.552  0.6896  3.9818  2.2197
 6555SOL     OW24120   8.987   9.578   5.328 -0.0194  0.3530  0.4994
 6555SOL    HW124121   8.949   9.521   5.261  1.2945  0.5116 -0.4098
 6555SOL    HW224122   8.914   9.633   5.356 -0.3791  1.0215 -1.5853
 6556SOL     OW24123   7.449   5.810  10.751  0.4530  0.0724  0.1683
 6556SOL    HW124124   7.375   5.749  10.748 -0.0194  0.4642  2.2047
 6556SOL    HW224125   7.507   5.782  10.680 -0.8220 -1.3232 -0.3678
 6557SOL     OW24126   0.271   6.460   6.459 -0.0936 -0.4521  0.2093
 6557SOL    HW124127   0.278   6.551   6.430 -1.3835 -0.8132 -1.3150
 6557SOL    HW224128   0.347   6.448   6.516  0.0305  1.6074  0.5526
 6558SOL     OW24129  10.312   5.612   8.421 -0.6538 -0.3469  0.0989
 6558SOL    HW124130  10.241   5.548   8.434  1.7210 -2.9275  1.4639
 6558SOL    HW224131  10.299   5.676   8.491  0.1996 -2.7046  2.5837
 6559SOL     OW24132   7.318   9.878   4.812  0.9572  0.1556 -0.3531
 6559SOL    HW124133   7.251   9.874   4.743  1.8192  0.7411 -1.2502
 6559SOL    HW224134   7.315   9.792   4.853  0.3250 -0.1586 -1.0268
 6560SOL     OW24135   8.599   0.247   9.863  0.8392  0.3285  0.0440
 6560SOL    HW124136   8.525   0.223   9.808 -0.0537  0.4490  1.1570
 6560SOL    HW224137   8.642   0.318   9.817  1.4609 -1.0412 -1.5992
 6561SOL     OW24138   0.019   0.557   4.251 -0.3840  0.2329 -0.4038
 6561SOL    HW124139   0.060   0.503   4.318 -0.2817 -0.9951 -1.4258
 6561SOL    HW224140  -0.074   0.559   4.275  0.1158  2.8306  1.7854
 6562SOL     OW24141   8.604   9.646   8.060  0.1152  0.6786 -0.3758
 6562SOL    HW124142   8.699   9.653   8.070  0.1802  0.9739 -1.1336
 6562SOL    HW224143   8.589   9.553   8.040  0.0745  0.2873  1.2721
 6563SOL     OW24144   4.356   0.706   4.847  0.0722  0.6416 -0.0132
 6563SOL    HW124145   4.347   0.619   4.885 -0.7036  1.6100  2.1415
 6563SOL    HW224146   4.432   0.744   4.891 -0.4908  1.5793  0.1928
 6564SOL     OW24147   9.228   4.396   8.124  0.4132 -0.0400 -0.7030
 6564SOL    HW124148   9.227   4.363   8.214  0.4185  1.3536 -0.1584
 6564SOL    HW224149   9.183   4.481   8.129 -0.6664 -0.4796 -2.2575
 6565SOL     OW24150   4.841  10.042   6.682  0.2500  0.3415  0.2260
 6565SOL    HW124151   4.852  10.085   6.767 -0.6978  1.3392 -0.1288
 6565SOL    HW224152   4.840  10.114   6.619 -0.0940 -0.3059 -0.5168
 6566SOL     OW24153   4.368   9.755   0.288  0.5663  0.8419  0.2624
 6566SOL    HW124154   4.438   9.703   0.326  0.7569  2.4087  2.2233
 6566SOL    HW224155   4.323   9.793   0.364 -2.0385  0.3921 -0.9372
 6567SOL     OW24156   0.125   0.652   8.263 -0.3497 -0.3502  0.0075
 6567SOL    HW124157   0.076   0.601   8.328 -0.8004 -0.7870 -0.6707
 6567SOL    HW224158   0.101   0.614   8.179  0.9576 -0.3923 -0.3640
 6568SOL     OW24159   9.408   2.545   2.073  0.3318  0.7819 -0.2054
 6568SOL    HW124160   9.456   2.469   2.105  1.5512  1.3970 -0.5171
 6568SOL    HW224161   9.396   2.529   1.980 -1.7122 -0.2111  0.1802
 6569SOL     OW24162   9.444  10.403   1.850 -0.3173  0.4788  0.2814
 6569SOL    HW124163   9.423  10.480   1.796  0.3944  0.8174  0.4654
 6569SOL    HW224164   9.450  10.437   1.939  1.8837  0.6297  0.1404
 6570SOL     OW24165   4.568   1.692  10.464 -0.2523 -0.1412 -0.1440
 6570SOL    HW124166   4.635   1.644  10.416 -0.1845  2.2204 -2.6702
 6570SOL    HW224167   4.589   1.784  10.448 -3.4750  0.7043 -0.1941
 6571SOL     OW24168  10.466   7.168   5.094  0.3226  0.2720  0.0520
 6571SOL    HW124169  10.445   7.082   5.058 -0.0762  0.9212 -1.3013
 6571SOL    HW224170  10.386   7.196   5.139  0.8013 -0.5092  1.4751
 6572SOL     OW24171   9.246   7.503   3.579 -0.0404  0.2355 -0.1223
 6572SOL    HW124172   9.253   7.485   3.486 -0.3996  1.1510 -0.3367
 6572SOL    HW224173   9.315   7.451   3.619 -1.1944 -1.7982 -0.6571
 6573SOL     OW24174   3.458   9.828   0.131  0.0598  0.3758 -0.4737
 6573SOL    HW124175   3.511   9.754   0.102 -1.8462 -1.2303 -0.0929
 6573SOL    HW224176   3.472   9.832   0.225  1.0540  1.2842 -0.6419
 6574SOL     OW24177   5.257   0.643   9.175 -0.0257  0.2518 -0.0655
 6574SOL    HW124178   5.189   0.641   9.108  1.2666 -1.6040 -1.4264
 6574SOL    HW224179   5.239   0.567   9.231  1.6364 -1.1307 -1.2905
 6575SOL     OW24180   5.545   8.807   9.026 -0.2594  0.2460 -0.2430
 6575SOL    HW124181   5.457   8.780   9.051  0.0398 -1.1452 -0.5827
 6575SOL    HW224182   5.554   8.895   9.061 -1.5174  0.1316  0.4347
 6576SOL     OW24183   9.934   5.578   5.192 -0.4675 -0.0264  0.6384
 6576SOL    HW124184  10.018   5.620   5.171 -0.6845  0.1320  0.0580
 6576SOL    HW224185   9.893   5.636   5.255  0.5620 -0.9248  2.2068
 6577SOL     OW24186   8.211   6.808   1.215  0.4296 -0.4893  0.3637
 6577SOL    HW124187   8.292   6.763   1.189  0.4806 -0.0552 -0.2460
 6577SOL    HW224188   8.191   6.866   1.142  0.0267  0.0311  0.8773
 6578SOL     OW24189   4.280   5.806   8.409 -0.0850 -0.1485  0.6576
 6578SOL    HW124190   4.251   5.761   8.329 -2.5294  3.9017 -1.0550
 6578SOL    HW224191   4.216   5.779   8.475  0.6843 -1.8873  0.7455
 6579SOL     OW24192   7.758   6.795   1.422  0.1862 -0.2050 -0.3503
 6579SOL    HW124193   7.829   6.858   1.433 -0.9176  0.8858  0.9209
 6579SOL    HW224194   7.749   6.754   1.508  1.3267 -2.6727 -1.3001
 6580SOL     OW24195   8.002   4.930   6.866 -0.9351  0.1856  0.0430
 6580SOL    HW124196   7.934   4.867   6.841  0.6588 -1.4655 -0.3056
 6580SOL    HW224197   8.043   4.892   6.943 -1.6878  2.1910  1.5372
 6581SOL     OW24198   2.132   6.245   4.332  0.0005  0.3286 -0.8023
 6581SOL    HW124199   2.088   6.219   4.413  1.4292  0.4395  0.0464
 6581SOL    HW224200   2.200   6.306   4.360  0.0233  0.9816 -2.1906
 6582SOL     OW24201   9.463  10.450   9.728 -0.0838 -0.0636 -0.6530
 6582SOL    HW124202   9.375  10.438   9.692 -0.7218  1.3211  0.3381
 6582SOL    HW224203   9.454  10.429   9.821 -0.2014  3.1188  0.1818
 6583SOL     OW24204   6.376   6.786  10.994 -0.1205  0.1861  0.0140
 6583SOL    HW124205   6.388   6.780  11.089  0.7737  1.2953 -0.0094
 6583SOL    HW224206   6.298   6.841  10.984 -0.6660 -0.5609  0.1027
 6584SOL     OW24207   4.915  10.870   9.510 -0.1220  0.2308  0.0218
 6584SOL    HW124208   4.923  10.955   9.467  1.7106  0.7258  1.2738
 6584SOL    HW224209   4.982  10.816   9.468  0.0312 -0.0177  0.5882
 6585SOL     OW24210   7.319   4.299   0.478  1.1025  0.2532  0.4416
 6585SOL    HW124211   7.248   4.257   0.526 -0.2309  1.8245 -0.0615
 6585SOL    HW224212   7.336   4.241   0.404  0.9301 -0.5626  1.0343
 6586SOL     OW24213   2.349   9.659   9.008 -0.1663 -0.2751  0.0054
 6586SOL    HW124214   2.341   9.713   8.930 -0.4844 -0.3935 -0.0437
 6586SOL    HW224215   2.262   9.661   9.048 -0.5947 -1.9389 -0.7803
 6587SOL     OW24216   8.604   8.947   4.857  0.1519  0.4706 -0.0925
 6587SOL    HW124217   8.563   9.009   4.917 -2.0430 -1.9047  1.0528
 6587SOL    HW224218   8.541   8.936   4.786  0.7478 -0.0447 -0.5605
 6588SOL     OW24219   8.711   5.255   9.461  0.2687 -0.1423 -0.1473
 6588SOL    HW124220   8.701   5.261   9.366 -1.6913 -0.9102 -0.0577
 6588SOL    HW224221   8.744   5.340   9.488 -0.6994  0.6663 -1.3839
 6589SOL     OW24222   4.365   2.474   0.668  0.0230  0.2152 -0.3303
 6589SOL    HW124223   4.347   2.466   0.762 -0.5157 -3.3017 -0.5870
 6589SOL    HW224224   4.289   2.521   0.634 -0.2711  0.6480  0.8569
 6590SOL     OW24225   0.236   0.219   1.515 -0.4429 -0.4759 -0.3346
 6590SOL    HW124226   0.249   0.178   1.429 -0.0908 -1.9512  0.3902
 6590SOL    HW224227   0.155   0.180   1.547 -0.9005  0.5332 -0.2385
 6591SOL     OW24228   3.875   1.778   1.824 -0.3817 -0.6759  0.3785
 6591SOL    HW124229   3.840   1.833   1.754 -2.0496 -1.1731  0.7772
 6591SOL    HW224230   3.951   1.735   1.784  1.2280  2.1479  0.1947
 6592SOL     OW24231   4.067   4.706   4.710 -0.1380  0.1582 -0.0311
 6592SOL    HW124232   4.142   4.713   4.651  0.8228 -1.1937  0.9669
 6592SOL    HW224233   3.994   4.685   4.653  0.4801  0.2935 -0.8940
 6593SOL     OW24234   8.186   3.626   2.638  0.1579  0.2022  0.2150
 6593SOL    HW124235   8.128   3.626   2.563 -0.3884 -1.3459  0.6068
 6593SOL    HW224236   8.231   3.542   2.634  0.5672  0.3512  1.2749
 6594SOL     OW24237   2.891   0.994   2.955  0.3019  0.3028 -0.0556
 6594SOL    HW124238   2.962   0.989   3.020  0.1445  1.3950  0.2063
 6594SOL    HW224239   2.818   0.948   2.996  1.0561 -1.5386 -0.6420
 6595SOL     OW24240   2.595   9.770   8.665 -0.3412  0.2947  0.0570
 6595SOL    HW124241   2.669   9.723   8.702 -1.1515  0.7295  2.3702
 6595SOL    HW224242   2.538   9.702   8.630  0.1946 -0.1633  0.0618
 6596SOL     OW24243  10.756   3.786   8.235 -0.7173  0.5749  0.4282
 6596SOL    HW124244  10.786   3.850   8.171 -0.8831 -0.0203 -0.2627
 6596SOL    HW224245  10.835   3.737   8.259 -0.7984  0.2491  0.0392
 6597SOL     OW24246   7.633  10.780   3.956 -0.5544 -0.2673  0.0565
 6597SOL    HW124247   7.723  10.802   3.932 -0.1918  0.1777  1.7679
 6597SOL    HW224248   7.586  10.863   3.955 -0.6701 -0.3290  0.3302
 6598SOL     OW24249   9.893   0.047   9.818 -0.4440 -0.7267 -0.4775
 6598SOL    HW124250   9.843  -0.003   9.754  0.2620 -0.1436 -1.5120
 6598SOL    HW224251   9.846   0.130   9.826  0.0322 -0.3989 -1.0251
 6599SOL     OW24252   7.409   1.715   2.026  0.7261  0.1225 -0.0788
 6599SOL    HW124253   7.479   1.651   2.014  0.5382 -0.2625  0.7773
 6599SOL    HW224254   7.454   1.793   2.060  0.7495 -0.1416  0.5190
 6600SOL     OW24255   8.835   5.151  10.121  0.3513  0.3317  0.0543
 6600SOL    HW124256   8.744   5.153  10.090 -0.3425 -0.0484  1.9011
 6600SOL    HW224257   8.849   5.237  10.161  0.7083  0.2942  0.0145
 6601SOL     OW24258   3.323   1.597   5.355  0.5483 -0.2278 -0.5570
 6601SOL    HW124259   3.234   1.609   5.387 -0.1248 -1.1671 -1.9550
 6601SOL    HW224260   3.315   1.530   5.287  2.5649 -1.4688  0.3378
 6602SOL     OW24261   3.638   1.120   3.918 -0.2652 -0.2475 -0.8019
 6602SOL    HW124262   3.586   1.063   3.974  1.7051 -1.1218  0.2077
 6602SOL    HW224263   3.613   1.095   3.829 -3.3822  1.1111 -0.4461
 6603SOL     OW24264   9.170  10.803   4.385  0.0373 -0.6624 -0.3427
 6603SOL    HW124265   9.099  10.785   4.324 -1.3837  0.3548  0.9290
 6603SOL    HW224266   9.179  10.723   4.437 -0.4112 -0.6784 -0.2903
 6604SOL     OW24267   6.529  10.057   7.406 -0.2367  0.6308  0.1291
 6604SOL    HW124268   6.569  10.139   7.378 -0.2540  0.4354 -0.4776
 6604SOL    HW224269   6.490  10.077   7.491  0.6079  0.9887  0.4503
 6605SOL     OW24270   4.139   9.514   3.034  0.1598 -0.0899  0.2072
 6605SOL    HW124271   4.130   9.420   3.021  0.1270 -0.1122  0.3983
 6605SOL    HW224272   4.054   9.542   3.068  0.1862  0.0027  0.1981
 6606SOL     OW24273   1.448   0.435   4.240  0.8915  0.0581  0.0446
 6606SOL    HW124274   1.541   0.438   4.217  1.2005  2.2817  1.3214
 6606SOL    HW224275   1.402   0.456   4.159  1.5011 -0.5126 -0.4628
 6607SOL     OW24276   8.791   2.503   9.110  0.3555 -0.4146  0.1105
 6607SOL    HW124277   8.736   2.531   9.037 -0.2116  1.6053  1.2399
 6607SOL    HW224278   8.730   2.473   9.177  0.5109  2.0385  1.4543
 6608SOL     OW24279   9.516   0.076   6.570 -0.1347  0.8599 -0.1320
 6608SOL    HW124280   9.444   0.017   6.548  1.4251 -0.2764 -2.4923
 6608SOL    HW224281   9.491   0.112   6.656 -2.9956 -0.2231 -0.3961
 6609SOL     OW24282   1.001   3.932   7.689 -0.2256  0.1552 -0.1706
 6609SOL    HW124283   0.951   4.013   7.696  1.2619  1.2488 -1.5846
 6609SOL    HW224284   0.992   3.891   7.776 -0.4214  2.1785  0.8186
 6610SOL     OW24285   7.646   8.274  10.664  0.2426  0.4155  0.5959
 6610SOL    HW124286   7.640   8.250  10.571  0.8316 -0.3274  0.7442
 6610SOL    HW224287   7.651   8.370  10.664 -0.6083  0.4760 -0.0882
 6611SOL     OW24288   2.230   2.339   8.253 -0.2801 -0.0762 -0.4693
 6611SOL    HW124289   2.238   2.246   8.234  0.6505 -0.2432  0.6058
 6611SOL    HW224290   2.301   2.380   8.204 -0.3343 -0.0052 -0.4890
 6612SOL     OW24291   8.928   5.107   6.166 -0.0966  0.5772 -0.4290
 6612SOL    HW124292   8.990   5.175   6.144  0.3128  0.6743  0.9397
 6612SOL    HW224293   8.872   5.145   6.234  0.3952 -0.5557  0.6567
 6613SOL     OW24294   8.692   8.179   1.755  0.5356  0.4266 -0.0596
 6613SOL    HW124295   8.698   8.209   1.665  1.2494  0.9827  0.1572
 6613SOL    HW224296   8.764   8.225   1.800  0.2468  0.0923  0.7638
 6614SOL     OW24297   5.459   9.431   1.901  0.1915  0.1585 -0.5855
 6614SOL    HW124298   5.449   9.463   1.811  1.9644 -0.2981 -0.9754
 6614SOL    HW224299   5.548   9.457   1.926  0.2873 -1.1049  0.4648
 6615SOL     OW24300   5.374   0.522   4.936  0.7778  0.0640 -0.3046
 6615SOL    HW124301   5.461   0.497   4.905  0.8985 -0.4210  0.3928
 6615SOL    HW224302   5.363   0.473   5.018 -0.5509 -0.6683 -0.8826
 6616SOL     OW24303   7.198   0.446   3.538  0.0530 -0.1630  0.1344
 6616SOL    HW124304   7.259   0.380   3.571 -0.3431 -0.7298 -0.2558
 6616SOL    HW224305   7.253   0.523   3.522  0.6335 -0.6048 -0.0339
 6617SOL     OW24306   9.332   1.807  10.097  0.4892 -0.1603  0.3663
 6617SOL    HW124307   9.279   1.729  10.085 -1.0941  0.6398  1.7048
 6617SOL    HW224308   9.339   1.816  10.193  0.2320  1.5642  0.2549
 6618SOL     OW24309   7.874   1.437   0.134  0.2616  0.0909 -0.7418
 6618SOL    HW124310   7.861   1.442   0.039 -1.9877 -1.5643 -0.5964
 6618SOL    HW224311   7.786   1.443   0.171  0.6705 -2.7345  1.0143
 6619SOL     OW24312   9.795   7.952   0.018  0.0195 -0.7024  0.0825
 6619SOL    HW124313   9.848   7.998  -0.047  0.5838  0.8074  1.5196
 6619SOL    HW224314   9.733   8.017   0.050 -0.2004 -1.3686  1.0842
 6620SOL     OW24315   5.234   9.662   1.812  0.7882 -0.0490 -0.4408
 6620SOL    HW124316   5.230   9.618   1.727 -2.2423  1.4250 -1.1683
 6620SOL    HW224317   5.322   9.700   1.814  0.6083  0.7980 -3.4355
 6621SOL     OW24318   0.908   2.230   6.238 -0.0787  0.0635  0.2488
 6621SOL    HW124319   0.865   2.236   6.324  0.5973  0.0391  0.5983
 6621SOL    HW224320   0.837   2.233   6.175 -0.6614 -0.8872  0.8392
 6622SOL     OW24321   8.161  10.179  10.848  0.1632  0.0575  0.6022
 6622SOL    HW124322   8.155  10.223  10.933 -0.1299  0.3492  0.4376
 6622SOL    HW224323   8.121  10.093  10.863 -0.6152  0.3985  0.5784
 6623SOL     OW24324   7.730  10.450   7.220  0.3400 -0.5774  0.2587
 6623SOL    HW124325   7.661  10.406   7.269  0.0089 -1.2814 -0.7992
 6623SOL    HW224326   7.811  10.421   7.261  0.0111  1.2355  2.3214
 6624SOL     OW24327   1.468   7.776   9.673  0.1366  0.3600  0.0192
 6624SOL    HW124328   1.375   7.774   9.650 -0.3189 -0.1467  1.7663
 6624SOL    HW224329   1.492   7.684   9.683  0.9849  0.4610 -0.9246
 6625SOL     OW24330   3.788   3.507   3.875 -0.3324 -0.4916  0.6360
 6625SOL    HW124331   3.708   3.558   3.864 -0.4296 -0.5083  1.2458
 6625SOL    HW224332   3.791   3.487   3.969  0.3651 -0.5218  0.6109
 6626SOL     OW24333   0.948   5.379   0.347 -0.0427 -0.6194  0.4103
 6626SOL    HW124334   0.978   5.421   0.428  1.4981 -1.8711  0.5150
 6626SOL    HW224335   0.887   5.311   0.376  1.3638 -1.8234  0.6508
 6627SOL     OW24336   9.496   7.126   1.257 -0.2306 -0.1586 -0.0623
 6627SOL    HW124337   9.459   7.085   1.335  0.5083 -1.1358 -0.2059
 6627SOL    HW224338   9.562   7.187   1.291 -0.8132  0.3749  0.1225
 6628SOL     OW24339   6.276   7.659   1.318  0.0530  0.1851  0.5130
 6628SOL    HW124340   6.247   7.580   1.365 -1.3266  0.6016  0.3940
 6628SOL    HW224341   6.195   7.701   1.289  0.7758  1.5734  0.4308
 6629SOL     OW24342   8.230   3.246   5.726  0.2377  0.0668 -0.2799
 6629SOL    HW124343   8.309   3.291   5.755  0.6590 -1.2381  0.6806
 6629SOL    HW224344   8.261   3.168   5.681 -0.5053 -0.4841  0.1412
 6630SOL     OW24345   1.201  10.849   2.101 -0.0180  0.1507  0.5433
 6630SOL    HW124346   1.270  10.787   2.080  1.8135  1.5502  2.0516
 6630SOL    HW224347   1.186  10.838   2.195 -0.4203  1.2444  0.6217
 6631SOL     OW24348   9.447   5.310  10.922  0.0490 -0.0456 -0.3443
 6631SOL    HW124349   9.360   5.336  10.894 -0.9501  0.6104  2.9396
 6631SOL    HW224350   9.439   5.217  10.945  0.1706  0.0327  0.0311
 6632SOL     OW24351   2.938   9.891   5.327 -0.5944  0.0080  0.1948
 6632SOL    HW124352   2.954   9.979   5.293 -1.0034  0.5415  1.3408
 6632SOL    HW224353   2.991   9.886   5.407  1.0116 -1.5154 -0.8935
 6633SOL     OW24354  10.140   8.667   4.749  0.8838 -0.3341 -0.1884
 6633SOL    HW124355  10.048   8.639   4.748  1.2936 -1.8146  0.4611
 6633SOL    HW224356  10.166   8.668   4.657  0.4902 -0.8600 -0.3093
 6634SOL     OW24357   1.895   0.723   0.819 -0.2032  0.4411  0.4291
 6634SOL    HW124358   1.836   0.798   0.827 -1.6298 -0.5060 -0.7209
 6634SOL    HW224359   1.983   0.761   0.823 -0.8705  1.9954  1.3050
 6635SOL     OW24360   5.067   5.398   3.740  0.2170 -0.1861 -0.0166
 6635SOL    HW124361   5.031   5.364   3.822  0.2419 -1.5941 -0.5530
 6635SOL    HW224362   5.161   5.398   3.752  0.2643 -1.1453 -0.2988
 6636SOL     OW24363   8.718   6.084   4.766 -0.5532 -0.0455 -0.3801
 6636SOL    HW124364   8.644   6.050   4.717 -0.4260 -0.3168 -0.3875
 6636SOL    HW224365   8.776   6.121   4.700 -1.6145  2.0265 -0.2243
 6637SOL     OW24366   4.600  10.111  10.007 -0.4033  0.2835 -0.0787
 6637SOL    HW124367   4.551  10.175   9.955 -0.5929 -0.2648 -0.5842
 6637SOL    HW224368   4.691  10.123   9.980 -0.5349 -0.1990 -0.7716
 6638SOL     OW24369   8.665   3.121   4.308  0.0169 -0.2868 -0.2113
 6638SOL    HW124370   8.572   3.144   4.310 -0.2347 -1.1950 -0.9588
 6638SOL    HW224371   8.709   3.205   4.297 -0.7568  0.0784 -0.6260
 6639SOL     OW24372   2.494   2.589   4.668 -0.0033  0.0303  0.0240
 6639SOL    HW124373   2.471   2.679   4.690  0.4056 -0.1667  1.3339
 6639SOL    HW224374   2.419   2.557   4.618 -0.9011  0.5910  0.9750
 6640SOL     OW24375   4.121   8.016   8.642  0.3618 -0.1904  0.1436
 6640SOL    HW124376   4.095   7.928   8.615 -0.8541  0.4662 -0.9395
 6640SOL    HW224377   4.056   8.042   8.706  0.5036  0.0618  0.1889
 6641SOL     OW24378   8.462   3.188   3.190 -0.0779  0.6185  0.0779
 6641SOL    HW124379   8.529   3.199   3.123 -0.9745 -0.6188 -1.0945
 6641SOL    HW224380   8.440   3.094   3.187  1.2203  0.0720  3.4981
 6642SOL     OW24381  10.589   7.613   0.920  0.0533 -0.2486  0.0356
 6642SOL    HW124382  10.584   7.628   0.825  0.7010 -0.5397 -0.0511
 6642SOL    HW224383  10.617   7.522   0.928  1.3294  0.1659  0.4840
 6643SOL     OW24384   5.072   8.999   7.505  0.1674  0.1098 -0.2050
 6643SOL    HW124385   5.085   8.905   7.494 -2.0320 -0.2609 -0.0590
 6643SOL    HW224386   5.101   9.037   7.422 -0.1990 -0.8299 -0.7727
 6644SOL     OW24387   5.366   5.436   7.969 -0.3265 -0.3867  0.3226
 6644SOL    HW124388   5.398   5.526   7.976  2.5062 -1.1252 -1.5642
 6644SOL    HW224389   5.320   5.420   8.052 -0.0210  2.4182  1.1252
 6645SOL     OW24390   0.195   7.815   7.501 -0.4174 -0.0760  0.0148
 6645SOL    HW124391   0.152   7.760   7.436 -0.2353  0.8379 -0.9209
 6645SOL    HW224392   0.240   7.882   7.449  0.3557  0.2467  1.0600
 6646SOL     OW24393   8.942   9.594  10.262  0.0809  0.4435 -0.4137
 6646SOL    HW124394   8.906   9.581  10.174  1.5250  0.9540 -1.1087
 6646SOL    HW224395   9.037   9.593  10.249  0.3160  2.5339  0.8431
 6647SOL     OW24396   3.165   5.939   7.104 -0.2483 -0.1217  0.2616
 6647SOL    HW124397   3.229   5.984   7.159  1.1766  0.7928 -1.9773
 6647SOL    HW224398   3.127   6.008   7.050 -2.7788 -0.7455  1.1025
 6648SOL     OW24399  11.046   3.684   0.386  0.1541  0.0674  0.0043
 6648SOL    HW124400  11.030   3.639   0.470  2.4960  0.4276  0.7363
 6648SOL    HW224401  11.127   3.644   0.353  0.1627  1.0667 -1.2684
 6649SOL     OW24402   9.036   2.604   2.783 -0.0316 -0.0585  0.0085
 6649SOL    HW124403   8.990   2.581   2.703 -0.7638 -2.3528  1.0046
 6649SOL    HW224404   9.012   2.695   2.799 -2.8332 -0.6213 -0.4578
 6650SOL     OW24405   3.231   2.263   6.216  0.3241  0.2889 -0.2432
 6650SOL    HW124406   3.177   2.281   6.294  1.6708 -0.3209  0.8809
 6650SOL    HW224407   3.284   2.343   6.206  0.9973 -0.0912  0.2096
 6651SOL     OW24408   9.448   4.179   6.998 -0.5386 -0.3133 -0.2594
 6651SOL    HW124409   9.454   4.268   6.963 -1.0041 -1.4009 -3.4889
 6651SOL    HW224410   9.395   4.187   7.077 -0.3256  2.2822 -0.3087
 6652SOL     OW24411   2.290   1.654   6.075 -0.0215 -0.3573  0.8316
 6652SOL    HW124412   2.289   1.679   5.983  0.1776 -0.1922  0.8732
 6652SOL    HW224413   2.227   1.583   6.081 -0.0545 -0.3511  0.5721
 6653SOL     OW24414  10.197   4.004   5.334 -0.3357 -0.3586  0.4859
 6653SOL    HW124415  10.154   3.918   5.336  1.6722 -1.5229 -1.7045
 6653SOL    HW224416  10.157   4.049   5.260 -0.7330  0.2524  1.0663
 6654SOL     OW24417  10.812   9.306   0.532  0.6830 -0.2467  0.8268
 6654SOL    HW124418  10.887   9.291   0.474  0.5651 -0.6609  0.7715
 6654SOL    HW224419  10.769   9.220   0.537 -1.6009  0.5883 -1.7040
 6655SOL     OW24420   1.581   8.667   2.372  0.2129 -0.4925 -0.8901
 6655SOL    HW124421   1.488   8.646   2.366  0.0232  0.0919 -0.1546
 6655SOL    HW224422   1.625   8.583   2.366 -0.5271 -1.1722  1.9831
 6656SOL     OW24423   6.354   3.695   9.233  0.0862 -0.4454  0.0528
 6656SOL    HW124424   6.420   3.700   9.302 -0.7629  0.3404  0.8495
 6656SOL    HW224425   6.287   3.758   9.260 -0.7970 -0.9327 -0.9311
 6657SOL     OW24426   3.050   6.477   7.720 -0.1899 -0.5526  0.1245
 6657SOL    HW124427   3.030   6.492   7.812 -1.2202  0.0805 -0.1894
 6657SOL    HW224428   2.986   6.412   7.692 -1.0936  0.6094 -0.5919
 6658SOL     OW24429   6.302   9.334   1.257 -0.0270  0.0534 -0.1082
 6658SOL    HW124430   6.342   9.359   1.173  0.0522  1.1809  0.2536
 6658SOL    HW224431   6.220   9.384   1.260 -0.4802 -0.6820  0.0861
 6659SOL     OW24432   7.930   3.053  10.889  0.1434  0.5809 -0.1824
 6659SOL    HW124433   7.921   2.961  10.914  1.3269  0.3844 -0.4076
 6659SOL    HW224434   7.977   3.051  10.806 -1.0635  1.3487 -0.9249
 6660SOL     OW24435   7.584   7.529   9.350 -0.0022  0.1281  0.1355
 6660SOL    HW124436   7.568   7.475   9.273  1.5055 -0.1157 -0.0359
 6660SOL    HW224437   7.609   7.467   9.419  2.6951  0.5709 -0.3165
 6661SOL     OW24438   5.086   3.209   0.336  0.1726  0.0267  0.4489
 6661SOL    HW124439   5.171   3.194   0.378 -0.2152  1.0402  1.6347
 6661SOL    HW224440   5.073   3.304   0.341 -0.3811  0.0565 -1.0343
 6662SOL     OW24441   1.583   2.078   5.090  0.4171  0.4066  0.5284
 6662SOL    HW124442   1.523   2.036   5.152  1.1028  1.1972  1.7507
 6662SOL    HW224443   1.669   2.043   5.112  0.4426 -1.0674 -1.5120
 6663SOL     OW24444   0.299   8.579   2.112  0.2108  0.1731 -0.1726
 6663SOL    HW124445   0.234   8.543   2.051  0.7176 -1.6634  0.3021
 6663SOL    HW224446   0.248   8.607   2.187 -0.1147 -0.7603 -0.0260
 6664SOL     OW24447   1.691   4.090  10.015  0.3192 -0.4302  0.6609
 6664SOL    HW124448   1.773   4.128  10.047 -0.2644  1.0085  0.4719
 6664SOL    HW224449   1.709   4.067   9.924  0.1346  1.1397  0.1985
 6665SOL     OW24450   3.674  10.448   4.570 -0.2651 -0.0079  0.6060
 6665SOL    HW124451   3.586  10.410   4.578 -0.0014 -0.8275 -0.1359
 6665SOL    HW224452   3.659  10.535   4.534 -0.7633 -0.3389 -0.0289
 6666SOL     OW24453   5.397   4.133   2.211 -0.4151  0.2515  0.2841
 6666SOL    HW124454   5.432   4.180   2.135  0.1382  1.0901  1.0425
 6666SOL    HW224455   5.401   4.196   2.282 -1.8705 -0.1968  0.7960
 6667SOL     OW24456   7.303   3.697   4.684 -0.2957  0.5441  0.1479
 6667SOL    HW124457   7.398   3.688   4.698 -0.1800  0.8946 -0.3871
 6667SOL    HW224458   7.264   3.632   4.743  0.3186 -0.1979 -0.2342
 6668SOL     OW24459   8.132   3.680  10.097 -0.0640  0.5174 -0.2984
 6668SOL    HW124460   8.095   3.618  10.160  0.1583  0.8858  0.2080
 6668SOL    HW224461   8.155   3.756  10.150  2.7328 -0.2121 -0.3053
 6669SOL     OW24462   2.536   3.447   1.148 -0.3659  0.4162 -0.4574
 6669SOL    HW124463   2.511   3.393   1.074  0.5516  0.3765 -0.7611
 6669SOL    HW224464   2.520   3.393   1.225 -0.8254  0.2585 -0.6663
 6670SOL     OW24465   0.348   6.447   1.615  0.4088  0.4375 -0.3003
 6670SOL    HW124466   0.393   6.528   1.590  1.8140 -0.1016  0.3731
 6670SOL    HW224467   0.413   6.398   1.666 -0.5562 -0.9255 -0.3231
 6671SOL     OW24468  10.166   8.040   8.137 -0.6058 -0.1538 -0.1188
 6671SOL    HW124469  10.206   8.111   8.088  0.5805 -1.1686 -0.6837
 6671SOL    HW224470  10.239   7.985   8.164 -1.3925 -0.5489  1.3109
 6672SOL     OW24471  10.767   5.784   9.949  0.5615  0.3543 -0.0405
 6672SOL    HW124472  10.834   5.789  10.016  0.3757 -0.2928  0.2054
 6672SOL    HW224473  10.791   5.708   9.896  0.1779  0.2747 -0.1097
 6673SOL     OW24474   9.509   5.945   6.464 -0.6169 -0.3415  0.1562
 6673SOL    HW124475   9.479   5.912   6.549 -0.7268 -0.5983  0.0189
 6673SOL    HW224476   9.483   6.037   6.464 -1.1581 -0.4888  0.1576
 6674SOL     OW24477   6.112   5.687   7.717 -0.2570  0.5064 -0.2973
 6674SOL    HW124478   6.197   5.646   7.732 -1.2480 -1.5123  0.2070
 6674SOL    HW224479   6.116   5.769   7.765  1.8217  1.0880 -1.3167
 6675SOL     OW24480   1.026   3.845   7.954  0.0289 -0.2725  0.0109
 6675SOL    HW124481   1.066   3.871   8.037  0.4609 -1.1473  0.0904
 6675SOL    HW224482   0.949   3.794   7.979 -0.8023  0.8901 -0.1419
 6676SOL     OW24483   9.398  10.852   5.021  0.7522 -0.6690  0.3057
 6676SOL    HW124484   9.405  10.925   4.960  1.0421  0.8635  2.0543
 6676SOL    HW224485   9.487  10.820   5.032  0.4253 -2.4533 -1.7131
 6677SOL     OW24486   5.367   4.696   5.557 -0.2462  0.4837 -0.1853
 6677SOL    HW124487   5.370   4.765   5.491 -0.6478  0.4984 -0.1914
 6677SOL    HW224488   5.385   4.741   5.640  2.1702  0.1696 -0.4696
 6678SOL     OW24489   0.765   4.571   6.199 -0.2315 -0.8050 -0.3310
 6678SOL    HW124490   0.799   4.651   6.238 -1.2183 -0.4822 -0.1190
 6678SOL    HW224491   0.823   4.502   6.232  1.7985 -0.0070 -1.9905
 6679SOL     OW24492   8.160   1.261   6.719 -0.3780 -0.5008 -0.2551
 6679SOL    HW124493   8.086   1.291   6.666  0.4616  1.8665 -0.1935
 6679SOL    HW224494   8.221   1.222   6.656  0.4293  1.9159 -1.0513
 6680SOL     OW24495   4.588   1.378   7.077 -0.5093 -0.3294 -0.3260
 6680SOL    HW124496   4.669   1.337   7.109 -1.4398 -1.2003  1.0377
 6680SOL    HW224497   4.597   1.379   6.982  1.6356  0.7563 -0.1745
 6681SOL     OW24498   6.256   4.261  10.998 -0.4133  0.3694 -0.5522
 6681SOL    HW124499   6.229   4.338  11.047  0.1344 -0.0177  0.3957
 6681SOL    HW224500   6.344   4.281  10.968 -0.4038  0.2603 -0.5980
 6682SOL     OW24501   0.293   3.691   7.388  0.2646  0.2647  0.0788
 6682SOL    HW124502   0.236   3.625   7.351 -1.8466  1.3540  1.2198
 6682SOL    HW224503   0.253   3.775   7.364  1.7387  1.0935  0.3699
 6683SOL     OW24504   3.153   0.209   4.959  0.0260  0.4994 -1.1121
 6683SOL    HW124505   3.214   0.267   4.915 -0.4441  0.9346 -1.2016
 6683SOL    HW224506   3.207   0.137   4.991  0.4019  0.2577 -2.2526
 6684SOL     OW24507   5.985   2.450   1.446  0.5829 -0.0872  0.0929
 6684SOL    HW124508   5.977   2.508   1.521  0.2176 -0.8164  0.6303
 6684SOL    HW224509   6.080   2.440   1.434  0.6443  0.3324  0.2168
 6685SOL     OW24510   1.655   0.674   2.592  0.0770 -0.3738  0.1280
 6685SOL    HW124511   1.707   0.599   2.623  1.6730  0.3323 -0.7066
 6685SOL    HW224512   1.667   0.674   2.497 -2.0131 -0.5340 -0.1810
 6686SOL     OW24513   3.134   8.559   2.263 -0.4301  0.0727  0.0882
 6686SOL    HW124514   3.209   8.576   2.206  0.7286 -1.3242  1.1202
 6686SOL    HW224515   3.164   8.586   2.350 -1.5503  0.5528  0.3409
 6687SOL     OW24516   9.220   7.085  10.675  0.0610  0.8623  0.2290
 6687SOL    HW124517   9.222   6.998  10.635 -0.0463 -0.7172  3.2792
 6687SOL    HW224518   9.310   7.118  10.666 -0.5557  1.9016 -3.5788
 6688SOL     OW24519   0.883   8.317   8.463 -0.0665  0.2434 -0.4651
 6688SOL    HW124520   0.938   8.287   8.391 -0.1706 -1.3921  0.0840
 6688SOL    HW224521   0.879   8.412   8.453  1.9274  0.2952 -1.1549
 6689SOL     OW24522   7.149   0.159   2.342  0.0668 -0.4876  0.5952
 6689SOL    HW124523   7.082   0.227   2.346  1.5398  1.2196 -1.5250
 6689SOL    HW224524   7.203   0.174   2.420 -0.3610 -0.0551  0.8130
 6690SOL     OW24525   3.261   2.260   2.603  0.3045  0.2187  0.6857
 6690SOL    HW124526   3.355   2.275   2.588 -0.0645  2.0592 -0.0859
 6690SOL    HW224527   3.229   2.343   2.638 -1.4105  0.3334 -1.0175
 6691SOL     OW24528   3.077   9.061   9.735 -0.4138 -0.0559 -0.6590
 6691SOL    HW124529   2.989   9.064   9.772 -0.6407 -0.7293 -1.1148
 6691SOL    HW224530   3.119   9.142   9.764 -1.0283  0.0508 -0.0567
 6692SOL     OW24531   7.012   7.778   4.433  0.1883  0.2114  0.1450
 6692SOL    HW124532   6.964   7.710   4.386  1.0469 -0.6321  0.4698
 6692SOL    HW224533   6.964   7.789   4.515  0.2464 -0.2631  0.2451
 6693SOL     OW24534   3.576   2.931  10.294 -0.1655 -0.1726 -0.1105
 6693SOL    HW124535   3.587   3.009  10.349 -1.4984 -0.6035  0.8138
 6693SOL    HW224536   3.631   2.948  10.217  0.7664  0.9989  0.7730
 6694SOL     OW24537   4.234  10.932   8.243  0.2690 -0.0146 -0.4262
 6694SOL    HW124538   4.328  10.948   8.256 -0.0427  0.1878  1.8679
 6694SOL    HW224539   4.214  10.857   8.299 -1.1688  0.6659  0.0041
 6695SOL     OW24540   8.136   7.383   5.534  0.5325 -0.5989  0.3418
 6695SOL    HW124541   8.051   7.377   5.578  0.9621 -1.2412  1.1228
 6695SOL    HW224542   8.199   7.399   5.605  1.0347  0.1773 -0.2599
 6696SOL     OW24543   0.744  10.511   5.269 -0.5191 -0.2524 -0.1685
 6696SOL    HW124544   0.774  10.473   5.186  0.1628 -1.6579  0.6965
 6696SOL    HW224545   0.684  10.446   5.305 -0.7004  0.2830  0.5109
 6697SOL     OW24546   6.693   7.650   2.241 -0.1941 -0.5261  0.0324
 6697SOL    HW124547   6.717   7.699   2.162 -1.5180  0.2122  0.0448
 6697SOL    HW224548   6.767   7.662   2.301 -0.5372  1.6733  0.1116
 6698SOL     OW24549   3.540  10.417   7.276  0.1983 -0.0997  0.1041
 6698SOL    HW124550   3.534  10.330   7.238  1.5317 -0.0834 -0.1716
 6698SOL    HW224551   3.495  10.409   7.361 -0.0477 -0.9324 -0.0950
 6699SOL     OW24552   9.418   6.495   1.997  0.3580 -0.6719  0.1995
 6699SOL    HW124553   9.475   6.420   2.010 -0.2722 -1.6125 -1.9375
 6699SOL    HW224554   9.457   6.542   1.923 -1.2668 -1.0382 -0.9511
 6700SOL     OW24555  10.701   9.570   2.401  0.2582 -0.5375 -0.0826
 6700SOL    HW124556  10.610   9.576   2.372  0.7787 -0.6324 -1.8266
 6700SOL    HW224557  10.733   9.660   2.399  0.7142 -0.7165 -1.2502
 6701SOL     OW24558   2.092   2.317   6.421  0.1585  0.5363  0.3813
 6701SOL    HW124559   2.181   2.345   6.401  0.1874  2.8892  3.1366
 6701SOL    HW224560   2.103   2.242   6.479  0.3705  0.7200  0.5834
 6702SOL     OW24561   4.352   8.582   0.716 -0.4685  0.0936 -0.1947
 6702SOL    HW124562   4.352   8.629   0.799 -3.0247  1.5374 -0.8921
 6702SOL    HW224563   4.414   8.629   0.661  0.6150 -0.3684  0.6081
 6703SOL     OW24564   6.377   0.015   8.490  0.1201  0.0954  0.3977
 6703SOL    HW124565   6.350  -0.068   8.528  0.2440 -0.3770 -0.5323
 6703SOL    HW224566   6.468   0.000   8.462 -0.6012 -0.2692 -1.9923
 6704SOL     OW24567   6.378   4.549   9.888 -0.1242 -0.4495  0.6483
 6704SOL    HW124568   6.349   4.498   9.813 -1.0941  0.3113  0.4767
 6704SOL    HW224569   6.311   4.617   9.898  0.3672 -0.0976  1.7551
 6705SOL     OW24570   9.484   6.888   9.728 -0.0478  0.5041 -0.1283
 6705SOL    HW124571   9.487   6.894   9.824 -1.3442  0.4435 -0.0582
 6705SOL    HW224572   9.391   6.896   9.707  0.1418 -0.2446 -1.3401
 6706SOL     OW24573   3.228   8.621   6.179  0.0584 -0.0443  0.2814
 6706SOL    HW124574   3.292   8.634   6.110  1.0189 -0.6916  1.0360
 6706SOL    HW224575   3.208   8.528   6.177  1.4510 -0.4286  2.0138
 6707SOL     OW24576   2.787   5.933   9.619  0.2563  0.2036  0.2896
 6707SOL    HW124577   2.851   6.003   9.631  1.9751 -1.1853 -0.2326
 6707SOL    HW224578   2.837   5.853   9.638 -1.6166 -0.8941  0.8133
 6708SOL     OW24579   1.280   9.372   0.430  0.3587 -0.0361  0.6179
 6708SOL    HW124580   1.245   9.287   0.454  2.5564 -0.8795  1.0774
 6708SOL    HW224581   1.369   9.372   0.465  0.7358  2.0882 -0.1883
 6709SOL     OW24582   9.594  11.061   0.151  0.0084 -0.7084  0.4536
 6709SOL    HW124583   9.551  11.033   0.232 -1.4003  0.8560  0.3061
 6709SOL    HW224584   9.523  11.066   0.087  0.3113  1.9548  0.2000
 6710SOL     OW24585   2.274   7.626   0.383 -0.5374  0.2408 -0.1963
 6710SOL    HW124586   2.221   7.647   0.307  1.1386  0.2897 -1.4217
 6710SOL    HW224587   2.294   7.533   0.375  0.9556  0.5779 -0.7270
 6711SOL     OW24588   6.883  10.728   5.775  0.1377  0.3562  0.5286
 6711SOL    HW124589   6.968  10.705   5.812  0.8707  1.8905 -0.1033
 6711SOL    HW224590   6.878  10.680   5.692  1.1374  1.4859 -0.2228
 6712SOL     OW24591   8.384   6.305   4.716  0.2048 -0.3071  0.2300
 6712SOL    HW124592   8.410   6.216   4.689 -1.6923 -1.4895  2.0084
 6712SOL    HW224593   8.432   6.319   4.798 -1.1436 -0.6209  1.0974
 6713SOL     OW24594   2.914   0.270   8.619 -0.0243 -0.0116 -0.4224
 6713SOL    HW124595   2.926   0.341   8.682  0.9038 -1.8608  1.5808
 6713SOL    HW224596   2.962   0.300   8.541 -0.1849  1.7916  0.1163
 6714SOL     OW24597   0.084   4.956   4.993 -0.4229  0.0849 -0.1914
 6714SOL    HW124598   0.054   4.884   4.938 -2.5693 -0.1249  1.1320
 6714SOL    HW224599   0.012   5.019   4.992 -0.0315  0.6127  1.3903
 6715SOL     OW24600   6.257   7.309   9.240 -0.7496  0.2132  0.4552
 6715SOL    HW124601   6.253   7.232   9.184  1.5878 -0.9314  1.6868
 6715SOL    HW224602   6.312   7.371   9.193 -0.4420  0.0645  0.6210
 6716SOL     OW24603   6.764   2.508   2.207  0.2542  0.3855 -0.3992
 6716SOL    HW124604   6.683   2.516   2.156 -1.6907 -1.5279  2.1839
 6716SOL    HW224605   6.737   2.521   2.298  2.8720 -0.2732  0.5573
 6717SOL     OW24606   8.395   0.799   3.868 -0.1317  0.0415  0.0956
 6717SOL    HW124607   8.405   0.716   3.914 -0.4647  0.1944  0.4501
 6717SOL    HW224608   8.306   0.796   3.833  0.6651 -0.7932 -2.0024
 6718SOL     OW24609   4.016   4.664   2.009 -0.4673 -0.4007  0.0606
 6718SOL    HW124610   4.050   4.728   2.072  0.1175  0.8413 -1.4452
 6718SOL    HW224611   3.929   4.698   1.986 -0.4927 -0.5890 -0.1226
 6719SOL     OW24612  10.073   1.260   2.706  0.1159 -0.2044 -0.8662
 6719SOL    HW124613  10.110   1.299   2.626  2.1457  0.8915  0.4964
 6719SOL    HW224614  10.007   1.323   2.734  0.7671  0.3964 -0.6579
 6720SOL     OW24615   0.354   7.602   2.725  0.0441 -0.2294  0.1569
 6720SOL    HW124616   0.318   7.668   2.784 -1.0891  0.2679 -1.0504
 6720SOL    HW224617   0.449   7.606   2.739 -0.0292  1.4946  0.2922
 6721SOL     OW24618   5.742   6.845   3.492 -0.3670 -0.0173 -0.0087
 6721SOL    HW124619   5.823   6.875   3.532 -1.1657  1.9324  0.2815
 6721SOL    HW224620   5.718   6.767   3.542 -0.3596  1.2735  2.1338
 6722SOL     OW24621   6.506   5.295   8.000  0.3623  0.0178 -0.6391
 6722SOL    HW124622   6.503   5.221   7.940 -2.2759 -0.2130 -0.3105
 6722SOL    HW224623   6.462   5.264   8.079 -0.3215  1.7547 -0.2946
 6723SOL     OW24624   4.574   4.052   9.194 -0.9092 -0.1609 -0.3596
 6723SOL    HW124625   4.610   4.135   9.224 -1.4090  0.1487 -0.6047
 6723SOL    HW224626   4.619   4.034   9.111  2.1017 -2.0990  1.4895
 6724SOL     OW24627   5.938   5.416   2.035 -0.2824  0.2681 -0.4058
 6724SOL    HW124628   5.943   5.397   1.941  0.1546 -1.7050 -0.0262
 6724SOL    HW224629   6.027   5.445   2.058 -0.4251  0.8851 -0.6081
 6725SOL     OW24630   8.521   3.965   8.109 -0.1117 -0.1462 -0.1149
 6725SOL    HW124631   8.496   3.914   8.186 -0.3547 -1.8785 -1.2766
 6725SOL    HW224632   8.579   3.906   8.060  1.6617  1.6559 -0.3001
 6726SOL     OW24633  10.986   9.298   3.607 -0.3359  0.6262 -0.1791
 6726SOL    HW124634  10.978   9.243   3.529 -0.2103  0.7029 -0.2459
 6726SOL    HW224635  10.933   9.375   3.588  0.3464  1.0250 -0.5261
 6727SOL     OW24636   6.410   9.902  10.820 -0.2070 -0.1734 -0.2521
 6727SOL    HW124637   6.444   9.909  10.731 -0.8385  1.2158 -0.4121
 6727SOL    HW224638   6.479   9.938  10.876  0.1227 -0.8955 -0.1870
 6728SOL     OW24639   6.869   6.602   0.482 -0.0821 -0.2041 -0.2378
 6728SOL    HW124640   6.810   6.621   0.555  0.5594 -1.4646  0.6544
 6728SOL    HW224641   6.917   6.683   0.467 -0.7425  0.2859  0.2458
 6729SOL     OW24642   2.129   6.185  10.815  0.4984  0.5833 -0.3882
 6729SOL    HW124643   2.127   6.112  10.877  1.3575  0.0477 -0.9661
 6729SOL    HW224644   2.222   6.206  10.807  0.3782  0.8003 -1.3141
 6730SOL     OW24645   9.076   8.849   4.476 -0.4374 -0.1074  0.3341
 6730SOL    HW124646   9.073   8.944   4.463 -1.2417 -0.2786 -0.9530
 6730SOL    HW224647   8.995   8.829   4.523 -0.1672 -0.1370  0.7891
 6731SOL     OW24648   0.384   0.504   9.177 -0.0867 -0.3670  0.2741
 6731SOL    HW124649   0.337   0.492   9.260 -0.5687 -0.2477  0.0206
 6731SOL    HW224650   0.476   0.498   9.201 -0.2216 -0.2641  0.8321
 6732SOL     OW24651   3.222   4.869   5.722  0.0299 -0.5350  0.5288
 6732SOL    HW124652   3.171   4.858   5.802 -0.8111 -0.3685  0.0258
 6732SOL    HW224653   3.163   4.915   5.662  0.0094 -2.2074 -0.7917
 6733SOL     OW24654   9.690   4.452   0.619  0.2995 -0.3919 -0.3037
 6733SOL    HW124655   9.644   4.368   0.611  0.3895 -0.4670 -0.0570
 6733SOL    HW224656   9.651   4.507   0.551  0.7525 -0.8604 -0.9584
 6734SOL     OW24657   7.910   3.380   8.279  0.6364 -0.2107  0.0510
 6734SOL    HW124658   7.897   3.473   8.298 -1.5973 -0.2995 -0.6912
 6734SOL    HW224659   7.994   3.376   8.234  0.7262  1.4697 -0.0009
 6735SOL     OW24660   6.382   3.067   4.908 -0.2010 -0.4744  0.4017
 6735SOL    HW124661   6.475   3.051   4.892 -0.4862 -0.7022 -1.2111
 6735SOL    HW224662   6.360   3.141   4.850 -1.1069 -0.6833  0.4658
 6736SOL     OW24663   8.560   5.140   8.362  0.4195  0.0264 -0.0856
 6736SOL    HW124664   8.640   5.098   8.394  0.1180 -0.8739 -0.4847
 6736SOL    HW224665   8.513   5.167   8.441 -0.7338 -2.9551  0.3722
 6737SOL     OW24666   0.859   1.933   7.368 -0.2837 -0.1177  0.1892
 6737SOL    HW124667   0.764   1.927   7.361 -0.2384 -0.1088 -0.5550
 6737SOL    HW224668   0.881   2.018   7.329 -0.0745  0.4917  1.5850
 6738SOL     OW24669  10.523   9.895   3.284 -0.2078  0.2607 -0.2869
 6738SOL    HW124670  10.480   9.971   3.245  0.1533 -0.8619 -3.1814
 6738SOL    HW224671  10.594   9.931   3.337 -0.5847  1.9459 -0.8822
 6739SOL     OW24672   2.654   0.955   1.135  0.1324  0.2590  0.0416
 6739SOL    HW124673   2.704   0.914   1.206  1.4062  0.4225 -0.7384
 6739SOL    HW224674   2.715   1.019   1.097  0.4947 -1.7004 -2.9751
 6740SOL     OW24675   0.571   0.810   0.149  0.1840  0.1901 -0.2039
 6740SOL    HW124676   0.493   0.829   0.098  0.8127  0.8293 -0.9552
 6740SOL    HW224677   0.600   0.725   0.118  0.6100  0.6113 -0.9993
 6741SOL     OW24678   2.311   3.697   5.102 -0.3514 -0.5050  0.3751
 6741SOL    HW124679   2.261   3.644   5.164 -0.5541 -0.5439  0.1803
 6741SOL    HW224680   2.245   3.741   5.049 -0.1862 -1.0600 -0.3144
 6742SOL     OW24681   6.814   4.263   5.558  0.3096 -0.6718 -0.1458
 6742SOL    HW124682   6.875   4.199   5.595 -1.3996 -1.8873  0.7298
 6742SOL    HW224683   6.742   4.209   5.523 -2.3042  0.7231  2.6003
 6743SOL     OW24684   1.549   6.399   0.838  0.1060  0.7407 -0.1423
 6743SOL    HW124685   1.593   6.413   0.754  0.1681  0.4080 -0.1640
 6743SOL    HW224686   1.595   6.457   0.899  2.4671 -1.6169  0.5036
 6744SOL     OW24687   3.906   6.203   5.505 -0.0239  0.1588 -0.0175
 6744SOL    HW124688   3.874   6.114   5.511  1.9599 -0.5562  0.8636
 6744SOL    HW224689   3.867   6.248   5.581 -0.7577 -0.0386 -0.2733
 6745SOL     OW24690   5.559  10.768   6.598  0.5556  0.2123  0.0906
 6745SOL    HW124691   5.561  10.749   6.692  1.1626 -0.7693 -0.1081
 6745SOL    HW224692   5.480  10.724   6.566  0.7382 -0.0646  0.0192
 6746SOL     OW24693   1.401   5.357   6.170 -0.3353  0.3204 -0.7311
 6746SOL    HW124694   1.371   5.375   6.259 -0.5857 -1.7722 -0.3290
 6746SOL    HW224695   1.497   5.355   6.178 -0.3122  1.1873 -0.7452
 6747SOL     OW24696   6.641   6.705   5.934  0.9441 -0.2716  0.2871
 6747SOL    HW124697   6.607   6.795   5.935  0.9516 -0.2661  1.4698
 6747SOL    HW224698   6.568   6.651   5.964  0.5968 -0.8133 -1.4338
 6748SOL     OW24699  10.391   1.267   4.158 -0.0050  0.4128  0.1007
 6748SOL    HW124700  10.371   1.234   4.071 -2.3992 -1.0846  1.1292
 6748SOL    HW224701  10.390   1.362   4.149 -0.1930  0.2810 -1.4742
 6749SOL     OW24702  10.856  10.393   0.244 -0.0800 -0.9265  0.1922
 6749SOL    HW124703  10.833  10.453   0.173 -0.8259 -0.6664  0.6466
 6749SOL    HW224704  10.909  10.444   0.304  1.9291 -1.5767 -0.9476
 6750SOL     OW24705   2.219   2.507   5.863  0.1725 -0.3819 -0.5570
 6750SOL    HW124706   2.206   2.420   5.900 -1.0690 -0.3184 -0.8021
 6750SOL    HW224707   2.241   2.490   5.771  1.4420 -0.4713 -0.2574
 6751SOL     OW24708   2.637   5.845  10.469 -0.1179 -0.1603  0.1214
 6751SOL    HW124709   2.614   5.883  10.384  0.3654 -0.0317  0.0437
 6751SOL    HW224710   2.649   5.921  10.527  1.4915 -0.1313 -0.1931
 6752SOL     OW24711   4.585   1.746   2.554  0.0961 -0.2543 -0.0227
 6752SOL    HW124712   4.679   1.750   2.535  0.1016  0.8573  0.1591
 6752SOL    HW224713   4.579   1.772   2.646 -0.3147 -1.2885  0.2585
 6753SOL     OW24714   5.479   7.778   0.794  0.1707  0.3100 -0.2677
 6753SOL    HW124715   5.496   7.765   0.887  0.5020 -1.8930 -0.5779
 6753SOL    HW224716   5.464   7.690   0.760  0.2159  1.0516 -2.3421
 6754SOL     OW24717  10.840   7.327   8.750 -1.3172 -0.4944  0.0803
 6754SOL    HW124718  10.832   7.306   8.843 -0.2764  0.2775  0.3595
 6754SOL    HW224719  10.925   7.291   8.724 -0.5083  1.3280  0.0385
 6755SOL     OW24720   8.685   7.886   4.490  0.0387 -0.0660 -0.6518
 6755SOL    HW124721   8.720   7.812   4.540  0.1352  1.1473  1.1967
 6755SOL    HW224722   8.604   7.853   4.450  0.6969 -1.4798 -0.8585
 6756SOL     OW24723   9.191   6.567   0.110 -0.0599 -0.0559 -0.2034
 6756SOL    HW124724   9.153   6.529   0.189 -0.6905  1.3133  0.1887
 6756SOL    HW224725   9.136   6.537   0.039 -0.6457  0.2463  0.1184
 6757SOL     OW24726   3.051  11.052  10.978 -0.6868  0.6263 -0.4490
 6757SOL    HW124727   2.975  11.000  11.002  0.1472 -0.2119  0.4833
 6757SOL    HW224728   3.020  11.143  10.976 -1.9370  0.1981 -1.1344
 6758SOL     OW24729   5.808   0.616   8.122 -0.3012  0.9457  0.0535
 6758SOL    HW124730   5.834   0.705   8.098 -2.1010  1.0701 -1.6174
 6758SOL    HW224731   5.870   0.560   8.075  0.9528  1.2476  1.2502
 6759SOL     OW24732   0.630   0.547   9.301 -0.1299  0.3473  0.3582
 6759SOL    HW124733   0.598   0.519   9.387 -1.2780  1.9315  0.4979
 6759SOL    HW224734   0.692   0.618   9.321 -0.6997  0.9913 -0.1179
 6760SOL     OW24735   2.931   6.818  10.414  0.6060  0.4902 -0.2683
 6760SOL    HW124736   2.860   6.764  10.379  0.6104  0.2897  0.0293
 6760SOL    HW224737   2.891   6.904  10.427 -0.0908 -0.0714  1.5996
 6761SOL     OW24738   6.952   7.557   2.470  0.3243 -0.1605  0.6290
 6761SOL    HW124739   7.002   7.559   2.389 -0.9081  0.4648 -0.1596
 6761SOL    HW224740   6.966   7.469   2.505 -0.0140 -0.8365 -0.8628
 6762SOL     OW24741   7.303   6.602   8.997 -0.2525  0.2946  0.0113
 6762SOL    HW124742   7.235   6.556   8.947 -0.4954  1.7000 -1.0239
 6762SOL    HW224743   7.275   6.596   9.088 -2.5093  1.9088 -0.4855
 6763SOL     OW24744   6.290   8.517   8.527  0.1129 -0.6970 -0.2926
 6763SOL    HW124745   6.230   8.519   8.601 -0.1918 -0.8035 -0.5350
 6763SOL    HW224746   6.280   8.429   8.490 -0.8645 -0.1575 -1.3754
 6764SOL     OW24747   1.906   9.142   5.878  0.4089 -0.7873 -0.0614
 6764SOL    HW124748   1.921   9.052   5.849  1.7706 -1.0187  1.2683
 6764SOL    HW224749   1.837   9.174   5.819  0.4789 -2.4077 -1.1032
 6765SOL     OW24750   5.148   0.753   7.060 -0.0151  0.2399 -0.4351
 6765SOL    HW124751   5.169   0.818   7.126 -1.0678  0.1758 -0.0198
 6765SOL    HW224752   5.231   0.736   7.016  0.4603  1.1502  0.0832
 6766SOL     OW24753   9.671   5.527   2.222 -0.0632 -0.1101 -0.1840
 6766SOL    HW124754   9.740   5.592   2.234  0.1756 -0.6476  1.6286
 6766SOL    HW224755   9.613   5.566   2.156  0.5267  1.5496  0.2220
 6767SOL     OW24756   1.718  11.018  10.019  0.6446  0.3597  0.0875
 6767SOL    HW124757   1.768  11.019  10.100  0.1366  0.8395  0.4007
 6767SOL    HW224758   1.647  11.080  10.033 -0.1125 -0.3854 -0.3085
 6768SOL     OW24759   6.790   0.293   3.383  0.1231  0.1540 -0.1877
 6768SOL    HW124760   6.877   0.253   3.377  0.1661  0.4344 -1.9336
 6768SOL    HW224761   6.800   0.360   3.451  2.3150  2.5492 -2.6242
 6769SOL     OW24762   5.989   7.547   0.023 -0.3345 -0.1362 -0.1213
 6769SOL    HW124763   6.021   7.627   0.067  0.9152 -1.6240  1.8571
 6769SOL    HW224764   6.046   7.537  -0.053 -0.5859  0.9036 -0.4658
 6770SOL     OW24765   8.032   6.990   3.741  0.2855 -0.0389 -0.1285
 6770SOL    HW124766   7.983   6.929   3.685 -1.0731  0.9686 -0.0912
 6770SOL    HW224767   8.118   6.950   3.751  0.8449  0.0943 -3.5196
 6771SOL     OW24768   2.802  10.819   8.815  0.4755  0.7449  0.0553
 6771SOL    HW124769   2.882  10.814   8.869  0.1570 -1.6040  0.3946
 6771SOL    HW224770   2.757  10.897   8.847  0.5401 -0.2874  2.9448
 6772SOL     OW24771   2.445   2.108   3.582 -0.8294 -0.1946 -0.4497
 6772SOL    HW124772   2.408   2.166   3.516 -2.9492 -0.9839 -0.0403
 6772SOL    HW224773   2.452   2.163   3.661  2.7423  1.0706 -1.4340
 6773SOL     OW24774   1.453   1.750  10.676 -0.4351 -0.5221 -0.4229
 6773SOL    HW124775   1.403   1.739  10.595 -1.0281  2.1521 -0.5087
 6773SOL    HW224776   1.544   1.734  10.650 -0.6957 -0.3953 -1.4546
 6774SOL     OW24777   8.025   3.549  10.351  0.2527 -0.4238  0.0511
 6774SOL    HW124778   7.996   3.462  10.376 -2.0795  0.5953  1.1699
 6774SOL    HW224779   8.077   3.580  10.425  1.1382 -0.8390 -0.3740
 6775SOL     OW24780   7.467   4.352   9.967 -0.4845 -0.4444  1.1105
 6775SOL    HW124781   7.495   4.443   9.952 -1.2739  0.0908  2.6602
 6775SOL    HW224782   7.375   4.359   9.991 -0.4753 -1.6184  1.5472
 6776SOL     OW24783   4.518   8.629   5.519 -0.4210 -0.1377 -0.7267
 6776SOL    HW124784   4.423   8.625   5.532 -0.6370  1.5633 -1.5228
 6776SOL    HW224785   4.529   8.614   5.425  0.1234 -0.5082 -0.6040
 6777SOL     OW24786   9.818   0.325   6.959 -0.7265  0.2680  0.3439
 6777SOL    HW124787   9.728   0.356   6.947  0.2253  2.5720 -1.5890
 6777SOL    HW224788   9.869   0.403   6.977  0.9291 -1.0078  1.5180
 6778SOL     OW24789   4.452  11.036   1.783 -0.5628 -0.0204 -0.3458
 6778SOL    HW124790   4.448  11.073   1.694  1.9403  0.8013 -0.1807
 6778SOL    HW224791   4.506  10.958   1.774  0.1331  0.3484  0.5421
 6779SOL     OW24792   1.708   0.456  10.634 -0.4872 -0.2146  0.0813
 6779SOL    HW124793   1.680   0.525  10.693  0.8185  0.8579 -0.5034
 6779SOL    HW224794   1.629   0.405  10.617 -2.1536  2.6801 -1.5724
 6780SOL     OW24795   3.025   8.130   7.353  0.1246  0.4468  0.3886
 6780SOL    HW124796   3.120   8.122   7.346 -0.0858 -2.0601 -0.7395
 6780SOL    HW224797   3.009   8.143   7.446  1.5037 -1.1950  0.9164
 6781SOL     OW24798   7.287   5.261   0.134  0.6686 -0.2227 -0.6319
 6781SOL    HW124799   7.261   5.169   0.143 -0.4742  0.2196  1.1696
 6781SOL    HW224800   7.210   5.303   0.096  0.3222  0.3428  0.6311
 6782SOL     OW24801   2.102  10.986   4.081  0.1841 -0.1171  0.1006
 6782SOL    HW124802   2.010  10.960   4.077 -0.0737  0.8817 -0.8319
 6782SOL    HW224803   2.137  10.938   4.156 -1.1243 -0.3922  0.5574
 6783SOL     OW24804   5.434   9.054   2.570  0.3166 -0.1648  0.6649
 6783SOL    HW124805   5.415   9.105   2.648  0.7053  1.1488 -0.0695
 6783SOL    HW224806   5.444   9.119   2.500 -2.4910 -1.3952 -1.0481
 6784SOL     OW24807   2.037   9.860   5.507 -0.1182  0.1318 -0.3243
 6784SOL    HW124808   1.945   9.836   5.496  0.2804 -1.5513 -0.2415
 6784SOL    HW224809   2.077   9.843   5.422  0.2621  0.0885 -0.1403
 6785SOL     OW24810   1.147   2.590   0.645  0.3601 -0.6148  0.0530
 6785SOL    HW124811   1.119   2.500   0.633 -1.9527 -0.0528  0.8025
 6785SOL    HW224812   1.066   2.641   0.644  1.4795  1.3025  0.9996
 6786SOL     OW24813   7.794   2.650   4.926  0.3223 -0.6209  0.4339
 6786SOL    HW124814   7.761   2.736   4.900  0.8445 -0.3639  0.6262
 6786SOL    HW224815   7.774   2.594   4.851 -1.0500 -0.6027  0.7560
 6787SOL     OW24816   8.862   1.320   9.214  0.2819  0.3444 -0.2594
 6787SOL    HW124817   8.878   1.407   9.177  1.9417  0.0262 -0.3773
 6787SOL    HW224818   8.897   1.325   9.303 -0.8884  0.1940  0.2207
 6788SOL     OW24819   0.320   1.685   4.404  0.2341 -0.7135 -0.5216
 6788SOL    HW124820   0.395   1.732   4.369 -1.0875  0.4576 -1.9156
 6788SOL    HW224821   0.269   1.751   4.450 -1.5664 -0.7036 -2.3697
 6789SOL     OW24822   9.766   1.989   4.713  0.3724  0.3106  0.6613
 6789SOL    HW124823   9.758   2.075   4.755  1.1095 -0.5172  2.5833
 6789SOL    HW224824   9.854   1.959   4.736  0.8967 -0.1312 -1.6712
 6790SOL     OW24825  10.305   3.516   7.264 -0.2161  0.4733 -0.5239
 6790SOL    HW124826  10.221   3.489   7.300 -0.1395  1.9171  0.8873
 6790SOL    HW224827  10.370   3.482   7.325  0.2753 -0.8390 -1.7332
 6791SOL     OW24828   9.754   6.876   7.854 -0.1895 -0.0164  0.6301
 6791SOL    HW124829   9.728   6.924   7.932  0.3809 -1.3836  1.6967
 6791SOL    HW224830   9.848   6.890   7.847 -0.0218 -0.9544  0.9414
 6792SOL     OW24831   8.787   7.686   6.602  0.0591 -0.2992 -0.4194
 6792SOL    HW124832   8.796   7.663   6.695 -0.6495  0.3116 -0.1780
 6792SOL    HW224833   8.733   7.765   6.604 -1.2079 -1.1047 -1.4318
 6793SOL     OW24834   7.959   0.793  10.493 -0.0389 -0.1027 -0.1038
 6793SOL    HW124835   7.896   0.725  10.473 -0.3403 -0.2223  1.1631
 6793SOL    HW224836   7.969   0.842  10.411 -2.0806  0.1716 -0.2374
 6794SOL     OW24837   3.198   7.421   4.863 -0.3566 -0.3299  0.4615
 6794SOL    HW124838   3.105   7.397   4.865 -0.4239 -0.0285  1.0060
 6794SOL    HW224839   3.213   7.450   4.773 -0.6004 -1.1206  0.1620
 6795SOL     OW24840   7.841   4.036   7.601  0.6383  0.6312  0.0957
 6795SOL    HW124841   7.757   4.051   7.557  0.2419 -1.7904 -0.1466
 6795SOL    HW224842   7.905   4.074   7.541 -0.2108  1.9284 -0.0448
 6796SOL     OW24843  10.181   3.857   9.608  0.1313  0.1580  0.0593
 6796SOL    HW124844  10.183   3.762   9.613 -0.7787  0.1806  1.1916
 6796SOL    HW224845  10.097   3.882   9.646  0.9052  1.4764  1.0134
 6797SOL     OW24846   2.790  10.858   6.945 -0.0254  0.6438  0.0979
 6797SOL    HW124847   2.735  10.780   6.955 -1.2419  1.3871 -0.5030
 6797SOL    HW224848   2.730  10.925   6.912  1.4917  1.1957 -1.6974
 6798SOL     OW24849   5.065   1.414   6.207  0.5415 -0.4653 -0.1412
 6798SOL    HW124850   5.001   1.344   6.195  0.7876 -0.3766 -2.5355
 6798SOL    HW224851   5.072   1.424   6.302 -1.7137 -1.6164  0.2201
 6799SOL     OW24852   2.028   4.735   9.543 -0.2808 -0.2618  0.1200
 6799SOL    HW124853   1.986   4.808   9.589  2.1517 -0.2975  2.5987
 6799SOL    HW224854   2.023   4.661   9.603 -0.7370 -1.5892 -1.4615
 6800SOL     OW24855   6.586   5.948   0.672  0.3325 -0.0402  0.3437
 6800SOL    HW124856   6.537   5.935   0.591  0.3009 -0.4965  0.4371
 6800SOL    HW224857   6.572   5.869   0.722 -0.1881  0.5151  1.0881
 6801SOL     OW24858  10.940   0.201   4.636  0.2495  0.0467  0.0077
 6801SOL    HW124859  10.888   0.217   4.557  0.9796  0.7544 -0.3389
 6801SOL    HW224860  10.885   0.143   4.689  0.3204 -1.6608 -1.6462
 6802SOL     OW24861   8.753   2.591   0.922 -0.4410  0.4207 -0.2259
 6802SOL    HW124862   8.753   2.554   1.010 -0.2384  0.4896 -0.1956
 6802SOL    HW224863   8.797   2.676   0.931 -0.7353  0.5829 -0.3295
 6803SOL     OW24864   4.223   2.981   8.924  0.4792  0.2285  0.0180
 6803SOL    HW124865   4.212   2.932   8.842  0.1995  0.5249 -0.1273
 6803SOL    HW224866   4.278   3.056   8.899 -1.2156  1.4181 -0.3763
 6804SOL     OW24867   8.166   5.652   2.010 -0.6178 -0.7224 -0.0049
 6804SOL    HW124868   8.229   5.643   2.082 -1.5111 -1.4484  0.7227
 6804SOL    HW224869   8.168   5.567   1.966 -0.6808 -0.5602 -0.3228
 6805SOL     OW24870   8.111   1.639   0.768  0.2463  0.1751  0.2678
 6805SOL    HW124871   8.167   1.678   0.700 -0.2802 -0.4735 -0.5627
 6805SOL    HW224872   8.022   1.658   0.739  0.0109  0.8053  1.3446
 6806SOL     OW24873   3.186   4.752  11.039 -0.0555  0.3565  0.0332
 6806SOL    HW124874   3.227   4.674  11.077 -0.0372  0.3491 -0.0014
 6806SOL    HW224875   3.241   4.825  11.068 -1.7622  0.7453  2.6615
 6807SOL     OW24876   3.225   1.954   1.115 -0.0742  0.8603 -0.0841
 6807SOL    HW124877   3.219   1.931   1.208 -2.5990 -0.5725 -0.5096
 6807SOL    HW224878   3.138   1.985   1.093  0.6940  1.8936 -1.8578
 6808SOL     OW24879   5.153  10.322   5.797  0.4165 -0.1842 -0.0532
 6808SOL    HW124880   5.191  10.352   5.880 -0.4888 -0.6396  0.5387
 6808SOL    HW224881   5.165  10.395   5.737  1.8391 -0.1493  0.2277
 6809SOL     OW24882   0.203  10.431   6.845 -0.5231 -0.7741  0.3839
 6809SOL    HW124883   0.219  10.338   6.862  0.0527 -0.7477  0.0284
 6809SOL    HW224884   0.137  10.432   6.776  0.2193 -0.9503 -0.3539
 6810SOL     OW24885   5.419   6.293   3.049 -0.2150  0.4414  0.1614
 6810SOL    HW124886   5.439   6.370   2.997 -0.7264  0.1497 -0.4831
 6810SOL    HW224887   5.344   6.320   3.103  0.4416  0.8084  0.9243
 6811SOL     OW24888   1.781   5.884   8.788  0.1731  0.4107 -0.0249
 6811SOL    HW124889   1.715   5.885   8.719  1.0856  0.8916 -0.9191
 6811SOL    HW224890   1.794   5.977   8.809  2.3331  0.5619 -1.6498
 6812SOL     OW24891  10.113   3.135   1.248  0.5396 -0.4189 -0.4346
 6812SOL    HW124892  10.102   3.074   1.175 -1.5800 -1.6698  0.8172
 6812SOL    HW224893  10.037   3.119   1.304  1.8777  0.7605  1.8591
 6813SOL     OW24894   3.574   4.326   0.803 -0.1591  0.1428 -0.2341
 6813SOL    HW124895   3.613   4.288   0.883 -0.0715 -0.5592 -0.6025
 6813SOL    HW224896   3.480   4.324   0.819 -0.0709  2.2880  0.8609
 6814SOL     OW24897   4.363   4.329   9.634  0.0942 -0.3108 -0.0196
 6814SOL    HW124898   4.354   4.381   9.554 -0.0044 -0.0685  0.1496
 6814SOL    HW224899   4.339   4.240   9.608 -3.1720  0.3171  0.4684
 6815SOL     OW24900   5.490   9.777   1.840  0.3273  0.2699 -0.0803
 6815SOL    HW124901   5.547   9.835   1.788  0.2190  1.2771  0.8977
 6815SOL    HW224902   5.545   9.702   1.861  0.4772 -0.0008 -1.3494
 6816SOL     OW24903   7.400   2.250   1.432 -0.2711 -0.1455 -0.1519
 6816SOL    HW124904   7.399   2.332   1.482 -0.1397  0.2971 -0.8568
 6816SOL    HW224905   7.427   2.277   1.344 -4.0141 -0.3105 -1.5068
 6817SOL     OW24906   9.964   3.932   2.823 -0.2636 -0.1893  0.2549
 6817SOL    HW124907   9.969   4.016   2.867  1.5079  0.0499 -0.3022
 6817SOL    HW224908   9.960   3.954   2.730  0.2620 -0.6931  0.1037
 6818SOL     OW24909   1.128   4.267  10.437 -0.2065 -0.1498 -0.2337
 6818SOL    HW124910   1.067   4.193  10.434 -0.0149 -0.3076 -3.9306
 6818SOL    HW224911   1.079   4.340  10.399  0.7627  0.7244  0.1291
 6819SOL     OW24912   2.406   3.905   0.686  0.2110 -0.3593  0.1110
 6819SOL    HW124913   2.448   3.840   0.741  0.6001 -2.0138 -1.9937
 6819SOL    HW224914   2.452   3.899   0.602 -0.1077  2.2838 -0.3546
 6820SOL     OW24915   9.438   1.821   6.169 -0.1741 -0.8083  0.3669
 6820SOL    HW124916   9.437   1.741   6.116  1.0709 -0.0674 -0.8021
 6820SOL    HW224917   9.346   1.847   6.174 -0.3561 -1.1039 -1.1132
 6821SOL     OW24918   1.713   4.948   7.451  0.5935  0.2800  0.1090
 6821SOL    HW124919   1.701   5.040   7.473 -0.6006 -0.2139  1.7340
 6821SOL    HW224920   1.626   4.916   7.428  1.2504 -0.1033 -2.1239
 6822SOL     OW24921   1.832   9.218   6.156  0.6476  0.5370 -0.0207
 6822SOL    HW124922   1.742   9.247   6.147  0.6433  0.3453 -0.6510
 6822SOL    HW224923   1.863   9.206   6.066  0.4518 -2.0419  0.1853
 6823SOL     OW24924   7.814   1.811   8.739  0.7622 -0.2203 -0.1105
 6823SOL    HW124925   7.828   1.867   8.662  0.0223 -1.0195 -0.8572
 6823SOL    HW224926   7.721   1.822   8.760  0.4837 -1.5036 -0.5663
 6824SOL     OW24927   5.216   1.498   6.837  0.0199  0.1063  0.3403
 6824SOL    HW124928   5.153   1.493   6.765 -0.0011 -0.2028  0.3809
 6824SOL    HW224929   5.271   1.573   6.815 -0.7488  0.7728  0.6163
 6825SOL     OW24930   1.140   9.886   0.917 -0.2437  0.1928  0.2168
 6825SOL    HW124931   1.110   9.810   0.967 -0.5983  0.2223  0.0534
 6825SOL    HW224932   1.069   9.950   0.925 -0.0276  0.4377  0.2019
 6826SOL     OW24933   3.128   8.847   4.612 -1.0124  0.0736 -0.6616
 6826SOL    HW124934   3.063   8.777   4.622 -1.5993  0.6862 -0.0658
 6826SOL    HW224935   3.211   8.802   4.603 -1.2360 -0.7009  0.8490
 6827SOL     OW24936   3.775   0.238   4.118  0.1412 -0.0286  0.5246
 6827SOL    HW124937   3.707   0.275   4.175  0.0750 -0.5521  0.7850
 6827SOL    HW224938   3.812   0.166   4.168  2.3026  1.4824  1.2378
 6828SOL     OW24939   9.239   0.227   8.374  0.5100  0.1624  0.3072
 6828SOL    HW124940   9.196   0.312   8.362 -0.6071 -0.1979  1.5977
 6828SOL    HW224941   9.312   0.245   8.433  0.8843  0.3844 -0.2081
 6829SOL     OW24942   8.953   4.117   3.248  0.2424 -0.0380  0.2436
 6829SOL    HW124943   8.869   4.160   3.266  0.6455 -0.0767  2.5938
 6829SOL    HW224944   8.983   4.088   3.334  2.6962  0.0051 -0.5290
 6830SOL     OW24945  10.148  10.616   6.313  0.0157 -0.7746 -0.0001
 6830SOL    HW124946  10.212  10.565   6.362 -0.3956 -0.6859  0.6435
 6830SOL    HW224947  10.106  10.672   6.379 -0.4461 -0.5481 -0.4769
 6831SOL     OW24948   7.651   5.350   0.929 -0.1791  0.4325  0.1839
 6831SOL    HW124949   7.580   5.292   0.903  1.0753 -1.2162  0.2073
 6831SOL    HW224950   7.689   5.308   1.006  0.1739  1.8365  0.8085
 6832SOL     OW24951   0.071   8.424   6.433 -0.7834  0.1917 -0.2353
 6832SOL    HW124952   0.078   8.380   6.348  0.4961  1.2955 -0.7393
 6832SOL    HW224953   0.055   8.516   6.411 -2.1923  0.2193  0.7722
 6833SOL     OW24954   1.068   0.174   0.550  0.7698 -0.1279 -0.0021
 6833SOL    HW124955   1.119   0.103   0.589  0.6544 -0.8051 -1.0102
 6833SOL    HW224956   1.127   0.214   0.486  0.3229 -0.4020 -0.6087
 6834SOL     OW24957   2.485   4.829   5.523 -0.2455  0.0635 -0.2116
 6834SOL    HW124958   2.450   4.857   5.608  3.5660  1.5943  1.0602
 6834SOL    HW224959   2.414   4.777   5.485 -2.7754  0.6449  3.1392
 6835SOL     OW24960   7.970  10.642   9.421 -0.6251  0.3554  0.3857
 6835SOL    HW124961   8.029  10.618   9.492 -0.9267 -0.6994  0.3110
 6835SOL    HW224962   8.022  10.634   9.342 -0.5880  0.4387  0.4022
 6836SOL     OW24963   5.548   5.137   5.917  0.5056  0.7945  0.0666
 6836SOL    HW124964   5.607   5.148   5.842  0.6043  1.5323  0.2398
 6836SOL    HW224965   5.519   5.046   5.911 -0.7460  1.2512 -1.8067
 6837SOL     OW24966   1.066   0.467  10.022 -0.6489 -0.0735 -0.2307
 6837SOL    HW124967   1.012   0.533  10.066  0.6258  1.3767 -0.7721
 6837SOL    HW224968   1.133   0.445  10.087 -0.7297 -0.4130 -0.2616
 6838SOL     OW24969   6.892   4.437   0.153 -0.2813 -0.0586 -0.3306
 6838SOL    HW124970   6.876   4.523   0.192 -0.7824 -1.1889  2.2227
 6838SOL    HW224971   6.807   4.392   0.158  0.0864 -0.8800 -1.1531
 6839SOL     OW24972   9.720   5.929   7.759 -0.1474  0.9271 -0.0662
 6839SOL    HW124973   9.650   5.901   7.819  0.6583 -1.6316 -0.1959
 6839SOL    HW224974   9.768   5.848   7.740  2.0947  2.3976 -0.9771
 6840SOL     OW24975   5.979   0.732   5.029  0.0077 -0.0742 -0.4462
 6840SOL    HW124976   6.061   0.774   5.056 -0.3280  0.7968 -0.7251
 6840SOL    HW224977   5.979   0.738   4.934 -0.0493 -0.7179 -0.4875
 6841SOL     OW24978   9.009   2.073   6.087 -0.0050  0.1331  0.0082
 6841SOL    HW124979   8.951   2.110   6.153 -0.8617 -1.1636  0.0160
 6841SOL    HW224980   9.088   2.128   6.091 -0.1135  0.2192  1.9640
 6842SOL     OW24981   2.356   3.151   6.389 -0.5600 -0.1669 -0.2543
 6842SOL    HW124982   2.337   3.089   6.459 -2.1091  0.6923  0.1180
 6842SOL    HW224983   2.305   3.119   6.314 -0.1591 -0.1807 -0.5291
 6843SOL     OW24984   6.130   1.425  10.551  0.2210 -0.3408  0.3193
 6843SOL    HW124985   6.153   1.463  10.636  2.0298 -1.9887  0.6562
 6843SOL    HW224986   6.076   1.349  10.574  1.6597 -1.4585  0.1245
 6844SOL     OW24987   5.133  10.046   5.450 -0.1061 -0.0487 -0.2472
 6844SOL    HW124988   5.143  10.081   5.361  3.7638  0.6422  0.2669
 6844SOL    HW224989   5.102  10.120   5.502  1.9268  0.9160 -0.3154
 6845SOL     OW24990   4.785   0.069   7.237 -0.6747 -0.0501  0.6066
 6845SOL    HW124991   4.734   0.023   7.170  2.1119 -1.0296 -1.0028
 6845SOL    HW224992   4.773   0.162   7.216 -0.6857 -0.3097 -0.6217
 6846SOL     OW24993  10.309   2.859   5.139 -0.2384  0.8086 -0.2369
 6846SOL    HW124994  10.258   2.799   5.194 -1.7691  1.2886 -1.0797
 6846SOL    HW224995  10.293   2.946   5.176 -1.0079  1.0980 -1.2034
 6847SOL     OW24996   8.341   2.730   4.049 -0.1455 -0.4525 -0.0994
 6847SOL    HW124997   8.305   2.746   3.961  0.1410 -1.4291 -0.4095
 6847SOL    HW224998   8.283   2.664   4.087  0.3995 -0.8892 -0.0058
 6848SOL     OW24999   8.961   2.870   5.601 -0.2291 -0.3157 -1.0513
 6848SOL    HW125000   9.012   2.868   5.520  1.5602 -0.2937  0.0178
 6848SOL    HW225001   8.976   2.784   5.640  0.2218  0.2312 -0.0017
 6849SOL     OW25002   0.607   7.970   9.302 -0.4535 -0.8408 -0.1243
 6849SOL    HW125003   0.547   8.034   9.264 -1.2937 -0.6447  1.4539
 6849SOL    HW225004   0.594   7.891   9.249 -2.1384 -0.8081  0.1702
 6850SOL     OW25005   6.816   9.796   6.650 -0.9501 -0.0404 -0.0535
 6850SOL    HW125006   6.757   9.726   6.621 -1.6538  0.6434 -0.3216
 6850SOL    HW225007   6.888   9.795   6.587 -0.5454 -1.0234  0.3991
 6851SOL     OW25008   4.115   3.994  11.063  0.5303  0.4265  0.0086
 6851SOL    HW125009   4.182   3.979  11.129 -0.1904  2.9635  1.4593
 6851SOL    HW225010   4.033   3.971  11.106  0.2194  0.0384 -0.7688
 6852SOL     OW25011   1.743   9.617   6.492  0.0540  0.4794  0.3237
 6852SOL    HW125012   1.777   9.705   6.475 -0.2497  0.1190 -2.9164
 6852SOL    HW225013   1.797   9.559   6.438 -0.9648 -1.0669  0.8797
 6853SOL     OW25014   6.729  10.417   9.344  0.0027  0.6039  0.0117
 6853SOL    HW125015   6.679  10.355   9.291 -2.3902 -2.2865  4.8983
 6853SOL    HW225016   6.813  10.373   9.358  0.0104  0.5879 -0.0842
 6854SOL     OW25017   8.799   4.175   2.320  0.4434 -0.0351 -0.1691
 6854SOL    HW125018   8.870   4.119   2.352  0.1176 -0.7899 -0.7667
 6854SOL    HW225019   8.743   4.118   2.269  0.6869  1.0373 -1.7062
 6855SOL     OW25020   4.234   7.663   2.661  0.0897  0.6256 -0.1424
 6855SOL    HW125021   4.270   7.705   2.740  0.7452  1.5350 -0.9094
 6855SOL    HW225022   4.311   7.638   2.610 -0.2984 -1.1199  0.0673
 6856SOL     OW25023   2.696   7.199   7.496  0.0513  0.6508 -0.6736
 6856SOL    HW125024   2.764   7.266   7.490  0.9657 -0.3151 -1.3798
 6856SOL    HW225025   2.719   7.148   7.573  0.1789  0.2853 -0.9478
 6857SOL     OW25026   3.389   4.369  10.080  0.1193 -0.3480  0.0210
 6857SOL    HW125027   3.471   4.381  10.128 -0.3463 -0.4400  0.8687
 6857SOL    HW225028   3.376   4.274  10.079  1.4611 -0.5855 -2.6405
 6858SOL     OW25029   8.021  10.395  10.990 -0.6014  0.2012  0.0759
 6858SOL    HW125030   7.966  10.383  10.913 -2.4159  0.0419  1.3210
 6858SOL    HW225031   8.093  10.451  10.961 -1.3081  0.2402 -1.6783
 6859SOL     OW25032   6.583   4.740   9.876 -0.4557 -0.4441 -0.2007
 6859SOL    HW125033   6.500   4.696   9.894 -0.3641 -0.0052  1.4665
 6859SOL    HW225034   6.587   4.745   9.781 -1.4212 -2.1848 -0.3729
 6860SOL     OW25035  11.010   3.810   1.566  0.1664 -0.3687  0.3060
 6860SOL    HW125036  11.010   3.721   1.533  0.1693 -0.5585  0.8077
 6860SOL    HW225037  10.950   3.808   1.640 -1.6110  0.5627 -1.0327
 6861SOL     OW25038   7.095   1.583   7.490  0.8232  0.4470 -0.4736
 6861SOL    HW125039   7.170   1.642   7.481  1.5707 -0.3915  0.1524
 6861SOL    HW225040   7.110   1.515   7.425  1.5082 -0.6513  0.7983
 6862SOL     OW25041   7.711   2.282   1.626 -0.1727 -0.5735 -0.5465
 6862SOL    HW125042   7.765   2.331   1.564  0.1822  0.1622  0.3149
 6862SOL    HW225043   7.659   2.349   1.670  0.7652 -0.8578  1.0814
 6863SOL     OW25044   3.222   2.012   1.748 -0.0993  0.1095  0.3580
 6863SOL    HW125045   3.283   2.086   1.753 -1.0126  0.8824  0.4420
 6863SOL    HW225046   3.265   1.943   1.798 -0.1356  1.2689  2.0948
 6864SOL     OW25047   6.234   1.019   6.027  0.1241 -0.0804  0.1598
 6864SOL    HW125048   6.172   0.956   5.990  0.1600  0.6174 -1.1483
 6864SOL    HW225049   6.215   1.102   5.982  1.7284  0.2550  0.0151
 6865SOL     OW25050   4.667   2.176   6.974  0.5022  0.2317  0.3008
 6865SOL    HW125051   4.592   2.122   6.952  0.0905  0.6456  0.6733
 6865SOL    HW225052   4.672   2.241   6.904  1.2259 -0.4992 -0.3534
 6866SOL     OW25053  10.653   1.424  10.318  0.0387 -0.4587 -0.1805
 6866SOL    HW125054  10.627   1.336  10.293  0.0948 -0.3479 -0.6329
 6866SOL    HW225055  10.713   1.453  10.249  2.3092 -1.1410  1.3723
 6867SOL     OW25056   2.836   4.157   5.133 -0.0143 -0.0435 -0.2532
 6867SOL    HW125057   2.840   4.189   5.223 -0.2097  0.8189 -0.5442
 6867SOL    HW225058   2.875   4.226   5.080 -2.3037  0.6913 -1.1263
 6868SOL     OW25059   4.574   2.262   4.486 -0.2133 -0.1000 -0.1070
 6868SOL    HW125060   4.560   2.332   4.422  0.6078 -0.5640 -0.8121
 6868SOL    HW225061   4.485   2.235   4.510 -0.5397  0.0741 -1.0567
 6869SOL     OW25062   7.140   3.786   2.856 -0.0088 -0.2145 -0.0196
 6869SOL    HW125063   7.098   3.798   2.941  1.8378 -1.1789  1.0776
 6869SOL    HW225064   7.158   3.692   2.850 -0.2892 -0.2015 -1.5827
 6870SOL     OW25065   7.835   9.738   6.117 -0.5103  0.4760 -0.0970
 6870SOL    HW125066   7.843   9.785   6.200 -2.4487 -0.5570  0.7277
 6870SOL    HW225067   7.918   9.691   6.108 -0.6439 -0.1984  1.7885
 6871SOL     OW25068   9.181   7.226   9.032 -0.5529 -0.4941 -0.2408
 6871SOL    HW125069   9.090   7.199   9.045 -0.4808  0.0591  1.7540
 6871SOL    HW225070   9.187   7.247   8.939 -2.5176 -0.4154 -0.3830
 6872SOL     OW25071   5.435   7.269   4.129 -0.1442  0.1631  0.1998
 6872SOL    HW125072   5.463   7.180   4.151 -0.0310  0.0987 -0.2035
 6872SOL    HW225073   5.370   7.291   4.196  0.4812  0.1194  0.8378
 6873SOL     OW25074   8.180   3.109  10.142  0.3535  0.2245  0.7264
 6873SOL    HW125075   8.217   3.177  10.087  1.3743 -0.9036 -0.0319
 6873SOL    HW225076   8.254   3.073  10.190 -0.2670  0.0747  1.6089
 6874SOL     OW25077   3.020  10.282   8.060 -0.2322  0.0440  0.1590
 6874SOL    HW125078   3.077  10.312   7.989  0.4320 -0.1783  0.5877
 6874SOL    HW225079   3.075  10.286   8.138 -0.6100 -0.7777  0.4778
 6875SOL     OW25080   7.171   0.827   7.763  0.0704 -0.5396  0.3019
 6875SOL    HW125081   7.198   0.782   7.683  0.2558 -2.3572  1.3168
 6875SOL    HW225082   7.239   0.804   7.827 -0.4926  0.2043  1.1901
 6876SOL     OW25083   8.571   9.389   8.299  0.3736  0.1795 -0.3479
 6876SOL    HW125084   8.549   9.427   8.213 -0.1177  2.4152  0.6877
 6876SOL    HW225085   8.666   9.396   8.304  0.4103 -0.0080 -0.7295
 6877SOL     OW25086   6.678   0.190   7.926  0.2498 -0.6442 -0.0454
 6877SOL    HW125087   6.721   0.188   8.011  0.3582  0.1777 -0.0699
 6877SOL    HW225088   6.745   0.224   7.866 -0.3919  0.6227 -0.0853
 6878SOL     OW25089   1.148   8.119   5.907 -0.5456 -0.2497  0.5166
 6878SOL    HW125090   1.134   8.083   5.819  0.6056 -2.4120  1.1709
 6878SOL    HW225091   1.169   8.211   5.891 -0.7960 -0.4843 -1.4407
 6879SOL     OW25092   5.454  10.462   0.376  0.2812 -0.0625  0.8222
 6879SOL    HW125093   5.389  10.513   0.426 -1.3532 -0.3957 -0.8635
 6879SOL    HW225094   5.535  10.513   0.383 -0.0151  0.1880  3.2795
 6880SOL     OW25095   8.342   7.710   2.903  0.4877  0.7366  0.1455
 6880SOL    HW125096   8.291   7.690   2.982  0.2334  1.9409  0.3040
 6880SOL    HW225097   8.282   7.760   2.848  0.5395 -0.4206 -1.0044
 6881SOL     OW25098   2.896   8.635   1.490 -0.0460  0.4552 -0.3963
 6881SOL    HW125099   2.952   8.566   1.455 -0.8948  0.2580 -1.4455
 6881SOL    HW225100   2.814   8.591   1.512 -0.5418  1.0810 -0.9270
 6882SOL     OW25101   8.793   2.042   5.236 -0.1356  0.4523  0.5049
 6882SOL    HW125102   8.878   2.085   5.227  0.2811 -0.5677 -0.8681
 6882SOL    HW225103   8.796   1.998   5.321  0.3532  1.1593  0.8571
 6883SOL     OW25104   0.602   7.282   0.192 -0.4745  0.1511 -0.3027
 6883SOL    HW125105   0.616   7.191   0.168 -2.4428  0.1981 -1.8736
 6883SOL    HW225106   0.511   7.286   0.220 -0.0330  1.4009  1.1204
 6884SOL     OW25107   8.826   8.246   1.104  0.7292  0.9675  0.4983
 6884SOL    HW125108   8.846   8.194   1.027 -0.4905  0.3700  0.5760
 6884SOL    HW225109   8.731   8.243   1.112  0.8710  0.3284  2.4838
 6885SOL     OW25110   0.936   7.720   5.259 -0.1974 -0.1615 -0.2625
 6885SOL    HW125111   0.981   7.715   5.344 -0.6413 -0.9687 -0.0643
 6885SOL    HW225112   0.866   7.784   5.272 -0.0411 -0.0184 -0.1251
 6886SOL     OW25113   7.672   9.485   7.526  0.0319 -0.7273 -0.0526
 6886SOL    HW125114   7.709   9.476   7.438  1.2161  0.5593  0.2888
 6886SOL    HW225115   7.722   9.555   7.567 -0.8144 -0.9766  1.5030
 6887SOL     OW25116   5.404   3.183   6.094 -0.1494 -0.7939 -0.5838
 6887SOL    HW125117   5.399   3.272   6.058  2.2653 -0.6134 -0.6067
 6887SOL    HW225118   5.314   3.150   6.087 -1.0424  1.4977 -0.9051
 6888SOL     OW25119   9.950   2.544   5.661 -0.2472  1.0764  0.9115
 6888SOL    HW125120   9.958   2.632   5.623 -0.7043  0.6467 -0.2328
 6888SOL    HW225121   9.866   2.512   5.629  0.8808 -0.6311 -0.5844
 6889SOL     OW25122   1.597   3.999   6.249  0.2596  0.3743 -0.1368
 6889SOL    HW125123   1.648   3.938   6.301  0.0444 -1.2727 -1.7526
 6889SOL    HW225124   1.622   4.085   6.281  0.8942 -0.5265  1.9305
 6890SOL     OW25125   3.236   1.496   8.261 -0.1123 -0.5875 -0.0906
 6890SOL    HW125126   3.226   1.531   8.349 -0.0942 -0.6996 -0.0433
 6890SOL    HW225127   3.330   1.479   8.252 -0.0684 -0.2736 -0.2483
 6891SOL     OW25128   1.983   7.647   4.483  0.2506 -0.3001 -0.0589
 6891SOL    HW125129   1.916   7.668   4.418 -0.1001  0.8891  0.6536
 6891SOL    HW225130   1.933   7.613   4.558  0.3211  1.2871  0.7604
 6892SOL     OW25131   9.935   6.982  11.018  0.7327 -0.1244 -0.0446
 6892SOL    HW125132   9.941   7.044  10.945  1.0302  0.6978  0.6560
 6892SOL    HW225133   9.903   7.035  11.091  1.1775 -0.7563  0.6199
 6893SOL     OW25134   6.586   3.792   6.937  0.7499 -0.6585 -0.2515
 6893SOL    HW125135   6.614   3.862   6.996  1.9444 -0.2096 -1.3087
 6893SOL    HW225136   6.613   3.711   6.980 -0.8312 -0.5318  1.0870
 6894SOL     OW25137   0.941   9.192   6.385 -0.0089  0.1373  0.3807
 6894SOL    HW125138   1.032   9.175   6.360 -0.4848 -0.4706 -1.0017
 6894SOL    HW225139   0.921   9.276   6.344  0.2774  0.8927  1.7096
 6895SOL     OW25140  10.065   6.879   8.563 -0.1907 -0.0990  0.0329
 6895SOL    HW125141  10.061   6.788   8.533 -0.3273 -0.3829  0.8697
 6895SOL    HW225142  10.131   6.878   8.632 -1.2910  0.0929  1.1279
 6896SOL     OW25143   3.119   3.793  10.516 -0.5738  0.0057  0.2409
 6896SOL    HW125144   3.203   3.789  10.561 -1.1484  0.2545  1.3924
 6896SOL    HW225145   3.079   3.874  10.549 -0.6621  0.6518 -1.3940
 6897SOL     OW25146   0.880   5.821   9.983 -0.1487  0.2958 -0.0075
 6897SOL    HW125147   0.947   5.874   9.939 -0.5749  1.5420  0.7762
 6897SOL    HW225148   0.888   5.734   9.945  1.3616  0.6380 -0.5168
 6898SOL     OW25149   5.971   7.787   5.452  0.3027  0.1580  0.1503
 6898SOL    HW125150   6.029   7.850   5.495 -0.2733 -0.2334  1.5815
 6898SOL    HW225151   6.021   7.705   5.450  0.2863  0.1454  0.2261
 6899SOL     OW25152   7.763   6.687   4.619  0.0374  0.1308  0.2953
 6899SOL    HW125153   7.690   6.640   4.660  1.5585 -0.8820  1.9733
 6899SOL    HW225154   7.823   6.705   4.691  1.0851  1.7071 -0.8990
 6900SOL     OW25155   7.909  10.534   8.794 -0.1814 -0.1802  0.4471
 6900SOL    HW125156   7.992  10.580   8.805  0.2812 -1.1834  1.3166
 6900SOL    HW225157   7.920  10.485   8.713  0.1782 -0.5054  0.6888
 6901SOL     OW25158   6.161   5.876   9.725  0.1144 -0.0002  0.4409
 6901SOL    HW125159   6.233   5.864   9.663 -1.3297 -1.9674 -0.9520
 6901SOL    HW225160   6.192   5.836   9.806  0.8678 -0.1336  0.0960
 6902SOL     OW25161   7.740   6.683   4.955  0.1284  0.0193  0.0219
 6902SOL    HW125162   7.793   6.620   5.004  0.1818  0.5198  0.6208
 6902SOL    HW225163   7.686   6.629   4.897  1.2105 -0.5026 -0.5267
 6903SOL     OW25164   7.025   8.112   9.871 -0.6253  0.3394  0.1838
 6903SOL    HW125165   7.009   8.019   9.853  2.2926  0.2911 -2.9710
 6903SOL    HW225166   6.974   8.158   9.805 -0.9243  0.9657  0.8380
 6904SOL     OW25167   0.521   9.650   1.782  0.0376 -0.1307  0.0420
 6904SOL    HW125168   0.567   9.569   1.804  0.8542  0.6028  1.1597
 6904SOL    HW225169   0.439   9.645   1.831 -0.2817 -0.6281 -0.5270
 6905SOL     OW25170   9.620   4.538   2.814 -0.3688 -1.3104  0.4183
 6905SOL    HW125171   9.562   4.477   2.859 -0.5079 -1.4095  0.1055
 6905SOL    HW225172   9.618   4.617   2.869 -0.7636 -1.3283  0.4347
 6906SOL     OW25173   6.501   1.155   8.332 -0.6338  0.4682  0.5228
 6906SOL    HW125174   6.531   1.198   8.252  0.2150  1.5687  1.4013
 6906SOL    HW225175   6.550   1.198   8.402  0.5289 -2.1848  1.4401
 6907SOL     OW25176   4.139   0.807   7.504 -0.1928 -0.0170 -0.1311
 6907SOL    HW125177   4.072   0.876   7.500  0.1931  0.4289  0.8979
 6907SOL    HW225178   4.156   0.786   7.412 -1.4756  0.1208 -0.4298
 6908SOL     OW25179   8.679   0.191   8.865 -0.3039  0.3087  0.3091
 6908SOL    HW125180   8.711   0.280   8.848 -0.3303  0.8767  2.7812
 6908SOL    HW225181   8.593   0.204   8.904 -0.2362 -0.7685  0.8582
 6909SOL     OW25182   6.350   0.872   4.338 -0.3747  0.6524 -0.3549
 6909SOL    HW125183   6.350   0.942   4.273 -1.9371  0.4948 -0.5561
 6909SOL    HW225184   6.384   0.796   4.291  1.1832  1.2019 -0.1770
 6910SOL     OW25185   0.697   0.935   9.675  0.4017  0.0691  0.2892
 6910SOL    HW125186   0.743   1.001   9.622  1.8357 -0.1437  1.1980
 6910SOL    HW225187   0.638   0.986   9.730 -0.3334  0.3702 -0.7343
 6911SOL     OW25188   7.814  10.087   2.680 -0.1400  0.0492 -0.0469
 6911SOL    HW125189   7.805  10.156   2.613 -0.8925 -0.5697 -0.6053
 6911SOL    HW225190   7.828  10.135   2.761 -1.0112  0.9019 -0.3710
 6912SOL     OW25191   8.987   0.691   1.425 -0.2429  0.2147  0.2806
 6912SOL    HW125192   8.977   0.699   1.519  0.9214  1.4084  0.3301
 6912SOL    HW225193   9.009   0.599   1.410  1.1234  0.3489  1.3348
 6913SOL     OW25194   0.537  10.396   7.158 -0.2338 -0.2991 -0.1188
 6913SOL    HW125195   0.549  10.457   7.231  0.9272 -0.7449  0.0828
 6913SOL    HW225196   0.467  10.337   7.187  0.6541 -0.8706  0.9221
 6914SOL     OW25197  10.154   0.345   8.802  0.2295  0.8939  0.0931
 6914SOL    HW125198  10.248   0.334   8.790 -0.1618 -0.5095 -2.2367
 6914SOL    HW225199  10.140   0.440   8.801  1.5475  1.1041  0.0483
 6915SOL     OW25200   9.582   0.217   3.026  0.3835  0.1604  0.5636
 6915SOL    HW125201   9.542   0.131   3.010  0.2825  0.4478 -0.8646
 6915SOL    HW225202   9.670   0.196   3.057  0.7446 -0.4940 -0.7997
 6916SOL     OW25203  10.686   4.710   2.313  0.2825  0.4482 -0.1160
 6916SOL    HW125204  10.753   4.711   2.245 -0.7905  2.1849 -1.2269
 6916SOL    HW225205  10.733   4.734   2.393  1.4123 -0.8022 -0.3681
 6917SOL     OW25206   2.123   8.188   8.318  0.6058 -0.0680  0.2753
 6917SOL    HW125207   2.154   8.197   8.408 -2.5659  2.2040  1.3281
 6917SOL    HW225208   2.120   8.093   8.303  3.3392 -0.4667  1.6695
 6918SOL     OW25209   3.082   1.209   4.508 -0.0745 -0.8210 -0.2930
 6918SOL    HW125210   3.011   1.148   4.522 -1.1956  0.3586 -0.6205
 6918SOL    HW225211   3.071   1.275   4.577  0.4286 -0.3913 -0.6109
 6919SOL     OW25212   6.972   5.677   5.696  0.9194  0.1306  0.2043
 6919SOL    HW125213   6.947   5.719   5.779 -1.5234 -0.1836 -0.2953
 6919SOL    HW225214   7.064   5.700   5.684  1.6712 -0.6225  3.4878
 6920SOL     OW25215   2.505   0.381   4.163  0.0511 -0.1360  0.6716
 6920SOL    HW125216   2.570   0.449   4.179  0.3370 -0.5385  1.2649
 6920SOL    HW225217   2.553   0.299   4.174  0.2729 -0.5133 -2.2341
 6921SOL     OW25218   3.513   2.963   8.872  0.0078 -0.3476  0.6482
 6921SOL    HW125219   3.488   2.874   8.848  0.3093 -0.1117 -0.6560
 6921SOL    HW225220   3.604   2.956   8.898 -0.1870 -0.5376  1.2857
 6922SOL     OW25221   0.251   8.453   8.177  0.9660  0.4543 -0.7984
 6922SOL    HW125222   0.235   8.484   8.088  0.6836 -0.1561 -0.9675
 6922SOL    HW225223   0.211   8.366   8.179 -0.5145  1.1141  0.4167
 6923SOL     OW25224   2.599  10.657   4.976  0.5367 -0.3088  0.1210
 6923SOL    HW125225   2.513  10.665   5.018  0.1693 -0.7113 -0.5258
 6923SOL    HW225226   2.661  10.690   5.040  0.0675 -1.4972  1.2285
 6924SOL     OW25227   5.247   6.061   2.565  0.0636 -0.6160  0.4187
 6924SOL    HW125228   5.337   6.057   2.595 -0.0231 -0.7426  0.6658
 6924SOL    HW225229   5.194   6.043   2.643 -0.1856 -0.1285  0.3689
 6925SOL     OW25230   0.584  10.485   1.483 -0.7564 -0.3393  0.4433
 6925SOL    HW125231   0.546  10.571   1.464  0.2063  0.4637  1.9131
 6925SOL    HW225232   0.540  10.457   1.563 -1.8329 -1.7481 -0.6036
 6926SOL     OW25233   4.017   3.710   0.478 -0.1394 -0.4654 -0.1500
 6926SOL    HW125234   4.066   3.774   0.427 -1.1396  1.3979  1.1095
 6926SOL    HW225235   4.041   3.625   0.440  2.1512  0.5432 -1.1110
 6927SOL     OW25236   8.996   7.644   9.534  0.2449 -0.0672 -0.1090
 6927SOL    HW125237   8.988   7.548   9.532  3.0372 -0.3707 -0.9565
 6927SOL    HW225238   8.998   7.670   9.442 -0.4710  0.8093  0.1175
 6928SOL     OW25239   4.367   2.176   5.743  0.2849  0.3002 -0.2498
 6928SOL    HW125240   4.330   2.102   5.696  2.2946 -0.5222 -0.6711
 6928SOL    HW225241   4.416   2.225   5.677 -0.1784  1.4332  0.2200
 6929SOL     OW25242   4.826   9.064   5.121 -0.0188 -0.0208  0.0671
 6929SOL    HW125243   4.789   9.093   5.204 -1.2880  1.1147 -0.8430
 6929SOL    HW225244   4.784   8.980   5.104 -1.1121  0.5584 -0.2266
 6930SOL     OW25245   6.188   8.327   7.987  0.7578  0.2368  0.4243
 6930SOL    HW125246   6.247   8.357   8.056  1.9025  0.7705 -0.7411
 6930SOL    HW225247   6.246   8.284   7.923 -0.4976 -2.0382  0.7095
 6931SOL     OW25248   5.265   6.595   8.312 -0.5596 -0.5349 -0.2694
 6931SOL    HW125249   5.269   6.500   8.299  0.2697 -0.4646 -0.6256
 6931SOL    HW225250   5.305   6.631   8.233 -1.3741  0.1362 -0.3916
 6932SOL     OW25251   8.714   1.361   6.624  0.2336 -0.1304 -1.0153
 6932SOL    HW125252   8.765   1.411   6.560 -0.2226  0.2951 -1.0553
 6932SOL    HW225253   8.751   1.384   6.709  1.4108 -1.3568 -1.1630
 6933SOL     OW25254   5.202   9.400   2.594  0.3594 -0.4799  0.3301
 6933SOL    HW125255   5.148   9.402   2.515  0.5434 -2.9341  0.0589
 6933SOL    HW225256   5.141   9.386   2.666  0.2494  1.1831  0.5941
 6934SOL     OW25257   1.919   2.508   4.093  0.4271 -0.3599 -0.1189
 6934SOL    HW125258   1.863   2.473   4.025  1.9229 -1.9616 -0.6102
 6934SOL    HW225259   1.996   2.541   4.046 -0.2289  2.3281  0.4736
 6935SOL     OW25260   9.279   9.070   6.394 -0.0628 -0.4987 -0.3651
 6935SOL    HW125261   9.359   9.023   6.372 -0.2223 -0.7392 -0.4331
 6935SOL    HW225262   9.220   9.052   6.321  0.1352  0.4336 -0.7821
 6936SOL     OW25263  10.504   6.880   9.192 -0.1773  0.3175  0.5261
 6936SOL    HW125264  10.414   6.896   9.219 -0.3006  0.0869  0.2596
 6936SOL    HW225265  10.508   6.785   9.177 -0.0859  0.4229 -0.1555
 6937SOL     OW25266   3.343   1.202   5.780 -0.4542  0.1623  0.4310
 6937SOL    HW125267   3.352   1.221   5.687 -1.5310 -2.8861 -0.4084
 6937SOL    HW225268   3.431   1.178   5.809 -0.4046 -0.5650 -0.2766
 6938SOL     OW25269   9.220   7.774   7.805  0.1202  0.4258 -0.0868
 6938SOL    HW125270   9.129   7.803   7.794 -0.3407  0.3471  2.7510
 6938SOL    HW225271   9.212   7.686   7.840  1.4257 -0.8188 -2.6999
 6939SOL     OW25272   4.544   0.286   5.262  0.2904  0.2187  0.5908
 6939SOL    HW125273   4.589   0.356   5.310  0.3867  0.3792  0.2730
 6939SOL    HW225274   4.469   0.330   5.221 -0.8748 -0.2846  2.1182
 6940SOL     OW25275   5.773   4.244   5.867  0.1306 -0.2064 -0.1673
 6940SOL    HW125276   5.695   4.264   5.815  0.2250 -0.7868 -0.5415
 6940SOL    HW225277   5.804   4.330   5.897 -1.7450 -0.0863  1.6443
 6941SOL     OW25278   8.182   6.905   8.549 -0.1061  0.1437 -0.3790
 6941SOL    HW125279   8.157   6.924   8.639  1.0095  1.2605 -0.2827
 6941SOL    HW225280   8.121   6.837   8.521 -3.2072  2.5768 -0.1201
 6942SOL     OW25281   1.084  10.659   9.450 -0.2784  0.0792  0.4442
 6942SOL    HW125282   1.062  10.735   9.504 -0.5899 -0.0977  0.5716
 6942SOL    HW225283   1.135  10.695   9.378 -1.1713  0.5506  0.0205
 6943SOL     OW25284   4.622   8.404   6.092 -0.1592 -0.1424 -0.5055
 6943SOL    HW125285   4.602   8.496   6.073 -3.6684 -0.5480  0.5063
 6943SOL    HW225286   4.573   8.355   6.025  0.1204 -1.2870  0.1048
 6944SOL     OW25287   6.159   7.205   4.393  0.7734  0.5796 -0.1924
 6944SOL    HW125288   6.112   7.142   4.447 -0.2639  0.0742 -1.6083
 6944SOL    HW225289   6.151   7.288   4.439  0.8423 -0.0274  0.9372
 6945SOL     OW25290  10.699   2.558   3.836  0.2521 -0.0209  0.1392
 6945SOL    HW125291  10.768   2.600   3.887  0.6964 -0.0048 -0.4602
 6945SOL    HW225292  10.622   2.563   3.892  0.6594  0.2344  0.6980
 6946SOL     OW25293   9.406   9.004   0.739 -0.1318 -0.3894  0.3188
 6946SOL    HW125294   9.325   9.007   0.790 -0.8560 -1.3453 -0.7191
 6946SOL    HW225295   9.476   9.013   0.804 -1.0497  1.9064  1.1015
 6947SOL     OW25296   2.521   3.079   6.857 -0.1081  0.0223 -0.1858
 6947SOL    HW125297   2.560   3.040   6.779  0.1810  1.9700 -1.0735
 6947SOL    HW225298   2.447   3.022   6.878  0.2502 -0.9474 -1.4162
 6948SOL     OW25299   8.737   3.242   8.474  0.0552 -0.0091  0.0647
 6948SOL    HW125300   8.712   3.262   8.384 -0.4496 -1.5021 -0.1488
 6948SOL    HW225301   8.720   3.323   8.523  0.0490  0.7176 -1.1117
 6949SOL     OW25302   3.589   1.280   0.172  0.0767 -0.4910 -0.3194
 6949SOL    HW125303   3.536   1.303   0.095  1.1563  2.0545 -0.4221
 6949SOL    HW225304   3.658   1.224   0.137  0.5925  0.6872 -1.2614
 6950SOL     OW25305   4.337   6.012   7.726  0.4692  0.3982  0.3734
 6950SOL    HW125306   4.389   5.971   7.796 -1.9974 -1.7597  1.1083
 6950SOL    HW225307   4.353   5.956   7.650 -0.3327 -0.0010  0.4823
 6951SOL     OW25308   4.576   4.041   4.916 -0.4732  0.1097  0.3209
 6951SOL    HW125309   4.511   4.061   4.849 -0.9160  0.3887  0.8183
 6951SOL    HW225310   4.566   4.112   4.980  1.5213  1.1526 -0.4349
 6952SOL     OW25311   0.954   8.669   3.459 -0.0139  0.0661  0.0496
 6952SOL    HW125312   0.946   8.760   3.487  0.0711 -0.5762  2.3721
 6952SOL    HW225313   1.041   8.664   3.420  0.4936  0.7252  1.0467
 6953SOL     OW25314   7.850   3.159   2.207  0.2331  0.0603 -0.1151
 6953SOL    HW125315   7.897   3.242   2.219 -1.8605  1.2247  0.4707
 6953SOL    HW225316   7.811   3.141   2.293 -0.7006 -0.6591 -0.6754
 6954SOL     OW25317   1.906   2.527   0.010 -0.1880  0.4481 -0.0519
 6954SOL    HW125318   1.819   2.502   0.039 -0.1366 -0.9839 -1.0198
 6954SOL    HW225319   1.963   2.506   0.084 -0.2615 -1.6783 -0.5356
 6955SOL     OW25320   3.416   2.332   3.541 -0.2198 -0.3993  0.2303
 6955SOL    HW125321   3.345   2.298   3.596 -0.8539  4.4597  3.0110
 6955SOL    HW225322   3.375   2.352   3.457 -0.0584 -4.6588 -1.1181
 6956SOL     OW25323   8.496   9.281   1.900 -0.4634 -0.0887 -0.2875
 6956SOL    HW125324   8.464   9.357   1.949 -0.3296  1.2757 -2.2063
 6956SOL    HW225325   8.418   9.244   1.860 -0.6129 -1.3782  1.1091
 6957SOL     OW25326   7.797   5.808   5.217  0.1308  0.1902  0.2592
 6957SOL    HW125327   7.772   5.901   5.222  1.2762  0.4691  1.5827
 6957SOL    HW225328   7.730   5.768   5.162 -1.9302  1.2948  1.8329
 6958SOL     OW25329   7.241   6.395   9.840 -0.3068  0.4261  0.4515
 6958SOL    HW125330   7.148   6.399   9.817 -0.3481 -3.4748 -0.8875
 6958SOL    HW225331   7.242   6.390   9.936 -1.6051 -0.2669  0.4553
 6959SOL     OW25332   3.330   7.328   9.883  0.4159  0.9497 -0.2964
 6959SOL    HW125333   3.246   7.349   9.842  0.0501 -1.0579 -0.6925
 6959SOL    HW225334   3.308   7.301   9.972  0.7579  1.3669 -0.0828
 6960SOL     OW25335   1.632   3.134   9.030 -0.1407  0.0179  0.1634
 6960SOL    HW125336   1.613   3.040   9.042  1.6432 -0.0760  3.8267
 6960SOL    HW225337   1.573   3.178   9.091  0.2123  1.1215 -0.2697
 6961SOL     OW25338   9.673   7.787   2.456 -0.0935 -0.2446 -0.3008
 6961SOL    HW125339   9.632   7.701   2.466  0.0011 -0.2125  0.4095
 6961SOL    HW225340   9.694   7.814   2.545  0.3726  0.2753 -0.5613
 6962SOL     OW25341   9.146   2.859   2.782 -0.5077 -0.7689  0.1204
 6962SOL    HW125342   9.126   2.952   2.768 -0.9832 -0.8781  0.0605
 6962SOL    HW225343   9.166   2.852   2.875  1.4506 -0.2579 -0.2099
 6963SOL     OW25344   5.796   5.523   7.060  0.2535 -0.1712  0.1715
 6963SOL    HW125345   5.855   5.522   7.135  0.7446 -0.3975 -0.2133
 6963SOL    HW225346   5.716   5.482   7.092  1.4376 -3.0180 -0.1912
 6964SOL     OW25347   5.871   9.165   3.959  0.3254  0.6061  0.0482
 6964SOL    HW125348   5.806   9.109   4.002  1.8165 -0.4555  1.0094
 6964SOL    HW225349   5.821   9.212   3.892 -1.5163  0.1772  1.0427
 6965SOL     OW25350   5.703  10.060   0.748 -0.2004 -0.2175 -0.2388
 6965SOL    HW125351   5.780  10.096   0.704 -0.2959  0.7860  0.3827
 6965SOL    HW225352   5.723   9.967   0.760  0.0401 -0.3989 -1.9010
 6966SOL     OW25353   3.322   7.757   5.534 -0.1185 -1.0876 -0.2190
 6966SOL    HW125354   3.233   7.733   5.558 -0.4633 -0.6800 -1.0267
 6966SOL    HW225355   3.341   7.835   5.585 -0.5345 -0.7061 -0.6361
 6967SOL     OW25356   4.154   4.185   2.378  0.2537  0.1955  0.3340
 6967SOL    HW125357   4.094   4.201   2.305  0.1258 -1.8489 -0.0701
 6967SOL    HW225358   4.240   4.207   2.343  0.0373  0.6362  0.0652
 6968SOL     OW25359   4.428   8.630   0.041  0.4351 -0.1214  0.2173
 6968SOL    HW125360   4.438   8.567   0.113 -0.4259 -2.3061 -1.4722
 6968SOL    HW225361   4.517   8.648   0.013  0.6905 -2.4291 -0.6992
 6969SOL     OW25362   5.731  10.753   4.040  0.0742  0.1027  0.1889
 6969SOL    HW125363   5.703  10.837   4.002 -0.9604 -0.0363  0.6237
 6969SOL    HW225364   5.667  10.690   4.010  1.3992 -0.7628 -0.9588
 6970SOL     OW25365   9.296   2.547   2.727  0.1345 -0.6158  0.0797
 6970SOL    HW125366   9.209   2.581   2.746  0.6084  1.4416 -1.1625
 6970SOL    HW225367   9.336   2.613   2.671  1.5288 -2.7892 -1.6514
 6971SOL     OW25368   2.928   8.645   6.754 -0.0876  0.0448  0.2678
 6971SOL    HW125369   2.901   8.735   6.740  0.2178 -0.2179 -2.5792
 6971SOL    HW225370   2.998   8.631   6.690  3.0692 -0.9219  3.6022
 6972SOL     OW25371  10.159   3.271  11.036  0.2977 -0.1399 -0.2955
 6972SOL    HW125372  10.110   3.323  11.100  1.4295 -0.6296  1.0206
 6972SOL    HW225373  10.095   3.210  11.000  0.1174 -1.5338  2.1982
 6973SOL     OW25374   3.870   1.908   9.510  0.3273  0.1700 -0.1631
 6973SOL    HW125375   3.962   1.923   9.533  0.1503  1.9249 -0.4647
 6973SOL    HW225376   3.821   1.947   9.582 -0.1838  0.2414 -0.5453
 6974SOL     OW25377   3.876   2.493   5.275 -0.1629 -0.8421 -0.6669
 6974SOL    HW125378   3.823   2.451   5.208  0.0746 -3.1084  0.4632
 6974SOL    HW225379   3.885   2.584   5.246 -3.5377 -0.6549 -1.5527
 6975SOL     OW25380   5.752   9.099   7.582 -0.4559 -0.1249 -0.0691
 6975SOL    HW125381   5.738   9.159   7.509  1.1887  0.0248 -0.2906
 6975SOL    HW225382   5.668   9.054   7.593 -0.3690 -1.1509 -2.9431
 6976SOL     OW25383   5.016   7.278  10.011  0.0609 -0.7138 -0.0000
 6976SOL    HW125384   4.938   7.315   9.969  1.6757  1.7638 -1.0499
 6976SOL    HW225385   4.984   7.200  10.056 -3.2029  0.6397  0.3462
 6977SOL     OW25386   1.702   2.761   6.591  0.0281  0.1848  0.2440
 6977SOL    HW125387   1.614   2.728   6.609 -0.4979  2.0056  1.3596
 6977SOL    HW225388   1.758   2.718   6.657 -0.4423  0.6705  0.9768
 6978SOL     OW25389   6.797   2.673   4.973 -0.1946 -0.3156  0.1125
 6978SOL    HW125390   6.757   2.712   5.050  0.0228 -0.4456  0.2934
 6978SOL    HW225391   6.724   2.659   4.912 -0.6822 -1.9057  1.0046
 6979SOL     OW25392   4.754  10.099   5.931 -0.3601 -0.3824  0.5365
 6979SOL    HW125393   4.705  10.119   5.851  1.2117  0.2853 -0.3163
 6979SOL    HW225394   4.797  10.015   5.913  1.3434  0.5610 -0.0500
 6980SOL     OW25395   9.422   8.609   3.315  0.0369  0.0859  0.4941
 6980SOL    HW125396   9.477   8.678   3.350 -2.5305  1.2337  2.6263
 6980SOL    HW225397   9.376   8.573   3.391 -1.5570 -1.3155 -1.0209
 6981SOL     OW25398  10.728   6.762   7.712 -0.5407  0.0987 -0.0986
 6981SOL    HW125399  10.686   6.833   7.663  0.6282  1.6865  1.1024
 6981SOL    HW225400  10.759   6.803   7.793  1.5927 -1.4335 -0.0614
 6982SOL     OW25401   7.055   7.526   1.026  0.2382  0.0320 -0.1495
 6982SOL    HW125402   7.046   7.546   0.933 -0.4594 -1.6490 -0.4798
 6982SOL    HW225403   6.977   7.565   1.066  0.5173  0.7217 -0.2695
 6983SOL     OW25404   7.713   4.469   7.034  0.6438 -0.0683 -0.2034
 6983SOL    HW125405   7.645   4.506   6.978  2.2152  0.2581 -2.0145
 6983SOL    HW225406   7.703   4.375   7.024 -0.2883 -0.0551  0.5128
 6984SOL     OW25407   2.324   1.920   1.365  0.0563  0.1479  0.3786
 6984SOL    HW125408   2.414   1.902   1.340  0.0459  0.2698  0.2503
 6984SOL    HW225409   2.297   1.843   1.415  0.9534  1.0426  2.3498
 6985SOL     OW25410  10.125   4.203   6.860 -0.0001  0.7557 -0.5151
 6985SOL    HW125411  10.095   4.243   6.942 -0.6139  0.4964 -0.6068
 6985SOL    HW225412  10.220   4.208   6.864 -0.0507  1.8782 -0.3460
 6986SOL     OW25413  10.480   1.853   3.441  0.0879  0.0434 -0.3422
 6986SOL    HW125414  10.423   1.804   3.381 -0.6673  1.5103 -0.8718
 6986SOL    HW225415  10.551   1.885   3.384  0.3430 -0.0678 -0.0864
 6987SOL     OW25416   2.466   1.231   3.041 -0.4129  0.0337 -0.3722
 6987SOL    HW125417   2.459   1.213   2.947  1.3251 -2.9077 -0.0775
 6987SOL    HW225418   2.559   1.245   3.057 -0.6676  0.4304  0.9128
 6988SOL     OW25419  10.447   5.224   1.612 -0.7290 -0.1849 -0.4834
 6988SOL    HW125420  10.382   5.214   1.542 -0.5549 -1.1736 -0.5079
 6988SOL    HW225421  10.456   5.137   1.650 -0.1845  0.1633  0.2174
 6989SOL     OW25422   9.333   0.896   1.252 -0.1113 -0.2473  0.8701
 6989SOL    HW125423   9.358   0.846   1.330 -0.8265 -1.3728  0.3933
 6989SOL    HW225424   9.286   0.834   1.197 -0.3802  0.7635 -0.0808
 6990SOL     OW25425   0.370   4.344   4.062 -0.2527  0.0026 -0.0285
 6990SOL    HW125426   0.432   4.271   4.069 -0.3718 -0.1114 -0.1772
 6990SOL    HW225427   0.424   4.422   4.080 -0.0073 -0.0740 -0.4309
 6991SOL     OW25428   8.230   5.173   0.197 -0.1672  0.4776  0.5121
 6991SOL    HW125429   8.208   5.083   0.173 -0.7477  0.9306 -0.7922
 6991SOL    HW225430   8.241   5.171   0.292 -0.0336 -0.9895  0.4845
 6992SOL     OW25431   2.659   5.121   9.949  0.4582  0.5541  0.5640
 6992SOL    HW125432   2.639   5.124   9.855 -0.1902  2.1428  0.7180
 6992SOL    HW225433   2.755   5.115   9.952  0.4265 -0.5485 -0.1898
 6993SOL     OW25434   8.347   8.122   7.291  0.1828  0.7264  0.0632
 6993SOL    HW125435   8.432   8.098   7.254  0.3180  1.0555  0.1559
 6993SOL    HW225436   8.349   8.086   7.380  0.5430  1.4191  0.3383
 6994SOL     OW25437   6.500   8.095   2.092  0.4807  0.3189 -0.1578
 6994SOL    HW125438   6.502   8.061   2.002 -0.7826 -2.4033  0.7371
 6994SOL    HW225439   6.592   8.115   2.111  1.3748 -2.5464 -0.9090
 6995SOL     OW25440   9.917   3.365   4.438 -0.0187  0.7178 -0.2371
 6995SOL    HW125441  10.002   3.356   4.395  0.8837  1.3963  1.3282
 6995SOL    HW225442   9.856   3.323   4.378  1.4261  0.1154 -1.3582
 6996SOL     OW25443   1.785   5.240   4.378  0.0750 -0.5419  0.2441
 6996SOL    HW125444   1.850   5.189   4.427  1.8284  0.5727 -0.8101
 6996SOL    HW225445   1.792   5.329   4.414  2.2475  0.6075 -2.5721
 6997SOL     OW25446   4.073   0.229   8.988 -0.5165  0.3270 -0.4563
 6997SOL    HW125447   4.069   0.174   8.910 -0.4050  0.0528 -0.2691
 6997SOL    HW225448   4.143   0.292   8.969  0.3197 -0.4794 -0.1028
 6998SOL     OW25449   4.379   9.336   3.547  0.0214  0.0968 -0.6957
 6998SOL    HW125450   4.291   9.373   3.538 -1.2191 -1.9953  1.6480
 6998SOL    HW225451   4.427   9.401   3.599 -1.9867 -1.0768  3.0053
 6999SOL     OW25452   2.164   4.370   8.290  0.1358  0.3752 -0.2532
 6999SOL    HW125453   2.133   4.284   8.320  0.7186  0.1571 -0.2581
 6999SOL    HW225454   2.122   4.433   8.348  1.4017 -0.0453  1.1838
 7000SOL     OW25455   1.378   2.063   6.334 -0.4471  0.4375  0.2737
 7000SOL    HW125456   1.391   2.039   6.242 -0.4262  0.2668  0.3213
 7000SOL    HW225457   1.341   1.985   6.374  0.2003  0.2758  0.5704
 7001SOL     OW25458   7.833   6.354   8.831 -0.8427  0.2921 -0.0906
 7001SOL    HW125459   7.748   6.370   8.874 -0.1991 -0.7409  1.6920
 7001SOL    HW225460   7.854   6.263   8.852  0.1974  0.1816 -1.4720
 7002SOL     OW25461   9.237   8.784   3.565  0.5428  0.1998 -0.8426
 7002SOL    HW125462   9.214   8.704   3.518 -1.3411 -1.1261  2.1053
 7002SOL    HW225463   9.234   8.853   3.498 -1.0487 -1.6666 -2.8181
 7003SOL     OW25464   9.221   0.769   2.831 -0.0061 -0.1159  0.2766
 7003SOL    HW125465   9.243   0.791   2.921  0.4008  2.5130 -0.3862
 7003SOL    HW225466   9.138   0.813   2.815 -1.8789 -3.3132  0.2829
 7004SOL     OW25467   4.166   6.702   6.920  0.4363 -0.0928 -0.6292
 7004SOL    HW125468   4.096   6.652   6.878  0.0701  0.1238 -0.2723
 7004SOL    HW225469   4.239   6.639   6.927  0.2508 -0.3424 -0.9139
 7005SOL     OW25470   6.738   9.162   7.096 -0.1301 -0.0960  0.6273
 7005SOL    HW125471   6.658   9.164   7.148 -0.8027  0.8526 -0.4139
 7005SOL    HW225472   6.787   9.239   7.124  0.2970 -0.5117  1.0485
 7006SOL     OW25473   8.439  11.056   5.683  0.4906 -0.5079  0.4037
 7006SOL    HW125474   8.365  11.074   5.626  0.6429  0.8563  0.6017
 7006SOL    HW225475   8.499  11.005   5.628  0.8539  1.1769 -0.8648
 7007SOL     OW25476   9.607   1.695   9.921  0.2320 -0.1100  0.2218
 7007SOL    HW125477   9.636   1.716  10.010  0.9453 -1.9244  0.4675
 7007SOL    HW225478   9.512   1.691   9.927  0.1989  0.9587  0.6006
 7008SOL     OW25479   1.170   6.038   3.802 -0.2539 -0.3812  0.0799
 7008SOL    HW125480   1.263   6.032   3.780 -0.5171 -1.1405 -0.9334
 7008SOL    HW225481   1.144   6.125   3.774  0.1790 -0.1203  0.4844
 7009SOL     OW25482   2.300   7.614   1.164  0.1266  0.1611  0.2306
 7009SOL    HW125483   2.314   7.565   1.245  0.7700  0.7424  0.4739
 7009SOL    HW225484   2.376   7.592   1.110  0.4199  0.8947  0.3428
 7010SOL     OW25485   2.775   2.343   2.246 -0.1882  0.1760  0.5976
 7010SOL    HW125486   2.685   2.369   2.268  1.2585  2.9450  4.4598
 7010SOL    HW225487   2.803   2.289   2.320  1.6639  0.3953  0.1169
 7011SOL     OW25488   9.867   5.902   7.497 -0.0331  0.0833  0.1919
 7011SOL    HW125489   9.913   5.843   7.557  0.2140 -0.1948 -0.2691
 7011SOL    HW225490   9.775   5.873   7.502  0.0092 -0.0328  0.3251
 7012SOL     OW25491   1.754   2.397   9.211  0.0434  0.3996 -0.0658
 7012SOL    HW125492   1.763   2.320   9.267  0.7035  0.6112  0.1273
 7012SOL    HW225493   1.801   2.466   9.258 -1.1357  1.1167  0.1273
 7013SOL     OW25494   1.421   8.589   4.951  0.2252 -0.0847 -0.1147
 7013SOL    HW125495   1.467   8.509   4.926  1.5425  0.2612  1.0755
 7013SOL    HW225496   1.361   8.561   5.020  0.9062 -0.0016  0.5167
 7014SOL     OW25497   9.664   2.616   4.070  0.3303  0.4410 -0.0502
 7014SOL    HW125498   9.568   2.625   4.071  0.1565 -0.9435 -1.0280
 7014SOL    HW225499   9.686   2.579   4.155 -0.1751 -0.4347 -0.2796
 7015SOL     OW25500  10.082   0.854   6.244  0.3726 -0.2241 -0.9190
 7015SOL    HW125501  10.045   0.779   6.290 -0.0039  1.3037  1.4898
 7015SOL    HW225502  10.024   0.927   6.268  1.4365  1.0793 -2.1343
 7016SOL     OW25503   4.481   8.396   5.253  0.4007  0.0354 -0.1564
 7016SOL    HW125504   4.462   8.387   5.159 -0.5354 -0.6214  0.0778
 7016SOL    HW225505   4.552   8.460   5.257 -0.6284  1.3007 -1.2171
 7017SOL     OW25506   6.985   4.184   3.816  0.0531 -0.3682  0.6420
 7017SOL    HW125507   7.014   4.259   3.868 -1.5239 -0.7266  2.1166
 7017SOL    HW225508   7.040   4.112   3.847  0.5452 -0.1455  0.2974
 7018SOL     OW25509   9.349   1.511   5.225  0.1052 -0.7050 -0.5860
 7018SOL    HW125510   9.255   1.515   5.245  0.3364 -1.8480  0.9711
 7018SOL    HW225511   9.391   1.513   5.311  1.5338  0.0446 -1.2764
 7019SOL     OW25512   1.941   3.627   8.090  0.6772 -0.0333  0.4857
 7019SOL    HW125513   1.891   3.698   8.132  1.0225  0.7256 -0.3423
 7019SOL    HW225514   2.010   3.672   8.042  1.4619 -1.0092  0.6784
 7020SOL     OW25515   9.473   2.051   4.614 -0.7041  0.4903 -0.3308
 7020SOL    HW125516   9.430   2.115   4.671 -0.1892  0.6697 -0.1443
 7020SOL    HW225517   9.558   2.090   4.593 -1.2851  0.9037 -2.0633
 7021SOL     OW25518   5.665   4.977   6.479 -0.2489  0.5442  0.0658
 7021SOL    HW125519   5.682   4.934   6.395 -1.8027 -0.3003  0.1444
 7021SOL    HW225520   5.749   5.017   6.503  0.3854  0.2747 -1.5766
 7022SOL     OW25521   6.093   3.495   0.832  0.4484 -0.1486 -0.4042
 7022SOL    HW125522   6.007   3.502   0.790  1.1037  1.8147 -1.5324
 7022SOL    HW225523   6.104   3.401   0.847 -1.8146 -0.4698 -0.3588
 7023SOL     OW25524   6.556   4.613   4.330  0.1214 -0.3871 -0.2665
 7023SOL    HW125525   6.577   4.706   4.340 -1.6349  0.0585 -0.4271
 7023SOL    HW225526   6.619   4.568   4.387  2.0902  0.7292 -1.4333
 7024SOL     OW25527   8.032   8.775   4.103 -0.2467  0.0510  0.5131
 7024SOL    HW125528   8.074   8.776   4.189  1.8654  1.5603 -0.4527
 7024SOL    HW225529   8.088   8.719   4.050 -2.2814 -1.9970  0.3762
 7025SOL     OW25530   1.103   0.159   6.505  0.2781 -0.0902 -0.0737
 7025SOL    HW125531   1.016   0.171   6.541  0.6438 -0.2076  0.8943
 7025SOL    HW225532   1.161   0.207   6.565  0.7195  1.4441 -1.6406
 7026SOL     OW25533   8.555   0.591   4.473 -0.2668 -0.1550 -0.1305
 7026SOL    HW125534   8.555   0.641   4.392 -0.9726 -1.4190 -0.9474
 7026SOL    HW225535   8.465   0.596   4.505  0.0068  0.3410  0.5962
 7027SOL     OW25536   8.530   9.620   7.311 -0.5612 -0.0117  0.3829
 7027SOL    HW125537   8.567   9.602   7.225  0.3278  0.1460  0.7256
 7027SOL    HW225538   8.436   9.633   7.294 -0.4512 -0.3012 -0.5081
 7028SOL     OW25539   1.082   7.520   5.760  0.3450  0.1899  0.2950
 7028SOL    HW125540   1.145   7.452   5.736  0.2622 -0.3489  1.5481
 7028SOL    HW225541   1.099   7.591   5.698  0.9285 -0.6786 -0.5662
 7029SOL     OW25542   8.748   3.307   8.201 -0.1243 -0.3696 -0.3158
 7029SOL    HW125543   8.838   3.299   8.171  0.2869 -0.5701  0.9263
 7029SOL    HW225544   8.712   3.218   8.193  0.1868 -0.5631  0.3956
 7030SOL     OW25545   9.559  10.857   9.968 -0.0595  0.8859 -0.5550
 7030SOL    HW125546   9.625  10.873  10.035 -1.3789  1.2215  0.7365
 7030SOL    HW225547   9.598  10.889   9.887  1.7138  0.1763 -0.0364
 7031SOL     OW25548   7.352   3.020   1.962  0.2519 -0.1924  0.1000
 7031SOL    HW125549   7.384   2.976   2.041  0.4998  0.1164  0.1733
 7031SOL    HW225550   7.257   3.006   1.965  0.4515 -1.9214 -0.6212
 7032SOL     OW25551   1.534   5.327   8.662 -0.2150  0.1305 -0.6416
 7032SOL    HW125552   1.579   5.335   8.746 -3.4730  1.7208  1.1653
 7032SOL    HW225553   1.491   5.411   8.650 -1.2736 -0.6748 -3.0654
 7033SOL     OW25554   3.823   8.487   7.385 -0.1812 -0.0743 -0.1373
 7033SOL    HW125555   3.902   8.491   7.439 -1.4596  1.6592  1.7680
 7033SOL    HW225556   3.778   8.570   7.402 -2.2610 -0.8533 -1.4263
 7034SOL     OW25557   0.693  10.779   1.940 -0.5759 -0.3618 -0.6960
 7034SOL    HW125558   0.606  10.758   1.907 -0.3862  0.5045 -1.8000
 7034SOL    HW225559   0.688  10.871   1.965 -0.2327 -0.5619  0.1556
 7035SOL     OW25560   8.884   3.832   0.598 -0.2546  0.5046  0.0819
 7035SOL    HW125561   8.978   3.836   0.614  0.0401 -1.7300 -0.7917
 7035SOL    HW225562   8.855   3.923   0.605  2.0266  1.3083 -0.0478
 7036SOL     OW25563   3.615   9.263   3.040 -0.1952 -0.0997  0.3230
 7036SOL    HW125564   3.522   9.247   3.024 -0.0770  0.4402 -1.0436
 7036SOL    HW225565   3.635   9.342   2.989  1.1221 -0.5119  0.1671
 7037SOL     OW25566   9.855   2.701   6.347 -0.0934  0.0082 -0.3524
 7037SOL    HW125567   9.793   2.682   6.277  1.5109  1.1253 -2.1863
 7037SOL    HW225568   9.857   2.621   6.400 -0.8967 -1.1219 -1.9498
 7038SOL     OW25569   0.088   7.765   9.739 -0.1927 -0.3210  0.4705
 7038SOL    HW125570   0.040   7.778   9.658  1.1005  0.4953 -0.1947
 7038SOL    HW225571   0.167   7.818   9.729  0.4834 -1.0209  1.8364
 7039SOL     OW25572  10.495   1.764   1.611 -0.2614 -0.2937 -0.4670
 7039SOL    HW125573  10.406   1.746   1.643 -0.0625 -1.1614 -0.3702
 7039SOL    HW225574  10.531   1.825   1.674 -0.1394 -1.4060  0.5789
 7040SOL     OW25575   6.144   4.138   3.937 -0.1758 -0.2335  0.3172
 7040SOL    HW125576   6.080   4.207   3.919 -0.0663  0.5229  2.5664
 7040SOL    HW225577   6.204   4.177   4.001 -0.2227 -2.4634  1.8118
 7041SOL     OW25578   6.007   5.611   1.077  0.4086  0.7331  0.4788
 7041SOL    HW125579   5.971   5.527   1.104  1.2300 -0.0323 -0.7229
 7041SOL    HW225580   6.002   5.666   1.156  0.2305 -0.5607  1.3965
 7042SOL     OW25581   8.558   6.062  10.222 -0.2475 -0.2872 -0.7427
 7042SOL    HW125582   8.588   5.987  10.170  0.1791  0.2617 -1.3207
 7042SOL    HW225583   8.542   6.130  10.157 -0.5102  0.1584 -0.2135
 7043SOL     OW25584   2.637   5.054   4.546 -0.3248 -0.3445 -0.2489
 7043SOL    HW125585   2.615   5.137   4.504 -1.3565 -0.4420  0.0763
 7043SOL    HW225586   2.711   5.074   4.603  0.4953 -0.0080 -1.3869
 7044SOL     OW25587   7.993   6.847   5.534  0.5198  0.3528  0.2459
 7044SOL    HW125588   7.974   6.919   5.595 -1.3762  0.7888 -0.7968
 7044SOL    HW225589   8.009   6.891   5.450  0.9061 -0.3624 -0.0565
 7045SOL     OW25590   4.104   1.061   8.216  0.2494  0.0092  0.3494
 7045SOL    HW125591   4.090   1.067   8.311  4.3993  0.7713  1.0807
 7045SOL    HW225592   4.133   0.971   8.202 -3.4964 -1.1899 -0.9061
 7046SOL     OW25593   7.740  11.022   9.445 -0.4361  0.0377  0.7663
 7046SOL    HW125594   7.690  11.047   9.524  0.3116  0.6477  1.0598
 7046SOL    HW225595   7.724  11.094   9.384 -2.5259 -1.2991 -0.3781
 7047SOL     OW25596   7.349   4.286   2.762 -0.2089  0.0217  0.3463
 7047SOL    HW125597   7.289   4.227   2.807 -0.6361 -0.4459 -0.7898
 7047SOL    HW225598   7.434   4.269   2.803 -0.5686 -0.4151  0.9397
 7048SOL     OW25599   9.769  10.802   9.021  0.2184 -0.0931  0.1293
 7048SOL    HW125600   9.817  10.731   8.979  0.5440 -0.8435  1.6919
 7048SOL    HW225601   9.679  10.791   8.991  0.3614 -0.8747 -0.0248
 7049SOL     OW25602   9.791   9.265   9.881 -0.4592  0.2867  0.2786
 7049SOL    HW125603   9.735   9.304   9.813 -1.7804 -2.1507 -0.1317
 7049SOL    HW225604   9.867   9.232   9.834 -0.5485  0.1219  0.2503
 7050SOL     OW25605   5.552   4.106   0.103 -0.0821  0.2403  0.9505
 7050SOL    HW125606   5.576   4.187   0.149  0.1627  0.5522  0.2944
 7050SOL    HW225607   5.636   4.067   0.080 -0.1680  0.9806 -0.7500
 7051SOL     OW25608  10.690   0.677   7.501  0.3954  0.2705  0.4087
 7051SOL    HW125609  10.693   0.590   7.461  1.7152 -0.4264  1.8933
 7051SOL    HW225610  10.745   0.731   7.445 -0.8970  0.3407 -0.8513
 7052SOL     OW25611   7.182  10.655   7.126  0.0631  0.1641  0.1903
 7052SOL    HW125612   7.220  10.708   7.056  0.4166 -0.5221 -0.1436
 7052SOL    HW225613   7.222  10.569   7.116 -0.6120 -0.2126  0.6372
 7053SOL     OW25614   2.536   9.964  10.327  0.8326 -0.1441  0.4260
 7053SOL    HW125615   2.447   9.929  10.324  1.2093 -1.0627 -1.1279
 7053SOL    HW225616   2.525  10.059  10.325 -0.1283 -0.2422 -1.4923
 7054SOL     OW25617   6.744   7.297   4.837 -0.1583 -0.0478  0.3669
 7054SOL    HW125618   6.695   7.241   4.776  1.3773 -1.8385  0.6745
 7054SOL    HW225619   6.764   7.376   4.787  1.1689 -1.5233 -1.5739
 7055SOL     OW25620   3.919  10.834  10.618  0.9822  0.4303 -0.2492
 7055SOL    HW125621   3.928  10.873  10.705 -0.1498  0.8616 -0.3118
 7055SOL    HW225622   3.970  10.891  10.560  1.4927  0.3091  0.0698
 7056SOL     OW25623   8.273  11.034   4.729 -0.6269  0.4072  0.3031
 7056SOL    HW125624   8.279  10.988   4.646  1.2774 -1.8786  1.5942
 7056SOL    HW225625   8.340  11.102   4.723 -0.8954  0.6326 -0.2291
 7057SOL     OW25626   4.627   7.614   9.627 -0.3579  0.1512  0.1331
 7057SOL    HW125627   4.545   7.609   9.676 -1.8881  3.8305 -1.6289
 7057SOL    HW225628   4.616   7.551   9.556 -0.9086 -0.5648  0.8341
 7058SOL     OW25629   5.782   2.999   1.268  0.4251  0.3253 -0.1603
 7058SOL    HW125630   5.687   2.987   1.275  0.2671  1.2598 -0.5394
 7058SOL    HW225631   5.798   3.085   1.306  1.0943  0.2682 -0.3065
 7059SOL     OW25632   9.808   3.141   6.521  0.1049  0.3175 -0.3175
 7059SOL    HW125633   9.814   3.046   6.511  1.6678  0.4476 -0.8896
 7059SOL    HW225634   9.804   3.155   6.616  1.3173 -0.2867 -0.1547
 7060SOL     OW25635   1.641   3.438   2.812  0.3351  0.1085  0.3053
 7060SOL    HW125636   1.682   3.357   2.843 -1.1575 -0.2780  1.3763
 7060SOL    HW225637   1.601   3.476   2.890  0.0352  1.3051 -0.4068
 7061SOL     OW25638  10.910   4.289   8.683 -0.1402  0.3093 -0.2378
 7061SOL    HW125639  10.913   4.316   8.592  2.7269  0.4087 -0.1897
 7061SOL    HW225640  10.871   4.202   8.681 -0.1684  0.3390 -1.5402
 7062SOL     OW25641   6.408   1.963   8.812 -0.2343 -0.6996 -0.2430
 7062SOL    HW125642   6.360   1.883   8.789  0.4500 -0.9662 -0.7859
 7062SOL    HW225643   6.357   2.003   8.882  0.4268 -2.6088  1.4132
 7063SOL     OW25644   1.344  10.200   3.024 -0.1000  0.9136  0.5103
 7063SOL    HW125645   1.253  10.175   3.010 -0.1821  1.1846  0.5387
 7063SOL    HW225646   1.365  10.258   2.950 -0.2469  1.5997  0.9885
 7064SOL     OW25647   5.922   4.394  10.409  0.4497  0.0510 -0.4857
 7064SOL    HW125648   5.900   4.354  10.325 -0.2659 -1.0208  0.1884
 7064SOL    HW225649   5.847   4.451  10.429  0.6986  0.4399 -0.6465
 7065SOL     OW25650  10.867   0.329  10.274  0.0441 -0.0570  0.1600
 7065SOL    HW125651  10.826   0.413  10.294  1.2261  0.2197  1.5912
 7065SOL    HW225652  10.799   0.264  10.290  0.0767  0.3979  2.4569
 7066SOL     OW25653   3.365   6.048   7.352  0.1223 -0.9159  0.5441
 7066SOL    HW125654   3.309   5.980   7.389 -3.7499  0.9133 -1.3457
 7066SOL    HW225655   3.317   6.130   7.366  1.9785  0.7629 -1.9006
 7067SOL     OW25656  10.654   8.552   6.552  0.7879 -0.0827 -0.3069
 7067SOL    HW125657  10.720   8.573   6.486  2.2268  0.0965  1.1422
 7067SOL    HW225658  10.683   8.470   6.591 -0.4051 -0.5394 -0.3210
 7068SOL     OW25659   3.459   0.754   4.081 -0.1731  0.0754 -0.2456
 7068SOL    HW125660   3.394   0.780   4.015 -0.2503  2.3114  0.6065
 7068SOL    HW225661   3.438   0.808   4.157  0.6291 -1.6006  1.2388
 7069SOL     OW25662   9.309   1.724   3.819 -0.1863 -0.3065  0.1153
 7069SOL    HW125663   9.356   1.779   3.756  0.9018 -1.9390 -0.5691
 7069SOL    HW225664   9.345   1.749   3.904  0.7047 -0.3403 -0.2396
 7070SOL     OW25665   2.643   8.297   5.930 -0.0072  0.4993  0.2226
 7070SOL    HW125666   2.590   8.323   5.855 -1.6381 -1.2949  0.6841
 7070SOL    HW225667   2.597   8.332   6.006 -0.3386 -0.7299  0.6050
 7071SOL     OW25668   1.707   4.418   8.724 -0.0377 -0.3296 -0.0652
 7071SOL    HW125669   1.614   4.440   8.730 -0.0175 -0.2784  0.0622
 7071SOL    HW225670   1.729   4.382   8.809  0.6946  2.1257  0.8731
 7072SOL     OW25671   0.636   8.213   5.395  0.4506 -0.1609 -0.4493
 7072SOL    HW125672   0.726   8.212   5.362  0.2361  1.8754 -1.2117
 7072SOL    HW225673   0.642   8.173   5.482  2.1878  0.4817 -0.2356
 7073SOL     OW25674  10.252   3.875  10.123 -0.6421  0.7270  0.1812
 7073SOL    HW125675  10.299   3.915  10.049  0.1288  1.5191  1.0634
 7073SOL    HW225676  10.321   3.831  10.173 -1.1581  0.2010  0.4322
 7074SOL     OW25677   6.849   2.126   9.935  0.1215 -0.2304  0.0691
 7074SOL    HW125678   6.921   2.139   9.996 -1.1973 -0.7090  1.8148
 7074SOL    HW225679   6.848   2.032   9.919  0.7880 -0.0531 -1.1780
 7075SOL     OW25680   4.059   7.808   5.654  0.2257  0.1963  0.4315
 7075SOL    HW125681   4.002   7.884   5.648 -1.2711 -0.9416 -0.4194
 7075SOL    HW225682   4.132   7.837   5.709 -0.1316  2.3228 -0.1217
 7076SOL     OW25683   2.054   4.250  10.957  0.0826 -0.2672 -1.0168
 7076SOL    HW125684   2.075   4.318  11.020 -0.0329 -1.2941  0.1733
 7076SOL    HW225685   2.063   4.292  10.871  2.5787  0.5315 -0.4368
 7077SOL     OW25686  10.043   2.280   4.525  0.0972  0.1604 -0.1908
 7077SOL    HW125687  10.048   2.311   4.616 -0.8863  1.7076 -0.6369
 7077SOL    HW225688  10.116   2.218   4.517 -0.3630 -0.7467  1.9208
 7078SOL     OW25689   0.773   4.802   9.263  0.5192 -0.1393 -0.7592
 7078SOL    HW125690   0.816   4.872   9.213  2.3343  0.9233  2.0138
 7078SOL    HW225691   0.846   4.748   9.294 -0.5031 -0.7472  0.6673
 7079SOL     OW25692   5.836   2.769   4.315  0.0315  0.3604 -0.4185
 7079SOL    HW125693   5.840   2.695   4.375  1.5597  1.5841  1.1118
 7079SOL    HW225694   5.850   2.731   4.228 -2.4970 -1.4912 -0.1250
 7080SOL     OW25695   3.508   6.261   4.097  0.3187 -0.0771 -0.3718
 7080SOL    HW125696   3.476   6.319   4.028 -1.9830 -1.4860 -0.6026
 7080SOL    HW225697   3.603   6.268   4.093  0.1700  2.7934 -1.1020
 7081SOL     OW25698   8.537   5.681   1.415 -0.8905 -0.2095  0.2804
 7081SOL    HW125699   8.525   5.646   1.326  1.7747 -0.8947  0.1074
 7081SOL    HW225700   8.532   5.776   1.404 -0.6385 -0.2897 -0.6021
 7082SOL     OW25701   1.921   0.293   0.367  0.1171  0.4731  0.5863
 7082SOL    HW125702   1.898   0.346   0.443 -2.1644 -0.9246  0.9388
 7082SOL    HW225703   1.913   0.202   0.397 -1.0223 -0.1217 -1.3283
 7083SOL     OW25704   0.032   2.180   6.691  0.2421 -0.5160 -0.0499
 7083SOL    HW125705   0.107   2.231   6.659  0.1901 -0.0861  0.5011
 7083SOL    HW225706   0.012   2.218   6.776 -1.1029 -0.1060 -0.5173
 7084SOL     OW25707   2.598   6.578   2.320 -0.3826  0.6635  0.0953
 7084SOL    HW125708   2.564   6.543   2.403  0.3997  0.7060  0.4493
 7084SOL    HW225709   2.565   6.519   2.253  0.1645 -0.2312  0.5956
 7085SOL     OW25710   0.472   1.175   5.645 -0.3578 -0.2387 -0.0770
 7085SOL    HW125711   0.447   1.102   5.588 -0.8196 -0.5362  0.4873
 7085SOL    HW225712   0.405   1.242   5.629 -0.8400 -0.5568  0.5368
 7086SOL     OW25713  10.444   4.454   9.584  0.4137 -0.0650 -0.4478
 7086SOL    HW125714  10.433   4.531   9.528  2.2221  1.5844  1.3218
 7086SOL    HW225715  10.530   4.420   9.561 -0.0074 -1.0751 -0.5862
 7087SOL     OW25716   2.343   9.235   4.600 -0.0742  0.5017  0.3323
 7087SOL    HW125717   2.333   9.330   4.589  2.0699  0.6808 -0.4455
 7087SOL    HW225718   2.386   9.225   4.684  2.3016  0.4602 -0.8154
 7088SOL     OW25719  10.388   9.149  10.475 -0.5696 -0.6810 -0.0996
 7088SOL    HW125720  10.362   9.091  10.547 -2.6216  1.1815  0.7680
 7088SOL    HW225721  10.431   9.223  10.519 -0.1331 -0.3967 -0.9823
 7089SOL     OW25722   7.642   9.579   4.186 -0.2312  0.3966 -0.1333
 7089SOL    HW125723   7.671   9.599   4.275 -0.9584  0.0862  0.1896
 7089SOL    HW225724   7.685   9.644   4.131 -0.6201  1.2823  0.5844
 7090SOL     OW25725   9.495   8.228   7.983 -0.2916  0.3342 -0.1206
 7090SOL    HW125726   9.449   8.279   7.916 -0.0415 -0.7971 -1.1974
 7090SOL    HW225727   9.457   8.141   7.977  0.9778 -0.2455 -0.0398
 7091SOL     OW25728   6.430   8.268   7.158  0.0226  0.0451  0.1323
 7091SOL    HW125729   6.419   8.175   7.179  0.3643  0.0475  0.3243
 7091SOL    HW225730   6.509   8.272   7.105 -0.9285  0.0223 -1.3492
 7092SOL     OW25731   0.925   0.387   2.099  0.1219  0.2204 -0.1854
 7092SOL    HW125732   0.938   0.450   2.170  0.6258  0.3133 -0.3523
 7092SOL    HW225733   0.839   0.408   2.063  1.0986  2.1981 -1.5799
 7093SOL     OW25734   9.092  10.086   0.879  0.3574 -0.2018  0.4198
 7093SOL    HW125735   9.184  10.098   0.855 -0.0264  2.3655 -0.0816
 7093SOL    HW225736   9.091  10.091   0.974  0.7904 -0.7893  0.4605
 7094SOL     OW25737   4.437   2.357   6.664 -0.0874  0.2292  0.1671
 7094SOL    HW125738   4.360   2.305   6.688  0.4973 -0.4537  0.6086
 7094SOL    HW225739   4.436   2.431   6.723  0.3398 -0.4963  1.1130
 7095SOL     OW25740   9.042   7.759  10.918 -0.0808  0.8917  0.3886
 7095SOL    HW125741   8.979   7.808  10.865 -0.2536  0.1024 -0.1645
 7095SOL    HW225742   9.124   7.763  10.869 -0.4733 -0.6311 -0.4501
 7096SOL     OW25743   6.296   1.928   2.853  0.1917 -0.9076  0.0701
 7096SOL    HW125744   6.265   1.976   2.930  2.1356  0.2088  0.2168
 7096SOL    HW225745   6.295   1.836   2.880  0.2161 -0.5948  1.1811
 7097SOL     OW25746   0.438   4.227   8.166 -0.3651 -0.6971  0.5062
 7097SOL    HW125747   0.463   4.182   8.085 -1.0129  0.0912 -0.1412
 7097SOL    HW225748   0.516   4.220   8.222  0.3998 -0.4887 -0.5124
 7098SOL     OW25749   6.019   4.748   9.043  0.3375  0.8971 -0.1092
 7098SOL    HW125750   6.103   4.702   9.035 -0.0863  0.2714 -1.3269
 7098SOL    HW225751   5.953   4.679   9.033 -0.3132  1.6831 -1.5597
 7099SOL     OW25752   6.689   5.715  10.991 -0.0097 -0.6473  0.0310
 7099SOL    HW125753   6.664   5.636  11.039 -3.8880  1.0468  1.1822
 7099SOL    HW225754   6.742   5.683  10.918 -1.2049 -4.2586  0.5566
 7100SOL     OW25755   1.916   4.027  10.588  0.3519  0.4855  0.0188
 7100SOL    HW125756   1.933   4.121  10.593 -0.0653  0.5324  0.7130
 7100SOL    HW225757   1.893   4.012  10.496 -1.0837  1.3469  0.1999
 7101SOL     OW25758  10.377   7.408  10.000  0.4646 -0.4451  0.1021
 7101SOL    HW125759  10.425   7.360  10.066  1.1658  0.7065  0.4486
 7101SOL    HW225760  10.440   7.469   9.962  0.1480 -1.2029 -1.7871
 7102SOL     OW25761   1.093   9.967   2.332 -0.2357  0.0489 -0.0569
 7102SOL    HW125762   1.052   9.889   2.295  0.5005 -0.1603 -0.4632
 7102SOL    HW225763   1.163   9.989   2.270  1.4728 -0.7060  1.4833
 7103SOL     OW25764   9.574   9.007   5.040 -0.0625 -0.4217  0.4186
 7103SOL    HW125765   9.636   9.030   4.971  0.1463 -2.3249 -0.0763
 7103SOL    HW225766   9.627   8.965   5.107 -0.6327 -0.9707  0.5364
 7104SOL     OW25767   2.971   1.767   8.758 -0.4371 -0.2298  0.7523
 7104SOL    HW125768   2.883   1.761   8.795 -0.1132  1.0396  1.7854
 7104SOL    HW225769   2.975   1.855   8.720  0.3794 -0.2954  0.6698
 7105SOL     OW25770   1.911   2.345   6.197  0.5237 -0.4161 -0.2963
 7105SOL    HW125771   1.939   2.426   6.153 -0.5802 -0.6309 -1.4473
 7105SOL    HW225772   1.972   2.336   6.270 -0.0672  2.1525  0.6521
 7106SOL     OW25773   7.469  10.711   2.129  0.3845 -0.5804  0.2585
 7106SOL    HW125774   7.450  10.798   2.164 -0.1511  0.0928 -1.5562
 7106SOL    HW225775   7.382  10.673   2.115  0.6203 -1.4571  1.1081
 7107SOL     OW25776   2.490   5.185   7.621  0.2994 -0.3503  0.3263
 7107SOL    HW125777   2.568   5.172   7.566  0.4990  1.3188  0.1694
 7107SOL    HW225778   2.423   5.131   7.579  1.0446 -0.8630 -0.2467
 7108SOL     OW25779   2.571   5.651   1.965  0.2415  0.0117 -0.0831
 7108SOL    HW125780   2.599   5.559   1.966  0.7746  0.1706  0.7912
 7108SOL    HW225781   2.613   5.688   1.888 -0.2224 -0.5515 -0.6139
 7109SOL     OW25782   4.825   5.317   5.045 -0.3871  0.1081  0.5421
 7109SOL    HW125783   4.769   5.240   5.036 -2.4207  1.5130  0.4050
 7109SOL    HW225784   4.891   5.291   5.109 -1.7509 -1.3602  1.4358
 7110SOL     OW25785   1.429   6.783   2.767 -0.4745  0.3663  0.0255
 7110SOL    HW125786   1.466   6.850   2.710  1.2668 -0.7077 -0.1940
 7110SOL    HW225787   1.404   6.831   2.846 -0.3687  1.4538 -0.5769
 7111SOL     OW25788   8.530  10.663   9.794  0.4732  0.2957  0.4361
 7111SOL    HW125789   8.598  10.609   9.755 -0.8375 -1.2307  0.1175
 7111SOL    HW225790   8.449  10.631   9.754 -0.3449  3.0055 -0.2857
 7112SOL     OW25791   1.931   0.225   1.469  0.3041  0.4477  0.4262
 7112SOL    HW125792   1.848   0.254   1.432 -0.0360  1.4476  1.8871
 7112SOL    HW225793   1.911   0.142   1.512  0.5966 -0.4733 -1.1390
 7113SOL     OW25794   3.466   6.203   8.381  0.7463 -0.0062 -0.1160
 7113SOL    HW125795   3.548   6.233   8.420  0.0833 -0.4290  1.7392
 7113SOL    HW225796   3.418   6.284   8.362  0.7690  0.2244  0.7331
 7114SOL     OW25797   8.185   7.647   7.427  0.0431 -0.2022  0.0242
 7114SOL    HW125798   8.232   7.577   7.381  0.3012 -0.0628  0.0790
 7114SOL    HW225799   8.212   7.727   7.383 -0.3444 -0.1470 -0.1138
 7115SOL     OW25800   2.538   2.693   8.221 -0.1916  0.1097  0.0169
 7115SOL    HW125801   2.546   2.779   8.180 -1.2941 -0.0077 -0.4666
 7115SOL    HW225802   2.566   2.632   8.153 -1.6966 -0.0621 -0.4710
 7116SOL     OW25803   3.524   3.829  10.185 -0.9535 -0.2614  0.1368
 7116SOL    HW125804   3.491   3.822  10.275 -0.1556 -2.9783  0.3127
 7116SOL    HW225805   3.455   3.792  10.131 -1.6823  1.9085 -0.4969
 7117SOL     OW25806   6.023   2.777   8.466 -0.5462  0.1081  0.1332
 7117SOL    HW125807   6.005   2.752   8.376 -0.9423 -2.1447  0.7848
 7117SOL    HW225808   6.099   2.835   8.460 -0.1085 -0.5942 -1.5640
 7118SOL     OW25809  10.265  10.011   5.009  0.2017 -0.1177  0.2925
 7118SOL    HW125810  10.249  10.064   4.931 -0.1613 -0.8547 -0.1435
 7118SOL    HW225811  10.330  10.060   5.058  0.5649  0.2763 -0.5615
 7119SOL     OW25812   0.015   6.416   6.602  0.3888  0.2192 -0.5499
 7119SOL    HW125813  -0.060   6.365   6.633 -0.5880  1.6804 -0.3953
 7119SOL    HW225814   0.071   6.353   6.558 -1.5522 -0.7172 -1.8032
 7120SOL     OW25815   4.522   9.889  10.674  0.7411 -0.0473  0.2876
 7120SOL    HW125816   4.482   9.976  10.665  0.2409 -0.3151 -0.1081
 7120SOL    HW225817   4.612   9.907  10.703  0.5698  0.5918  0.4289
 7121SOL     OW25818   3.628   1.850   4.091 -0.2438  0.0116 -0.0530
 7121SOL    HW125819   3.648   1.777   4.150  1.0047 -0.1762 -0.6788
 7121SOL    HW225820   3.554   1.819   4.039  0.1831 -0.7794 -0.2134
 7122SOL     OW25821   6.953   5.015   7.229  0.4496  0.3177 -0.4592
 7122SOL    HW125822   7.025   5.024   7.291 -0.1162 -0.5931  0.3416
 7122SOL    HW225823   6.996   5.000   7.145  1.2425  2.2603 -0.4645
 7123SOL     OW25824   7.259   4.110   9.905  0.1000 -0.1555  0.6077
 7123SOL    HW125825   7.310   4.151   9.835 -1.4838  0.2821 -0.3522
 7123SOL    HW225826   7.169   4.142   9.891 -0.9885 -2.9372  0.5745
 7124SOL     OW25827   1.517   7.780   8.503  0.4890 -0.1723  0.1624
 7124SOL    HW125828   1.435   7.737   8.479  0.4829 -1.2512  1.9210
 7124SOL    HW225829   1.491   7.868   8.529  0.1160  0.0005 -0.7423
 7125SOL     OW25830   9.603   4.888   4.186  0.1003 -0.5868  0.6366
 7125SOL    HW125831   9.554   4.941   4.249 -0.2202 -0.4451  0.2706
 7125SOL    HW225832   9.617   4.946   4.112  0.4840 -0.7525  0.5790
 7126SOL     OW25833   4.031   1.237   5.089  0.2779  0.3133  0.0304
 7126SOL    HW125834   4.034   1.293   5.010 -0.8404  1.4989  0.7852
 7126SOL    HW225835   4.121   1.240   5.123  0.1645  2.1183  0.3160
 7127SOL     OW25836   8.501   8.171   6.332 -0.2160 -0.3456  0.1605
 7127SOL    HW125837   8.496   8.266   6.323 -1.0906 -0.5366 -1.9588
 7127SOL    HW225838   8.471   8.154   6.422  0.9192  1.4027  0.9237
 7128SOL     OW25839   8.077   1.880  10.580  0.5437  0.2847  0.8494
 7128SOL    HW125840   8.055   1.885  10.487 -2.2390  1.6547  1.4736
 7128SOL    HW225841   8.171   1.868  10.582  0.5415 -0.9735 -2.1500
 7129SOL     OW25842   9.998   7.033   1.630  0.3059  0.1015 -0.5888
 7129SOL    HW125843  10.051   7.104   1.666  0.6858 -0.4711 -0.0022
 7129SOL    HW225844  10.051   6.954   1.642 -0.9453 -0.6001  0.6899
 7130SOL     OW25845   5.901   0.801   3.033  0.3689 -0.0454  0.0562
 7130SOL    HW125846   5.823   0.849   3.004 -0.7278 -0.2953  2.3537
 7130SOL    HW225847   5.972   0.837   2.980 -1.0289  1.3504 -0.9876
 7131SOL     OW25848   7.375   9.629   4.559  0.2116 -0.3960 -0.2408
 7131SOL    HW125849   7.310   9.685   4.603  0.3579 -0.0780 -0.4265
 7131SOL    HW225850   7.340   9.615   4.471  1.6245  1.9747 -1.2698
 7132SOL     OW25851   2.856   1.690   0.117  0.2522 -0.5036 -0.2382
 7132SOL    HW125852   2.764   1.696   0.089  0.7096  0.2087 -1.7434
 7132SOL    HW225853   2.864   1.754   0.188 -0.3919 -0.4963 -0.1681
 7133SOL     OW25854   5.420   2.230   2.652  0.3824 -0.1260 -0.8369
 7133SOL    HW125855   5.449   2.305   2.704  0.5628 -0.8509  0.1348
 7133SOL    HW225856   5.387   2.268   2.572 -0.0429  1.0427 -0.1267
 7134SOL     OW25857   0.505   0.940   5.850 -0.0570 -0.1064 -0.5706
 7134SOL    HW125858   0.522   0.964   5.759  0.4884  0.6529 -0.2734
 7134SOL    HW225859   0.544   0.853   5.859 -2.5323 -1.4717 -1.7980
 7135SOL     OW25860   9.475   4.164   0.027  0.2307  0.3113  0.0271
 7135SOL    HW125861   9.482   4.181   0.121 -2.7994  1.6548  0.1266
 7135SOL    HW225862   9.430   4.080   0.021 -0.5444  0.7406 -0.1974
 7136SOL     OW25863   2.054   3.228   2.326  0.5417  0.7520 -0.0476
 7136SOL    HW125864   2.043   3.270   2.411 -0.6432 -2.3082  1.4685
 7136SOL    HW225865   2.149   3.215   2.317  0.6792  1.1518  0.7579
 7137SOL     OW25866   4.768   0.706   9.554 -0.3523 -0.1826 -0.1456
 7137SOL    HW125867   4.861   0.712   9.575 -0.3224 -0.6445 -0.1339
 7137SOL    HW225868   4.760   0.748   9.468 -0.3217  0.8739  0.3536
 7138SOL     OW25869   9.619   4.777   9.135  0.2349  0.1269 -1.0460
 7138SOL    HW125870   9.634   4.780   9.229  0.6284  0.3836 -1.1159
 7138SOL    HW225871   9.569   4.857   9.116 -0.9066 -0.5222 -0.8756
 7139SOL     OW25872   4.365   6.189   6.880 -0.0447  0.1243 -0.0019
 7139SOL    HW125873   4.333   6.099   6.882  1.0496 -0.2695  0.2303
 7139SOL    HW225874   4.409   6.201   6.964  1.8385  0.1040 -0.9333
 7140SOL     OW25875   0.865   4.846   6.678 -0.3555 -0.0711 -0.1628
 7140SOL    HW125876   0.773   4.840   6.653 -1.0760 -0.7074  2.3125
 7140SOL    HW225877   0.896   4.756   6.675 -0.2573 -0.0626  0.4179
 7141SOL     OW25878   9.972   3.273   0.928  0.1063  0.2307  0.2049
 7141SOL    HW125879   9.980   3.294   0.835  1.1158 -0.7119  0.0616
 7141SOL    HW225880  10.062   3.256   0.957 -0.0830  1.2980  1.5618
 7142SOL     OW25881   1.187   5.619   3.944  0.0347  0.2084  0.3521
 7142SOL    HW125882   1.101   5.607   3.902 -0.1211 -0.2288  0.7800
 7142SOL    HW225883   1.250   5.603   3.874 -0.1447 -3.2248  0.8284
 7143SOL     OW25884  10.973   3.125   5.161 -0.2725  0.3145 -0.2969
 7143SOL    HW125885  10.903   3.183   5.130 -0.5697 -0.3820 -0.9718
 7143SOL    HW225886  10.944   3.037   5.135  0.2732 -0.1127  0.5145
 7144SOL     OW25887  10.456   1.812   0.899  0.2215  0.3296 -0.4150
 7144SOL    HW125888  10.444   1.717   0.893  0.0967  0.3079  0.1449
 7144SOL    HW225889  10.457   1.842   0.808  0.0225 -0.1782 -0.5868
 7145SOL     OW25890   0.497   0.026   2.307 -0.0523  0.1003  0.4169
 7145SOL    HW125891   0.568  -0.006   2.363  0.0716  0.7258  0.6218
 7145SOL    HW225892   0.509   0.120   2.304 -1.6936  0.4017  1.6043
 7146SOL     OW25893   1.231   3.830   2.668 -0.0613 -0.2143 -0.0351
 7146SOL    HW125894   1.320   3.800   2.651  0.4253 -0.0252  1.9242
 7146SOL    HW225895   1.231   3.922   2.644  0.6058  0.0669  1.0011
 7147SOL     OW25896   6.168  11.052   0.001  0.0044  0.4485  0.5217
 7147SOL    HW125897   6.165  11.032   0.094 -0.1250  0.3523  0.4966
 7147SOL    HW225898   6.211  11.138  -0.004 -1.0101  0.9810  0.7507
 7148SOL     OW25899  10.043   1.028  10.417 -0.1616 -1.0717 -0.5360
 7148SOL    HW125900  10.067   1.119  10.401 -0.0120 -0.8800  0.6649
 7148SOL    HW225901   9.952   1.032  10.446 -0.5433 -1.4374 -1.6427
 7149SOL     OW25902   7.054   2.231   6.618  0.0719 -0.0720  0.1018
 7149SOL    HW125903   7.147   2.237   6.599 -0.2114  0.1539 -1.3851
 7149SOL    HW225904   7.030   2.141   6.596 -0.1347 -0.0234  0.1184
 7150SOL     OW25905   5.657   0.473   5.241  0.4048 -0.6882 -0.3853
 7150SOL    HW125906   5.568   0.437   5.241 -0.0664  0.4528  0.1785
 7150SOL    HW225907   5.664   0.520   5.324  1.8412 -1.4741 -0.0174
 7151SOL     OW25908   3.943   7.628   1.296 -0.2350  0.0421  0.0131
 7151SOL    HW125909   3.997   7.594   1.226 -2.6182 -0.9932 -1.4285
 7151SOL    HW225910   4.005   7.648   1.367  1.7982 -2.7999 -0.8148
 7152SOL     OW25911   2.094   5.275   7.422  0.1000  0.4548 -0.0634
 7152SOL    HW125912   2.162   5.242   7.364 -0.1714 -0.3287  0.0435
 7152SOL    HW225913   2.140   5.332   7.484  0.5699  0.3754 -0.3377
 7153SOL     OW25914   3.055  10.722   2.104  0.0293  0.3408 -0.0323
 7153SOL    HW125915   3.044  10.801   2.156 -0.2171  1.0543 -1.1370
 7153SOL    HW225916   3.130  10.741   2.046 -1.6139  0.8114 -2.1228
 7154SOL     OW25917   5.600   7.438   7.219  0.7361  0.0888 -0.3072
 7154SOL    HW125918   5.548   7.438   7.299  1.4486  2.8520  0.2748
 7154SOL    HW225919   5.661   7.365   7.229 -2.1498 -2.5561 -0.5253
 7155SOL     OW25920   0.571   5.412   4.676 -0.1533  0.6450  0.6264
 7155SOL    HW125921   0.568   5.323   4.711  0.9813  0.4686  0.3072
 7155SOL    HW225922   0.483   5.447   4.693 -0.8157 -0.7313  0.2246
 7156SOL     OW25923   5.840   6.208   1.763  0.7433 -0.1191 -0.4566
 7156SOL    HW125924   5.924   6.206   1.717 -0.1745 -0.4407 -2.2079
 7156SOL    HW225925   5.864   6.208   1.856  2.6666 -0.5811 -0.8965
 7157SOL     OW25926   6.444  10.335   6.499 -0.6623 -0.2406  0.5213
 7157SOL    HW125927   6.526  10.293   6.529  0.2684  0.0295 -1.4837
 7157SOL    HW225928   6.416  10.281   6.425 -0.4342  1.5939 -0.9597
 7158SOL     OW25929   2.328   4.597   7.672  0.2535 -0.2342  0.0656
 7158SOL    HW125930   2.235   4.589   7.652  0.3293  0.6300 -0.6972
 7158SOL    HW225931   2.335   4.678   7.722  0.6197 -0.2047 -0.0287
 7159SOL     OW25932   5.350   4.823   8.043 -0.1838  0.0144 -0.0569
 7159SOL    HW125933   5.299   4.894   8.003 -2.4426 -0.6324  1.4217
 7159SOL    HW225934   5.315   4.817   8.132  0.2385 -2.6637  0.0053
 7160SOL     OW25935   2.846   0.381   7.629  0.5859  0.3018  0.0420
 7160SOL    HW125936   2.905   0.378   7.554 -1.6836  2.5502 -2.0198
 7160SOL    HW225937   2.811   0.292   7.635  1.7230 -0.2214 -0.7602
 7161SOL     OW25938   1.215   8.914   2.396  0.2028 -0.3004 -0.0855
 7161SOL    HW125939   1.281   8.978   2.422  1.5728 -2.2237  1.4626
 7161SOL    HW225940   1.248   8.876   2.315  0.2211 -0.2159 -0.1175
 7162SOL     OW25941   5.485   0.653   3.625 -0.0914 -0.4026  0.4742
 7162SOL    HW125942   5.471   0.624   3.535 -3.1718  2.5593 -0.1952
 7162SOL    HW225943   5.484   0.749   3.619  1.4129 -0.1103  3.4736
 7163SOL     OW25944   5.558  10.531   4.777  0.1192  0.0428 -0.0472
 7163SOL    HW125945   5.493  10.466   4.800 -1.1485  0.5823 -1.8724
 7163SOL    HW225946   5.593  10.562   4.861 -0.6331 -1.5629  0.8957
 7164SOL     OW25947   7.117   3.631  10.434  0.2487  0.3292 -0.0031
 7164SOL    HW125948   7.208   3.602  10.441  0.7427  1.7790 -0.2414
 7164SOL    HW225949   7.105   3.652  10.342 -0.3598  0.0749  0.0105
 7165SOL     OW25950   7.270   6.305   1.611 -0.3737 -0.2731  0.1262
 7165SOL    HW125951   7.286   6.314   1.517 -0.0965  0.6467  0.2576
 7165SOL    HW225952   7.187   6.258   1.617 -0.7294  0.2490 -0.5799
 7166SOL     OW25953   2.416   7.754   2.277  0.0014  0.0553 -0.1293
 7166SOL    HW125954   2.336   7.705   2.257 -1.2313  1.3460  1.3870
 7166SOL    HW225955   2.459   7.703   2.346  0.0682 -0.2268 -0.3783
 7167SOL     OW25956   8.515   2.738  10.438  0.1470  0.5548 -0.4109
 7167SOL    HW125957   8.528   2.643  10.431 -0.7415  0.1680  2.1567
 7167SOL    HW225958   8.594   2.770  10.482 -0.3800  0.6561  0.5071
 7168SOL     OW25959   8.396   2.739   6.777 -0.0797  0.4886 -0.6132
 7168SOL    HW125960   8.339   2.689   6.718 -1.1846  0.7103  0.2511
 7168SOL    HW225961   8.356   2.730   6.863  0.5669  1.5910 -0.1806
 7169SOL     OW25962   5.077   1.482  10.994 -0.5328  0.4754  0.1409
 7169SOL    HW125963   5.015   1.452  10.927  0.3559 -1.0857 -0.0325
 7169SOL    HW225964   5.093   1.405  11.049  0.0864  1.2603  1.1042
 7170SOL     OW25965   4.328   4.046   1.870 -0.4633 -0.1683  0.2426
 7170SOL    HW125966   4.346   4.118   1.931 -0.2897  0.3830 -0.4564
 7170SOL    HW225967   4.242   4.066   1.833  0.1568  0.3720 -0.9291
 7171SOL     OW25968   6.934   6.031   3.514 -0.2470 -0.4411  0.8989
 7171SOL    HW125969   6.889   6.079   3.583 -1.8783  0.7225 -0.8680
 7171SOL    HW225970   6.865   5.979   3.472  0.3514  0.0918 -0.8371
 7172SOL     OW25971   7.142   7.275   0.288 -0.2039 -0.3511 -0.0945
 7172SOL    HW125972   7.168   7.296   0.198  0.7034 -0.4772  0.1290
 7172SOL    HW225973   7.197   7.331   0.342 -0.7527 -0.2736  0.3899
 7173SOL     OW25974   8.170   4.042   7.492 -0.1934  0.3161 -0.0989
 7173SOL    HW125975   8.234   4.113   7.488 -0.1131  0.2760  0.3651
 7173SOL    HW225976   8.216   3.966   7.456 -0.4152  0.5933 -0.9718
 7174SOL     OW25977   6.821   4.647   7.518 -0.2021  0.0843 -0.2173
 7174SOL    HW125978   6.766   4.724   7.514 -1.3221 -0.7430 -1.8931
 7174SOL    HW225979   6.779   4.583   7.461  1.9446 -0.9586 -0.7747
 7175SOL     OW25980  10.519   3.873   3.037  0.4082 -0.5374 -0.3226
 7175SOL    HW125981  10.585   3.850   2.971  0.9293 -1.3582  0.4533
 7175SOL    HW225982  10.549   3.828   3.117 -0.6717 -0.2752  0.2454
 7176SOL     OW25983   3.272   1.676   0.644  0.5269  0.0253  0.0812
 7176SOL    HW125984   3.358   1.660   0.683  0.5813  0.0855 -0.0122
 7176SOL    HW225985   3.248   1.592   0.604  0.2032 -0.2043  0.7523
 7177SOL     OW25986  10.979   2.962  10.445 -0.1803 -0.2700 -0.4620
 7177SOL    HW125987  10.893   2.984  10.480 -0.9145 -3.2257 -0.1221
 7177SOL    HW225988  10.963   2.933  10.355  0.3923 -1.1318 -0.3044
 7178SOL     OW25989   7.606   2.236   5.470  0.0123  0.1177 -0.5168
 7178SOL    HW125990   7.540   2.167   5.469  1.2222 -1.1202  0.9012
 7178SOL    HW225991   7.556   2.317   5.462 -1.7969 -0.6991  1.6368
 7179SOL     OW25992   5.494   6.483   2.863 -0.2735 -0.2810  0.4515
 7179SOL    HW125993   5.546   6.461   2.787 -0.3190  0.0463  0.3237
 7179SOL    HW225994   5.507   6.577   2.876  0.7828 -0.5614  1.6414
 7180SOL     OW25995  10.089   2.486   0.915  0.0138 -0.1684 -0.1609
 7180SOL    HW125996  10.022   2.419   0.930  0.6193 -0.8094 -0.2866
 7180SOL    HW225997  10.062   2.529   0.835  0.0649 -0.8302 -0.5409
 7181SOL     OW25998   1.002   3.518   2.865  0.1775  0.3967  0.0132
 7181SOL    HW125999   0.907   3.532   2.866 -0.0219 -0.7577 -0.4359
 7181SOL    HW226000   1.012   3.431   2.826  1.4179  0.4453  0.1988
 7182SOL     OW26001   4.357   5.741   7.848 -0.7438 -0.4929  0.3386
 7182SOL    HW126002   4.267   5.747   7.816  0.4298  1.8870 -3.1380
 7182SOL    HW226003   4.406   5.706   7.774  1.1438 -2.8193  2.5147
 7183SOL     OW26004   4.920   2.930  10.950 -0.3012  0.3160  0.1121
 7183SOL    HW126005   4.848   2.890  10.997  1.3466 -2.4375  0.4997
 7183SOL    HW226006   4.973   2.972  11.017 -0.6847  0.9749  0.0143
 7184SOL     OW26007   2.981   5.229   1.259 -0.4625  0.3086 -0.1289
 7184SOL    HW126008   3.010   5.275   1.338  1.6523 -0.3037 -0.4680
 7184SOL    HW226009   2.911   5.171   1.290  0.4603 -0.0798  1.3843
 7185SOL     OW26010   9.486   1.909   1.627  0.2156 -0.3088 -0.5666
 7185SOL    HW126011   9.513   1.858   1.703  1.3716  0.4346 -0.4521
 7185SOL    HW226012   9.547   1.983   1.625 -0.4460  0.2323 -1.6208
 7186SOL     OW26013   7.134   4.927   7.885 -0.3457 -0.2525 -0.1937
 7186SOL    HW126014   7.147   4.841   7.926  1.3239  0.2023  0.3084
 7186SOL    HW226015   7.134   4.909   7.791  1.3091 -0.6780 -0.1373
 7187SOL     OW26016   9.977  10.001  10.337 -0.3361 -0.2511 -0.1212
 7187SOL    HW126017  10.043   9.950  10.289  1.3074  2.1116 -0.5428
 7187SOL    HW226018   9.981  10.088  10.297 -2.6731  0.3790  0.8794
 7188SOL     OW26019   7.650   9.595   7.799  0.2186  0.0472  0.6135
 7188SOL    HW126020   7.559   9.578   7.773  0.3578  0.5560 -0.2491
 7188SOL    HW226021   7.685   9.651   7.729  1.3701 -0.6185  0.6226
 7189SOL     OW26022   7.670   2.918   7.172 -0.1127  0.3026  0.2167
 7189SOL    HW126023   7.666   2.847   7.236 -0.5308 -0.3327 -0.4980
 7189SOL    HW226024   7.763   2.937   7.164  0.5099 -2.8759 -2.4490
 7190SOL     OW26025   2.036  10.065  10.540  0.2699 -0.4211 -0.4782
 7190SOL    HW126026   1.990  10.034  10.462  0.7683 -0.8284 -0.6090
 7190SOL    HW226027   2.044   9.988  10.596  0.7843 -0.3475 -0.4507
 7191SOL     OW26028   2.827   0.681  10.061 -0.1854 -0.0268  0.3888
 7191SOL    HW126029   2.819   0.595  10.102  0.3897  0.1584  0.9058
 7191SOL    HW226030   2.741   0.720  10.071  0.1874  0.3760  2.2654
 7192SOL     OW26031   7.222  10.661   3.669 -0.2453 -0.5052 -0.0361
 7192SOL    HW126032   7.282  10.724   3.629 -0.1875 -0.1632  0.5759
 7192SOL    HW226033   7.203  10.697   3.756 -1.3702 -0.5782 -0.2304
 7193SOL     OW26034   0.829   7.796   6.341  0.6152 -0.0096 -0.1017
 7193SOL    HW126035   0.901   7.802   6.279 -0.2555 -0.7517 -1.2094
 7193SOL    HW226036   0.778   7.720   6.313 -0.9907  0.8970  0.2296
 7194SOL     OW26037   4.659   5.761   4.288 -0.3004  0.6030  0.3659
 7194SOL    HW126038   4.669   5.813   4.368 -0.7703  0.8708  0.2510
 7194SOL    HW226039   4.690   5.818   4.218 -1.5611  1.0312  0.1427
 7195SOL     OW26040   9.541   7.556   2.487  0.3034 -0.0603  0.3771
 7195SOL    HW126041   9.500   7.482   2.443  0.8757  0.5268 -1.1962
 7195SOL    HW226042   9.608   7.517   2.543 -1.5997 -0.9468  2.1596
 7196SOL     OW26043   7.628   8.926   2.355 -0.5054 -0.0975 -0.1080
 7196SOL    HW126044   7.543   8.895   2.387  0.0846  0.7199  2.5305
 7196SOL    HW226045   7.686   8.850   2.366 -0.5057 -0.1122 -0.2044
 7197SOL     OW26046   5.771   0.838   6.477 -0.1532 -1.0321 -0.0028
 7197SOL    HW126047   5.792   0.784   6.554  0.2768  0.6348  1.1032
 7197SOL    HW226048   5.850   0.888   6.461 -0.2614 -1.3177 -1.5377
 7198SOL     OW26049   7.634   3.890   1.384  0.0211  0.8598 -0.6250
 7198SOL    HW126050   7.708   3.834   1.363 -1.1912 -0.2234 -2.2974
 7198SOL    HW226051   7.570   3.832   1.425 -0.4038  1.4812 -0.3905
 7199SOL     OW26052  10.042  10.355   1.344 -0.3244 -0.2234 -0.5529
 7199SOL    HW126053  10.061  10.278   1.291  0.8151  0.1963 -0.7868
 7199SOL    HW226054   9.978  10.325   1.409  0.0828 -1.3535 -0.6520
 7200SOL     OW26055   2.701   5.158   2.581 -0.1126 -0.2917  0.0407
 7200SOL    HW126056   2.743   5.146   2.496  1.3372 -0.6176  0.7893
 7200SOL    HW226057   2.616   5.198   2.560  0.7160  0.7705 -1.4756
 7201SOL     OW26058   7.878   8.531   1.951  0.6386  0.1944 -0.2279
 7201SOL    HW126059   7.842   8.489   1.873  0.0677  0.1715  0.0419
 7201SOL    HW226060   7.906   8.458   2.006 -0.2776  0.1518  0.2048
 7202SOL     OW26061   9.442   6.518  10.349  0.5166  0.2015 -0.0212
 7202SOL    HW126062   9.381   6.574  10.397  0.0582 -1.1533  1.0300
 7202SOL    HW226063   9.496   6.478  10.417  0.9434 -0.5116 -0.7613
 7203SOL     OW26064   0.379   2.431   2.630 -0.5667  0.5468 -0.1068
 7203SOL    HW126065   0.391   2.339   2.605  1.9458  0.6430  0.5152
 7203SOL    HW226066   0.413   2.481   2.556  2.4345  0.8592  1.3481
 7204SOL     OW26067   1.762   1.948   2.303  0.4901  0.2253 -0.0235
 7204SOL    HW126068   1.768   1.990   2.218  0.4039 -2.0856 -1.2550
 7204SOL    HW226069   1.672   1.918   2.310  0.5029  0.3615  0.8702
 7205SOL     OW26070   4.061   4.101   8.437  0.2211 -0.2055  0.3891
 7205SOL    HW126071   4.091   4.189   8.413  1.5511 -1.1032 -1.4915
 7205SOL    HW226072   4.140   4.047   8.433 -0.7815 -1.7232  0.2148
 7206SOL     OW26073   9.436   4.011   3.227 -0.2280  0.2731  0.2083
 7206SOL    HW126074   9.421   3.917   3.224 -1.1946  0.3964  0.7577
 7206SOL    HW226075   9.527   4.022   3.202  0.5883 -0.9887  2.4011
 7207SOL     OW26076   6.979   1.447   1.995  0.0368  0.2916  0.5385
 7207SOL    HW126077   6.889   1.426   1.969 -0.6300  2.8508  0.5135
 7207SOL    HW226078   6.976   1.449   2.091 -0.2074  1.3262  0.5204
 7208SOL     OW26079   6.430   9.233   5.173  0.4286 -0.1284 -0.1886
 7208SOL    HW126080   6.381   9.173   5.117  1.3484 -0.6581 -0.4482
 7208SOL    HW226081   6.471   9.176   5.239  1.3845  0.1897 -0.4862
 7209SOL     OW26082   8.206  10.157   9.010  0.1769 -0.3039  0.0437
 7209SOL    HW126083   8.178  10.187   9.097 -0.0975  1.5902 -0.6401
 7209SOL    HW226084   8.237  10.237   8.967 -0.2249 -1.0955 -1.7966
 7210SOL     OW26085   8.464   6.586   6.238 -0.0734 -0.8049 -0.1493
 7210SOL    HW126086   8.526   6.539   6.294  0.1086 -0.9679 -0.4821
 7210SOL    HW226087   8.477   6.679   6.260  0.8800 -0.7668 -0.7927
 7211SOL     OW26088   7.129   2.533   3.518  0.5802  0.3793 -0.3254
 7211SOL    HW126089   7.187   2.596   3.561 -0.3003  0.7561  0.3402
 7211SOL    HW226090   7.108   2.573   3.434  0.5263  0.6853 -0.1691
 7212SOL     OW26091   2.660   8.320  10.376 -0.7014 -0.9935 -0.3260
 7212SOL    HW126092   2.643   8.394  10.435 -0.6068 -1.0176 -0.2690
 7212SOL    HW226093   2.607   8.249  10.412 -0.8617 -0.9302 -0.4325
 7213SOL     OW26094   3.172  10.220   8.509 -0.2540 -0.1364  0.2408
 7213SOL    HW126095   3.175  10.296   8.568 -1.8005 -0.0345  0.2322
 7213SOL    HW226096   3.087  10.180   8.526 -0.1878 -0.8652 -1.0108
 7214SOL     OW26097   5.745   3.944   2.031 -0.8115 -0.2190  0.4286
 7214SOL    HW126098   5.765   4.038   2.027  1.3681 -0.5893  1.2524
 7214SOL    HW226099   5.664   3.935   1.982 -0.1919  1.8549 -1.1480
 7215SOL     OW26100   6.603   4.549   1.461 -0.3963 -0.4326  0.4905
 7215SOL    HW126101   6.659   4.488   1.510  2.7248  0.7352 -1.3300
 7215SOL    HW226102   6.587   4.621   1.521  0.1357 -0.7582  1.0363
 7216SOL     OW26103   7.603   4.923   4.038 -0.1193 -0.1882  0.4403
 7216SOL    HW126104   7.532   4.892   3.980  0.8029 -0.8144 -0.3861
 7216SOL    HW226105   7.679   4.873   4.011  0.5562  0.1642  1.6196
 7217SOL     OW26106   3.792   7.188   8.807  0.2897  0.3475 -0.0547
 7217SOL    HW126107   3.885   7.180   8.828  0.2765  0.1061 -0.0810
 7217SOL    HW226108   3.764   7.269   8.850  0.2102 -0.2465  1.0430
 7218SOL     OW26109   5.943   3.776   0.611 -0.0175  0.2691 -0.0727
 7218SOL    HW126110   6.035   3.802   0.607  0.0757 -0.1531 -0.8520
 7218SOL    HW226111   5.912   3.782   0.521 -0.8775  0.8248  0.2523
 7219SOL     OW26112   2.714   6.353   7.024  0.5268  0.2776 -0.3805
 7219SOL    HW126113   2.687   6.264   7.048  0.7052  0.3797  0.2244
 7219SOL    HW226114   2.751   6.388   7.105  1.0167  0.6883 -0.7846
 7220SOL     OW26115   3.103   3.539   9.549  0.2807 -0.2411 -0.4517
 7220SOL    HW126116   3.082   3.446   9.561  1.0991 -0.4347 -0.4670
 7220SOL    HW226117   3.069   3.582   9.628  0.7891 -0.6994  0.0202
 7221SOL     OW26118   6.383   6.012   6.241  0.1144  0.1745  0.8978
 7221SOL    HW126119   6.334   5.931   6.255 -0.8954  1.0104  2.6849
 7221SOL    HW226120   6.398   6.016   6.147 -0.0838 -1.9156  0.7392
 7222SOL     OW26121   3.284   1.750   3.359  0.4319 -0.1863  0.3928
 7222SOL    HW126122   3.276   1.716   3.270 -1.4409 -0.5235  0.6499
 7222SOL    HW226123   3.235   1.832   3.358  2.2542  0.9525  0.5918
 7223SOL     OW26124  10.040   6.452   7.757  0.1885 -0.0535  0.4170
 7223SOL    HW126125  10.098   6.380   7.784  0.8556  0.8518  1.5000
 7223SOL    HW226126  10.084   6.531   7.788 -1.1033  0.7438  0.3006
 7224SOL     OW26127   2.498   3.359   1.879 -0.0265 -0.3138  0.4969
 7224SOL    HW126128   2.434   3.289   1.884  0.7757 -1.0053  1.3758
 7224SOL    HW226129   2.517   3.368   1.786  0.5932 -1.9387  0.4486
 7225SOL     OW26130   6.924   7.192   3.918 -0.2722 -0.2198  0.3850
 7225SOL    HW126131   6.919   7.103   3.885 -0.0722  0.3955 -1.4011
 7225SOL    HW226132   7.017   7.203   3.940 -0.6585 -1.1396  2.7930
 7226SOL     OW26133   0.376   6.619   9.648 -0.2321 -0.3971  0.0446
 7226SOL    HW126134   0.442   6.577   9.593 -1.1353 -0.0272 -1.3621
 7226SOL    HW226135   0.396   6.588   9.737  3.3403  1.6050  0.1134
 7227SOL     OW26136   5.273   4.669   4.145  0.7459  0.2210  0.4247
 7227SOL    HW126137   5.243   4.652   4.056  1.6720  2.3813 -0.3600
 7227SOL    HW226138   5.337   4.599   4.162  0.6164 -0.1697 -0.6250
 7228SOL     OW26139   6.082   6.145   9.742 -0.8551 -0.5706 -0.5649
 7228SOL    HW126140   6.151   6.152   9.675 -0.1852  0.6290  0.2104
 7228SOL    HW226141   6.089   6.055   9.774  0.4459 -0.4458 -0.4240
 7229SOL     OW26142   7.903   0.494   7.073  1.1288 -0.1760  0.4545
 7229SOL    HW126143   7.910   0.558   7.144  0.0265  0.6009 -0.1126
 7229SOL    HW226144   7.865   0.416   7.114 -0.1589  0.5078  0.5856
 7230SOL     OW26145   0.074   1.605   0.809 -0.3850  0.5644  0.5333
 7230SOL    HW126146   0.160   1.647   0.804  0.0190 -0.3631 -0.6533
 7230SOL    HW226147   0.089   1.524   0.858  0.2387 -1.4274 -2.6997
 7231SOL     OW26148   9.365   4.761   6.397 -0.2279  0.1387  0.2127
 7231SOL    HW126149   9.307   4.785   6.470  1.3453  1.7547  1.0346
 7231SOL    HW226150   9.367   4.839   6.342  0.9737  0.0515  0.1059
 7232SOL     OW26151  10.051   3.499   2.451  0.6314  0.2282 -0.0770
 7232SOL    HW126152  10.141   3.497   2.481  1.0833  2.3298 -1.1284
 7232SOL    HW226153  10.011   3.573   2.497  0.2398  1.0186 -1.6261
 7233SOL     OW26154   8.749   7.331   2.678  0.4669 -0.1877  0.4655
 7233SOL    HW126155   8.744   7.322   2.773  1.7749  0.9981  0.6863
 7233SOL    HW226156   8.795   7.414   2.664 -0.7857  0.2760 -1.2296
 7234SOL     OW26157   0.972   0.599   2.329  0.1638  0.0541  0.0873
 7234SOL    HW126158   1.062   0.568   2.343 -0.0226 -0.2357  0.7096
 7234SOL    HW226159   0.923   0.565   2.405 -0.5063  0.0600 -0.3299
 7235SOL     OW26160   4.274   3.954   6.465 -0.1248 -0.1029 -0.1184
 7235SOL    HW126161   4.263   3.907   6.383 -1.1356  0.3578 -0.2549
 7235SOL    HW226162   4.247   4.043   6.446  0.4005  0.2015  0.5131
 7236SOL     OW26163   7.777   2.562   1.341 -0.0140 -0.3378  0.0473
 7236SOL    HW126164   7.834   2.489   1.363 -0.5423 -1.1229 -1.1151
 7236SOL    HW226165   7.816   2.637   1.385  1.4233 -1.0194 -0.0178
 7237SOL     OW26166   6.266   4.874   3.193 -0.4664  0.1583  0.0393
 7237SOL    HW126167   6.234   4.840   3.276 -2.4673 -0.7940 -1.0442
 7237SOL    HW226168   6.304   4.959   3.215 -0.0185 -0.4996  2.0466
 7238SOL     OW26169   2.839   8.581   2.798  0.3183  0.9529  0.3837
 7238SOL    HW126170   2.905   8.606   2.862  0.5169  2.8721 -0.5096
 7238SOL    HW226171   2.793   8.662   2.776 -0.6190  0.1245 -0.9339
 7239SOL     OW26172   5.255   9.393   0.187 -0.0894  0.1892  0.4916
 7239SOL    HW126173   5.221   9.368   0.101 -0.3408 -0.6947  0.8369
 7239SOL    HW226174   5.197   9.349   0.249  0.7789 -0.1264  1.1003
 7240SOL     OW26175   3.732   6.660   9.621  0.6231  0.0446  0.1167
 7240SOL    HW126176   3.639   6.678   9.609  1.0687  1.7075 -1.3126
 7240SOL    HW226177   3.739   6.565   9.620 -0.8490 -0.1021 -1.8260
 7241SOL     OW26178   3.845   1.820   3.530 -0.2231 -0.1348  0.1564
 7241SOL    HW126179   3.813   1.835   3.619 -2.3922  1.0877 -0.7484
 7241SOL    HW226180   3.837   1.725   3.517  1.4298 -0.5359  1.6715
 7242SOL     OW26181   0.186   7.168   2.957 -0.0756 -0.5835  0.9369
 7242SOL    HW126182   0.222   7.152   2.870 -0.8181  0.2443  0.4516
 7242SOL    HW226183   0.251   7.133   3.017  1.7962  1.2278  0.1204
 7243SOL     OW26184   8.529   0.249   5.782 -0.3281 -0.0898 -0.0544
 7243SOL    HW126185   8.538   0.161   5.745 -1.6847 -0.1438 -0.3067
 7243SOL    HW226186   8.439   0.252   5.816  0.7303  0.0440  3.0733
 7244SOL     OW26187   3.815   4.371   9.215 -0.5329  0.1455 -0.7521
 7244SOL    HW126188   3.736   4.317   9.219  0.3232 -1.0872  1.3712
 7244SOL    HW226189   3.855   4.348   9.132 -1.6022 -0.4217 -1.1311
 7245SOL     OW26190   3.636   5.770   3.610 -0.3395 -0.4637 -0.3365
 7245SOL    HW126191   3.679   5.780   3.525 -0.6074 -0.1028 -0.4297
 7245SOL    HW226192   3.544   5.791   3.594 -0.7335 -2.0652 -0.3170
 7246SOL     OW26193   6.922   6.995   9.954 -0.1955 -0.5345  0.0704
 7246SOL    HW126194   6.846   6.998  10.012 -0.9719 -0.2842 -0.9470
 7246SOL    HW226195   6.894   7.039   9.874  1.2368  0.1561 -0.0818
 7247SOL     OW26196   3.792   5.398   5.101  0.0192 -0.7359  0.2281
 7247SOL    HW126197   3.757   5.357   5.021  0.0415  0.3517 -0.3551
 7247SOL    HW226198   3.884   5.414   5.081  0.1591 -0.9744  0.6867
 7248SOL     OW26199   7.379   9.043   7.858  0.1062 -0.0124  0.7761
 7248SOL    HW126200   7.448   9.042   7.924  0.8337  0.8325  0.0541
 7248SOL    HW226201   7.328   9.122   7.878 -1.5089 -1.3182  2.1198
 7249SOL     OW26202   7.834   6.017   6.834 -0.1917 -0.0855 -0.4629
 7249SOL    HW126203   7.772   6.018   6.907  1.8685  1.0853  1.4022
 7249SOL    HW226204   7.835   5.926   6.805 -0.0287 -0.9318  1.9647
 7250SOL     OW26205   9.307   1.942   9.870  0.7005  0.0080 -0.0735
 7250SOL    HW126206   9.327   1.861   9.823  2.3340  0.0466  0.4855
 7250SOL    HW226207   9.308   1.917   9.963 -1.1288  0.2070  0.0302
 7251SOL     OW26208  10.866   6.800   3.183 -0.1497  0.0461 -0.5121
 7251SOL    HW126209  10.880   6.758   3.098 -0.2315 -0.8439 -0.0910
 7251SOL    HW226210  10.948   6.845   3.201  0.0406 -0.1661 -0.8376
 7252SOL     OW26211   3.265   5.023  10.758 -0.3311  0.0943 -0.9139
 7252SOL    HW126212   3.177   5.003  10.789 -0.1723 -0.8819 -1.0612
 7252SOL    HW226213   3.275   4.970  10.679  1.0031 -1.2178  0.0687
 7253SOL     OW26214  10.036   3.775   5.258 -0.5100 -0.7146 -0.3377
 7253SOL    HW126215  10.020   3.744   5.169 -1.5433 -0.5736 -0.2057
 7253SOL    HW226216   9.951   3.807   5.289  0.1098  0.4616  0.2263
 7254SOL     OW26217   1.424   2.946   9.875  0.5861 -0.0083 -0.3370
 7254SOL    HW126218   1.433   2.971   9.783  1.9975 -1.8501 -0.7334
 7254SOL    HW226219   1.506   2.975   9.916 -0.2355  1.2503  0.4888
 7255SOL     OW26220  10.084   4.362  10.988 -0.2823  0.2670  0.4486
 7255SOL    HW126221  10.100   4.451  10.956 -2.0190  0.6927  0.6654
 7255SOL    HW226222  10.120   4.361  11.076  1.1312  0.2578 -0.1061
 7256SOL     OW26223   6.086   4.212  10.778  0.2065 -0.1038  0.0213
 7256SOL    HW126224   6.143   4.248  10.846 -1.0617  0.6691  0.7245
 7256SOL    HW226225   6.065   4.287  10.722  0.0928 -0.4331 -0.3815
 7257SOL     OW26226   0.929   3.104  11.057  0.5477  0.5430 -0.5479
 7257SOL    HW126227   0.902   3.148  10.976 -2.6056 -0.2126 -0.0411
 7257SOL    HW226228   0.939   3.012  11.033 -0.9235  0.2256 -0.0203
 7258SOL     OW26229   2.421   2.284   0.119 -0.0742 -0.5498 -0.4870
 7258SOL    HW126230   2.337   2.246   0.092 -0.6696  2.7084 -4.1431
 7258SOL    HW226231   2.397   2.365   0.164  1.0840 -0.1603 -0.5481
 7259SOL     OW26232   0.441   3.037   4.448  0.5165  0.3992  0.4752
 7259SOL    HW126233   0.446   2.942   4.454  0.9261  0.4812  1.8935
 7259SOL    HW226234   0.366   3.054   4.391  0.8284 -0.7679 -0.3073
 7260SOL     OW26235   8.094   6.118   4.284 -0.1834  0.5767 -0.2498
 7260SOL    HW126236   8.076   6.045   4.343 -2.1519  1.6531  0.5729
 7260SOL    HW226237   8.018   6.123   4.227 -0.1069  1.9941 -0.2750
 7261SOL     OW26238   3.615   3.410  10.082 -0.0924 -0.0423  0.4222
 7261SOL    HW126239   3.628   3.423  10.176 -0.6552 -0.4332  0.5630
 7261SOL    HW226240   3.529   3.368  10.076  0.2469 -0.6585 -0.2154
 7262SOL     OW26241   2.279  10.374   2.261  0.3157 -0.5815  0.1733
 7262SOL    HW126242   2.319  10.322   2.190  1.9233 -1.0899  1.3874
 7262SOL    HW226243   2.298  10.464   2.237 -1.4865 -0.5465 -1.3634
 7263SOL     OW26244   1.622   8.851   9.951  0.2214  0.7514  0.1450
 7263SOL    HW126245   1.547   8.813   9.997  1.0523  0.3839  1.2473
 7263SOL    HW226246   1.679   8.777   9.933  1.2194  1.2641  1.0784
 7264SOL     OW26247   9.798  10.120   3.970  0.1154  0.7055 -0.4605
 7264SOL    HW126248   9.783  10.026   3.953 -0.2853  0.9253 -1.3984
 7264SOL    HW226249   9.869  10.144   3.910 -0.1967  1.1319 -0.6673
 7265SOL     OW26250   2.274   4.383   2.657 -0.2269 -0.0348 -0.1840
 7265SOL    HW126251   2.196   4.410   2.705  0.1544  2.1396 -0.7143
 7265SOL    HW226252   2.339   4.366   2.726 -0.7814 -0.6547  0.1985
 7266SOL     OW26253   8.548   8.347  10.345 -0.1510  0.1460  0.6792
 7266SOL    HW126254   8.498   8.415  10.299 -0.4088  0.0023  0.7466
 7266SOL    HW226255   8.482   8.300  10.396  0.1534  0.4172  1.3330
 7267SOL     OW26256   1.210   8.747   3.982  0.1159 -0.1050  0.3528
 7267SOL    HW126257   1.151   8.684   3.941 -0.8834 -0.1691  1.8258
 7267SOL    HW226258   1.279   8.693   4.021 -1.3091 -0.4344  2.5407
 7268SOL     OW26259   6.602  10.273   9.163  0.2876  0.2460  0.0033
 7268SOL    HW126260   6.649  10.195   9.137  1.6880  0.9465  0.3475
 7268SOL    HW226261   6.586  10.320   9.081 -0.4044 -0.2866 -0.1826
 7269SOL     OW26262   7.402   7.005   2.053  0.6366  0.7068 -0.0267
 7269SOL    HW126263   7.465   7.004   2.125 -1.2050  1.4279  1.6822
 7269SOL    HW226264   7.405   7.095   2.020  0.4604  0.7590  0.0991
 7270SOL     OW26265   3.246   8.128   0.456 -0.0652 -0.2081 -0.0930
 7270SOL    HW126266   3.238   8.097   0.547  0.4564  0.8407  0.3311
 7270SOL    HW226267   3.216   8.055   0.403 -0.5152 -0.7926  0.9375
 7271SOL     OW26268   8.321   7.988   4.198 -0.6568  0.1879 -0.3678
 7271SOL    HW126269   8.396   7.940   4.234  0.2286  1.1651 -0.8353
 7271SOL    HW226270   8.282   7.928   4.135  2.6790  1.2044 -3.8137
 7272SOL     OW26271   6.940   3.250   6.141  0.5879 -0.4586 -0.9648
 7272SOL    HW126272   6.935   3.154   6.150  0.1621 -0.3060  0.8212
 7272SOL    HW226273   7.033   3.270   6.152  0.6898 -0.6535 -1.4226
 7273SOL     OW26274   3.532   5.380   6.154  0.0377 -0.2407 -0.2241
 7273SOL    HW126275   3.596   5.322   6.111  1.1119  1.6469 -1.2765
 7273SOL    HW226276   3.448   5.339   6.135  0.8278 -3.5365  2.3049
 7274SOL     OW26277   8.453   8.312   4.831  0.0097 -1.0786  0.5611
 7274SOL    HW126278   8.479   8.239   4.887  2.7040  0.4509  1.5122
 7274SOL    HW226279   8.536   8.357   4.811 -1.4561  1.3853 -0.4212
 7275SOL     OW26280   5.624   4.917  10.156  0.6562 -0.3693  0.3462
 7275SOL    HW126281   5.619   4.996  10.209  0.9016 -0.7388  0.9252
 7275SOL    HW226282   5.587   4.848  10.210  0.1607 -0.6017 -0.2715
 7276SOL     OW26283   0.243   2.539  10.421 -0.4043 -0.1369 -0.1691
 7276SOL    HW126284   0.180   2.503  10.483  0.2244  0.1715  0.6743
 7276SOL    HW226285   0.254   2.470  10.355 -0.9580 -0.5417  0.1509
 7277SOL     OW26286  10.573   1.707   5.619  0.2935  0.1427  0.2579
 7277SOL    HW126287  10.517   1.680   5.692  0.3975 -0.3611  0.1553
 7277SOL    HW226288  10.596   1.626   5.575 -1.9689  0.5672 -1.9647
 7278SOL     OW26289   4.237   3.887   9.097 -0.1035  0.0667  0.3144
 7278SOL    HW126290   4.196   3.820   9.042 -2.0388 -0.0842  1.8711
 7278SOL    HW226291   4.262   3.956   9.035  0.2908 -1.2477 -1.0819
 7279SOL     OW26292   2.529   7.691   7.768 -0.0206  0.0663 -0.4449
 7279SOL    HW126293   2.457   7.716   7.826  1.1618  1.0750  0.6491
 7279SOL    HW226294   2.490   7.688   7.681 -1.7071 -0.8427  0.2911
 7280SOL     OW26295   9.164   9.500   4.200  0.1344  0.0674  0.3566
 7280SOL    HW126296   9.103   9.534   4.134  0.4276 -0.0902 -0.0028
 7280SOL    HW226297   9.185   9.576   4.254  0.9574  0.5246 -0.5789
 7281SOL     OW26298   2.180   6.986   8.442 -0.0088  0.2142  1.1665
 7281SOL    HW126299   2.124   6.991   8.364  1.3441  2.0272  0.2199
 7281SOL    HW226300   2.200   6.893   8.451  1.3598  0.0754 -1.9043
 7282SOL     OW26301   3.472   8.143   4.297 -0.1142  0.2167 -0.4955
 7282SOL    HW126302   3.538   8.077   4.281 -0.4241 -0.8320  2.0718
 7282SOL    HW226303   3.404   8.098   4.348 -1.6894  1.8250 -1.0540
 7283SOL     OW26304   6.512  11.045   0.279  0.2351 -0.1199  0.0848
 7283SOL    HW126305   6.574  11.039   0.206 -0.2437 -1.1751 -0.2618
 7283SOL    HW226306   6.564  11.078   0.352  0.7131  1.0296 -0.7336
 7284SOL     OW26307   4.488   2.651   7.118 -0.1683 -0.4633 -0.2662
 7284SOL    HW126308   4.531   2.735   7.132  0.6216 -0.9157  0.1234
 7284SOL    HW226309   4.395   2.670   7.129  0.0453  0.2313  0.5083
 7285SOL     OW26310   8.091   3.832   3.384 -0.4597  0.2137 -0.4390
 7285SOL    HW126311   8.101   3.737   3.392  0.9271  0.2887 -0.9802
 7285SOL    HW226312   7.996   3.847   3.391 -0.5277 -0.9629  1.8910
 7286SOL     OW26313   1.134  10.538   6.532 -0.2383 -0.6330 -0.1099
 7286SOL    HW126314   1.184  10.614   6.562  0.9508 -1.4173 -0.0074
 7286SOL    HW226315   1.157  10.530   6.439 -0.8174 -0.5323 -0.2647
 7287SOL     OW26316   0.795   1.098   5.090  0.1194 -0.1824  0.1495
 7287SOL    HW126317   0.861   1.042   5.050  0.2373 -1.4212  1.9904
 7287SOL    HW226318   0.839   1.182   5.102  2.1277 -1.4750  3.0364
 7288SOL     OW26319   8.243   8.906   3.476 -0.3162  0.1977 -0.2866
 7288SOL    HW126320   8.266   8.814   3.485 -4.6396 -0.8929  3.1733
 7288SOL    HW226321   8.326   8.953   3.483  1.7790 -3.2838  0.5651
 7289SOL     OW26322   6.476   8.018   7.966  0.4608  0.4116  0.1406
 7289SOL    HW126323   6.556   7.992   7.921  1.0070  0.5563  1.0142
 7289SOL    HW226324   6.469   8.112   7.950  0.0846  0.2822 -0.5102
 7290SOL     OW26325   9.952   0.263   1.028  0.7472 -0.2654  0.6698
 7290SOL    HW126326  10.046   0.264   1.008  0.2298  0.3628 -2.2841
 7290SOL    HW226327   9.912   0.312   0.956 -1.9764 -1.5915  1.1542
 7291SOL     OW26328   9.469   5.053   4.343  0.1691  0.5336 -0.4018
 7291SOL    HW126329   9.421   5.011   4.415  0.2475  2.0442  0.5977
 7291SOL    HW226330   9.405   5.060   4.272  0.2461 -1.4775 -0.7172
 7292SOL     OW26331   8.075   5.638   9.936 -0.2907 -0.1874  0.2900
 7292SOL    HW126332   8.092   5.721   9.891 -0.8962 -1.0855 -1.7109
 7292SOL    HW226333   8.098   5.571   9.872 -2.0184 -1.5316  1.0069
 7293SOL     OW26334   1.805   4.062   2.549 -0.7834 -0.3675 -0.0608
 7293SOL    HW126335   1.810   4.115   2.468 -1.0807  0.3603  0.3860
 7293SOL    HW226336   1.775   4.124   2.615 -3.0197 -1.5284  0.0921
 7294SOL     OW26337   4.091   7.260   1.450  1.0587 -0.0881  0.0957
 7294SOL    HW126338   4.069   7.173   1.418  0.4331 -0.1181  0.5792
 7294SOL    HW226339   4.035   7.272   1.528  0.0890  1.2820 -0.7611
 7295SOL     OW26340   8.987   4.045   5.662 -0.2283 -0.4987 -0.6656
 7295SOL    HW126341   8.948   4.085   5.584  1.1123  0.7708 -0.7323
 7295SOL    HW226342   9.060   3.994   5.629  1.0057  0.8970 -0.2047
 7296SOL     OW26343   3.286   2.650   2.137 -0.0007  0.2832 -0.2558
 7296SOL    HW126344   3.372   2.650   2.095  0.1297  1.0290 -0.0052
 7296SOL    HW226345   3.280   2.564   2.179  0.3560 -0.0136 -0.7962
 7297SOL     OW26346   5.504   8.929   7.415  0.3135 -0.3651 -0.6580
 7297SOL    HW126347   5.457   9.013   7.409 -0.8916 -0.9881 -0.3661
 7297SOL    HW226348   5.478   8.881   7.337 -0.7292 -1.2859  0.2161
 7298SOL     OW26349   6.047   2.378   3.212 -0.0355  0.7785  0.3873
 7298SOL    HW126350   6.060   2.473   3.221  1.3214  0.7821 -1.1722
 7298SOL    HW226351   6.126   2.339   3.249 -0.4290  0.2727  0.7026
 7299SOL     OW26352   4.131   4.480   0.961 -0.6612 -0.8253  0.0720
 7299SOL    HW126353   4.139   4.416   1.032 -0.4464 -1.1675 -0.2530
 7299SOL    HW226354   4.165   4.434   0.884  1.4945  0.3903  0.2301
 7300SOL     OW26355   7.970   3.254  10.300  0.1236  0.0337  0.1491
 7300SOL    HW126356   8.052   3.235  10.255 -0.2120 -2.1297  0.3277
 7300SOL    HW226357   7.909   3.277  10.230  0.9821  2.3818  0.0721
 7301SOL     OW26358  10.200   6.657   6.112  0.2442  0.0967 -0.1794
 7301SOL    HW126359  10.200   6.562   6.103  1.0608  0.0442  0.2778
 7301SOL    HW226360  10.146   6.688   6.039 -1.4145 -0.7872  0.6392
 7302SOL     OW26361  10.007   8.763  10.735  0.1494 -0.1960  0.5231
 7302SOL    HW126362  10.039   8.852  10.715 -2.2602  0.7479  0.6005
 7302SOL    HW226363  10.056   8.707  10.674  0.1511  1.4530 -1.1017
 7303SOL     OW26364   8.321   3.672   7.056  0.0549  0.3489 -0.2406
 7303SOL    HW126365   8.398   3.725   7.037  0.0686  0.1905 -0.6219
 7303SOL    HW226366   8.320   3.605   6.988  0.4333 -0.5738  0.6421
 7304SOL     OW26367   5.481   1.296   4.403 -0.4639 -0.1895 -0.1596
 7304SOL    HW126368   5.445   1.222   4.453 -0.5717 -0.0392 -0.0138
 7304SOL    HW226369   5.464   1.373   4.458  0.5726 -0.1770  0.1643
 7305SOL     OW26370   2.776  10.500   1.088 -0.3316  0.7180 -0.1168
 7305SOL    HW126371   2.830  10.580   1.090 -0.2450  0.6574 -0.0601
 7305SOL    HW226372   2.719  10.508   1.164 -0.1901  0.6340  0.0005
 7306SOL     OW26373   8.760   9.058   5.872 -0.2255  0.0456 -0.0999
 7306SOL    HW126374   8.700   8.995   5.834 -0.3371 -0.3408  0.6854
 7306SOL    HW226375   8.744   9.139   5.823 -0.9913 -0.1995 -0.2710
 7307SOL     OW26376   0.662   8.882   6.511  0.3497 -0.0203 -0.0309
 7307SOL    HW126377   0.707   8.836   6.441  1.3887 -0.4457  0.8778
 7307SOL    HW226378   0.615   8.814   6.558 -1.4733  0.4512 -1.0976
 7308SOL     OW26379   9.244   7.573  10.137 -0.0178  0.0052  0.0905
 7308SOL    HW126380   9.292   7.633  10.194  0.3488  0.2353 -0.4545
 7308SOL    HW226381   9.307   7.550  10.069 -0.5864  0.0551 -0.4510
 7309SOL     OW26382   1.795   1.674  10.136  0.1600 -0.3302 -0.4481
 7309SOL    HW126383   1.769   1.725  10.213  0.0080 -0.4316 -0.4340
 7309SOL    HW226384   1.716   1.668  10.083  0.1996 -0.4842 -0.4889
 7310SOL     OW26385  10.110   1.161   3.272  0.0555 -0.1321  0.1651
 7310SOL    HW126386  10.087   1.204   3.354 -1.9261 -0.5896 -0.0946
 7310SOL    HW226387  10.036   1.102   3.254 -0.1099  0.7669 -2.4924
 7311SOL     OW26388   0.218   8.314  10.513 -0.2277 -0.5336  0.0359
 7311SOL    HW126389   0.268   8.361  10.580  0.2964 -1.2729  0.1768
 7311SOL    HW226390   0.239   8.360  10.431 -0.2123 -0.1389  0.2597
 7312SOL     OW26391   3.332   3.915   7.785  0.3344 -0.0141 -0.0846
 7312SOL    HW126392   3.348   3.829   7.825  0.2730  0.5218  1.1396
 7312SOL    HW226393   3.238   3.928   7.793  0.6885  1.7365  3.2559
 7313SOL     OW26394   1.007   0.093   0.101 -0.0316 -0.0349 -0.3625
 7313SOL    HW126395   0.980   0.185   0.096 -0.9428 -0.1640  1.4541
 7313SOL    HW226396   1.066   0.089   0.176 -0.9170 -1.1264  0.3066
 7314SOL     OW26397  11.022   1.676   4.227  0.5490  0.1362  0.4704
 7314SOL    HW126398  10.953   1.652   4.290  0.6037  0.9226  0.8334
 7314SOL    HW226399  11.023   1.603   4.165  1.0682 -1.0994  1.8427
 7315SOL     OW26400   8.562  10.196   8.005 -0.0592  0.8390  0.5994
 7315SOL    HW126401   8.599  10.284   7.999 -0.5798  1.0383  0.2096
 7315SOL    HW226402   8.606  10.157   8.080  1.2189  0.9283 -0.0749
 7316SOL     OW26403  10.941   3.547   0.883  0.3843 -0.2244 -0.1782
 7316SOL    HW126404  10.860   3.515   0.923  0.5871  0.8800  1.2160
 7316SOL    HW226405  11.009   3.523   0.946  0.9233  0.2944 -0.5530
 7317SOL     OW26406   9.397   2.624   1.015 -0.0728  0.1211  0.9198
 7317SOL    HW126407   9.350   2.548   0.980  0.8074 -0.3769  0.7850
 7317SOL    HW226408   9.488   2.594   1.023  0.7350  1.7933 -1.1166
 7318SOL     OW26409   8.876  10.862   6.978 -0.0332  0.4327 -0.3023
 7318SOL    HW126410   8.933  10.886   7.050 -1.3616  1.5053  0.4333
 7318SOL    HW226411   8.790  10.848   7.018 -0.6966  0.6000 -1.5919
 7319SOL     OW26412   8.509   8.467   7.898 -0.0933 -0.0512 -0.4965
 7319SOL    HW126413   8.520   8.484   7.991 -1.8254 -1.9493  0.1236
 7319SOL    HW226414   8.581   8.408   7.876 -0.3572 -0.5503 -0.0516
 7320SOL     OW26415   5.841   4.964   3.790  0.5025 -0.6939 -0.4121
 7320SOL    HW126416   5.853   4.932   3.879 -1.2729 -1.1882 -0.3022
 7320SOL    HW226417   5.890   4.903   3.736  0.9194 -0.8756  0.1594
 7321SOL     OW26418   7.364  10.184   1.481  0.1945 -0.4334 -0.2593
 7321SOL    HW126419   7.440  10.241   1.492 -0.4482  0.4319 -0.2424
 7321SOL    HW226420   7.333  10.169   1.570  0.5336 -1.0645 -0.2400
 7322SOL     OW26421   6.400   4.273   6.211  0.0104  0.1927 -0.0243
 7322SOL    HW126422   6.396   4.251   6.118  0.9708  2.7048 -0.7334
 7322SOL    HW226423   6.434   4.194   6.253 -0.3089 -0.9429 -1.8106
 7323SOL     OW26424   6.190   0.539   6.438 -0.3163  0.2219 -0.1080
 7323SOL    HW126425   6.200   0.633   6.420 -4.5735  0.5541 -1.6241
 7323SOL    HW226426   6.167   0.536   6.531  2.1123  0.3512  0.5665
 7324SOL     OW26427   8.069   0.317   3.969  0.0903 -0.8349 -0.1403
 7324SOL    HW126428   8.114   0.283   3.891 -2.2954 -4.1432 -0.2787
 7324SOL    HW226429   8.136   0.315   4.037  1.4297 -0.7649 -1.3897
 7325SOL     OW26430   9.571   9.940   1.102  0.0889 -0.3141  0.6697
 7325SOL    HW126431   9.595   9.849   1.121 -0.4017 -0.5323  0.2619
 7325SOL    HW226432   9.634   9.992   1.152  0.9951 -0.8723  0.1435
 7326SOL     OW26433   7.804   7.644   3.553  0.0023 -0.1244  0.3982
 7326SOL    HW126434   7.845   7.667   3.637 -0.5817 -2.5880  1.4586
 7326SOL    HW226435   7.729   7.589   3.578 -0.5534 -0.4073 -1.7314
 7327SOL     OW26436   7.623   4.333   3.884 -0.1556 -0.2366 -0.3580
 7327SOL    HW126437   7.673   4.268   3.836 -1.2918 -2.4950  1.2800
 7327SOL    HW226438   7.661   4.417   3.859  3.1384 -1.6526 -0.6390
 7328SOL     OW26439   4.022   9.714   4.762 -0.6977  0.2729  0.6713
 7328SOL    HW126440   3.946   9.661   4.784 -1.0240 -0.6167 -2.1696
 7328SOL    HW226441   4.089   9.651   4.736 -0.4659  1.1322 -0.9824
 7329SOL     OW26442   6.074   0.374   9.216 -0.2479 -0.1313 -0.3579
 7329SOL    HW126443   5.990   0.333   9.194 -0.7659 -0.5507  2.0725
 7329SOL    HW226444   6.050   0.448   9.272  0.8950  1.3878 -1.8148
 7330SOL     OW26445   7.816   1.440   7.357 -0.4038  0.2259  0.0838
 7330SOL    HW126446   7.749   1.449   7.425 -0.9005  1.7536 -0.5587
 7330SOL    HW226447   7.899   1.458   7.402 -0.5045 -0.7884  0.6976
 7331SOL     OW26448   6.523   7.911   9.329  0.1550  0.1942  0.3656
 7331SOL    HW126449   6.574   7.851   9.384  1.3776  0.6039 -0.2658
 7331SOL    HW226450   6.530   7.996   9.373 -1.9972 -0.1725  1.5308
 7332SOL     OW26451   9.574   2.692   6.795 -0.6675 -0.1280  0.5168
 7332SOL    HW126452   9.557   2.763   6.857  0.1028 -0.8364  1.5795
 7332SOL    HW226453   9.498   2.634   6.803  0.7107 -1.7701  3.0890
 7333SOL     OW26454   0.567   7.735   6.985 -0.4729 -0.3600 -0.7310
 7333SOL    HW126455   0.578   7.739   6.890  0.9326  1.0483 -0.5557
 7333SOL    HW226456   0.632   7.797   7.019 -2.7961  1.3058  1.0114
 7334SOL     OW26457   8.891   2.364   9.738 -0.1059 -0.3748  0.0495
 7334SOL    HW126458   8.942   2.300   9.689  3.0240  0.9759  1.2970
 7334SOL    HW226459   8.863   2.427   9.672  2.5502  0.4707 -0.3995
 7335SOL     OW26460   7.920  10.614   7.041  0.1920 -0.0653  0.0613
 7335SOL    HW126461   7.970  10.532   7.039 -1.0604 -0.8411 -1.3477
 7335SOL    HW226462   7.899  10.626   7.134  1.6770 -0.5028  0.4917
 7336SOL     OW26463   4.337   1.931   2.602 -0.3419  0.8881  0.6309
 7336SOL    HW126464   4.349   1.879   2.681  0.6717 -1.0727 -0.7450
 7336SOL    HW226465   4.390   2.010   2.617 -2.1489  1.8010  2.8628
 7337SOL     OW26466   4.791   0.328   0.134 -0.2820 -0.0670 -0.1856
 7337SOL    HW126467   4.816   0.397   0.073  0.2193 -0.6256 -0.6251
 7337SOL    HW226468   4.793   0.371   0.220 -0.0706  0.4859 -0.4588
 7338SOL     OW26469   1.698   6.136   3.763  0.1221  0.5051 -0.3894
 7338SOL    HW126470   1.726   6.226   3.782 -0.6035  0.8982 -1.0879
 7338SOL    HW226471   1.778   6.092   3.735  1.2502 -0.1118  3.2897
 7339SOL     OW26472   9.311  10.845   0.175 -0.5175  0.2056  0.4632
 7339SOL    HW126473   9.276  10.840   0.264 -2.5346  1.0352 -0.2267
 7339SOL    HW226474   9.263  10.777   0.127 -1.5304  1.6117 -0.5999
 7340SOL     OW26475   4.379  11.055   0.793  0.3520  0.0417 -0.0081
 7340SOL    HW126476   4.356  11.146   0.774  1.1440  0.2423 -0.0210
 7340SOL    HW226477   4.299  11.018   0.830  0.2503  0.9643  0.7365
 7341SOL     OW26478   7.797   0.741   8.615  0.1086 -0.1986  0.1501
 7341SOL    HW126479   7.821   0.830   8.591 -0.2377 -0.1741 -0.1131
 7341SOL    HW226480   7.867   0.687   8.579 -2.1034 -0.5590 -4.1994
 7342SOL     OW26481  10.719   6.714   4.043  0.0961  0.3051 -0.6805
 7342SOL    HW126482  10.674   6.794   4.016 -1.7111 -0.8968 -1.4194
 7342SOL    HW226483  10.652   6.646   4.036  1.6850 -1.3406 -0.4470
 7343SOL     OW26484   5.437   4.089   1.403 -0.1232  0.0978  0.3329
 7343SOL    HW126485   5.402   4.010   1.443  0.0605 -0.3240 -0.3289
 7343SOL    HW226486   5.380   4.104   1.327  0.0998  0.3645  0.2181
 7344SOL     OW26487   7.020   5.316  10.686  0.3726 -0.5190 -0.0040
 7344SOL    HW126488   7.052   5.356  10.605  1.2780 -0.2308  0.4844
 7344SOL    HW226489   7.036   5.222  10.674 -0.1874 -0.5655 -0.4552
 7345SOL     OW26490   9.899   2.906   4.702 -0.1266  0.2280 -0.2530
 7345SOL    HW126491   9.825   2.949   4.746 -0.5496  0.8017 -1.4763
 7345SOL    HW226492   9.864   2.823   4.671 -0.2417  0.4668 -0.7681
 7346SOL     OW26493   3.394   5.241  10.674 -0.2853 -0.0907 -0.2922
 7346SOL    HW126494   3.467   5.210  10.620 -1.7904 -1.1342 -1.8437
 7346SOL    HW226495   3.344   5.162  10.696  0.2626  0.2976  2.7489
 7347SOL     OW26496   9.030   8.888  10.106  0.1732  0.2257 -0.0037
 7347SOL    HW126497   9.031   8.819  10.040 -1.7394  0.6756 -0.5718
 7347SOL    HW226498   9.045   8.842  10.189 -1.8692 -1.0755 -0.2733
 7348SOL     OW26499   7.219   3.333   4.975 -0.0806 -0.0561 -0.5578
 7348SOL    HW126500   7.210   3.421   5.012  0.1189  0.5812 -1.9728
 7348SOL    HW226501   7.266   3.283   5.042  0.7614  1.2036 -0.1769
 7349SOL     OW26502   8.087   6.033   8.066 -0.0090 -0.2783  0.1267
 7349SOL    HW126503   8.116   5.983   7.990 -2.0651 -0.8546 -0.3657
 7349SOL    HW226504   8.011   6.083   8.034  0.0795  0.7323  1.4005
 7350SOL     OW26505   5.702   8.554   1.431  0.1407 -0.2238 -0.0069
 7350SOL    HW126506   5.787   8.528   1.467  0.6770 -0.8189 -1.6142
 7350SOL    HW226507   5.724   8.614   1.359 -0.8352  0.0903 -0.0601
 7351SOL     OW26508  10.250   5.944   3.648  0.3080 -0.0904 -0.9358
 7351SOL    HW126509  10.305   5.894   3.586  0.6610  0.1448 -0.8181
 7351SOL    HW226510  10.161   5.912   3.632  0.6498 -1.5632 -0.1003
 7352SOL     OW26511   8.060   3.337   2.348 -0.3473 -0.5303  0.2488
 7352SOL    HW126512   8.110   3.270   2.303 -0.7549 -1.1155  0.6458
 7352SOL    HW226513   8.083   3.327   2.440  0.2543  0.4594  0.2175
 7353SOL     OW26514   0.015   4.289   6.607 -0.2154 -0.1544 -0.5828
 7353SOL    HW126515   0.060   4.319   6.686  0.3232  0.4550 -1.1076
 7353SOL    HW226516   0.072   4.318   6.535 -1.7651  1.2167 -1.3157
 7354SOL     OW26517   6.122   6.374   3.942  0.1752 -1.1539 -0.2651
 7354SOL    HW126518   6.138   6.299   3.885 -1.2937 -0.0164 -2.3401
 7354SOL    HW226519   6.170   6.446   3.900 -2.7487  0.2279 -1.5121
 7355SOL     OW26520  11.064   1.163   7.987 -0.1936 -0.4962  0.2918
 7355SOL    HW126521  11.129   1.159   8.057 -0.8089 -0.9498  0.8559
 7355SOL    HW226522  11.029   1.252   7.991 -0.0843 -0.4596  0.4380
 7356SOL     OW26523   2.772   0.576  10.680 -0.1908  0.3788 -0.4730
 7356SOL    HW126524   2.680   0.588  10.658  0.0958  1.2212 -1.2645
 7356SOL    HW226525   2.793   0.489  10.648 -1.0379 -0.3659  0.8985
 7357SOL     OW26526   5.367   9.597   1.314 -0.0571  0.1470 -0.0088
 7357SOL    HW126527   5.461   9.613   1.311  0.0061 -0.0702  0.5819
 7357SOL    HW226528   5.327   9.683   1.299  0.2293  0.1997 -0.4808
 7358SOL     OW26529   2.003   3.824   1.069 -0.0270 -0.1258  0.4568
 7358SOL    HW126530   1.935   3.859   1.011 -0.2357 -1.7651 -0.3386
 7358SOL    HW226531   2.019   3.894   1.132 -1.7501  0.6670  0.0681
 7359SOL     OW26532   4.733   3.788   1.349 -0.1348 -0.1135 -0.9328
 7359SOL    HW126533   4.668   3.782   1.278 -0.3128  2.1863 -1.0321
 7359SOL    HW226534   4.680   3.794   1.429  0.0610 -2.0952 -0.6013
 7360SOL     OW26535   8.529   5.630   2.136 -0.5444 -0.0906  0.2884
 7360SOL    HW126536   8.512   5.585   2.053 -0.8083 -0.3794  0.4923
 7360SOL    HW226537   8.497   5.719   2.122 -1.3868 -0.3703  0.3539
 7361SOL     OW26538  10.002   8.181   0.722 -0.0292 -0.0910 -0.1274
 7361SOL    HW126539  10.019   8.265   0.680 -1.3849  1.2752  1.8709
 7361SOL    HW226540  10.018   8.197   0.815 -1.9330 -1.5535  0.5117
 7362SOL     OW26541   2.987   2.718   1.642 -0.1980 -0.4689  0.1424
 7362SOL    HW126542   3.017   2.666   1.568 -0.0232 -0.3615  0.1375
 7362SOL    HW226543   3.022   2.674   1.719  0.5707  0.0405  0.1041
 7363SOL     OW26544  10.785   6.919   4.431  0.0700  0.0628 -0.7574
 7363SOL    HW126545  10.834   6.881   4.358 -0.4109 -0.0273 -1.0366
 7363SOL    HW226546  10.710   6.861   4.443  0.6030 -0.4292  0.3884
 7364SOL     OW26547   4.239   8.428   5.412 -0.0615  0.7033  0.1752
 7364SOL    HW126548   4.164   8.488   5.412  0.2040  1.0787  1.7137
 7364SOL    HW226549   4.299   8.464   5.347 -1.4378  0.0630 -1.5286
 7365SOL     OW26550   1.545   5.659   3.093  0.1153 -0.0143  0.3573
 7365SOL    HW126551   1.520   5.715   3.019 -0.2481 -0.1649  0.3638
 7365SOL    HW226552   1.551   5.718   3.168 -0.3356  0.0041  0.3788
 7366SOL     OW26553   1.159   5.039   2.766  0.1197 -0.1968 -0.2855
 7366SOL    HW126554   1.117   5.004   2.688 -0.5913  1.9955 -0.9547
 7366SOL    HW226555   1.088   5.081   2.815  0.7444 -0.5666  1.0020
 7367SOL     OW26556   8.437   1.401   5.892 -0.4240  0.0755 -0.3639
 7367SOL    HW126557   8.380   1.325   5.902 -0.3281  0.1365  0.8846
 7367SOL    HW226558   8.428   1.426   5.800  0.6459 -2.2916 -1.2015
 7368SOL     OW26559   3.382  10.192   6.344  0.6973  0.1180 -0.2510
 7368SOL    HW126560   3.444  10.248   6.298 -0.1653  1.3817  0.0614
 7368SOL    HW226561   3.395  10.105   6.307  3.1797  0.1689  0.3335
 7369SOL     OW26562   5.449   2.458   6.691 -0.2171 -0.2270 -0.0863
 7369SOL    HW126563   5.475   2.369   6.671  0.2970  0.0145 -0.5248
 7369SOL    HW226564   5.368   2.472   6.641  0.1200 -0.1972 -0.6222
 7370SOL     OW26565   8.230   1.072   7.105  0.1567  0.5493  0.0253
 7370SOL    HW126566   8.247   1.026   7.023  0.0777  1.1981 -0.3637
 7370SOL    HW226567   8.152   1.030   7.141 -0.0018  0.4699 -0.4024
 7371SOL     OW26568   6.764   3.248   4.330  0.7730  0.5264 -0.3229
 7371SOL    HW126569   6.823   3.172   4.329  0.5131  0.3227 -0.9880
 7371SOL    HW226570   6.679   3.212   4.303  0.0123  0.5615  1.8220
 7372SOL     OW26571   7.361   3.526   7.682 -0.0391 -0.6009 -0.2472
 7372SOL    HW126572   7.289   3.573   7.724  1.2100  1.0641  0.1354
 7372SOL    HW226573   7.437   3.582   7.695  1.1111 -1.7558 -1.6431
 7373SOL     OW26574   4.085   0.297   8.720  0.1389 -0.0744  0.1672
 7373SOL    HW126575   3.997   0.326   8.741  0.0077 -1.3637  1.6310
 7373SOL    HW226576   4.079   0.261   8.631 -1.3083 -1.8957  0.9379
 7374SOL     OW26577   3.971   3.627   2.741 -0.0231  0.3672 -0.3009
 7374SOL    HW126578   3.878   3.648   2.755  0.3522  2.0271 -0.0392
 7374SOL    HW226579   4.008   3.708   2.706  1.7022  0.3685  1.3655
 7375SOL     OW26580  10.137   3.105   5.877 -0.0513  0.6078  0.0408
 7375SOL    HW126581  10.229   3.086   5.895 -0.2920  1.2033  2.1466
 7375SOL    HW226582  10.090   3.026   5.904 -0.1713  0.1658 -1.3594
 7376SOL     OW26583   9.229  10.846   6.865 -0.5721  0.0203 -0.7101
 7376SOL    HW126584   9.235  10.751   6.863 -1.3944 -0.0293 -1.1560
 7376SOL    HW226585   9.271  10.871   6.947  0.6927 -0.6348 -1.1232
 7377SOL     OW26586   3.109   6.199   3.265  0.0970  0.3890 -0.5891
 7377SOL    HW126587   3.090   6.115   3.225 -0.9148 -0.4379  1.4729
 7377SOL    HW226588   3.024   6.243   3.272  0.1226  0.2401  1.1071
 7378SOL     OW26589  10.350   1.630   9.660 -0.1048  0.5344 -0.2238
 7378SOL    HW126590  10.418   1.577   9.619  0.2813  0.3133  0.6796
 7378SOL    HW226591  10.369   1.719   9.631  2.3751  0.9513  2.2724
 7379SOL     OW26592  11.020   8.399   7.009  0.1980 -0.1099  0.3747
 7379SOL    HW126593  11.007   8.312   6.970  1.3752  0.5639 -1.6978
 7379SOL    HW226594  11.103   8.392   7.056  2.1173  0.6274 -2.5646
 7380SOL     OW26595   5.857   5.907   6.381  0.2714  0.1510 -0.3427
 7380SOL    HW126596   5.860   5.870   6.293 -2.5038 -0.7484 -0.1319
 7380SOL    HW226597   5.777   5.959   6.383  0.2218  0.0742  1.6672
 7381SOL     OW26598   4.590   1.407   0.348 -0.2541  0.0345  0.0816
 7381SOL    HW126599   4.533   1.443   0.281  1.1873  0.0902 -1.1542
 7381SOL    HW226600   4.595   1.314   0.327  1.0050  0.2265 -0.5197
 7382SOL     OW26601   7.131   4.109   8.363 -0.3335 -0.2701 -0.7842
 7382SOL    HW126602   7.148   4.174   8.431 -1.9489 -1.2315  0.6234
 7382SOL    HW226603   7.112   4.161   8.285  1.1540  0.8710 -0.4202
 7383SOL     OW26604   7.694   5.091   5.259 -0.0975 -0.3759 -0.5585
 7383SOL    HW126605   7.617   5.076   5.314 -0.6662  0.2807 -1.1578
 7383SOL    HW226606   7.756   5.136   5.316 -0.0743 -1.0810 -0.0139
 7384SOL     OW26607   5.081   1.010   8.373 -0.4988 -0.4140 -0.3912
 7384SOL    HW126608   5.063   0.946   8.442  1.0711  0.0655  0.4961
 7384SOL    HW226609   5.140   0.964   8.313  1.8780  0.5918  1.0366
 7385SOL     OW26610   0.817   2.638   4.124  0.1782  0.2026  0.2934
 7385SOL    HW126611   0.820   2.575   4.051  2.3614 -0.1232  0.5952
 7385SOL    HW226612   0.844   2.587   4.200 -0.3138  0.9739  0.9970
 7386SOL     OW26613   7.805   4.280   3.343  0.2415  0.2712  0.2503
 7386SOL    HW126614   7.795   4.191   3.308 -1.7795  0.0205  1.3059
 7386SOL    HW226615   7.894   4.306   3.319  0.0586 -1.0904 -2.2210
 7387SOL     OW26616   1.733   3.600   9.157 -0.2685 -0.0131 -0.0961
 7387SOL    HW126617   1.790   3.669   9.190 -0.4258 -0.8609  2.1515
 7387SOL    HW226618   1.775   3.570   9.077  1.3272  0.7968  0.3909
 7388SOL     OW26619   6.555   9.560   2.277  0.4138 -0.2987  0.1269
 7388SOL    HW126620   6.500   9.559   2.355 -0.4463 -0.6549 -0.4662
 7388SOL    HW226621   6.610   9.637   2.287 -2.1837  1.7693 -0.6010
 7389SOL     OW26622   0.447   6.286   1.326 -0.1449  0.3224 -0.6459
 7389SOL    HW126623   0.484   6.361   1.280  1.5666  0.6635  1.1321
 7389SOL    HW226624   0.523   6.240   1.361 -1.2616  0.8840  2.9678
 7390SOL     OW26625   5.325   4.420   4.922 -0.5526  0.5928 -0.7982
 7390SOL    HW126626   5.281   4.477   4.859 -1.3239  0.6123 -0.2606
 7390SOL    HW226627   5.255   4.392   4.981  0.6650  3.9533  2.6873
 7391SOL     OW26628   9.184   9.126  10.306 -0.0871  0.2173 -0.1688
 7391SOL    HW126629   9.168   9.201  10.365  0.0395  0.4359 -0.4120
 7391SOL    HW226630   9.211   9.055  10.365  0.3602  0.5298  0.0070
 7392SOL     OW26631   6.965   6.843   4.752 -0.4681  0.0442 -0.1358
 7392SOL    HW126632   6.942   6.901   4.680  1.4556  0.5851 -0.3694
 7392SOL    HW226633   7.012   6.771   4.710 -0.3764 -0.2428  0.4555
 7393SOL     OW26634   1.718   5.608  10.847  0.5835 -0.0958 -0.5575
 7393SOL    HW126635   1.690   5.567  10.765  0.1951 -1.7412  0.3526
 7393SOL    HW226636   1.643   5.597  10.906  1.6109 -0.8839  0.6593
 7394SOL     OW26637   3.163   4.373   3.352  0.3644  0.3503 -0.4851
 7394SOL    HW126638   3.186   4.367   3.259 -0.3660 -0.4201 -0.6239
 7394SOL    HW226639   3.200   4.294   3.392 -1.5533 -0.6790 -0.6312
 7395SOL     OW26640   6.866   0.007   5.013  0.1029 -0.2242  0.7189
 7395SOL    HW126641   6.908   0.023   5.097  0.7665  0.2372  0.3104
 7395SOL    HW226642   6.784  -0.037   5.035 -0.0090  0.4109  1.6412
 7396SOL     OW26643   5.951   2.264   6.111  0.3068  0.6906 -0.6144
 7396SOL    HW126644   5.958   2.219   6.195 -1.4698  1.8713  0.2241
 7396SOL    HW226645   5.965   2.195   6.046  0.2030 -0.5526  0.6288
 7397SOL     OW26646   5.492   3.482   6.196 -0.3857 -0.3263  0.1243
 7397SOL    HW126647   5.501   3.554   6.133  0.3293 -0.6041 -0.0952
 7397SOL    HW226648   5.577   3.439   6.195  0.8168  1.5858  3.6789
 7398SOL     OW26649   0.425   6.694   0.214  0.1155 -0.5165 -0.0982
 7398SOL    HW126650   0.339   6.734   0.211  0.3237 -0.0377  0.1766
 7398SOL    HW226651   0.453   6.689   0.123  0.1713  0.1520 -0.1206
 7399SOL     OW26652   7.331   4.468   7.854  0.1574 -0.2973  0.2892
 7399SOL    HW126653   7.366   4.536   7.796 -0.3854 -0.4229 -0.1942
 7399SOL    HW226654   7.407   4.438   7.904  0.1591  1.6338  1.5343
 7400SOL     OW26655   7.187   8.670   8.823 -0.3118  0.6947  0.1423
 7400SOL    HW126656   7.108   8.623   8.796 -0.3883  0.3929  0.8866
 7400SOL    HW226657   7.156   8.758   8.846 -0.6104  0.2551  1.4814
 7401SOL     OW26658   5.797   8.275   0.480  0.4464  0.4550 -0.2547
 7401SOL    HW126659   5.794   8.195   0.532 -0.7390 -0.0651 -1.0919
 7401SOL    HW226660   5.888   8.305   0.488  0.7111 -0.5364  0.7014
 7402SOL     OW26661   1.231   6.191  10.578 -0.4593  0.2092  0.3400
 7402SOL    HW126662   1.324   6.178  10.559 -0.3601 -0.4765  1.2421
 7402SOL    HW226663   1.212   6.278  10.542  0.2770 -0.0479 -0.7357
 7403SOL     OW26664  10.583   0.805   1.288 -0.1275  0.2941 -0.2331
 7403SOL    HW126665  10.494   0.830   1.262 -0.4338  0.2419  0.7189
 7403SOL    HW226666  10.618   0.883   1.331 -0.3796 -0.2403  0.9916
 7404SOL     OW26667   8.044  10.311   2.653 -0.2620  0.2468 -0.3536
 7404SOL    HW126668   7.967  10.343   2.699 -0.7181 -2.0805  0.6967
 7404SOL    HW226669   8.118  10.344   2.704 -0.5618  1.9634 -0.9963
 7405SOL     OW26670  10.804   2.116   4.862  0.8100  0.0660 -0.0781
 7405SOL    HW126671  10.733   2.086   4.919  0.0589 -0.5529 -1.2975
 7405SOL    HW226672  10.817   2.208   4.886 -0.1770  0.0953  0.3946
 7406SOL     OW26673   0.277   3.058   0.622  0.5121 -0.4401 -0.1111
 7406SOL    HW126674   0.367   3.091   0.620 -0.0101  1.0304 -1.4047
 7406SOL    HW226675   0.286   2.968   0.653  2.2623  0.1035  1.1848
 7407SOL     OW26676   4.071   3.755   4.077 -0.1264 -0.3122 -0.0732
 7407SOL    HW126677   3.982   3.790   4.076 -1.0133 -2.3738 -2.0224
 7407SOL    HW226678   4.068   3.684   4.141  0.2741 -0.0746  0.2134
 7408SOL     OW26679   8.808   2.633   6.071 -0.3094  0.6149  0.2355
 7408SOL    HW126680   8.834   2.551   6.029  0.2103  1.7667 -1.7841
 7408SOL    HW226681   8.885   2.658   6.122 -0.7111 -0.4519  1.4373
 7409SOL     OW26682   8.194   2.951   5.563  0.1608  0.3929 -0.4288
 7409SOL    HW126683   8.223   2.901   5.487  0.9334  1.6233 -0.9792
 7409SOL    HW226684   8.273   2.963   5.615 -0.7163 -2.3016  1.7749
 7410SOL     OW26685   1.833   1.985   3.263  0.6740  0.2230 -0.2105
 7410SOL    HW126686   1.849   2.012   3.173  1.3518  0.0276 -0.1529
 7410SOL    HW226687   1.786   2.059   3.303  0.6184  0.4216 -0.6431
 7411SOL     OW26688   4.923   2.782   3.835 -0.0792  0.0225  0.0619
 7411SOL    HW126689   4.986   2.782   3.763  0.9346  2.1588  0.8780
 7411SOL    HW226690   4.972   2.814   3.910 -1.3021 -1.4708  1.5659
 7412SOL     OW26691   3.238   4.676   0.824 -0.2199  0.1605 -0.2373
 7412SOL    HW126692   3.332   4.684   0.808 -0.3061 -0.3583 -1.0573
 7412SOL    HW226693   3.227   4.697   0.917  0.5121  1.7313 -0.4775
 7413SOL     OW26694   1.407   5.598  10.221 -0.1183 -0.3258 -0.7142
 7413SOL    HW126695   1.448   5.563  10.142  0.4191  0.7766 -0.9476
 7413SOL    HW226696   1.415   5.528  10.286  0.2235 -0.9159 -1.3837
 7414SOL     OW26697   1.051   0.878   0.334  0.0756  0.2616 -0.2709
 7414SOL    HW126698   0.967   0.917   0.310 -0.8444 -0.9149  0.9022
 7414SOL    HW226699   1.039   0.784   0.322  1.2515  0.0716 -0.1162
 7415SOL     OW26700   7.284   1.870   4.342 -0.1040  0.0165  0.2600
 7415SOL    HW126701   7.333   1.932   4.289 -0.3622  0.7622  0.8756
 7415SOL    HW226702   7.193   1.884   4.317 -0.0151 -1.6724 -1.2066
 7416SOL     OW26703   4.003   1.175   2.226 -0.0383 -0.5040  0.1671
 7416SOL    HW126704   4.079   1.201   2.173 -0.3223 -0.4550 -0.2199
 7416SOL    HW226705   3.940   1.142   2.163 -0.5369 -0.0713  0.4384
 7417SOL     OW26706   2.053   3.946   4.737  0.1591  0.0925 -0.1051
 7417SOL    HW126707   2.131   3.890   4.735  0.2222  0.1930 -1.1248
 7417SOL    HW226708   2.011   3.930   4.652 -1.8946 -1.3076  1.0856
 7418SOL     OW26709   9.147   5.874   3.479  0.2965 -0.1575 -0.8445
 7418SOL    HW126710   9.219   5.821   3.445  1.7687  2.3598 -1.9419
 7418SOL    HW226711   9.182   5.911   3.560 -0.5551 -0.4889 -0.3124
 7419SOL     OW26712   4.082   0.484   0.496  0.0071 -0.0145 -0.7551
 7419SOL    HW126713   4.034   0.521   0.570  1.9094 -0.1818  0.6174
 7419SOL    HW226714   4.016   0.477   0.426 -1.4891  1.5271  0.4248
 7420SOL     OW26715   8.267   1.561  10.794 -0.0610  0.0226 -0.1776
 7420SOL    HW126716   8.190   1.518  10.756 -0.2655 -0.8868  1.1658
 7420SOL    HW226717   8.231   1.637  10.840 -0.1178 -0.2033  0.1544
 7421SOL     OW26718   1.722   2.156   7.932 -0.3986  0.3802  0.0138
 7421SOL    HW126719   1.802   2.122   7.891  0.3895  0.7680  1.1685
 7421SOL    HW226720   1.652   2.128   7.874  0.4649 -0.9166 -0.4667
 7422SOL     OW26721   3.180   0.755  10.535  0.3911 -0.8544  0.0939
 7422SOL    HW126722   3.150   0.735  10.447  1.8026  0.0859 -0.6439
 7422SOL    HW226723   3.133   0.836  10.558  0.5195 -0.7291 -0.0774
 7423SOL     OW26724   0.993  10.590   4.693  0.5122 -0.0328 -0.3955
 7423SOL    HW126725   1.058  10.658   4.710 -0.1760  0.7334 -0.7690
 7423SOL    HW226726   1.013  10.521   4.756 -1.2556  2.1916  2.8860
 7424SOL     OW26727   8.373   2.217   9.588  0.3264  0.0538  0.3456
 7424SOL    HW126728   8.449   2.234   9.645  1.1647 -0.8197 -0.4722
 7424SOL    HW226729   8.391   2.131   9.550  0.0967  0.8665 -1.7099
 7425SOL     OW26730   8.614   8.312   6.798 -0.2283 -0.6800  0.1173
 7425SOL    HW126731   8.678   8.325   6.728  1.1135 -1.0448  1.2265
 7425SOL    HW226732   8.621   8.391   6.852 -0.4781 -0.8760  0.4394
 7426SOL     OW26733   0.578   7.811   4.811  0.0201 -0.4144  0.5177
 7426SOL    HW126734   0.491   7.812   4.850  0.1139 -2.3387  0.8643
 7426SOL    HW226735   0.580   7.732   4.758  0.7934  0.7891 -1.3609
 7427SOL     OW26736   4.452   3.028   1.380 -0.4274  0.2658 -0.2906
 7427SOL    HW126737   4.404   2.946   1.364 -1.3996  0.6136  0.6760
 7427SOL    HW226738   4.385   3.087   1.415  1.0714  0.0826  3.3664
 7428SOL     OW26739   3.559   1.757   9.812 -0.0635  0.6056 -0.1247
 7428SOL    HW126740   3.476   1.803   9.824 -0.1860  0.4836 -0.4954
 7428SOL    HW226741   3.565   1.743   9.717 -0.2398 -0.5396  0.0231
 7429SOL     OW26742   8.233   1.730   0.524  0.2383  0.8235  0.0189
 7429SOL    HW126743   8.165   1.684   0.475 -1.5110  1.5141  1.6976
 7429SOL    HW226744   8.205   1.821   0.525  0.2529  0.8587  2.1881
 7430SOL     OW26745   9.561  10.969   1.490 -0.0039 -0.5247 -0.1009
 7430SOL    HW126746   9.527  10.880   1.476 -2.5786  0.2390  0.8653
 7430SOL    HW226747   9.609  10.989   1.409 -1.3806 -1.9080 -1.3188
 7431SOL     OW26748   7.563  10.298   2.956 -0.1639 -0.0945 -0.2440
 7431SOL    HW126749   7.536  10.209   2.980 -1.2643 -0.4554 -2.5623
 7431SOL    HW226750   7.482  10.343   2.933  0.2529  1.9004  1.8532
 7432SOL     OW26751   1.299   5.005   4.256 -0.1282 -0.0795  0.4358
 7432SOL    HW126752   1.373   5.038   4.306 -0.6865  3.7586 -0.9858
 7432SOL    HW226753   1.224   5.014   4.314 -0.1621  0.3944  0.3170
 7433SOL     OW26754   5.160   7.693   1.089  0.5917  0.0705 -0.2530
 7433SOL    HW126755   5.091   7.760   1.089  1.3233  0.8452 -0.0011
 7433SOL    HW226756   5.117   7.615   1.125 -0.1511  0.5376 -0.0841
 7434SOL     OW26757   8.186   1.459   1.782  0.0294  0.5370  0.0118
 7434SOL    HW126758   8.281   1.445   1.781  0.4000  2.6521 -0.5864
 7434SOL    HW226759   8.149   1.381   1.741  1.4680 -0.5134  0.6487
 7435SOL     OW26760   2.602   9.797   1.253  0.0301  0.5502 -0.3132
 7435SOL    HW126761   2.669   9.825   1.190 -0.5643  0.8242 -0.8416
 7435SOL    HW226762   2.554   9.877   1.274 -0.2693  0.3191 -0.1090
 7436SOL     OW26763   0.770   9.153   3.120 -0.0480  0.1038  0.4432
 7436SOL    HW126764   0.723   9.184   3.042  1.0936  0.2597 -0.1962
 7436SOL    HW226765   0.709   9.168   3.192 -1.2888 -0.4158 -0.4576
 7437SOL     OW26766   9.543   4.546   2.488  0.1279  0.5185 -0.1737
 7437SOL    HW126767   9.517   4.591   2.407 -0.6855  0.9710  0.3327
 7437SOL    HW226768   9.503   4.597   2.558  0.5115 -0.0924  0.5037
 7438SOL     OW26769  10.196   3.761   2.024  0.2797 -0.1616 -0.0559
 7438SOL    HW126770  10.169   3.733   2.111 -4.5479  0.0337 -1.2441
 7438SOL    HW226771  10.231   3.682   1.983 -0.9124 -1.2250  0.8908
 7439SOL     OW26772  10.632   0.386   4.878 -0.3204  0.0137  0.2334
 7439SOL    HW126773  10.592   0.471   4.898 -0.9679 -0.3931  0.7254
 7439SOL    HW226774  10.717   0.390   4.921 -0.3631  0.4023  0.2913
 7440SOL     OW26775   6.488   4.434   5.638 -0.2894 -0.2879 -0.0977
 7440SOL    HW126776   6.474   4.339   5.632  1.1184 -0.5017 -0.4943
 7440SOL    HW226777   6.417   4.466   5.693  0.0899 -1.8151  1.3587
 7441SOL     OW26778   4.641   7.892   1.328  0.3407  0.0364 -0.2318
 7441SOL    HW126779   4.652   7.821   1.392  0.6468  0.3783  0.0973
 7441SOL    HW226780   4.726   7.934   1.324  0.4777 -0.3251 -1.2866
 7442SOL     OW26781   9.529   7.274   6.292 -0.3927  0.2086 -0.0888
 7442SOL    HW126782   9.561   7.364   6.297 -1.4928  0.6249 -0.3218
 7442SOL    HW226783   9.453   7.279   6.235 -0.2145 -0.9507 -0.4538
 7443SOL     OW26784   7.189   7.884   3.826  0.5529  0.0923  0.0784
 7443SOL    HW126785   7.225   7.925   3.748  0.9298  1.3264  0.8694
 7443SOL    HW226786   7.105   7.849   3.798 -0.0310  1.8810 -0.5326
 7444SOL     OW26787   1.850   3.097   0.500 -0.6437 -0.0724  0.1842
 7444SOL    HW126788   1.865   3.144   0.418  1.1834 -0.1548  0.4247
 7444SOL    HW226789   1.759   3.117   0.524 -1.4015 -0.4423 -2.0947
 7445SOL     OW26790  10.144   5.558   8.834  0.0892  0.4604  0.4228
 7445SOL    HW126791  10.093   5.535   8.756  0.7380 -0.4549  0.2573
 7445SOL    HW226792  10.182   5.643   8.813 -0.8773  0.8820  0.3118
 7446SOL     OW26793   8.135   3.726   7.605 -0.9456 -0.3966  0.2844
 7446SOL    HW126794   8.177   3.723   7.691 -0.6160  0.3319  0.1601
 7446SOL    HW226795   8.043   3.744   7.623 -0.9400 -0.5881  0.4985
 7447SOL     OW26796   3.881   4.732   9.396  0.2097  0.0745  0.1896
 7447SOL    HW126797   3.919   4.660   9.445  0.3230 -0.3255 -0.4733
 7447SOL    HW226798   3.787   4.715   9.396  0.3789 -1.2741 -1.7605
 7448SOL     OW26799   9.154   3.588  10.900 -0.1794 -0.1914  0.9705
 7448SOL    HW126800   9.079   3.595  10.841 -0.5482 -0.4455  1.4072
 7448SOL    HW226801   9.229   3.610  10.845 -0.6138  0.4957  0.6334
 7449SOL     OW26802   9.632   9.706   2.169 -0.3341  0.0633  0.3448
 7449SOL    HW126803   9.545   9.703   2.131 -0.2626  0.4276  0.1486
 7449SOL    HW226804   9.663   9.615   2.168 -0.3291  0.0715 -0.4687
 7450SOL     OW26805   2.097   6.203   0.446 -0.2136  0.1077  0.2022
 7450SOL    HW126806   2.148   6.122   0.452 -0.3798 -0.0050  0.1262
 7450SOL    HW226807   2.006   6.174   0.455 -0.4299  0.0301 -1.8293
 7451SOL     OW26808   6.280   5.123   3.843 -0.0341 -0.5479 -0.2221
 7451SOL    HW126809   6.267   5.059   3.913 -0.6840  0.1141  0.2804
 7451SOL    HW226810   6.191   5.143   3.812 -0.0398  1.5971  1.0060
 7452SOL     OW26811   1.214   8.302  10.090  0.4566 -0.3800 -0.1347
 7452SOL    HW126812   1.251   8.377  10.135  0.8394 -1.3597  1.2434
 7452SOL    HW226813   1.279   8.279  10.024  0.4573  0.3109 -0.3874
 7453SOL     OW26814   0.596   8.839   7.775  0.0333  0.4457 -0.3069
 7453SOL    HW126815   0.572   8.812   7.686 -0.3100 -0.9499  0.1917
 7453SOL    HW226816   0.624   8.930   7.765 -0.3965  0.4475 -1.7768
 7454SOL     OW26817   4.398   3.470   0.377 -0.4385 -0.5404 -0.0097
 7454SOL    HW126818   4.414   3.392   0.430  0.4762 -0.4665 -0.1594
 7454SOL    HW226819   4.452   3.458   0.299  0.5386  0.7186  0.4444
 7455SOL     OW26820   7.617  10.917  10.665 -0.5308  0.5742  0.1401
 7455SOL    HW126821   7.674  10.993  10.654  0.0794  0.2045  0.7056
 7455SOL    HW226822   7.538  10.952  10.707  0.1993  0.7213  1.4168
 7456SOL     OW26823   2.013  10.195   5.583 -0.2347  0.2274  0.0078
 7456SOL    HW126824   1.939  10.143   5.554 -1.9099  2.3137  0.3147
 7456SOL    HW226825   2.030  10.166   5.673  0.8234 -1.7919 -0.7848
 7457SOL     OW26826   3.776  10.426   1.536 -0.2228  0.3014  0.2241
 7457SOL    HW126827   3.806  10.516   1.518  0.3656  0.2086  0.7152
 7457SOL    HW226828   3.852  10.371   1.515 -0.3047 -0.0069  0.7361
 7458SOL     OW26829   0.786   7.848   1.591 -0.6930  0.3674 -0.4971
 7458SOL    HW126830   0.738   7.851   1.509 -0.9617 -0.4995 -0.3831
 7458SOL    HW226831   0.783   7.756   1.617  1.0050  0.2858 -0.4674
 7459SOL     OW26832   6.859  10.830   2.485  0.2984  0.3937 -0.0837
 7459SOL    HW126833   6.823  10.764   2.543  1.3673 -0.6146 -0.5303
 7459SOL    HW226834   6.802  10.906   2.497 -0.4467 -0.3164  1.0691
 7460SOL     OW26835   5.240   8.688   9.439  0.2973 -0.0587  0.1409
 7460SOL    HW126836   5.299   8.633   9.490  0.8046  0.6920  0.3820
 7460SOL    HW226837   5.153   8.650   9.454  0.7241 -1.3103 -0.4008
 7461SOL     OW26838   8.994   5.694   0.128 -0.2499  0.1359 -0.1261
 7461SOL    HW126839   9.088   5.711   0.133 -0.4094  0.6603  1.8160
 7461SOL    HW226840   8.987   5.612   0.078  1.1897  0.2577 -0.5884
 7462SOL     OW26841   5.644   1.303   0.148 -0.1474  0.2938 -0.1524
 7462SOL    HW126842   5.554   1.314   0.180  0.0286  0.2685  0.3561
 7462SOL    HW226843   5.691   1.264   0.221  0.8525  2.4661  0.4384
 7463SOL     OW26844   2.246   5.773  10.842  0.6205 -0.0179 -0.6013
 7463SOL    HW126845   2.261   5.791  10.749 -0.0252  1.1369 -0.4979
 7463SOL    HW226846   2.175   5.708  10.842 -0.2677  0.9388 -0.8971
 7464SOL     OW26847   0.607   8.380   3.669 -0.1787 -0.4222 -0.2055
 7464SOL    HW126848   0.539   8.376   3.602  0.5266  0.1468 -0.9657
 7464SOL    HW226849   0.680   8.427   3.628  0.5799 -0.7814  0.6787
 7465SOL     OW26850   2.403   1.132   5.347  0.2133 -0.2070 -0.0423
 7465SOL    HW126851   2.355   1.075   5.288 -1.0303  0.9540 -0.2061
 7465SOL    HW226852   2.495   1.119   5.324 -0.2388  2.5869 -4.6464
 7466SOL     OW26853   6.715   6.597   6.207  0.4121 -0.1418 -0.1169
 7466SOL    HW126854   6.662   6.604   6.128 -1.5212 -0.4913  1.0858
 7466SOL    HW226855   6.803   6.579   6.176 -0.4634 -1.1412 -2.1509
 7467SOL     OW26856  10.493   6.360   9.516 -0.0453  0.4575 -0.2379
 7467SOL    HW126857  10.412   6.376   9.468  0.3328  0.1619 -0.9872
 7467SOL    HW226858  10.514   6.445   9.556 -0.1976  0.7880 -0.8511
 7468SOL     OW26859  10.262   2.576   6.058  0.3921 -0.2148  0.5265
 7468SOL    HW126860  10.249   2.517   5.983 -3.0536  2.4214 -1.2488
 7468SOL    HW226861  10.242   2.523   6.135  2.3870 -2.5725 -0.4606
 7469SOL     OW26862   5.138   2.577   2.066  0.1475 -0.6316 -0.8079
 7469SOL    HW126863   5.058   2.524   2.074 -2.0354  2.5239  0.0447
 7469SOL    HW226864   5.131   2.617   1.979  2.1822 -2.1646 -1.7783
 7470SOL     OW26865   4.642   7.617  11.025 -0.3272 -0.2969 -0.6113
 7470SOL    HW126866   4.658   7.580  11.111  2.0117  1.7609 -0.0413
 7470SOL    HW226867   4.570   7.678  11.038 -2.0401 -2.1498 -0.8719
 7471SOL     OW26868   4.216   0.017   4.966 -0.5435  0.0236 -0.1056
 7471SOL    HW126869   4.309   0.027   4.947 -0.2665 -0.4740  0.8687
 7471SOL    HW226870   4.210  -0.067   5.013 -1.6300 -0.4596 -1.0558
 7472SOL     OW26871   8.044   9.720   4.534 -0.1929  0.6639 -0.1004
 7472SOL    HW126872   8.016   9.718   4.626 -0.5784  1.1754 -0.1989
 7472SOL    HW226873   8.125   9.670   4.533 -0.8934 -0.5246  0.2622
 7473SOL     OW26874   9.396   2.355  10.946  0.2001  0.5515 -0.5282
 7473SOL    HW126875   9.312   2.316  10.923 -0.2366  1.3003 -0.2530
 7473SOL    HW226876   9.451   2.340  10.869 -0.1678  0.0103 -0.6921
 7474SOL     OW26877   8.655   1.859   2.926  1.0850  0.4445 -0.1223
 7474SOL    HW126878   8.634   1.952   2.917  1.7372  0.5931 -0.1800
 7474SOL    HW226879   8.571   1.816   2.938  0.4853  0.7488 -2.6382
 7475SOL     OW26880   4.065   1.743   5.943  0.2861  0.6748 -0.4730
 7475SOL    HW126881   4.115   1.822   5.966 -0.5000  0.9122  0.4501
 7475SOL    HW226882   3.991   1.776   5.892 -0.2257  0.5743  0.1986
 7476SOL     OW26883   5.015   6.793  10.995 -1.2087 -0.2679 -0.2477
 7476SOL    HW126884   5.100   6.821  10.959 -1.7111  0.5173 -0.8614
 7476SOL    HW226885   4.990   6.864  11.053 -1.1486 -0.8045  0.4437
 7477SOL     OW26886   5.221   4.565   4.708 -0.1699 -0.5335  0.1532
 7477SOL    HW126887   5.126   4.574   4.704 -0.0597  0.5584 -0.2283
 7477SOL    HW226888   5.245   4.521   4.627 -0.3211 -0.6179  0.1536
 7478SOL     OW26889   4.025  10.149   8.979 -0.3264 -0.0209  0.0389
 7478SOL    HW126890   3.999  10.236   9.008  0.0222  0.0409  0.1666
 7478SOL    HW226891   4.023  10.154   8.883  0.5339  0.3889  0.0338
 7479SOL     OW26892   3.730   5.942   0.747 -0.0498  0.2878 -0.7783
 7479SOL    HW126893   3.768   5.929   0.660 -0.4407  0.5395 -0.9884
 7479SOL    HW226894   3.705   6.034   0.749  0.0440  0.3087 -0.3607
 7480SOL     OW26895   7.008   0.255   5.729 -0.4437  0.3110 -0.3027
 7480SOL    HW126896   6.991   0.334   5.677 -0.4878 -0.7624 -1.9876
 7480SOL    HW226897   6.998   0.183   5.667 -1.1187 -1.0917  1.3631
 7481SOL     OW26898   7.990   1.711  11.064  0.1933 -0.2755 -0.2887
 7481SOL    HW126899   7.921   1.645  11.068  0.3613 -0.4493 -0.2641
 7481SOL    HW226900   8.071   1.663  11.080  0.2669  0.0219  0.2505
 7482SOL     OW26901   1.638   8.119   9.037  0.5696  0.2055 -0.6537
 7482SOL    HW126902   1.688   8.043   9.067  0.2893  0.4850  0.5872
 7482SOL    HW226903   1.552   8.084   9.017 -0.9412  0.6701  3.8386
 7483SOL     OW26904   5.673   2.869   1.612 -0.2667  0.5541 -0.1647
 7483SOL    HW126905   5.663   2.937   1.679  0.2666 -1.4765  2.1464
 7483SOL    HW226906   5.767   2.859   1.602 -0.3426  1.1889 -1.6622
 7484SOL     OW26907   2.540   1.559   5.336  0.0525 -0.1027  0.4657
 7484SOL    HW126908   2.488   1.499   5.282  0.2790  0.5203 -0.4614
 7484SOL    HW226909   2.476   1.601   5.393 -0.3029 -0.1561  0.1071
 7485SOL     OW26910   6.549   9.510   1.740 -0.0055  0.0672 -0.1410
 7485SOL    HW126911   6.493   9.493   1.664 -0.2338 -0.5232  0.1575
 7485SOL    HW226912   6.488   9.538   1.809 -0.1154 -1.8128  0.5790
 7486SOL     OW26913  10.966   6.961  11.035  0.0244 -0.1144 -0.6078
 7486SOL    HW126914  10.977   7.019  10.960 -1.4150  2.0948  0.7645
 7486SOL    HW226915  11.054   6.926  11.051  0.4214 -0.3698 -3.0625
 7487SOL     OW26916   5.523   0.943   7.218 -0.5517 -0.4551 -0.2550
 7487SOL    HW126917   5.462   0.901   7.279 -0.4504 -0.6632 -0.2960
 7487SOL    HW226918   5.470   0.965   7.142 -0.8715  0.5984  0.2542
 7488SOL     OW26919   3.675   6.481   2.745 -0.5985 -0.1186  0.0298
 7488SOL    HW126920   3.740   6.443   2.804  0.5062  4.4674  2.2154
 7488SOL    HW226921   3.592   6.446   2.776  0.3942 -2.3109  0.4152
 7489SOL     OW26922   5.617   6.804   9.400  0.3022  0.3850  0.1614
 7489SOL    HW126923   5.589   6.806   9.308  0.1930 -1.1953  0.1228
 7489SOL    HW226924   5.710   6.778   9.396 -0.0605 -1.0797  0.5100
 7490SOL     OW26925   2.405   8.584   4.039 -0.1767  0.1456  0.1920
 7490SOL    HW126926   2.347   8.598   4.113 -0.3505  0.1716  0.0529
 7490SOL    HW226927   2.484   8.634   4.059 -0.0667 -0.1568  0.5359
 7491SOL     OW26928   7.509   0.691   0.012  0.1337  0.0955 -0.3901
 7491SOL    HW126929   7.545   0.671  -0.074  1.4212  1.4194 -0.1988
 7491SOL    HW226930   7.585   0.697   0.070 -0.6911 -0.5155  0.7976
 7492SOL     OW26931   0.440   0.440   5.752 -0.0389  0.2083 -0.3995
 7492SOL    HW126932   0.407   0.529   5.739  1.2133  0.7739  0.1254
 7492SOL    HW226933   0.369   0.394   5.796 -1.1542  0.6006 -1.7077
 7493SOL     OW26934   6.698   1.188   0.447 -0.0124 -1.0578  0.4378
 7493SOL    HW126935   6.639   1.136   0.393 -2.3394  2.5597 -0.9272
 7493SOL    HW226936   6.758   1.229   0.385 -2.4275  2.7954  0.3134
 7494SOL     OW26937   8.780  10.226   5.816 -0.1166  0.0913  0.3765
 7494SOL    HW126938   8.717  10.296   5.798 -1.1986 -0.7781  0.6885
 7494SOL    HW226939   8.769  10.165   5.742 -0.1017 -0.3832  0.7645
 7495SOL     OW26940   0.064   5.031   4.010  0.1776  0.0867  0.4829
 7495SOL    HW126941  -0.016   5.082   4.016 -0.0468 -0.2128  0.0314
 7495SOL    HW226942   0.054   4.961   4.075 -0.4619 -0.6779 -0.4128
 7496SOL     OW26943   3.776   6.841   7.672 -0.1818  0.4704  1.2748
 7496SOL    HW126944   3.853   6.794   7.705  0.6562  0.2319 -0.8908
 7496SOL    HW226945   3.703   6.803   7.721  0.5808 -2.4354  0.3611
 7497SOL     OW26946   2.888   6.299   3.092  0.0631  0.2534  0.5229
 7497SOL    HW126947   2.806   6.324   3.048 -0.3262 -1.2127  0.3538
 7497SOL    HW226948   2.871   6.314   3.185  0.0555  1.1372  0.3870
 7498SOL     OW26949   2.872   9.061   3.798 -0.4077  0.5445  0.0746
 7498SOL    HW126950   2.865   8.965   3.804 -0.7320  0.5388 -0.3792
 7498SOL    HW226951   2.902   9.078   3.709  1.0278  0.8097  0.5803
 7499SOL     OW26952   1.742   8.018   2.012  0.2610  0.9098  0.1882
 7499SOL    HW126953   1.775   8.002   1.924  0.2974  1.2057  0.1450
 7499SOL    HW226954   1.789   7.955   2.067 -0.5911 -0.0472 -0.1552
 7500SOL     OW26955   2.786   0.994   3.725 -0.3083  0.1127  0.2116
 7500SOL    HW126956   2.826   1.042   3.653  2.9313 -2.9076 -0.2813
 7500SOL    HW226957   2.704   1.040   3.743  1.3919  4.2901 -1.6197
 7501SOL     OW26958  10.850   5.427   7.840  0.0766 -0.0534 -0.0688
 7501SOL    HW126959  10.757   5.429   7.863  0.3801 -1.8714  1.5888
 7501SOL    HW226960  10.896   5.447   7.921  1.1458  0.1165 -0.6959
 7502SOL     OW26961   2.952   1.348   5.987 -0.0370 -0.4285  0.0355
 7502SOL    HW126962   2.945   1.255   6.005 -1.2697 -0.1242  1.3924
 7502SOL    HW226963   3.004   1.383   6.060 -0.4405  0.0816  0.0872
 7503SOL     OW26964   8.761   3.380   4.305  1.1337  0.2733  0.1486
 7503SOL    HW126965   8.742   3.474   4.302  0.9535  0.2108 -1.0880
 7503SOL    HW226966   8.856   3.375   4.315  1.3833  0.6068 -1.8064
 7504SOL     OW26967   6.007   2.788   1.324  0.4717 -0.2433  0.1622
 7504SOL    HW126968   6.030   2.714   1.269  1.1386  1.3548 -1.8501
 7504SOL    HW226969   5.933   2.829   1.279 -0.2489  0.0154  1.5302
 7505SOL     OW26970   2.236   3.971   1.994  0.3547 -0.3704 -0.5099
 7505SOL    HW126971   2.197   3.884   1.990 -1.6290  0.4984 -1.1992
 7505SOL    HW226972   2.232   4.004   1.904  2.3360 -0.0500 -0.5249
 7506SOL     OW26973   0.522   9.287   5.292  0.4690  0.2096  0.0929
 7506SOL    HW126974   0.506   9.327   5.377  3.6534  1.3863  0.2779
 7506SOL    HW226975   0.524   9.193   5.310  0.5308  0.4097  1.2351
 7507SOL     OW26976   9.971   9.239   3.939 -0.1089 -0.6301  0.1943
 7507SOL    HW126977  10.064   9.256   3.949 -0.1998  0.1306 -0.2022
 7507SOL    HW226978   9.962   9.145   3.955  0.7550 -0.7543 -0.0212
 7508SOL     OW26979   4.377   0.025   7.623  0.1366  0.3159  0.2036
 7508SOL    HW126980   4.356   0.083   7.696 -0.2747  0.2510  0.1366
 7508SOL    HW226981   4.464  -0.009   7.645  0.5941  1.3205  0.0055
 7509SOL     OW26982   5.801   5.291   4.519  0.2514 -0.3075 -0.0602
 7509SOL    HW126983   5.709   5.273   4.500  0.1892 -0.6734  0.5485
 7509SOL    HW226984   5.847   5.211   4.494  0.2573 -0.5314  0.6458
 7510SOL     OW26985   0.218   3.878  10.302 -0.0451  1.0589 -0.7178
 7510SOL    HW126986   0.239   3.829  10.222 -0.0919  0.7134 -0.5240
 7510SOL    HW226987   0.300   3.879  10.351 -0.5575 -0.7733  0.2976
 7511SOL     OW26988   3.429   3.842   0.457 -0.0635 -0.2773 -0.5098
 7511SOL    HW126989   3.349   3.807   0.418 -0.8758 -1.1829  1.8182
 7511SOL    HW226990   3.400   3.920   0.506  0.2896 -1.0312  0.9641
 7512SOL     OW26991   4.267   8.900   2.022 -0.7016  0.2719  0.4980
 7512SOL    HW126992   4.174   8.905   2.042 -1.0452 -0.9458 -0.6778
 7512SOL    HW226993   4.302   8.839   2.087 -0.9788 -0.2710  0.1435
 7513SOL     OW26994   4.069   4.805   7.381 -0.6789 -0.3655 -0.3918
 7513SOL    HW126995   4.034   4.755   7.454 -3.4040 -0.5430 -1.6775
 7513SOL    HW226996   4.052   4.750   7.304  2.2143 -0.2464 -1.2133
 7514SOL     OW26997   0.464   4.149   0.630  0.0169  0.5865 -0.0964
 7514SOL    HW126998   0.422   4.233   0.614  1.2482  1.3226  0.4130
 7514SOL    HW226999   0.554   4.171   0.652  0.0858 -0.7910  1.1510
 7515SOL     OW27000   4.677   4.627   0.355  0.0651 -0.0856  0.1546
 7515SOL    HW127001   4.658   4.559   0.420 -1.1559  0.4138  0.3502
 7515SOL    HW227002   4.729   4.692   0.402  0.9440 -0.7081  0.0595
 7516SOL     OW27003   7.110   4.432   4.682 -0.2890 -0.2284  0.5302
 7516SOL    HW127004   7.196   4.427   4.723 -0.5193  1.3403  1.3032
 7516SOL    HW227005   7.052   4.464   4.751 -1.8144 -2.5102  0.4280
 7517SOL     OW27006   8.124   1.761   4.244  0.6659 -0.5415 -0.5526
 7517SOL    HW127007   8.044   1.786   4.198  0.3105  1.0613  0.8570
 7517SOL    HW227008   8.193   1.769   4.178 -0.1576 -0.7860 -1.4715
 7518SOL     OW27009   5.939   9.335   4.176  0.2459  0.1688 -0.3466
 7518SOL    HW127010   5.924   9.292   4.260 -1.5038  0.1507 -0.6443
 7518SOL    HW227011   5.852   9.346   4.138  0.5198  4.0134 -0.2688
 7519SOL     OW27012   1.107   6.664   0.511 -0.0700  0.5208 -0.2465
 7519SOL    HW127013   1.043   6.727   0.479 -0.7271 -0.1674 -0.3178
 7519SOL    HW227014   1.057   6.606   0.569  0.8107  0.8975  0.9170
 7520SOL     OW27015   2.437   1.540   8.379  0.7514  0.2801  0.8189
 7520SOL    HW127016   2.458   1.623   8.337 -1.9940  0.4693 -0.3449
 7520SOL    HW227017   2.518   1.489   8.372  1.5870  1.7346 -1.2071
 7521SOL     OW27018  11.013  10.522   4.785  0.5297  0.1381 -0.1704
 7521SOL    HW127019  10.930  10.496   4.826 -1.0294  2.6527 -1.5150
 7521SOL    HW227020  11.079  10.505   4.853 -1.3231 -0.0180  1.7048
 7522SOL     OW27021   2.891   1.271   8.700 -0.7032 -0.5599  0.6848
 7522SOL    HW127022   2.931   1.202   8.754 -0.9423 -0.3352  1.1530
 7522SOL    HW227023   2.906   1.242   8.610  0.2940 -0.6043  0.8560
 7523SOL     OW27024   0.489  11.001   1.328  0.2510  0.7182  0.2612
 7523SOL    HW127025   0.558  10.962   1.275 -0.1143  0.9867 -0.4152
 7523SOL    HW227026   0.509  11.094   1.330 -0.3546  0.8725 -0.3507
 7524SOL     OW27027   8.867   5.720   6.092 -0.3461 -0.1681  0.2307
 7524SOL    HW127028   8.869   5.813   6.069 -1.5472 -0.4052 -0.9682
 7524SOL    HW227029   8.954   5.688   6.072 -0.1873  0.5103 -0.1972
 7525SOL     OW27030   3.651   9.112   6.161 -0.5818 -0.4100 -0.5710
 7525SOL    HW127031   3.621   9.037   6.109 -3.1151  0.7719 -0.9731
 7525SOL    HW227032   3.586   9.120   6.230  0.8620  0.1472  0.7852
 7526SOL     OW27033   7.132   3.490   4.771  0.1323 -0.1264  0.0083
 7526SOL    HW127034   7.081   3.539   4.835 -0.9775  0.9707 -1.6414
 7526SOL    HW227035   7.187   3.431   4.824 -2.0976 -0.6563  1.9105
 7527SOL     OW27036   7.991   6.683   8.487 -0.0924 -0.0143  0.1777
 7527SOL    HW127037   7.939   6.653   8.561 -3.0040  0.6349 -1.4706
 7527SOL    HW227038   7.943   6.757   8.452  2.3011  1.0276 -1.1643
 7528SOL     OW27039   8.421   8.699   7.068  0.3141 -0.7185 -0.2592
 7528SOL    HW127040   8.421   8.790   7.099 -0.4727 -0.8875  0.2550
 7528SOL    HW227041   8.443   8.647   7.146 -2.0242 -1.1752  0.1754
 7529SOL     OW27042   1.964  10.011   1.377 -0.0955 -0.2889 -0.0612
 7529SOL    HW127043   2.025   9.973   1.440 -0.5198 -1.1643 -0.1771
 7529SOL    HW227044   1.883   9.962   1.388  0.4468 -2.0395 -2.8211
 7530SOL     OW27045   5.101   6.158   1.992 -0.0356 -0.3659  0.5286
 7530SOL    HW127046   5.017   6.184   1.955 -0.5706  0.5018  2.2730
 7530SOL    HW227047   5.086   6.070   2.026 -0.2960 -0.1330  1.0183
 7531SOL     OW27048   0.043   1.095   2.728 -0.0391 -0.1458 -0.3187
 7531SOL    HW127049   0.018   1.106   2.820  0.8689 -1.1701  0.0701
 7531SOL    HW227050   0.062   1.002   2.719  0.4991  0.0521 -1.3811
 7532SOL     OW27051   3.032   2.149   2.028 -0.5146 -0.0171  0.2923
 7532SOL    HW127052   3.105   2.208   2.008 -0.4370 -0.2430 -0.0991
 7532SOL    HW227053   3.065   2.091   2.096 -0.6460  0.4946  0.8046
 7533SOL     OW27054   6.249   0.462   0.374  0.4438 -0.1095  0.4249
 7533SOL    HW127055   6.235   0.494   0.285 -2.1222 -0.4372  0.6306
 7533SOL    HW227056   6.299   0.381   0.363 -2.5902 -1.9452 -1.0950
 7534SOL     OW27057   3.703   0.285   5.191 -0.1915 -0.0048 -0.0480
 7534SOL    HW127058   3.679   0.211   5.246 -1.4464 -0.7164 -1.4709
 7534SOL    HW227059   3.622   0.309   5.146  0.4911  1.3835 -0.6079
 7535SOL     OW27060   1.939   1.543   5.197  0.4444  0.1265  0.8640
 7535SOL    HW127061   1.907   1.507   5.280 -0.2254  1.7616  1.3664
 7535SOL    HW227062   2.033   1.558   5.211  0.3362  0.3821  1.3448
 7536SOL     OW27063   7.436   4.584   3.555 -0.0468  0.1206  0.1472
 7536SOL    HW127064   7.479   4.544   3.479  0.9272  1.0682  0.1712
 7536SOL    HW227065   7.399   4.511   3.604  1.0726 -0.6775 -0.1807
 7537SOL     OW27066   2.465   2.881  10.436  0.4357  0.4506 -0.4532
 7537SOL    HW127067   2.422   2.907  10.517  0.4568  1.0537 -0.6325
 7537SOL    HW227068   2.421   2.800  10.410  1.9273 -1.0304  1.3563
 7538SOL     OW27069   5.718   4.562  10.162  0.0534  0.1734 -0.3031
 7538SOL    HW127070   5.811   4.571  10.142 -0.2794  1.5953 -1.3537
 7538SOL    HW227071   5.695   4.642  10.210 -0.9631  0.6426 -1.5190
 7539SOL     OW27072  10.368   8.491   0.695 -0.0848  0.3680 -0.4555
 7539SOL    HW127073  10.373   8.508   0.789 -2.7208 -1.9222  0.2014
 7539SOL    HW227074  10.455   8.458   0.672  0.6553  1.1305  1.1089
 7540SOL     OW27075   8.546   2.481   4.697  0.0411  0.3502  0.2441
 7540SOL    HW127076   8.459   2.520   4.685  0.9701  2.6901  0.5526
 7540SOL    HW227077   8.559   2.481   4.792  0.1844 -0.4516  0.2278
 7541SOL     OW27078   9.083   7.138   9.784 -0.2522 -0.3684 -0.2843
 7541SOL    HW127079   9.116   7.153   9.873 -0.5930  1.0108 -0.3680
 7541SOL    HW227080   9.118   7.053   9.760  0.4729 -0.4301  0.8913
 7542SOL     OW27081   6.656   1.582   0.209 -0.1012  0.3651  0.5318
 7542SOL    HW127082   6.610   1.501   0.230  0.8901 -0.6191 -0.9059
 7542SOL    HW227083   6.627   1.603   0.120  0.3465  1.0903  0.5546
 7543SOL     OW27084   5.608   4.046   8.441  0.4261 -0.1628  0.2884
 7543SOL    HW127085   5.601   3.973   8.379 -0.0158  0.7690 -0.7854
 7543SOL    HW227086   5.692   4.032   8.485  0.9099 -0.6540 -0.7709
 7544SOL     OW27087  10.205   2.575   7.010 -0.0415 -0.3848  0.1440
 7544SOL    HW127088  10.257   2.586   7.089 -1.7730  0.4582  1.2519
 7544SOL    HW227089  10.136   2.513   7.034 -1.1887  0.6394 -0.3507
 7545SOL     OW27090   3.709   2.817   4.038 -0.7498  0.2081  0.4313
 7545SOL    HW127091   3.674   2.904   4.017  1.1221  1.1818  1.1604
 7545SOL    HW227092   3.679   2.800   4.127 -0.4346  0.4807  0.5913
 7546SOL     OW27093   2.321   7.140   4.138 -0.2647  0.1087  0.0526
 7546SOL    HW127094   2.226   7.142   4.122 -0.1571 -0.3247 -0.6843
 7546SOL    HW227095   2.329   7.107   4.227 -0.8686  2.0677  0.8857
 7547SOL     OW27096   2.262   5.646  10.122 -0.6379  0.3548 -0.6248
 7547SOL    HW127097   2.182   5.617  10.077 -0.5897  0.1612 -0.5852
 7547SOL    HW227098   2.309   5.566  10.142 -1.3284  0.3287  1.0427
 7548SOL     OW27099   0.468   0.182   8.578 -0.0081  0.3912 -0.1009
 7548SOL    HW127100   0.398   0.165   8.640  2.3756  1.7472  3.2775
 7548SOL    HW227101   0.453   0.272   8.548 -0.3978  0.2192 -0.4296
 7549SOL     OW27102   2.331   4.491   4.297 -0.4686  0.5896  0.0600
 7549SOL    HW127103   2.388   4.461   4.226  1.0303  1.3502  0.8938
 7549SOL    HW227104   2.327   4.586   4.285 -2.4728  0.4668 -0.6099
 7550SOL     OW27105   8.246   9.689   5.150 -0.5762  0.4831 -0.0421
 7550SOL    HW127106   8.231   9.682   5.244  0.5483  0.8639  0.1826
 7550SOL    HW227107   8.233   9.781   5.130  2.3841  1.1221  0.4002
 7551SOL     OW27108   5.569   9.737   5.439  0.1245  0.1115 -0.9177
 7551SOL    HW127109   5.569   9.650   5.399  0.0696  0.3269 -1.4001
 7551SOL    HW227110   5.477   9.758   5.452  0.1673 -0.3036  0.1077
 7552SOL     OW27111   2.802   9.218  10.686  0.4102  0.0544  0.3941
 7552SOL    HW127112   2.873   9.154  10.696  0.5524  0.1119 -0.1870
 7552SOL    HW227113   2.806   9.244  10.594  2.1190  2.9641  1.1698
 7553SOL     OW27114  10.702   8.267   5.564 -0.8270 -0.6187  0.4893
 7553SOL    HW127115  10.680   8.293   5.654 -0.8142 -1.4196  0.7253
 7553SOL    HW227116  10.763   8.194   5.575  0.9310  0.6745 -0.1496
 7554SOL     OW27117   8.996   7.458   3.934 -0.5298  0.0272  0.5020
 7554SOL    HW127118   9.049   7.519   3.986 -0.0819  0.6727 -0.6653
 7554SOL    HW227119   9.006   7.374   3.978  2.7444 -0.2396 -0.4867
 7555SOL     OW27120   5.546   3.735   4.799 -0.2066  0.1939  0.1641
 7555SOL    HW127121   5.514   3.687   4.722  1.6566  1.9980 -1.9057
 7555SOL    HW227122   5.559   3.668   4.866  1.9843 -2.2177 -2.4396
 7556SOL     OW27123   3.476   4.518   6.772  0.9641  0.0130 -0.4045
 7556SOL    HW127124   3.425   4.571   6.833  0.1873 -0.3361 -0.7341
 7556SOL    HW227125   3.452   4.427   6.794  1.4349 -0.1544 -0.5714
 7557SOL     OW27126   4.455   5.641   0.342  0.0470 -0.3828 -0.1802
 7557SOL    HW127127   4.431   5.554   0.373 -3.4157  0.8602  1.0499
 7557SOL    HW227128   4.468   5.630   0.247 -1.2195 -2.0960 -0.2009
 7558SOL     OW27129   6.138   4.562   1.731 -0.5701  0.1278  0.0329
 7558SOL    HW127130   6.123   4.606   1.815 -0.0191 -0.3851  0.4048
 7558SOL    HW227131   6.201   4.493   1.750  1.4946  1.5335 -1.2585
 7559SOL     OW27132   8.898   6.056   4.971 -0.4561 -0.4770 -0.3347
 7559SOL    HW127133   8.937   6.135   5.008 -0.5688 -0.5163 -0.1274
 7559SOL    HW227134   8.826   6.087   4.916 -0.3216 -0.4201 -0.4765
 7560SOL     OW27135   0.026   4.243   7.885 -0.0038 -0.3345  0.6966
 7560SOL    HW127136   0.088   4.316   7.884  0.6078 -0.8532  0.6501
 7560SOL    HW227137  -0.060   4.285   7.890  0.2412  0.4638 -1.0073
 7561SOL     OW27138   9.357   2.709   9.002  1.2427 -1.0356 -0.0442
 7561SOL    HW127139   9.273   2.753   9.016  2.6880  1.5402  1.2494
 7561SOL    HW227140   9.380   2.731   8.912  0.8471 -1.2228 -0.1972
 7562SOL     OW27141   4.025   2.644   3.404 -0.3510 -0.0392 -0.1145
 7562SOL    HW127142   3.952   2.679   3.455 -0.0275 -1.4104  1.3865
 7562SOL    HW227143   3.994   2.560   3.372  0.2470 -0.2146 -0.2436
 7563SOL     OW27144   6.572   9.087   9.191 -0.0395 -0.4322 -1.0251
 7563SOL    HW127145   6.486   9.106   9.230  0.5879 -0.7727  0.6035
 7563SOL    HW227146   6.560   9.106   9.098 -1.2315  1.8294 -0.4965
 7564SOL     OW27147   6.723   4.564   1.985  0.5250 -0.5653 -0.4610
 7564SOL    HW127148   6.765   4.555   1.900  0.1769 -3.4136 -0.4405
 7564SOL    HW227149   6.641   4.610   1.967  2.3683  2.9290 -0.8482
 7565SOL     OW27150   5.887   4.270   8.942  0.7218 -0.0832 -0.4849
 7565SOL    HW127151   5.954   4.202   8.933  2.0317  1.2374 -1.2645
 7565SOL    HW227152   5.847   4.254   9.027  0.6900 -2.0696 -0.8382
 7566SOL     OW27153   7.739   9.784   7.626  0.0681 -0.6218 -0.0783
 7566SOL    HW127154   7.672   9.852   7.623 -0.8145 -1.4702 -0.3140
 7566SOL    HW227155   7.820   9.830   7.649 -0.0818  0.8258 -2.1804
 7567SOL     OW27156   7.615   8.013   9.367 -0.0997  0.0729  0.1520
 7567SOL    HW127157   7.619   7.983   9.276  0.3564 -0.9873  0.5011
 7567SOL    HW227158   7.523   8.005   9.390 -0.2725  0.6547 -0.3100
 7568SOL     OW27159   1.783   4.200   1.593 -0.3258 -0.1913 -0.1922
 7568SOL    HW127160   1.697   4.191   1.552  0.9114  1.0662 -3.3727
 7568SOL    HW227161   1.808   4.291   1.576  1.3861 -0.3323  1.2883
 7569SOL     OW27162   9.097   5.382   0.248  0.5253  0.5231 -0.4121
 7569SOL    HW127163   9.169   5.378   0.186  0.6050  0.5009 -0.3183
 7569SOL    HW227164   9.135   5.422   0.326  0.5177  0.2230 -0.2504
 7570SOL     OW27165   2.364  10.476   8.735  0.5027 -0.0326  0.2225
 7570SOL    HW127166   2.436  10.512   8.787  1.0582 -1.4276  0.4586
 7570SOL    HW227167   2.351  10.388   8.769 -0.8298 -0.0716 -0.3228
 7571SOL     OW27168   2.484   5.590   0.615 -0.3447 -0.7440 -0.4816
 7571SOL    HW127169   2.492   5.627   0.527 -3.8027 -1.4036 -1.2041
 7571SOL    HW227170   2.430   5.652   0.663  0.7489 -0.8376  0.9401
 7572SOL     OW27171   7.152   9.193   9.488  0.1095 -0.5092  0.2334
 7572SOL    HW127172   7.101   9.202   9.568 -0.7193 -1.4752 -0.1569
 7572SOL    HW227173   7.088   9.164   9.422  1.0309 -1.0755 -0.4429
 7573SOL     OW27174   0.998   1.171   4.736  0.0409 -0.1166 -0.1447
 7573SOL    HW127175   0.983   1.086   4.776  0.7280 -0.1630  0.0159
 7573SOL    HW227176   1.056   1.217   4.796 -0.2993  0.4558 -0.2449
 7574SOL     OW27177   2.876   0.892   0.856  0.3109 -0.2743 -0.2222
 7574SOL    HW127178   2.971   0.881   0.856  0.4669  1.0065  0.0632
 7574SOL    HW227179   2.855   0.917   0.946 -0.2629 -0.1994 -0.3746
 7575SOL     OW27180  10.470  10.090  10.729  0.7197  0.3604  0.0866
 7575SOL    HW127181  10.556  10.131  10.721  0.7104  0.0632 -1.8755
 7575SOL    HW227182  10.409  10.164  10.733  1.0320  0.5693  1.4337
 7576SOL     OW27183   3.273   7.634   8.454 -0.6659  0.5920 -0.5187
 7576SOL    HW127184   3.241   7.724   8.448  0.6709  1.0997 -0.4177
 7576SOL    HW227185   3.219   7.586   8.391  0.4461  2.0379 -2.7028
 7577SOL     OW27186   3.689   6.621   6.733 -0.2744 -0.7102 -0.2288
 7577SOL    HW127187   3.606   6.635   6.687 -1.1226  2.3386  1.9266
 7577SOL    HW227188   3.756   6.643   6.667 -1.4053  2.2154 -0.5563
 7578SOL     OW27189   8.064   5.040   7.322  0.0444 -0.5991 -0.0583
 7578SOL    HW127190   8.091   5.081   7.404 -0.0944 -1.2676  0.3293
 7578SOL    HW227191   8.001   4.972   7.348 -0.3101 -0.5551 -0.7495
 7579SOL     OW27192   7.137   8.267   2.612 -0.3868 -0.2868 -0.3860
 7579SOL    HW127193   7.093   8.294   2.531  0.0107 -0.3914 -0.6420
 7579SOL    HW227194   7.080   8.201   2.650 -1.7162  1.3292  0.5840
 7580SOL     OW27195   5.499   0.965   8.087 -0.5002  0.2615  0.2495
 7580SOL    HW127196   5.485   0.892   8.148 -2.1468 -0.9573 -1.4755
 7580SOL    HW227197   5.589   0.953   8.056 -0.4150 -0.4525  0.7331
 7581SOL     OW27198   1.631   5.216   8.943  0.6555 -0.4110  1.3058
 7581SOL    HW127199   1.723   5.217   8.914  0.2106  0.5087 -0.1729
 7581SOL    HW227200   1.623   5.295   8.996  0.0527  1.1101 -0.9292
 7582SOL     OW27201   1.986   8.409   5.869 -0.4609 -0.0760 -0.7819
 7582SOL    HW127202   1.989   8.420   5.774 -2.5550 -3.1008 -1.3307
 7582SOL    HW227203   1.914   8.348   5.884  1.4540 -1.8179  2.5447
 7583SOL     OW27204   6.537   7.797   6.863  0.7137  0.4762  0.2763
 7583SOL    HW127205   6.548   7.848   6.943 -0.2028  1.6047 -0.2785
 7583SOL    HW227206   6.620   7.752   6.851  1.1786  1.0207  1.3670
 7584SOL     OW27207   1.615   5.478   3.924  0.1276  0.3834  0.0759
 7584SOL    HW127208   1.529   5.455   3.888  0.6859 -1.2806 -0.2874
 7584SOL    HW227209   1.595   5.538   3.996 -1.2850  0.5420 -0.4043
 7585SOL     OW27210   1.943   2.544   6.441  0.2604 -0.1443  0.5308
 7585SOL    HW127211   1.865   2.497   6.473  0.3694 -0.5914  0.1615
 7585SOL    HW227212   2.006   2.474   6.422  0.7212  0.2109  0.7422
 7586SOL     OW27213   0.685   5.434   4.418  0.1486 -0.8493 -0.0745
 7586SOL    HW127214   0.673   5.438   4.513  1.4540 -0.6654  0.1033
 7586SOL    HW227215   0.739   5.511   4.398 -0.4085 -0.6905 -1.0227
 7587SOL     OW27216  11.069  10.055   1.224  0.1254 -0.1225  0.4746
 7587SOL    HW127217  11.077   9.974   1.273 -1.4248 -0.5699  0.0181
 7587SOL    HW227218  10.979  10.083   1.236  0.6360  1.5738  0.6532
 7588SOL     OW27219   9.091   1.579   4.574  0.7091  0.3849  0.2635
 7588SOL    HW127220   9.060   1.494   4.545 -1.0513  0.3405  2.0477
 7588SOL    HW227221   9.099   1.631   4.494  0.1742 -0.9367 -0.6778
 7589SOL     OW27222  10.058   7.315   3.423  0.1409 -0.2383 -0.3794
 7589SOL    HW127223  10.097   7.400   3.406  0.7618 -0.5634 -0.6003
 7589SOL    HW227224   9.966   7.325   3.397  0.0568  0.5361  0.1655
 7590SOL     OW27225   0.230   0.732   9.236  0.3208  0.7386 -0.2514
 7590SOL    HW127226   0.267   0.644   9.237 -0.3917  0.4246  0.7802
 7590SOL    HW227227   0.275   0.776   9.165  1.9285  0.0724  0.3088
 7591SOL     OW27228   5.332   2.372   5.471  0.1154  0.4370 -0.0594
 7591SOL    HW127229   5.258   2.431   5.455 -0.3255 -0.2159 -0.4480
 7591SOL    HW227230   5.371   2.405   5.552 -2.0285 -0.6280  1.5148
 7592SOL     OW27231   0.369  10.604   9.016  0.3829  0.2863 -0.5006
 7592SOL    HW127232   0.428  10.605   9.091  2.1649 -2.1964 -1.7415
 7592SOL    HW227233   0.282  10.591   9.054  1.1883 -0.5730  1.1617
 7593SOL     OW27234   0.543   1.134   6.211 -0.1829  0.2611 -0.2106
 7593SOL    HW127235   0.540   1.129   6.116  2.7035 -5.1695 -0.4364
 7593SOL    HW227236   0.631   1.166   6.231 -0.7034  1.2080  0.6873
 7594SOL     OW27237   9.277   2.362   0.487 -0.1305 -0.6278 -0.2684
 7594SOL    HW127238   9.231   2.368   0.403  1.0118  1.5622 -0.8042
 7594SOL    HW227239   9.369   2.371   0.464  0.4187 -2.2957  1.0431
 7595SOL     OW27240   1.738   2.492   3.104 -0.2793 -0.2832 -0.1904
 7595SOL    HW127241   1.716   2.418   3.048  0.1982  0.2805 -1.1762
 7595SOL    HW227242   1.740   2.567   3.044 -0.0910  0.4102  0.6550
 7596SOL     OW27243   0.964   9.399   6.924 -0.0657 -0.0974 -0.1383
 7596SOL    HW127244   0.948   9.490   6.947 -0.6015 -0.1979 -0.1047
 7596SOL    HW227245   1.042   9.401   6.868  2.5538 -0.0043  3.1940
 7597SOL     OW27246  10.908   1.125   6.970 -0.1554  0.0334  0.3837
 7597SOL    HW127247  10.987   1.075   6.992  0.1963  1.0199  1.4318
 7597SOL    HW227248  10.937   1.216   6.964 -1.1815  0.3978  0.6739
 7598SOL     OW27249   1.524   7.756   1.079  0.2790 -0.3278 -0.1807
 7598SOL    HW127250   1.541   7.737   0.987 -1.4117 -0.5074 -0.4884
 7598SOL    HW227251   1.454   7.821   1.078  0.9808  0.4730  0.9767
 7599SOL     OW27252   1.026   5.121   2.324  0.0787  0.1155 -0.6452
 7599SOL    HW127253   0.963   5.049   2.316 -0.8797  0.9883 -1.2424
 7599SOL    HW227254   1.101   5.083   2.369 -1.2967 -0.6798  1.0575
 7600SOL     OW27255   4.958   5.608   3.573 -0.0967  0.0216 -0.2336
 7600SOL    HW127256   4.962   5.535   3.635 -0.9643 -1.1649 -1.5263
 7600SOL    HW227257   4.997   5.682   3.621  2.7574 -1.7332  0.4084
 7601SOL     OW27258   0.525   5.561   9.085 -0.3938 -0.1746  0.3899
 7601SOL    HW127259   0.493   5.648   9.060 -0.7882 -0.5157 -0.3291
 7601SOL    HW227260   0.559   5.572   9.173  0.8535  1.0292 -0.2114
 7602SOL     OW27261   6.630   3.351   0.384 -0.2034 -0.2360  0.3912
 7602SOL    HW127262   6.560   3.298   0.423 -0.8324  2.0145  2.5593
 7602SOL    HW227263   6.651   3.416   0.451  1.4119  1.4796 -1.6491
 7603SOL     OW27264   9.139   2.930   6.588  0.7321 -0.0368  0.3572
 7603SOL    HW127265   9.083   2.934   6.510  1.2199 -1.7517 -0.1234
 7603SOL    HW227266   9.191   3.010   6.584  1.5239 -0.5867 -1.7089
 7604SOL     OW27267   8.017   8.303   0.589  0.2789  0.2068  0.1603
 7604SOL    HW127268   8.099   8.259   0.566 -0.4125 -0.8089 -0.4490
 7604SOL    HW227269   7.994   8.353   0.510 -0.8054 -1.2728 -0.4887
 7605SOL     OW27270  10.144   5.437   5.964 -0.6338 -0.0016 -0.0670
 7605SOL    HW127271  10.097   5.357   5.987 -0.0113 -0.6138 -0.8451
 7605SOL    HW227272  10.076   5.497   5.934 -1.3464  0.4933  2.3664
 7606SOL     OW27273   2.505   3.852   1.142 -0.5285  0.2055  0.4896
 7606SOL    HW127274   2.560   3.785   1.183  0.6805  2.2312  2.4303
 7606SOL    HW227275   2.526   3.846   1.049  1.3934 -0.5230  0.9149
 7607SOL     OW27276   7.020   4.345   9.039  0.3799  0.5902  0.4975
 7607SOL    HW127277   6.933   4.382   9.025 -0.0643 -0.2434  1.0030
 7607SOL    HW227278   7.063   4.353   8.954 -1.1059 -1.3727 -0.5253
 7608SOL     OW27279   0.902   6.868   1.277 -0.0810 -0.1015  0.0097
 7608SOL    HW127280   0.849   6.844   1.354 -0.7184 -1.5976 -0.8586
 7608SOL    HW227281   0.982   6.817   1.286 -0.3487 -0.6334 -0.5259
 7609SOL     OW27282   3.871   3.952   2.969 -0.1126  0.5976  1.2846
 7609SOL    HW127283   3.900   4.027   3.022  0.9554  2.8705 -2.1830
 7609SOL    HW227284   3.788   3.980   2.930  0.1432 -0.1185  0.1799
 7610SOL     OW27285   9.953   0.809   1.068  0.1240  0.4925  0.3469
 7610SOL    HW127286   9.993   0.743   1.011  0.7120 -1.0162  2.3756
 7610SOL    HW227287   9.945   0.765   1.153 -2.8900  1.8480  0.8719
 7611SOL     OW27288   6.860   0.868   0.845  0.1712  0.4218 -0.0350
 7611SOL    HW127289   6.946   0.828   0.853 -0.3675 -0.5840  1.1599
 7611SOL    HW227290   6.866   0.925   0.768  1.1262 -1.6029 -1.5386
 7612SOL     OW27291   5.197   1.792   5.476  0.4963 -0.5751 -0.4115
 7612SOL    HW127292   5.262   1.740   5.429  0.3383 -0.1718 -1.0774
 7612SOL    HW227293   5.123   1.799   5.416 -0.8511 -2.3956  0.9380
 7613SOL     OW27294   9.607   7.781   5.079 -0.2679  0.1924 -0.1376
 7613SOL    HW127295   9.643   7.868   5.064 -1.9944  0.7201 -1.5813
 7613SOL    HW227296   9.666   7.722   5.032  0.3242  0.6963 -0.0363
 7614SOL     OW27297   0.560   5.589   0.565  0.2618 -0.2234 -0.3100
 7614SOL    HW127298   0.633   5.650   0.575 -2.2247  3.0988 -0.5267
 7614SOL    HW227299   0.525   5.579   0.654  1.9860 -3.4671  0.1711
 7615SOL     OW27300  10.330   5.995   7.600  0.0718 -0.0891  0.4763
 7615SOL    HW127301  10.379   6.011   7.681 -1.7198  0.1666  1.5622
 7615SOL    HW227302  10.243   6.033   7.616 -0.9576 -1.7376 -0.8140
 7616SOL     OW27303   3.874   5.359   7.719 -0.0435 -0.5783  0.1980
 7616SOL    HW127304   3.931   5.297   7.764 -0.3832 -1.5164 -0.6215
 7616SOL    HW227305   3.930   5.403   7.656 -0.1660 -1.4092 -0.5180
 7617SOL     OW27306   1.132  10.374   7.697  0.3635  0.3425  0.0780
 7617SOL    HW127307   1.200  10.392   7.761  0.2233  0.1901  0.2714
 7617SOL    HW227308   1.179  10.354   7.617  0.5353  2.4296 -0.4115
 7618SOL     OW27309   6.616   0.120   9.847 -0.1202  0.5835 -0.2798
 7618SOL    HW127310   6.587   0.029   9.836  0.7031  0.3377 -0.5559
 7618SOL    HW227311   6.546   0.162   9.897  0.4339 -0.7329  1.7302
 7619SOL     OW27312   4.386  11.058   1.504  0.1062 -0.3476 -0.1732
 7619SOL    HW127313   4.308  11.084   1.456 -0.2651 -0.4674  0.3633
 7619SOL    HW227314   4.457  11.068   1.441 -0.3809 -0.5386 -0.7572
 7620SOL     OW27315   1.900   2.556   9.363 -0.0633 -0.3229 -0.2920
 7620SOL    HW127316   1.978   2.611   9.363 -0.6149  0.4737 -0.0519
 7620SOL    HW227317   1.891   2.526   9.453 -0.9617  0.9512  0.0673
 7621SOL     OW27318   0.523   6.494   1.141  0.2366  0.1137  0.1948
 7621SOL    HW127319   0.590   6.428   1.124  0.8030  0.9343 -0.9048
 7621SOL    HW227320   0.469   6.493   1.062 -0.4549  0.1448  0.6680
 7622SOL     OW27321   1.429   3.477   3.472 -0.2182 -0.3503 -0.1759
 7622SOL    HW127322   1.360   3.535   3.503 -1.6614  0.2885 -3.9778
 7622SOL    HW227323   1.399   3.389   3.494 -3.2429 -0.2237 -3.0474
 7623SOL     OW27324   5.069   8.879   1.218  0.2518 -0.1237  0.1662
 7623SOL    HW127325   5.072   8.951   1.155  0.6127 -0.8345 -0.6524
 7623SOL    HW227326   5.154   8.882   1.261 -0.5036  1.2258  1.6380
 7624SOL     OW27327   1.430   7.431   7.381 -0.6955 -0.2230  0.4196
 7624SOL    HW127328   1.445   7.372   7.455 -0.6889  0.8539  1.2920
 7624SOL    HW227329   1.376   7.380   7.321  1.2708 -1.9801  0.0378
 7625SOL     OW27330  10.844  10.366   5.548  0.1251 -0.6698  0.5058
 7625SOL    HW127331  10.861  10.325   5.463 -1.6426 -1.2232  0.3790
 7625SOL    HW227332  10.912  10.331   5.606  1.9160  0.4250 -0.8604
 7626SOL     OW27333   9.013   1.355   4.471 -0.2663  0.1343  0.0662
 7626SOL    HW127334   9.019   1.259   4.467 -1.4397  0.0466  0.2212
 7626SOL    HW227335   8.936   1.377   4.418 -0.1909  0.9690  0.2884
 7627SOL     OW27336   1.851  10.859   9.598  0.4856  0.3318  0.1493
 7627SOL    HW127337   1.906  10.909   9.538  2.3875 -0.6469  0.9895
 7627SOL    HW227338   1.853  10.909   9.680 -1.1509  1.0545 -0.1993
 7628SOL     OW27339   4.217   9.758   4.959  0.1195  0.1078  0.3451
 7628SOL    HW127340   4.293   9.766   4.901  0.4877 -2.1035  0.4136
 7628SOL    HW227341   4.145   9.795   4.909  1.3518  3.2404  0.6762
 7629SOL     OW27342   7.559   1.821   3.576 -0.2077 -0.4882 -0.3459
 7629SOL    HW127343   7.634   1.845   3.522 -0.3851 -0.2218 -0.4717
 7629SOL    HW227344   7.486   1.874   3.543 -0.2423 -0.0664  0.3597
 7630SOL     OW27345  10.651   3.867   2.111 -0.0350 -0.1444 -0.4559
 7630SOL    HW127346  10.741   3.891   2.090 -0.0306 -0.0439 -0.3231
 7630SOL    HW227347  10.657   3.781   2.153 -0.2222 -1.3844 -2.7973
 7631SOL     OW27348   0.567   5.183   6.087 -0.3737  0.4394  0.2363
 7631SOL    HW127349   0.586   5.122   6.158 -0.2926 -0.5352 -0.6060
 7631SOL    HW227350   0.642   5.176   6.029 -0.2044  1.6088  0.2936
 7632SOL     OW27351   5.718   9.506   6.570  0.0731 -0.0884  0.4670
 7632SOL    HW127352   5.795   9.557   6.593  2.4244 -2.3604 -1.5680
 7632SOL    HW227353   5.687   9.470   6.653  2.1285 -0.2494  1.2315
 7633SOL     OW27354   2.334   7.581   3.859 -0.1902  0.5901  0.2337
 7633SOL    HW127355   2.250   7.584   3.814 -0.0151  2.0837 -0.0495
 7633SOL    HW227356   2.311   7.566   3.951 -0.7400  0.5498  0.0919
 7634SOL     OW27357   8.495   7.893   3.716 -0.3452 -0.0810 -0.4846
 7634SOL    HW127358   8.488   7.825   3.783 -0.9232  1.3676  0.9650
 7634SOL    HW227359   8.589   7.910   3.710 -0.2043 -0.9044 -0.7831
 7635SOL     OW27360   5.455   5.470  10.051 -0.1653  0.4848  0.0586
 7635SOL    HW127361   5.437   5.376  10.050 -0.3378  0.5154  0.3833
 7635SOL    HW227362   5.453   5.495   9.958 -0.3991  0.2241 -0.0076
 7636SOL     OW27363   9.926   1.648   4.901 -0.1695  0.1791 -0.1027
 7636SOL    HW127364   9.959   1.559   4.911 -0.1015 -0.0057 -1.6113
 7636SOL    HW227365   9.831   1.639   4.894 -0.0547 -0.0757 -2.3241
 7637SOL     OW27366   7.226   7.292   7.753 -0.0740  0.1283 -0.6348
 7637SOL    HW127367   7.187   7.339   7.680 -1.6613 -0.3136 -0.1056
 7637SOL    HW227368   7.296   7.240   7.713 -0.0537  0.8783 -1.6201
 7638SOL     OW27369   2.079   7.597   5.317 -0.0854 -0.2308 -0.2523
 7638SOL    HW127370   2.142   7.528   5.337 -0.7778 -0.7324  0.2433
 7638SOL    HW227371   2.086   7.658   5.391  0.7029  0.3755 -0.8101
 7639SOL     OW27372   1.810   9.732   5.436 -0.1701 -0.2410  0.3571
 7639SOL    HW127373   1.783   9.651   5.392  0.5595  0.8529 -2.2922
 7639SOL    HW227374   1.809   9.710   5.529 -0.2749 -3.2097 -0.2481
 7640SOL     OW27375   2.652  10.730  10.984  0.3504 -0.2262  0.1631
 7640SOL    HW127376   2.623  10.820  10.965 -1.4769 -0.3418  2.1045
 7640SOL    HW227377   2.579  10.675  10.955  1.8411 -1.2647 -1.9179
 7641SOL     OW27378  10.583   8.916   3.255 -0.6683 -0.1197  0.5068
 7641SOL    HW127379  10.581   8.845   3.320 -1.4038 -0.5432  0.0410
 7641SOL    HW227380  10.606   8.872   3.173 -0.8844  0.2220  0.2618
 7642SOL     OW27381   1.667   6.585   0.658  0.6363 -0.0280 -0.3562
 7642SOL    HW127382   1.644   6.649   0.590 -0.7388 -0.7209 -0.5793
 7642SOL    HW227383   1.762   6.596   0.669  0.5093  1.7871 -0.6356
 7643SOL     OW27384   7.576   4.627   0.643 -0.6481  0.4741  0.4273
 7643SOL    HW127385   7.569   4.706   0.591 -1.7156 -0.1153 -0.3737
 7643SOL    HW227386   7.567   4.555   0.580 -0.1249 -0.2761  1.1804
 7644SOL     OW27387   4.416   8.710  10.224  0.0050  0.0781  0.1420
 7644SOL    HW127388   4.376   8.646  10.166 -0.2609 -0.1296  0.5467
 7644SOL    HW227389   4.508   8.685  10.228  0.1353  0.4181 -0.6105
 7645SOL     OW27390   6.979   0.670   9.077 -0.1196  0.3245  0.0739
 7645SOL    HW127391   6.901   0.718   9.050 -0.1819  0.5206  0.5996
 7645SOL    HW227392   7.040   0.737   9.107 -0.1741  0.0912  0.7267
 7646SOL     OW27393   4.441   8.020   1.180 -0.3661 -0.1628  0.3752
 7646SOL    HW127394   4.523   8.007   1.228  0.5838  1.5082 -0.7157
 7646SOL    HW227395   4.413   7.931   1.156  1.4159 -0.7368  0.2814
 7647SOL     OW27396   5.323   3.431   7.410 -0.0584  0.0968  0.6429
 7647SOL    HW127397   5.283   3.373   7.346  1.1172  0.2331 -0.2534
 7647SOL    HW227398   5.263   3.505   7.416 -0.2536  0.0168 -0.2032
 7648SOL     OW27399   2.536   9.618   9.928 -0.1229 -0.4252 -0.1702
 7648SOL    HW127400   2.462   9.568   9.963 -1.0089 -0.1284 -1.5825
 7648SOL    HW227401   2.613   9.569   9.958 -0.9063 -1.2903  0.4897
 7649SOL     OW27402  10.677   2.894   7.955 -0.1002  0.2487  0.0275
 7649SOL    HW127403  10.689   2.988   7.939  1.6672  0.5776  2.5866
 7649SOL    HW227404  10.598   2.871   7.907  0.6265  2.5244 -2.4821
 7650SOL     OW27405   0.596   6.463  10.632 -0.2383  0.0826 -0.3421
 7650SOL    HW127406   0.549   6.535  10.674 -1.8465 -0.4270 -1.1722
 7650SOL    HW227407   0.668   6.442  10.691  0.8985  3.0062 -0.5589
 7651SOL     OW27408   2.961   3.650   0.860 -0.5014 -0.0134  0.1275
 7651SOL    HW127409   2.995   3.676   0.774  0.9160 -0.8613  0.3870
 7651SOL    HW227410   2.898   3.580   0.841  0.5021 -0.8628 -0.2045
 7652SOL     OW27411   6.115   4.483   2.485  0.3589  0.1222  0.2330
 7652SOL    HW127412   6.171   4.501   2.560 -0.3973 -1.4628  1.2208
 7652SOL    HW227413   6.027   4.507   2.514  0.1852  0.4475 -0.5198
 7653SOL     OW27414   0.658   0.537   0.091  0.0492  0.4970  0.1527
 7653SOL    HW127415   0.629   0.502   0.007  0.1177  0.1600  0.2641
 7653SOL    HW227416   0.670   0.459   0.146 -1.6550  0.7983  1.0192
 7654SOL     OW27417   9.373   6.307  10.087  0.1276 -0.0057 -0.1830
 7654SOL    HW127418   9.331   6.358  10.018 -0.5208  1.1021  0.9785
 7654SOL    HW227419   9.359   6.359  10.167  1.8606 -0.6613  0.5988
 7655SOL     OW27420   0.959   3.543   3.362  0.1190  0.1129 -0.0081
 7655SOL    HW127421   0.977   3.633   3.336  1.6324 -0.1070  0.2249
 7655SOL    HW227422   1.000   3.490   3.293  0.5158 -0.4102  0.6252
 7656SOL     OW27423   8.050   7.956   0.584 -0.4841 -0.1475  0.4041
 7656SOL    HW127424   8.025   7.865   0.602 -0.5493 -0.1639  0.2299
 7656SOL    HW227425   7.997   8.008   0.645 -0.3284 -0.2352  0.6170
 7657SOL     OW27426   8.219   2.656   0.419  0.1791  0.1063  0.3355
 7657SOL    HW127427   8.224   2.561   0.426 -0.2890  0.0979  0.6190
 7657SOL    HW227428   8.135   2.672   0.376  0.7893  0.3509 -0.7933
 7658SOL     OW27429   5.958   8.507   7.810 -0.0657  0.3628  0.2429
 7658SOL    HW127430   6.019   8.440   7.840  0.9484  1.1084 -0.0915
 7658SOL    HW227431   5.886   8.458   7.770  0.3565 -0.5357  0.5738
 7659SOL     OW27432   7.823   3.725   4.574 -0.6683 -0.4039 -0.0534
 7659SOL    HW127433   7.806   3.635   4.601  0.7004 -0.5821  0.2888
 7659SOL    HW227434   7.900   3.751   4.625 -1.9650  1.5178  1.0650
 7660SOL     OW27435   5.449   4.445  10.379 -0.0214 -0.7528 -0.3584
 7660SOL    HW127436   5.375   4.418  10.324 -0.6583  0.1040  0.0507
 7660SOL    HW227437   5.511   4.373  10.372 -0.3584 -0.9474 -1.7026
 7661SOL     OW27438   2.726   2.210   7.844 -0.1543  0.2432  0.2037
 7661SOL    HW127439   2.735   2.299   7.877  0.3296 -0.6512  2.6968
 7661SOL    HW227440   2.769   2.212   7.758  0.3097  2.2729  0.4340
 7662SOL     OW27441   7.427   1.248   4.136  0.2006  0.7455 -0.2627
 7662SOL    HW127442   7.351   1.196   4.108  2.1767 -1.4731 -1.9544
 7662SOL    HW227443   7.482   1.185   4.183  1.2053  2.2012  0.5664
 7663SOL     OW27444   5.725   4.954   3.034 -0.0672 -0.4131  0.1368
 7663SOL    HW127445   5.778   5.022   2.994  0.1153 -0.5864  0.0876
 7663SOL    HW227446   5.706   4.987   3.122 -0.3240 -0.1133 -0.0292
 7664SOL     OW27447   6.866   5.268   9.438 -0.8107  0.6567 -0.0945
 7664SOL    HW127448   6.834   5.286   9.526  1.1127  0.9273  0.5859
 7664SOL    HW227449   6.840   5.344   9.386 -0.1531  1.4476  0.7329
 7665SOL     OW27450   8.179   2.621   9.263  0.1948 -0.2629  0.3114
 7665SOL    HW127451   8.171   2.617   9.167  1.2427 -0.4882  0.2212
 7665SOL    HW227452   8.146   2.537   9.293 -0.4971 -0.0424  0.1793
 7666SOL     OW27453   8.290   4.054  10.550  0.0271  0.0104 -0.2908
 7666SOL    HW127454   8.328   4.128  10.598 -0.5670  0.1285  0.0147
 7666SOL    HW227455   8.263   3.992  10.617  0.2650 -0.3620 -0.5329
 7667SOL     OW27456   0.223  10.195   6.133 -0.1319  0.3905 -0.0113
 7667SOL    HW127457   0.204  10.279   6.092  1.8576  1.0347  0.2993
 7667SOL    HW227458   0.283  10.215   6.204  0.5409 -1.3178 -0.0399
 7668SOL     OW27459  10.519   5.914   0.371  0.6640  0.3830 -0.0801
 7668SOL    HW127460  10.468   5.934   0.292  1.2224 -1.7363 -1.0361
 7668SOL    HW227461  10.529   5.819   0.370  0.3149  0.2229  2.8041
 7669SOL     OW27462  10.883   3.595  10.992 -0.0460 -0.2855  0.6214
 7669SOL    HW127463  10.885   3.521  11.053  0.2784 -0.0729  0.8683
 7669SOL    HW227464  10.908   3.670  11.045 -1.8376  0.2706  0.7381
 7670SOL     OW27465   5.494   6.505   2.476  0.0870  0.6905  0.3442
 7670SOL    HW127466   5.409   6.545   2.492 -0.5517 -0.4030 -0.2499
 7670SOL    HW227467   5.536   6.563   2.413  0.0455  1.5603  1.0943
 7671SOL     OW27468   8.354   1.785   4.064 -0.2415 -0.1572  0.1612
 7671SOL    HW127469   8.351   1.881   4.062  1.8725 -0.0423 -1.3399
 7671SOL    HW227470   8.423   1.765   4.127 -0.1769 -0.6569 -0.0673
 7672SOL     OW27471  10.639  10.784  10.483  0.0500  0.2067 -0.5228
 7672SOL    HW127472  10.699  10.803  10.556  0.6645 -1.2854 -0.6177
 7672SOL    HW227473  10.658  10.694  10.459 -1.5884  0.0200 -1.2022
 7673SOL     OW27474   8.195   9.490   0.569 -0.4322  0.1000 -0.0971
 7673SOL    HW127475   8.212   9.410   0.620  2.5840 -0.2685 -1.4405
 7673SOL    HW227476   8.241   9.559   0.617 -0.4177  0.4110 -0.5493
 7674SOL     OW27477   9.018   8.974   5.097  0.0691  0.1482 -0.4094
 7674SOL    HW127478   8.959   8.900   5.112 -1.3418  1.5435  1.2527
 7674SOL    HW227479   9.105   8.935   5.101 -0.6189 -1.3951  0.6609
 7675SOL     OW27480   0.862   8.513   1.900 -0.2284 -0.0318  0.8292
 7675SOL    HW127481   0.790   8.450   1.896 -0.9675  0.7383  1.6644
 7675SOL    HW227482   0.826   8.593   1.861  1.3058 -0.6120 -2.0915
 7676SOL     OW27483   8.914   6.826   5.475  0.1002  0.1364  0.4954
 7676SOL    HW127484   8.913   6.732   5.490  0.8357  0.1576  0.7466
 7676SOL    HW227485   8.847   6.860   5.535  0.6176 -0.1268  1.2469
 7677SOL     OW27486   6.720   6.950   0.703  0.1596  0.1114  0.0116
 7677SOL    HW127487   6.751   7.020   0.760 -0.1610  0.9958 -0.8918
 7677SOL    HW227488   6.706   6.991   0.618 -3.0100 -0.3193  0.2108
 7678SOL     OW27489   8.368   0.735   0.716  0.8267 -0.4480 -0.4099
 7678SOL    HW127490   8.328   0.795   0.654 -0.4261  2.0332  2.5440
 7678SOL    HW227491   8.462   0.749   0.708  0.8556 -1.6390 -2.9796
 7679SOL     OW27492   4.204   7.450   9.954 -0.2807  0.1236  0.1442
 7679SOL    HW127493   4.206   7.396   9.875 -2.5069 -0.3298  0.3262
 7679SOL    HW227494   4.283   7.426  10.002 -0.6935 -2.3050 -0.2663
 7680SOL     OW27495  10.323   3.148   1.868 -0.2169 -0.0976 -0.1353
 7680SOL    HW127496  10.287   3.116   1.785  0.8721 -1.0093 -0.2665
 7680SOL    HW227497  10.247   3.185   1.913 -0.9831 -0.3500 -1.1682
 7681SOL     OW27498   5.517   4.579   1.476  0.2470  0.0607  0.4543
 7681SOL    HW127499   5.515   4.675   1.467 -1.9413  0.0906  0.7430
 7681SOL    HW227500   5.586   4.563   1.541  0.7077  1.4227  0.3481
 7682SOL     OW27501   8.583   4.224   7.957 -0.1401  0.5745 -0.1042
 7682SOL    HW127502   8.522   4.153   7.976 -0.5462  0.6764 -0.9756
 7682SOL    HW227503   8.667   4.195   7.992 -0.7901  0.6489  1.5823
 7683SOL     OW27504  10.922   4.452  10.925  0.0119 -0.1226  0.2662
 7683SOL    HW127505  10.902   4.366  10.889 -1.1120 -0.6530  2.0528
 7683SOL    HW227506  11.011   4.471  10.894 -0.0320 -1.5486 -0.8177
 7684SOL     OW27507   9.971   0.266   3.377  0.0750 -0.3330 -1.0369
 7684SOL    HW127508  10.040   0.243   3.438  1.1542  2.8505 -0.8806
 7684SOL    HW227509  10.008   0.249   3.290  0.2836 -0.4652 -0.9218
 7685SOL     OW27510   0.387   4.622   3.068  0.4913 -0.1004 -0.2571
 7685SOL    HW127511   0.401   4.692   3.132  0.6548  1.3551 -1.8165
 7685SOL    HW227512   0.301   4.587   3.090  0.2140  0.8900  0.3122
 7686SOL     OW27513   7.738   9.313   4.670  0.6394  0.4846  0.2626
 7686SOL    HW127514   7.737   9.321   4.765 -0.5007  0.7584  0.2436
 7686SOL    HW227515   7.651   9.341   4.643  1.1427  0.9669 -0.9184
 7687SOL     OW27516   4.467   5.356   9.715 -0.3099  0.1279 -0.0334
 7687SOL    HW127517   4.523   5.296   9.764 -0.3183  0.6912  0.6923
 7687SOL    HW227518   4.520   5.436   9.706 -0.4287  0.1370 -0.6736
 7688SOL     OW27519   2.249   1.729   7.149 -0.1956 -0.0583  0.8371
 7688SOL    HW127520   2.176   1.680   7.187 -0.4813 -0.2967  0.0208
 7688SOL    HW227521   2.327   1.688   7.184 -0.4530  0.2182  1.7482
 7689SOL     OW27522   9.279  10.949   4.173  0.6093  0.0366 -0.0812
 7689SOL    HW127523   9.359  10.993   4.202 -1.3044  2.4121  2.0084
 7689SOL    HW227524   9.262  10.883   4.240  1.2255 -1.1150 -1.0119
 7690SOL     OW27525   3.144  10.416   8.295 -0.5690 -0.1210 -0.0154
 7690SOL    HW127526   3.226  10.464   8.287 -2.0718  2.6753 -0.0382
 7690SOL    HW227527   3.163  10.346   8.358  1.6532  0.7976  0.4276
 7691SOL     OW27528   9.196   0.648   9.817  0.1817  0.0404  0.1421
 7691SOL    HW127529   9.213   0.614   9.905  0.8534 -1.1310 -0.4307
 7691SOL    HW227530   9.282   0.676   9.785 -0.1584  1.0723  0.0868
 7692SOL     OW27531   7.043   9.569  10.764  0.8952  0.1620 -0.8287
 7692SOL    HW127532   6.973   9.503  10.768  0.3794  0.7372  0.0927
 7692SOL    HW227533   7.097   9.543  10.690  0.2075 -0.8082 -1.0037
 7693SOL     OW27534   0.997   0.106   8.459 -0.2016  0.1474 -0.1577
 7693SOL    HW127535   0.982   0.192   8.419  0.0682 -0.2645 -1.1726
 7693SOL    HW227536   0.910   0.075   8.481 -0.4787 -0.0738 -1.4461
 7694SOL     OW27537   3.378   8.812   4.021 -0.5102  0.0829 -0.2569
 7694SOL    HW127538   3.417   8.748   4.080 -2.8871 -0.2492  1.0768
 7694SOL    HW227539   3.379   8.769   3.935  0.1778 -0.7131  0.1429
 7695SOL     OW27540   4.905   7.113   7.907 -0.5002  0.0819 -0.4275
 7695SOL    HW127541   4.924   7.151   7.822  1.3317 -1.1790 -0.6300
 7695SOL    HW227542   4.828   7.058   7.892 -0.8059  0.6465 -1.0038
 7696SOL     OW27543   3.831   2.720   3.612 -0.4120 -0.1660  0.5078
 7696SOL    HW127544   3.787   2.645   3.654  0.0496 -0.1683  0.9914
 7696SOL    HW227545   3.848   2.781   3.683  0.7529 -0.3476  0.4042
 7697SOL     OW27546   2.610   4.394   6.159 -0.0674 -0.0098 -0.1938
 7697SOL    HW127547   2.604   4.484   6.191  0.6648 -0.1413  0.3284
 7697SOL    HW227548   2.528   4.353   6.186  0.3456  0.0041  1.1608
 7698SOL     OW27549   7.534   3.752   4.234  0.5239  0.3819  0.6262
 7698SOL    HW127550   7.576   3.693   4.171  0.6352  0.7086  0.3876
 7698SOL    HW227551   7.597   3.823   4.245 -0.7383  1.9010 -1.2605
 7699SOL     OW27552   4.951   1.257   4.693 -0.1393  0.0304 -0.2239
 7699SOL    HW127553   4.926   1.168   4.668  1.8118 -0.1421 -1.8358
 7699SOL    HW227554   5.010   1.286   4.623  0.5346  2.0098  1.0698
 7700SOL     OW27555   6.312   1.936   1.788  0.0099  0.0132 -0.1343
 7700SOL    HW127556   6.352   1.924   1.702 -1.6070  0.1022 -0.9435
 7700SOL    HW227557   6.251   2.009   1.776 -2.7283 -2.0844  0.1436
 7701SOL     OW27558   4.899   0.540  10.476 -0.2522  0.3419  0.0648
 7701SOL    HW127559   4.838   0.495  10.535  0.6516  1.2757  1.7898
 7701SOL    HW227560   4.845   0.566  10.401 -1.3828 -1.1395  0.3285
 7702SOL     OW27561   9.505   7.645   0.790  0.7624 -0.0365 -0.1651
 7702SOL    HW127562   9.597   7.628   0.811  0.8532  0.3591 -0.2255
 7702SOL    HW227563   9.461   7.650   0.875  0.9870  0.7815 -0.0831
 7703SOL     OW27564   3.128   6.327   0.021 -0.1118  0.1118  0.1478
 7703SOL    HW127565   3.080   6.366  -0.052  1.5779  0.6596 -0.7250
 7703SOL    HW227566   3.214   6.305  -0.015  0.0220 -1.7168  1.3964
 7704SOL     OW27567   0.652   4.959  10.490  0.1593 -0.3963 -0.3550
 7704SOL    HW127568   0.708   4.961  10.567  1.2724 -0.2273 -1.1549
 7704SOL    HW227569   0.587   4.891  10.509 -2.2350  2.3502  2.4892
 7705SOL     OW27570   4.145   6.739   3.542 -0.0287 -0.0476 -0.3477
 7705SOL    HW127571   4.135   6.827   3.578  1.8965  0.3557 -0.6589
 7705SOL    HW227572   4.238   6.718   3.557 -0.5521 -2.2594  0.2204
 7706SOL     OW27573   3.239   7.349   2.711  0.0432  0.3748 -0.1571
 7706SOL    HW127574   3.303   7.370   2.779 -0.0375  0.0366  0.0253
 7706SOL    HW227575   3.279   7.380   2.630  0.8873 -0.7359 -0.1877
 7707SOL     OW27576   6.663   9.591   3.666 -0.0790 -0.1472 -0.3498
 7707SOL    HW127577   6.602   9.663   3.681 -0.2446 -0.7186  2.3412
 7707SOL    HW227578   6.748   9.625   3.694 -0.3145 -1.1621  1.8737
 7708SOL     OW27579   9.342   1.041   0.832 -0.0661 -0.3875  0.4249
 7708SOL    HW127580   9.425   1.003   0.804 -0.0948 -0.2532  0.1569
 7708SOL    HW227581   9.286   1.037   0.754 -0.2498 -0.3048  0.5512
 7709SOL     OW27582   1.715   2.665   0.583  0.0054  0.0654 -0.7239
 7709SOL    HW127583   1.718   2.671   0.488  0.2075 -1.5542 -0.8421
 7709SOL    HW227584   1.621   2.666   0.604 -0.0550 -0.1724 -0.9838
 7710SOL     OW27585   2.935   0.706   2.251  0.0522  0.3264 -0.8557
 7710SOL    HW127586   2.872   0.729   2.184 -0.8859  0.9865  0.2187
 7710SOL    HW227587   2.886   0.649   2.311  0.4864  0.7631 -0.0664
 7711SOL     OW27588   0.381   4.129   2.822  0.5739 -0.4996  0.1483
 7711SOL    HW127589   0.442   4.187   2.869  0.1107 -0.6852  1.0114
 7711SOL    HW227590   0.315   4.107   2.888 -1.2754  0.8716 -1.1599
 7712SOL     OW27591   4.971   4.783   6.761  0.4920  0.1254 -0.3498
 7712SOL    HW127592   5.038   4.770   6.694 -0.2866 -0.3752 -1.0578
 7712SOL    HW227593   4.997   4.726   6.833 -0.1026 -1.4749 -1.3413
 7713SOL     OW27594   1.439   8.039   7.167  0.3321  0.2042  0.1879
 7713SOL    HW127595   1.359   8.045   7.114 -0.2629  0.3547  1.0780
 7713SOL    HW227596   1.414   8.076   7.252  1.8642  1.9550 -0.0760
 7714SOL     OW27597   5.756   4.241   6.554  0.1271 -0.3870 -1.0285
 7714SOL    HW127598   5.728   4.200   6.472  0.9727  1.5639 -2.3691
 7714SOL    HW227599   5.681   4.293   6.582 -0.3035 -1.3631 -0.3062
 7715SOL     OW27600   0.021  11.056   8.246 -0.6248  0.5980  0.2065
 7715SOL    HW127601  -0.005  11.139   8.286 -0.4167  0.0992  1.4094
 7715SOL    HW227602  -0.019  11.058   8.159 -0.7934  1.8634  0.2961
 7716SOL     OW27603  10.635   9.557  10.877 -0.1252 -0.1570  0.1914
 7716SOL    HW127604  10.592   9.513  10.950  0.5397 -0.1357  0.6084
 7716SOL    HW227605  10.567   9.613  10.840 -0.2910  0.3723  1.2408
 7717SOL     OW27606   5.373   0.786   7.712  0.3138 -0.6026 -0.0956
 7717SOL    HW127607   5.431   0.858   7.735 -0.8883  0.3750 -0.0497
 7717SOL    HW227608   5.347   0.804   7.622  2.1727 -2.4983 -1.1230
 7718SOL     OW27609   3.666   8.014   0.205 -0.3209 -0.1593  0.2334
 7718SOL    HW127610   3.582   8.016   0.159 -0.3593 -2.8180  0.0225
 7718SOL    HW227611   3.723   7.961   0.149  0.4278 -1.2627  1.9461
 7719SOL     OW27612   6.842   4.002   7.316 -0.4555 -0.0011 -0.6521
 7719SOL    HW127613   6.871   4.071   7.376  1.1737  0.4561 -1.8971
 7719SOL    HW227614   6.922   3.975   7.270 -1.7727  0.2808 -3.2611
 7720SOL     OW27615   2.647   5.176   8.973  0.1564  0.1353 -0.0963
 7720SOL    HW127616   2.610   5.198   8.888 -0.0321 -0.8156 -0.2766
 7720SOL    HW227617   2.610   5.090   8.993  1.8887 -0.6275 -0.0479
 7721SOL     OW27618  10.335   9.614   2.917 -0.0366 -0.1854 -0.0182
 7721SOL    HW127619  10.258   9.670   2.931 -0.6199 -1.2186  1.0878
 7721SOL    HW227620  10.391   9.632   2.993 -0.2673 -1.1408  0.3924
 7722SOL     OW27621   2.084   3.813   5.000  0.5886  0.3335  0.0044
 7722SOL    HW127622   2.087   3.901   5.038  0.9783  0.5008 -0.3970
 7722SOL    HW227623   2.039   3.825   4.916  1.0067  0.2244 -0.2376
 7723SOL     OW27624   8.975   3.606   2.992 -0.1724  0.4045 -0.7523
 7723SOL    HW127625   8.979   3.525   2.941  0.0303  1.1538 -1.9860
 7723SOL    HW227626   8.882   3.623   3.004 -0.2975 -1.8202  2.6274
 7724SOL     OW27627   1.907   4.247   0.478  0.2141 -0.1264  0.0744
 7724SOL    HW127628   1.862   4.329   0.459 -0.3202 -0.7420 -1.5143
 7724SOL    HW227629   1.864   4.214   0.557 -2.1778 -0.6503 -1.3189
 7725SOL     OW27630   1.808   6.145   5.253 -0.1726 -0.0965  0.3546
 7725SOL    HW127631   1.818   6.130   5.347 -0.3324 -0.1421  0.3654
 7725SOL    HW227632   1.793   6.058   5.215  0.5552 -0.1577  0.1971
 7726SOL     OW27633   9.514  10.800   8.965 -0.0522 -0.1456  0.1836
 7726SOL    HW127634   9.437  10.844   9.000 -0.4924  0.0370 -0.9758
 7726SOL    HW227635   9.481  10.722   8.922  0.3183  0.2509 -0.8621
 7727SOL     OW27636   6.282   7.833   7.897 -0.1807  0.0390  0.0840
 7727SOL    HW127637   6.334   7.759   7.864  0.2515 -0.3893  1.6178
 7727SOL    HW227638   6.347   7.901   7.917 -0.1021 -0.5735  2.2033
 7728SOL     OW27639  11.000   5.282   5.575  0.7083 -0.2403 -0.3761
 7728SOL    HW127640  11.001   5.378   5.575 -0.6216 -0.1959 -1.6116
 7728SOL    HW227641  10.999   5.258   5.483  0.1419 -1.4156 -0.0764
 7729SOL     OW27642   3.929  10.203   6.739  0.6398  0.1063  0.4358
 7729SOL    HW127643   3.982  10.252   6.675  0.1979  0.0574  0.0272
 7729SOL    HW227644   3.946  10.247   6.822 -0.7874  1.8582 -0.1322
 7730SOL     OW27645   8.338   8.696   6.052  0.1957 -0.0224 -0.5289
 7730SOL    HW127646   8.418   8.644   6.053  0.8002  0.8837 -0.2925
 7730SOL    HW227647   8.322   8.718   6.144  0.1049  0.4323 -0.6479
 7731SOL     OW27648   6.895  10.812   6.950 -1.0390  0.7144  0.2306
 7731SOL    HW127649   6.887  10.741   7.014  1.5509  0.6076  0.5345
 7731SOL    HW227650   6.901  10.768   6.866 -0.5245  0.6148  0.3151
 7732SOL     OW27651   7.077   4.043   5.470 -0.3458  0.2222 -0.4733
 7732SOL    HW127652   7.035   4.037   5.556 -0.9195  1.5458 -0.6496
 7732SOL    HW227653   7.163   4.003   5.484 -1.6977 -2.9624 -0.2198
 7733SOL     OW27654   2.437  10.709   7.174  0.5604  0.3743 -0.0182
 7733SOL    HW127655   2.442  10.624   7.131  1.7856 -0.7066  2.0789
 7733SOL    HW227656   2.463  10.772   7.107  0.0394 -0.9307 -1.4979
 7734SOL     OW27657   8.151  10.329   5.932 -0.0593  0.0746 -0.3081
 7734SOL    HW127658   8.178  10.352   5.843 -0.9550  0.7384 -0.4241
 7734SOL    HW227659   8.104  10.407   5.964 -1.7610 -0.9715 -0.1092
 7735SOL     OW27660   7.741   6.360   0.435  0.4232 -0.3807  0.3343
 7735SOL    HW127661   7.669   6.415   0.402  0.8198  0.9121  1.4988
 7735SOL    HW227662   7.697   6.291   0.484 -0.1035  1.2968  2.4193
 7736SOL     OW27663   6.712  10.073   4.126 -0.0369 -0.3583  0.1027
 7736SOL    HW127664   6.648  10.145   4.116  0.1327 -0.2931 -0.5419
 7736SOL    HW227665   6.663  10.004   4.172 -1.0461 -0.8883 -1.6896
 7737SOL     OW27666   3.546   2.564   8.993  0.1590  0.2677 -0.0212
 7737SOL    HW127667   3.520   2.652   9.022  1.1567 -0.0861  2.1325
 7737SOL    HW227668   3.617   2.580   8.931 -0.2028  1.0041 -0.2638
 7738SOL     OW27669   8.320   5.396   2.541  0.0654  0.1569  0.4840
 7738SOL    HW127670   8.225   5.387   2.549 -0.2062  3.5627  3.4977
 7738SOL    HW227671   8.356   5.353   2.619  1.1336 -1.2714 -0.7148
 7739SOL     OW27672  10.460   0.955   6.782  0.1502  0.3334 -0.2271
 7739SOL    HW127673  10.489   0.972   6.692 -0.9248 -0.4928 -0.7447
 7739SOL    HW227674  10.441   1.042   6.818 -1.1351  0.5572 -1.3935
 7740SOL     OW27675   9.939   8.531   2.740  0.2640 -0.6545 -0.2714
 7740SOL    HW127676   9.935   8.626   2.736 -0.9011 -0.7283 -2.1139
 7740SOL    HW227677  10.009   8.512   2.803 -0.4415  1.3837  1.2387
 7741SOL     OW27678   9.383   8.043   8.552 -0.3575  0.1897  0.1126
 7741SOL    HW127679   9.411   8.134   8.546  0.3450 -0.0753 -0.7850
 7741SOL    HW227680   9.464   7.994   8.569 -0.7990 -0.2324  1.1215
 7742SOL     OW27681   9.658   6.068   9.192  0.5095  0.2255 -0.4811
 7742SOL    HW127682   9.581   6.054   9.248 -0.3451  0.3453 -1.5808
 7742SOL    HW227683   9.644   6.155   9.154  0.2185 -0.5273 -2.1534
 7743SOL     OW27684   1.935   0.423   4.591 -0.1818  0.8311  0.0735
 7743SOL    HW127685   2.015   0.476   4.583 -0.3874  1.0656 -0.5822
 7743SOL    HW227686   1.966   0.333   4.592  0.0447  0.8626 -1.4041
 7744SOL     OW27687   4.295   5.381   4.377  0.6092  0.2746  0.1160
 7744SOL    HW127688   4.372   5.348   4.330  0.0414  1.7464 -1.9815
 7744SOL    HW227689   4.325   5.462   4.418  0.0744  1.1928 -1.2387
 7745SOL     OW27690   3.504   7.663   8.969  0.0655  0.3479  0.1882
 7745SOL    HW127691   3.588   7.708   8.977  0.2383 -0.2591  2.5936
 7745SOL    HW227692   3.458   7.711   8.900  2.1058  1.0904 -0.7579
 7746SOL     OW27693   7.878   5.850   0.915  0.1005  0.4689  0.1372
 7746SOL    HW127694   7.813   5.894   0.861 -1.9949 -2.0007  0.4888
 7746SOL    HW227695   7.928   5.796   0.853  1.2634  1.6516  0.0019
 7747SOL     OW27696   1.639   0.227   2.690  0.6727  0.1401  0.3309
 7747SOL    HW127697   1.572   0.161   2.706 -0.6834  1.4073  0.1059
 7747SOL    HW227698   1.700   0.218   2.763 -0.3657 -0.3108  1.1713
 7748SOL     OW27699   4.756   8.382   6.344  0.0880 -0.1267 -0.4291
 7748SOL    HW127700   4.715   8.377   6.258  0.4210  1.4849 -0.7041
 7748SOL    HW227701   4.839   8.427   6.328  1.0022 -1.4446  0.4558
 7749SOL     OW27702   2.162   2.112   1.034  0.1270  0.0253  0.1784
 7749SOL    HW127703   2.237   2.086   0.980  1.1285  1.4137  0.8450
 7749SOL    HW227704   2.086   2.102   0.976  0.7852 -1.5143 -0.4703
 7750SOL     OW27705   4.372   6.207   0.678 -0.1320 -0.5643 -0.0490
 7750SOL    HW127706   4.453   6.197   0.727 -0.8713 -0.5945  1.2178
 7750SOL    HW227707   4.397   6.192   0.586  1.2767 -0.5531  0.3109
 7751SOL     OW27708   5.890   3.193   2.086  0.3642 -0.2542  0.4737
 7751SOL    HW127709   5.821   3.222   2.026  0.6003 -3.7483 -1.7908
 7751SOL    HW227710   5.971   3.215   2.040  0.5635 -2.1520 -0.1532
 7752SOL     OW27711   8.402  10.679   9.124  0.4248  0.9789 -0.7293
 7752SOL    HW127712   8.364  10.760   9.158 -0.1682  0.3784  0.0621
 7752SOL    HW227713   8.363  10.669   9.038 -0.4684  0.8851 -0.3210
 7753SOL     OW27714  10.665   4.725   1.756  0.1823  0.3775  0.1805
 7753SOL    HW127715  10.653   4.671   1.834 -0.9201 -0.1300 -0.3272
 7753SOL    HW227716  10.735   4.681   1.708  1.6644  1.2987  1.3686
 7754SOL     OW27717   7.919   2.353   1.448  0.3532  0.4727  0.1795
 7754SOL    HW127718   7.974   2.414   1.497 -0.7128  0.3766  1.5495
 7754SOL    HW227719   7.944   2.267   1.481  0.5862  0.2926 -0.4519
 7755SOL     OW27720  11.017   3.535   5.894  0.4893  0.4696  0.2165
 7755SOL    HW127721  10.925   3.551   5.915  0.1877 -0.3911 -0.3617
 7755SOL    HW227722  11.036   3.592   5.820  0.3167  0.4048  0.1218
 7756SOL     OW27723   6.688   3.423   4.099 -0.5008  0.1338 -0.2142
 7756SOL    HW127724   6.667   3.503   4.146  1.7663  0.1118  0.9827
 7756SOL    HW227725   6.711   3.360   4.168  0.7160 -0.5921 -1.2217
 7757SOL     OW27726   5.520   8.576   8.231  0.3505  0.2561 -0.1321
 7757SOL    HW127727   5.439   8.561   8.280 -1.1882  0.1083 -2.5816
 7757SOL    HW227728   5.525   8.671   8.220  0.3062  0.2345 -0.3323
 7758SOL     OW27729   1.985   5.260   9.980  0.1701 -0.1170  0.2760
 7758SOL    HW127730   2.062   5.316   9.992  0.5525 -0.2403 -1.3326
 7758SOL    HW227731   1.957   5.278   9.890  0.1704 -2.3146 -0.2158
 7759SOL     OW27732   1.210  10.276   6.515  0.6892  0.0962 -0.3234
 7759SOL    HW127733   1.169  10.362   6.523 -1.2953 -0.8579  0.5120
 7759SOL    HW227734   1.304  10.293   6.521  0.2822  1.9898  2.3100
 7760SOL     OW27735   6.572   6.730   9.961  0.2537  0.1481  0.1772
 7760SOL    HW127736   6.495   6.768   9.919 -0.6970 -0.7913  1.0141
 7760SOL    HW227737   6.620   6.688   9.889 -2.4549 -3.3296  0.1523
 7761SOL     OW27738   2.837   2.528   5.040  0.0727 -0.3303  0.1002
 7761SOL    HW127739   2.902   2.520   4.970 -0.0014  0.7729 -0.1075
 7761SOL    HW227740   2.798   2.615   5.028 -0.2734 -0.3087  1.2222
 7762SOL     OW27741   3.479   9.883   4.264 -0.1450 -0.6033  0.2574
 7762SOL    HW127742   3.493   9.878   4.358 -1.8591 -2.2635  0.5015
 7762SOL    HW227743   3.512   9.799   4.230  2.0981  0.6632 -0.9351
 7763SOL     OW27744   7.095  10.023   4.345  0.2145  0.7361 -0.0471
 7763SOL    HW127745   7.078  10.117   4.334  1.1419  0.6807 -2.6052
 7763SOL    HW227746   7.190  10.016   4.349  0.2038 -0.1802 -1.0416
 7764SOL     OW27747   5.411  10.273   3.541 -0.2883  0.6290 -0.3417
 7764SOL    HW127748   5.491  10.249   3.496 -0.5338 -0.5057 -0.1859
 7764SOL    HW227749   5.430  10.260   3.634 -0.2328  1.6429 -0.1919
 7765SOL     OW27750   2.562   6.098   8.279  0.3755  0.0517 -0.4596
 7765SOL    HW127751   2.586   6.190   8.287  0.6650  0.0473 -1.1770
 7765SOL    HW227752   2.505   6.095   8.201 -0.1271 -0.2828 -0.0854
 7766SOL     OW27753   4.285   5.800   7.257  1.0139  0.2001 -0.2336
 7766SOL    HW127754   4.312   5.863   7.190  0.2170 -0.1010 -0.8554
 7766SOL    HW227755   4.190   5.793   7.246  1.3147 -3.1985 -2.0739
 7767SOL     OW27756  10.117   5.998   2.382 -0.1119  0.0588  0.0431
 7767SOL    HW127757  10.027   6.027   2.374 -0.7488 -1.7741  0.1290
 7767SOL    HW227758  10.124   5.966   2.472  0.1918 -1.1317 -0.3868
 7768SOL     OW27759   9.816   0.156   7.504  0.2809 -0.0757 -0.3592
 7768SOL    HW127760   9.805   0.061   7.503  0.8297 -0.1489  0.0862
 7768SOL    HW227761   9.729   0.190   7.523  0.4620 -0.5743  1.5686
 7769SOL     OW27762   7.184   7.417   8.883 -0.8167  0.3362 -1.1410
 7769SOL    HW127763   7.264   7.462   8.855 -1.7540  0.9661 -2.9691
 7769SOL    HW227764   7.210   7.324   8.885 -0.3106  0.3869 -2.9357
 7770SOL     OW27765   0.356   7.730  10.103 -0.1255 -0.0994  0.1539
 7770SOL    HW127766   0.361   7.671  10.178 -1.2670 -0.3660  0.0447
 7770SOL    HW227767   0.320   7.676  10.033  0.3305  0.3192 -0.4096
 7771SOL     OW27768   6.788   6.237   7.948 -0.0306  0.2341 -0.4356
 7771SOL    HW127769   6.836   6.157   7.925 -1.7060 -1.3105  1.0488
 7771SOL    HW227770   6.722   6.246   7.879 -1.3822 -1.1337  0.5846
 7772SOL     OW27771  10.936   3.279   0.333  0.0542  0.1784 -0.1546
 7772SOL    HW127772  11.010   3.279   0.393  0.6390  1.7083 -0.8249
 7772SOL    HW227773  10.859   3.273   0.389  0.5952  1.2247  0.7389
 7773SOL     OW27774   1.371   6.343   7.538 -0.0846  0.3141 -0.3822
 7773SOL    HW127775   1.314   6.273   7.506 -0.1160  0.5463 -0.8387
 7773SOL    HW227776   1.315   6.395   7.595 -0.4302  0.7281 -1.0803
 7774SOL     OW27777   9.229   6.684   8.460  0.0638 -0.1778  0.1278
 7774SOL    HW127778   9.153   6.646   8.416  1.6186 -0.1020 -2.8714
 7774SOL    HW227779   9.247   6.624   8.532 -1.0822 -1.8175 -0.8690
 7775SOL     OW27780   5.523   9.197   8.340  0.0801  0.3746 -0.8247
 7775SOL    HW127781   5.478   9.147   8.408 -0.6518  0.7489 -1.0104
 7775SOL    HW227782   5.616   9.190   8.361 -0.1659  1.1039  0.6696
 7776SOL     OW27783   3.005   8.671   7.930  0.1183 -0.4650  0.3174
 7776SOL    HW127784   3.047   8.718   8.002  1.2218 -1.4751  0.3550
 7776SOL    HW227785   2.913   8.665   7.956  0.3453 -0.0822  1.2389
 7777SOL     OW27786   8.220  10.063   0.714  0.2956  0.1557 -0.1876
 7777SOL    HW127787   8.204  10.017   0.796 -1.5343  0.8927 -0.0755
 7777SOL    HW227788   8.218   9.995   0.647  1.9391 -0.4677  0.3693
 7778SOL     OW27789   0.059   7.813   9.177  0.3649 -0.1467 -0.1262
 7778SOL    HW127790   0.061   7.737   9.119 -1.9639 -0.0404 -0.4454
 7778SOL    HW227791   0.010   7.879   9.128  0.6471  0.8669  0.9270
 7779SOL     OW27792   1.621   5.233  10.792  0.3749 -0.4310  0.1258
 7779SOL    HW127793   1.704   5.257  10.834  0.2110 -0.0174  0.2153
 7779SOL    HW227794   1.559   5.224  10.864  0.3906 -0.9646  0.0794
 7780SOL     OW27795   6.161   2.163   5.027 -0.1522  0.2474  0.1400
 7780SOL    HW127796   6.198   2.250   5.016 -1.1877  0.6186 -0.4494
 7780SOL    HW227797   6.068   2.172   5.005 -0.7117 -0.5790  1.9417
 7781SOL     OW27798   5.307  10.205   8.841  0.0221 -0.1430  0.9239
 7781SOL    HW127799   5.230  10.179   8.891  0.3142 -2.8544  0.1344
 7781SOL    HW227800   5.381  10.189   8.899  0.2144 -1.2074  0.4039
 7782SOL     OW27801   1.432   1.347   9.925  0.4121  0.1524  0.2217
 7782SOL    HW127802   1.472   1.286   9.862 -0.5427  0.1712 -0.4246
 7782SOL    HW227803   1.443   1.304  10.010 -1.9249 -1.9325 -0.3985
 7783SOL     OW27804   9.559   6.242   6.515  0.3285  0.2949 -0.3174
 7783SOL    HW127805   9.587   6.333   6.508  0.5195  0.1546 -1.5909
 7783SOL    HW227806   9.628   6.199   6.567  0.7605  0.6663 -0.5774
 7784SOL     OW27807   9.694   5.791   4.978 -0.0294  0.2492  0.1083
 7784SOL    HW127808   9.662   5.817   5.064  0.1213  1.3114 -0.1398
 7784SOL    HW227809   9.789   5.790   4.986 -0.0225 -2.6016  0.7559
 7785SOL     OW27810   3.455   6.697   6.612  0.0895  0.9185  0.2728
 7785SOL    HW127811   3.423   6.750   6.685  0.1950  2.0242 -0.4621
 7785SOL    HW227812   3.398   6.621   6.611  2.4095 -1.1534  3.9274
 7786SOL     OW27813  10.034   3.806   4.776  0.3615  0.2790  0.4367
 7786SOL    HW127814  10.110   3.863   4.782  0.3007  0.3876  0.1956
 7786SOL    HW227815  10.070   3.718   4.767  0.4653  0.4195 -0.5692
 7787SOL     OW27816   4.584   1.686   2.071  0.4287 -0.5057 -0.7294
 7787SOL    HW127817   4.655   1.679   2.135  0.8944  1.5985 -0.9551
 7787SOL    HW227818   4.627   1.713   1.990 -0.5235 -0.0752 -1.1114
 7788SOL     OW27819   0.852   3.946  10.834 -0.2305 -0.5243 -0.4673
 7788SOL    HW127820   0.789   3.935  10.905  0.0843 -1.8752 -0.3609
 7788SOL    HW227821   0.936   3.956  10.878 -0.4461  2.5978 -0.5602
 7789SOL     OW27822   8.980   5.501   9.007  0.2937  0.0185  0.1173
 7789SOL    HW127823   9.044   5.523   9.075 -0.3910  0.3879  0.6538
 7789SOL    HW227824   8.926   5.580   8.998  1.6736  0.7920 -2.3765
 7790SOL     OW27825   4.909   3.092   8.546 -0.0999 -0.2865  0.4688
 7790SOL    HW127826   4.846   3.032   8.506 -0.2427  0.6141 -0.6954
 7790SOL    HW227827   4.883   3.178   8.516  1.3099  0.1688  0.4796
 7791SOL     OW27828   6.883   6.031   2.928  0.0669  0.6118  0.0646
 7791SOL    HW127829   6.902   6.088   3.003 -0.5591 -1.4035  1.8544
 7791SOL    HW227830   6.922   6.076   2.853  2.4732  1.7977  1.8817
 7792SOL     OW27831   5.585   0.835   3.955 -0.1369  0.1534  0.4092
 7792SOL    HW127832   5.617   0.766   3.897 -0.9929 -0.7202  0.9422
 7792SOL    HW227833   5.538   0.895   3.897 -0.5323 -0.4325  0.1031
 7793SOL     OW27834   9.417   2.305   3.160  0.6190 -0.3767  0.1384
 7793SOL    HW127835   9.422   2.354   3.078  0.6686 -0.3110  0.1806
 7793SOL    HW227836   9.458   2.362   3.224 -1.5764  0.6337  0.7218
 7794SOL     OW27837   1.549   7.218   8.665  0.3990 -0.3084  0.8079
 7794SOL    HW127838   1.638   7.184   8.676  0.3041 -1.1061 -0.6818
 7794SOL    HW227839   1.516   7.227   8.754  2.4437  1.3538  1.4810
 7795SOL     OW27840  10.511   3.060   2.275 -0.0779 -0.9510 -0.2833
 7795SOL    HW127841  10.534   3.054   2.182  0.2400 -0.7765 -0.2188
 7795SOL    HW227842  10.589   3.028   2.321 -0.3775 -1.3918 -0.0865
 7796SOL     OW27843   9.528   0.262   0.325 -0.3441  0.1970 -0.2978
 7796SOL    HW127844   9.567   0.201   0.262 -0.5769  0.1342 -0.3829
 7796SOL    HW227845   9.556   0.229   0.410 -2.3035 -1.3950 -0.1796
 7797SOL     OW27846   8.701   4.524   3.328  0.6445 -0.0606  0.3207
 7797SOL    HW127847   8.733   4.434   3.326  2.6480  0.6161 -0.7447
 7797SOL    HW227848   8.745   4.564   3.403  1.1706  0.5004 -0.2764
 7798SOL     OW27849   8.929  10.712   3.359  0.4075 -0.0430 -0.2681
 7798SOL    HW127850   8.934  10.796   3.313  1.6007  0.2568  0.3597
 7798SOL    HW227851   8.951  10.734   3.450  0.1609 -0.9530  0.0156
 7799SOL     OW27852   4.631   0.371   9.816  0.2421  0.3508  0.2155
 7799SOL    HW127853   4.693   0.328   9.756 -1.1341 -1.2859 -0.1289
 7799SOL    HW227854   4.591   0.440   9.764 -1.0945 -1.1920 -0.9288
 7800SOL     OW27855  10.193   4.937  10.232 -0.0834  0.3056  0.0735
 7800SOL    HW127856  10.249   4.862  10.251 -0.1883  0.5414  1.3835
 7800SOL    HW227857  10.104   4.901  10.229  0.1496 -0.2870 -3.1815
 7801SOL     OW27858   9.977   3.105  10.856 -0.0321 -0.5501  0.1276
 7801SOL    HW127859   9.975   3.160  10.779  2.4702  0.5671  0.7490
 7801SOL    HW227860  10.010   3.021  10.825 -0.0954 -0.4543 -0.1937
 7802SOL     OW27861   2.437   2.317   6.638  0.4518  0.0613  0.0970
 7802SOL    HW127862   2.440   2.298   6.732  2.1481  0.9798  0.2604
 7802SOL    HW227863   2.466   2.236   6.596  1.2247  0.1426  0.4586
 7803SOL     OW27864   7.233   8.716   2.082 -0.2348 -0.4667 -0.3437
 7803SOL    HW127865   7.227   8.727   1.987  1.2713 -0.3897 -0.4456
 7803SOL    HW227866   7.142   8.704   2.110 -0.7419 -0.0955 -1.7381
 7804SOL     OW27867   6.082   4.648   2.957 -0.7548  0.2547  0.8936
 7804SOL    HW127868   5.987   4.647   2.944 -0.5383 -0.6721 -1.1345
 7804SOL    HW227869   6.114   4.709   2.891  0.0774  0.4579  1.4774
 7805SOL     OW27870   9.084  10.744   0.030 -0.0032 -0.2481 -0.1247
 7805SOL    HW127871   9.115  10.715  -0.055  0.6939 -0.3945  0.1685
 7805SOL    HW227872   9.033  10.823   0.012  1.6299  0.7679 -0.5212
 7806SOL     OW27873   6.570   9.663   7.529 -0.1230 -0.1042 -0.3776
 7806SOL    HW127874   6.479   9.639   7.514  0.5996 -3.5550 -0.1296
 7806SOL    HW227875   6.618   9.621   7.457  1.4710 -0.3682  0.7836
 7807SOL     OW27876   1.667   5.455   0.485  0.1264  0.3358 -0.2297
 7807SOL    HW127877   1.703   5.509   0.415  0.6063 -1.3545 -1.3460
 7807SOL    HW227878   1.663   5.367   0.448 -0.5951 -0.4203  1.5284
 7808SOL     OW27879   8.019   0.855   2.124  0.2766 -0.4222 -0.1231
 7808SOL    HW127880   8.075   0.903   2.062 -0.0803  0.8093  0.4824
 7808SOL    HW227881   7.950   0.917   2.146 -0.3774 -1.3416  0.4449
 7809SOL     OW27882   7.412   6.596   9.711 -0.2710  0.4184  0.2715
 7809SOL    HW127883   7.372   6.680   9.732 -2.6136 -0.6103  0.2921
 7809SOL    HW227884   7.374   6.535   9.775  1.0541 -0.7476  0.0011
 7810SOL     OW27885  10.861   7.798   8.186 -0.6988  0.0240  0.0331
 7810SOL    HW127886  10.874   7.878   8.135 -1.6953  0.3365  0.2376
 7810SOL    HW227887  10.945   7.753   8.183 -0.5368  0.3832 -1.2923
 7811SOL     OW27888   2.113   4.924   4.117  0.3694  0.7986 -0.5028
 7811SOL    HW127889   2.041   4.889   4.064  0.9956  1.6139 -1.9595
 7811SOL    HW227890   2.135   4.854   4.178  1.2263 -1.2203 -2.9444
 7812SOL     OW27891   8.625   1.985   4.806 -0.1268 -0.3785  0.1859
 7812SOL    HW127892   8.564   1.934   4.753  1.3203 -1.1056 -0.8330
 7812SOL    HW227893   8.633   2.068   4.759  1.1993 -1.0442 -0.8011
 7813SOL     OW27894   9.562   0.682   0.914 -0.1544  0.4743 -0.0283
 7813SOL    HW127895   9.469   0.696   0.934  0.1940  1.1726  1.2543
 7813SOL    HW227896   9.603   0.766   0.936  0.6657  0.4828 -1.4694
 7814SOL     OW27897   3.077   1.536   6.678  0.0820  0.2488 -0.6362
 7814SOL    HW127898   3.114   1.453   6.648 -1.1000 -0.3070 -0.6129
 7814SOL    HW227899   3.145   1.573   6.736 -0.4553 -2.0668  1.6578
 7815SOL     OW27900   6.436   4.818   2.254 -0.0682  0.2332  0.0204
 7815SOL    HW127901   6.446   4.884   2.323 -0.5556  0.7223 -0.3600
 7815SOL    HW227902   6.353   4.774   2.275  1.3398 -1.8656  1.5738
 7816SOL     OW27903   7.836   2.124   7.038  0.3828  0.1515 -0.5252
 7816SOL    HW127904   7.817   2.034   7.064 -0.0861 -0.2247 -2.0805
 7816SOL    HW227905   7.760   2.174   7.067  0.2243 -0.1123 -0.4854
 7817SOL     OW27906   0.040   8.053   3.716  0.2426  0.0946  0.7064
 7817SOL    HW127907   0.024   8.146   3.727  0.1742  0.5432 -2.2992
 7817SOL    HW227908   0.123   8.037   3.762  0.6513  1.8047  0.6251
 7818SOL     OW27909   7.489   8.489   2.964 -0.3422 -0.0042 -0.2541
 7818SOL    HW127910   7.478   8.519   2.874 -0.1878  1.7409  0.2752
 7818SOL    HW227911   7.436   8.550   3.016 -0.1908 -0.8019  0.8660
 7819SOL     OW27912   9.067  10.792   7.385  0.1655 -0.9776  0.2128
 7819SOL    HW127913   9.145  10.777   7.438  0.6709 -0.2353 -0.3112
 7819SOL    HW227914   8.995  10.756   7.438  0.3646  1.4462  2.3196
 7820SOL     OW27915   1.662   1.372   8.462  0.3572 -0.3978 -0.1184
 7820SOL    HW127916   1.728   1.334   8.520 -0.1411 -2.7182 -0.9737
 7820SOL    HW227917   1.706   1.379   8.377  0.4395  1.0224  0.0202
 7821SOL     OW27918   9.689   8.371   6.927  0.4354 -0.4770  0.0424
 7821SOL    HW127919   9.781   8.355   6.907  0.5071  0.5200 -0.4613
 7821SOL    HW227920   9.673   8.320   7.006  1.2866 -1.0522 -0.1390
 7822SOL     OW27921   6.247   6.250  11.011 -0.2382 -0.6705 -0.3187
 7822SOL    HW127922   6.339   6.228  11.030 -0.4430 -0.2934  1.2140
 7822SOL    HW227923   6.233   6.335  11.053 -1.2233 -0.6070 -0.7549
 7823SOL     OW27924  10.433  10.074   3.639  0.0154 -0.1302  0.4010
 7823SOL    HW127925  10.461  10.069   3.730 -0.4533 -0.6786  0.5136
 7823SOL    HW227926  10.506  10.118   3.595 -0.1435  0.9711  1.1924
 7824SOL     OW27927   4.302   1.865  11.000 -0.4666  0.2958  0.1186
 7824SOL    HW127928   4.242   1.867  11.074 -1.0530  1.6034 -0.3654
 7824SOL    HW227929   4.381   1.824  11.034 -0.8946  0.4516  1.3260
 7825SOL     OW27930   5.433   0.301   6.399 -0.1076  0.0344 -0.4685
 7825SOL    HW127931   5.510   0.300   6.457 -1.4483  1.1456  1.4520
 7825SOL    HW227932   5.361   0.274   6.455 -1.3318  0.1894 -1.9104
 7826SOL     OW27933   6.613   0.838   0.898 -0.5795  0.3963 -0.1197
 7826SOL    HW127934   6.705   0.853   0.875 -0.6576 -0.9733 -1.5183
 7826SOL    HW227935   6.569   0.919   0.873  0.2647  1.1519  0.7738
 7827SOL     OW27936   5.377   7.848   7.914  0.4255  0.1394  0.0126
 7827SOL    HW127937   5.457   7.798   7.896  0.5805  0.6029 -0.6242
 7827SOL    HW227938   5.408   7.932   7.947  0.2026  0.3208 -0.2330
 7828SOL     OW27939  10.739   4.722   7.106 -0.2508  0.1729  0.0287
 7828SOL    HW127940  10.672   4.677   7.055  0.5025 -1.3116  0.2923
 7828SOL    HW227941  10.798   4.760   7.040 -0.9552  0.9129 -0.1956
 7829SOL     OW27942   8.480  10.764   4.830  0.5420 -0.3463 -0.2980
 7829SOL    HW127943   8.485  10.672   4.803 -0.5347 -0.2133 -1.0515
 7829SOL    HW227944   8.388  10.788   4.814  0.5252  0.5346  0.9914
 7830SOL     OW27945   6.880   9.503   1.342  0.4909  0.1641  0.3638
 7830SOL    HW127946   6.850   9.550   1.265 -1.6320  0.5127  1.3250
 7830SOL    HW227947   6.891   9.571   1.409 -0.7195 -0.4505  1.2255
 7831SOL     OW27948   5.203   8.712  10.085 -0.0986 -0.9362 -0.0399
 7831SOL    HW127949   5.269   8.748  10.143 -0.9220 -0.5538  0.6886
 7831SOL    HW227950   5.200   8.772  10.010 -0.2841 -0.4275  0.3713
 7832SOL     OW27951  10.573   0.508  10.881  0.1734 -0.4439 -0.4950
 7832SOL    HW127952  10.556   0.554  10.963 -2.0629 -1.0217 -0.5786
 7832SOL    HW227953  10.500   0.446  10.873  0.8944 -1.1019 -2.4245
 7833SOL     OW27954   5.657   3.366   9.894 -0.8524 -0.1445 -0.0667
 7833SOL    HW127955   5.655   3.411   9.978 -1.8520 -0.7129  0.2255
 7833SOL    HW227956   5.667   3.273   9.917 -0.3597 -0.2346 -0.6103
 7834SOL     OW27957   3.112  10.751   0.644  0.0265 -0.9143  0.6876
 7834SOL    HW127958   3.182  10.757   0.709  0.1407 -1.7236  0.6508
 7834SOL    HW227959   3.033  10.775   0.691  0.4591  1.2631  0.4296
 7835SOL     OW27960   4.195   6.452   3.661  0.5966 -0.3221  0.2052
 7835SOL    HW127961   4.161   6.493   3.741  2.0187  0.1436  0.6152
 7835SOL    HW227962   4.217   6.526   3.604 -1.7169 -0.6606 -1.2668
 7836SOL     OW27963   1.444   5.217   4.692  0.0696 -0.2840 -0.8546
 7836SOL    HW127964   1.419   5.130   4.722  1.1842  0.0617  1.2981
 7836SOL    HW227965   1.416   5.275   4.763 -1.3829  1.2817 -2.5844
 7837SOL     OW27966   4.196   1.153   7.016  0.4491  0.1629 -0.0768
 7837SOL    HW127967   4.105   1.144   7.043  0.3103  1.5673 -0.0420
 7837SOL    HW227968   4.238   1.201   7.087  1.0753  0.0963 -0.3941
 7838SOL     OW27969   6.846   1.178   3.460 -0.1457 -0.2430 -0.0803
 7838SOL    HW127970   6.763   1.210   3.496  0.1893 -1.4284  1.9405
 7838SOL    HW227971   6.910   1.245   3.483 -0.3432  0.1153 -0.5781
 7839SOL     OW27972   2.761   1.120   8.957  0.1416  0.5629  0.2516
 7839SOL    HW127973   2.706   1.070   9.018 -1.4723 -0.4289 -1.9054
 7839SOL    HW227974   2.721   1.207   8.957 -1.3170 -0.0644 -1.0578
 7840SOL     OW27975   4.752   2.328   9.478 -0.3862 -0.4551 -0.3777
 7840SOL    HW127976   4.728   2.361   9.391  0.4300  2.3042  0.3363
 7840SOL    HW227977   4.828   2.272   9.462 -0.5230 -0.3592 -1.4841
 7841SOL     OW27978   0.793   9.619   5.520  0.3771  0.4797  0.0163
 7841SOL    HW127979   0.814   9.550   5.458  1.9405  0.8518  0.0849
 7841SOL    HW227980   0.791   9.575   5.605  1.7849  0.5533  0.1136
 7842SOL     OW27981  10.599   2.997  10.938  0.1495 -0.7250 -0.1210
 7842SOL    HW127982  10.567   3.087  10.929  0.8044 -0.4319  0.3886
 7842SOL    HW227983  10.692   3.007  10.957  0.2205 -1.5142 -0.0407
 7843SOL     OW27984   5.609   9.597   5.100  0.0118 -0.0330 -0.4001
 7843SOL    HW127985   5.615   9.561   5.012  1.3221  2.3468 -1.3944
 7843SOL    HW227986   5.674   9.668   5.101 -0.7539  0.7475  2.1144
 7844SOL     OW27987   8.438   8.177   9.550  0.0489  0.4254 -0.6691
 7844SOL    HW127988   8.478   8.209   9.630 -1.8994  1.7335 -0.1460
 7844SOL    HW227989   8.397   8.094   9.575  0.1281  0.4366 -0.5066
 7845SOL     OW27990   0.145   6.980   8.411 -0.4119  0.2474 -0.1342
 7845SOL    HW127991   0.140   6.911   8.477  1.3998 -0.1395 -0.3611
 7845SOL    HW227992   0.149   6.934   8.327 -0.4563  0.6763 -0.3807
 7846SOL     OW27993   3.261   1.277   3.943  0.0665  0.3783 -0.5306
 7846SOL    HW127994   3.317   1.256   4.018 -0.0666 -0.7960 -0.7463
 7846SOL    HW227995   3.311   1.342   3.893  0.3826  0.7782  0.2859
 7847SOL     OW27996   6.979   8.588   2.429  0.0449  0.9802  0.3136
 7847SOL    HW127997   7.056   8.644   2.419  0.9393 -0.1396  0.5952
 7847SOL    HW227998   6.959   8.592   2.523 -0.3436  1.3995  0.2132
 7848SOL     OW27999   5.719   0.164   2.793  0.7781 -0.0939  0.0841
 7848SOL    HW128000   5.633   0.189   2.826  0.3447 -1.0806 -0.2572
 7848SOL    HW228001   5.729   0.214   2.713 -0.0479 -0.9123 -0.5559
 7849SOL     OW28002   0.162   4.787   2.152 -0.1588 -0.4026  0.1535
 7849SOL    HW128003   0.252   4.759   2.166 -0.3007 -1.3966 -0.8504
 7849SOL    HW228004   0.150   4.786   2.057 -1.5816 -1.4616  0.3021
 7850SOL     OW28005   8.322   6.886   2.942  0.1556 -0.4698 -0.2740
 7850SOL    HW128006   8.375   6.964   2.962 -1.7498  1.0769 -0.9244
 7850SOL    HW228007   8.304   6.894   2.848 -1.8795 -0.4543  0.0685
 7851SOL     OW28008   7.118   7.011   0.214  0.4063  0.0397  0.5205
 7851SOL    HW128009   7.159   7.023   0.129  1.6909 -1.1064  0.9334
 7851SOL    HW228010   7.119   7.098   0.254 -1.2555  0.8343 -1.0313
 7852SOL     OW28011  10.111   3.847   0.852 -0.1034  0.5029 -0.3800
 7852SOL    HW128012  10.199   3.822   0.880 -0.2554 -0.5163 -0.7602
 7852SOL    HW228013  10.054   3.814   0.922 -0.3819 -1.0223 -1.2895
 7853SOL     OW28014   3.605   4.881   1.799 -0.4968  0.0557  0.6567
 7853SOL    HW128015   3.632   4.792   1.777  0.3310  0.4510  0.0172
 7853SOL    HW228016   3.684   4.922   1.834 -1.1312  0.2412  1.9034
 7854SOL     OW28017   9.708   8.492   3.039  0.2405  1.0534 -0.6791
 7854SOL    HW128018   9.796   8.455   3.030  0.9892  1.5749  2.8655
 7854SOL    HW228019   9.653   8.418   3.065  0.3985  1.2955  0.3817
 7855SOL     OW28020   3.051   5.664   2.117 -0.6699 -0.6539 -0.0064
 7855SOL    HW128021   3.006   5.742   2.148  0.5155  0.0369  0.0461
 7855SOL    HW228022   3.066   5.679   2.024 -0.4435 -0.8201  0.0005
 7856SOL     OW28023   7.939   2.940   1.949 -0.2549  0.1729 -0.1597
 7856SOL    HW128024   7.974   2.894   2.026  0.5806  0.6171 -0.2609
 7856SOL    HW228025   7.977   2.893   1.875  0.3143  0.7950 -0.2671
 7857SOL     OW28026   5.535   4.966   4.291  0.5888 -0.8219  0.1441
 7857SOL    HW128027   5.451   4.964   4.337  0.3413 -0.5866 -0.2900
 7857SOL    HW228028   5.551   4.874   4.267  0.2255 -0.8015 -0.1796
 7858SOL     OW28029   9.322   2.879   0.991 -0.1997 -0.1348  0.0508
 7858SOL    HW128030   9.335   2.787   1.014 -1.4692  0.0669  1.7798
 7858SOL    HW228031   9.231   2.884   0.962 -0.0397  0.5302 -0.3604
 7859SOL     OW28032   2.820   3.966   5.322 -0.3421  0.3851 -0.3671
 7859SOL    HW128033   2.826   3.994   5.231  0.2326 -1.8522 -1.0750
 7859SOL    HW228034   2.750   3.900   5.322 -0.2244  0.2371  0.7798
 7860SOL     OW28035   6.007   3.223   9.421  0.6930 -0.6327  0.0497
 7860SOL    HW128036   5.922   3.241   9.460  0.4224 -0.5135 -0.5832
 7860SOL    HW228037   6.051   3.308   9.418  0.7429 -0.6543  0.1608
 7861SOL     OW28038   8.400   0.906   8.654  0.0112 -0.2264 -0.3225
 7861SOL    HW128039   8.322   0.957   8.676  0.8115  0.3403  1.3768
 7861SOL    HW228040   8.460   0.970   8.615 -0.0279 -0.4809 -0.8145
 7862SOL     OW28041   4.861   0.711   1.448  0.1568 -0.4079  0.1477
 7862SOL    HW128042   4.791   0.646   1.443  0.0971 -0.5119  1.7929
 7862SOL    HW228043   4.816   0.796   1.443  0.0411 -0.4811 -0.0520
 7863SOL     OW28044   0.310   1.554   8.264 -0.2394  0.0543 -0.4376
 7863SOL    HW128045   0.401   1.577   8.283 -0.9516  1.2857  1.9803
 7863SOL    HW228046   0.295   1.587   8.176  1.9033 -1.1313 -1.3215
 7864SOL     OW28047   4.842   2.713   3.426 -0.2641 -0.8398  0.4456
 7864SOL    HW128048   4.804   2.674   3.347 -3.0391  1.2359  0.6093
 7864SOL    HW228049   4.841   2.642   3.490  1.0727 -2.2682 -1.0250
 7865SOL     OW28050   8.037   8.481   3.351 -0.4135  0.3319  0.6444
 7865SOL    HW128051   8.025   8.395   3.391  0.4121 -1.3918 -2.4588
 7865SOL    HW228052   7.978   8.481   3.276  1.2000  1.5163 -0.7171
 7866SOL     OW28053   6.980   3.841   3.091  0.4188  0.5457 -0.0264
 7866SOL    HW128054   6.991   3.903   3.163 -0.1978 -0.6341  1.1293
 7866SOL    HW228055   6.953   3.895   3.017  0.7477  1.7554  0.7017
 7867SOL     OW28056   2.308   2.656   0.497 -0.1136  0.0818 -0.0129
 7867SOL    HW128057   2.284   2.619   0.412  0.0341 -0.7008  0.2762
 7867SOL    HW228058   2.253   2.733   0.507 -1.0112 -0.5190 -0.2722
 7868SOL     OW28059   0.614   7.039   6.989 -0.0033 -0.0493 -0.4208
 7868SOL    HW128060   0.685   7.093   6.954  0.5561  1.1176  2.2602
 7868SOL    HW228061   0.567   7.009   6.911  1.9152  1.1902 -2.1904
 7869SOL     OW28062   1.459   1.216   4.925 -0.2822  0.5402 -0.1418
 7869SOL    HW128063   1.465   1.251   5.014  1.8429 -0.4961  0.2002
 7869SOL    HW228064   1.387   1.264   4.885 -1.5296  0.7945  2.2309
 7870SOL     OW28065   6.200   6.377   4.443 -0.1121  0.1223  0.3354
 7870SOL    HW128066   6.169   6.290   4.464 -2.3202  0.7910  0.1122
 7870SOL    HW228067   6.263   6.398   4.511  1.2550 -2.0023 -0.1943
 7871SOL     OW28068   3.972   3.284   5.035 -1.1459 -0.1024 -0.2799
 7871SOL    HW128069   3.973   3.191   5.054 -0.6242 -0.1851 -0.6876
 7871SOL    HW228070   4.058   3.302   4.996 -1.7337  0.2703 -1.4573
 7872SOL     OW28071   1.542   0.935   2.059 -0.2046 -0.2132  0.7496
 7872SOL    HW128072   1.455   0.927   2.020  0.6391  0.3915 -1.4630
 7872SOL    HW228073   1.527   0.933   2.153 -2.4433 -1.6408  0.4538
 7873SOL     OW28074   9.182   1.361   3.197  0.1342  0.0236 -0.5075
 7873SOL    HW128075   9.152   1.450   3.214  2.0032  0.6195 -0.1873
 7873SOL    HW228076   9.215   1.363   3.107  1.2005 -0.0291 -0.1332
 7874SOL     OW28077   7.505   6.468   0.343 -0.2122  0.1653  0.3144
 7874SOL    HW128078   7.496   6.556   0.380 -1.3778  0.6653 -1.0787
 7874SOL    HW228079   7.458   6.472   0.260  1.4651 -1.2038 -0.7577
 7875SOL     OW28080   5.828  10.886   8.302  0.2661  0.4511 -0.5786
 7875SOL    HW128081   5.896  10.951   8.320 -0.4725  0.9854  0.3737
 7875SOL    HW228082   5.795  10.910   8.215  1.3519  0.1152 -1.1009
 7876SOL     OW28083   3.587   4.257   2.488 -0.6968 -0.2302 -0.6650
 7876SOL    HW128084   3.553   4.338   2.452  2.5221  1.7056  0.2222
 7876SOL    HW228085   3.624   4.281   2.573 -1.0560 -2.9972  0.4013
 7877SOL     OW28086   7.549  10.054   4.809 -0.4318  0.2053  0.0477
 7877SOL    HW128087   7.504   9.983   4.855 -1.0721  0.6355  0.0899
 7877SOL    HW228088   7.589  10.011   4.733 -1.6900 -0.0316 -0.5072
 7878SOL     OW28089   3.061   1.723   7.028  0.0141  0.1559  0.0973
 7878SOL    HW128090   3.088   1.746   6.939  0.0905 -1.7338 -0.4162
 7878SOL    HW228091   2.967   1.740   7.030 -0.0599 -0.1775 -0.4825
 7879SOL     OW28092  10.223   2.837   3.243  0.8325 -0.1711 -0.2140
 7879SOL    HW128093  10.261   2.749   3.251  0.1109 -0.3987  1.0022
 7879SOL    HW228094  10.295   2.897   3.263  1.4069 -0.4571 -1.3520
 7880SOL     OW28095   5.614   0.586   8.925  0.5891 -0.3108 -0.5174
 7880SOL    HW128096   5.616   0.495   8.896 -1.1966 -1.5978  2.8268
 7880SOL    HW228097   5.586   0.635   8.848 -0.9306 -2.9736 -1.8017
 7881SOL     OW28098   9.023   6.233   7.148 -0.7732  0.2074 -0.0222
 7881SOL    HW128099   8.992   6.156   7.195 -1.9527 -0.3231 -1.5890
 7881SOL    HW228100   9.043   6.296   7.217 -0.0229 -1.3884  1.2845
 7882SOL     OW28101   1.598   6.986   2.633  0.4671  0.1928  0.2049
 7882SOL    HW128102   1.598   7.014   2.541 -1.4081 -0.1485  0.0590
 7882SOL    HW228103   1.628   7.062   2.682  1.0095  0.5398 -0.6478
 7883SOL     OW28104   1.242   6.488   7.700 -0.1015 -0.2334 -0.6002
 7883SOL    HW128105   1.303   6.490   7.773 -0.8034  0.6490 -0.0053
 7883SOL    HW228106   1.167   6.540   7.730 -0.4656  0.0324 -1.8909
 7884SOL     OW28107  11.033   1.374   5.451 -0.6124 -0.0684 -1.1443
 7884SOL    HW128108  11.055   1.286   5.421 -0.6468 -1.5439  2.6048
 7884SOL    HW228109  10.940   1.371   5.471 -0.1066 -0.2047  1.6394
 7885SOL     OW28110   5.550  10.308   5.075  0.1341  0.4474  0.3576
 7885SOL    HW128111   5.533  10.220   5.110  0.0311 -1.6751 -4.2454
 7885SOL    HW228112   5.467  10.335   5.036  0.8466  1.4405 -0.5210
 7886SOL     OW28113   1.998   8.732   2.103  0.1495  0.1622 -0.6138
 7886SOL    HW128114   2.039   8.646   2.112  1.1076  0.5703 -1.0260
 7886SOL    HW228115   1.928   8.718   2.039 -0.7060 -0.6468  0.4615
 7887SOL     OW28116   6.693   3.478   1.770  0.0153 -0.1564  0.5283
 7887SOL    HW128117   6.636   3.483   1.847 -0.8496  2.3401 -0.1819
 7887SOL    HW228118   6.638   3.507   1.697  1.4478 -0.3049 -0.6569
 7888SOL     OW28119   5.508  10.573   5.688 -0.2158 -0.1953 -0.1354
 7888SOL    HW128120   5.459  10.639   5.738 -0.6300 -0.0417 -0.7283
 7888SOL    HW228121   5.441  10.513   5.656  0.0998 -0.5678 -0.0970
 7889SOL     OW28122   0.717   1.549   6.373  0.4433  0.0315  0.0481
 7889SOL    HW128123   0.800   1.596   6.373  0.1032  0.6451 -0.2120
 7889SOL    HW228124   0.655   1.609   6.331  0.4503 -1.4701 -2.2653
 7890SOL     OW28125   0.694   0.473   4.420  0.7293 -0.2840  0.1663
 7890SOL    HW128126   0.723   0.564   4.408  1.2653 -0.2973  1.2710
 7890SOL    HW228127   0.688   0.439   4.331 -0.4407  1.1111 -0.3318
 7891SOL     OW28128   0.602   1.174   5.952 -1.0209 -0.6952 -0.4682
 7891SOL    HW128129   0.698   1.167   5.955 -0.9645 -0.6005 -1.6711
 7891SOL    HW228130   0.574   1.093   5.909 -1.4220 -0.3448 -0.8674
 7892SOL     OW28131   7.931   0.620   6.582 -0.6848  0.9627  0.1105
 7892SOL    HW128132   7.839   0.639   6.564 -0.8541 -0.2080 -0.3658
 7892SOL    HW228133   7.930   0.578   6.668 -0.9153 -1.1907 -0.8797
 7893SOL     OW28134   9.318  10.567   6.912 -0.6377 -0.2543  0.4171
 7893SOL    HW128135   9.378  10.553   6.985 -0.7674 -0.1395  0.5462
 7893SOL    HW228136   9.320  10.485   6.863  1.2312  0.4316 -0.7769
 7894SOL     OW28137   7.202   5.574  10.159 -0.0065  0.2524  0.0134
 7894SOL    HW128138   7.271   5.599  10.098  0.8733  0.5492  1.0949
 7894SOL    HW228139   7.195   5.648  10.219 -0.9530  0.0302  0.1985
 7895SOL     OW28140   8.713   1.038   0.723 -0.3091  0.0783 -1.2186
 7895SOL    HW128141   8.758   1.111   0.680 -0.3273 -0.2587 -1.8230
 7895SOL    HW228142   8.647   1.080   0.779  2.0927  0.6952  1.3451
 7896SOL     OW28143   5.494   1.014   5.236  0.0335 -0.2989  0.5631
 7896SOL    HW128144   5.470   1.017   5.143  0.2534  0.9215  0.5268
 7896SOL    HW228145   5.493   0.921   5.258  0.0299 -0.6105 -0.6733
 7897SOL     OW28146   6.586   4.236   1.728 -0.5388 -0.1114 -0.1017
 7897SOL    HW128147   6.654   4.276   1.674  1.0165 -2.7627 -0.2715
 7897SOL    HW228148   6.507   4.241   1.675  0.4217 -0.5183 -1.6146
 7898SOL     OW28149   6.173   1.852  10.875 -0.0603  0.6644 -0.2102
 7898SOL    HW128150   6.246   1.905  10.842  0.5002  0.2945  0.4043
 7898SOL    HW228151   6.099   1.912  10.876  0.0096  0.8057 -1.6895
 7899SOL     OW28152   6.809   4.737   7.877  0.4176 -0.2087  0.7195
 7899SOL    HW128153   6.840   4.814   7.829 -0.9069 -0.2131 -0.1860
 7899SOL    HW228154   6.764   4.773   7.954  0.7232 -0.1233  0.8596
 7900SOL     OW28155   4.882  10.815   9.967  0.0821  0.0186 -0.3643
 7900SOL    HW128156   4.852  10.844   9.880 -0.2442 -0.6054 -0.4611
 7900SOL    HW228157   4.876  10.893  10.021 -2.4032 -0.2132 -0.1889
 7901SOL     OW28158   7.687   9.901   0.660 -0.1035  0.3889 -0.5752
 7901SOL    HW128159   7.754   9.926   0.597  2.2621  3.2320  2.6301
 7901SOL    HW228160   7.619   9.968   0.650 -0.8048 -0.4307 -1.4670
 7902SOL     OW28161   7.027   1.186   1.946  0.1340  0.4609 -0.3886
 7902SOL    HW128162   7.040   1.280   1.933  0.2167  0.4615 -0.3078
 7902SOL    HW228163   6.951   1.179   2.004  1.1111  0.5413  0.9564
 7903SOL     OW28164   1.479   5.641   5.124  0.2961  0.4434  0.2077
 7903SOL    HW128165   1.438   5.573   5.070  1.1199  1.2352 -1.4967
 7903SOL    HW228166   1.418   5.715   5.119 -0.0716  0.2133  1.1541
 7904SOL     OW28167   8.765   6.284   5.824  0.0333 -0.0179  0.0156
 7904SOL    HW128168   8.856   6.268   5.850 -0.5667 -1.4647  1.3198
 7904SOL    HW228169   8.769   6.293   5.728  1.6933  1.1922  0.1389
 7905SOL     OW28170   6.866   1.540   7.684  0.1888  0.3053  0.1254
 7905SOL    HW128171   6.790   1.580   7.642  0.6481  0.4140 -0.6258
 7905SOL    HW228172   6.941   1.572   7.633  0.5130 -2.5180 -1.4044
 7906SOL     OW28173   9.838   2.526   6.563 -0.4317 -0.2632  0.0552
 7906SOL    HW128174   9.918   2.492   6.522 -0.4295  1.1047 -1.1754
 7906SOL    HW228175   9.858   2.530   6.656  0.7462 -0.4515 -0.1760
 7907SOL     OW28176   2.364   9.234   9.230  0.1079  0.0255 -0.9277
 7907SOL    HW128177   2.374   9.140   9.249  1.0717  0.7744  3.0198
 7907SOL    HW228178   2.269   9.249   9.236  0.0731 -0.4632 -0.0281
 7908SOL     OW28179   8.650   5.911   9.890 -0.4717 -0.1999 -0.7638
 7908SOL    HW128180   8.612   5.872   9.811  0.5205 -2.0784 -0.3720
 7908SOL    HW228181   8.691   5.993   9.859 -0.0648 -0.9163 -2.2201
 7909SOL     OW28182  10.185   7.088   7.152  0.5569  0.3958 -0.2556
 7909SOL    HW128183  10.250   7.157   7.159 -0.0184  0.8200  1.5851
 7909SOL    HW228184  10.159   7.088   7.060  1.2549  1.9715 -0.4823
 7910SOL     OW28185   2.087   4.308  10.240  0.0686 -0.7593  0.8639
 7910SOL    HW128186   2.069   4.400  10.223 -1.0398 -1.0647  0.3046
 7910SOL    HW228187   2.181   4.298  10.220  0.6879  0.6425  2.8357
 7911SOL     OW28188  10.710   1.541   1.228 -0.1197 -0.6340  0.4857
 7911SOL    HW128189  10.704   1.569   1.319 -0.5197  0.7463  0.0454
 7911SOL    HW228190  10.683   1.617   1.177 -1.7445 -1.9516 -0.7473
 7912SOL     OW28191   2.590   4.674   7.637 -0.2056 -0.1305 -0.3962
 7912SOL    HW128192   2.665   4.617   7.620 -0.4713 -0.4645 -0.4519
 7912SOL    HW228193   2.522   4.615   7.668  0.3448  0.4644  2.1867
 7913SOL     OW28194   9.083  10.775   2.412  0.1644 -0.6415  0.3607
 7913SOL    HW128195   9.099  10.861   2.452 -1.6944 -0.2408  0.3414
 7913SOL    HW228196   9.006  10.789   2.357 -0.8389 -2.5924  1.1893
 7914SOL     OW28197   5.704   9.060   3.525 -0.0255  0.0149 -0.4979
 7914SOL    HW128198   5.753   8.986   3.491  0.8786 -0.0354  0.8230
 7914SOL    HW228199   5.614   9.028   3.532  0.4606 -1.2198  0.6563
 7915SOL     OW28200   3.020   1.335   6.491 -0.0665  0.4581 -0.0921
 7915SOL    HW128201   2.989   1.299   6.408  1.2210 -0.0045 -0.3989
 7915SOL    HW228202   3.113   1.311   6.494 -0.3600 -0.5956  2.0468
 7916SOL     OW28203   5.285   4.932   4.402 -0.1650  0.5668 -0.1022
 7916SOL    HW128204   5.262   4.842   4.427  1.6935  0.2942  0.8623
 7916SOL    HW228205   5.240   4.987   4.466 -1.4176  0.3576 -0.7747
 7917SOL     OW28206   3.573  10.779   1.154 -0.0375  0.0285  0.1119
 7917SOL    HW128207   3.599  10.842   1.087  0.7930  0.6956  1.0421
 7917SOL    HW228208   3.652  10.726   1.170 -0.0905  0.1568  0.8606
 7918SOL     OW28209   2.188   0.860   0.535  0.9344 -0.1271 -0.3144
 7918SOL    HW128210   2.165   0.823   0.450  0.4344 -0.4523 -0.0416
 7918SOL    HW228211   2.169   0.954   0.526 -2.1596 -0.5606  0.3800
 7919SOL     OW28212   6.973   5.507   2.938 -0.5365  0.0537  0.1108
 7919SOL    HW128213   7.047   5.538   2.989 -1.1689  0.8826  0.5562
 7919SOL    HW228214   6.949   5.582   2.883  1.9595 -1.6246 -3.7144
 7920SOL     OW28215   4.253   2.102   9.584  0.3432 -0.1754 -0.0197
 7920SOL    HW128216   4.243   2.010   9.608 -0.3667 -0.0160  0.3127
 7920SOL    HW228217   4.169   2.143   9.606  0.9746  0.7538  0.7489
 7921SOL     OW28218  11.016   1.709  10.213 -0.2473 -0.6028  0.1127
 7921SOL    HW128219  10.966   1.630  10.194 -0.7743 -0.2253 -0.0942
 7921SOL    HW228220  10.975   1.777  10.159  0.2082 -0.1911  0.2760
 7922SOL     OW28221  10.275   1.652   8.349 -0.4047  0.0517 -0.2896
 7922SOL    HW128222  10.280   1.681   8.440  0.5963 -0.4023 -0.1916
 7922SOL    HW228223  10.338   1.707   8.303 -1.0547  0.4193 -0.7525
 7923SOL     OW28224   9.682   3.469   2.752  0.2414 -0.0558 -0.6373
 7923SOL    HW128225   9.639   3.548   2.784  1.4151  0.3559  0.0021
 7923SOL    HW228226   9.615   3.422   2.703  0.0353  2.3492 -2.8083
 7924SOL     OW28227  10.869   8.131   4.884  0.0406  0.0559 -0.3686
 7924SOL    HW128228  10.919   8.049   4.881  0.4935  0.3541 -2.9321
 7924SOL    HW228229  10.932   8.198   4.857 -0.4117  1.2664  1.3899
 7925SOL     OW28230   0.794   8.282   6.093 -0.4244  0.2413  0.2511
 7925SOL    HW128231   0.796   8.268   5.999  0.0986  1.3830  0.0697
 7925SOL    HW228232   0.717   8.233   6.124 -2.0247  1.7818 -1.1127
 7926SOL     OW28233   8.522   6.079   4.356  0.1882 -0.0407 -0.2780
 7926SOL    HW128234   8.519   6.174   4.352  1.9809  0.0038 -1.7956
 7926SOL    HW228235   8.603   6.055   4.312 -0.4419 -2.3077 -0.3646
 7927SOL     OW28236   2.271   6.453   4.409  0.3734  0.0984 -0.2239
 7927SOL    HW128237   2.297   6.539   4.439 -1.8918  1.2418 -1.3094
 7927SOL    HW228238   2.308   6.446   4.321 -0.1722  0.3506 -0.4787
 7928SOL     OW28239   4.701   6.687   3.437  0.8628  0.0622  0.5593
 7928SOL    HW128240   4.759   6.751   3.395  0.1419 -0.0571 -0.6627
 7928SOL    HW228241   4.616   6.700   3.394  1.0357 -2.7358 -0.8619
 7929SOL     OW28242   3.999   8.801   4.937  0.2000  0.3701 -0.2642
 7929SOL    HW128243   4.027   8.892   4.928 -0.1763  0.4884 -0.2271
 7929SOL    HW228244   3.936   8.802   5.009  0.4304  0.0264 -0.0524
 7930SOL     OW28245   0.069   3.703   6.122 -0.0180 -0.1344 -0.0636
 7930SOL    HW128246   0.068   3.690   6.217 -1.9887  0.6642  0.0799
 7930SOL    HW228247   0.064   3.614   6.086 -2.1424 -0.3850  0.6812
 7931SOL     OW28248   1.086   0.612   8.365  0.4873  0.2865  0.5818
 7931SOL    HW128249   1.005   0.643   8.406  1.3937  0.6128  2.2343
 7931SOL    HW228250   1.130   0.692   8.335  0.8890  0.2762  1.1042
 7932SOL     OW28251  10.683   9.299   5.810 -0.3428 -0.3495  0.3303
 7932SOL    HW128252  10.687   9.329   5.901  1.7739  0.0212  0.1767
 7932SOL    HW228253  10.660   9.377   5.760  3.3403  0.7702  0.1231
 7933SOL     OW28254   8.590   8.005   3.432 -0.5216  0.1940 -0.3889
 7933SOL    HW128255   8.556   8.082   3.387 -1.1646  0.1799  0.0589
 7933SOL    HW228256   8.589   8.030   3.525  1.9991  0.7206 -0.4186
 7934SOL     OW28257   4.950  11.075   0.129 -0.0303  0.0232  0.4869
 7934SOL    HW128258   4.941  11.166   0.103 -0.6514 -0.2690 -0.3824
 7934SOL    HW228259   5.004  11.077   0.207 -1.0386  1.2441  1.1845
 7935SOL     OW28260   3.542   1.459   1.626  0.5822 -0.1004  0.0463
 7935SOL    HW128261   3.544   1.538   1.679  2.2663  0.1428 -0.3299
 7935SOL    HW228262   3.633   1.429   1.623 -0.3172 -3.7844  2.6764
 7936SOL     OW28263   3.457   8.133   6.134  0.0216  0.4137  0.0829
 7936SOL    HW128264   3.456   8.038   6.145 -0.9151  0.4974  0.8448
 7936SOL    HW228265   3.399   8.149   6.060 -2.1845  0.5505  1.7308
 7937SOL     OW28266   9.633   9.165   0.147 -0.1446 -0.2130  0.1196
 7937SOL    HW128267   9.569   9.095   0.157 -0.3933  0.0442  0.3431
 7937SOL    HW228268   9.715   9.120   0.129 -0.5109 -0.5372 -0.8656
 7938SOL     OW28269   9.452   4.136   0.982  0.2621 -0.4617  0.7868
 7938SOL    HW128270   9.525   4.197   0.988  1.6644 -2.1699  2.4747
 7938SOL    HW228271   9.481   4.071   0.918 -0.1564 -0.6766  0.8138
 7939SOL     OW28272   3.245   6.747   5.035  0.0856  0.1785  0.4919
 7939SOL    HW128273   3.168   6.766   5.089 -0.8325 -0.3517 -0.6124
 7939SOL    HW228274   3.215   6.756   4.945  1.1531 -0.6898  0.0319
 7940SOL     OW28275   7.880   9.297   7.799 -0.2850 -0.2572  0.6270
 7940SOL    HW128276   7.877   9.392   7.805  1.3899 -0.2652  2.3590
 7940SOL    HW228277   7.798   9.268   7.840 -1.4523  0.4162 -1.1251
 7941SOL     OW28278   0.754   5.186   3.999  0.0050  0.2580  0.2749
 7941SOL    HW128279   0.833   5.136   3.979  0.1320 -0.7447  2.9368
 7941SOL    HW228280   0.749   5.251   3.928  1.6546 -1.3793 -1.4774
 7942SOL     OW28281   5.429   1.195   8.408 -0.6570 -0.0475 -0.6940
 7942SOL    HW128282   5.452   1.253   8.480  1.4860 -0.2254 -1.1495
 7942SOL    HW228283   5.345   1.228   8.376 -0.6304  1.3238  0.5484
 7943SOL     OW28284   3.998   8.814   7.646  0.6388 -0.5199 -0.3368
 7943SOL    HW128285   4.004   8.872   7.570  1.1752 -0.6500 -0.3977
 7943SOL    HW228286   3.978   8.873   7.719 -0.6873 -0.4919 -0.6998
 7944SOL     OW28287   5.667   9.621   4.816  0.2715  0.4048 -0.1501
 7944SOL    HW128288   5.686   9.679   4.742 -1.4135  1.2836  0.0652
 7944SOL    HW228289   5.727   9.548   4.805  1.3908  1.4481 -1.3006
 7945SOL     OW28290   5.481   8.460   9.236  0.0320  0.5182 -0.2740
 7945SOL    HW128291   5.387   8.445   9.233  0.2898 -1.0215 -1.2695
 7945SOL    HW228292   5.513   8.400   9.304  0.6467 -1.2211 -2.0135
 7946SOL     OW28293   7.592   7.669   3.186 -0.4712  0.1985  0.0190
 7946SOL    HW128294   7.641   7.710   3.257  0.2456 -1.2716  0.3999
 7946SOL    HW228295   7.569   7.742   3.128 -1.3660  1.5030  1.8877
 7947SOL     OW28296  10.104  10.028   9.002  0.1887  0.7870  0.0704
 7947SOL    HW128297  10.071   9.952   9.050  0.7125 -0.8682 -2.0094
 7947SOL    HW228298  10.179  10.059   9.053  0.4939 -0.6673  0.5412
 7948SOL     OW28299   3.115   3.715   5.010  0.2857  0.2732  0.4882
 7948SOL    HW128300   3.159   3.632   4.993  0.5987  0.1216  1.8915
 7948SOL    HW228301   3.187   3.779   5.018  0.1509  0.3601  1.0400
 7949SOL     OW28302   1.703   1.849  10.345 -0.4971 -0.7259 -0.4561
 7949SOL    HW128303   1.629   1.879  10.292 -1.2893 -0.4681  0.7403
 7949SOL    HW228304   1.777   1.903  10.316 -0.8377 -0.8035 -1.4864
 7950SOL     OW28305   6.917   9.935   9.743 -0.4862 -0.3020  0.0816
 7950SOL    HW128306   6.975   9.915   9.669  0.8363  0.8003  0.7793
 7950SOL    HW228307   6.871   9.853   9.760  0.6682 -1.1416 -0.6775
 7951SOL     OW28308   9.760   0.408   0.478 -0.6656  0.0249  0.1203
 7951SOL    HW128309   9.666   0.415   0.496 -1.2894 -1.8997 -1.9913
 7951SOL    HW228310   9.784   0.322   0.511 -0.5467 -1.0635 -2.5410
 7952SOL     OW28311   1.522   4.485  10.447 -0.0662  0.0182  0.1156
 7952SOL    HW128312   1.599   4.433  10.424 -1.0318 -1.2194 -0.4286
 7952SOL    HW228313   1.558   4.570  10.473  1.6001 -1.0584  1.5551
 7953SOL     OW28314   9.861   8.451  10.137  0.2293  0.0582 -0.0596
 7953SOL    HW128315   9.768   8.467  10.154  0.2718 -1.5423  2.1544
 7953SOL    HW228316   9.868   8.355  10.136  1.4344  0.0697 -3.1528
 7954SOL     OW28317   2.863   8.894   1.532  0.4303 -0.5301 -0.3005
 7954SOL    HW128318   2.805   8.897   1.609  0.4676 -0.0326 -0.2897
 7954SOL    HW228319   2.910   8.811   1.541  1.6092  0.2452  1.0699
 7955SOL     OW28320   6.511   5.289  10.669  0.8453 -0.3002  0.0281
 7955SOL    HW128321   6.592   5.301  10.717  1.0980 -0.5024 -0.3460
 7955SOL    HW228322   6.485   5.378  10.644  1.4837 -0.3150 -0.7217
 7956SOL     OW28323   5.956   3.215   8.491 -0.1173  0.2273  0.1643
 7956SOL    HW128324   5.891   3.199   8.559 -0.2803 -0.5199 -0.1486
 7956SOL    HW228325   5.912   3.191   8.409  1.2476 -2.6685  0.1293
 7957SOL     OW28326   2.259   7.395   1.376 -0.2463  0.3569  0.3209
 7957SOL    HW128327   2.186   7.357   1.328  1.1713 -0.2395 -1.4935
 7957SOL    HW228328   2.233   7.486   1.391 -0.9087  0.4675 -1.2883
 7958SOL     OW28329   3.415   3.864  10.537  0.1824 -0.6101  0.5154
 7958SOL    HW128330   3.497   3.815  10.537  1.3842  1.3070 -0.1401
 7958SOL    HW228331   3.419   3.919  10.615 -0.3544 -0.3026  0.3287
 7959SOL     OW28332   0.232   3.540  10.661  0.2619 -0.2110 -0.0219
 7959SOL    HW128333   0.184   3.558  10.742  0.4826  0.4435 -0.0307
 7959SOL    HW228334   0.198   3.605  10.598 -0.2223 -0.9895 -0.5885
 7960SOL     OW28335   7.058   7.084   7.137 -0.4147  0.0895  0.1847
 7960SOL    HW128336   7.038   7.173   7.109 -0.0597 -0.3337 -1.5376
 7960SOL    HW228337   6.977   7.035   7.122 -0.9702  0.2979  2.1681
 7961SOL     OW28338   1.825   8.690   9.033 -0.1338 -0.3451  0.2626
 7961SOL    HW128339   1.850   8.702   9.125  1.0082 -0.6175 -0.0016
 7961SOL    HW228340   1.732   8.714   9.030 -0.3147 -0.8278  1.5814
 7962SOL     OW28341   0.490   9.006   2.461  0.4940 -1.1603  0.0332
 7962SOL    HW128342   0.490   8.912   2.441  0.8535 -1.9093  2.9813
 7962SOL    HW228343   0.569   9.019   2.514  0.3111  0.7837 -0.1004
 7963SOL     OW28344   1.263   6.557   3.436  0.0679  0.0407  0.2346
 7963SOL    HW128345   1.325   6.595   3.375 -0.5287 -0.1134 -0.4841
 7963SOL    HW228346   1.243   6.471   3.399 -0.4479  0.0268  0.5358
 7964SOL     OW28347   8.173   9.736   1.904 -0.3717  0.1200 -0.2647
 7964SOL    HW128348   8.261   9.700   1.915 -1.0979 -1.5417  0.5828
 7964SOL    HW228349   8.162   9.796   1.978  0.3685  1.0824 -0.9141
 7965SOL     OW28350   8.411   8.185  10.548  0.2799  0.3595 -0.5096
 7965SOL    HW128351   8.432   8.157  10.637  0.4397  1.1352 -0.2936
 7965SOL    HW228352   8.320   8.214  10.552  0.1753  0.0518 -0.6805
 7966SOL     OW28353   7.412   5.714   7.531 -0.3790  0.2434 -0.2379
 7966SOL    HW128354   7.450   5.785   7.582  0.4114 -1.1795  1.2621
 7966SOL    HW228355   7.484   5.652   7.519 -0.4585  0.5785 -3.3443
 7967SOL     OW28356   5.329   6.799   2.146 -0.7353  0.3620 -0.5016
 7967SOL    HW128357   5.260   6.833   2.203  1.4362  1.9982  1.3734
 7967SOL    HW228358   5.317   6.845   2.063 -0.4049  2.6478  0.6459
 7968SOL     OW28359   0.625   3.295   8.769  0.3402 -0.2862  0.0414
 7968SOL    HW128360   0.629   3.371   8.826  1.8056  0.4582 -0.9769
 7968SOL    HW228361   0.675   3.228   8.816  1.3755  0.2595 -0.2502
 7969SOL     OW28362   6.506   0.203   9.600  1.0506  0.7876  0.5422
 7969SOL    HW128363   6.419   0.164   9.609  1.6204 -0.3385  1.3876
 7969SOL    HW228364   6.561   0.154   9.661  2.5294  0.7079 -0.7891
 7970SOL     OW28365   5.613   2.778   5.132 -0.0278  0.2285 -0.4317
 7970SOL    HW128366   5.687   2.777   5.072 -0.4456  0.4281 -0.9561
 7970SOL    HW228367   5.643   2.832   5.206 -0.0046  1.1643 -1.1078
 7971SOL     OW28368   2.627   9.842   4.351  0.5152  0.9607  0.0063
 7971SOL    HW128369   2.562   9.772   4.361  1.6912 -0.0381  1.0495
 7971SOL    HW228370   2.698   9.817   4.409  1.4852  2.4622 -0.4673
 7972SOL     OW28371  10.912   8.413   5.095 -0.4016 -0.3421  0.1204
 7972SOL    HW128372  10.854   8.405   5.170 -1.0471  0.7909 -0.2347
 7972SOL    HW228373  10.859   8.455   5.027  0.0979 -1.5557 -1.0562
 7973SOL     OW28374   8.051   7.398   6.275  0.0224 -0.4172  0.0273
 7973SOL    HW128375   8.102   7.467   6.233  0.7705 -1.1289 -0.2611
 7973SOL    HW228376   7.970   7.441   6.303  1.0193  0.8871  1.0303
 7974SOL     OW28377   2.365   8.473   0.031  0.0684  0.0668 -0.5911
 7974SOL    HW128378   2.304   8.403   0.055  2.1304 -0.8684  2.4442
 7974SOL    HW228379   2.434   8.428  -0.017  0.9563  0.1400  0.5897
 7975SOL     OW28380   8.711   2.256   8.888 -0.0514 -0.2324  0.1296
 7975SOL    HW128381   8.731   2.273   8.980 -0.2453  1.0805 -0.0496
 7975SOL    HW228382   8.653   2.180   8.889 -1.3040  0.6889  1.2153
 7976SOL     OW28383   0.728   5.291   1.769 -0.1837 -0.1697 -0.4227
 7976SOL    HW128384   0.658   5.227   1.757 -0.3523  0.0645 -0.7055
 7976SOL    HW228385   0.792   5.247   1.825 -0.1245 -0.7181 -0.9175
 7977SOL     OW28386   4.384   0.307   6.942  0.2845 -0.0307  0.2648
 7977SOL    HW128387   4.360   0.394   6.975 -0.6586 -0.1284 -0.1449
 7977SOL    HW228388   4.425   0.325   6.857  3.0804  0.2547  1.5614
 7978SOL     OW28389  10.425   9.106  10.200 -0.1960 -0.4109 -0.5558
 7978SOL    HW128390  10.484   9.181  10.191  1.3203 -1.4705  0.0650
 7978SOL    HW228391  10.402   9.104  10.293  0.7776 -1.4083 -0.3181
 7979SOL     OW28392   8.565   7.236   2.175  0.0854 -0.2856 -0.1332
 7979SOL    HW128393   8.577   7.163   2.235 -1.6192 -1.9302 -1.6255
 7979SOL    HW228394   8.629   7.222   2.106  1.2886  0.9689  0.6785
 7980SOL     OW28395   7.644   7.967   9.099 -0.5656  0.3580  0.1134
 7980SOL    HW128396   7.662   7.915   9.021 -2.0241 -1.5085  0.9331
 7980SOL    HW228397   7.560   8.010   9.080  0.2105  1.7936 -0.2161
 7981SOL     OW28398   9.564   7.570   5.298  0.1233 -0.2084 -0.5294
 7981SOL    HW128399   9.557   7.494   5.241  2.2486  0.4535 -1.8294
 7981SOL    HW228400   9.600   7.639   5.241 -0.0823  1.2527  1.0174
 7982SOL     OW28401   8.654   2.825   6.858 -0.3277  0.7412  0.1335
 7982SOL    HW128402   8.654   2.825   6.954  0.9611 -2.1711  0.2392
 7982SOL    HW228403   8.569   2.788   6.834 -0.3121  0.6881  0.1601
 7983SOL     OW28404   3.274   3.121   6.309  0.6554  0.1003  0.4426
 7983SOL    HW128405   3.296   3.189   6.245  2.5810 -1.1426 -0.3306
 7983SOL    HW228406   3.358   3.098   6.349 -0.4095  0.3370  2.9570
 7984SOL     OW28407   6.962   6.851   0.529  0.0068 -0.3044  0.5456
 7984SOL    HW128408   6.886   6.895   0.568 -1.3236 -2.0999  0.0794
 7984SOL    HW228409   7.036   6.908   0.550 -1.5045  1.6802  0.7022
 7985SOL     OW28410   2.353   0.165   6.467  0.3665  0.2485 -0.2417
 7985SOL    HW128411   2.334   0.137   6.557 -2.5154  0.4369 -0.6949
 7985SOL    HW228412   2.402   0.247   6.476  0.4794  0.0472  1.1257
 7986SOL     OW28413   3.138  10.759  10.401 -0.3283  0.0111  0.0016
 7986SOL    HW128414   3.143  10.855  10.398  1.1490  0.0164  1.3129
 7986SOL    HW228415   3.077  10.736  10.331  1.1689  1.7650 -2.0356
 7987SOL     OW28416  10.725   3.196   3.108  0.1237 -0.0300 -0.1545
 7987SOL    HW128417  10.680   3.133   3.164  0.2057  0.1027  0.0623
 7987SOL    HW228418  10.816   3.167   3.108  0.0949 -0.1246 -0.3519
 7988SOL     OW28419   8.816   5.150   3.356 -0.2821 -0.1591  0.3275
 7988SOL    HW128420   8.792   5.060   3.334 -0.9632  0.1461 -0.1874
 7988SOL    HW228421   8.797   5.157   3.450  2.4341 -1.3992  1.0804
 7989SOL     OW28422   8.595  10.639   8.240 -0.3662 -0.0132 -0.2155
 7989SOL    HW128423   8.511  10.605   8.208 -0.6032  0.4528 -0.1040
 7989SOL    HW228424   8.577  10.663   8.332  0.4505 -1.8705  0.4647
 7990SOL     OW28425   4.209   2.353   1.796 -0.7238  0.0808  0.0654
 7990SOL    HW128426   4.140   2.420   1.793 -0.1026  0.7481  0.3337
 7990SOL    HW228427   4.261   2.377   1.873 -0.4174 -0.6399  0.0818
 7991SOL     OW28428   1.798   8.641   5.943 -0.1541  0.3780 -0.2254
 7991SOL    HW128429   1.834   8.670   6.027  1.7081 -0.1984 -0.7720
 7991SOL    HW228430   1.821   8.549   5.937 -1.0146  0.1928 -1.0077
 7992SOL     OW28431   6.245   6.514   2.647 -0.5129 -0.6543 -0.0100
 7992SOL    HW128432   6.218   6.581   2.711 -2.2951 -0.7587 -0.5892
 7992SOL    HW228433   6.175   6.449   2.650  0.2378 -1.5226 -0.8527
 7993SOL     OW28434  10.273   3.103  10.664  0.5343  0.1975  0.1561
 7993SOL    HW128435  10.232   3.187  10.683  1.1918  0.3423  1.0341
 7993SOL    HW228436  10.356   3.125  10.623 -0.2194 -0.0953 -1.6362
 7994SOL     OW28437   6.549   2.524   2.999  0.3636  0.2899  0.2555
 7994SOL    HW128438   6.483   2.593   3.001  1.9034  1.8464  2.4437
 7994SOL    HW228439   6.508   2.450   3.044 -1.6708 -0.7274 -2.9950
 7995SOL     OW28440   4.187  10.691  10.925 -0.4998  0.1002 -0.3904
 7995SOL    HW128441   4.270  10.736  10.944  0.7275 -1.8076 -0.9725
 7995SOL    HW228442   4.174  10.704  10.831 -0.5777 -0.0582 -0.4016
 7996SOL     OW28443  10.319   1.343   6.571 -0.5124  0.2128  0.1788
 7996SOL    HW128444  10.367   1.340   6.488  0.3464 -1.0783  0.7007
 7996SOL    HW228445  10.244   1.400   6.553  0.4207  1.0904 -1.0669
 7997SOL     OW28446   4.068   6.192   8.342  0.5522 -0.3447 -0.0474
 7997SOL    HW128447   4.143   6.230   8.297 -0.1205 -0.7564 -1.5639
 7997SOL    HW228448   4.021   6.268   8.378  0.5179  0.0849 -0.9796
 7998SOL     OW28449   7.884   9.545   3.558  0.0983  0.3360 -0.1397
 7998SOL    HW128450   7.893   9.456   3.522 -1.4365  0.3250 -0.5693
 7998SOL    HW228451   7.822   9.588   3.499  0.4460  1.5516  0.3550
 7999SOL     OW28452   1.584   2.470   3.767 -0.5288 -0.5326  0.2221
 7999SOL    HW128453   1.491   2.449   3.769 -0.9629  1.1523 -0.1417
 7999SOL    HW228454   1.599   2.520   3.847  0.1759 -1.2068  0.5172
 8000SOL     OW28455   3.652   2.213  10.238 -0.0860  0.0651 -0.3512
 8000SOL    HW128456   3.573   2.266  10.225  2.0238  3.7982  0.7553
 8000SOL    HW228457   3.640   2.172  10.324 -0.3980  1.4878  0.3091
 8001SOL     OW28458   3.701   9.675  10.614 -0.6571  0.4227 -0.1795
 8001SOL    HW128459   3.738   9.645  10.697 -1.1921  2.4742  0.8447
 8001SOL    HW228460   3.638   9.607  10.590 -0.4240 -0.2464  1.0335
 8002SOL     OW28461   0.237   5.743   1.682 -0.1478 -0.1799 -0.0765
 8002SOL    HW128462   0.280   5.805   1.623 -0.7151  0.1390 -0.1591
 8002SOL    HW228463   0.269   5.657   1.654 -2.0242 -0.2466 -2.2916
 8003SOL     OW28464   4.327   1.908   8.631  0.2576  0.0488  0.3468
 8003SOL    HW128465   4.357   1.942   8.546  0.2119  0.4288  0.4803
 8003SOL    HW228466   4.236   1.883   8.616  0.4332 -0.4754  0.1182
 8004SOL     OW28467   1.424   0.923   5.117 -0.0485  0.5411 -0.0324
 8004SOL    HW128468   1.401   0.831   5.123 -0.4400  0.6621  0.4228
 8004SOL    HW228469   1.503   0.925   5.064  0.3936 -0.1247  0.5763
 8005SOL     OW28470   8.114   8.632   1.008  0.5653  0.4639  0.2593
 8005SOL    HW128471   8.056   8.698   1.046  0.3731  2.5914 -3.3053
 8005SOL    HW228472   8.199   8.647   1.050  0.1327  1.9564  0.6486
 8006SOL     OW28473   9.232   5.651   2.302  0.1059 -0.1688  0.4824
 8006SOL    HW128474   9.154   5.639   2.356  0.2927  0.2053  0.8414
 8006SOL    HW228475   9.300   5.600   2.347  0.0899 -0.4437  0.2038
 8007SOL     OW28476   9.744   6.591   8.768  0.3245  0.4015 -0.3185
 8007SOL    HW128477   9.819   6.563   8.820  0.5015  0.8910 -0.2986
 8007SOL    HW228478   9.775   6.590   8.677  0.6682  1.5098 -0.2353
 8008SOL     OW28479   9.074   0.900   8.969 -0.3148  0.0480 -0.3350
 8008SOL    HW128480   9.098   0.906   8.877 -3.5698 -0.1063 -1.3281
 8008SOL    HW228481   9.129   0.830   9.004  0.3857 -0.4790 -2.3732
 8009SOL     OW28482   3.143   6.521   9.705 -0.2448 -1.0950 -0.1842
 8009SOL    HW128483   3.176   6.484   9.787  0.0057 -0.9155 -0.2025
 8009SOL    HW228484   3.057   6.557   9.727  0.8222  1.1261  0.5877
 8010SOL     OW28485   9.113   6.631   9.159 -0.2428  0.2118 -0.2218
 8010SOL    HW128486   9.111   6.694   9.231 -0.7294  1.6607 -1.4561
 8010SOL    HW228487   9.185   6.660   9.103 -0.3460 -0.4473 -0.7203
 8011SOL     OW28488  10.623   7.534   1.460 -0.2814  0.3813 -0.3558
 8011SOL    HW128489  10.549   7.481   1.488  0.8941 -0.8901  0.4395
 8011SOL    HW228490  10.593   7.625   1.471 -1.6715 -0.1055  0.0150
 8012SOL     OW28491   3.666   2.064  10.519  0.2451 -0.0625  0.9997
 8012SOL    HW128492   3.724   2.133  10.551 -1.8812  2.1766  0.3754
 8012SOL    HW228493   3.614   2.039  10.596  1.0538 -1.0512  1.2386
 8013SOL     OW28494   8.297   4.699   1.263 -0.7733  0.2138 -0.0482
 8013SOL    HW128495   8.330   4.631   1.321 -1.7731 -0.8215 -0.6423
 8013SOL    HW228496   8.344   4.686   1.180  0.5850  1.6267  0.4605
 8014SOL     OW28497   6.220   3.762   8.949  0.1843 -0.1911  0.2889
 8014SOL    HW128498   6.212   3.789   9.041 -1.8209 -0.7912  0.3432
 8014SOL    HW228499   6.313   3.768   8.931  0.2589  4.2278  1.0237
 8015SOL     OW28500  10.281   4.493   1.627  0.0794  0.1090 -0.2740
 8015SOL    HW128501  10.286   4.505   1.722  0.3749 -0.3623 -0.2243
 8015SOL    HW228502  10.328   4.411   1.611 -1.7083 -0.9022 -0.5926
 8016SOL     OW28503   9.795   6.190   6.016  0.6710  0.6614 -0.7054
 8016SOL    HW128504   9.763   6.154   6.098  0.8387 -0.1273 -0.9793
 8016SOL    HW228505   9.719   6.234   5.978  0.4694  0.6235 -0.3518
 8017SOL     OW28506   0.690   6.173   5.726  0.0692 -0.8805  0.2642
 8017SOL    HW128507   0.655   6.105   5.669  1.0630 -1.3888  0.2421
 8017SOL    HW228508   0.781   6.183   5.699  0.1782 -0.1703  0.8588
 8018SOL     OW28509   8.850  11.070   4.942 -0.4086 -0.1010 -0.4885
 8018SOL    HW128510   8.783  11.016   4.983  0.2848 -0.9976 -0.4868
 8018SOL    HW228511   8.830  11.066   4.848  0.0634 -0.9902 -0.5631
 8019SOL     OW28512   6.816  10.459  10.399 -0.0864 -0.0352  0.7792
 8019SOL    HW128513   6.741  10.404  10.422 -0.2659  0.0758  0.4766
 8019SOL    HW228514   6.829  10.444  10.305  0.5422 -0.3809  0.9140
 8020SOL     OW28515  10.155   2.882   2.287  0.9248  0.1936  0.3926
 8020SOL    HW128516  10.234   2.835   2.314  0.7040 -1.0267 -0.9395
 8020SOL    HW228517  10.158   2.879   2.191 -0.7028  0.1921  0.3245
 8021SOL     OW28518   3.222   1.709   0.983 -0.5604 -0.2793  0.2096
 8021SOL    HW128519   3.209   1.771   0.912 -0.3223 -0.7403 -0.2390
 8021SOL    HW228520   3.222   1.763   1.062  0.0169  0.3425 -0.2044
 8022SOL     OW28521   3.622   2.840   0.815 -0.3318 -0.1062  0.1449
 8022SOL    HW128522   3.600   2.783   0.742  0.0591  1.7205 -1.4819
 8022SOL    HW228523   3.539   2.879   0.841 -0.2759  0.3411 -0.3235
 8023SOL     OW28524   6.341   7.312   1.556  0.2811 -0.7254  0.0238
 8023SOL    HW128525   6.427   7.324   1.597  0.6181 -1.5619 -0.4224
 8023SOL    HW228526   6.283   7.288   1.628  0.2327  0.6057  0.4556
 8024SOL     OW28527   6.681   2.543   4.162 -0.1050 -0.1890  0.1114
 8024SOL    HW128528   6.689   2.470   4.101  1.2278 -0.4162  0.5229
 8024SOL    HW228529   6.589   2.570   4.156 -0.3491 -1.1804 -0.8578
 8025SOL     OW28530   1.603   0.651   3.732 -0.4913  0.8190  0.2470
 8025SOL    HW128531   1.611   0.697   3.648  1.0397  1.3531  0.6618
 8025SOL    HW228532   1.544   0.705   3.783  0.2841  1.6661  0.2701
 8026SOL     OW28533   9.558   4.310   8.135  0.4230 -0.0996  0.4749
 8026SOL    HW128534   9.608   4.230   8.119 -0.4863 -1.0992  2.3715
 8026SOL    HW228535   9.467   4.284   8.128  0.1090  0.8834  0.6686
 8027SOL     OW28536   9.338   7.195   0.197 -0.1705 -0.0476  0.2744
 8027SOL    HW128537   9.250   7.210   0.163 -0.0195  0.3408  0.0372
 8027SOL    HW228538   9.352   7.101   0.187 -0.9586 -0.2939  1.3216
 8028SOL     OW28539   5.863   8.484   2.996 -0.1867 -0.3056  0.2463
 8028SOL    HW128540   5.787   8.535   2.970 -0.4766 -0.2936  1.1078
 8028SOL    HW228541   5.891   8.522   3.079  0.1998 -0.9095  0.3992
 8029SOL     OW28542   7.390   5.578  10.947 -0.0986 -0.0954 -0.2055
 8029SOL    HW128543   7.480   5.548  10.933 -0.0579  0.3605 -0.9739
 8029SOL    HW228544   7.380   5.581  11.043 -0.2065 -2.8036 -0.0692
 8030SOL     OW28545   2.422   2.377   7.676  0.7765  0.5146  0.0047
 8030SOL    HW128546   2.424   2.323   7.597  1.1663  0.5238  0.0061
 8030SOL    HW228547   2.338   2.355   7.718 -0.3465  1.9556 -1.3923
 8031SOL     OW28548   1.912   5.735   7.652  0.1583 -0.3193  0.0421
 8031SOL    HW128549   1.907   5.714   7.559  1.6314 -0.3700 -0.0461
 8031SOL    HW228550   1.823   5.721   7.684 -0.4067 -0.1946 -1.3692
 8032SOL     OW28551   3.117   9.262   1.829  0.1225 -0.5001 -0.0770
 8032SOL    HW128552   3.048   9.328   1.819  2.6040  1.9928 -2.0713
 8032SOL    HW228553   3.086   9.188   1.777 -1.9595 -0.3603  0.8369
 8033SOL     OW28554   3.670   3.997   6.143 -0.3982  0.1725 -0.0186
 8033SOL    HW128555   3.610   4.066   6.173 -0.3371  0.8828 -1.4223
 8033SOL    HW228556   3.747   4.005   6.200 -0.7209  0.7284  0.3500
 8034SOL     OW28557   1.772   9.941   5.761  0.1809 -0.3143 -0.3758
 8034SOL    HW128558   1.733  10.014   5.809  1.3195 -0.9663  1.6989
 8034SOL    HW228559   1.800   9.979   5.678 -0.4710  1.2884  0.0976
 8035SOL     OW28560   3.436   3.150   4.171 -0.6221  0.2004  0.1234
 8035SOL    HW128561   3.351   3.120   4.203  0.2343 -0.9924  1.4106
 8035SOL    HW228562   3.458   3.089   4.100 -1.0632  0.8352 -0.5681
 8036SOL     OW28563   4.695   6.786   9.197  0.3121 -0.5673  0.4520
 8036SOL    HW128564   4.652   6.828   9.122  1.7768  0.2063  0.0032
 8036SOL    HW228565   4.788   6.785   9.173  0.8847  0.1933  2.4894
 8037SOL     OW28566   2.363   3.355   5.751 -0.3018 -0.0104  0.5951
 8037SOL    HW128567   2.330   3.280   5.801 -0.3374  0.9467  2.0419
 8037SOL    HW228568   2.312   3.430   5.782  0.6199  0.8405  0.1122
 8038SOL     OW28569   7.359   6.010   4.335  0.3372 -0.0313 -0.3914
 8038SOL    HW128570   7.345   6.013   4.240 -0.9129 -0.5692 -0.2430
 8038SOL    HW228571   7.443   6.054   4.348  1.1744 -1.1024 -1.8717
 8039SOL     OW28572   9.477   8.972   3.899  0.2005 -0.1649 -0.0130
 8039SOL    HW128573   9.421   8.934   3.831  0.4630  1.0147 -0.9263
 8039SOL    HW228574   9.490   8.901   3.962  0.0311 -1.3332 -1.2507
 8040SOL     OW28575   9.161   2.686   2.073 -0.5679 -0.0491  0.6240
 8040SOL    HW128576   9.211   2.713   1.996  0.3752  0.7392  1.4942
 8040SOL    HW228577   9.223   2.635   2.125  0.2407  2.9698  2.9176
 8041SOL     OW28578   2.801  10.437   7.415 -0.2564 -0.2803 -0.1821
 8041SOL    HW128579   2.730  10.432   7.351  1.1661 -0.7368 -1.8050
 8041SOL    HW228580   2.795  10.526   7.450 -0.1092  0.5746 -2.1670
 8042SOL     OW28581   3.766   8.233   7.544  0.4825 -0.3430  0.3578
 8042SOL    HW128582   3.752   8.172   7.616 -1.8432 -0.9444 -0.5210
 8042SOL    HW228583   3.851   8.208   7.507 -0.1851 -2.8079  0.3017
 8043SOL     OW28584   7.096   2.061   7.426 -0.1625 -0.1979 -0.0467
 8043SOL    HW128585   7.015   2.046   7.376 -0.0707  1.6463 -0.8620
 8043SOL    HW228586   7.117   2.153   7.408  2.6539 -0.8762 -0.6533
 8044SOL     OW28587   0.063   7.479   9.524 -0.6987  0.2935 -0.3075
 8044SOL    HW128588   0.053   7.572   9.546  0.0461  0.3962 -0.3989
 8044SOL    HW228589  -0.019   7.439   9.554 -0.9274  0.9395 -0.0519
 8045SOL     OW28590   4.631   3.784   5.229 -0.0282  0.7912  0.3977
 8045SOL    HW128591   4.580   3.749   5.303  0.1163  1.8136  1.0082
 8045SOL    HW228592   4.709   3.822   5.270  0.3771  0.7761 -0.3552
 8046SOL     OW28593   2.842  10.466   7.011  0.1343 -0.0979 -0.5713
 8046SOL    HW128594   2.804  10.469   6.922 -2.1072 -0.1300  0.3108
 8046SOL    HW228595   2.795  10.395   7.054 -0.0190  0.9946  1.1393
 8047SOL     OW28596   7.189   5.961   3.899  0.4277  0.2011  0.1185
 8047SOL    HW128597   7.193   5.895   3.830 -1.1009  1.1603 -0.9401
 8047SOL    HW228598   7.127   5.926   3.963 -1.7409  1.3144 -1.2931
 8048SOL     OW28599  10.424   5.742   6.969 -0.2978 -0.3883  0.4569
 8048SOL    HW128600  10.461   5.656   6.948  1.1611  0.6741 -1.7490
 8048SOL    HW228601  10.348   5.723   7.024  1.0964 -2.9422  1.6510
 8049SOL     OW28602   8.499   4.728   3.325 -0.5428  0.2111 -0.3644
 8049SOL    HW128603   8.443   4.719   3.248  1.3170  0.8541 -1.8618
 8049SOL    HW228604   8.555   4.650   3.323  0.6867  1.0677 -0.7131
 8050SOL     OW28605   2.762   1.039   1.907 -0.1697 -0.0185  0.5243
 8050SOL    HW128606   2.844   1.077   1.939 -0.8972  2.0532  0.1036
 8050SOL    HW228607   2.769   0.946   1.926  2.1902  0.1410  0.6672
 8051SOL     OW28608   8.349  10.072   5.906  0.4388 -0.7669 -0.2309
 8051SOL    HW128609   8.428  10.104   5.950  0.8206 -0.4583 -1.1195
 8051SOL    HW228610   8.294  10.150   5.896  0.7678 -0.6383 -1.1409
 8052SOL     OW28611   5.073   1.323   9.110 -0.0110  0.8352  0.0572
 8052SOL    HW128612   5.098   1.273   9.032  0.1119 -1.6158  1.5382
 8052SOL    HW228613   5.131   1.289   9.179 -1.1803  1.7576  1.5514
 8053SOL     OW28614   3.023   4.340   5.600 -0.3095  0.0050  0.3853
 8053SOL    HW128615   3.018   4.435   5.606  0.3553 -0.0288  2.0288
 8053SOL    HW228616   3.115   4.322   5.581 -0.4564 -0.3143 -0.0398
 8054SOL     OW28617   4.368   0.110   9.172  0.7188 -0.1626 -0.1880
 8054SOL    HW128618   4.356   0.197   9.209  0.5051 -0.5723  0.7422
 8054SOL    HW228619   4.446   0.117   9.117  1.1326  0.4306  0.4682
 8055SOL     OW28620   6.941   5.027   2.972  0.2643 -0.3189 -0.5489
 8055SOL    HW128621   7.013   4.964   2.982  1.3652  1.1662  2.0823
 8055SOL    HW228622   6.975   5.107   3.012 -2.3797  0.8642 -0.5235
 8056SOL     OW28623   1.326   2.755   3.932 -0.2810 -0.0767 -0.3966
 8056SOL    HW128624   1.364   2.823   3.988 -1.5786  0.6194 -0.3229
 8056SOL    HW228625   1.377   2.677   3.952  0.6598  0.6621  0.1844
 8057SOL     OW28626   5.346   1.150   4.593  0.3561 -0.0324  0.1225
 8057SOL    HW128627   5.419   1.154   4.655  0.2334 -1.5247  0.3996
 8057SOL    HW228628   5.276   1.104   4.640 -0.0714 -0.3540 -0.7987
 8058SOL     OW28629   7.738   0.137   8.968  0.2435  0.1898 -0.4423
 8058SOL    HW128630   7.766   0.219   8.927  1.6722 -0.2656 -0.4500
 8058SOL    HW228631   7.696   0.088   8.898 -0.1644  0.7045 -0.5638
 8059SOL     OW28632   1.004   2.714   2.434  0.4159  0.0667  0.0902
 8059SOL    HW128633   1.090   2.738   2.468 -0.2145 -2.1427  3.7796
 8059SOL    HW228634   0.943   2.773   2.479 -0.1991  0.5489 -1.2899
 8060SOL     OW28635   1.021   3.279   2.697 -0.1827  0.1976  0.0681
 8060SOL    HW128636   1.076   3.226   2.756 -0.8269 -0.1235  0.3854
 8060SOL    HW228637   1.078   3.296   2.622  0.8271  1.0502  0.9902
 8061SOL     OW28638   3.755  10.557   7.194  0.1188  0.4770  0.5462
 8061SOL    HW128639   3.670  10.515   7.204  0.3699 -0.4405 -0.8629
 8061SOL    HW228640   3.786  10.569   7.284 -0.6220 -1.0246  1.0418
 8062SOL     OW28641   6.657   1.587   7.024 -0.1765  0.0801 -0.0198
 8062SOL    HW128642   6.713   1.646   7.075  0.9817  0.2569 -1.4070
 8062SOL    HW228643   6.579   1.639   7.004  0.8056  1.1724 -1.1739
 8063SOL     OW28644   7.830   3.377   2.767  0.0140  0.1882 -0.2194
 8063SOL    HW128645   7.759   3.339   2.715  0.4226 -0.6308 -0.1792
 8063SOL    HW228646   7.910   3.344   2.728  0.4325  1.7053 -0.7294
 8064SOL     OW28647   5.588   3.707   5.562 -0.2307  0.6232  0.3063
 8064SOL    HW128648   5.619   3.743   5.479 -0.1194 -0.0519  0.0512
 8064SOL    HW228649   5.654   3.733   5.626  0.6528 -0.4485 -0.1558
 8065SOL     OW28650   8.325   7.647   9.730  0.2009  0.5674  0.5276
 8065SOL    HW128651   8.345   7.567   9.682  1.1606  1.6465 -0.9519
 8065SOL    HW228652   8.383   7.646   9.806 -0.2205 -0.3974  0.8567
 8066SOL     OW28653   9.405   7.628   1.445  0.0310 -0.0457 -0.1486
 8066SOL    HW128654   9.394   7.534   1.431 -0.2988  0.1642 -1.4144
 8066SOL    HW228655   9.496   7.637   1.475  0.3399 -0.6888 -0.8598
 8067SOL     OW28656   9.580   8.903   9.745 -0.9356  0.2161 -0.3509
 8067SOL    HW128657   9.541   8.960   9.811  0.1668 -0.4219  0.9118
 8067SOL    HW228658   9.532   8.821   9.753  0.3814 -0.4728  1.0005
 8068SOL     OW28659   8.376   5.862   3.918 -0.1654 -0.0505 -0.0874
 8068SOL    HW128660   8.366   5.908   4.001 -0.6863  0.7734 -0.5873
 8068SOL    HW228661   8.447   5.800   3.932  0.1550  0.5095  0.7842
 8069SOL     OW28662   7.708   8.860   8.532 -0.1701  0.1164 -0.5188
 8069SOL    HW128663   7.617   8.837   8.553  0.4596 -1.3628  0.6788
 8069SOL    HW228664   7.727   8.934   8.590 -0.1425 -0.5531  0.3506
 8070SOL     OW28665   4.571  10.264   7.174  0.3378  0.9737 -0.1506
 8070SOL    HW128666   4.480  10.294   7.179  0.2189  0.5058  0.7379
 8070SOL    HW228667   4.620  10.328   7.226  0.3892  0.7779  0.0446
 8071SOL     OW28668   6.021   7.500   7.887  0.3532  0.7548 -0.2644
 8071SOL    HW128669   5.945   7.445   7.907  0.4697  1.1669  1.3953
 8071SOL    HW228670   6.077   7.445   7.832 -0.3999 -0.1137 -0.1725
 8072SOL     OW28671   3.030   0.869   8.281  0.8238 -0.1407  0.6495
 8072SOL    HW128672   3.007   0.908   8.197  0.8905  1.2790  1.2537
 8072SOL    HW228673   3.074   0.787   8.259 -0.9080 -0.7926 -0.6470
 8073SOL     OW28674   1.533   8.012   2.664 -0.4312  0.2560  0.1410
 8073SOL    HW128675   1.536   8.050   2.576  0.5938  1.9467  0.8338
 8073SOL    HW228676   1.616   7.964   2.672 -1.0666 -0.9093 -0.2245
 8074SOL     OW28677   6.877   9.791   0.715  0.4964  0.8346 -0.2594
 8074SOL    HW128678   6.856   9.776   0.623  0.2608  1.9102 -0.3901
 8074SOL    HW228679   6.832   9.873   0.738  1.5360  1.2273  0.4706
 8075SOL     OW28680  10.702   4.531   3.013 -0.5252  0.6004  0.0818
 8075SOL    HW128681  10.715   4.501   2.923  0.7828 -2.3493  1.1331
 8075SOL    HW228682  10.621   4.581   3.010 -3.2146 -3.3700 -1.9299
 8076SOL     OW28683  11.063   4.377   7.584  0.3119  0.2179 -0.1783
 8076SOL    HW128684  11.008   4.302   7.608  1.4949 -0.2170  1.3861
 8076SOL    HW228685  11.151   4.339   7.574  0.5573  1.0794 -1.4009
 8077SOL     OW28686   6.379  10.574   7.195 -0.1437 -0.0131 -0.2828
 8077SOL    HW128687   6.329  10.493   7.191  2.8838 -2.2260  1.8305
 8077SOL    HW228688   6.449  10.561   7.130 -0.4306  1.5874 -0.9440
 8078SOL     OW28689   2.697  10.347   8.852 -0.6506  0.4389  1.0171
 8078SOL    HW128690   2.773  10.306   8.893  0.1590  0.3313 -0.5234
 8078SOL    HW228691   2.662  10.279   8.794  0.2538  1.6001 -0.9926
 8079SOL     OW28692   6.742   0.813   9.124 -0.3993 -0.1197  0.0563
 8079SOL    HW128693   6.737   0.904   9.093 -0.7580 -0.1490  0.0267
 8079SOL    HW228694   6.719   0.818   9.217  3.1775  0.3454  1.0906
 8080SOL     OW28695   6.873   1.388   5.808  0.2127 -0.5823 -0.5754
 8080SOL    HW128696   6.784   1.367   5.838  1.0474  0.1342  2.8170
 8080SOL    HW228697   6.863   1.470   5.758 -1.0090 -0.4766 -0.1843
 8081SOL     OW28698   0.679   9.729   8.043  0.1648 -0.1740  0.2838
 8081SOL    HW128699   0.683   9.823   8.059  2.2987 -0.3523  1.1071
 8081SOL    HW228700   0.653   9.722   7.951  0.6895  1.2359 -0.0041
 8082SOL     OW28701   5.453   8.381   5.658  0.1757  0.4444 -0.5007
 8082SOL    HW128702   5.498   8.397   5.574  0.7262 -0.9730 -0.5053
 8082SOL    HW228703   5.364   8.412   5.643  0.5303  1.1648 -1.2680
 8083SOL     OW28704   8.018   3.460   4.056 -0.3618  0.5720 -0.0075
 8083SOL    HW128705   8.059   3.376   4.079  0.2780  0.6221 -0.9147
 8083SOL    HW228706   7.980   3.491   4.138  0.5202  0.0178  0.6303
 8084SOL     OW28707   1.106   9.781   9.406  0.1841  0.5517  0.6207
 8084SOL    HW128708   1.051   9.706   9.386  0.8787  0.0830  0.4421
 8084SOL    HW228709   1.079   9.848   9.343  0.4866  0.0012 -0.1024
 8085SOL     OW28710   0.510   5.129   7.276  0.1521  0.1349  0.1008
 8085SOL    HW128711   0.439   5.082   7.320  0.1769 -1.0696 -1.0849
 8085SOL    HW228712   0.518   5.086   7.191  1.6820  0.8724 -0.1574
 8086SOL     OW28713   6.614   2.726   1.000  0.0840 -0.1987 -0.2262
 8086SOL    HW128714   6.647   2.636   0.992  0.7889  0.2056 -2.4418
 8086SOL    HW228715   6.660   2.775   0.932 -0.8963  1.6866  0.3932
 8087SOL     OW28716  10.693   5.610   7.242  0.2890 -0.7651 -0.2723
 8087SOL    HW128717  10.760   5.543   7.237  0.0500 -1.2043  1.6541
 8087SOL    HW228718  10.612   5.562   7.258 -0.0262 -0.0843  0.2565
 8088SOL     OW28719   4.992   7.808   1.869  0.9434  0.8343  0.3756
 8088SOL    HW128720   5.025   7.889   1.908 -0.7667  1.1402  1.2676
 8088SOL    HW228721   5.070   7.754   1.857  1.9123  1.9624  1.3214
 8089SOL     OW28722   3.784   7.228   3.939 -0.8709  0.2783  0.5206
 8089SOL    HW128723   3.795   7.273   3.855 -1.9410 -1.1893 -0.4407
 8089SOL    HW228724   3.689   7.222   3.951 -0.7340 -0.2650  1.4337
 8090SOL     OW28725   3.880   3.208   7.486 -0.4319 -0.1393 -0.2635
 8090SOL    HW128726   3.822   3.179   7.555  0.2838  1.8139  1.2466
 8090SOL    HW228727   3.822   3.248   7.421 -0.9080  0.4231  0.4943
 8091SOL     OW28728   7.161   2.970   2.638 -0.2024 -0.4152  0.3900
 8091SOL    HW128729   7.140   2.880   2.611 -1.0413 -0.2997  0.6307
 8091SOL    HW228730   7.176   2.964   2.732  3.0611 -0.8788 -0.0624
 8092SOL     OW28731   6.841   6.935   7.134 -0.3196  0.0927  0.3547
 8092SOL    HW128732   6.875   6.866   7.077  0.2981  1.2616 -0.7446
 8092SOL    HW228733   6.856   6.902   7.222 -1.3857 -1.8095 -0.1214
 8093SOL     OW28734   3.431   9.646   1.872  0.1915 -0.0339 -0.3667
 8093SOL    HW128735   3.458   9.589   1.800 -0.6482  0.0216 -0.7412
 8093SOL    HW228736   3.339   9.665   1.854 -0.3724 -0.9176  1.3286
 8094SOL     OW28737   2.515   9.103   0.347  0.3104  0.0916 -0.6225
 8094SOL    HW128738   2.529   9.012   0.373 -1.4941 -0.0276  0.1001
 8094SOL    HW228739   2.448   9.099   0.279  1.0714  0.8144 -1.4438
 8095SOL     OW28740   0.873   4.315   6.965  0.1401 -0.2547 -0.3203
 8095SOL    HW128741   0.856   4.281   7.053 -0.0682  2.1511  0.6760
 8095SOL    HW228742   0.967   4.307   6.954  0.6915  2.2958  1.5563
 8096SOL     OW28743   4.855   7.351   1.125 -0.0878  0.5718 -0.5033
 8096SOL    HW128744   4.849   7.430   1.180 -1.0639  0.4349 -0.3848
 8096SOL    HW228745   4.804   7.373   1.047  1.8517  1.0095 -1.7024
 8097SOL     OW28746   9.924   4.899   2.676 -0.0894 -0.0763 -0.0391
 8097SOL    HW128747   9.978   4.892   2.597  2.2151 -0.7423  1.4812
 8097SOL    HW228748   9.838   4.867   2.649  0.9886 -1.6277 -1.9612
 8098SOL     OW28749   0.801   4.631   7.176  0.3525 -0.4950  0.3527
 8098SOL    HW128750   0.846   4.709   7.208 -0.2029 -0.0876  0.1632
 8098SOL    HW228751   0.791   4.647   7.082  0.0996 -0.7272  0.3409
 8099SOL     OW28752   7.443   2.190   2.928  0.3885 -0.5337 -0.4335
 8099SOL    HW128753   7.460   2.217   3.018  2.5167  1.1208 -1.2463
 8099SOL    HW228754   7.507   2.120   2.913  1.0663  0.1949 -1.0556
 8100SOL     OW28755   1.779   3.936   3.758  0.3489  0.5822 -0.3477
 8100SOL    HW128756   1.786   3.952   3.852  1.2225  3.5037 -0.7876
 8100SOL    HW228757   1.701   3.984   3.731 -1.0277 -1.8501 -0.8876
 8101SOL     OW28758  10.438   7.009   4.209  0.0463  0.6649 -0.0151
 8101SOL    HW128759  10.493   7.030   4.285  1.0681 -0.3158 -0.4588
 8101SOL    HW228760  10.388   6.932   4.236  0.9776 -0.1622 -0.5698
 8102SOL     OW28761   9.862   4.501   1.731 -0.3419  0.8492  0.0158
 8102SOL    HW128762   9.915   4.424   1.711 -1.2662 -0.6122  2.6302
 8102SOL    HW228763   9.798   4.506   1.660  0.5573 -0.0017 -0.8812
 8103SOL     OW28764   2.958   3.157   3.533 -0.4955 -0.4740  0.0501
 8103SOL    HW128765   2.911   3.092   3.585  2.6136 -0.3696  3.3567
 8103SOL    HW228766   2.935   3.241   3.574  1.0251 -0.2524  0.4962
 8104SOL     OW28767   1.756   1.765   7.315  0.0919  0.0536 -0.2732
 8104SOL    HW128768   1.775   1.722   7.398 -3.5447 -0.4722  0.4414
 8104SOL    HW228769   1.736   1.855   7.338 -3.1429 -0.5852 -0.0783
 8105SOL     OW28770   9.805   2.455   9.610 -0.0232  0.3380 -0.1740
 8105SOL    HW128771   9.716   2.439   9.639 -0.5290  2.5809 -0.2798
 8105SOL    HW228772   9.849   2.370   9.617 -1.9284 -0.6327  0.6380
 8106SOL     OW28773   7.331  10.795   6.461 -0.5206 -0.0432  0.1396
 8106SOL    HW128774   7.371  10.752   6.386 -3.9180  1.0326 -2.5197
 8106SOL    HW228775   7.360  10.886   6.455 -0.7892  0.0428  0.1386
 8107SOL     OW28776   5.360   4.050   9.906 -0.2109 -0.4149 -0.6832
 8107SOL    HW128777   5.454   4.045   9.927  0.1796 -0.7851 -2.3435
 8107SOL    HW228778   5.345   4.143   9.889 -0.4555 -0.1642  0.8035
 8108SOL     OW28779  10.381   1.124   1.521  0.3114  0.3893 -0.0220
 8108SOL    HW128780  10.300   1.154   1.481  0.6219  1.4905  0.1373
 8108SOL    HW228781  10.353   1.059   1.586 -0.4877  1.0651  0.3302
 8109SOL     OW28782   3.351   6.001   5.067 -0.3260  0.4494 -0.8819
 8109SOL    HW128783   3.425   6.009   5.126 -0.1787  2.3374 -1.2779
 8109SOL    HW228784   3.390   5.976   4.983 -0.2241  0.6472 -0.8932
 8110SOL     OW28785   4.539   7.225   6.338 -0.4499  0.2855 -0.2643
 8110SOL    HW128786   4.530   7.163   6.266  1.4946 -0.1689 -0.1752
 8110SOL    HW228787   4.634   7.235   6.350 -0.6757  2.9010  0.0494
 8111SOL     OW28788   8.979   9.639   7.729  0.2417 -0.3876  0.3448
 8111SOL    HW128789   8.982   9.725   7.687  1.2861 -0.5069  0.1630
 8111SOL    HW228790   8.898   9.600   7.695 -0.2815  0.5334  0.4840
 8112SOL     OW28791   1.413   0.759   3.882 -0.4895 -0.3458 -0.5752
 8112SOL    HW128792   1.406   0.750   3.977 -0.5053  1.7278 -0.3356
 8112SOL    HW228793   1.323   0.755   3.851 -0.6472  0.7998 -0.2893
 8113SOL     OW28794   7.069  10.573   5.620  0.7016 -0.3809 -0.0334
 8113SOL    HW128795   7.137  10.597   5.683  0.7886 -1.8357  0.4849
 8113SOL    HW228796   7.078  10.636   5.549 -0.6608  2.5633  2.2306
 8114SOL     OW28797   2.444   6.377   4.728 -0.6944 -0.7082 -0.1702
 8114SOL    HW128798   2.439   6.328   4.646 -0.0984  0.2533 -0.8106
 8114SOL    HW228799   2.530   6.355   4.764 -0.8098 -0.8569  0.0149
 8115SOL     OW28800  10.779   2.667  10.523  0.2996  0.7619  0.5079
 8115SOL    HW128801  10.793   2.719  10.603  1.7692  0.7945  0.2604
 8115SOL    HW228802  10.691   2.690  10.495 -0.0062  1.2452  1.7633
 8116SOL     OW28803   7.747   6.209   5.900  0.5645 -0.1876  0.0766
 8116SOL    HW128804   7.834   6.200   5.863  0.2979 -2.0631 -0.1689
 8116SOL    HW228805   7.729   6.303   5.895  1.3466 -0.0935 -2.6943
 8117SOL     OW28806   8.481   1.617   4.921  0.0479  0.2674  0.0153
 8117SOL    HW128807   8.474   1.645   5.012 -0.6073  0.9779 -0.2419
 8117SOL    HW228808   8.462   1.696   4.870 -0.5962 -0.3636 -0.7384
 8118SOL     OW28809   9.568   5.654   4.789  0.4934 -0.2297  0.0160
 8118SOL    HW128810   9.551   5.576   4.842  0.9095 -0.4742 -0.2079
 8118SOL    HW228811   9.608   5.716   4.851  0.6730 -0.3955  0.0682
 8119SOL     OW28812   9.419   9.183   3.038  0.1148 -0.2550 -0.1465
 8119SOL    HW128813   9.359   9.109   3.030  0.8020 -0.8559  0.1177
 8119SOL    HW228814   9.426   9.199   3.132  1.4097 -1.0845 -0.0813
 8120SOL     OW28815   6.181   9.613   9.643  0.0702 -0.1911  0.2158
 8120SOL    HW128816   6.198   9.691   9.697  2.9382  0.1036 -0.9501
 8120SOL    HW228817   6.221   9.541   9.692  3.3791  0.1922 -1.6714
 8121SOL     OW28818   0.544   2.430   6.517 -0.0936  0.3622 -0.1077
 8121SOL    HW128819   0.460   2.430   6.563 -0.9335 -4.8413 -0.9674
 8121SOL    HW228820   0.524   2.464   6.430 -0.7627  1.2032  0.3582
 8122SOL     OW28821   9.040   0.750   7.757  0.1196  0.0413 -0.4678
 8122SOL    HW128822   9.062   0.820   7.695 -0.5633 -0.5087 -1.3567
 8122SOL    HW228823   9.123   0.726   7.796  0.7573 -0.3040 -1.9518
 8123SOL     OW28824   8.836   2.108   8.159  0.5910  0.3452  0.1755
 8123SOL    HW128825   8.747   2.137   8.181  0.0101 -0.5839 -0.8567
 8123SOL    HW228826   8.824   2.045   8.088  2.2945  2.2504 -1.9205
 8124SOL     OW28827   1.902   8.387   4.500 -0.3806  0.2756  0.2849
 8124SOL    HW128828   1.869   8.307   4.540 -1.6346  0.1197 -0.9816
 8124SOL    HW228829   1.976   8.358   4.447 -0.2398  0.1132  0.5649
 8125SOL     OW28830   8.910   6.906   7.672  0.4717 -0.5941  0.9143
 8125SOL    HW128831   8.997   6.942   7.693  1.3062 -1.6418 -0.6386
 8125SOL    HW228832   8.926   6.815   7.650 -0.7257 -0.3304 -1.3272
 8126SOL     OW28833   5.958   9.604   7.112 -0.3068 -0.6468 -0.2433
 8126SOL    HW128834   5.981   9.696   7.122  1.5255 -1.1982  1.3287
 8126SOL    HW228835   6.040   9.563   7.084 -0.6786 -2.0078  0.5747
 8127SOL     OW28836   8.319   2.129   1.581 -0.0171  0.4111  0.1278
 8127SOL    HW128837   8.223   2.132   1.574 -0.0063 -0.7151 -0.8361
 8127SOL    HW228838   8.336   2.098   1.669 -0.5308  0.9283  0.4187
 8128SOL     OW28839   5.475   2.574   1.184  0.2570 -0.1646 -1.2477
 8128SOL    HW128840   5.438   2.598   1.269  1.9548 -0.0817 -0.4938
 8128SOL    HW228841   5.461   2.651   1.130 -0.3126  0.0088 -0.8641
 8129SOL     OW28842   5.891   0.460   3.925 -0.3905 -0.1188  0.4105
 8129SOL    HW128843   5.921   0.439   4.014 -0.6223 -0.5674  0.3875
 8129SOL    HW228844   5.970   0.485   3.878  0.1222 -2.0924  0.1183
 8130SOL     OW28845   0.380   9.500   8.883 -0.6452 -0.3885 -0.2323
 8130SOL    HW128846   0.306   9.447   8.912 -0.3816 -0.3503  0.5407
 8130SOL    HW228847   0.390   9.566   8.951  0.5580 -0.8495  0.0629
 8131SOL     OW28848   9.457   6.094  10.802  0.3581  0.2869 -0.0934
 8131SOL    HW128849   9.365   6.081  10.826  0.5052 -1.5715 -0.3989
 8131SOL    HW228850   9.501   6.114  10.885  0.1386 -1.7496  0.5621
 8132SOL     OW28851   3.548   4.293   8.932  0.1702  0.3023  0.3750
 8132SOL    HW128852   3.499   4.281   9.013 -0.5350 -1.5285 -0.2607
 8132SOL    HW228853   3.617   4.226   8.935  0.0617  0.1240 -0.5570
 8133SOL     OW28854   1.935   4.433  10.013 -0.8130 -0.0678 -0.2994
 8133SOL    HW128855   1.926   4.337  10.015 -1.3409 -0.0120  0.7930
 8133SOL    HW228856   1.888   4.463  10.091 -1.9679  1.2025 -1.4182
 8134SOL     OW28857   0.863   9.261   0.174 -0.0217 -0.2643 -0.6371
 8134SOL    HW128858   0.900   9.339   0.133 -0.9575  0.0584 -0.8977
 8134SOL    HW228859   0.885   9.269   0.266  1.0006 -0.3546 -0.8588
 8135SOL     OW28860   2.766   4.645   3.471  0.1940  0.2788 -0.0566
 8135SOL    HW128861   2.842   4.618   3.419 -0.1594  1.9406 -1.4964
 8135SOL    HW228862   2.780   4.603   3.557  2.9952  0.9337 -0.1097
 8136SOL     OW28863   7.049   8.352   2.971  0.1408  0.0736  0.2335
 8136SOL    HW128864   6.998   8.275   2.994 -0.1905  0.4920  0.9243
 8136SOL    HW228865   7.036   8.413   3.044  0.3880  0.7880 -0.2986
 8137SOL     OW28866   0.511   8.280   4.847 -0.3766 -0.2733  0.3445
 8137SOL    HW128867   0.537   8.213   4.784 -1.5262  0.7736 -1.2956
 8137SOL    HW228868   0.418   8.264   4.862 -0.1005 -0.5734  1.8983
 8138SOL     OW28869   9.128   2.702   0.509 -0.1809 -0.0331 -0.9648
 8138SOL    HW128870   9.140   2.778   0.566 -0.1585 -1.6648  1.3364
 8138SOL    HW228871   9.217   2.679   0.482 -0.0969  0.1944 -0.8923
 8139SOL     OW28872   6.111   8.813   9.004 -0.1348 -0.1670 -0.5686
 8139SOL    HW128873   6.194   8.837   9.044 -0.2707 -0.7940  0.1168
 8139SOL    HW228874   6.129   8.811   8.910 -0.1465  2.6954 -0.7406
 8140SOL     OW28875   5.040   5.580   7.106  0.9819 -0.7291 -0.5925
 8140SOL    HW128876   5.103   5.650   7.119  0.5215 -0.5530  1.0180
 8140SOL    HW228877   4.989   5.578   7.188  0.8482 -2.7853 -0.6522
 8141SOL     OW28878   7.756  10.557   5.087 -0.4040  0.1829  0.0607
 8141SOL    HW128879   7.831  10.572   5.029 -1.4397  0.1587 -1.3465
 8141SOL    HW228880   7.681  10.594   5.039 -1.7412 -2.2301  0.1173
 8142SOL     OW28881   9.476   9.317   9.479 -0.3330 -0.2212 -0.7522
 8142SOL    HW128882   9.455   9.306   9.572 -0.1142 -0.0812 -0.6847
 8142SOL    HW228883   9.481   9.227   9.445 -1.5146 -0.2494 -0.8813
 8143SOL     OW28884   0.421   8.075   5.081 -0.1550 -0.1280 -0.1617
 8143SOL    HW128885   0.508   8.113   5.082  0.5397 -1.6136  1.2347
 8143SOL    HW228886   0.365   8.140   5.124  0.1324  1.0383 -1.4915
 8144SOL     OW28887   6.679   3.369   2.100 -0.0133  0.1095  0.2451
 8144SOL    HW128888   6.675   3.338   2.191 -1.0179 -1.1606 -0.1911
 8144SOL    HW228889   6.770   3.393   2.087  0.6569 -1.8769  0.9247
 8145SOL     OW28890  10.591   5.279   9.712 -0.2086  0.1041  0.2574
 8145SOL    HW128891  10.520   5.235   9.759  0.0753 -0.8859 -0.2110
 8145SOL    HW228892  10.546   5.341   9.654 -0.5252  2.3849  2.7408
 8146SOL     OW28893   2.750   7.893   1.650 -0.4409 -0.0498  1.1063
 8146SOL    HW128894   2.821   7.858   1.704  0.0577 -2.0531 -0.6779
 8146SOL    HW228895   2.672   7.846   1.679 -0.4646 -0.0068  1.1113
 8147SOL     OW28896   9.108   2.478   0.700 -0.3890  0.2551  0.0261
 8147SOL    HW128897   9.074   2.558   0.662  0.9841  0.9300  0.1380
 8147SOL    HW228898   9.193   2.465   0.657  0.0263 -0.3727  0.9894
 8148SOL     OW28899   2.682   6.076  10.678 -0.0082  0.2296  0.3954
 8148SOL    HW128900   2.717   6.005  10.732  1.4633 -1.5316 -2.6340
 8148SOL    HW228901   2.747   6.145  10.686  1.4797 -0.9497 -0.9261
 8149SOL     OW28902   7.556   4.593   5.277  0.5989  0.1502  0.4890
 8149SOL    HW128903   7.535   4.637   5.359 -0.1572  0.3080  0.2219
 8149SOL    HW228904   7.604   4.658   5.226 -1.6645  1.2080 -0.4448
 8150SOL     OW28905   1.489   3.992   6.637  0.0481  0.4088 -0.0418
 8150SOL    HW128906   1.465   4.000   6.544 -0.3369  3.0450  0.1952
 8150SOL    HW228907   1.425   3.930   6.673  0.4698 -0.9922 -1.5781
 8151SOL     OW28908   1.433  10.898   8.234 -0.0700  0.0645 -0.2360
 8151SOL    HW128909   1.408  10.807   8.251 -0.5090 -0.3333 -2.6741
 8151SOL    HW228910   1.498  10.917   8.301  0.3082 -2.1706  0.1223
 8152SOL     OW28911   3.599  10.733   5.701  0.0043  0.2259 -0.8853
 8152SOL    HW128912   3.509  10.702   5.709  0.5273 -2.1375 -2.9617
 8152SOL    HW228913   3.612  10.746   5.607  1.2895  2.4396 -0.4742
 8153SOL     OW28914   1.812   1.134  10.513  0.4616  0.5042  0.0843
 8153SOL    HW128915   1.778   1.045  10.524 -1.2166  1.2051  0.9339
 8153SOL    HW228916   1.813   1.171  10.601  0.7834  1.4523 -0.2962
 8154SOL     OW28917   8.868   1.851   7.190  0.2166 -0.2585  0.0834
 8154SOL    HW128918   8.895   1.942   7.203 -0.9703  0.3198 -1.2172
 8154SOL    HW228919   8.948   1.801   7.200  0.9702  0.9614  0.4335
 8155SOL     OW28920   6.661   9.811   1.401 -0.0800  0.1674 -0.1421
 8155SOL    HW128921   6.636   9.857   1.482  0.7512  0.3546  0.0132
 8155SOL    HW228922   6.735   9.757   1.426 -0.5032 -0.6091 -0.5358
 8156SOL     OW28923   4.015   4.259   9.045  0.0009  0.1366  0.0333
 8156SOL    HW128924   4.002   4.339   8.993  0.0288 -0.7266 -1.3503
 8156SOL    HW228925   4.088   4.280   9.103  0.3862  0.9423 -0.7089
 8157SOL     OW28926  10.516  10.481   4.790  0.6380  0.3295 -0.6263
 8157SOL    HW128927  10.434  10.438   4.766 -0.0218  0.0956  1.7520
 8157SOL    HW228928  10.533  10.543   4.720 -1.4585  0.2190 -1.2932
 8158SOL     OW28929   5.687   9.565   4.336 -0.1978  0.0946  0.1361
 8158SOL    HW128930   5.677   9.489   4.278 -0.2245  1.4031 -1.6627
 8158SOL    HW228931   5.745   9.535   4.406 -1.3812 -2.0039  0.3125
 8159SOL     OW28932   7.364  10.069   4.346  0.2247 -0.3637 -0.0293
 8159SOL    HW128933   7.436  10.017   4.381  0.2332 -0.7607 -0.6303
 8159SOL    HW228934   7.397  10.158   4.345  0.2158 -0.3335  1.0038
 8160SOL     OW28935   5.361   8.520   6.696 -0.0190 -0.5909 -0.1155
 8160SOL    HW128936   5.390   8.479   6.777 -1.2540 -0.1293  0.5879
 8160SOL    HW228937   5.282   8.472   6.671 -0.8112  0.5536  0.0822
 8161SOL     OW28938   9.755   8.797   5.529 -0.0264 -0.4980 -0.2585
 8161SOL    HW128939   9.786   8.764   5.614  0.9543 -0.1699 -0.4751
 8161SOL    HW228940   9.770   8.725   5.469  0.2458 -0.3683 -0.3473
 8162SOL     OW28941   7.873   5.549   6.177 -0.0971  0.2934 -0.1510
 8162SOL    HW128942   7.856   5.459   6.203 -1.4903  0.6426  0.2233
 8162SOL    HW228943   7.789   5.594   6.187  0.4004  1.4800 -0.9892
 8163SOL     OW28944   6.573   1.638   9.539  0.4310  0.0136  0.7235
 8163SOL    HW128945   6.571   1.698   9.614  0.6981  3.6186 -1.8875
 8163SOL    HW228946   6.664   1.641   9.509  0.4269 -1.7332  0.4506
 8164SOL     OW28947   9.197   3.353   9.047 -0.1249 -0.3097 -0.3955
 8164SOL    HW128948   9.202   3.440   9.006 -2.6222 -0.0960 -0.4286
 8164SOL    HW228949   9.140   3.366   9.123 -0.4954 -1.9059 -0.3688
 8165SOL     OW28950  10.638   1.875   4.269 -0.4415 -0.3999  0.1910
 8165SOL    HW128951  10.693   1.915   4.201 -0.4564 -0.1529  0.3256
 8165SOL    HW228952  10.652   1.781   4.258 -0.4303 -0.3607 -0.1443
 8166SOL     OW28953   0.507   8.088   2.419 -0.3960  0.0828 -0.5300
 8166SOL    HW128954   0.483   8.048   2.335 -0.0487  0.8299 -1.0001
 8166SOL    HW228955   0.474   8.177   2.413  0.2768  0.3642 -0.1792
 8167SOL     OW28956   1.432   6.162   3.680 -0.1595 -0.2315  0.3272
 8167SOL    HW128957   1.475   6.235   3.636  1.8378 -1.2335  0.5016
 8167SOL    HW228958   1.502   6.119   3.729 -1.6392 -1.1914  1.7102
 8168SOL     OW28959   7.740   9.279   2.439 -0.9672 -0.3620  0.3796
 8168SOL    HW128960   7.721   9.271   2.345  0.7248 -0.7781  0.0205
 8168SOL    HW228961   7.676   9.222   2.481 -1.1431 -0.9361 -0.6178
 8169SOL     OW28962   5.343   3.885  10.149 -0.3602  0.2935 -0.0464
 8169SOL    HW128963   5.316   3.941  10.076  0.5579 -0.6890 -1.1984
 8169SOL    HW228964   5.381   3.808  10.106 -0.1113 -0.4695  1.4903
 8170SOL     OW28965   6.486   0.859   6.503 -0.6895 -0.2290  0.2171
 8170SOL    HW128966   6.539   0.859   6.423 -1.7662 -2.1545 -0.5844
 8170SOL    HW228967   6.529   0.797   6.561 -1.2011 -0.6496  0.1606
 8171SOL     OW28968   9.238   7.702   8.945  0.2589  0.1163 -0.4272
 8171SOL    HW128969   9.209   7.632   9.004 -1.0377  1.0940  0.1490
 8171SOL    HW228970   9.184   7.777   8.969  0.2384  0.7678 -2.3740
 8172SOL     OW28971   5.293   3.604   9.804 -0.1076  0.2108 -0.1077
 8172SOL    HW128972   5.288   3.680   9.747 -1.6248 -0.1876 -0.5370
 8172SOL    HW228973   5.267   3.530   9.749 -0.3717 -0.3584  0.7593
 8173SOL     OW28974   5.295   0.968   5.993 -0.0499 -0.1211 -0.0846
 8173SOL    HW128975   5.365   0.923   5.946 -0.6456 -1.2741  0.0847
 8173SOL    HW228976   5.261   0.902   6.054 -1.4302  0.3282 -0.3187
 8174SOL     OW28977   3.700   8.307   7.184 -0.0348 -0.2977 -0.5218
 8174SOL    HW128978   3.757   8.328   7.258  0.3951  0.3182 -1.0182
 8174SOL    HW228979   3.757   8.263   7.121 -0.6986 -2.0765  0.0630
 8175SOL     OW28980   4.824  10.199   3.038 -0.1392  0.4085  0.4212
 8175SOL    HW128981   4.827  10.191   2.943 -1.3976 -1.3976  0.4870
 8175SOL    HW228982   4.747  10.253   3.056 -0.7716 -0.4813  0.4388
 8176SOL     OW28983   6.463   1.917   6.341  0.2887  0.0082  0.7193
 8176SOL    HW128984   6.421   1.903   6.426 -2.4055 -0.2209 -0.5420
 8176SOL    HW228985   6.443   2.007   6.318 -0.6626 -0.4631 -0.4463
 8177SOL     OW28986   7.507   8.460   9.831  0.8304  0.7562  0.3693
 8177SOL    HW128987   7.513   8.377   9.784  1.6105  0.9622  0.0813
 8177SOL    HW228988   7.446   8.512   9.779  1.5555  0.9201 -0.3520
 8178SOL     OW28989   0.790   1.131   2.709 -0.0042 -0.3306  0.4888
 8178SOL    HW128990   0.885   1.119   2.712 -0.0613 -0.7117  1.0875
 8178SOL    HW228991   0.760   1.069   2.642 -0.0503 -1.9187  1.9148
 8179SOL     OW28992   8.951   3.337  10.675  0.6900  0.2167 -0.0759
 8179SOL    HW128993   9.038   3.341  10.636  1.2046 -0.3458  0.9701
 8179SOL    HW228994   8.941   3.247  10.704 -0.7484 -0.0482 -1.2544
 8180SOL     OW28995   6.698   4.327   9.596 -0.2778  0.0256  0.0443
 8180SOL    HW128996   6.710   4.374   9.678  1.3462 -0.1958 -0.0344
 8180SOL    HW228997   6.685   4.236   9.622 -0.5847  0.0769  0.0780
 8181SOL     OW28998   4.402   9.658   7.713 -0.0203  0.1008  0.5590
 8181SOL    HW128999   4.383   9.591   7.648  0.9279 -1.2473  1.5976
 8181SOL    HW229000   4.486   9.695   7.685 -0.6337  1.0091 -0.1162
 8182SOL     OW29001   5.830   1.779   6.024 -0.8591  0.5851 -0.3536
 8182SOL    HW129002   5.841   1.865   6.065 -0.2212  0.3894 -0.1108
 8182SOL    HW229003   5.771   1.732   6.084  0.6638  0.0359  0.7735
 8183SOL     OW29004   9.116   1.494   9.423  0.3066 -0.0921 -0.2488
 8183SOL    HW129005   9.043   1.529   9.372 -0.9259  1.8476  2.5613
 8183SOL    HW229006   9.176   1.568   9.433  1.4439 -0.9626 -0.4403
 8184SOL     OW29007  10.733   7.515  10.636  0.4947 -0.1635 -0.3791
 8184SOL    HW129008  10.678   7.471  10.571 -0.1222 -0.2632  0.1975
 8184SOL    HW229009  10.780   7.581  10.586 -1.8604  1.5201 -0.5699
 8185SOL     OW29010   4.336   0.812   2.744 -0.2308  0.2677 -0.6251
 8185SOL    HW129011   4.390   0.775   2.814  0.6366 -0.0031 -1.4235
 8185SOL    HW229012   4.303   0.895   2.780 -0.8970 -0.4868  0.5888
 8186SOL     OW29013   0.720   2.626   7.161 -0.2217 -0.3001 -0.0933
 8186SOL    HW129014   0.767   2.634   7.245  0.2607  0.3385 -0.4142
 8186SOL    HW229015   0.636   2.587   7.185 -0.0338 -0.2674  0.6730
 8187SOL     OW29016   2.555   7.409   1.820 -0.3347  0.2278  0.0360
 8187SOL    HW129017   2.517   7.402   1.733  0.7107 -0.1875 -0.4029
 8187SOL    HW229018   2.490   7.458   1.871 -1.0543  0.2783 -0.9056
 8188SOL     OW29019   8.225   7.594   1.504 -0.2327  0.4900 -0.3482
 8188SOL    HW129020   8.307   7.583   1.551  0.1902  1.8165 -0.7307
 8188SOL    HW229021   8.179   7.511   1.515  1.2159 -0.3245 -0.2546
 8189SOL     OW29022   8.170   0.804   0.298 -0.6316  0.1329  0.0608
 8189SOL    HW129023   8.137   0.722   0.261  0.6088 -0.3500 -0.0077
 8189SOL    HW229024   8.160   0.792   0.393 -3.6599  1.3087  0.0137
 8190SOL     OW29025   6.926   4.709   5.360  0.3487  0.4476  0.1061
 8190SOL    HW129026   7.003   4.765   5.357 -0.5798  1.8641  1.2319
 8190SOL    HW229027   6.880   4.734   5.440 -2.8638  1.8870 -1.9580
 8191SOL     OW29028   4.784   2.786   5.941  0.0420 -0.0198 -0.3519
 8191SOL    HW129029   4.810   2.824   6.025  0.7536  0.6180 -0.8386
 8191SOL    HW229030   4.728   2.852   5.901  0.2249 -0.0392 -0.6462
 8192SOL     OW29031   3.988   9.787   2.112  0.0703 -0.0497 -0.4260
 8192SOL    HW129032   3.900   9.756   2.135 -0.2458  0.7535 -0.5336
 8192SOL    HW229033   4.047   9.728   2.159 -0.5381  0.3305  0.8721
 8193SOL     OW29034   0.170   7.039   4.956  0.3303  0.1714  0.0289
 8193SOL    HW129035   0.214   6.975   4.900  0.3236  1.0471 -1.0135
 8193SOL    HW229036   0.194   7.124   4.919 -0.1559  0.7577  1.0097
 8194SOL     OW29037  10.834   1.719   7.388  0.1795  0.1143  0.5622
 8194SOL    HW129038  10.898   1.790   7.389  0.9875 -0.6010  1.5931
 8194SOL    HW229039  10.764   1.749   7.446  0.8520 -0.2109  1.5620
 8195SOL     OW29040   0.990   0.972   6.144  0.5158 -0.1868  0.1416
 8195SOL    HW129041   1.045   1.010   6.076 -0.1377 -0.4588 -0.5584
 8195SOL    HW229042   1.009   1.023   6.223  0.9839  0.3939 -0.3453
 8196SOL     OW29043   7.868   4.693   6.772  0.2472 -0.6257 -0.1499
 8196SOL    HW129044   7.847   4.600   6.768  1.7667 -0.9828 -0.5633
 8196SOL    HW229045   7.868   4.722   6.681  2.3604 -0.8946 -0.3053
 8197SOL     OW29046   8.938   8.690   9.958 -0.5695  0.3082  0.2034
 8197SOL    HW129047   8.966   8.621   9.898 -1.5259  1.5378 -1.7917
 8197SOL    HW229048   8.874   8.648  10.015  0.0783 -0.8224  0.1346
 8198SOL     OW29049   1.442   7.964   5.015  0.4386  0.1432  0.0876
 8198SOL    HW129050   1.395   7.941   4.935  1.3044 -0.6509 -0.2239
 8198SOL    HW229051   1.384   8.024   5.061  0.4813  1.7090 -1.7755
 8199SOL     OW29052   7.314   9.886   9.487 -0.1884  0.0154  0.2443
 8199SOL    HW129053   7.336   9.886   9.580  1.5314 -2.7621 -0.0311
 8199SOL    HW229054   7.371   9.952   9.449  0.6105 -0.2799  0.8991
 8200SOL     OW29055   8.232   8.852   6.289  0.9578  0.1438 -0.2801
 8200SOL    HW129056   8.146   8.864   6.249  1.9052  0.1705 -2.4687
 8200SOL    HW229057   8.233   8.913   6.363 -1.7175 -1.5724  1.3226
 8201SOL     OW29058   4.439   1.220   9.785  0.1138 -0.1329  0.0948
 8201SOL    HW129059   4.518   1.275   9.784 -0.1046  0.2189 -1.6139
 8201SOL    HW229060   4.413   1.216   9.877  2.7339 -1.1744  0.8736
 8202SOL     OW29061   7.745   9.683   2.191 -0.0937  0.3670  0.1211
 8202SOL    HW129062   7.754   9.628   2.114 -0.7063  0.9457 -0.3701
 8202SOL    HW229063   7.658   9.664   2.225 -0.4312  1.2383 -0.2241
 8203SOL     OW29064   2.887   3.497   4.365  0.2812 -0.1894  0.0014
 8203SOL    HW129065   2.825   3.514   4.437 -1.5653  0.4537 -1.6533
 8203SOL    HW229066   2.834   3.456   4.297  2.2638 -2.0237 -0.5430
 8204SOL     OW29067   9.090   6.937   5.662  0.4579 -0.1186 -0.6939
 8204SOL    HW129068   9.006   6.954   5.705  0.6176 -0.5134 -0.2145
 8204SOL    HW229069   9.068   6.922   5.570 -0.0548 -0.6663 -0.4889
 8205SOL     OW29070   4.978   2.236   1.501 -0.2059 -0.1424  0.1346
 8205SOL    HW129071   4.904   2.268   1.449  1.0798  1.4477 -0.8107
 8205SOL    HW229072   5.039   2.201   1.437  0.1090 -0.9368  0.8571
 8206SOL     OW29073   8.430   2.054   4.028  0.2020 -0.0592  0.6453
 8206SOL    HW129074   8.516   2.059   3.987  0.4395 -2.7045  0.6980
 8206SOL    HW229075   8.376   2.114   3.976  1.1842 -1.1345 -1.7854
 8207SOL     OW29076   0.534   5.639   5.853 -0.6479  0.1672  0.6699
 8207SOL    HW129077   0.612   5.589   5.877 -0.3444  1.0709  1.6364
 8207SOL    HW229078   0.470   5.572   5.828  0.3462 -0.5959  0.0984
 8208SOL     OW29079   6.995   1.980  10.616  0.4284 -0.3863  0.6700
 8208SOL    HW129080   6.979   2.069  10.584 -2.2586 -0.5605  1.2612
 8208SOL    HW229081   7.089   1.968  10.608  0.7195  2.0792 -0.5336
 8209SOL     OW29082   5.665   0.683   3.161 -0.2878 -0.2036 -0.1433
 8209SOL    HW129083   5.743   0.735   3.140  0.1995 -1.0909 -0.5989
 8209SOL    HW229084   5.691   0.592   3.142 -0.7323 -0.7605  1.7002
 8210SOL     OW29085   1.108   0.543   7.795 -0.1019  0.5303 -0.1127
 8210SOL    HW129086   1.153   0.508   7.718 -0.1748 -0.7441  0.3958
 8210SOL    HW229087   1.128   0.480   7.864 -3.2773 -0.5561 -0.0183
 8211SOL     OW29088   3.439   3.818   5.800  0.5339 -0.4509  0.0151
 8211SOL    HW129089   3.376   3.865   5.745  0.7958  1.1418  1.0102
 8211SOL    HW229090   3.385   3.768   5.861  0.2071  0.3564  0.4094
 8212SOL     OW29091  10.752   8.771   8.311  0.2186 -0.1746 -0.5103
 8212SOL    HW129092  10.731   8.849   8.260 -0.8727 -0.0760  0.0643
 8212SOL    HW229093  10.688   8.706   8.282 -0.5643 -0.0474  0.8673
 8213SOL     OW29094   3.025   9.424   3.591  0.5232  0.3909  0.2509
 8213SOL    HW129095   3.075   9.503   3.569 -0.4801  1.1050  0.4857
 8213SOL    HW229096   3.071   9.387   3.667  0.5795  1.1470  0.5881
 8214SOL     OW29097   1.198   5.763   2.553 -0.3155 -0.2529 -0.5226
 8214SOL    HW129098   1.193   5.701   2.626 -1.8901  0.4330 -0.0079
 8214SOL    HW229099   1.272   5.820   2.573 -0.5525 -0.2612  0.3896
 8215SOL     OW29100   1.774   7.145   8.936  0.4556  0.2642 -0.6322
 8215SOL    HW129101   1.691   7.192   8.933  0.2140 -0.1514 -0.6123
 8215SOL    HW229102   1.821   7.173   8.858 -0.0332 -0.0940 -1.0602
 8216SOL     OW29103   7.545   2.205  10.092  0.2828 -0.1536 -0.5859
 8216SOL    HW129104   7.624   2.257  10.080  0.0938 -0.1686 -2.0972
 8216SOL    HW229105   7.499   2.212  10.008 -2.0571  1.0656  0.6866
 8217SOL     OW29106   4.020   6.166   4.940 -0.1225 -0.3161  0.4226
 8217SOL    HW129107   4.038   6.095   5.002  0.8124 -0.2233  0.2717
 8217SOL    HW229108   4.069   6.241   4.975  0.6698 -0.3520 -0.5859
 8218SOL     OW29109   4.160   3.271   0.808  0.0242  0.2969  0.5508
 8218SOL    HW129110   4.157   3.356   0.852  0.8787  1.0911 -0.8588
 8218SOL    HW229111   4.101   3.280   0.734 -1.0983 -0.9034  1.2460
 8219SOL     OW29112   7.581   5.788   3.020 -0.3989  0.1835  0.7917
 8219SOL    HW129113   7.640   5.849   3.064 -0.8260 -0.0952  1.7884
 8219SOL    HW229114   7.538   5.740   3.091 -0.2226 -1.1481  0.0516
 8220SOL     OW29115  10.219   6.416  10.075 -0.4171  0.3643 -0.3865
 8220SOL    HW129116  10.227   6.360   9.998 -2.2307 -1.8054  0.8932
 8220SOL    HW229117  10.280   6.377  10.139  0.0837  1.3388 -0.2502
 8221SOL     OW29118   5.880   4.814   6.816  0.2083  0.1934  0.2971
 8221SOL    HW129119   5.857   4.721   6.824 -0.4540  0.4429  1.6593
 8221SOL    HW229120   5.805   4.860   6.855 -0.6275  1.4517 -2.4938
 8222SOL     OW29121   0.103   7.770   2.419 -0.1078  0.5093 -0.7376
 8222SOL    HW129122   0.195   7.746   2.426  0.2872  1.2203 -2.8350
 8222SOL    HW229123   0.057   7.687   2.410  0.4782  0.2089 -1.0120
 8223SOL     OW29124   4.322   8.768   4.664 -0.0593  0.5600 -0.4415
 8223SOL    HW129125   4.381   8.692   4.671 -0.1819  0.5864  1.3933
 8223SOL    HW229126   4.237   8.734   4.690 -0.2425  1.1803 -0.2141
 8224SOL     OW29127  11.015   2.835   1.049 -0.3825 -0.1845  0.0833
 8224SOL    HW129128  11.001   2.768   0.982 -0.2064 -0.6461  0.5018
 8224SOL    HW229129  11.023   2.916   1.000 -0.3916 -0.4976 -0.4472
 8225SOL     OW29130   6.938   1.474   4.056 -0.2991  0.3546 -0.3486
 8225SOL    HW129131   6.876   1.404   4.073 -0.1344  0.5327  1.1746
 8225SOL    HW229132   7.014   1.431   4.017 -0.7569 -0.0904 -0.7555
 8226SOL     OW29133  10.366   8.860   2.190 -0.0351 -0.3342 -0.5568
 8226SOL    HW129134  10.273   8.837   2.184  0.1259 -1.6340  1.2235
 8226SOL    HW229135  10.369   8.932   2.253  0.3734 -2.3279  1.8512
 8227SOL     OW29136   7.706   5.738   2.082  0.3002 -0.0016 -0.2545
 8227SOL    HW129137   7.790   5.697   2.099  0.5866  0.1431 -1.2485
 8227SOL    HW229138   7.707   5.758   1.988 -0.8064  0.0667 -0.2726
 8228SOL     OW29139   2.364   3.755   3.132 -0.0539 -0.0530  0.6334
 8228SOL    HW129140   2.307   3.793   3.198  1.5282  0.8258  1.5699
 8228SOL    HW229141   2.449   3.797   3.146  0.6815 -0.8127 -1.1129
 8229SOL     OW29142   0.996   8.153   4.957  0.3353 -0.1178  0.0301
 8229SOL    HW129143   0.944   8.152   4.877 -0.7478 -2.1866  0.6867
 8229SOL    HW229144   1.024   8.244   4.966 -1.1453  0.5718 -1.6510
 8230SOL     OW29145   3.313   6.582   6.035 -0.0464  0.2065 -0.2246
 8230SOL    HW129146   3.228   6.538   6.034 -1.4500  2.6900  0.1367
 8230SOL    HW229147   3.342   6.576   6.126  0.8662 -1.7789 -0.6030
 8231SOL     OW29148   4.183   7.794  10.801 -0.0641 -0.1004 -0.4648
 8231SOL    HW129149   4.173   7.700  10.809 -1.4164 -0.1138 -1.8335
 8231SOL    HW229150   4.164   7.812  10.708  1.6603  1.3401 -0.6001
 8232SOL     OW29151   4.551   5.455   8.522 -0.2036  0.0960  0.2860
 8232SOL    HW129152   4.557   5.507   8.443 -1.7138  0.8701  0.6450
 8232SOL    HW229153   4.459   5.460   8.547  0.2445 -0.0843  2.1130
 8233SOL     OW29154   2.196   1.283   2.718 -0.1017  0.4109 -0.1719
 8233SOL    HW129155   2.127   1.245   2.772 -1.1457 -0.2089 -1.8810
 8233SOL    HW229156   2.277   1.253   2.759 -0.7622  1.6564  2.2311
 8234SOL     OW29157   3.225   9.623   7.188  0.2024 -0.0279 -0.1225
 8234SOL    HW129158   3.230   9.700   7.244 -0.7186 -0.4896  0.6251
 8234SOL    HW229159   3.263   9.651   7.105  1.0709  0.8407  0.5451
 8235SOL     OW29160   5.899   1.964   6.257  0.1656 -0.1976 -0.4142
 8235SOL    HW129161   5.991   1.981   6.236 -0.2786  0.8321 -1.6746
 8235SOL    HW229162   5.900   1.932   6.348  1.8870 -1.6874 -0.9040
 8236SOL     OW29163   7.835   5.344   9.786  0.4375 -0.2563  0.5294
 8236SOL    HW129164   7.864   5.254   9.774 -0.6476 -0.3962 -1.4356
 8236SOL    HW229165   7.868   5.390   9.709 -0.9895  0.4903  0.3388
 8237SOL     OW29166   6.525   2.429   9.528 -0.4340  0.0752  0.4917
 8237SOL    HW129167   6.546   2.393   9.614 -0.5903 -0.4799  0.3055
 8237SOL    HW229168   6.431   2.410   9.517  0.1289 -2.2715 -0.8982
 8238SOL     OW29169   6.678   3.526   5.367  0.5441 -0.5141  0.5817
 8238SOL    HW129170   6.604   3.470   5.392  0.4400 -0.3739  0.5889
 8238SOL    HW229171   6.691   3.508   5.274 -0.1578  0.2082  0.3265
 8239SOL     OW29172   9.802  10.623   9.686  0.2548  0.3755  0.0306
 8239SOL    HW129173   9.860  10.553   9.656  0.8115  0.1823  1.4829
 8239SOL    HW229174   9.724  10.614   9.632  0.2904 -1.4156  0.2351
 8240SOL     OW29175   8.001   4.286   4.046 -0.3075  0.5173  0.1064
 8240SOL    HW129176   8.087   4.252   4.070 -0.8462 -2.4032 -1.5861
 8240SOL    HW229177   8.020   4.367   3.999  1.6375 -0.3903 -0.8283
 8241SOL     OW29178   7.335   4.003   8.666 -0.1559 -0.1274  0.1873
 8241SOL    HW129179   7.240   4.010   8.650 -0.6237 -2.2725  1.6396
 8241SOL    HW229180   7.342   3.975   8.756  1.9910  1.3370  0.5563
 8242SOL     OW29181   7.334   4.791   6.009 -0.0125 -0.0452 -0.2822
 8242SOL    HW129182   7.397   4.720   5.994  1.6648  0.7608  2.2891
 8242SOL    HW229183   7.335   4.841   5.927  2.7682 -0.0737 -0.3599
 8243SOL     OW29184   3.015   5.721   3.707 -0.1962  0.2006  0.4287
 8243SOL    HW129185   2.952   5.650   3.721 -0.3437  0.5239  1.4643
 8243SOL    HW229186   2.963   5.801   3.716  0.0100  0.4570 -0.5260
 8244SOL     OW29187   6.045   0.010  10.804  0.9128 -0.1000 -0.4366
 8244SOL    HW129188   6.067  -0.041  10.882  1.7680 -0.2948 -0.7930
 8244SOL    HW229189   5.983  -0.046  10.757 -1.4851  1.0025  1.2003
 8245SOL     OW29190  10.193   3.918   9.302 -0.3679  0.0719  0.0592
 8245SOL    HW129191  10.224   3.950   9.387 -1.5897  2.0579 -0.1758
 8245SOL    HW229192  10.210   3.990   9.241 -1.2408 -0.5786 -0.9975
 8246SOL     OW29193   7.875   5.846   8.112  0.0635 -0.1908 -0.4872
 8246SOL    HW129194   7.812   5.912   8.086  1.6552  1.6824  0.1595
 8246SOL    HW229195   7.834   5.803   8.188 -0.1682  1.5059  0.4073
 8247SOL     OW29196  10.980   3.158   2.981  0.0374 -0.0177 -0.0422
 8247SOL    HW129197  11.010   3.074   2.947  2.9435  0.6699  0.6229
 8247SOL    HW229198  11.008   3.222   2.917 -1.9147  0.5492 -0.4045
 8248SOL     OW29199   0.525   4.580   5.549  0.2495  0.2124 -0.3485
 8248SOL    HW129200   0.437   4.553   5.574  0.5747  0.6018  1.2871
 8248SOL    HW229201   0.523   4.581   5.453 -1.3567 -0.2920 -0.3468
 8249SOL     OW29202   5.355   0.422  10.747  0.0261 -0.2694 -0.3781
 8249SOL    HW129203   5.283   0.416  10.684 -1.0590 -1.3389  0.8886
 8249SOL    HW229204   5.334   0.498  10.801 -0.4864 -0.9072  0.3458
 8250SOL     OW29205   8.147  10.679   8.678 -0.0092 -0.1505 -0.3251
 8250SOL    HW129206   8.227  10.705   8.722  0.4756 -1.2147 -0.5450
 8250SOL    HW229207   8.170  10.676   8.585 -0.0053 -1.4797 -0.2921
 8251SOL     OW29208   3.396   7.516   6.024  1.0113 -0.1725  0.2048
 8251SOL    HW129209   3.339   7.452   6.066  1.4644  0.3848  1.7530
 8251SOL    HW229210   3.408   7.483   5.935 -0.1341 -1.3201  0.4436
 8252SOL     OW29211   3.952   5.600   4.743 -0.7667  0.1251  0.3812
 8252SOL    HW129212   3.998   5.519   4.765 -1.5202  0.1550  2.3253
 8252SOL    HW229213   3.877   5.571   4.690 -0.5273 -0.3364  0.2905
 8253SOL     OW29214   3.845   5.368   1.709  0.0718 -0.3297  0.5203
 8253SOL    HW129215   3.816   5.460   1.706 -1.7455 -0.8520  0.9805
 8253SOL    HW229216   3.914   5.367   1.775 -0.8121  0.4832  1.4921
 8254SOL     OW29217   6.891   1.523   4.857 -0.3317  0.6215 -0.0118
 8254SOL    HW129218   6.874   1.612   4.887 -0.7462  1.2714 -2.0109
 8254SOL    HW229219   6.811   1.474   4.879 -0.4923  0.9833  0.2055
 8255SOL     OW29220   2.479   8.399   6.993 -0.0831 -0.7044 -0.0226
 8255SOL    HW129221   2.447   8.399   7.084  0.6596 -1.9997  0.2551
 8255SOL    HW229222   2.469   8.309   6.964  1.3280 -0.6836 -0.6450
 8256SOL     OW29223   6.807   0.946   7.518  0.3047  0.1350  0.2453
 8256SOL    HW129224   6.872   0.973   7.584  1.7431 -1.5437 -0.4043
 8256SOL    HW229225   6.859   0.927   7.440 -1.4616  3.2161 -1.8869
 8257SOL     OW29226  10.911   2.852   8.098  0.2855 -0.2280  0.6883
 8257SOL    HW129227  10.913   2.758   8.118  0.8007 -0.0806  1.3318
 8257SOL    HW229228  10.836   2.862   8.039  0.7630 -1.1909 -0.1145
 8258SOL     OW29229   0.988   6.657   7.488  0.2415  0.0956 -0.2866
 8258SOL    HW129230   0.936   6.664   7.569 -1.8365  0.7620 -1.5866
 8258SOL    HW229231   0.974   6.741   7.444  1.2903 -0.2780 -1.3680
 8259SOL     OW29232   1.230  10.529   4.418  0.1362 -0.2867  0.3328
 8259SOL    HW129233   1.303  10.485   4.462  0.7888  1.5745  1.1896
 8259SOL    HW229234   1.213  10.475   4.340  1.4620 -1.5503  0.8860
 8260SOL     OW29235   6.997   2.199  10.444 -0.1152  0.4081 -0.0144
 8260SOL    HW129236   7.052   2.128  10.412  0.3030  0.5330  0.4172
 8260SOL    HW229237   6.976   2.250  10.367  0.6712  0.5621 -0.1357
 8261SOL     OW29238   1.350   9.943   6.722 -0.2782 -0.0745 -0.3777
 8261SOL    HW129239   1.426   9.980   6.768  0.4433 -2.4445  0.4977
 8261SOL    HW229240   1.275   9.990   6.757  0.0916 -2.3712  4.2407
 8262SOL     OW29241   9.722   8.227   6.630 -0.3954 -0.8290  0.0630
 8262SOL    HW129242   9.791   8.249   6.692 -1.2172 -1.8114  1.3913
 8262SOL    HW229243   9.663   8.303   6.632  0.1980 -0.3520 -0.4300
 8263SOL     OW29244  10.295   9.801   4.127 -0.3521  0.1566 -0.5365
 8263SOL    HW129245  10.219   9.791   4.184  0.5182  1.1785  0.8926
 8263SOL    HW229246  10.281   9.883   4.081 -0.7097 -0.3032 -1.2631
 8264SOL     OW29247  10.197   2.714   0.630  0.5101  0.5872 -0.0515
 8264SOL    HW129248  10.152   2.745   0.551  0.3062 -1.7207 -0.9055
 8264SOL    HW229249  10.277   2.674   0.598  1.1646  0.9710  1.0830
 8265SOL     OW29250   0.133   4.234   5.214  0.5234  0.3081 -0.1379
 8265SOL    HW129251   0.136   4.270   5.126  0.8234 -2.2001 -1.2516
 8265SOL    HW229252   0.223   4.242   5.247  0.3829  1.3649  0.0166
 8266SOL     OW29253   3.686   0.989  10.045  0.2967 -0.2466 -0.3624
 8266SOL    HW129254   3.668   1.083  10.045 -0.5874 -0.4062  0.0914
 8266SOL    HW229255   3.643   0.956  10.124 -0.9624 -1.3173 -1.4364
 8267SOL     OW29256   0.245   3.001   4.773 -0.1889 -0.0867  0.1626
 8267SOL    HW129257   0.165   2.977   4.821  0.2716  2.1061  2.2155
 8267SOL    HW229258   0.316   2.969   4.828  0.3585  0.3551 -0.2845
 8268SOL     OW29259   6.403   8.831   6.547 -0.3587 -0.0082  0.1605
 8268SOL    HW129260   6.344   8.761   6.518  0.6865 -0.8085 -0.0912
 8268SOL    HW229261   6.363   8.864   6.628  0.0289 -2.1011  1.2661
 8269SOL     OW29262   4.921   7.957   3.618 -0.5567  0.2547 -0.2731
 8269SOL    HW129263   4.995   7.983   3.673 -1.7685  3.1794  0.1798
 8269SOL    HW229264   4.875   7.891   3.669  1.2502 -1.0810 -0.2463
 8270SOL     OW29265   2.792  10.858   2.165  0.4558 -0.3960 -0.0048
 8270SOL    HW129266   2.851  10.908   2.221 -0.6263  1.8747 -0.7595
 8270SOL    HW229267   2.726  10.922   2.137 -0.5904 -2.1023 -1.6639
 8271SOL     OW29268   9.175   6.193   1.063  0.3944  0.0784 -0.0074
 8271SOL    HW129269   9.190   6.259   0.996 -2.1318  1.2717  0.4812
 8271SOL    HW229270   9.244   6.209   1.128  3.0407 -1.2597 -2.2777
 8272SOL     OW29271   4.725   1.103   8.570 -0.5401 -0.3345 -0.2468
 8272SOL    HW129272   4.683   1.035   8.622 -2.3101  0.7803 -0.1227
 8272SOL    HW229273   4.792   1.140   8.629 -1.1042 -0.4760  0.5057
 8273SOL     OW29274   3.556   5.772   8.449 -0.2559 -0.4238 -0.1468
 8273SOL    HW129275   3.636   5.803   8.491 -1.2722 -0.0933  1.6337
 8273SOL    HW229276   3.586   5.705   8.388  1.2279 -1.6890  1.8516
 8274SOL     OW29277   6.044   5.451   7.411  0.0328  0.2056  0.1519
 8274SOL    HW129278   5.993   5.380   7.371  1.2700  0.4089 -1.8749
 8274SOL    HW229279   5.978   5.505   7.455 -1.0575 -1.5801  0.8225
 8275SOL     OW29280   8.394   4.213   8.382  0.5847  0.4763  0.2434
 8275SOL    HW129281   8.348   4.132   8.360  0.1859  1.1202 -1.4507
 8275SOL    HW229282   8.361   4.236   8.469 -0.3171 -0.4733  0.1760
 8276SOL     OW29283   8.699   5.480   4.513  0.1501  0.0546  1.0645
 8276SOL    HW129284   8.612   5.477   4.553 -0.1600  1.0361  0.4836
 8276SOL    HW229285   8.694   5.549   4.447  0.8771 -0.9854 -0.1466
 8277SOL     OW29286  10.653   5.041  11.043 -0.5608 -0.0295  0.6567
 8277SOL    HW129287  10.708   4.964  11.058  0.9125  0.9665  0.5848
 8277SOL    HW229288  10.613   5.026  10.957  1.4461  0.2560 -0.3821
 8278SOL     OW29289  10.820   0.289   8.492  0.0739  0.1132  0.3824
 8278SOL    HW129290  10.814   0.227   8.564 -0.3629  0.0016  0.2499
 8278SOL    HW229291  10.739   0.340   8.496  1.1963  1.9062  1.5954
 8279SOL     OW29292   4.178   4.885   8.036 -0.0931 -0.9239 -0.0191
 8279SOL    HW129293   4.123   4.814   8.004 -0.3709 -0.5869 -0.3000
 8279SOL    HW229294   4.139   4.908   8.121 -1.0464  0.0135 -0.6845
 8280SOL     OW29295   4.138   9.135   0.526 -0.1843  0.0780 -0.4204
 8280SOL    HW129296   4.126   9.100   0.438  0.2253 -0.2810 -0.3355
 8280SOL    HW229297   4.171   9.061   0.577  2.7815  1.0738 -0.7277
 8281SOL     OW29298   7.298  10.660   0.553  0.0216  0.1432 -0.1558
 8281SOL    HW129299   7.233  10.594   0.575  1.7252 -1.3199  0.7694
 8281SOL    HW229300   7.368  10.611   0.509  0.4844  1.6698 -1.2120
 8282SOL     OW29301   2.409   9.983   3.224  0.0461  0.0349 -0.1003
 8282SOL    HW129302   2.319  10.011   3.208 -0.0067 -0.5659 -0.9383
 8282SOL    HW229303   2.436  10.033   3.301 -0.6303  1.0425 -0.4873
 8283SOL     OW29304   7.517   3.347   2.679  0.2916 -0.3932  0.2002
 8283SOL    HW129305   7.520   3.252   2.690 -0.3675 -0.4411 -0.0077
 8283SOL    HW229306   7.427   3.366   2.654 -0.2342  0.5372  2.5163
 8284SOL     OW29307   4.684   7.243   3.847  0.6500  0.3208 -0.4143
 8284SOL    HW129308   4.746   7.273   3.781  3.2421  0.1994  1.7785
 8284SOL    HW229309   4.720   7.160   3.877 -0.8479  0.0151  0.6369
 8285SOL     OW29310   6.778   0.895   9.379  0.0029  0.1872 -0.5895
 8285SOL    HW129311   6.711   0.872   9.443 -0.8614 -1.2384 -1.9371
 8285SOL    HW229312   6.851   0.835   9.397  0.0913  0.3432 -0.4266
 8286SOL     OW29313   4.762   8.854  10.765 -0.0913  0.0132 -0.7640
 8286SOL    HW129314   4.729   8.917  10.829  1.2026  0.3140 -0.3688
 8286SOL    HW229315   4.845   8.891  10.735  0.2431 -1.0632 -1.2127
 8287SOL     OW29316   0.212   7.338   7.194  0.4955  0.4151  0.1401
 8287SOL    HW129317   0.123   7.324   7.226  0.3416 -1.3147 -0.9275
 8287SOL    HW229318   0.211   7.308   7.103  2.1249  0.5214  0.0413
 8288SOL     OW29319  10.254   8.171   9.277 -0.0202  0.0472  0.2677
 8288SOL    HW129320  10.188   8.197   9.341  0.7936 -1.2147  1.7023
 8288SOL    HW229321  10.248   8.237   9.208  1.4353  3.7057  3.2746
 8289SOL     OW29322   3.265   1.406   1.787  0.0951  0.7885 -0.7402
 8289SOL    HW129323   3.258   1.417   1.882 -0.1071  2.7497 -0.9420
 8289SOL    HW229324   3.351   1.441   1.765 -0.3227  1.4133 -1.4139
 8290SOL     OW29325   7.725   4.830   5.172  0.0244  0.4011 -0.1185
 8290SOL    HW129326   7.725   4.921   5.202  1.9456  0.2743  0.3832
 8290SOL    HW229327   7.802   4.823   5.116 -0.5053 -0.7587 -0.7441
 8291SOL     OW29328   6.431   2.784   8.075  0.0950  0.1594  0.1648
 8291SOL    HW129329   6.462   2.787   7.985  0.4543 -0.0859  0.2815
 8291SOL    HW229330   6.364   2.715   8.075 -1.8327  1.9393 -0.5079
 8292SOL     OW29331   9.054   4.967   8.138 -0.0383  0.1979 -0.0187
 8292SOL    HW129332   9.132   4.944   8.187  0.0990 -1.7632 -1.0497
 8292SOL    HW229333   9.010   5.034   8.191  1.3595 -0.0348  1.4834
 8293SOL     OW29334   6.282   8.467   9.143 -0.3268 -0.0392 -0.4551
 8293SOL    HW129335   6.352   8.473   9.078  1.0756 -0.4526  0.9342
 8293SOL    HW229336   6.244   8.380   9.129 -1.5856  0.7258 -2.1460
 8294SOL     OW29337   3.978   8.191   3.512 -0.4386  0.1352  0.0675
 8294SOL    HW129338   4.070   8.165   3.518 -0.4919 -0.0319  0.1443
 8294SOL    HW229339   3.952   8.209   3.602 -0.5341  0.0037  0.0662
 8295SOL     OW29340   6.784   5.297   2.819  0.2292 -0.3076 -0.5562
 8295SOL    HW129341   6.844   5.371   2.822  0.1999 -0.2806 -0.6364
 8295SOL    HW229342   6.707   5.327   2.867  1.4083 -1.3755  2.2444
 8296SOL     OW29343   5.591   3.140   9.582  0.2995 -0.5783  0.0170
 8296SOL    HW129344   5.623   3.062   9.627  0.5609 -0.1845  0.5127
 8296SOL    HW229345   5.555   3.106   9.500  0.2543 -1.2425  0.3003
 8297SOL     OW29346  10.521   2.761   6.830  0.0283 -0.2046 -0.0599
 8297SOL    HW129347  10.553   2.830   6.772  0.3943 -1.2573 -1.1506
 8297SOL    HW229348  10.437   2.735   6.792 -1.8070  1.9107  2.2638
 8298SOL     OW29349   2.050   1.033   7.437  0.1532 -0.2508 -0.4370
 8298SOL    HW129350   2.142   1.049   7.459  0.1840 -0.5799 -0.3192
 8298SOL    HW229351   2.053   1.003   7.346  0.3700 -2.1970  0.1741
 8299SOL     OW29352   7.498   7.070   6.211 -0.4302 -0.2191 -0.2537
 8299SOL    HW129353   7.533   7.083   6.123 -0.1806 -0.6022 -0.2187
 8299SOL    HW229354   7.559   7.008   6.252 -2.0241 -2.2487 -0.7485
 8300SOL     OW29355   1.199   2.580   3.371 -0.0664 -0.3992 -0.1709
 8300SOL    HW129356   1.142   2.604   3.443 -2.8452 -1.3129 -1.9054
 8300SOL    HW229357   1.177   2.643   3.301  1.3966 -0.5155 -0.7740
 8301SOL     OW29358  11.057   9.962   5.614  0.0002 -1.0382 -0.3498
 8301SOL    HW129359  11.113   9.987   5.688 -1.0276  0.4503 -0.0403
 8301SOL    HW229360  10.972  10.000   5.634 -0.6192 -1.6195 -1.7524
 8302SOL     OW29361   6.796   8.249   8.632  0.2097  0.0335  0.3768
 8302SOL    HW129362   6.851   8.323   8.608 -0.0727  0.3938  0.8175
 8302SOL    HW229363   6.844   8.172   8.602  0.0268  0.4350 -1.0399
 8303SOL     OW29364   7.419   5.684   3.887  0.0927  0.1328 -0.0984
 8303SOL    HW129365   7.336   5.699   3.842  0.6832  2.2236 -0.6285
 8303SOL    HW229366   7.395   5.682   3.980 -0.5501  0.8471 -0.2372
 8304SOL     OW29367   7.763   0.625   0.170 -0.4331 -0.4380  0.2682
 8304SOL    HW129368   7.854   0.611   0.144 -0.5277 -2.1038  0.6781
 8304SOL    HW229369   7.766   0.639   0.264 -0.5969 -0.6113  0.3017
 8305SOL     OW29370   6.992   3.925   9.694  1.0403 -0.4236 -0.1063
 8305SOL    HW129371   7.042   3.866   9.750  1.3428  0.9152  1.0999
 8305SOL    HW229372   7.056   3.991   9.667  0.6200 -0.4021 -1.1016
 8306SOL     OW29373   4.120   0.487   7.474  0.5740 -0.0287  0.3135
 8306SOL    HW129374   4.204   0.464   7.512  0.9725  0.1825 -0.4181
 8306SOL    HW229375   4.115   0.582   7.482  0.3560 -0.0489  0.4442
 8307SOL     OW29376   5.826   7.654   8.910 -0.1629 -1.0373 -0.6518
 8307SOL    HW129377   5.881   7.646   8.832 -0.9908 -2.1873 -1.1600
 8307SOL    HW229378   5.887   7.649   8.983  0.9102  2.3439 -1.1468
 8308SOL     OW29379   4.763   8.875   3.434  0.2417 -0.2875  0.0078
 8308SOL    HW129380   4.732   8.912   3.351  0.9568 -1.0366 -0.6199
 8308SOL    HW229381   4.857   8.892   3.434  0.1481  0.3054  1.0033
 8309SOL     OW29382   9.965   8.275   4.403 -0.0277  0.1680  0.0833
 8309SOL    HW129383   9.873   8.282   4.379 -0.3502 -1.0973  0.8727
 8309SOL    HW229384   9.992   8.188   4.374  0.4910 -0.0661  1.1920
 8310SOL     OW29385   5.207   6.983   5.666  0.0952 -0.1464 -0.2087
 8310SOL    HW129386   5.275   6.944   5.611  0.0977 -0.7654  0.2295
 8310SOL    HW229387   5.128   6.978   5.613  0.4253  0.8089 -0.8244
 8311SOL     OW29388   6.954   8.132   4.580  0.2961  0.6044  0.0195
 8311SOL    HW129389   6.899   8.092   4.513 -0.2672 -0.1839  0.9215
 8311SOL    HW229390   7.041   8.134   4.542 -0.1214  0.7318 -0.9579
 8312SOL     OW29391   8.655  10.394   4.541 -0.2340  0.5273  0.2112
 8312SOL    HW129392   8.721  10.419   4.477 -1.2869 -0.0277 -1.1488
 8312SOL    HW229393   8.629  10.306   4.515 -2.1361  1.0628  0.1313
 8313SOL     OW29394   2.585   7.366   4.085 -0.1083 -0.3476  0.3095
 8313SOL    HW129395   2.552   7.447   4.124  0.3634  0.0749 -0.1532
 8313SOL    HW229396   2.509   7.308   4.081  0.0794 -0.9289  3.1130
 8314SOL     OW29397   3.774   6.531   8.755 -0.5657 -0.3916 -0.3199
 8314SOL    HW129398   3.833   6.562   8.686  1.0920 -0.0477  1.1870
 8314SOL    HW229399   3.736   6.610   8.792  1.4296 -0.2074  1.5750
 8315SOL     OW29400   3.806   9.815   8.995 -0.1475 -0.1900  0.1498
 8315SOL    HW129401   3.845   9.863   9.068 -0.9093 -0.1098  0.5055
 8315SOL    HW229402   3.849   9.730   8.997 -0.8139 -0.5186  1.2648
 8316SOL     OW29403   0.616   1.929  10.922 -0.2848 -0.1200  0.2980
 8316SOL    HW129404   0.690   1.957  10.868  0.0789  0.1071  0.9041
 8316SOL    HW229405   0.640   1.956  11.010 -0.8087 -0.6193  0.5948
 8317SOL     OW29406   4.888   4.521   5.015  0.3169  0.7460 -0.4524
 8317SOL    HW129407   4.907   4.568   4.934 -1.5129  1.4371 -0.5217
 8317SOL    HW229408   4.843   4.584   5.070 -0.7364 -0.4442  0.1046
 8318SOL     OW29409   1.125   0.388  10.605  0.2668  0.7082  0.3277
 8318SOL    HW129410   1.038   0.363  10.635  0.2473 -0.2779 -0.4927
 8318SOL    HW229411   1.128   0.483  10.616 -0.6122  0.6612  1.1075
 8319SOL     OW29412   3.777   3.519   7.132  0.2638  0.5804 -0.5370
 8319SOL    HW129413   3.823   3.510   7.049 -0.2213 -0.1354 -0.7398
 8319SOL    HW229414   3.685   3.504   7.109 -0.0136  1.4931 -0.0606
 8320SOL     OW29415   7.190   8.650  11.002  0.0771  0.0935  0.0457
 8320SOL    HW129416   7.236   8.704  10.938 -0.0767 -0.4040 -0.4975
 8320SOL    HW229417   7.100   8.681  11.000 -0.1482 -0.5810 -0.7213
 8321SOL     OW29418   1.162   6.117   0.577 -0.1714 -0.1397  0.5030
 8321SOL    HW129419   1.173   6.067   0.497 -0.6366 -0.8290  0.8607
 8321SOL    HW229420   1.247   6.111   0.621 -0.3877 -1.1054  0.8137
 8322SOL     OW29421   4.892   2.738   8.932 -0.5096  0.1963 -0.1083
 8322SOL    HW129422   4.878   2.817   8.880 -1.5884  0.7134  0.9021
 8322SOL    HW229423   4.836   2.672   8.891  0.6454 -0.1723 -1.1553
 8323SOL     OW29424  10.130   1.974   6.596 -0.0097  0.1009  0.4633
 8323SOL    HW129425  10.210   1.923   6.586 -0.9672 -1.1059 -1.5973
 8323SOL    HW229426  10.061   1.909   6.611 -1.3070  0.6397 -2.4811
 8324SOL     OW29427   5.915   2.762   2.660  0.0285 -0.0218  0.5759
 8324SOL    HW129428   5.912   2.674   2.697 -0.9233 -0.6426 -0.8798
 8324SOL    HW229429   5.823   2.787   2.650  0.0781 -0.5773 -2.7287
 8325SOL     OW29430   4.694   0.156   9.141 -0.1962 -0.3715 -0.5091
 8325SOL    HW129431   4.785   0.179   9.125 -0.4041  0.3321 -0.6897
 8325SOL    HW229432   4.699   0.073   9.188  0.5634  0.0604  0.1970
 8326SOL     OW29433   8.434  10.920  10.354  0.4110  0.1652  0.6366
 8326SOL    HW129434   8.441  10.950  10.263  1.8130  2.6015  1.4847
 8326SOL    HW229435   8.481  10.836  10.355 -0.5948 -0.4834 -1.0667
 8327SOL     OW29436   8.625   2.040   6.066 -0.2938  0.3216 -0.6908
 8327SOL    HW129437   8.538   2.026   6.028 -1.2611  2.2633  0.6506
 8327SOL    HW229438   8.684   1.994   6.007 -2.0474  0.3669 -2.6017
 8328SOL     OW29439   8.794   6.255  10.508 -0.1012 -0.3043  0.2793
 8328SOL    HW129440   8.848   6.216  10.576  0.6026 -0.0369 -0.1225
 8328SOL    HW229441   8.742   6.321  10.555 -0.8946 -1.2991  0.8546
 8329SOL     OW29442   8.307  10.730  10.103  0.1352  0.0034  0.4703
 8329SOL    HW129443   8.222  10.747  10.062  0.6505  2.0184  0.1260
 8329SOL    HW229444   8.293  10.651  10.156 -1.4415 -0.7462 -0.9707
 8330SOL     OW29445   3.143   1.415   6.183 -0.4882  0.1098  0.2476
 8330SOL    HW129446   3.195   1.338   6.160  0.5230  1.3554 -1.9987
 8330SOL    HW229447   3.205   1.475   6.224 -1.2985 -0.2457  2.1012
 8331SOL     OW29448   4.636   9.638   6.060  0.2334 -0.0871 -0.2501
 8331SOL    HW129449   4.631   9.629   5.965 -0.3924 -0.7835 -0.1611
 8331SOL    HW229450   4.634   9.732   6.076 -0.3143  0.0118 -0.8898
 8332SOL     OW29451   3.810   2.171   0.117  0.0903  0.6265 -0.0005
 8332SOL    HW129452   3.736   2.127   0.158  0.9998  0.6514  1.7780
 8332SOL    HW229453   3.809   2.140   0.026 -1.8247  0.3195  0.0863
 8333SOL     OW29454   0.195   4.326   2.705  0.0931  0.0919 -0.5014
 8333SOL    HW129455   0.119   4.273   2.681  0.5869 -0.4144 -0.9703
 8333SOL    HW229456   0.248   4.269   2.760 -0.7307  1.0391  1.3645
 8334SOL     OW29457   6.312   5.813  10.352 -0.0523 -0.1270  0.6474
 8334SOL    HW129458   6.226   5.778  10.375  0.1973 -0.7092  0.6911
 8334SOL    HW229459   6.357   5.741  10.307 -0.6220  1.0245 -1.9763
 8335SOL     OW29460   7.676   9.399  10.163 -0.0520  0.1799 -0.3038
 8335SOL    HW129461   7.770   9.416  10.169  0.2140 -1.4741  0.5613
 8335SOL    HW229462   7.656   9.412  10.070  0.9981  0.6633 -0.4834
 8336SOL     OW29463  10.623   2.016   8.764 -0.3900  0.0424  0.3625
 8336SOL    HW129464  10.656   1.969   8.687  1.2627  0.2598  0.8924
 8336SOL    HW229465  10.604   2.104   8.732  0.0461  0.0556  0.1242
 8337SOL     OW29466  10.188   8.021   5.833 -0.1949  0.0409  0.6839
 8337SOL    HW129467  10.209   7.997   5.923  3.3815 -0.3647 -0.0858
 8337SOL    HW229468  10.209   8.114   5.828  2.0284 -0.4266 -0.1793
 8338SOL     OW29469   8.342  10.183   5.164  0.4770 -0.1418  0.1223
 8338SOL    HW129470   8.388  10.215   5.241  1.3539 -0.5774 -0.2007
 8338SOL    HW229471   8.407  10.189   5.094 -0.0853 -0.4186 -0.4260
 8339SOL     OW29472   3.139   2.615   7.756 -0.0353 -0.4329  0.2626
 8339SOL    HW129473   3.093   2.535   7.780  0.9145 -0.5084  1.9661
 8339SOL    HW229474   3.225   2.606   7.797  0.3626  1.1238 -0.1751
 8340SOL     OW29475   4.876   3.686   7.562  0.0541 -0.0837  0.2207
 8340SOL    HW129476   4.802   3.628   7.549  1.4200 -1.8163 -0.1465
 8340SOL    HW229477   4.912   3.699   7.474  0.4937  0.3414  0.4583
 8341SOL     OW29478   5.649   8.629   7.242  0.1181  0.0712  0.0535
 8341SOL    HW129479   5.592   8.702   7.217  1.2269  0.9810  0.0882
 8341SOL    HW229480   5.635   8.619   7.336  1.1359  1.3332  0.3668
 8342SOL     OW29481   8.755   5.716   3.506  0.4035 -0.6488 -0.2822
 8342SOL    HW129482   8.832   5.659   3.509  1.3410  0.3717 -2.8035
 8342SOL    HW229483   8.790   5.803   3.489 -1.1797  0.3281  1.1264
 8343SOL     OW29484   3.247   3.130   8.028 -0.0976 -0.3405  0.2036
 8343SOL    HW129485   3.309   3.114   8.099  0.5989  1.3979  0.0289
 8343SOL    HW229486   3.270   3.217   7.995 -2.0937 -0.0020 -0.4233
 8344SOL     OW29487   7.047   5.391   3.234  0.1288 -0.4360  0.8461
 8344SOL    HW129488   7.116   5.375   3.170 -0.7632 -2.4434  0.2861
 8344SOL    HW229489   7.017   5.480   3.216  3.2168  0.9487  1.8311
 8345SOL     OW29490  11.061   9.566   2.609  0.7543 -0.6049  0.4594
 8345SOL    HW129491  10.995   9.576   2.677 -0.8357  1.5706 -1.2541
 8345SOL    HW229492  11.114   9.645   2.615 -0.8786  0.8349 -2.1709
 8346SOL     OW29493   0.510   6.970   6.745  0.6316  0.1457 -0.0186
 8346SOL    HW129494   0.505   6.885   6.702 -2.0334  0.3742 -0.3276
 8346SOL    HW229495   0.583   7.014   6.703  0.2409 -0.9207 -1.9479
 8347SOL     OW29496   9.722   6.877   8.820  0.6348  0.5374 -0.3375
 8347SOL    HW129497   9.782   6.878   8.895  1.8303  2.1364 -1.2530
 8347SOL    HW229498   9.699   6.785   8.809  3.6968 -0.3044 -0.5264
 8348SOL     OW29499   1.732   8.984   4.946 -0.2493 -0.2774  0.5705
 8348SOL    HW129500   1.689   8.954   4.865  0.2325  0.9269 -0.1517
 8348SOL    HW229501   1.664   9.033   4.992 -0.4880 -0.8591  0.8512
 8349SOL     OW29502   6.005   5.212   3.797 -0.0495  0.0109 -0.3343
 8349SOL    HW129503   5.925   5.166   3.819  0.1068  0.6345  1.7813
 8349SOL    HW229504   5.977   5.285   3.743 -1.1254  0.9087  1.3370
 8350SOL     OW29505   6.465   9.202   7.242  0.4141 -0.6312  0.0842
 8350SOL    HW129506   6.479   9.260   7.317  1.1727  0.3326 -0.7912
 8350SOL    HW229507   6.393   9.145   7.270  0.1555  0.2283  1.2434
 8351SOL     OW29508   7.908   0.492   9.776  0.1193 -0.4417 -0.3702
 8351SOL    HW129509   7.934   0.512   9.686  1.7463 -2.0094 -0.3133
 8351SOL    HW229510   7.964   0.547   9.830 -0.9752  0.6265 -0.2667
 8352SOL     OW29511   9.381   4.750   4.236 -0.3107  0.1975  0.3496
 8352SOL    HW129512   9.469   4.788   4.234 -0.6906  1.1184  0.4349
 8352SOL    HW229513   9.333   4.806   4.296 -0.7507 -0.7792  0.9357
 8353SOL     OW29514   0.804   9.094   5.207  0.8529  0.2912  0.1791
 8353SOL    HW129515   0.787   9.063   5.118  1.5075 -1.9011  0.7519
 8353SOL    HW229516   0.743   9.046   5.262  3.0852 -1.4360  1.3164
 8354SOL     OW29517   0.745   5.112   2.115  0.3635 -0.1792 -0.1119
 8354SOL    HW129518   0.786   5.034   2.152 -0.7056 -0.7468 -0.0912
 8354SOL    HW229519   0.679   5.078   2.055  0.8374  0.7293 -1.1874
 8355SOL     OW29520   9.789   6.850   4.868 -0.5134  0.6839 -0.0611
 8355SOL    HW129521   9.769   6.849   4.962 -0.6208  0.9860 -0.0783
 8355SOL    HW229522   9.878   6.885   4.863 -0.0873 -0.3619 -0.0044
 8356SOL     OW29523   0.110   9.615   5.526  0.4135  1.0721  0.5480
 8356SOL    HW129524   0.142   9.531   5.493  1.1703  1.1548  1.0583
 8356SOL    HW229525   0.091   9.666   5.447 -1.6161 -0.1154  0.1817
 8357SOL     OW29526   4.709   0.262  10.866  0.6987 -0.1880 -0.0535
 8357SOL    HW129527   4.649   0.208  10.917  1.1085 -0.5659  0.0306
 8357SOL    HW229528   4.785   0.206  10.850  1.2648  0.4596  0.3063
 8358SOL     OW29529  10.624   8.199   2.092 -0.2561 -0.6438 -0.2473
 8358SOL    HW129530  10.661   8.116   2.121  0.8420 -0.7719 -1.8455
 8358SOL    HW229531  10.615   8.251   2.172 -1.2519 -2.3754  0.8237
 8359SOL     OW29532   3.125   0.414   6.438  0.4306 -0.1932  0.1566
 8359SOL    HW129533   3.115   0.455   6.353  1.7898 -0.0189  0.0640
 8359SOL    HW229534   3.177   0.335   6.421 -1.7371 -1.7876  0.3987
 8360SOL     OW29535   6.505   6.039   6.464  0.1988 -0.0353 -0.2956
 8360SOL    HW129536   6.471   6.025   6.376  1.0357  0.7752 -0.7670
 8360SOL    HW229537   6.479   6.129   6.486  1.5612  0.4198 -0.4627
 8361SOL     OW29538   6.728   5.879   3.451  0.0317  0.1943  0.2313
 8361SOL    HW129539   6.700   5.836   3.532  0.4075  2.3844  1.6271
 8361SOL    HW229540   6.647   5.913   3.413 -0.1895 -1.1388 -0.5467
 8362SOL     OW29541   2.438   4.026   3.852  0.1445 -0.1056  0.0905
 8362SOL    HW129542   2.471   3.966   3.919 -0.1860 -1.0739 -0.5992
 8362SOL    HW229543   2.415   3.970   3.778 -0.1212  0.8788 -0.5953
 8363SOL     OW29544   3.952   5.108  10.323  0.0925  0.0485 -0.3466
 8363SOL    HW129545   3.991   5.021  10.314  2.0340  0.7548  0.5689
 8363SOL    HW229546   3.917   5.110  10.412  0.3160  0.2973 -0.2632
 8364SOL     OW29547  10.762   0.255   6.983 -0.3215  0.0059  0.2965
 8364SOL    HW129548  10.857   0.261   6.991 -0.1432 -0.6568 -1.0697
 8364SOL    HW229549  10.730   0.337   7.021  0.6837 -0.3990  2.1114
 8365SOL     OW29550   2.652   0.889   7.917 -0.2314  0.0558 -0.0053
 8365SOL    HW129551   2.675   0.902   7.825  0.6645  0.4553  0.2658
 8365SOL    HW229552   2.568   0.934   7.927 -2.1957 -2.9367 -1.4481
 8366SOL     OW29553   0.999   1.276   6.407 -0.1321  0.0569 -0.0377
 8366SOL    HW129554   0.950   1.201   6.442 -1.9093  1.6198  1.0319
 8366SOL    HW229555   1.077   1.282   6.461 -0.7696 -0.1113  0.9413
 8367SOL     OW29556   1.349   0.817   4.786  0.3912 -0.3185 -0.0346
 8367SOL    HW129557   1.275   0.766   4.751  0.6368 -1.6678  1.2535
 8367SOL    HW229558   1.420   0.753   4.794  1.2219  0.6131  0.1533
 8368SOL     OW29559   7.661   7.387  11.055 -0.0822 -0.4153 -0.1442
 8368SOL    HW129560   7.636   7.325  11.124  3.1766 -1.9781 -0.1736
 8368SOL    HW229561   7.754   7.404  11.071 -0.4161  3.1878 -1.2225
 8369SOL     OW29562   5.867   0.633   7.067  0.1234 -0.1004 -0.5156
 8369SOL    HW129563   5.893   0.671   6.983  0.3962  3.5472  1.0209
 8369SOL    HW229564   5.944   0.585   7.097  0.4586 -0.3743 -1.7769
 8370SOL     OW29565   2.363   0.191   9.696 -0.1924  0.4654 -0.2687
 8370SOL    HW129566   2.283   0.151   9.729  0.1570 -0.4690 -0.5271
 8370SOL    HW229567   2.367   0.277   9.738 -0.9544  0.2246  0.2973
 8371SOL     OW29568   0.573   0.217   3.158  0.1427  0.1927  0.3027
 8371SOL    HW129569   0.483   0.225   3.192  0.1372 -0.4697  0.4784
 8371SOL    HW229570   0.612   0.149   3.213  0.0206 -1.2015 -1.2576
 8372SOL     OW29571   0.181   0.456   4.460 -0.3894  0.5049 -0.2604
 8372SOL    HW129572   0.199   0.515   4.533 -0.2889 -1.3005  1.2402
 8372SOL    HW229573   0.244   0.481   4.393  0.8015  0.9712  0.9950
 8373SOL     OW29574   9.530   2.135   6.580 -0.0570  0.1099 -0.0222
 8373SOL    HW129575   9.435   2.121   6.573 -0.6664  2.0931  2.8248
 8373SOL    HW229576   9.541   2.229   6.563  1.1757  0.2036  1.1601
 8374SOL     OW29577   9.955   8.552   4.350  0.1076  0.1308  0.3659
 8374SOL    HW129578   9.862   8.554   4.327  0.2572 -2.0091 -0.6325
 8374SOL    HW229579   9.975   8.460   4.362  2.1095  0.5559  0.6242
 8375SOL     OW29580   5.427   5.647   1.471 -0.1008  0.3383 -0.2842
 8375SOL    HW129581   5.461   5.592   1.541  0.6410  1.1022 -0.0177
 8375SOL    HW229582   5.446   5.599   1.390  4.2077  1.8179 -0.4413
 8376SOL     OW29583   1.152   8.566   1.628 -0.0205 -0.3558 -0.8433
 8376SOL    HW129584   1.094   8.612   1.567  0.5395  0.5703 -0.6841
 8376SOL    HW229585   1.113   8.479   1.637 -0.9965  0.0272 -1.2826
 8377SOL     OW29586   8.386   2.269   3.512  0.3539  0.5112 -0.3502
 8377SOL    HW129587   8.410   2.361   3.523  0.4771  0.4595 -0.1736
 8377SOL    HW229588   8.424   2.243   3.429 -2.1438  1.4254 -1.8932
 8378SOL     OW29589   9.524   2.805  10.955 -0.1462  0.0084  0.0026
 8378SOL    HW129590   9.566   2.889  10.975  0.3010  0.3152 -1.9438
 8378SOL    HW229591   9.585   2.739  10.987 -0.4417  0.4017  1.4335
 8379SOL     OW29592   7.415   9.379   3.724 -0.1983  0.9935 -0.2557
 8379SOL    HW129593   7.427   9.395   3.818 -0.5902 -0.4264  0.0636
 8379SOL    HW229594   7.494   9.414   3.684  2.1111 -2.1064  1.0998
 8380SOL     OW29595   4.679   7.548   4.157  0.0402 -0.4020  0.6187
 8380SOL    HW129596   4.724   7.632   4.159 -1.3437  0.5012 -1.8842
 8380SOL    HW229597   4.747   7.485   4.135  0.6546  0.4650 -0.0414
 8381SOL     OW29598   0.441   3.766   6.051 -0.1288 -0.0295 -0.1272
 8381SOL    HW129599   0.399   3.713   6.118  0.9716 -0.7916 -0.0206
 8381SOL    HW229600   0.420   3.723   5.968  1.2514 -1.0330 -0.0004
 8382SOL     OW29601   4.996  10.222   3.855 -0.0957  0.2931 -0.7385
 8382SOL    HW129602   5.087  10.195   3.866  0.2561  1.6062 -0.1987
 8382SOL    HW229603   4.956  10.152   3.803  0.4441 -1.8134  1.4664
 8383SOL     OW29604   6.833   5.850   0.407 -0.2359  0.4271  0.2378
 8383SOL    HW129605   6.830   5.807   0.321 -0.6197 -0.2191  0.5606
 8383SOL    HW229606   6.742   5.874   0.425 -0.4371 -0.9210  1.1762
 8384SOL     OW29607   0.596   4.232   3.275  0.1733  0.3850  0.2225
 8384SOL    HW129608   0.597   4.301   3.209 -0.7534  0.7730  0.5983
 8384SOL    HW229609   0.606   4.279   3.358  0.0752  0.0130  0.4459
 8385SOL     OW29610   6.928   8.015   6.314  0.3401  0.3091 -0.1924
 8385SOL    HW129611   7.010   7.986   6.356 -0.6051 -1.0780  0.7958
 8385SOL    HW229612   6.925   7.967   6.232  1.4453  1.8730 -1.2078
 8386SOL     OW29613   8.624   7.945   9.471 -0.0700  0.2555  0.1280
 8386SOL    HW129614   8.542   7.971   9.514  0.9418  1.2928  1.5022
 8386SOL    HW229615   8.638   7.855   9.499  0.7809  1.0304  2.4286
 8387SOL     OW29616   1.152   9.515   7.196  0.6908  0.7523 -0.8438
 8387SOL    HW129617   1.099   9.580   7.241  1.5079  0.6980  0.2252
 8387SOL    HW229618   1.126   9.431   7.234 -0.5682  0.3857 -2.4177
 8388SOL     OW29619   4.327   4.369   1.734  0.1940  0.8203  0.1463
 8388SOL    HW129620   4.296   4.433   1.798 -1.5489  0.4212 -0.2420
 8388SOL    HW229621   4.275   4.386   1.656 -0.7600 -1.4127  0.2208
 8389SOL     OW29622   7.124   0.133   7.644 -0.2674 -0.0303 -0.2526
 8389SOL    HW129623   7.167   0.053   7.673 -2.0342 -0.7599  0.5037
 8389SOL    HW229624   7.067   0.105   7.572 -1.1919  0.4669  0.2727
 8390SOL     OW29625   5.802   0.265   8.182  0.1050  0.8917 -0.6650
 8390SOL    HW129626   5.843   0.251   8.097  1.9684  2.0692 -0.0060
 8390SOL    HW229627   5.747   0.342   8.170 -0.0806  0.7202 -0.9341
 8391SOL     OW29628   2.524   5.134   5.141 -0.0441  0.2079 -0.0885
 8391SOL    HW129629   2.590   5.203   5.132  0.4888 -0.0763  1.3478
 8391SOL    HW229630   2.555   5.080   5.213 -1.1021 -0.8117 -0.3576
 8392SOL     OW29631   8.639   2.348   0.782  0.2697 -0.3740  0.0708
 8392SOL    HW129632   8.685   2.327   0.701  0.0276  0.5736 -0.3262
 8392SOL    HW229633   8.680   2.429   0.813 -0.9961  0.3999 -0.1988
 8393SOL     OW29634   5.397   0.717   6.991  0.2509  0.4245 -0.3634
 8393SOL    HW129635   5.474   0.683   7.037  0.4053  2.0247  0.6600
 8393SOL    HW229636   5.427   0.801   6.955 -0.4834  0.1701 -1.5955
 8394SOL     OW29637   1.961   5.329   1.565 -0.2448 -0.0716 -0.1447
 8394SOL    HW129638   1.872   5.347   1.593 -0.0179  1.4069 -0.2793
 8394SOL    HW229639   1.954   5.251   1.510 -1.2941 -0.5519  0.6393
 8395SOL     OW29640   9.494   4.593   7.218 -0.0830 -0.3343 -0.1375
 8395SOL    HW129641   9.405   4.623   7.197 -0.1943  1.4465  2.3872
 8395SOL    HW229642   9.481   4.505   7.253 -0.3659 -1.4977 -2.8966
 8396SOL     OW29643   8.429   9.348   9.786  0.2762 -0.1295  0.1418
 8396SOL    HW129644   8.520   9.327   9.766  0.3191  0.5930 -0.4587
 8396SOL    HW229645   8.378   9.297   9.723  0.1981 -1.3736  1.1715
 8397SOL     OW29646   5.097   9.344  11.037 -0.1752 -0.1146 -0.2230
 8397SOL    HW129647   5.080   9.250  11.029 -0.1043 -0.1746  0.3114
 8397SOL    HW229648   5.025   9.376  11.091 -0.5464  0.2526 -0.9208
 8398SOL     OW29649   9.384   2.132   3.526 -0.0216  0.3771 -0.8142
 8398SOL    HW129650   9.335   2.096   3.453 -0.3216  0.5596 -0.7051
 8398SOL    HW229651   9.475   2.132   3.497  0.2773 -2.1536 -0.1834
 8399SOL     OW29652   9.084   8.498   6.266  0.2654 -0.3860  0.1531
 8399SOL    HW129653   9.013   8.434   6.274  0.0952 -0.1755  0.3360
 8399SOL    HW229654   9.138   8.465   6.194 -2.2724  1.5795 -2.8878
 8400SOL     OW29655   5.468   7.995   0.651  0.1998 -0.6707 -0.0258
 8400SOL    HW129656   5.473   7.908   0.690 -1.5539 -1.3973 -1.2981
 8400SOL    HW229657   5.404   8.042   0.704  1.4548  0.0352  0.9199
 8401SOL     OW29658  11.035   8.209   5.237  0.0936 -0.4906  0.2245
 8401SOL    HW129659  10.979   8.269   5.187 -1.1659 -0.4943  1.5448
 8401SOL    HW229660  11.022   8.124   5.196 -2.2859 -0.8400  1.5003
 8402SOL     OW29661   7.030   4.659   1.906  0.1034  0.1950  0.3832
 8402SOL    HW129662   7.044   4.743   1.862  1.6970  0.1096  0.6432
 8402SOL    HW229663   7.058   4.674   1.996 -0.7490 -0.3063  0.7423
 8403SOL     OW29664   3.003   2.795   8.927  0.4925 -0.3537 -0.3871
 8403SOL    HW129665   3.080   2.804   8.871  0.9115 -0.3272  0.1846
 8403SOL    HW229666   3.012   2.708   8.966  0.0013 -0.5276 -0.6545
 8404SOL     OW29667  10.215   6.444   1.937 -0.9587  0.2144 -0.1485
 8404SOL    HW129668  10.153   6.418   2.005 -0.5109 -0.3041  0.0656
 8404SOL    HW229669  10.301   6.443   1.980 -0.7840  0.8452 -0.4625
 8405SOL     OW29670   1.165   3.596   5.029  0.0164 -0.7871  0.3480
 8405SOL    HW129671   1.202   3.648   5.101  1.1282  0.4396 -1.0374
 8405SOL    HW229672   1.097   3.652   4.991  1.3759 -0.1381 -1.2973
 8406SOL     OW29673   3.915   5.965   8.295 -0.5140 -0.1486 -0.6813
 8406SOL    HW129674   3.962   6.046   8.313 -0.2465 -0.6425  1.0715
 8406SOL    HW229675   3.887   5.934   8.381  0.7103 -2.6719 -1.0838
 8407SOL     OW29676   3.502   8.648   3.278 -0.4265  0.3496 -0.2932
 8407SOL    HW129677   3.560   8.677   3.207  0.0680 -0.7878 -0.3888
 8407SOL    HW229678   3.513   8.714   3.346 -0.8338  1.4079 -1.2224
 8408SOL     OW29679   7.554   0.482   6.484 -0.4949 -0.1741 -0.2160
 8408SOL    HW129680   7.575   0.555   6.541  3.4111  0.2795 -1.8724
 8408SOL    HW229681   7.510   0.521   6.409 -0.6168  0.1172  0.0100
 8409SOL     OW29682   1.567   1.399  10.831 -0.5429  0.0799 -0.0663
 8409SOL    HW129683   1.502   1.373  10.896  0.3257 -1.1027  0.3682
 8409SOL    HW229684   1.626   1.459  10.877 -2.0573  2.2858 -0.8369
 8410SOL     OW29685   0.567   9.485   9.524  0.1430 -0.0572 -0.5586
 8410SOL    HW129686   0.631   9.429   9.480  0.9654 -0.2034  0.7780
 8410SOL    HW229687   0.508   9.424   9.569  1.5210  0.0713  1.5767
 8411SOL     OW29688   8.912   8.962   8.157 -0.1226  0.3974 -0.2861
 8411SOL    HW129689   8.923   8.940   8.250  0.7606  1.2266 -0.1846
 8411SOL    HW229690   9.000   8.980   8.126 -0.4719  0.6427 -1.1622
 8412SOL     OW29691  10.370   3.214   5.042  0.1095  0.0267 -0.1048
 8412SOL    HW129692  10.385   3.159   5.118  0.0530 -0.2726 -0.3096
 8412SOL    HW229693  10.320   3.289   5.076 -0.9672 -0.6883 -0.0672
 8413SOL     OW29694   8.471   4.930   4.008  0.1320 -0.1395  0.4466
 8413SOL    HW129695   8.403   4.978   3.960 -0.1376  0.8728  1.7767
 8413SOL    HW229696   8.436   4.922   4.097  1.7650  0.4828  1.1786
 8414SOL     OW29697   1.816   2.387   0.439 -0.5660 -0.3143 -0.3979
 8414SOL    HW129698   1.792   2.462   0.384 -1.0899 -0.9056 -0.9964
 8414SOL    HW229699   1.747   2.382   0.505  0.1782  0.5282  0.4740
 8415SOL     OW29700   9.639   1.357   6.986 -1.1959 -0.2504  0.0036
 8415SOL    HW129701   9.555   1.313   6.997 -2.0949  0.9612 -1.5487
 8415SOL    HW229702   9.624   1.446   7.019  0.4190 -0.8251  2.5747
 8416SOL     OW29703   1.879   5.014   1.928 -0.3033  0.1082  0.3847
 8416SOL    HW129704   1.806   5.041   1.872  0.7072  0.4146 -0.8401
 8416SOL    HW229705   1.884   4.919   1.917  0.0023  0.1859 -0.2155
 8417SOL     OW29706   9.873   8.683   8.224 -0.5204 -0.0253 -0.0035
 8417SOL    HW129707   9.918   8.626   8.287  2.6483 -0.1561 -2.1485
 8417SOL    HW229708   9.847   8.624   8.153  1.0686  0.7989 -1.3483
 8418SOL     OW29709   1.397  10.875   5.190 -0.1415 -0.1072 -0.1869
 8418SOL    HW129710   1.402  10.889   5.284 -0.4301  0.5934 -0.2648
 8418SOL    HW229711   1.303  10.884   5.170 -0.1704 -0.9031 -0.4488
 8419SOL     OW29712   3.867   2.788   6.670 -0.1050  0.2117  0.1960
 8419SOL    HW129713   3.913   2.704   6.675 -0.7332 -0.1723 -0.3491
 8419SOL    HW229714   3.922   2.841   6.613 -0.4526 -0.3364 -0.6771
 8420SOL     OW29715   2.137  10.570   0.490 -0.3644 -0.0993  0.2662
 8420SOL    HW129716   2.161  10.526   0.571  0.0646 -1.1624 -0.4046
 8420SOL    HW229717   2.171  10.659   0.499 -1.3532  0.1547  1.7038
 8421SOL     OW29718   4.347   9.161   2.118  0.2402 -0.0790 -0.1406
 8421SOL    HW129719   4.290   9.084   2.108  0.3694 -0.6312  2.4360
 8421SOL    HW229720   4.431   9.133   2.082 -0.2251 -0.4318 -0.9900
 8422SOL     OW29721   4.181   4.149   0.998 -0.2609  0.0352 -0.0897
 8422SOL    HW129722   4.161   4.213   1.066 -0.3563  0.5009 -0.5587
 8422SOL    HW229723   4.131   4.177   0.922 -0.3648 -0.6392 -0.2795
 8423SOL     OW29724   3.927   8.887   1.752  0.4111  0.0951 -0.6220
 8423SOL    HW129725   3.881   8.925   1.827 -0.3786  1.1091 -1.5873
 8423SOL    HW229726   4.020   8.898   1.774  0.1943  0.7434  0.0436
 8424SOL     OW29727   2.991   8.446  10.636 -0.2149 -0.4143  0.0055
 8424SOL    HW129728   2.956   8.518  10.689 -1.0291 -0.0038 -1.0663
 8424SOL    HW229729   3.065   8.484  10.590  1.4262 -1.1463  1.8680
 8425SOL     OW29730   8.152   6.927   4.719  0.5557  0.2775  0.4476
 8425SOL    HW129731   8.207   6.876   4.659 -1.3173 -0.8668 -0.3760
 8425SOL    HW229732   8.082   6.867   4.744 -0.1006  1.5543  1.8012
 8426SOL     OW29733   7.431   5.033   6.423 -0.2261  0.0683 -0.1051
 8426SOL    HW129734   7.490   4.992   6.360 -0.5488  1.0282 -1.0738
 8426SOL    HW229735   7.346   5.036   6.377 -0.7474 -0.2214  0.8097
 8427SOL     OW29736   4.213   4.124  10.293 -0.0352 -0.0400 -0.7554
 8427SOL    HW129737   4.303   4.145  10.315 -0.4653  1.3740 -0.2329
 8427SOL    HW229738   4.214   4.111  10.198  0.3881  2.0079 -1.0795
 8428SOL     OW29739   8.318  10.887  11.012  0.5825  0.1663 -0.3580
 8428SOL    HW129740   8.233  10.855  10.982  0.8253  0.2455 -1.1488
 8428SOL    HW229741   8.298  10.943  11.086  0.0337 -0.6580  0.1385
 8429SOL     OW29742   5.167   0.929  10.823 -0.0856  0.1119  0.0811
 8429SOL    HW129743   5.256   0.954  10.801  0.0059 -0.6019 -0.3863
 8429SOL    HW229744   5.163   0.934  10.918  1.2040 -2.2197  0.3279
 8430SOL     OW29745   6.377  10.815   4.628  0.1118 -0.1751 -0.3460
 8430SOL    HW129746   6.434  10.862   4.689 -0.8070 -0.1328  0.5111
 8430SOL    HW229747   6.386  10.863   4.546  2.0265 -0.7372 -0.5220
 8431SOL     OW29748   1.011   8.686   6.026 -0.0931 -0.0897  0.2595
 8431SOL    HW129749   0.980   8.714   5.940 -3.0789 -0.9051  0.9354
 8431SOL    HW229750   1.007   8.765   6.080  0.9595  0.2313 -0.1055
 8432SOL     OW29751   4.977   5.436   0.750  0.1381  0.6329  0.0011
 8432SOL    HW129752   5.023   5.490   0.815  0.7831 -1.2083  1.1579
 8432SOL    HW229753   4.890   5.422   0.788  0.5068 -0.4246  0.4807
 8433SOL     OW29754   0.354   7.956   6.770 -0.3828 -0.1604  0.0081
 8433SOL    HW129755   0.400   7.877   6.740  0.9795  0.2558  0.9460
 8433SOL    HW229756   0.407   7.989   6.842 -1.7735  0.7625  0.6528
 8434SOL     OW29757   6.827   1.724   8.800 -0.6106  0.2347 -0.2760
 8434SOL    HW129758   6.824   1.740   8.894 -2.4763 -1.8496  0.1090
 8434SOL    HW229759   6.841   1.811   8.761  0.7552  1.0740  1.8849
 8435SOL     OW29760   2.059  10.864   2.769 -0.5374 -0.3236 -0.3434
 8435SOL    HW129761   2.020  10.922   2.834 -0.8764 -0.0931 -0.7451
 8435SOL    HW229762   2.093  10.790   2.819 -1.4893 -0.5294  0.0124
 8436SOL     OW29763  10.044   2.342   5.124  0.2038 -0.2973 -0.1535
 8436SOL    HW129764   9.988   2.418   5.132  1.4041  0.5813  0.2211
 8436SOL    HW229765  10.055   2.330   5.029 -0.2890 -0.2422 -0.2188
 8437SOL     OW29766   1.707  10.501   9.184  0.3939  0.5716 -0.5255
 8437SOL    HW129767   1.757  10.421   9.167  0.3878 -0.6885  3.9836
 8437SOL    HW229768   1.623  10.487   9.142  0.2014 -2.1345  0.5626
 8438SOL     OW29769   8.975   6.939   5.196  0.2913  0.5902  0.0629
 8438SOL    HW129770   9.030   6.876   5.148 -0.5478 -0.0015 -0.1406
 8438SOL    HW229771   8.969   6.903   5.285 -1.0874 -0.2236 -0.3351
 8439SOL     OW29772   1.406   8.030   5.427  0.2784  0.5844  0.0926
 8439SOL    HW129773   1.464   8.004   5.356 -0.7105 -0.9949 -0.1845
 8439SOL    HW229774   1.423   8.123   5.438  2.1259  0.3867 -0.6369
 8440SOL     OW29775   4.117  10.243   8.079 -0.0060 -0.5787 -0.3060
 8440SOL    HW129776   4.187  10.279   8.134 -1.6298  1.4749  0.5593
 8440SOL    HW229777   4.046  10.223   8.140 -0.2593 -2.5806 -1.1660
 8441SOL     OW29778   4.553   9.910   9.182 -0.1634  0.7838  0.4067
 8441SOL    HW129779   4.623   9.912   9.117  1.2394  2.4288  1.8572
 8441SOL    HW229780   4.588   9.857   9.253 -0.7969  0.7979  0.7359
 8442SOL     OW29781   1.018   5.801   6.815  0.0756  0.2798 -0.5325
 8442SOL    HW129782   1.101   5.805   6.767  0.5637  1.0082  0.3543
 8442SOL    HW229783   1.033   5.853   6.893 -1.4144  0.9117 -0.6436
 8443SOL     OW29784   6.946  10.354   7.334 -0.1686  0.1163 -0.0940
 8443SOL    HW129785   7.029  10.358   7.381 -0.8114 -0.2913  1.1313
 8443SOL    HW229786   6.942  10.264   7.301  1.1173  0.9021 -2.5837
 8444SOL     OW29787   6.841  10.981   3.357  0.6903 -0.2521  0.6673
 8444SOL    HW129788   6.870  11.004   3.269  0.7436 -2.6111  0.0048
 8444SOL    HW229789   6.905  11.024   3.415  1.1737  0.5995 -0.4615
 8445SOL     OW29790   2.950   0.173   5.538  0.4966  0.2935  0.2544
 8445SOL    HW129791   3.015   0.173   5.468 -1.1964  2.2940 -1.4366
 8445SOL    HW229792   2.937   0.080   5.558  0.8305 -0.3840 -2.3063
 8446SOL     OW29793   9.207   9.240   1.485 -0.0366  0.3126 -0.1043
 8446SOL    HW129794   9.176   9.240   1.576 -0.1527 -0.6454 -0.1400
 8446SOL    HW229795   9.239   9.151   1.470  1.8272  0.9788 -0.3776
 8447SOL     OW29796  10.057   7.174   8.542 -0.7561  0.1494  0.5723
 8447SOL    HW129797  10.104   7.124   8.476 -0.0121  0.7547  0.6293
 8447SOL    HW229798  10.012   7.107   8.594 -2.2706 -0.2690 -1.1986
 8448SOL     OW29799  10.641  10.683   3.344 -0.1720  0.3749 -0.3941
 8448SOL    HW129800  10.627  10.710   3.253 -0.8649 -1.4405 -0.8699
 8448SOL    HW229801  10.733  10.659   3.348 -0.5011 -1.1655 -1.1272
 8449SOL     OW29802  10.774   1.152   4.230 -0.7748  0.1658  0.2540
 8449SOL    HW129803  10.776   1.104   4.147 -0.7244  3.1089 -1.5934
 8449SOL    HW229804  10.682   1.151   4.255 -0.8371 -0.5069  0.0380
 8450SOL     OW29805   0.913   9.281   7.154 -0.0968  0.5168 -0.7085
 8450SOL    HW129806   0.862   9.343   7.205  2.3666  1.2025  1.1347
 8450SOL    HW229807   0.928   9.324   7.071 -0.5726  1.2757 -0.4111
 8451SOL     OW29808  10.877   9.318   8.018  0.2682 -0.2261  0.4628
 8451SOL    HW129809  10.863   9.365   7.936  0.1493 -1.0474  0.0049
 8451SOL    HW229810  10.890   9.387   8.083  0.9223  0.4267 -0.3403
 8452SOL     OW29811   4.451   5.295   1.585  0.2044  0.0675  0.4588
 8452SOL    HW129812   4.495   5.226   1.536 -0.5735 -2.0249  2.5300
 8452SOL    HW229813   4.497   5.297   1.669 -1.0695  0.6736  1.1680
 8453SOL     OW29814   6.181   4.054   8.892 -0.3069 -0.3799 -0.0609
 8453SOL    HW129815   6.158   3.963   8.911  2.3547 -0.9253  0.9828
 8453SOL    HW229816   6.229   4.050   8.809 -0.4975  0.1442 -0.2029
 8454SOL     OW29817   7.897   8.944  10.057  0.0414 -0.0157 -0.5554
 8454SOL    HW129818   7.878   8.866  10.005  1.3508 -0.4954 -0.3407
 8454SOL    HW229819   7.835   8.940  10.129 -0.2082 -0.6133 -0.7977
 8455SOL     OW29820  10.154   4.337   7.143  0.0889 -0.4802  0.2317
 8455SOL    HW129821  10.069   4.342   7.188 -0.1256  0.4324 -0.2496
 8455SOL    HW229822  10.217   4.325   7.214 -0.2987  0.3540  0.7350
 8456SOL     OW29823   3.128   3.410   5.344 -0.1745  0.0918 -0.4008
 8456SOL    HW129824   3.060   3.448   5.289 -0.3891  0.7482  0.2915
 8456SOL    HW229825   3.138   3.321   5.312 -1.0429  0.1282 -0.8028
 8457SOL     OW29826   9.873   2.969   3.160  0.6441  0.3974 -0.3366
 8457SOL    HW129827   9.857   3.064   3.164  0.2216  0.4996 -2.9099
 8457SOL    HW229828   9.869   2.948   3.067  2.0636 -1.9554  0.0606
 8458SOL     OW29829   0.531   8.783   7.515  0.3958 -0.0214  0.3763
 8458SOL    HW129830   0.569   8.702   7.479 -0.4584 -0.1447 -0.2706
 8458SOL    HW229831   0.526   8.842   7.441  0.4813  0.4369  0.7319
 8459SOL     OW29832  10.292   8.033   4.436 -0.4241 -0.5443  0.3821
 8459SOL    HW129833  10.257   8.070   4.517 -1.8181 -0.5046 -0.2124
 8459SOL    HW229834  10.215   8.018   4.381  0.5471  0.0660 -1.2133
 8460SOL     OW29835   8.014   6.187   9.342  0.0197  0.1988  0.6182
 8460SOL    HW129836   7.955   6.243   9.292 -0.4984  0.0712  1.0817
 8460SOL    HW229837   8.054   6.246   9.406  0.1493  0.2210  0.5157
 8461SOL     OW29838   9.694   9.127   1.345  0.2902 -0.3073  0.2911
 8461SOL    HW129839   9.649   9.173   1.274 -2.4141  0.8281  2.5266
 8461SOL    HW229840   9.755   9.192   1.380  0.0010 -0.0795  0.3812
 8462SOL     OW29841   7.199   8.971   2.760  0.2811 -0.1209  0.1187
 8462SOL    HW129842   7.203   8.893   2.705 -1.4630 -0.0227 -0.2048
 8462SOL    HW229843   7.192   9.044   2.699 -0.0273  0.1336  0.4512
 8463SOL     OW29844   3.485   0.401  10.041 -0.1963  1.1924  0.2112
 8463SOL    HW129845   3.407   0.454  10.020 -0.2844  1.5422  1.3758
 8463SOL    HW229846   3.536   0.457  10.099  0.5617  0.6595  0.0577
 8464SOL     OW29847   5.383   2.591   0.482 -0.2380 -0.1683  0.1115
 8464SOL    HW129848   5.434   2.510   0.489 -0.5371 -0.4332 -0.7094
 8464SOL    HW229849   5.294   2.565   0.508 -0.1366  0.1113  0.7535
 8465SOL     OW29850   9.652  10.253  10.074 -0.1566  0.4917 -0.0008
 8465SOL    HW129851   9.726  10.268  10.016  0.1689 -0.3597  0.1827
 8465SOL    HW229852   9.650  10.329  10.132  1.3959 -0.0813  0.8587
 8466SOL     OW29853   5.771   4.980   9.644 -0.0444 -0.1794 -0.1199
 8466SOL    HW129854   5.851   4.997   9.593  0.6447 -0.9911  0.6618
 8466SOL    HW229855   5.731   5.066   9.654  0.4411  0.1639 -0.9951
 8467SOL     OW29856   5.089   9.714   1.130  0.0143  0.4291  0.0039
 8467SOL    HW129857   5.166   9.762   1.159  0.5148 -0.8647  0.9529
 8467SOL    HW229858   5.053   9.676   1.210 -0.0333 -1.1809 -0.7304
 8468SOL     OW29859  10.295   0.866   2.718 -0.1624 -0.0569 -0.1757
 8468SOL    HW129860  10.364   0.873   2.784 -0.4478  1.4676  0.0006
 8468SOL    HW229861  10.297   0.774   2.691  1.3388 -0.2426  0.4530
 8469SOL     OW29862  10.969  10.334   8.154  0.8539 -0.2864 -0.1049
 8469SOL    HW129863  10.931  10.263   8.101  1.2246  0.3805 -1.3209
 8469SOL    HW229864  11.025  10.290   8.217  0.9124 -1.0971 -0.7038
 8470SOL     OW29865   9.483   4.590   0.772  0.1585  0.0176  0.1790
 8470SOL    HW129866   9.440   4.518   0.818 -1.3252  0.1162 -0.9892
 8470SOL    HW229867   9.554   4.549   0.722 -0.6419 -0.6408 -0.4364
 8471SOL     OW29868   3.267  10.544   1.416 -0.1308  0.4265  0.0639
 8471SOL    HW129869   3.323  10.467   1.418 -1.9420 -0.9559 -0.4670
 8471SOL    HW229870   3.328  10.618   1.416  1.6413 -0.9780  0.8026
 8472SOL     OW29871   9.616   2.988   0.193  0.1983  0.1613 -0.0026
 8472SOL    HW129872   9.550   3.028   0.136  1.0321  1.0058 -0.4070
 8472SOL    HW229873   9.681   3.057   0.207  0.1420 -0.0963  1.8031
 8473SOL     OW29874   6.460   5.574   0.380 -0.0310 -0.2484 -0.8033
 8473SOL    HW129875   6.531   5.542   0.435 -0.6864  2.5226  1.9670
 8473SOL    HW229876   6.384   5.523   0.408 -0.0698  0.1479 -0.1675
 8474SOL     OW29877  10.023   1.104   1.085 -0.2832  0.0148  0.3285
 8474SOL    HW129878  10.008   1.168   1.015  3.5301 -0.3721 -1.0412
 8474SOL    HW229879  10.019   1.019   1.041 -0.5971 -0.4174  1.1742
 8475SOL     OW29880   5.732   7.154   4.388 -0.0367  0.1628 -0.0547
 8475SOL    HW129881   5.658   7.128   4.442  2.1995 -1.7343  2.3679
 8475SOL    HW229882   5.778   7.219   4.440  1.0948 -0.1929 -0.5781
 8476SOL     OW29883   3.603   8.698   0.165  0.0754  0.1532 -0.5457
 8476SOL    HW129884   3.561   8.727   0.084 -1.1514  1.5540  0.5421
 8476SOL    HW229885   3.534   8.652   0.213  0.6226 -0.1580 -0.0398
 8477SOL     OW29886   2.819   9.702   0.369  0.5399 -0.6773 -0.1545
 8477SOL    HW129887   2.731   9.740   0.368  0.7934 -0.0600  0.3400
 8477SOL    HW229888   2.877   9.776   0.351  0.9342 -1.1966 -1.1370
 8478SOL     OW29889   4.716   5.721   0.358 -0.0875 -0.2204 -1.1641
 8478SOL    HW129890   4.622   5.705   0.353  0.2014 -2.7198 -0.2841
 8478SOL    HW229891   4.724   5.816   0.364 -2.6256  0.0094 -0.0448
 8479SOL     OW29892  10.877   6.763   5.110 -0.1842 -0.0176 -0.2673
 8479SOL    HW129893  10.785   6.779   5.130 -0.3505 -3.0558  2.2008
 8479SOL    HW229894  10.901   6.689   5.165  3.2473 -0.6198 -2.2667
 8480SOL     OW29895   8.669   9.333  10.075 -0.0503  0.9394 -0.4482
 8480SOL    HW129896   8.681   9.242  10.048 -0.3121  0.8401 -0.2375
 8480SOL    HW229897   8.758   9.369  10.078 -0.0291  1.0083 -1.5960
 8481SOL     OW29898   3.475   2.739   2.889  0.9657 -0.1306 -0.4773
 8481SOL    HW129899   3.489   2.776   2.801  1.4783  1.4873  0.2366
 8481SOL    HW229900   3.402   2.789   2.925  0.6313 -0.9142 -0.0365
 8482SOL     OW29901   5.740   3.153   0.863 -0.2439 -0.1584 -0.0480
 8482SOL    HW129902   5.804   3.091   0.829 -1.8949 -1.9201 -0.0779
 8482SOL    HW229903   5.766   3.167   0.954  0.8115  0.0400 -0.3679
 8483SOL     OW29904   2.797  10.855   8.544  0.1403 -0.0378 -0.2349
 8483SOL    HW129905   2.788  10.831   8.636  0.4840 -3.5367 -0.9800
 8483SOL    HW229906   2.884  10.893   8.537 -0.5235  1.8603  1.1037
 8484SOL     OW29907   2.328   4.382   5.419 -0.0927  0.4730  0.2174
 8484SOL    HW129908   2.308   4.289   5.432 -0.6079  0.4933 -0.4420
 8484SOL    HW229909   2.375   4.407   5.499  1.1759 -0.6710 -0.1309
 8485SOL     OW29910   4.296   8.614   9.375 -0.4229  0.3494  0.1083
 8485SOL    HW129911   4.283   8.703   9.343  2.4357  0.6710 -0.3854
 8485SOL    HW229912   4.311   8.562   9.295 -0.4565 -0.2666  0.4964
 8486SOL     OW29913   9.365   9.655  10.855 -0.3524 -0.7349  0.5124
 8486SOL    HW129914   9.324   9.736  10.886 -1.4082 -1.0268 -0.0535
 8486SOL    HW229915   9.403   9.616  10.934 -1.3775 -0.5634  1.1112
 8487SOL     OW29916   6.071   5.095   7.333  0.4007  0.4818 -0.1850
 8487SOL    HW129917   6.144   5.035   7.348  0.0162  0.0863  0.1426
 8487SOL    HW229918   6.012   5.080   7.407 -0.0317  0.7663 -0.4631
 8488SOL     OW29919   3.283   3.761   9.143 -0.2561  0.4984  0.0053
 8488SOL    HW129920   3.296   3.702   9.069 -2.0549  0.6798 -0.5224
 8488SOL    HW229921   3.274   3.704   9.219  0.8288  0.2724 -0.0179
 8489SOL     OW29922   2.955   2.650   8.002  0.1223 -0.1504  0.0435
 8489SOL    HW129923   2.882   2.678   7.946  0.3550 -0.1257 -0.2465
 8489SOL    HW229924   3.032   2.695   7.966  0.1824  0.3082  0.7213
 8490SOL     OW29925  10.083   4.872   5.181 -0.0999  0.5055 -0.0586
 8490SOL    HW129926  10.164   4.846   5.224  0.1681 -0.5569 -1.1617
 8490SOL    HW229927  10.069   4.806   5.114 -1.2558  1.3337 -0.6650
 8491SOL     OW29928   0.466   1.261   0.717  0.3348  0.6630 -0.2081
 8491SOL    HW129929   0.443   1.168   0.721  1.5407  0.3484 -0.2523
 8491SOL    HW229930   0.451   1.294   0.806  1.4007  0.0479  0.2107
 8492SOL     OW29931   8.076   8.085   4.626  0.1389 -0.4870 -0.5463
 8492SOL    HW129932   8.114   8.046   4.548  2.2729 -0.3009  0.3388
 8492SOL    HW229933   7.989   8.046   4.633 -0.4305  0.0646 -3.3975
 8493SOL     OW29934   5.877   6.206   4.378 -0.0480 -0.1431  0.2583
 8493SOL    HW129935   5.852   6.288   4.420 -0.6117 -0.3109  0.2481
 8493SOL    HW229936   5.953   6.230   4.324  1.2225 -0.0895  1.9886
 8494SOL     OW29937   2.705   5.395   1.926 -0.2312  0.6850 -0.0810
 8494SOL    HW129938   2.624   5.353   1.896  0.2641 -0.0872 -0.3596
 8494SOL    HW229939   2.769   5.377   1.857  0.9806 -1.2552  1.4395
 8495SOL     OW29940   0.838   7.415   0.166  0.6021  0.0359 -0.1106
 8495SOL    HW129941   0.903   7.347   0.150  0.3922 -0.3822  0.8000
 8495SOL    HW229942   0.754   7.369   0.164  0.4878  0.1805  0.9700
 8496SOL     OW29943   0.242   7.574   9.912  0.1880  0.5315  0.1831
 8496SOL    HW129944   0.199   7.605   9.832 -1.4526  0.1614  0.8807
 8496SOL    HW229945   0.231   7.479   9.910  1.2944  0.3873  0.2253
 8497SOL     OW29946   3.367   4.844   0.189 -0.3902  0.2684 -0.5230
 8497SOL    HW129947   3.367   4.923   0.243 -1.0212 -0.3151  0.3769
 8497SOL    HW229948   3.434   4.788   0.228 -1.5497 -0.5726  0.3376
 8498SOL     OW29949   1.130   5.866   0.289  0.0438 -0.2991  0.2093
 8498SOL    HW129950   1.223   5.871   0.313  0.0273 -1.6597  0.6529
 8498SOL    HW229951   1.094   5.800   0.348 -0.8791 -0.8966 -0.9765
 8499SOL     OW29952   1.581   9.478   4.364 -0.4013 -1.2740 -0.2625
 8499SOL    HW129953   1.506   9.429   4.330  0.0859 -1.7395 -0.6917
 8499SOL    HW229954   1.558   9.570   4.351 -1.0548 -1.4022 -0.0400
 8500SOL     OW29955   0.654   8.185   5.075 -0.2881  0.4444  0.6648
 8500SOL    HW129956   0.720   8.188   5.144 -1.0460  2.4542  1.3560
 8500SOL    HW229957   0.670   8.263   5.023  1.5598 -1.9769 -2.8201
 8501SOL     OW29958   6.011   0.438   0.489 -0.4740  0.5318  0.4429
 8501SOL    HW129959   6.027   0.385   0.567  1.1906 -1.0897 -0.9101
 8501SOL    HW229960   6.097   0.452   0.451 -1.0654  2.7415 -0.2629
 8502SOL     OW29961   1.138   3.755   6.462 -0.3166 -0.1930  0.3779
 8502SOL    HW129962   1.046   3.756   6.435 -0.8221  1.4562  1.9917
 8502SOL    HW229963   1.143   3.686   6.528 -0.0805 -1.1257 -0.5808
 8503SOL     OW29964   0.437   2.118   1.280  0.0243 -0.1501 -0.2203
 8503SOL    HW129965   0.378   2.071   1.220  0.5551  0.5680 -1.3449
 8503SOL    HW229966   0.393   2.202   1.294  0.0516 -0.2007  0.1639
 8504SOL     OW29967   0.882  10.546   6.502 -0.0374  0.5304 -0.0600
 8504SOL    HW129968   0.818  10.512   6.565 -1.1753  3.2115  0.3775
 8504SOL    HW229969   0.966  10.541   6.549 -0.5192  0.3843  0.8115
 8505SOL     OW29970  10.501   6.708  11.062  0.0462  0.1500 -0.4313
 8505SOL    HW129971  10.517   6.635  11.002 -0.0305 -0.0762 -0.1765
 8505SOL    HW229972  10.582   6.759  11.060  0.9785 -1.2143  1.1733
 8506SOL     OW29973   7.224   7.363   5.340  0.1184  0.0568 -0.4485
 8506SOL    HW129974   7.156   7.429   5.331  0.6584  0.5404 -1.0250
 8506SOL    HW229975   7.221   7.314   5.258 -0.3710 -0.7361  0.0266
 8507SOL     OW29976   4.637   5.198   1.008 -0.1280 -0.5810 -0.9544
 8507SOL    HW129977   4.642   5.285   0.969 -0.2252 -0.7339 -1.3111
 8507SOL    HW229978   4.660   5.138   0.937 -2.6689 -1.0379 -1.4727
 8508SOL     OW29979   3.867   9.857   2.454 -0.0862 -0.1530 -0.0745
 8508SOL    HW129980   3.798   9.832   2.393  0.0527 -1.5852  0.3326
 8508SOL    HW229981   3.948   9.845   2.405  0.0274 -1.3320  0.3674
 8509SOL     OW29982  10.908   2.016   0.288  0.6697  0.2102  0.4896
 8509SOL    HW129983  10.970   2.041   0.356  0.9350 -0.1109  0.3706
 8509SOL    HW229984  10.875   1.930   0.316  0.6247  0.1710  0.3179
 8510SOL     OW29985   8.691   8.640   3.383  0.0999 -0.1652  0.0448
 8510SOL    HW129986   8.620   8.701   3.405  1.0883  0.8505  0.4803
 8510SOL    HW229987   8.730   8.616   3.467  1.0573  0.2645 -0.2596
 8511SOL     OW29988   2.420   4.246   8.038 -0.2346 -0.1784 -0.3467
 8511SOL    HW129989   2.511   4.244   8.066 -0.5247 -0.5469  0.6361
 8511SOL    HW229990   2.397   4.339   8.035 -0.7858 -0.0999  2.8313
 8512SOL     OW29991   9.482   7.065  10.544 -0.2297  0.2085  0.1058
 8512SOL    HW129992   9.512   6.998  10.483 -1.3779 -0.4531  0.2457
 8512SOL    HW229993   9.563   7.100  10.582  0.4462 -0.1795 -0.9164
 8513SOL     OW29994   8.643   8.013   2.536 -0.3160  0.4737  0.7458
 8513SOL    HW129995   8.622   8.030   2.628  0.4264 -0.3309  1.0850
 8513SOL    HW229996   8.717   7.952   2.539 -2.2847 -2.1905 -0.3344
 8514SOL     OW29997   7.104   9.841   3.163 -0.1952 -0.1931  0.3093
 8514SOL    HW129998   7.099   9.880   3.250 -1.9536  0.6478 -0.1157
 8514SOL    HW229999   7.193   9.857   3.134 -0.1987  1.4300  1.0964
 8515SOL     OW30000   6.049   9.871   7.232  0.0124 -0.1428 -0.4492
 8515SOL    HW130001   6.031   9.797   7.290 -0.9660  0.2835 -0.1994
 8515SOL    HW230002   6.062   9.945   7.292 -0.0567  0.1026 -0.7406
 8516SOL     OW30003   2.366   3.104   1.955 -0.1999 -0.0250 -0.5533
 8516SOL    HW130004   2.446   3.068   1.992  0.5218 -2.2453 -3.8467
 8516SOL    HW230005   2.296   3.049   1.989  0.2900 -1.1771 -1.3677
 8517SOL     OW30006   3.982   2.625   0.892 -0.4570 -0.0981  0.1852
 8517SOL    HW130007   3.962   2.718   0.894 -1.3211 -0.2761  1.7825
 8517SOL    HW230008   4.065   2.618   0.846  0.1172  1.5535  0.9325
 8518SOL     OW30009   8.039   1.734   0.999 -0.5148  0.2457  0.7098
 8518SOL    HW130010   8.083   1.681   0.933 -0.0177  0.7309  0.6487
 8518SOL    HW230011   7.994   1.802   0.950  0.5466  1.1121  0.9131
 8519SOL     OW30012   4.871   1.750   9.693  0.1704 -0.6993  0.5137
 8519SOL    HW130013   4.847   1.743   9.601 -2.3605 -2.2640  1.1836
 8519SOL    HW230014   4.824   1.827   9.725  2.2264  0.7554  0.2704
 8520SOL     OW30015   2.331   8.838   5.204 -0.2708  0.0312  0.3512
 8520SOL    HW130016   2.422   8.807   5.195 -0.7624 -1.7827  1.1485
 8520SOL    HW230017   2.295   8.784   5.274 -2.1840  0.2167 -0.4483
 8521SOL     OW30018   2.086   1.219   1.672  0.7319  0.0156 -0.4880
 8521SOL    HW130019   2.170   1.243   1.633  2.0088 -4.1682 -0.7903
 8521SOL    HW230020   2.058   1.141   1.624 -2.5598  0.2828  0.7198
 8522SOL     OW30021   2.232   7.291  10.988 -0.0731  0.3042  0.5866
 8522SOL    HW130022   2.306   7.230  10.991 -0.4608 -0.2813 -0.7622
 8522SOL    HW230023   2.264   7.365  10.936 -0.5529 -0.1565 -0.3905
 8523SOL     OW30024   3.283   5.445   7.719 -0.0986  0.1964 -0.2106
 8523SOL    HW130025   3.260   5.358   7.752 -2.0864  0.2006 -1.4253
 8523SOL    HW230026   3.303   5.431   7.626 -0.5044  1.0348 -0.4320
 8524SOL     OW30027   7.609   0.877   3.978  0.0876 -0.3541  0.3638
 8524SOL    HW130028   7.662   0.821   3.921  0.8569  1.6199 -0.9906
 8524SOL    HW230029   7.532   0.898   3.925 -0.1202 -0.0300  0.7926
 8525SOL     OW30030   0.012   5.248   2.311  0.4655  0.1036 -0.1199
 8525SOL    HW130031   0.106   5.233   2.319  0.4803  0.1557 -0.2008
 8525SOL    HW230032  -0.026   5.160   2.305  0.3453 -0.0113  1.7064
 8526SOL     OW30033   9.248   2.741   1.820  0.1378  0.1942 -0.4874
 8526SOL    HW130034   9.170   2.743   1.764 -0.3535 -1.2593  0.1138
 8526SOL    HW230035   9.283   2.652   1.809  1.2490  0.5683 -0.1031
 8527SOL     OW30036  10.551   5.959   9.015 -0.2649 -0.2550 -0.4153
 8527SOL    HW130037  10.470   5.969   9.065 -0.0635  0.1336 -0.1633
 8527SOL    HW230038  10.617   5.936   9.081 -0.2065 -0.7585 -0.6455
 8528SOL     OW30039   8.367   5.220   9.285 -0.2824  0.3216  0.3683
 8528SOL    HW130040   8.406   5.230   9.198 -2.1595  1.3681 -0.4007
 8528SOL    HW230041   8.390   5.131   9.311  0.1840 -0.0756 -1.2738
 8529SOL     OW30042   3.606   6.677   2.994 -0.6784 -0.2833 -0.1596
 8529SOL    HW130043   3.700   6.685   2.982 -0.9606  0.7698 -2.0797
 8529SOL    HW230044   3.594   6.593   3.039  1.0987 -0.9755 -0.9026
 8530SOL     OW30045   9.561   2.002   3.950  0.5599 -0.0231 -0.1268
 8530SOL    HW130046   9.606   1.953   4.019 -0.2145  0.7240  0.9614
 8530SOL    HW230047   9.468   1.981   3.964  0.3859  0.2482 -0.8647
 8531SOL     OW30048   1.574   9.410   0.578 -0.7165 -0.1077 -0.1800
 8531SOL    HW130049   1.547   9.322   0.607  0.4787 -1.1177 -1.9265
 8531SOL    HW230050   1.635   9.440   0.645 -0.3978 -1.0266 -0.0483
 8532SOL     OW30051   1.592   1.591   5.366 -0.5850  0.3556  0.1779
 8532SOL    HW130052   1.658   1.525   5.388  0.2642  0.9506 -0.5138
 8532SOL    HW230053   1.643   1.671   5.349 -1.4099  0.6531 -1.0370
 8533SOL     OW30054  10.689   6.069   9.928  0.7321  0.7022 -0.2201
 8533SOL    HW130055  10.761   6.118   9.967  1.5621 -0.7471  0.1444
 8533SOL    HW230056  10.670   5.999   9.991  1.4056 -1.0784 -1.8794
 8534SOL     OW30057   7.892   9.436   8.688  0.4924  0.2117  0.2046
 8534SOL    HW130058   7.883   9.366   8.753 -0.0143 -0.0772 -0.1697
 8534SOL    HW230059   7.984   9.433   8.662  0.3651 -0.6570 -0.1805
 8535SOL     OW30060   5.267   0.027   3.363 -0.1232 -0.1068  0.1589
 8535SOL    HW130061   5.339   0.021   3.425 -0.3761  1.0315  0.5912
 8535SOL    HW230062   5.216  -0.053   3.377  0.9841 -0.8801 -0.0898
 8536SOL     OW30063   8.704   0.102   8.081 -0.2740  0.2894  0.1502
 8536SOL    HW130064   8.658   0.172   8.127 -1.9563 -0.6892  0.0408
 8536SOL    HW230065   8.689   0.024   8.135  0.0841 -0.3288 -0.6239
 8537SOL     OW30066   5.919   0.434   3.269 -0.2204  0.3655 -0.5410
 8537SOL    HW130067   5.954   0.370   3.331 -0.3787 -0.1899 -1.0177
 8537SOL    HW230068   5.920   0.389   3.185 -1.0273  0.7296 -0.7570
 8538SOL     OW30069   0.958   1.700   6.367 -0.2918  0.1846  0.3911
 8538SOL    HW130070   0.917   1.683   6.452  2.2815  0.8174  1.9060
 8538SOL    HW230071   0.971   1.795   6.367 -0.8980  0.2823 -1.0713
 8539SOL     OW30072   9.551   4.244   1.734 -0.1606  0.3926  0.3020
 8539SOL    HW130073   9.461   4.274   1.726  0.2978  1.3913 -2.2025
 8539SOL    HW230074   9.560   4.175   1.668  1.7351  2.8153 -2.2337
 8540SOL     OW30075   2.711   3.829  10.365 -0.4515  0.3826 -0.3322
 8540SOL    HW130076   2.662   3.894  10.416  0.1066  0.9744 -0.5347
 8540SOL    HW230077   2.793   3.873  10.343  0.9278 -1.1416  1.4009
 8541SOL     OW30078   0.813  10.489   6.254  0.2151  0.3444  0.6705
 8541SOL    HW130079   0.834  10.498   6.347  0.3198  0.3604  0.6455
 8541SOL    HW230080   0.749  10.417   6.250  0.5600  0.0358  0.7055
 8542SOL     OW30081   2.838   7.606   2.181  0.4898 -0.6378  0.4335
 8542SOL    HW130082   2.918   7.658   2.174 -0.2517  0.4189 -0.5481
 8542SOL    HW230083   2.847   7.539   2.113 -0.1054  0.4147 -0.7111
 8543SOL     OW30084   4.354   3.481   4.177 -0.1815  0.2498 -0.8724
 8543SOL    HW130085   4.331   3.466   4.268 -0.5505  0.0614 -0.9912
 8543SOL    HW230086   4.389   3.570   4.175  0.8728 -0.1411 -0.3617
 8544SOL     OW30087   1.132   0.699   8.061  0.0972 -0.3069  0.8822
 8544SOL    HW130088   1.045   0.668   8.087 -0.9556  2.0136  0.3721
 8544SOL    HW230089   1.138   0.677   7.968 -0.4736  0.5437  0.6253
 8545SOL     OW30090   7.884  11.022   1.513  0.0591 -0.1628 -0.2833
 8545SOL    HW130091   7.805  11.013   1.566 -0.0812  0.7588 -0.3164
 8545SOL    HW230092   7.851  11.027   1.423  0.4056 -3.7584 -0.7229
 8546SOL     OW30093   9.868   1.384   6.426 -0.1803 -0.2554 -0.1337
 8546SOL    HW130094   9.777   1.380   6.456 -0.0279 -2.1411  0.1542
 8546SOL    HW230095   9.870   1.331   6.347  0.6303 -0.0694 -0.2470
 8547SOL     OW30096   8.833   5.638   1.273 -0.7040  0.2643 -0.0727
 8547SOL    HW130097   8.843   5.733   1.282 -1.6685  0.4511 -0.8996
 8547SOL    HW230098   8.817   5.607   1.363  0.0616  0.8114  0.2648
 8548SOL     OW30099   0.122   4.235   0.360 -0.1485 -0.3654 -0.1760
 8548SOL    HW130100   0.152   4.144   0.371  0.4310 -0.2185 -0.5060
 8548SOL    HW230101   0.118   4.248   0.265 -0.2796 -0.0571 -0.1298
 8549SOL     OW30102   7.219   3.109   5.766 -0.3394 -0.2664  0.2724
 8549SOL    HW130103   7.305   3.131   5.729 -0.8753  0.1617 -0.7792
 8549SOL    HW230104   7.202   3.020   5.736 -0.6784  0.0016 -0.3523
 8550SOL     OW30105   5.439   8.789   3.869 -0.1560  0.3178  0.9830
 8550SOL    HW130106   5.422   8.729   3.941 -0.4438  0.9712  1.4718
 8550SOL    HW230107   5.359   8.785   3.816  0.4626 -0.9556  0.1043
 8551SOL     OW30108   0.091   9.097   2.609  0.1853  0.0385 -0.7291
 8551SOL    HW130109   0.065   9.184   2.578 -1.1956  0.4159  1.2740
 8551SOL    HW230110   0.187   9.101   2.615  0.4116  0.3777 -3.4224
 8552SOL     OW30111   3.127   6.628   1.080 -0.7750 -0.1627 -0.8848
 8552SOL    HW130112   3.053   6.599   1.027 -0.6085 -0.0280 -1.1990
 8552SOL    HW230113   3.124   6.724   1.073 -0.7310 -0.1470 -0.6778
 8553SOL     OW30114  10.063   8.806   9.902 -0.1203  0.3597  0.1395
 8553SOL    HW130115  10.043   8.755   9.824 -1.7005  3.2564 -1.4881
 8553SOL    HW230116   9.991   8.788   9.963 -0.9548  0.9961 -0.6363
 8554SOL     OW30117   9.403   0.671   6.569  0.3285  0.1004  0.0155
 8554SOL    HW130118   9.496   0.665   6.592 -0.0134  0.0266  1.4577
 8554SOL    HW230119   9.382   0.764   6.578  0.3983  0.2176 -0.9285
 8555SOL     OW30120  10.626   2.602   4.730  0.2036 -0.0682 -0.1670
 8555SOL    HW130121  10.594   2.513   4.716  0.4977 -0.0667 -0.8807
 8555SOL    HW230122  10.549   2.651   4.760  0.0713 -0.5907  0.3497
 8556SOL     OW30123   7.722   0.767   0.397  0.4288 -0.2007  0.1873
 8556SOL    HW130124   7.724   0.823   0.474 -0.8467  0.7308 -0.4238
 8556SOL    HW230125   7.642   0.791   0.351 -0.0751 -2.3966 -0.2217
 8557SOL     OW30126  10.426   0.399   7.044 -0.1557 -0.0980 -0.1821
 8557SOL    HW130127  10.432   0.396   6.949 -0.8444  0.2617 -0.2401
 8557SOL    HW230128  10.512   0.432   7.072  1.0131 -2.6243 -0.5068
 8558SOL     OW30129   0.566   0.911   9.374  0.5417 -1.1218  0.4588
 8558SOL    HW130130   0.521   0.975   9.319 -2.3162 -2.2591  1.2485
 8558SOL    HW230131   0.532   0.927   9.462  0.8769 -2.7465  0.9222
 8559SOL     OW30132   6.428   4.628   1.965 -0.4302 -0.3760  0.1320
 8559SOL    HW130133   6.346   4.673   1.941 -1.1349 -1.1208  1.0510
 8559SOL    HW230134   6.408   4.586   2.049  1.2140  0.2486  0.8828
 8560SOL     OW30135   6.854   8.971   3.058  0.0337  0.3082  0.2303
 8560SOL    HW130136   6.895   9.025   3.126  0.0880  0.7952 -0.1878
 8560SOL    HW230137   6.779   8.930   3.102 -1.3165  2.4211  0.0093
 8561SOL     OW30138   5.020   5.484   3.349  0.3459  0.3251  0.0610
 8561SOL    HW130139   4.930   5.452   3.338 -0.4931  2.6322 -0.3649
 8561SOL    HW230140   5.016   5.535   3.430  1.8373 -1.1982  1.1657
 8562SOL     OW30141   2.853  10.250   6.771  0.3108 -0.3446  0.4595
 8562SOL    HW130142   2.878  10.262   6.680 -0.4224  2.4165  0.5285
 8562SOL    HW230143   2.936  10.247   6.819  0.6757 -0.9386 -0.1925
 8563SOL     OW30144   3.234   4.549  10.555  0.2543  0.5146  0.2791
 8563SOL    HW130145   3.298   4.617  10.533 -0.7658  0.9457 -1.6504
 8563SOL    HW230146   3.206   4.570  10.644  0.4172  2.2711 -0.0502
 8564SOL     OW30147   7.565   6.736   6.538 -0.4849 -0.2914 -0.0322
 8564SOL    HW130148   7.631   6.724   6.606 -1.5023 -1.3434  0.8156
 8564SOL    HW230149   7.585   6.821   6.499 -0.1894  0.5947  1.9555
 8565SOL     OW30150   9.818   2.086  10.178  0.7049  0.5145  0.0019
 8565SOL    HW130151   9.735   2.098  10.130  0.6892  0.2322 -0.0402
 8565SOL    HW230152   9.847   2.175  10.196  0.1121  0.6152  0.4990
 8566SOL     OW30153   2.146   2.066   6.996  0.2306 -0.3429 -0.4069
 8566SOL    HW130154   2.160   1.979   6.959 -0.2139 -0.7066  0.2585
 8566SOL    HW230155   2.055   2.087   6.973 -0.3377 -0.9403  1.1782
 8567SOL     OW30156   0.952   7.737   9.489 -0.2266  0.1746  0.3378
 8567SOL    HW130157   0.886   7.703   9.428 -1.0194  2.9588 -0.5376
 8567SOL    HW230158   0.916   7.821   9.518  1.7227  0.5086  2.0106
 8568SOL     OW30159   5.616   9.943  10.035  0.4793  0.3793  0.1958
 8568SOL    HW130160   5.712   9.943  10.037  0.4774  1.0379  0.4323
 8568SOL    HW230161   5.592   9.875  10.098  0.7920 -0.3301 -0.4333
 8569SOL     OW30162   3.020   9.768   0.016 -0.0981  0.2302 -0.3462
 8569SOL    HW130163   2.972   9.737   0.093 -0.2083  0.6535 -0.2457
 8569SOL    HW230164   2.972   9.733  -0.058 -0.8107  1.0082 -0.2586
 8570SOL     OW30165   6.580   8.676   4.083 -0.2377  0.1923 -0.5974
 8570SOL    HW130166   6.512   8.743   4.093 -0.2089  0.0499  0.6996
 8570SOL    HW230167   6.632   8.706   4.008 -0.4705  1.4211 -0.3015
 8571SOL     OW30168   6.785   9.158   4.284  0.1712 -0.1482 -0.2505
 8571SOL    HW130169   6.692   9.161   4.261  0.4113  0.2187 -1.2592
 8571SOL    HW230170   6.801   9.066   4.305 -0.8361  0.1174  1.9018
 8572SOL     OW30171   4.829  10.065   5.611 -0.1529 -0.1961  0.1549
 8572SOL    HW130172   4.870  10.150   5.598  0.2740 -0.1945  1.4020
 8572SOL    HW230173   4.828  10.025   5.524 -0.6930  1.2144 -0.5120
 8573SOL     OW30174   9.009   7.410   2.907  0.2865 -1.7671  0.1866
 8573SOL    HW130175   9.055   7.453   2.979 -0.1420 -0.2287 -0.4161
 8573SOL    HW230176   9.063   7.429   2.830 -1.4465  0.3347 -0.5848
 8574SOL     OW30177   4.410   1.440   4.988  0.8764 -0.1104  0.0185
 8574SOL    HW130178   4.420   1.357   4.941  0.5127 -0.0941 -0.0944
 8574SOL    HW230179   4.375   1.415   5.074 -0.4693  0.0048 -0.4585
 8575SOL     OW30180  10.155   8.596   4.052 -0.2264 -0.8433 -0.2007
 8575SOL    HW130181  10.161   8.593   3.956  0.4376 -0.6369 -0.1697
 8575SOL    HW230182  10.062   8.613   4.069  0.0797  1.9985 -0.8848
 8576SOL     OW30183   7.286   1.952   3.075  0.2879 -0.6816  0.0216
 8576SOL    HW130184   7.264   2.038   3.113  1.7160 -0.4433  0.3938
 8576SOL    HW230185   7.297   1.969   2.982  1.5724 -0.2104  0.2347
 8577SOL     OW30186  11.049   2.573  10.565 -0.1411 -0.5020 -0.8855
 8577SOL    HW130187  11.074   2.586  10.656 -0.7133 -4.3039 -0.0415
 8577SOL    HW230188  10.981   2.639  10.550 -2.3231 -1.7354  2.5047
 8578SOL     OW30189   7.845   0.431   7.551 -0.0877 -0.4330  0.0140
 8578SOL    HW130190   7.826   0.338   7.554 -0.2447 -0.3766  2.2547
 8578SOL    HW230191   7.770   0.473   7.594  1.0007  0.5073  1.0882
 8579SOL     OW30192  10.716   5.301   1.452  0.0801  0.4698 -0.6058
 8579SOL    HW130193  10.796   5.351   1.433  0.1976  1.5153  2.2489
 8579SOL    HW230194  10.686   5.334   1.536 -1.8437 -1.8444 -0.2752
 8580SOL     OW30195   6.006   8.929   3.778 -0.4051 -0.0535 -0.2278
 8580SOL    HW130196   5.914   8.920   3.802 -0.2134  0.2291  0.6363
 8580SOL    HW230197   6.028   9.020   3.796  0.2069 -0.2683  0.1613
 8581SOL     OW30198   8.526   4.164   1.217  0.1304 -0.0728  0.5542
 8581SOL    HW130199   8.594   4.104   1.247  0.3858 -0.9117 -1.5559
 8581SOL    HW230200   8.572   4.246   1.201  0.4130 -0.2901  0.2590
 8582SOL     OW30201   3.803   8.882  11.007 -0.1593  0.3096 -0.3771
 8582SOL    HW130202   3.822   8.791  11.031 -0.4922  0.1871 -0.5641
 8582SOL    HW230203   3.743   8.874  10.932 -0.9578  0.6854  0.2171
 8583SOL     OW30204   3.113  10.822   8.660 -0.1501  0.4711 -0.1068
 8583SOL    HW130205   3.113  10.823   8.564 -0.3652  1.3612 -0.1091
 8583SOL    HW230206   3.171  10.749   8.683 -0.8465 -0.3735 -0.9085
 8584SOL     OW30207   6.414   2.463   6.202  0.2891  0.5214  0.2725
 8584SOL    HW130208   6.400   2.472   6.296  0.1577 -0.8846  0.4028
 8584SOL    HW230209   6.504   2.432   6.193 -0.1645 -0.8133  0.0519
 8585SOL     OW30210   7.255   0.383   1.186 -0.4141 -0.2561 -0.1080
 8585SOL    HW130211   7.183   0.319   1.187 -0.8979  0.2710  1.1592
 8585SOL    HW230212   7.230   0.447   1.253  0.8487  0.3722 -0.2256
 8586SOL     OW30213   7.671   1.243   6.126  0.4219 -0.0086 -0.5384
 8586SOL    HW130214   7.755   1.274   6.158 -0.1654  0.8833  0.2006
 8586SOL    HW230215   7.654   1.163   6.175  0.4176  0.3087 -0.0196
 8587SOL     OW30216   7.358  10.046   9.925  0.3513 -0.3271  0.5976
 8587SOL    HW130217   7.379   9.954   9.912  2.1621 -0.0300  1.1623
 8587SOL    HW230218   7.443  10.090   9.925 -0.5430  1.6176 -1.5361
 8588SOL     OW30219   9.120   3.229  10.167 -0.3716  0.1353  0.2990
 8588SOL    HW130220   9.174   3.304  10.142 -0.0830 -0.3438 -0.5310
 8588SOL    HW230221   9.114   3.235  10.263  1.5987 -0.1045  0.4727
 8589SOL     OW30222   7.534   7.739   7.365 -0.1845 -0.0942 -0.2688
 8589SOL    HW130223   7.585   7.741   7.446  0.6953  1.2659 -0.8348
 8589SOL    HW230224   7.558   7.655   7.325  5.8963  2.3660 -3.0654
 8590SOL     OW30225   9.114  10.970   3.337  0.3961  0.0807  0.2259
 8590SOL    HW130226   9.147  10.888   3.301  1.4734  1.0212 -1.0366
 8590SOL    HW230227   9.041  10.994   3.280  0.6666  0.4438  0.0239
 8591SOL     OW30228   1.095  10.969   3.100 -0.2939  0.4404 -0.2543
 8591SOL    HW130229   1.166  10.979   3.037 -0.0738  1.1194  0.0809
 8591SOL    HW230230   1.087  10.875   3.113  1.5570  0.3834  0.8106
 8592SOL     OW30231   0.172  10.969   9.760  0.7758  0.7112  0.1287
 8592SOL    HW130232   0.143  11.022   9.686  0.6701 -0.0178 -0.3670
 8592SOL    HW230233   0.196  10.885   9.720  0.3630  0.1857  0.9788
 8593SOL     OW30234   3.591   5.375   7.656  0.0439 -0.0230  0.2026
 8593SOL    HW130235   3.682   5.350   7.671 -0.2632 -0.9639  0.5779
 8593SOL    HW230236   3.567   5.330   7.575 -0.1372  0.0835  0.1973
 8594SOL     OW30237   5.023   5.033   6.882 -0.7160 -0.2176 -0.2179
 8594SOL    HW130238   5.075   5.088   6.824 -2.8029  1.4210 -0.6750
 8594SOL    HW230239   4.969   4.981   6.823  0.5020 -2.0854  0.2371
 8595SOL     OW30240   2.150   0.923   6.856  0.1575  0.2373 -0.4882
 8595SOL    HW130241   2.200   1.004   6.867 -0.1969  0.4502 -0.4153
 8595SOL    HW230242   2.077   0.932   6.918 -0.0053 -0.0377 -0.6381
 8596SOL     OW30243   8.417   8.940   9.245  0.0007  0.4503 -0.2123
 8596SOL    HW130244   8.462   9.022   9.227 -2.6715  2.7137  2.2939
 8596SOL    HW230245   8.331   8.949   9.203 -0.3140 -1.1055  0.0263
 8597SOL     OW30246   5.557   9.908   2.712  0.1731 -0.4763 -0.3778
 8597SOL    HW130247   5.651   9.929   2.712  0.0993  0.2019  2.1935
 8597SOL    HW230248   5.554   9.812   2.712  0.9350 -0.5209  0.3137
 8598SOL     OW30249   1.637   6.785   9.426  0.1280 -0.1597 -0.5170
 8598SOL    HW130250   1.555   6.796   9.475 -0.3329 -0.8297 -1.1194
 8598SOL    HW230251   1.609   6.774   9.335  0.9374  0.4097 -0.8511
 8599SOL     OW30252  10.680   4.859   7.961  0.1401 -0.5834 -0.0931
 8599SOL    HW130253  10.771   4.881   7.942  0.6077 -2.7527 -0.7300
 8599SOL    HW230254  10.661   4.785   7.902 -1.8702 -0.5071  0.3891
 8600SOL     OW30255   6.938   4.564   8.694  0.0569 -0.2417  0.0563
 8600SOL    HW130256   7.026   4.596   8.673  0.0807 -1.0453 -1.2090
 8600SOL    HW230257   6.880   4.614   8.636 -0.2941  0.0718  0.6712
 8601SOL     OW30258   3.255   7.007   8.755 -0.0490  0.3535  0.1427
 8601SOL    HW130259   3.184   7.061   8.722  0.5303  2.1508  1.6643
 8601SOL    HW230260   3.304   7.064   8.814  2.5553 -0.8536 -0.6744
 8602SOL     OW30261   0.512   9.422   4.276 -0.3854  0.8192  0.1719
 8602SOL    HW130262   0.554   9.468   4.203 -0.7675 -1.4122 -1.5446
 8602SOL    HW230263   0.571   9.348   4.294 -1.8326 -0.4257 -0.0114
 8603SOL     OW30264   7.043   6.737   5.626  0.5658  0.3029 -0.1990
 8603SOL    HW130265   7.134   6.713   5.639  1.0186  0.4758 -2.5941
 8603SOL    HW230266   7.046   6.814   5.569 -1.0695  0.9030  0.4562
 8604SOL     OW30267   1.600  10.827   4.801  0.2873  0.2407  0.1376
 8604SOL    HW130268   1.542  10.768   4.849 -0.5502  0.2921 -0.7772
 8604SOL    HW230269   1.581  10.809   4.709  1.3694  0.6244 -0.1776
 8605SOL     OW30270   1.808   9.690   3.817  0.7243 -0.3567  0.0560
 8605SOL    HW130271   1.870   9.756   3.848  0.3445  0.2992 -0.5217
 8605SOL    HW230272   1.816   9.693   3.721 -2.4442  2.1403 -0.3293
 8606SOL     OW30273   4.400  10.170   1.743  0.1416 -0.5648 -0.2266
 8606SOL    HW130274   4.342  10.176   1.819 -1.5860  0.3639 -1.5236
 8606SOL    HW230275   4.419  10.261   1.719  1.9154 -0.8524 -0.0396
 8607SOL     OW30276   1.109   0.453   9.750  0.3811 -0.6478 -0.3496
 8607SOL    HW130277   1.130   0.359   9.746 -0.7255 -0.9311  0.1538
 8607SOL    HW230278   1.122   0.476   9.842 -1.1537 -0.7693 -0.0756
 8608SOL     OW30279   3.574   0.820   8.476  0.1770 -0.3477 -0.0703
 8608SOL    HW130280   3.598   0.817   8.384  1.0012 -1.8349  0.1589
 8608SOL    HW230281   3.647   0.865   8.519  1.0325 -1.8822  0.1646
 8609SOL     OW30282   0.271   8.442  10.291 -0.0207 -0.2616 -0.0864
 8609SOL    HW130283   0.213   8.423  10.217 -1.3632 -0.2453  0.9422
 8609SOL    HW230284   0.307   8.528  10.271 -0.3585 -0.2599 -0.7240
 8610SOL     OW30285   0.588   3.033   8.610  0.4755 -0.6025  0.1065
 8610SOL    HW130286   0.503   3.030   8.567  0.3858 -2.0032  0.3398
 8610SOL    HW230287   0.593   3.120   8.648  0.4470  0.6252 -2.4877
 8611SOL     OW30288   0.430   1.424   9.375  0.4749  0.5246 -0.5610
 8611SOL    HW130289   0.377   1.463   9.305 -0.3440 -0.7087 -0.6652
 8611SOL    HW230290   0.426   1.330   9.359  0.2976  0.2114  1.1173
 8612SOL     OW30291   0.826   8.442  10.294 -0.3087  0.2865  0.0900
 8612SOL    HW130292   0.784   8.523  10.264 -0.7613 -0.5580 -1.6415
 8612SOL    HW230293   0.843   8.392  10.214  0.0078 -1.3254  1.1242
 8613SOL     OW30294   3.496   5.510   5.162 -0.3989  0.2022 -0.0524
 8613SOL    HW130295   3.557   5.462   5.218 -1.0002 -1.3214 -0.6507
 8613SOL    HW230296   3.435   5.552   5.223  0.7003  1.0323  0.5170
 8614SOL     OW30297   7.308   6.458   9.415 -0.4434  0.2172 -0.5511
 8614SOL    HW130298   7.328   6.492   9.328  0.9910  0.2610 -0.2291
 8614SOL    HW230299   7.340   6.526   9.475 -1.0664  0.0116  0.0243
 8615SOL     OW30300   2.551   8.023   1.943  0.8137 -0.1442  0.2300
 8615SOL    HW130301   2.559   7.930   1.962  1.3332 -0.4386 -1.2297
 8615SOL    HW230302   2.457   8.040   1.942  0.6953 -0.7924 -0.0749
 8616SOL     OW30303  10.940   9.417   7.247 -0.1080  0.2884  0.2930
 8616SOL    HW130304  10.973   9.442   7.161 -0.1934 -0.5109  0.0198
 8616SOL    HW230305  10.976   9.330   7.263 -0.1719  0.3853  1.0243
 8617SOL     OW30306   2.025   6.158   4.597  0.2824  0.7646  0.6901
 8617SOL    HW130307   2.054   6.093   4.662  1.6748 -1.6355 -2.1082
 8617SOL    HW230308   1.930   6.152   4.599  0.3386 -3.0476 -0.8460
 8618SOL     OW30309   7.866   5.560   4.338 -0.0102 -0.3986 -0.4642
 8618SOL    HW130310   7.774   5.533   4.346  0.4307 -1.7152  0.5226
 8618SOL    HW230311   7.861   5.652   4.310 -1.6269 -0.3355 -0.0984
 8619SOL     OW30312   8.185   4.734   2.162  0.3178 -0.4597 -0.2001
 8619SOL    HW130313   8.095   4.701   2.164 -0.5569  1.6559 -1.2562
 8619SOL    HW230314   8.221   4.698   2.081  0.6599 -1.7837  0.5122
 8620SOL     OW30315   0.033   6.118   2.845 -0.0048  0.4869  0.1706
 8620SOL    HW130316  -0.057   6.149   2.854 -0.3035 -0.1440 -0.5104
 8620SOL    HW230317   0.035   6.073   2.760  0.3982 -1.3046  1.0772
 8621SOL     OW30318   7.145   1.207   8.329 -0.9494 -0.1239  0.1079
 8621SOL    HW130319   7.134   1.296   8.296 -0.3615 -0.1241 -0.1121
 8621SOL    HW230320   7.155   1.154   8.250  3.2950  0.2354  0.1248
 8622SOL     OW30321   6.731   4.695   2.255  0.3391 -0.1177 -0.1164
 8622SOL    HW130322   6.649   4.669   2.297 -1.1161 -0.1926 -2.8156
 8622SOL    HW230323   6.747   4.627   2.190  1.8480  0.6178 -0.5526
 8623SOL     OW30324   9.124   1.905   4.941 -0.1142 -0.0025  0.2894
 8623SOL    HW130325   9.048   1.882   4.994 -0.9296  1.0020 -0.3988
 8623SOL    HW230326   9.092   1.900   4.851 -0.6242  4.3239  0.0255
 8624SOL     OW30327  10.397   8.073   1.445  0.2290  0.7014  0.6232
 8624SOL    HW130328  10.374   8.014   1.374 -1.2217  2.3227 -0.3327
 8624SOL    HW230329  10.454   8.138   1.404  0.7126  0.7409  1.3383
 8625SOL     OW30330   6.455   1.143  10.847  0.3887  0.5547 -0.1208
 8625SOL    HW130331   6.449   1.230  10.809  1.9147  0.8150  0.1990
 8625SOL    HW230332   6.505   1.092  10.783  1.8963  0.6697  0.9140
 8626SOL     OW30333   1.902   3.848   7.652 -1.1311 -0.1103  0.1331
 8626SOL    HW130334   1.976   3.889   7.696 -0.8826  0.0359 -0.4085
 8626SOL    HW230335   1.829   3.907   7.667 -0.5569  1.0868 -1.4731
 8627SOL     OW30336   7.433   7.172   3.126  0.0390  0.5691 -0.1615
 8627SOL    HW130337   7.427   7.265   3.108  0.0497  0.1633 -2.4938
 8627SOL    HW230338   7.515   7.144   3.086  0.0760 -0.4591  0.5642
 8628SOL     OW30339   9.205   2.197   8.919 -0.7841  0.2232 -0.1098
 8628SOL    HW130340   9.237   2.283   8.948 -1.1232  0.0258  0.8704
 8628SOL    HW230341   9.248   2.135   8.978 -1.1670 -0.2209 -0.2988
 8629SOL     OW30342   5.162   5.648   4.444 -0.4270  0.4980  0.0181
 8629SOL    HW130343   5.255   5.634   4.462 -0.2818  0.4130 -0.7696
 8629SOL    HW230344   5.148   5.741   4.460 -0.4113  0.3368  1.0071
 8630SOL     OW30345   9.534   1.369   9.960 -0.0884  0.6905 -0.6741
 8630SOL    HW130346   9.483   1.412  10.028 -0.3851 -1.9642  0.9096
 8630SOL    HW230347   9.624   1.401   9.974 -0.4466  1.5548 -0.2608
 8631SOL     OW30348   4.832   8.577   3.332 -0.4692 -0.0298 -0.1729
 8631SOL    HW130349   4.859   8.627   3.256  0.7755 -1.0935 -0.4788
 8631SOL    HW230350   4.891   8.607   3.402 -0.7365  0.0115  0.0369
 8632SOL     OW30351   4.182   4.169   3.946  0.3649  0.2028 -0.7951
 8632SOL    HW130352   4.158   4.145   4.035 -0.0638  0.5032 -0.8285
 8632SOL    HW230353   4.212   4.087   3.907  0.4020  0.0382 -0.4249
 8633SOL     OW30354   6.458   8.883   3.030 -0.2880 -0.1445 -0.0134
 8633SOL    HW130355   6.393   8.829   3.075  0.5634 -1.7030 -0.5802
 8633SOL    HW230356   6.543   8.849   3.060  0.3283  2.1147  1.0314
 8634SOL     OW30357  10.324   9.106   2.728  0.2898  0.0691 -0.3699
 8634SOL    HW130358  10.336   9.200   2.740  1.4893 -0.0436 -0.5157
 8634SOL    HW230359  10.347   9.068   2.813 -2.6481  0.0367  0.5177
 8635SOL     OW30360   9.114   5.650   0.719  0.5773 -0.1280  0.0904
 8635SOL    HW130361   9.185   5.694   0.766  0.4411  1.4562 -1.0902
 8635SOL    HW230362   9.049   5.631   0.786  1.7505 -0.9080  1.0689
 8636SOL     OW30363   5.873   0.677   4.420 -0.5232  0.0916  0.2614
 8636SOL    HW130364   5.806   0.708   4.360 -0.1983 -0.2522 -0.2911
 8636SOL    HW230365   5.945   0.740   4.411 -0.6259  0.2564  0.5807
 8637SOL     OW30366   0.126   2.530   6.034 -0.1437 -0.5814  0.4035
 8637SOL    HW130367   0.162   2.484   6.110  0.1335 -0.2468  0.4765
 8637SOL    HW230368   0.037   2.495   6.025 -0.2032 -0.5752  0.9248
 8638SOL     OW30369   7.269   2.963   6.691  0.2674 -0.2162 -0.3453
 8638SOL    HW130370   7.308   2.886   6.733  0.1704 -0.6006 -0.9422
 8638SOL    HW230371   7.344   3.018   6.668  0.4583 -0.7963 -1.1834
 8639SOL     OW30372   9.554   5.434  10.532 -0.1293  0.3395 -0.1042
 8639SOL    HW130373   9.593   5.396  10.610 -2.7182 -0.1461  1.0705
 8639SOL    HW230374   9.575   5.528  10.537  2.1346 -0.1046 -0.4188
 8640SOL     OW30375   8.238   8.565   5.489  0.0556  0.5514 -1.0983
 8640SOL    HW130376   8.148   8.535   5.505  0.8636 -1.1264  0.6197
 8640SOL    HW230377   8.274   8.501   5.427  0.4767  0.4642 -0.7633
 8641SOL     OW30378   0.040   3.004   1.765 -0.3763  0.2079 -0.6422
 8641SOL    HW130379   0.116   3.057   1.788 -0.6809 -0.6644  3.0612
 8641SOL    HW230380   0.074   2.915   1.758 -0.6388  0.1911 -1.9252
 8642SOL     OW30381  10.841   5.033   7.133  0.2007 -0.1958 -0.1434
 8642SOL    HW130382  10.853   4.973   7.207  0.6375  0.4321  0.2999
 8642SOL    HW230383  10.895   4.997   7.063 -0.5583 -1.0406 -0.3127
 8643SOL     OW30384   0.815   5.468   7.490  0.0538  0.1411 -0.0872
 8643SOL    HW130385   0.844   5.423   7.410  0.5237  1.0957 -0.4752
 8643SOL    HW230386   0.780   5.399   7.545 -0.1916 -0.5570 -1.0879
 8644SOL     OW30387   0.454   7.853  10.951 -0.0638 -0.2842 -0.1981
 8644SOL    HW130388   0.513   7.806  10.892  0.5899  0.9261 -0.5307
 8644SOL    HW230389   0.391   7.786  10.980  0.6685 -1.2895 -0.8703
 8645SOL     OW30390   0.301   6.872   7.117  0.5362  0.4424  0.0870
 8645SOL    HW130391   0.282   6.814   7.190  0.7947  2.7305  2.1145
 8645SOL    HW230392   0.216   6.909   7.093  0.5262  0.0909 -0.4320
 8646SOL     OW30393   1.793   6.162   0.098  0.0570  0.0629 -0.4950
 8646SOL    HW130394   1.731   6.158   0.025 -0.2250 -1.9797 -0.2056
 8646SOL    HW230395   1.877   6.136   0.059 -0.2146 -1.6350 -0.0269
 8647SOL     OW30396   7.137  11.003   1.878 -0.1957  0.1344  0.2496
 8647SOL    HW130397   7.105  10.913   1.886  0.7579 -0.1672  0.8853
 8647SOL    HW230398   7.168  11.025   1.966 -1.2768  1.4364  0.3344
 8648SOL     OW30399   0.943   7.388   5.262  0.4849 -0.0541  0.5170
 8648SOL    HW130400   0.990   7.352   5.187  0.0210  0.6118 -0.1112
 8648SOL    HW230401   0.984   7.473   5.278  1.4443 -0.7417  1.8595
 8649SOL     OW30402   4.050  10.310   3.499  0.4818  0.1001  0.0080
 8649SOL    HW130403   4.066  10.247   3.570  1.7096 -1.3065 -1.4401
 8649SOL    HW230404   4.132  10.312   3.450 -0.5003  0.6160 -1.7033
 8650SOL     OW30405   4.493   4.205  10.315 -0.1287  0.6099  0.0975
 8650SOL    HW130406   4.546   4.240  10.244  0.3675 -1.8781 -0.8777
 8650SOL    HW230407   4.556   4.189  10.386 -0.2184  0.9912  0.2633
 8651SOL     OW30408   6.895   0.661   3.367 -0.0096 -0.1089 -0.1842
 8651SOL    HW130409   6.943   0.676   3.449 -0.0722 -0.0684 -0.1545
 8651SOL    HW230410   6.816   0.715   3.376 -2.2485 -3.3122  1.6293
 8652SOL     OW30411   1.287   3.551   2.716  0.3358 -0.3329  0.2396
 8652SOL    HW130412   1.300   3.497   2.793  2.3801 -2.3551 -1.3910
 8652SOL    HW230413   1.375   3.571   2.685 -0.2054  4.9297  1.2227
 8653SOL     OW30414  10.916   7.487   3.226 -0.1813 -0.0596 -0.3242
 8653SOL    HW130415  10.855   7.435   3.174  0.3366  0.3974 -1.4413
 8653SOL    HW230416  10.939   7.560   3.168  0.5610  0.3738  0.4979
 8654SOL     OW30417  10.319   7.551   8.843  0.3749  0.4093  0.0570
 8654SOL    HW130418  10.359   7.637   8.859  0.0969  0.4230  0.7024
 8654SOL    HW230419  10.274   7.530   8.924  0.6886 -0.4899  0.0084
 8655SOL     OW30420   7.885  10.631   3.722  0.4672  0.8491  0.0326
 8655SOL    HW130421   7.921  10.702   3.777  0.5054  0.7110  0.1859
 8655SOL    HW230422   7.823  10.675   3.664  1.0782  1.1445 -0.4249
 8656SOL     OW30423   8.075   9.299   5.876  0.0574 -0.0123  0.1840
 8656SOL    HW130424   8.083   9.388   5.911 -0.0413 -0.2291  0.7760
 8656SOL    HW230425   8.085   9.242   5.953  1.6804 -0.5772 -0.4193
 8657SOL     OW30426   5.554   1.448  10.356  0.1647 -0.2937 -0.1203
 8657SOL    HW130427   5.611   1.521  10.335 -0.2454 -0.3683 -1.5777
 8657SOL    HW230428   5.557   1.442  10.452  1.2902  0.7295 -0.0679
 8658SOL     OW30429  10.578   6.981   1.733 -0.2732 -0.1747 -0.1106
 8658SOL    HW130430  10.538   7.052   1.783 -0.3070 -1.4402  1.7533
 8658SOL    HW230431  10.672   6.990   1.748 -0.3006 -0.7118  0.4327
 8659SOL     OW30432   1.492   0.061   6.509  0.5334 -0.4307 -0.2931
 8659SOL    HW130433   1.468   0.090   6.597 -1.0256 -1.7801 -0.2198
 8659SOL    HW230434   1.455   0.128   6.451  0.2131 -0.3305  0.0221
 8660SOL     OW30435   9.347   0.929   9.526  0.0600  0.1333 -0.4083
 8660SOL    HW130436   9.399   0.894   9.454  0.1144  0.0468 -0.3275
 8660SOL    HW230437   9.349   0.861   9.593 -0.3049  0.0546 -0.4746
 8661SOL     OW30438   4.335   8.907   3.741 -0.0808 -0.2197  0.0785
 8661SOL    HW130439   4.357   8.962   3.816  0.6934 -0.1720 -0.1821
 8661SOL    HW230440   4.349   8.817   3.771  1.1381 -0.1655 -0.2906
 8662SOL     OW30441   5.134   2.123   7.062  0.0453 -0.0172  0.2689
 8662SOL    HW130442   5.147   2.215   7.040 -0.1760 -0.1595 -0.4880
 8662SOL    HW230443   5.212   2.078   7.030  0.8013  0.0804  1.8705
 8663SOL     OW30444   7.985   5.589   5.800  0.0820 -0.1247  0.2225
 8663SOL    HW130445   8.054   5.632   5.750 -0.5910  0.3283 -0.3373
 8663SOL    HW230446   7.964   5.649   5.870  1.7893 -1.2293  1.7838
 8664SOL     OW30447   2.223   0.347   2.588 -0.1826  0.5650 -0.0134
 8664SOL    HW130448   2.200   0.408   2.659 -0.5987  0.8332 -0.3750
 8664SOL    HW230449   2.143   0.299   2.571 -0.2943  1.0197 -0.8089
 8665SOL     OW30450   4.392   2.635   6.383 -0.8445  0.4338  0.4801
 8665SOL    HW130451   4.387   2.631   6.287 -0.6299  1.1701  0.4312
 8665SOL    HW230452   4.335   2.565   6.413 -0.2743 -0.3368 -0.1975
 8666SOL     OW30453   4.919   8.363   8.110 -0.3257  0.0640 -0.6213
 8666SOL    HW130454   4.976   8.292   8.140 -0.5097 -0.1007 -0.6592
 8666SOL    HW230455   4.965   8.400   8.035 -0.6837 -0.6561 -1.2155
 8667SOL     OW30456   9.318   9.741  10.504 -0.7426  0.1207  0.5177
 8667SOL    HW130457   9.241   9.717  10.556  0.0567 -0.3945  1.4812
 8667SOL    HW230458   9.343   9.659  10.459 -1.6363  0.6359 -1.0046
 8668SOL     OW30459   2.577   0.108   6.846  0.3649 -0.2712  0.2845
 8668SOL    HW130460   2.494   0.105   6.798  0.1540  2.8861  0.2841
 8668SOL    HW230461   2.553   0.087   6.936 -0.1844 -0.6305  0.0680
 8669SOL     OW30462   0.788  10.007   7.718  0.0323  0.3680 -0.4725
 8669SOL    HW130463   0.797  10.101   7.705  0.8217  0.4382  0.4553
 8669SOL    HW230464   0.849   9.968   7.656  0.1803  0.4968 -0.4094
 8670SOL     OW30465   3.195  10.114   1.115  0.3716 -0.1665 -0.2423
 8670SOL    HW130466   3.164  10.199   1.148 -0.6572 -0.3747 -0.6381
 8670SOL    HW230467   3.256  10.137   1.045 -0.8248  0.2678 -1.1819
 8671SOL     OW30468   1.625   3.718   7.565  0.6589 -0.5602  0.3317
 8671SOL    HW130469   1.668   3.641   7.602  0.9502 -0.0620  1.0697
 8671SOL    HW230470   1.544   3.684   7.526 -0.1550 -1.0261  2.2955
 8672SOL     OW30471   7.245   1.986   9.410  0.1672 -0.0939  0.8339
 8672SOL    HW130472   7.152   1.988   9.389  0.3668 -1.8584 -0.5108
 8672SOL    HW230473   7.274   2.077   9.403 -1.2336  0.3271  0.1440
 8673SOL     OW30474   0.403   2.764   2.269 -0.4410  0.2124  0.7422
 8673SOL    HW130475   0.362   2.810   2.195  1.0031 -0.7497 -0.7386
 8673SOL    HW230476   0.391   2.822   2.343 -3.0163  0.6887  0.0432
 8674SOL     OW30477   7.036   1.747   8.121  0.5844  0.1761  0.3585
 8674SOL    HW130478   7.060   1.690   8.048  0.6747 -0.3219  0.7681
 8674SOL    HW230479   6.941   1.741   8.127  0.6206 -0.2138  0.6167
 8675SOL     OW30480  11.070   4.151   6.242  0.3294  0.1081  0.3437
 8675SOL    HW130481  10.987   4.137   6.198  0.3253  0.1606  0.3346
 8675SOL    HW230482  11.066   4.242   6.273  0.4862  0.1896  0.1273
 8676SOL     OW30483   1.792  10.328   8.538 -0.0520 -0.2695 -0.1752
 8676SOL    HW130484   1.788  10.295   8.448 -0.4932 -1.2800  0.2060
 8676SOL    HW230485   1.849  10.267   8.584  2.1159  1.5607 -0.2852
 8677SOL     OW30486   3.782   0.502   7.435  0.7910 -0.0887  0.1993
 8677SOL    HW130487   3.833   0.543   7.366  1.3730 -0.3499  0.4721
 8677SOL    HW230488   3.826   0.527   7.516 -1.4506  2.5628  0.7670
 8678SOL     OW30489   8.468   7.210   0.333 -0.4520 -0.0893 -0.2177
 8678SOL    HW130490   8.560   7.222   0.310 -0.7348  0.8869 -0.8751
 8678SOL    HW230491   8.444   7.290   0.379 -1.4396  0.4652 -1.6388
 8679SOL     OW30492   6.891   7.747   8.459 -0.2083  0.4435 -0.1949
 8679SOL    HW130493   6.866   7.660   8.430 -0.8637  0.5900 -0.1016
 8679SOL    HW230494   6.963   7.773   8.402 -0.5867  0.1864 -0.7936
 8680SOL     OW30495   8.987  10.768   1.033 -0.5263 -0.3510  0.3185
 8680SOL    HW130496   9.045  10.804   1.101 -1.6341  0.0148  1.1073
 8680SOL    HW230497   9.034  10.782   0.951 -0.1858  1.3777  0.7757
 8681SOL     OW30498   0.653   1.005   8.261 -0.4018  0.1259 -0.5033
 8681SOL    HW130499   0.583   0.943   8.283 -0.4526  0.6516  0.9479
 8681SOL    HW230500   0.706   0.959   8.196 -1.4388 -0.7357 -0.7601
 8682SOL     OW30501   9.926   6.071   9.445  0.0443 -0.0723 -0.1288
 8682SOL    HW130502   9.843   6.041   9.408  0.1497 -0.1036 -0.3443
 8682SOL    HW230503   9.932   6.028   9.530 -0.4880  0.4800  0.1927
 8683SOL     OW30504   5.435   8.502   1.397 -0.3712  0.3478  0.2264
 8683SOL    HW130505   5.527   8.515   1.420 -0.1239  0.4968 -0.7726
 8683SOL    HW230506   5.418   8.410   1.417  0.6765 -0.3152 -1.6782
 8684SOL     OW30507   2.476   5.947   4.922  0.1356  0.2950  0.2776
 8684SOL    HW130508   2.444   5.857   4.924 -0.2010  0.4121  0.1310
 8684SOL    HW230509   2.432   5.990   4.995 -2.3408  1.2257 -1.6374
 8685SOL     OW30510  10.808   2.963   0.214  0.5709 -0.3023 -0.5054
 8685SOL    HW130511  10.826   2.949   0.121  1.4133  0.6631 -0.5145
 8685SOL    HW230512  10.895   2.970   0.254  0.2187 -0.9223  0.3942
 8686SOL     OW30513   7.678   5.696   1.463  0.1171  0.2201  0.5394
 8686SOL    HW130514   7.771   5.718   1.472 -0.1850  1.6415  0.4278
 8686SOL    HW230515   7.637   5.731   1.542 -0.4741  0.4944  0.1143
 8687SOL     OW30516   1.479   1.730   2.101 -0.3390 -0.1755 -0.4732
 8687SOL    HW130517   1.466   1.809   2.153  1.3744  1.0411 -1.7708
 8687SOL    HW230518   1.425   1.743   2.024 -1.8773 -1.3892  0.3544
 8688SOL     OW30519   7.349   5.125   2.424 -0.5388 -0.4639  0.1199
 8688SOL    HW130520   7.297   5.180   2.365 -0.5831  1.3264  1.7100
 8688SOL    HW230521   7.288   5.104   2.496  0.3008 -0.1519  0.9432
 8689SOL     OW30522   8.208   3.277   2.932  0.0758  0.2781 -0.4986
 8689SOL    HW130523   8.138   3.281   2.867  0.6660  2.8525 -1.0746
 8689SOL    HW230524   8.187   3.200   2.985 -2.8348  0.5713 -1.0547
 8690SOL     OW30525   0.085   4.726   1.883  0.6824  0.6272  0.0170
 8690SOL    HW130526   0.011   4.677   1.920  1.5295 -0.4959  0.2958
 8690SOL    HW230527   0.049   4.767   1.805 -0.7080  1.6523  1.1380
 8691SOL     OW30528   2.378   3.942   6.358  0.5356 -0.0435  0.1594
 8691SOL    HW130529   2.321   3.925   6.283  1.0343  0.6805 -0.3963
 8691SOL    HW230530   2.401   4.035   6.350  1.5728 -0.2596  0.5246
 8692SOL     OW30531  10.873   7.923   0.089 -0.0845  1.0725 -0.0522
 8692SOL    HW130532  10.861   7.879   0.173 -0.6734 -0.1962 -0.7716
 8692SOL    HW230533  10.801   7.890   0.034  0.7260  1.2837 -1.2854
 8693SOL     OW30534  10.559  10.397   5.619 -0.4328  0.1501 -0.3986
 8693SOL    HW130535  10.560  10.486   5.654 -1.8612 -0.1517  0.4929
 8693SOL    HW230536  10.642  10.389   5.571 -0.0680  1.7874 -0.1034
 8694SOL     OW30537   0.588   9.057   0.847 -0.6174 -0.3538  0.0313
 8694SOL    HW130538   0.500   9.080   0.816 -0.4019  2.3515  1.1783
 8694SOL    HW230539   0.631   9.142   0.862  1.2814 -1.5731  2.0290
 8695SOL     OW30540  10.411   1.715   3.680  0.1296 -1.0033  0.2689
 8695SOL    HW130541  10.478   1.648   3.689  0.3847 -0.8063 -0.1712
 8695SOL    HW230542  10.427   1.755   3.594  0.0082 -0.3474  0.5456
 8696SOL     OW30543   3.026   3.639   0.160 -0.3898 -0.4092 -0.2063
 8696SOL    HW130544   2.932   3.632   0.145 -0.7385  1.6854  0.6726
 8696SOL    HW230545   3.055   3.709   0.102  0.6641 -1.0844 -0.5313
 8697SOL     OW30546  10.162   2.852  10.564  0.0998 -0.1293  0.0350
 8697SOL    HW130547  10.180   2.946  10.567 -1.6549  0.3607 -2.0903
 8697SOL    HW230548  10.242   2.813  10.530  1.0609  0.4711  1.4953
 8698SOL     OW30549   3.385   7.960   8.770 -0.0059  0.4314  0.2508
 8698SOL    HW130550   3.295   7.936   8.747 -0.6940  0.1707  2.8240
 8698SOL    HW230551   3.385   8.055   8.771 -0.6155  0.4369  1.3411
 8699SOL     OW30552   2.272   0.306   6.204  0.0608  0.4004 -0.1609
 8699SOL    HW130553   2.199   0.335   6.259  0.4110 -0.8924  1.0411
 8699SOL    HW230554   2.348   0.351   6.240  0.4396 -1.1314  1.0597
 8700SOL     OW30555  10.780   9.844   4.086 -0.3316  0.0775  0.1798
 8700SOL    HW130556  10.753   9.760   4.048 -1.4957  0.4547  0.1467
 8700SOL    HW230557  10.700   9.880   4.124  0.5766  0.2169  2.0653
 8701SOL     OW30558   9.428   0.066   7.257 -0.7924  0.1786 -0.3497
 8701SOL    HW130559   9.415   0.159   7.240 -2.1850  0.1280  0.3407
 8701SOL    HW230560   9.445   0.061   7.351 -0.5512 -0.2556 -0.4120
 8702SOL     OW30561  10.580   1.541   7.921 -0.5742 -0.5956 -0.1310
 8702SOL    HW130562  10.587   1.568   7.829 -1.4031 -1.1112 -0.3605
 8702SOL    HW230563  10.633   1.462   7.927  0.9593  0.4344  0.2809
 8703SOL     OW30564   0.541   6.901   5.010 -0.7221  0.0799 -0.0879
 8703SOL    HW130565   0.619   6.845   5.005 -0.6511 -0.1378  2.1992
 8703SOL    HW230566   0.576   6.990   5.016 -0.7064  0.1005 -0.4816
 8704SOL     OW30567   0.213   8.275   2.874 -0.4382  0.0325 -0.6511
 8704SOL    HW130568   0.176   8.254   2.789  0.7965  0.8109 -1.4244
 8704SOL    HW230569   0.308   8.276   2.859 -0.0806 -1.4782  1.1244
 8705SOL     OW30570   2.158   3.848   5.304  0.1074 -0.4826  0.1228
 8705SOL    HW130571   2.063   3.844   5.316 -0.0568  1.0141 -0.3892
 8705SOL    HW230572   2.177   3.786   5.234 -0.7432  0.4111 -0.9274
 8706SOL     OW30573   9.515  10.967   8.083 -0.2753  0.0729  0.5178
 8706SOL    HW130574   9.462  10.987   8.006 -0.5021 -0.9157  0.4035
 8706SOL    HW230575   9.489  11.033   8.148 -2.4713 -0.9995  0.8395
 8707SOL     OW30576   6.322   2.742   1.007  0.1360  0.1879 -0.2322
 8707SOL    HW130577   6.396   2.731   0.947  1.5352 -1.0594  1.6313
 8707SOL    HW230578   6.332   2.672   1.071 -0.5381  2.2099  2.2427
 8708SOL     OW30579   4.568   5.741   0.103 -0.1286 -0.1434  0.0936
 8708SOL    HW130580   4.642   5.746   0.042 -1.0255  0.2296 -0.9894
 8708SOL    HW230581   4.543   5.832   0.118 -2.5423 -0.2875 -2.3217
 8709SOL     OW30582   8.999   9.112   6.579  0.2758  0.2223  0.0493
 8709SOL    HW130583   8.969   9.027   6.548 -0.9478  0.3723  0.7703
 8709SOL    HW230584   9.087   9.122   6.541  0.0317 -0.9070 -0.8554
 8710SOL     OW30585   5.387   9.943   6.797  0.3833 -0.0941  0.3759
 8710SOL    HW130586   5.402   9.852   6.820 -1.3465 -1.1996 -2.3410
 8710SOL    HW230587   5.449   9.960   6.726 -1.4021 -0.2415 -1.2929
 8711SOL     OW30588   1.902   8.735   6.178  0.0719 -0.8643  0.5293
 8711SOL    HW130589   1.882   8.828   6.191 -0.8697 -0.7903 -1.1079
 8711SOL    HW230590   1.996   8.728   6.198  0.0519  0.3266  1.1482
 8712SOL     OW30591   3.178   3.881   4.658 -0.3812  0.4973 -0.6483
 8712SOL    HW130592   3.180   3.964   4.612 -2.6133  0.1329 -1.5322
 8712SOL    HW230593   3.239   3.825   4.610 -0.6961  0.9131 -1.5541
 8713SOL     OW30594   2.245   0.968   4.885  0.5274 -0.2289 -0.1497
 8713SOL    HW130595   2.312   0.900   4.878 -0.1711 -0.8394 -1.2766
 8713SOL    HW230596   2.179   0.943   4.820 -2.0681 -1.0883  2.5837
 8714SOL     OW30597   7.578   3.874   0.009  0.2429  0.3777  0.3686
 8714SOL    HW130598   7.554   3.865  -0.083 -0.0938 -0.3793  0.5212
 8714SOL    HW230599   7.536   3.955   0.036  0.9639  1.0007 -0.3278
 8715SOL     OW30600   6.529   7.398   0.416  0.3150 -0.3286  0.5800
 8715SOL    HW130601   6.490   7.476   0.456  1.0743  0.3161  0.1055
 8715SOL    HW230602   6.490   7.394   0.329  1.2820  0.3426  0.0868
 8716SOL     OW30603   8.807   8.538   3.615 -0.2350 -0.4196  0.0181
 8716SOL    HW130604   8.762   8.481   3.678  0.6051 -1.0103  0.0910
 8716SOL    HW230605   8.830   8.616   3.665  2.9333 -2.0024  1.2946
 8717SOL     OW30606   3.815   3.619   6.268 -0.2376  0.6579  0.1071
 8717SOL    HW130607   3.726   3.649   6.287  0.6319  2.7498  1.2183
 8717SOL    HW230608   3.866   3.700   6.256  1.7434 -0.4273  0.6631
 8718SOL     OW30609  10.787   1.305   7.769  0.4938 -0.3938  0.2710
 8718SOL    HW130610  10.768   1.361   7.693  1.1518 -0.4209  0.0870
 8718SOL    HW230611  10.778   1.216   7.736 -1.1864 -0.4278  0.7176
 8719SOL     OW30612   0.322   7.533   2.232 -0.0699  0.7026  0.3525
 8719SOL    HW130613   0.233   7.548   2.199 -0.6911 -0.1450  1.5623
 8719SOL    HW230614   0.312   7.461   2.294  1.1680  1.7576  1.8369
 8720SOL     OW30615   4.896   8.760   1.027  0.0183 -0.2866  0.5529
 8720SOL    HW130616   4.941   8.799   1.101 -2.2804 -0.2166  1.9864
 8720SOL    HW230617   4.964   8.710   0.981  2.2835  2.5105  0.5934
 8721SOL     OW30618   6.928   7.032   8.413 -0.0907 -0.0465 -0.5181
 8721SOL    HW130619   6.899   6.941   8.427  2.2109 -0.4569  2.7324
 8721SOL    HW230620   6.861   7.085   8.456 -0.9046 -0.2284 -1.5208
 8722SOL     OW30621   1.024   4.617   8.233  0.2312  0.3882 -0.5632
 8722SOL    HW130622   0.943   4.591   8.275  0.9379 -0.0528  0.5662
 8722SOL    HW230623   1.091   4.560   8.271  1.1719  1.1667 -0.9959
 8723SOL     OW30624  10.735   3.133   3.937 -0.2052  0.2802  0.2859
 8723SOL    HW130625  10.680   3.087   3.874  0.9514 -0.5160 -0.1897
 8723SOL    HW230626  10.800   3.179   3.883 -0.1553  0.8744  0.8414
 8724SOL     OW30627   1.035   4.619   4.954  0.6185  0.2447 -0.2622
 8724SOL    HW130628   0.942   4.612   4.935  0.3694  2.2977 -0.0823
 8724SOL    HW230629   1.069   4.678   4.887  1.4916  0.6572  0.5208
 8725SOL     OW30630   0.571   3.488   5.065 -0.5478  0.0188 -0.6679
 8725SOL    HW130631   0.489   3.444   5.041 -0.1834  0.3739 -2.7626
 8725SOL    HW230632   0.629   3.418   5.092 -1.5154 -0.2386  0.8868
 8726SOL     OW30633   1.245   5.803   5.620  0.0879  0.2016 -0.8974
 8726SOL    HW130634   1.296   5.835   5.694  0.4142 -0.2433 -0.9256
 8726SOL    HW230635   1.309   5.762   5.562  0.0417  1.7002 -2.0801
 8727SOL     OW30636   0.637   9.416   6.449 -0.3479 -0.2327 -0.7676
 8727SOL    HW130637   0.645   9.324   6.474 -0.3216  0.0274  0.2261
 8727SOL    HW230638   0.720   9.437   6.407  0.9839  0.1748  1.8756
 8728SOL     OW30639  10.047   6.739   3.144  0.2778  0.6187 -0.5664
 8728SOL    HW130640  10.089   6.663   3.184  0.0462  0.4314 -0.6787
 8728SOL    HW230641  10.073   6.813   3.199  0.7420  0.5018 -0.6302
 8729SOL     OW30642   1.700  10.931   1.869  0.3060 -0.3046 -0.0692
 8729SOL    HW130643   1.701  10.936   1.964  4.3914 -0.8484  0.1128
 8729SOL    HW230644   1.689  11.022   1.840 -2.7803 -0.3131  0.7347
 8730SOL     OW30645   6.158   2.913   5.254 -0.3496  0.5037  0.4173
 8730SOL    HW130646   6.139   2.964   5.175 -0.7234  0.8963  0.7531
 8730SOL    HW230647   6.128   2.824   5.233 -0.4246  0.6021  0.1074
 8731SOL     OW30648   4.719   5.595   4.541 -0.0601 -0.0596 -0.5858
 8731SOL    HW130649   4.662   5.519   4.531  0.4827 -0.3277 -1.9115
 8731SOL    HW230650   4.701   5.648   4.463  1.0434  0.1412 -0.7164
 8732SOL     OW30651   8.442   3.496   8.347 -0.0573  0.6350 -0.3665
 8732SOL    HW130652   8.361   3.499   8.398  0.6145  3.0482  0.7086
 8732SOL    HW230653   8.508   3.465   8.408 -0.0058 -0.7059 -1.0644
 8733SOL     OW30654   8.207   5.583   9.478  0.2884  0.0591  0.5681
 8733SOL    HW130655   8.234   5.573   9.386  0.4245 -0.2641  0.6409
 8733SOL    HW230656   8.213   5.677   9.494  1.4815 -0.0047  0.6080
 8734SOL     OW30657   0.337   6.926   6.364 -0.1247  0.1582 -0.0652
 8734SOL    HW130658   0.384   6.992   6.415 -2.2352  0.5500  1.5058
 8734SOL    HW230659   0.285   6.976   6.302  0.0756 -0.1646 -0.4941
 8735SOL     OW30660   1.102   8.971   8.475 -0.3330 -0.3092  0.1746
 8735SOL    HW130661   1.025   8.976   8.419 -0.5646 -0.6817  0.4575
 8735SOL    HW230662   1.077   9.015   8.556 -0.2658 -0.4743  0.2854
 8736SOL     OW30663   8.031   7.754   6.116 -0.8190 -0.5891 -0.6501
 8736SOL    HW130664   8.018   7.792   6.030 -0.7768 -0.4569 -0.5988
 8736SOL    HW230665   8.081   7.821   6.164 -0.5512 -0.8021 -0.6294
 8737SOL     OW30666   8.107   7.503  10.640  0.0081 -0.2026  0.4653
 8737SOL    HW130667   8.110   7.408  10.642 -1.4870 -0.2608  0.6270
 8737SOL    HW230668   8.060   7.524  10.560  0.8152  0.4278  0.1401
 8738SOL     OW30669   5.650   7.843   9.029 -0.7974  0.1577 -0.4438
 8738SOL    HW130670   5.565   7.819   8.994 -0.7795 -2.0007  0.7974
 8738SOL    HW230671   5.708   7.770   9.004  0.3089  0.8368  0.0378
 8739SOL     OW30672   5.661   3.751  10.020  0.5921 -0.2892  0.0115
 8739SOL    HW130673   5.588   3.690  10.011  0.9478 -0.5073 -1.7248
 8739SOL    HW230674   5.703   3.726  10.103  0.2476 -1.8643 -0.2551
 8740SOL     OW30675   8.158  10.010   1.717 -0.3498  0.0796  0.1648
 8740SOL    HW130676   8.150   9.939   1.781 -1.9174 -0.4996 -0.6289
 8740SOL    HW230677   8.079  10.063   1.730  1.0693  2.0777  1.1556
 8741SOL     OW30678   5.390   8.962   5.735  0.6621 -0.0430 -0.2224
 8741SOL    HW130679   5.393   8.997   5.824 -2.9621 -0.3507  0.1399
 8741SOL    HW230680   5.385   9.040   5.679  1.1689  0.1048 -0.0734
 8742SOL     OW30681  10.044   5.968   4.696 -0.1014  0.1499 -0.0548
 8742SOL    HW130682   9.968   5.993   4.644 -2.0051 -0.7752  2.1328
 8742SOL    HW230683  10.054   6.039   4.760  0.5856  0.0140  0.0020
 8743SOL     OW30684   3.153   8.042   6.459  0.2711 -0.3956  0.5891
 8743SOL    HW130685   3.155   8.138   6.464 -0.4473 -0.3971  1.0153
 8743SOL    HW230686   3.067   8.022   6.421  1.9173 -0.7402 -3.4918
 8744SOL     OW30687   0.844   5.729   3.335 -0.5140 -0.2155 -0.8655
 8744SOL    HW130688   0.842   5.640   3.300 -0.5187 -0.2492 -0.7792
 8744SOL    HW230689   0.805   5.783   3.266  1.5016  0.0523 -1.8702
 8745SOL     OW30690   4.246   9.621   5.452  0.0130 -0.7007  0.2242
 8745SOL    HW130691   4.323   9.565   5.440 -0.9889 -2.1552  0.3851
 8745SOL    HW230692   4.199   9.614   5.370 -1.5259 -2.3417  1.1828
 8746SOL     OW30693   7.070   1.696   3.963 -0.0258 -0.4455  0.2471
 8746SOL    HW130694   7.147   1.710   4.019 -0.5100 -0.0844  0.8341
 8746SOL    HW230695   7.020   1.629   4.009 -0.0722 -0.6738 -0.1321
 8747SOL     OW30696   9.257   8.495   0.707 -0.2655 -0.3474 -0.3522
 8747SOL    HW130697   9.253   8.496   0.612 -1.6024 -0.7118 -0.3313
 8747SOL    HW230698   9.175   8.537   0.734  0.0112 -0.4211  0.6357
 8748SOL     OW30699   6.231   7.946   1.837  0.0159  0.2283  0.4882
 8748SOL    HW130700   6.326   7.960   1.839  0.0157  0.1919  1.3457
 8748SOL    HW230701   6.198   7.997   1.911 -0.6088  0.0692  0.3235
 8749SOL     OW30702   3.507   3.575   7.774  0.6217 -0.3245  0.2399
 8749SOL    HW130703   3.596   3.586   7.806  0.6634  1.0385 -0.2810
 8749SOL    HW230704   3.517   3.542   7.685  0.6379  0.6332 -0.1200
 8750SOL     OW30705  10.941   1.004   8.265  0.1042  0.1970 -0.0889
 8750SOL    HW130706  10.930   0.932   8.327 -0.0097 -0.7998 -1.2092
 8750SOL    HW230707  11.013   1.056   8.300 -0.5737  0.1978  1.3460
 8751SOL     OW30708   0.200   8.474   8.543 -0.0077  0.7682 -0.5400
 8751SOL    HW130709   0.271   8.529   8.509  0.5707 -0.3287 -1.1748
 8751SOL    HW230710   0.171   8.519   8.622 -0.2484  2.5210 -1.5583
 8752SOL     OW30711   0.879   0.755   6.434  0.7692 -0.3499 -0.2789
 8752SOL    HW130712   0.798   0.787   6.395  1.6508  1.3568 -0.7884
 8752SOL    HW230713   0.941   0.749   6.361  1.8428  0.9191  0.4740
 8753SOL     OW30714   0.479   9.364   8.195 -0.5679  0.2865  0.2222
 8753SOL    HW130715   0.432   9.412   8.262 -0.9016 -1.5662  1.3739
 8753SOL    HW230716   0.562   9.410   8.186 -0.7205  0.8540  1.5608
 8754SOL     OW30717   8.962   1.378   1.286 -0.1876  0.4770  0.3662
 8754SOL    HW130718   8.936   1.287   1.294 -4.2121  1.2361 -1.4198
 8754SOL    HW230719   9.017   1.381   1.207  0.5907 -0.4355  0.8584
 8755SOL     OW30720   2.558  10.741   3.251 -0.3766  0.1130 -0.3640
 8755SOL    HW130721   2.636  10.792   3.271 -0.5458  0.3203 -0.2286
 8755SOL    HW230722   2.585  10.650   3.263 -0.3847  0.2172  0.5045
 8756SOL     OW30723   6.579   0.421   0.267 -0.0028  0.3415  0.0564
 8756SOL    HW130724   6.519   0.386   0.202  0.9984  0.5625 -1.0100
 8756SOL    HW230725   6.641   0.350   0.284  2.0990  1.5251 -2.1960
 8757SOL     OW30726   6.607  10.038   1.236 -0.0011  0.1906  0.2201
 8757SOL    HW130727   6.624   9.957   1.283 -1.7137 -0.7235 -0.6357
 8757SOL    HW230728   6.589  10.102   1.304 -0.7111 -0.6740  0.8692
 8758SOL     OW30729   3.944   6.054   3.071  0.0250 -0.2987 -0.0839
 8758SOL    HW130730   3.900   5.970   3.060  0.8618 -0.8759  0.8823
 8758SOL    HW230731   3.959   6.062   3.165 -0.1647  1.0113 -0.1391
 8759SOL     OW30732   3.983   2.177   2.912  0.5620  0.2250  0.3359
 8759SOL    HW130733   4.054   2.216   2.962  2.5128 -1.3820 -0.9707
 8759SOL    HW230734   3.911   2.167   2.974  1.8288  1.0033  1.9892
 8760SOL     OW30735   1.532   0.433   1.928  0.1654  0.1545  0.0227
 8760SOL    HW130736   1.541   0.341   1.951 -1.8968 -0.8448 -2.5976
 8760SOL    HW230737   1.620   0.469   1.933  1.0649 -2.0453  0.8113
 8761SOL     OW30738   3.456   6.974   1.770  0.3187  0.3264  0.4099
 8761SOL    HW130739   3.387   6.999   1.709  0.5518  1.0051  0.4113
 8761SOL    HW230740   3.410   6.948   1.849  0.0628  0.8373  0.4315
 8762SOL     OW30741   2.613   7.597   9.872 -0.3054 -0.0832  0.2920
 8762SOL    HW130742   2.616   7.673   9.813 -0.8056  0.8086  1.3676
 8762SOL    HW230743   2.570   7.529   9.822  0.1574  0.3357 -0.7080
 8763SOL     OW30744   0.674   4.715   0.063 -0.1055  0.5065 -0.2220
 8763SOL    HW130745   0.727   4.788   0.094  0.8147 -0.8447  1.5532
 8763SOL    HW230746   0.725   4.677  -0.009  0.0872  0.7448 -0.2137
 8764SOL     OW30747   9.051   4.052  10.263 -0.2394  0.3190 -0.2736
 8764SOL    HW130748   9.115   3.981  10.260 -0.8698 -0.2346 -0.6313
 8764SOL    HW230749   9.025   4.057  10.355 -0.6332 -0.3144 -0.3461
 8765SOL     OW30750   7.291   7.996   0.787  0.0046  0.5779 -0.2128
 8765SOL    HW130751   7.248   7.910   0.789  1.7867 -0.3424  1.3561
 8765SOL    HW230752   7.358   7.988   0.719  0.4865  0.5580  0.2612
 8766SOL     OW30753   7.091   4.229  10.789  0.1552 -0.0615 -0.1381
 8766SOL    HW130754   7.046   4.298  10.741  0.3394 -0.3952 -0.8018
 8766SOL    HW230755   7.122   4.169  10.722  0.5520 -0.4605  0.3891
 8767SOL     OW30756   8.831   5.498   0.284 -0.4790 -0.2015 -0.3822
 8767SOL    HW130757   8.859   5.589   0.275  0.5950 -0.2271  1.9816
 8767SOL    HW230758   8.911   5.447   0.269 -0.4641 -0.5853  0.8959
 8768SOL     OW30759   7.956   4.338   9.811  0.2360  0.1591 -0.0714
 8768SOL    HW130760   7.952   4.244   9.795 -0.0159  0.4458 -1.9961
 8768SOL    HW230761   7.931   4.348   9.903 -0.2186 -1.5986  0.0387
 8769SOL     OW30762   5.596   2.730   8.294  0.2394  0.3209  0.1538
 8769SOL    HW130763   5.558   2.762   8.375 -0.3537  0.6113 -0.2369
 8769SOL    HW230764   5.679   2.778   8.286 -0.5006  1.5799 -0.2815
 8770SOL     OW30765   0.326   6.398   0.667  0.6068  0.2572 -0.2615
 8770SOL    HW130766   0.244   6.367   0.706 -0.5473  1.4037 -1.6506
 8770SOL    HW230767   0.373   6.319   0.642  1.2291 -0.5212  2.9727
 8771SOL     OW30768   5.406   5.722   2.744 -0.0864  0.3170  0.1216
 8771SOL    HW130769   5.313   5.699   2.738 -0.0537  0.0288  0.6735
 8771SOL    HW230770   5.425   5.766   2.661 -0.5333 -0.2867 -0.3085
 8772SOL     OW30771   1.341   4.007   8.061 -0.3898 -0.1252 -0.1150
 8772SOL    HW130772   1.429   4.034   8.035 -0.9170 -0.1054 -2.0499
 8772SOL    HW230773   1.333   3.917   8.029 -0.7592 -0.4483  0.8624
 8773SOL     OW30774   3.557   6.882   7.489 -0.5949  0.3723 -0.0310
 8773SOL    HW130775   3.623   6.831   7.534 -0.1504  0.7500 -0.2470
 8773SOL    HW230776   3.493   6.906   7.556  0.0087  0.8489  0.3751
 8774SOL     OW30777   3.324   8.003   4.845 -0.0542  0.1196 -0.4811
 8774SOL    HW130778   3.404   7.965   4.883 -0.2545  0.9693  0.8687
 8774SOL    HW230779   3.264   8.009   4.919 -0.2126  2.5206 -0.7369
 8775SOL     OW30780   9.904   1.778   3.246  0.2115 -0.0779 -0.4561
 8775SOL    HW130781   9.903   1.696   3.196  1.7509 -1.3058  1.3865
 8775SOL    HW230782   9.906   1.750   3.338 -2.6059  2.0795  0.3849
 8776SOL     OW30783   5.773   3.302   5.060 -0.0609  0.4144  0.0730
 8776SOL    HW130784   5.841   3.240   5.037 -0.1105  0.4034 -0.0482
 8776SOL    HW230785   5.723   3.260   5.129 -0.1609  0.2730 -0.0848
 8777SOL     OW30786   4.831   5.329  10.714 -0.7883  0.5457  0.4184
 8777SOL    HW130787   4.905   5.317  10.655 -1.6419  1.7580 -0.9657
 8777SOL    HW230788   4.821   5.245  10.758  0.4940 -0.0807 -0.4525
 8778SOL     OW30789   9.882   1.981   6.271 -0.2845  0.7614  0.2929
 8778SOL    HW130790   9.790   1.963   6.250  0.4583 -1.2828 -1.5684
 8778SOL    HW230791   9.898   2.068   6.234 -1.2058  0.7082 -0.2804
 8779SOL     OW30792   5.910   7.528   9.247  0.2663 -0.0079  0.2828
 8779SOL    HW130793   5.897   7.441   9.286  0.1595 -0.6060 -1.0407
 8779SOL    HW230794   5.965   7.512   9.171  2.2842  1.4381  1.3606
 8780SOL     OW30795   9.859   3.445   1.751  0.3530 -0.0002 -0.6533
 8780SOL    HW130796   9.899   3.431   1.837 -0.9857  2.3011  0.4409
 8780SOL    HW230797   9.932   3.463   1.692  1.2583 -1.1239  0.0905
 8781SOL     OW30798   0.771   7.589   2.417 -0.6249 -0.0430  0.5197
 8781SOL    HW130799   0.810   7.662   2.466 -0.4894 -0.1567  0.5835
 8781SOL    HW230800   0.712   7.631   2.355  0.3502  0.2026 -0.2811
 8782SOL     OW30801  10.841   9.147   1.457  0.3044 -0.2838  0.1697
 8782SOL    HW130802  10.918   9.162   1.402 -0.0047 -0.1169 -0.2240
 8782SOL    HW230803  10.811   9.235   1.480 -0.1322 -0.3357 -0.1918
 8783SOL     OW30804   5.049   5.607   8.243 -0.6985  0.1944 -0.0362
 8783SOL    HW130805   4.970   5.640   8.199 -1.1479  2.3817  2.1643
 8783SOL    HW230806   5.070   5.526   8.197 -4.0082 -0.2900 -0.9674
 8784SOL     OW30807   7.797   5.390   5.740  0.1519 -0.9664 -0.0561
 8784SOL    HW130808   7.871   5.449   5.755 -1.3453  0.7231  1.1547
 8784SOL    HW230809   7.827   5.306   5.775  1.7982 -0.5638 -0.3841
 8785SOL     OW30810   8.569   8.548   6.075 -0.1566  0.3400  0.1368
 8785SOL    HW130811   8.517   8.485   6.126 -0.5108  0.4524 -0.0759
 8785SOL    HW230812   8.647   8.564   6.128 -0.2772  0.0627  0.4012
 8786SOL     OW30813   2.500   7.549   1.004 -0.0479  0.5498  0.0342
 8786SOL    HW130814   2.573   7.583   1.055 -1.2078 -0.5784  2.6377
 8786SOL    HW230815   2.534   7.542   0.915  3.2696 -0.5576  1.2276
 8787SOL     OW30816   8.086   7.641   9.084  0.6716 -0.2955 -0.2408
 8787SOL    HW130817   7.994   7.617   9.070  0.5358 -0.7879  1.2979
 8787SOL    HW230818   8.099   7.718   9.029 -0.6336 -0.3044 -0.5973
 8788SOL     OW30819   0.743   1.707   5.445 -0.4748  0.4683  0.7383
 8788SOL    HW130820   0.707   1.679   5.362 -1.5362 -0.4033  1.4712
 8788SOL    HW230821   0.776   1.627   5.486  0.1481  0.9049  1.1108
 8789SOL     OW30822   0.856   1.534   7.036 -0.2455  0.0717 -0.4318
 8789SOL    HW130823   0.847   1.440   7.053  0.4688  0.0949  0.1543
 8789SOL    HW230824   0.932   1.541   6.978 -1.2357  0.1832 -1.7576
 8790SOL     OW30825   3.451   2.596  10.533 -0.1432  0.5507 -0.1240
 8790SOL    HW130826   3.360   2.606  10.507 -0.5341 -1.1147  0.5109
 8790SOL    HW230827   3.474   2.507  10.509  2.0404  1.5691 -2.3041
 8791SOL     OW30828   7.975   7.596   5.224  0.1052 -0.0515  0.1622
 8791SOL    HW130829   7.911   7.539   5.182  0.0404 -0.1405  0.3799
 8791SOL    HW230830   7.940   7.611   5.312 -0.2335  0.8981 -0.1291
 8792SOL     OW30831   5.384   9.169   7.399 -0.2533 -0.0077 -0.0715
 8792SOL    HW130832   5.321   9.230   7.437 -0.7950  0.3443 -1.4717
 8792SOL    HW230833   5.455   9.225   7.367  0.5480 -0.3615  1.0549
 8793SOL     OW30834   7.925   7.971   8.533 -0.4582  0.2438  0.8847
 8793SOL    HW130835   7.970   8.045   8.492  0.8921 -0.4001  1.1139
 8793SOL    HW230836   7.851   7.952   8.475 -1.8748  2.8293  1.7309
 8794SOL     OW30837   2.929   6.620   0.643 -0.2465 -0.2341  0.6720
 8794SOL    HW130838   2.836   6.614   0.665 -0.3288 -0.0179  0.3735
 8794SOL    HW230839   2.956   6.529   0.629 -0.6259 -0.2260 -0.1381
 8795SOL     OW30840   8.917   2.600   2.155  0.2715 -0.1610 -0.3047
 8795SOL    HW130841   8.902   2.556   2.071  0.7224  0.9736 -1.0091
 8795SOL    HW230842   9.006   2.634   2.148 -0.3247  1.5130 -0.0995
 8796SOL     OW30843   9.204   4.025   0.355 -0.1118 -0.2601  0.0953
 8796SOL    HW130844   9.126   4.024   0.299  0.0082 -0.2294 -0.0728
 8796SOL    HW230845   9.269   3.973   0.308  0.0821 -0.0022  0.0718
 8797SOL     OW30846   2.336   2.620   0.178  0.2875  0.3033 -0.1676
 8797SOL    HW130847   2.423   2.619   0.138 -0.1791 -0.5251 -1.2131
 8797SOL    HW230848   2.288   2.688   0.131  0.0659  0.0706 -0.2813
 8798SOL     OW30849   7.660   8.830   1.300  0.0013  0.1097 -0.2459
 8798SOL    HW130850   7.603   8.776   1.355 -0.6966  1.4910  0.4411
 8798SOL    HW230851   7.608   8.909   1.282  1.2611  0.8960 -0.5710
 8799SOL     OW30852   3.387  10.469   2.351  0.5153  0.0561 -0.1553
 8799SOL    HW130853   3.393  10.464   2.446  1.9695  1.9409 -0.0849
 8799SOL    HW230854   3.476  10.451   2.320  0.0410 -0.6435 -1.1927
 8800SOL     OW30855   9.608   3.362   3.587 -0.5493  0.2112  0.1082
 8800SOL    HW130856   9.685   3.322   3.547 -1.2290 -0.6674 -0.3504
 8800SOL    HW230857   9.534   3.315   3.549 -1.3859  1.7954 -0.3133
 8801SOL     OW30858   0.214   3.454   1.710  0.1869 -0.3717  0.1081
 8801SOL    HW130859   0.225   3.549   1.712  1.7479 -0.5331  0.4438
 8801SOL    HW230860   0.238   3.425   1.798 -0.2154 -1.0834 -0.0095
 8802SOL     OW30861   4.056   3.443  10.358  0.8020  0.2842  0.1544
 8802SOL    HW130862   4.137   3.419  10.313  2.3430  1.9445  1.8670
 8802SOL    HW230863   4.050   3.381  10.431  1.2212  0.9411  0.7537
 8803SOL     OW30864   1.854   6.092   0.403 -0.2269 -0.0281 -0.2691
 8803SOL    HW130865   1.837   6.000   0.421  0.7550 -0.2927 -0.6662
 8803SOL    HW230866   1.802   6.111   0.325 -0.1674 -0.3380 -0.3862
 8804SOL     OW30867   6.419   8.511   3.572 -0.4302 -0.2928 -0.3608
 8804SOL    HW130868   6.415   8.577   3.641  0.3910  0.8160 -1.3287
 8804SOL    HW230869   6.356   8.540   3.506  0.3677 -0.1325 -1.0699
 8805SOL     OW30870   5.879   4.215   3.983  0.2282 -0.0308 -0.2075
 8805SOL    HW130871   5.834   4.254   4.058 -0.7245  0.3348 -0.9502
 8805SOL    HW230872   5.921   4.137   4.019  0.3065  0.4689  0.8319
 8806SOL     OW30873   4.596   4.920   1.345 -0.1778 -0.0678  0.0337
 8806SOL    HW130874   4.546   4.839   1.355 -1.2228  0.5871  0.3648
 8806SOL    HW230875   4.655   4.904   1.271  1.6412 -2.0719  1.7988
 8807SOL     OW30876   8.805   7.628   7.681  0.0409 -0.3489  0.8333
 8807SOL    HW130877   8.771   7.575   7.609 -0.0402  0.4163  0.2912
 8807SOL    HW230878   8.871   7.573   7.723 -0.4120 -1.0704  0.6132
 8808SOL     OW30879   5.582  10.845   1.532  0.1801  0.2234  0.0632
 8808SOL    HW130880   5.656  10.784   1.522  0.5270  0.7646 -0.7085
 8808SOL    HW230881   5.623  10.928   1.558 -0.2024  0.4126  0.0625
 8809SOL     OW30882   2.919   0.637   8.567  0.1837  0.0187  0.7658
 8809SOL    HW130883   3.000   0.605   8.605  0.7487  1.2099  0.6335
 8809SOL    HW230884   2.931   0.732   8.561 -0.5511  0.0611 -0.7768
 8810SOL     OW30885   7.751   2.810   9.008 -0.5370  0.4283 -0.5363
 8810SOL    HW130886   7.753   2.886   9.067  1.5952 -1.2100  1.7213
 8810SOL    HW230887   7.842   2.801   8.979 -0.2332 -2.4227  0.9713
 8811SOL     OW30888   1.232   5.030   5.040  0.1732 -0.3843 -0.5916
 8811SOL    HW130889   1.328   5.024   5.032  0.0459 -0.9267 -1.9509
 8811SOL    HW230890   1.204   4.940   5.056 -0.0287 -0.0380  1.2537
 8812SOL     OW30891   3.197   7.331  10.142  0.5353  0.1496  0.1411
 8812SOL    HW130892   3.184   7.296  10.229  0.2673 -0.7908 -0.2684
 8812SOL    HW230893   3.153   7.270  10.084 -0.0645  1.2328 -0.5945
 8813SOL     OW30894   4.804  11.027   4.586 -0.0713  0.6730  0.1857
 8813SOL    HW130895   4.887  11.024   4.537 -0.2948 -0.4532 -0.1536
 8813SOL    HW230896   4.767  11.113   4.566 -0.4685  0.0142 -2.1970
 8814SOL     OW30897  10.453   6.790   8.345 -0.2187  0.0229  0.6762
 8814SOL    HW130898  10.467   6.801   8.439 -1.3335 -0.4151  0.9057
 8814SOL    HW230899  10.526   6.735   8.317  0.4172  0.5836  1.1755
 8815SOL     OW30900   7.821   5.479   6.490 -0.3810 -0.0962  0.3335
 8815SOL    HW130901   7.797   5.572   6.497 -0.5644 -0.1131 -0.0500
 8815SOL    HW230902   7.756   5.442   6.430 -0.3191 -0.4782  0.5010
 8816SOL     OW30903   8.267   2.931   8.653 -0.1616  0.4863  0.4812
 8816SOL    HW130904   8.236   2.876   8.726 -0.0597 -0.3233 -0.0705
 8816SOL    HW230905   8.348   2.889   8.625 -0.0430  0.9726  0.0970
 8817SOL     OW30906   6.104   0.676   8.301  0.2073 -0.4736 -0.1980
 8817SOL    HW130907   6.171   0.608   8.305  0.9206  0.1323 -1.2542
 8817SOL    HW230908   6.053   0.656   8.222  0.4439  0.2243 -0.5359
 8818SOL     OW30909   5.779   5.189   1.783  0.1659  0.4102  0.3221
 8818SOL    HW130910   5.816   5.118   1.730 -0.8316  0.2097 -0.1295
 8818SOL    HW230911   5.717   5.146   1.841 -1.0937  0.9943 -0.5593
 8819SOL     OW30912   3.385   5.042   8.211  0.2338  0.3546  0.0626
 8819SOL    HW130913   3.466   4.997   8.236  0.2689 -0.7208 -1.8024
 8819SOL    HW230914   3.405   5.135   8.220  1.3627  0.0801  0.5165
 8820SOL     OW30915   4.728   1.256  10.337  0.0258  0.0083 -0.2585
 8820SOL    HW130916   4.800   1.258  10.401  0.7032  0.0777 -1.0127
 8820SOL    HW230917   4.706   1.348  10.324  0.4493  0.0458 -0.7403
 8821SOL     OW30918   9.536   1.320   0.841  0.4444 -0.5691  0.5758
 8821SOL    HW130919   9.484   1.277   0.773 -0.3680 -1.7591  1.8965
 8821SOL    HW230920   9.474   1.379   0.884  0.7274 -0.4518  0.8244
 8822SOL     OW30921  10.843   3.778   9.773  0.0422 -0.2635  0.4706
 8822SOL    HW130922  10.795   3.838   9.830 -1.0234 -1.5278  0.9620
 8822SOL    HW230923  10.932   3.813   9.770 -0.1292  0.3983  2.1251
 8823SOL     OW30924   7.349   2.297   1.752  0.8300  0.8614  0.2607
 8823SOL    HW130925   7.403   2.262   1.823 -0.6069 -0.3280  0.8185
 8823SOL    HW230926   7.269   2.245   1.755 -0.0336  2.0509 -1.0498
 8824SOL     OW30927   6.738   5.923   2.615 -0.5608  0.1360  0.2609
 8824SOL    HW130928   6.827   5.958   2.614 -0.4574 -0.0661  1.3624
 8824SOL    HW230929   6.686   5.993   2.656 -0.6646 -0.2685  0.8291
 8825SOL     OW30930   5.087   0.092   9.124 -0.0846  0.2015 -0.4142
 8825SOL    HW130931   5.043   0.172   9.152 -1.0480 -0.1948 -0.7535
 8825SOL    HW230932   5.178   0.117   9.112  0.2548  0.6082  2.2548
 8826SOL     OW30933   6.087   3.377  10.432 -0.0299  0.1331  0.3285
 8826SOL    HW130934   6.050   3.419  10.354  1.3204  2.4751  0.8387
 8826SOL    HW230935   6.012   3.355  10.486 -0.8980  0.0855 -0.8579
 8827SOL     OW30936   7.947   0.522   4.708 -0.1556  0.3771  0.3713
 8827SOL    HW130937   7.954   0.454   4.641  2.3924  0.3176  0.5898
 8827SOL    HW230938   7.878   0.490   4.767 -1.5352 -0.1871 -1.4672
 8828SOL     OW30939   0.328   2.131   7.027 -0.0313  0.1448  0.3686
 8828SOL    HW130940   0.354   2.188   6.955 -1.3979 -0.0563 -0.3226
 8828SOL    HW230941   0.298   2.191   7.095  1.5620  0.3493  0.9421
 8829SOL     OW30942   5.117   0.575   5.487 -0.4856 -0.6539 -0.1179
 8829SOL    HW130943   5.149   0.656   5.446 -1.1036  0.9616  2.3623
 8829SOL    HW230944   5.059   0.605   5.557  1.0714 -3.1374  2.4534
 8830SOL     OW30945   5.162   9.910   9.066  0.7799 -0.2591  0.3448
 8830SOL    HW130946   5.085   9.916   9.010  1.6940 -3.3959 -1.4745
 8830SOL    HW230947   5.145   9.973   9.136 -2.9202 -0.0369 -0.5387
 8831SOL     OW30948   8.487  10.347   0.129 -0.2086  0.4843  0.7513
 8831SOL    HW130949   8.394  10.362   0.142 -0.2528  1.8995 -0.9330
 8831SOL    HW230950   8.529  10.389   0.204 -0.8873 -0.0638  1.4555
 8832SOL     OW30951   4.172   6.106   0.078  0.9570 -0.4175  0.1055
 8832SOL    HW130952   4.214   6.020   0.084  3.1765  0.6216  0.1820
 8832SOL    HW230953   4.224   6.163   0.135 -1.0131  0.8139  0.7766
 8833SOL     OW30954   7.775   9.030   0.213  0.3690 -0.3505 -0.5014
 8833SOL    HW130955   7.750   8.938   0.222  0.7575 -0.2812  2.0334
 8833SOL    HW230956   7.835   9.046   0.286 -0.7558  2.2626 -0.0396
 8834SOL     OW30957   4.736  10.055   7.894  0.1217 -0.4655  0.4608
 8834SOL    HW130958   4.705  10.144   7.878  0.5011  0.0683  2.4135
 8834SOL    HW230959   4.678   9.999   7.842 -0.4940  0.8811 -0.3274
 8835SOL     OW30960   0.640   2.470   7.548  0.2134  0.2702 -0.0450
 8835SOL    HW130961   0.655   2.519   7.629  0.7081  0.3642 -0.1915
 8835SOL    HW230962   0.722   2.479   7.499 -0.8383  2.2645 -1.6364
 8836SOL     OW30963   0.776   3.044  10.505  0.2230 -0.3087 -0.9075
 8836SOL    HW130964   0.812   3.018  10.420  1.1611 -0.8315 -0.3704
 8836SOL    HW230965   0.796   2.970  10.563 -1.0407 -0.2809 -0.3867
 8837SOL     OW30966  10.391   8.402   4.960 -0.7792  0.3067  0.1472
 8837SOL    HW130967  10.381   8.496   4.974  1.0271  0.4938  0.3536
 8837SOL    HW230968  10.351   8.361   5.037 -2.8577  0.8090 -0.6032
 8838SOL     OW30969   5.490   5.581   3.919 -0.1737  0.2818  0.2003
 8838SOL    HW130970   5.531   5.557   4.003 -0.9350  1.7772  1.0395
 8838SOL    HW230971   5.536   5.660   3.892 -1.8736  1.5185  0.7461
 8839SOL     OW30972   2.591   2.101   2.379 -0.1701  0.1322 -0.3815
 8839SOL    HW130973   2.547   2.052   2.449 -1.3537  0.9817 -0.5045
 8839SOL    HW230974   2.617   2.034   2.316 -1.7047 -0.3686 -0.5218
 8840SOL     OW30975   9.616   9.204   5.303 -0.8634 -0.0762  0.6380
 8840SOL    HW130976   9.642   9.113   5.288  1.6571  0.7906 -0.7832
 8840SOL    HW230977   9.568   9.230   5.224  0.2236  0.4056  0.1215
 8841SOL     OW30978   7.543   1.316   3.134  0.3092 -0.0973  0.2498
 8841SOL    HW130979   7.454   1.282   3.129  0.3302 -0.1284  0.1061
 8841SOL    HW230980   7.543   1.396   3.081 -0.0306  0.7537  1.4677
 8842SOL     OW30981   6.564  10.661   5.509  0.7482  0.3845 -0.2242
 8842SOL    HW130982   6.526  10.573   5.503  1.8074 -0.1666  0.7423
 8842SOL    HW230983   6.648  10.654   5.463  1.2586  0.6212  0.6376
 8843SOL     OW30984   5.758   3.568   3.821  0.2927 -0.4153 -0.0327
 8843SOL    HW130985   5.674   3.614   3.823 -0.2727 -1.2240 -2.1317
 8843SOL    HW230986   5.757   3.519   3.738  2.3051 -1.4662  0.4825
 8844SOL     OW30987   3.553   7.688   2.136 -0.0255  0.3637 -0.1258
 8844SOL    HW130988   3.582   7.779   2.149 -0.0552  0.5123 -0.9794
 8844SOL    HW230989   3.604   7.637   2.198  0.0107  0.9604  0.3510
 8845SOL     OW30990  10.714   7.901   3.454  0.2632  0.4868  0.4972
 8845SOL    HW130991  10.753   7.846   3.386 -1.4123 -1.8621  1.2943
 8845SOL    HW230992  10.654   7.958   3.407  0.3882  0.0872 -0.1599
 8846SOL     OW30993   7.221   6.343   5.611  0.1399 -0.6172 -0.0512
 8846SOL    HW130994   7.231   6.256   5.651 -0.4371 -0.0271  1.4433
 8846SOL    HW230995   7.128   6.364   5.622  0.3746  0.4165  0.0646
 8847SOL     OW30996   4.781   7.869   0.712  0.0160  0.7793  0.1877
 8847SOL    HW130997   4.745   7.914   0.636  0.4323  0.0330 -0.4748
 8847SOL    HW230998   4.840   7.933   0.752  0.0238  1.0820 -0.2959
 8848SOL     OW30999   2.746   0.629   7.733  0.8276 -0.3291 -0.0987
 8848SOL    HW131000   2.773   0.540   7.710  0.9426 -0.6675  1.2298
 8848SOL    HW231001   2.796   0.685   7.674  1.6168 -1.1042 -0.1906
 8849SOL     OW31002   4.052   2.149   4.130 -0.1369  0.6186  0.0056
 8849SOL    HW131003   3.982   2.105   4.082 -1.6177  0.4996  2.1641
 8849SOL    HW231004   4.022   2.151   4.221  2.9672 -0.0317  1.1745
 8850SOL     OW31005   8.115   2.594   8.959 -0.3006 -0.2602  0.0028
 8850SOL    HW131006   8.099   2.640   8.876 -0.7357 -0.4455 -0.0154
 8850SOL    HW231007   8.029   2.563   8.987 -0.5414  1.7724  1.7181
 8851SOL     OW31008   3.634   5.648   1.978  0.0119  0.1856  0.6109
 8851SOL    HW131009   3.556   5.606   2.014 -0.7464  0.0249 -1.0999
 8851SOL    HW231010   3.661   5.710   2.045 -0.8339 -0.6591  1.7697
 8852SOL     OW31011   4.442   3.499   7.044 -0.4218 -0.0432 -0.0517
 8852SOL    HW131012   4.348   3.494   7.061 -0.2729 -0.0789  0.7857
 8852SOL    HW231013   4.448   3.531   6.954 -1.2354 -0.6841 -0.3467
 8853SOL     OW31014   0.602   6.135   7.387  0.3514 -0.1262 -0.0490
 8853SOL    HW131015   0.573   6.075   7.318 -0.9895 -0.3956  0.7149
 8853SOL    HW231016   0.557   6.105   7.466  0.5234  1.2053  0.5926
 8854SOL     OW31017   4.527   4.769   8.643 -0.6197  0.1389 -0.1240
 8854SOL    HW131018   4.568   4.850   8.612 -1.4311  0.6202  0.0324
 8854SOL    HW231019   4.599   4.719   8.681 -0.5401  2.1563  2.6836
 8855SOL     OW31020   4.042   4.862  10.312  0.7334 -0.3126  0.1333
 8855SOL    HW131021   4.053   4.810  10.392  0.8652 -0.3723  0.0757
 8855SOL    HW231022   3.995   4.803  10.252  1.1880 -0.4900 -0.0546
 8856SOL     OW31023   8.576   1.061   8.499 -0.1166  0.7510  0.0779
 8856SOL    HW131024   8.568   1.142   8.450 -1.2728  0.3805 -0.3762
 8856SOL    HW231025   8.669   1.037   8.491 -0.3798  0.2896 -2.6520
 8857SOL     OW31026  10.077   0.985  11.031 -0.0302 -0.0237 -0.1060
 8857SOL    HW131027  10.108   1.053  10.972 -0.0837  0.2827  0.2122
 8857SOL    HW231028  10.146   0.919  11.032  0.3072  0.3300  0.0752
 8858SOL     OW31029   2.685   4.234   8.141 -0.2918 -0.4681  0.3990
 8858SOL    HW131030   2.725   4.255   8.056 -0.5263 -2.1571 -0.1784
 8858SOL    HW231031   2.752   4.258   8.205 -0.6399  2.1611 -0.1074
 8859SOL     OW31032   5.687   2.207  10.722 -0.2223  0.1686 -0.1558
 8859SOL    HW131033   5.599   2.187  10.690 -0.6692  1.1946  0.3913
 8859SOL    HW231034   5.731   2.248  10.647 -0.7582  1.1348  0.0331
 8860SOL     OW31035   5.144   0.901   3.064 -0.5856  0.7193 -0.3178
 8860SOL    HW131036   5.108   0.814   3.080 -1.0920  0.5682 -2.0358
 8860SOL    HW231037   5.237   0.887   3.049 -0.5517  0.5627  0.0374
 8861SOL     OW31038   2.751   0.654   6.957 -0.3821  0.1786 -0.2258
 8861SOL    HW131039   2.843   0.668   6.979 -0.1331  1.3283 -1.7494
 8861SOL    HW231040   2.751   0.575   6.903  0.3753  2.0749 -3.3248
 8862SOL     OW31041   9.341   8.414   1.202 -0.0723 -0.0837  0.2360
 8862SOL    HW131042   9.283   8.390   1.275 -0.7325 -0.0602 -0.2743
 8862SOL    HW231043   9.425   8.432   1.244 -0.3693 -0.3397  0.9648
 8863SOL     OW31044   5.394   7.705   4.593 -0.2011  0.7278 -0.0669
 8863SOL    HW131045   5.413   7.661   4.510 -0.0616 -1.0636  0.8559
 8863SOL    HW231046   5.475   7.752   4.614  1.3123 -2.0345  0.9208
 8864SOL     OW31047   5.017   2.201   9.437 -0.0335 -0.7880  0.2612
 8864SOL    HW131048   5.059   2.269   9.385 -2.2963 -1.0476 -2.1708
 8864SOL    HW231049   5.077   2.184   9.509  1.6176  2.1921 -0.2608
 8865SOL     OW31050   2.383   9.506   3.805  0.3176 -0.0699 -0.2756
 8865SOL    HW131051   2.455   9.506   3.869  0.5536  1.1034 -0.5174
 8865SOL    HW231052   2.358   9.414   3.798  0.6240 -0.2914  1.1194
 8866SOL     OW31053   2.921   7.159   8.095 -0.0661  0.1424  0.2843
 8866SOL    HW131054   2.975   7.197   8.026  1.9753 -1.3413  0.9579
 8866SOL    HW231055   2.833   7.156   8.058  0.3000  2.5027 -0.9267
 8867SOL     OW31056   2.668  11.066   5.052  0.3432  0.1724 -0.1008
 8867SOL    HW131057   2.630  11.154   5.051  1.2532  0.5931  0.5004
 8867SOL    HW231058   2.689  11.047   4.960 -0.5291  0.2716 -0.3264
 8868SOL     OW31059   3.489   7.474   4.884  0.3873 -0.6121  0.0350
 8868SOL    HW131060   3.437   7.469   4.964 -0.6779  0.6424 -0.5479
 8868SOL    HW231061   3.469   7.392   4.838  1.6206 -1.7283  1.3418
 8869SOL     OW31062   3.654   1.238   9.487 -0.3236 -0.0277  0.5705
 8869SOL    HW131063   3.712   1.185   9.541 -2.1940 -3.6204 -0.6217
 8869SOL    HW231064   3.680   1.219   9.397 -0.8585  1.3802  0.0805
 8870SOL     OW31065   6.890  10.918  10.109 -0.0838 -0.1943  0.1094
 8870SOL    HW131066   6.856  10.871  10.033 -1.4398  1.3336 -0.2783
 8870SOL    HW231067   6.984  10.927  10.091  0.0177 -1.8217 -0.2762
 8871SOL     OW31068   5.755  10.434   6.337  0.8369  0.8057 -0.7010
 8871SOL    HW131069   5.846  10.450   6.359  0.6606  0.7812  0.0623
 8871SOL    HW231070   5.726  10.517   6.298  0.8146  1.2891  0.3094
 8872SOL     OW31071   4.660   3.115   7.469  0.1026 -0.3095  0.4463
 8872SOL    HW131072   4.674   3.032   7.514  0.1672 -0.5426  0.0074
 8872SOL    HW231073   4.683   3.182   7.533 -2.1583 -0.5576  1.6265
 8873SOL     OW31074   6.851   2.433   8.234 -0.1552 -0.1171 -0.2149
 8873SOL    HW131075   6.927   2.483   8.204  0.7511 -1.4574 -0.2196
 8873SOL    HW231076   6.858   2.434   8.329 -0.0683 -0.3426 -0.2201
 8874SOL     OW31077   8.566   8.878   8.976 -0.5388  0.1567 -0.1007
 8874SOL    HW131078   8.604   8.890   8.889  0.2159 -2.0017 -0.1319
 8874SOL    HW231079   8.478   8.845   8.959  0.2995 -2.2629 -0.1479
 8875SOL     OW31080   0.561   8.040   8.312  0.2963  0.1591  0.4023
 8875SOL    HW131081   0.548   8.134   8.304  0.4802  0.1200 -0.4379
 8875SOL    HW231082   0.473   8.005   8.329 -0.2493  0.2441 -1.8654
 8876SOL     OW31083   9.341   0.300   1.984  0.3838 -0.1972  0.1458
 8876SOL    HW131084   9.330   0.218   2.032 -2.0550  0.6663  1.1896
 8876SOL    HW231085   9.342   0.274   1.892  0.3051 -1.4503  0.4791
 8877SOL     OW31086   2.445   7.006   5.500 -0.6102 -0.3472  0.2126
 8877SOL    HW131087   2.357   7.041   5.488 -1.2027 -1.1061  2.1279
 8877SOL    HW231088   2.471   6.977   5.412 -1.3479  1.8582 -0.8288
 8878SOL     OW31089   9.617  10.486  10.268  0.1784  0.4470 -0.3185
 8878SOL    HW131090   9.690  10.544  10.287  1.5396 -1.1745 -0.3132
 8878SOL    HW231091   9.574  10.524  10.191  1.7717  0.8070 -1.0564
 8879SOL     OW31092   0.937   4.176   0.572 -0.3301 -0.4110  0.0748
 8879SOL    HW131093   0.953   4.121   0.495 -1.3505 -1.0604  0.3078
 8879SOL    HW231094   0.991   4.138   0.641  1.0170  0.5067 -0.4369
 8880SOL     OW31095   0.775   2.176   3.637 -0.2104  0.5781  0.1074
 8880SOL    HW131096   0.768   2.271   3.647 -3.4433  0.3665  1.1361
 8880SOL    HW231097   0.746   2.140   3.721 -0.6741 -1.2969 -0.7780
 8881SOL     OW31098   8.684   1.946   7.976  0.8084 -0.3201 -0.3498
 8881SOL    HW131099   8.594   1.976   7.961  1.3280  0.8471 -1.3907
 8881SOL    HW231100   8.674   1.861   8.019 -0.7750  0.1595  0.3343
 8882SOL     OW31101   2.659   4.003   6.961  0.3490 -0.3044  0.0287
 8882SOL    HW131102   2.577   3.970   6.996  0.8668 -2.7346 -0.8445
 8882SOL    HW231103   2.719   3.928   6.963  2.3776  1.2095  0.0452
 8883SOL     OW31104   7.025   7.085   8.874 -0.1791  0.3060 -0.3759
 8883SOL    HW131105   7.006   7.024   8.803  1.7519 -0.8080 -0.0148
 8883SOL    HW231106   6.953   7.148   8.872 -1.5571 -1.2252 -1.6040
 8884SOL     OW31107   4.482   5.251   1.866  0.1548  1.0593 -0.0748
 8884SOL    HW131108   4.455   5.318   1.929 -1.9335  0.2631 -0.0213
 8884SOL    HW231109   4.560   5.211   1.904 -1.3542  0.2011  2.3511
 8885SOL     OW31110   5.836   8.122   1.992 -0.2967 -0.2963 -0.3692
 8885SOL    HW131111   5.741   8.132   2.003 -0.4228 -0.1144 -1.4876
 8885SOL    HW231112   5.874   8.180   2.058 -0.9981  2.2531 -2.0689
 8886SOL     OW31113   6.923   4.868   0.598  0.0992  0.0930 -0.5565
 8886SOL    HW131114   6.901   4.787   0.551 -2.0204  0.0385  0.4207
 8886SOL    HW231115   6.980   4.915   0.537 -0.6107 -1.0409 -2.1958
 8887SOL     OW31116   7.510   7.645   0.849 -0.3980 -0.0566 -0.4174
 8887SOL    HW131117   7.604   7.647   0.868 -0.2975  3.5463 -0.7129
 8887SOL    HW231118   7.470   7.623   0.933  0.6223  0.7820  0.3201
 8888SOL     OW31119   9.949   1.772   6.649 -0.8753  0.2415  0.7580
 8888SOL    HW131120   9.855   1.760   6.661 -0.9229  2.1370  3.2918
 8888SOL    HW231121   9.984   1.772   6.738  1.5128 -0.2551 -0.1285
 8889SOL     OW31122   0.230   8.158   0.961  0.0874  0.0165 -0.0540
 8889SOL    HW131123   0.323   8.147   0.980 -0.6347 -2.0401  3.0539
 8889SOL    HW231124   0.212   8.249   0.986  0.9475 -0.1200  1.1619
 8890SOL     OW31125   1.435   3.681   8.663 -0.3430  0.1047  0.0492
 8890SOL    HW131126   1.480   3.749   8.613  0.4060  0.4875  1.1952
 8890SOL    HW231127   1.501   3.612   8.675 -0.5618 -0.0566  0.3485
 8891SOL     OW31128   9.187   6.373   1.881 -0.6868 -0.3104  0.0756
 8891SOL    HW131129   9.212   6.450   1.933  0.6945  0.8494 -2.1342
 8891SOL    HW231130   9.233   6.300   1.922  0.2592  0.5391  0.5805
 8892SOL     OW31131   6.788   7.922   4.874 -0.0853  0.4144 -0.0833
 8892SOL    HW131132   6.800   7.864   4.949 -2.7807 -1.2717 -0.8127
 8892SOL    HW231133   6.707   7.970   4.893 -2.1363 -1.6499 -2.6799
 8893SOL     OW31134   3.586   9.395   5.532 -0.5098  0.0830  0.0613
 8893SOL    HW131135   3.635   9.328   5.580 -0.3661 -1.3611 -1.9850
 8893SOL    HW231136   3.509   9.349   5.497 -1.7813  1.6070  0.6955
 8894SOL     OW31137   3.380   6.075   6.862 -0.2606  0.2925  0.4606
 8894SOL    HW131138   3.434   6.067   6.940 -0.5324  0.9612  0.7195
 8894SOL    HW231139   3.385   6.167   6.838 -1.0936  0.3149  0.3524
 8895SOL     OW31140   2.294   3.047   1.698  0.2498 -0.0716  0.3126
 8895SOL    HW131141   2.270   2.958   1.726 -1.5661  0.5934  1.0075
 8895SOL    HW231142   2.316   3.092   1.779 -1.2814  0.7748  0.3024
 8896SOL     OW31143   7.929  10.544   0.437 -0.3635 -0.4413 -0.7421
 8896SOL    HW131144   8.021  10.558   0.462 -0.1875  0.3261 -1.7472
 8896SOL    HW231145   7.880  10.564   0.516  0.3351 -0.6917 -0.2373
 8897SOL     OW31146   1.390  10.895   5.459  0.0423  0.1009  0.0824
 8897SOL    HW131147   1.456  10.847   5.510  0.2788 -0.5221 -0.7971
 8897SOL    HW231148   1.397  10.985   5.492  0.1120 -0.3029  1.2200
 8898SOL     OW31149   6.350   5.833   4.100  0.3165 -0.5550 -0.3095
 8898SOL    HW131150   6.404   5.906   4.070  0.2719 -0.0070  0.9085
 8898SOL    HW231151   6.277   5.874   4.146 -0.1432 -1.3488 -0.3082
 8899SOL     OW31152   8.321   4.520   0.383 -0.0454 -0.7491  0.2749
 8899SOL    HW131153   8.350   4.437   0.345 -1.2755 -0.8780 -0.4631
 8899SOL    HW231154   8.256   4.553   0.320 -0.4782  0.1583  1.1721
 8900SOL     OW31155   3.791   3.479   1.844 -0.1885  0.3143 -0.4495
 8900SOL    HW131156   3.822   3.548   1.785  0.2544  0.7270  0.2523
 8900SOL    HW231157   3.705   3.454   1.809 -0.8166  1.9311 -0.1394
 8901SOL     OW31158   4.516   3.732   3.881 -0.0206 -0.1887  0.2026
 8901SOL    HW131159   4.576   3.755   3.953 -0.1448 -1.2249  0.6613
 8901SOL    HW231160   4.430   3.730   3.922 -0.1132 -0.6238 -0.0154
 8902SOL     OW31161   6.660   9.612  10.279 -0.3894 -0.0201  0.4183
 8902SOL    HW131162   6.581   9.665  10.284  0.3081  1.0796  0.3379
 8902SOL    HW231163   6.715   9.644  10.350  0.3216 -0.1560 -0.0553
 8903SOL     OW31164   0.889   5.911   7.520  0.1730 -0.3476  0.5139
 8903SOL    HW131165   0.880   5.816   7.517 -5.0910 -0.1990  2.1468
 8903SOL    HW231166   0.924   5.935   7.434  2.8387 -3.6554  0.4646
 8904SOL     OW31167   9.849   4.913   7.802  0.1902  0.0775 -0.3377
 8904SOL    HW131168   9.876   4.825   7.830  1.9397  0.3313 -1.1219
 8904SOL    HW231169   9.905   4.972   7.851 -2.7263  0.9840  2.1909
 8905SOL     OW31170   0.525   8.713   9.002  0.5769 -0.2631  0.4082
 8905SOL    HW131171   0.446   8.674   9.039  0.1809 -0.4130 -0.5796
 8905SOL    HW231172   0.493   8.779   8.940  1.1812 -1.5962 -1.3935
 8906SOL     OW31173   3.818   7.017   5.990  0.0539 -0.2092  0.0514
 8906SOL    HW131174   3.796   6.941   6.044  0.7029  0.1736  0.8760
 8906SOL    HW231175   3.902   6.994   5.951 -0.6832 -0.7242 -1.2824
 8907SOL     OW31176   0.339   9.920   7.797  0.0004 -0.2377  0.0495
 8907SOL    HW131177   0.410   9.940   7.858 -0.6258 -2.5000  1.6332
 8907SOL    HW231178   0.310  10.005   7.764  3.3029  0.7871 -0.5590
 8908SOL     OW31179   9.618   6.833   6.555  0.1275  0.1087  0.4586
 8908SOL    HW131180   9.604   6.927   6.556 -0.4749  0.0293 -0.1821
 8908SOL    HW231181   9.593   6.805   6.467  0.8086 -0.5762  0.4657
 8909SOL     OW31182  10.708   2.276   9.717 -0.2422  0.3813  0.3758
 8909SOL    HW131183  10.671   2.364   9.709  0.0714  0.4518 -0.3725
 8909SOL    HW231184  10.771   2.270   9.645 -1.1395 -0.8873 -0.3388
 8910SOL     OW31185   6.781   5.593   0.821  0.0597 -0.1292 -0.5238
 8910SOL    HW131186   6.764   5.563   0.910 -0.8053 -3.3521 -1.6687
 8910SOL    HW231187   6.696   5.593   0.778  0.6461  0.0016 -1.7414
 8911SOL     OW31188   5.534   9.755   0.735 -0.0234 -0.0933 -0.2563
 8911SOL    HW131189   5.481   9.786   0.809 -1.2710 -4.3232  0.9459
 8911SOL    HW231190   5.567   9.670   0.763  1.6007 -0.7883 -3.6887
 8912SOL     OW31191   8.548   7.092   3.290 -0.2742 -0.4352  0.1440
 8912SOL    HW131192   8.636   7.128   3.305 -0.2890 -0.1556 -0.4153
 8912SOL    HW231193   8.525   7.050   3.372  1.3111 -2.4675 -0.3649
 8913SOL     OW31194   4.170   8.693   0.529  0.0289  0.0050 -0.1889
 8913SOL    HW131195   4.129   8.633   0.465  1.8208 -0.0604 -1.3436
 8913SOL    HW231196   4.211   8.635   0.593  3.4826 -0.2322 -2.3805
 8914SOL     OW31197  10.809  10.807   4.116  0.3333 -0.3236 -0.3906
 8914SOL    HW131198  10.859  10.838   4.041 -0.0190  1.2605 -0.0021
 8914SOL    HW231199  10.851  10.724   4.140  2.0648  0.4064 -0.7705
 8915SOL     OW31200   4.250   3.680   6.577  0.7014 -0.1674  0.3327
 8915SOL    HW131201   4.204   3.742   6.521 -2.9500 -1.1136  1.9798
 8915SOL    HW231202   4.331   3.661   6.530 -1.2873  0.3468 -3.7613
 8916SOL     OW31203   9.952   5.374   7.068  0.1861 -0.0603  0.2691
 8916SOL    HW131204   9.887   5.441   7.046 -0.0989  0.1190  1.5745
 8916SOL    HW231205   9.988   5.347   6.984  0.9693  2.3763 -0.2501
 8917SOL     OW31206   0.405   3.911   1.121  1.1758 -0.1885 -0.0331
 8917SOL    HW131207   0.361   3.880   1.042 -1.1537 -1.7863  1.7578
 8917SOL    HW231208   0.399   4.006   1.116 -1.6917 -0.2959 -0.4063
 8918SOL     OW31209   8.607   9.565   3.545  0.0655  0.6544  0.2235
 8918SOL    HW131210   8.562   9.647   3.566  2.3020  1.7163  1.2556
 8918SOL    HW231211   8.636   9.532   3.630 -1.1965 -1.5192 -0.1205
 8919SOL     OW31212   8.953   0.386   6.610  0.1776 -0.4776 -0.0060
 8919SOL    HW131213   8.880   0.391   6.548  0.1051  1.9508  0.1960
 8919SOL    HW231214   9.000   0.469   6.598  0.7072 -0.3434  2.5245
 8920SOL     OW31215   6.185   3.131   5.636  0.1723 -0.2046 -0.0558
 8920SOL    HW131216   6.139   3.196   5.582  1.0796  0.0877 -0.5001
 8920SOL    HW231217   6.142   3.048   5.616  1.7215 -0.4626 -2.7974
 8921SOL     OW31218  10.340   7.741   9.912  0.2563  0.0034 -0.0153
 8921SOL    HW131219  10.424   7.701   9.893 -0.1302 -0.6240 -0.4337
 8921SOL    HW231220  10.278   7.698   9.853 -0.0080  1.9086 -1.2269
 8922SOL     OW31221   3.073   0.682   0.487  0.3863  1.0172  0.4377
 8922SOL    HW131222   2.990   0.719   0.516 -0.2272  2.0703 -2.4267
 8922SOL    HW231223   3.112   0.748   0.430  1.8764 -0.5584 -0.4944
 8923SOL     OW31224  10.224   8.545   7.758 -0.4191 -0.5400 -0.4282
 8923SOL    HW131225  10.229   8.570   7.665  2.2220  0.9918  0.0202
 8923SOL    HW231226  10.285   8.604   7.802 -3.4113  0.4984  2.7378
 8924SOL     OW31227   9.317   9.320   1.075  1.2131 -0.7920 -0.0351
 8924SOL    HW131228   9.253   9.258   1.040 -0.2056 -0.3194  1.5920
 8924SOL    HW231229   9.279   9.406   1.059  1.9822 -0.4512 -0.0566
 8925SOL     OW31230   9.462   5.396   1.467  0.0206  0.5267  0.3495
 8925SOL    HW131231   9.481   5.311   1.427  1.8884  0.5015  1.1586
 8925SOL    HW231232   9.385   5.380   1.522  0.0285 -0.5112  0.0836
 8926SOL     OW31233   7.793   6.006   0.021  0.2510  0.0605 -0.1099
 8926SOL    HW131234   7.819   5.928   0.070  0.3549  0.6463  0.7765
 8926SOL    HW231235   7.717   5.978  -0.030 -0.3045 -0.3644  0.9427
 8927SOL     OW31236   2.133   1.987   5.279  0.2357 -0.0468  0.2724
 8927SOL    HW131237   2.141   1.928   5.204  0.0602 -0.7199  0.7708
 8927SOL    HW231238   2.164   2.072   5.247  2.6737 -0.8973  0.1468
 8928SOL     OW31239   7.470   3.035   1.224  0.2774 -0.0535  0.4225
 8928SOL    HW131240   7.524   3.016   1.147  0.4603 -1.5476  0.8966
 8928SOL    HW231241   7.380   3.027   1.192  0.3331  0.5567  0.0886
 8929SOL     OW31242   9.185   5.663   5.393  0.5311 -0.3013  0.2171
 8929SOL    HW131243   9.234   5.675   5.312  2.2399  2.0434  1.4732
 8929SOL    HW231244   9.110   5.610   5.368  1.6876 -0.7827 -2.6006
 8930SOL     OW31245   0.082   7.461   1.600 -0.6204 -0.3325 -0.2805
 8930SOL    HW131246   0.111   7.392   1.659 -2.7392 -0.5305  0.5902
 8930SOL    HW231247   0.133   7.538   1.626 -0.3384 -0.8327  0.6799
 8931SOL     OW31248   8.166  10.195   6.886 -0.0463 -0.6626  0.3079
 8931SOL    HW131249   8.204  10.117   6.846  1.5176  0.7096 -1.0121
 8931SOL    HW231250   8.103  10.227   6.821  0.4162 -0.0139  0.1680
 8932SOL     OW31251   0.805   4.552   0.389  0.5254 -0.3415  0.0123
 8932SOL    HW131252   0.838   4.554   0.299 -0.6069  2.7707 -0.4569
 8932SOL    HW231253   0.737   4.620   0.392 -2.6613 -3.2793  2.1173
 8933SOL     OW31254   0.349   8.762   2.642 -0.1717  0.1234  0.4024
 8933SOL    HW131255   0.384   8.826   2.705 -0.5242  0.9739 -0.2439
 8933SOL    HW231256   0.259   8.748   2.672 -0.7592  1.4977 -0.6045
 8934SOL     OW31257   8.028  10.359   6.713  0.3933  0.6701  0.3885
 8934SOL    HW131258   8.030  10.357   6.617 -0.3755 -1.5432  0.3427
 8934SOL    HW231259   7.992  10.444   6.735  0.9208  1.3699 -1.2646
 8935SOL     OW31260   4.361   7.871   9.606  0.5379 -0.2211  0.3523
 8935SOL    HW131261   4.331   7.806   9.543 -1.4543  0.0823  0.9190
 8935SOL    HW231262   4.372   7.821   9.687 -1.1339  0.1111  0.8254
 8936SOL     OW31263  10.713   2.464   3.363 -0.0503  0.0577 -0.1025
 8936SOL    HW131264  10.803   2.450   3.333 -0.3918  0.3517 -1.3072
 8936SOL    HW231265  10.719   2.541   3.420  0.5716 -0.3842  0.4550
 8937SOL     OW31266   2.096   5.181   7.826  0.3073  0.0755  0.5559
 8937SOL    HW131267   2.074   5.108   7.769  0.3208  1.1882 -0.9209
 8937SOL    HW231268   2.014   5.204   7.870  0.8494 -2.6997  3.4314
 8938SOL     OW31269  11.043   8.455   5.386  0.1473 -0.3450  0.1103
 8938SOL    HW131270  11.037   8.376   5.332 -1.1301  0.5152 -1.0926
 8938SOL    HW231271  11.137   8.471   5.396  0.4433 -0.5791 -1.8524
 8939SOL     OW31272   4.312   2.178   6.002  0.2908 -0.3377 -0.2147
 8939SOL    HW131273   4.262   2.097   6.009  0.2480 -0.3484 -0.6268
 8939SOL    HW231274   4.349   2.177   5.913 -0.7956  0.7121 -0.7081
 8940SOL     OW31275   5.615   8.039   5.198  0.6851  0.0692 -0.1991
 8940SOL    HW131276   5.704   8.011   5.217  0.9571  0.7883 -0.4049
 8940SOL    HW231277   5.573   7.961   5.160  0.7012 -0.8040  1.4679
 8941SOL     OW31278   6.954   3.275   8.579 -0.3962  0.1089  0.7760
 8941SOL    HW131279   7.038   3.313   8.606  0.0039 -0.6950  0.6898
 8941SOL    HW231280   6.975   3.185   8.553 -0.8255  0.6992 -1.8967
 8942SOL     OW31281   4.745  10.030   8.770 -0.0988  0.4026 -0.0518
 8942SOL    HW131282   4.737  10.027   8.675 -0.3259 -0.8124 -0.0031
 8942SOL    HW231283   4.675  10.089   8.798  0.5461  1.5155 -0.6825
 8943SOL     OW31284   5.250   7.182   0.931  0.3636  0.2519  0.3195
 8943SOL    HW131285   5.298   7.104   0.904 -0.3370 -0.8135  1.9841
 8943SOL    HW231286   5.300   7.218   1.004 -1.3294 -0.9633  2.1785
 8944SOL     OW31287   9.206   1.432   1.908  0.0727 -0.2642  0.0454
 8944SOL    HW131288   9.165   1.433   1.994 -0.7845  0.5621 -0.3556
 8944SOL    HW231289   9.146   1.382   1.853 -0.2744  0.6955 -0.4742
 8945SOL     OW31290   1.028   2.346   7.734  0.0338 -0.2365 -0.3875
 8945SOL    HW131291   0.938   2.343   7.700  0.2762 -0.4186 -1.0235
 8945SOL    HW231292   1.082   2.312   7.662  0.5937 -0.2928  0.0548
 8946SOL     OW31293   7.355   9.897   6.299 -0.6088  0.1393 -0.2492
 8946SOL    HW131294   7.338   9.970   6.358  0.1973  1.1906 -1.2409
 8946SOL    HW231295   7.269   9.866   6.273 -0.9827  1.0897 -0.2001
 8947SOL     OW31296   9.479   2.919   2.982 -0.2691 -0.3157  0.0385
 8947SOL    HW131297   9.471   2.990   2.918 -0.8300  0.9032  1.3703
 8947SOL    HW231298   9.536   2.956   3.050 -2.0003 -0.4221  1.6238
 8948SOL     OW31299   2.170   8.728   3.713  0.0159  0.1747  0.2437
 8948SOL    HW131300   2.204   8.638   3.708  0.5936  0.3951  0.2044
 8948SOL    HW231301   2.244   8.780   3.743 -1.0710  0.2004  3.2371
 8949SOL     OW31302  10.642   8.470   3.263  0.3423 -0.4728  0.6233
 8949SOL    HW131303  10.672   8.406   3.199 -0.8548 -0.2711 -0.1875
 8949SOL    HW231304  10.722   8.505   3.302  1.0598 -1.3651  0.0041
 8950SOL     OW31305   9.772   7.470   8.895 -0.2564 -0.0894  0.2650
 8950SOL    HW131306   9.816   7.512   8.822 -0.8394  1.0688  0.5464
 8950SOL    HW231307   9.804   7.516   8.973  1.0696 -1.9191  0.8716
 8951SOL     OW31308   5.490   9.586  10.544  0.7234 -0.2049 -0.2584
 8951SOL    HW131309   5.422   9.521  10.527  0.1649  0.4565 -0.6348
 8951SOL    HW231310   5.517   9.616  10.457  0.2296  0.8043 -0.0793
 8952SOL     OW31311   5.704   8.640   8.733 -0.3725  0.0867 -0.1602
 8952SOL    HW131312   5.649   8.616   8.807 -0.1442 -0.4522 -0.1644
 8952SOL    HW231313   5.642   8.668   8.666 -0.6371 -0.3346 -0.0960
 8953SOL     OW31314   7.129   6.893   2.144  0.6380  0.3236  0.0156
 8953SOL    HW131315   7.066   6.915   2.076 -0.1357  1.1063  0.9416
 8953SOL    HW231316   7.214   6.908   2.104  0.2641 -1.0801 -1.3612
 8954SOL     OW31317   0.058   7.523   3.769  0.7069 -0.1355  0.2456
 8954SOL    HW131318  -0.031   7.552   3.747  1.0753  0.1480 -0.9479
 8954SOL    HW231319   0.060   7.431   3.745  0.7363 -0.1411  0.2698
 8955SOL     OW31320   8.236  10.876  10.595 -0.2603 -0.2572 -0.1118
 8955SOL    HW131321   8.238  10.921  10.511 -0.7367 -0.5542 -0.2852
 8955SOL    HW231322   8.255  10.784  10.574  0.3681 -0.2008  0.1970
 8956SOL     OW31323   0.709   4.468   7.977  0.1082  0.0497  0.3691
 8956SOL    HW131324   0.687   4.469   8.070  1.4077  0.2674  0.6893
 8956SOL    HW231325   0.804   4.475   7.975  0.1130 -0.2245 -0.9760
 8957SOL     OW31326  10.281   6.523   2.578 -0.0872 -0.1682 -0.0941
 8957SOL    HW131327  10.188   6.544   2.586 -0.4050 -2.0329  3.5491
 8957SOL    HW231328  10.326   6.605   2.597 -1.0066  0.3465 -0.0964
 8958SOL     OW31329   9.703   6.309   3.548 -0.1026  0.3029 -0.2957
 8958SOL    HW131330   9.747   6.328   3.465 -0.9076  0.1814 -0.7605
 8958SOL    HW231331   9.749   6.364   3.613  0.6226  0.2888 -0.7864
 8959SOL     OW31332   9.645   8.133   8.363 -0.2746 -0.0301 -0.0455
 8959SOL    HW131333   9.729   8.123   8.317 -0.1535  0.7648 -0.0182
 8959SOL    HW231334   9.629   8.048   8.402  0.2899 -0.3306 -0.4457
 8960SOL     OW31335   9.922   7.213   9.593  0.3786  0.5735 -0.4222
 8960SOL    HW131336   9.861   7.209   9.519  0.5321 -0.6747 -0.5026
 8960SOL    HW231337   9.868   7.197   9.670  0.5686 -0.4108 -0.4824
 8961SOL     OW31338  10.079   5.470   8.478  0.2492 -0.7458  0.7262
 8961SOL    HW131339  10.065   5.386   8.521  0.9715 -0.5073  1.4373
 8961SOL    HW231340  10.035   5.533   8.534  0.9686 -0.4680  0.9860
 8962SOL     OW31341   9.465   0.233   4.424 -0.2092  0.0878 -0.0568
 8962SOL    HW131342   9.545   0.208   4.471 -0.0020  0.6151 -0.1133
 8962SOL    HW231343   9.449   0.324   4.452 -0.8241 -0.0339  0.0018
 8963SOL     OW31344   3.281   9.426   9.601 -0.4304  0.4852  0.5050
 8963SOL    HW131345   3.302   9.341   9.562 -1.2260  0.5828 -0.1580
 8963SOL    HW231346   3.359   9.449   9.651  0.1937 -0.1490 -0.1540
 8964SOL     OW31347   9.021   3.428   0.012 -0.5673 -0.4526 -0.6519
 8964SOL    HW131348   8.930   3.445  -0.014 -0.1075 -1.6534 -3.4982
 8964SOL    HW231349   9.073   3.473  -0.054  0.9441  0.0044  0.7915
 8965SOL     OW31350   4.781   6.689   4.050 -0.4119  0.2491 -0.4053
 8965SOL    HW131351   4.819   6.706   4.136  1.7456  0.7635 -1.3854
 8965SOL    HW231352   4.809   6.599   4.029  1.5275  1.0729 -1.6734
 8966SOL     OW31353   5.650  10.903   4.492  0.3919  0.3288 -0.5577
 8966SOL    HW131354   5.618  10.911   4.581 -0.2322  1.1583 -0.8394
 8966SOL    HW231355   5.715  10.833   4.495 -1.0394 -1.0306  0.1505
 8967SOL     OW31356  10.988   2.422   3.352 -0.0183  0.1921 -0.5557
 8967SOL    HW131357  11.075   2.459   3.332  0.2134  0.7371  1.2546
 8967SOL    HW231358  11.007   2.343   3.402 -0.4974  1.4959  1.8355
 8968SOL     OW31359   4.218   8.654   4.254  0.2223  0.5969 -0.1918
 8968SOL    HW131360   4.159   8.720   4.290  1.6964  2.5396 -1.1312
 8968SOL    HW231361   4.208   8.662   4.159  1.5122  0.5710 -0.3523
 8969SOL     OW31362   3.568   3.700   6.323 -0.1833 -0.1792 -0.2301
 8969SOL    HW131363   3.489   3.654   6.294 -1.3983  1.5263  0.1646
 8969SOL    HW231364   3.534   3.772   6.377  1.7493 -0.4272  1.4414
 8970SOL     OW31365   9.392  10.328   7.058  0.3805  0.0230 -0.3456
 8970SOL    HW131366   9.438  10.282   7.128  0.8278  0.9731 -0.0025
 8970SOL    HW231367   9.341  10.395   7.104 -2.7343 -2.0225 -0.5201
 8971SOL     OW31368   2.802   0.926   7.014  0.3898 -0.0389  0.1097
 8971SOL    HW131369   2.890   0.916   6.979  1.3831 -0.8623  2.6175
 8971SOL    HW231370   2.756   0.846   6.989  0.6460 -0.0441 -0.3552
 8972SOL     OW31371   4.241   0.067   6.934 -0.6400  0.2486 -0.2967
 8972SOL    HW131372   4.267   0.159   6.935 -2.2573  0.7283  0.2941
 8972SOL    HW231373   4.158   0.065   6.980 -0.3366 -1.6217  0.2507
 8973SOL     OW31374   1.212   3.124   3.188 -0.4497  0.0112 -0.2342
 8973SOL    HW131375   1.156   3.168   3.124 -1.4982  0.9444  1.2558
 8973SOL    HW231376   1.160   3.125   3.269  0.3331 -2.2179  0.3436
 8974SOL     OW31377   8.097   6.153   1.522  0.0049  0.0621  0.2979
 8974SOL    HW131378   8.116   6.060   1.513  1.2224  0.0942  1.9839
 8974SOL    HW231379   8.002   6.159   1.524 -0.0815 -1.1943  0.5069
 8975SOL     OW31380   0.946   9.143   9.258 -0.2877 -0.3549  0.3416
 8975SOL    HW131381   1.012   9.147   9.328  0.0529  0.3008 -0.0043
 8975SOL    HW231382   0.996   9.156   9.178 -1.0973  2.6599  0.2265
 8976SOL     OW31383   0.123   0.143  10.613 -0.2483  0.1004  0.2264
 8976SOL    HW131384   0.166   0.090  10.680  0.3129 -1.3361 -1.2045
 8976SOL    HW231385   0.042   0.096  10.595  0.0221 -0.0095 -0.7165
 8977SOL     OW31386   9.232   2.576   1.383 -0.0370 -0.4138 -0.3478
 8977SOL    HW131387   9.159   2.637   1.370 -0.1098 -0.0485  1.4728
 8977SOL    HW231388   9.223   2.513   1.312 -2.9757 -1.1791  0.5370
 8978SOL     OW31389   7.839   0.377   3.563  0.6261 -0.3025 -0.6463
 8978SOL    HW131390   7.747   0.365   3.539  0.7100 -0.9491 -0.6751
 8978SOL    HW231391   7.836   0.420   3.649  0.2911 -0.6979 -0.4556
 8979SOL     OW31392   7.549   0.143   2.767  0.1216  0.4047  0.9722
 8979SOL    HW131393   7.488   0.211   2.740  0.7333  0.7351  0.3622
 8979SOL    HW231394   7.505   0.097   2.838 -1.1728  0.1249  0.0328
 8980SOL     OW31395  10.765   3.493   3.846 -0.6425  0.3899 -0.5446
 8980SOL    HW131396  10.807   3.428   3.902 -0.9557  0.5056 -0.1730
 8980SOL    HW231397  10.834   3.557   3.828 -1.2136  1.8708  2.0140
 8981SOL     OW31398  10.816   1.756   2.605 -0.5754 -0.0249  0.0469
 8981SOL    HW131399  10.851   1.668   2.585  0.1713  0.3941 -0.5577
 8981SOL    HW231400  10.724   1.741   2.627 -0.5436 -0.9266 -0.3823
 8982SOL     OW31401   8.196   9.607   3.908 -0.0561  0.0424  0.0722
 8982SOL    HW131402   8.207   9.680   3.969  1.3040 -0.5435  0.5692
 8982SOL    HW231403   8.140   9.643   3.838  1.1987  1.8312 -0.0968
 8983SOL     OW31404   8.393   3.451   3.055 -0.0272  0.2958 -0.3008
 8983SOL    HW131405   8.422   3.394   3.127  1.5653  0.0979 -1.0481
 8983SOL    HW231406   8.334   3.396   3.004 -2.0741  0.7730  1.3749
 8984SOL     OW31407   2.100   4.204   6.694 -0.5507  0.7079 -0.2689
 8984SOL    HW131408   2.091   4.152   6.774  3.3665  0.7529  0.3722
 8984SOL    HW231409   2.141   4.145   6.631 -0.3822  1.6853 -1.1003
 8985SOL     OW31410   6.253   6.539   5.743 -0.1649 -0.3662 -1.0440
 8985SOL    HW131411   6.226   6.610   5.684  1.4980  1.3906  0.1934
 8985SOL    HW231412   6.346   6.527   5.726  0.5033  0.5714  1.5042
 8986SOL     OW31413   1.030   8.912  10.480 -0.1924  0.2699 -0.1342
 8986SOL    HW131414   1.098   8.849  10.504 -0.6513  0.1550  0.9167
 8986SOL    HW231415   0.970   8.913  10.555 -1.5146  0.1520 -1.1444
 8987SOL     OW31416  10.835   8.927   6.120  0.2975  0.2045 -0.1393
 8987SOL    HW131417  10.771   8.856   6.128  1.6891 -0.9404  1.7675
 8987SOL    HW231418  10.914   8.884   6.088  0.6678  1.2438 -0.6665
 8988SOL     OW31419   4.781   4.120   1.592  0.3759  0.0683  0.3835
 8988SOL    HW131420   4.708   4.173   1.623 -0.7092  0.6470 -2.8627
 8988SOL    HW231421   4.858   4.159   1.633 -0.8545  0.9649  1.9659
 8989SOL     OW31422   1.394   3.676   7.282 -0.3299 -0.1880 -0.3421
 8989SOL    HW131423   1.385   3.772   7.283  4.3438  0.5173  0.1302
 8989SOL    HW231424   1.384   3.652   7.190  1.2841  1.3191 -0.9894
 8990SOL     OW31425  10.274   9.983   8.073 -0.6658  0.4712 -0.1742
 8990SOL    HW131426  10.272   9.898   8.117 -0.7906 -0.3605 -1.7391
 8990SOL    HW231427  10.366  10.002   8.059 -0.6516  0.4546 -0.0997
 8991SOL     OW31428   4.098   1.433   8.432 -0.1133  0.4160  0.0732
 8991SOL    HW131429   4.067   1.421   8.522 -0.4589 -0.8433 -0.2008
 8991SOL    HW231430   4.192   1.415   8.436 -0.2482 -0.3031  0.0640
 8992SOL     OW31431  11.017   7.948   2.504 -0.3999 -0.0929 -0.6720
 8992SOL    HW131432  11.013   8.019   2.439 -0.6248 -0.4895 -1.0970
 8992SOL    HW231433  11.076   7.884   2.466  1.1368  0.5864  0.4567
 8993SOL     OW31434   4.920   8.100   9.284 -0.0950  0.1287 -0.3459
 8993SOL    HW131435   4.904   8.052   9.365 -1.5028 -0.4572 -0.9182
 8993SOL    HW231436   4.958   8.035   9.225  2.4462  0.9467  0.2835
 8994SOL     OW31437   5.527   5.008  10.795  0.2094  0.1828  0.0530
 8994SOL    HW131438   5.527   5.088  10.742 -0.7075 -0.4852 -1.0041
 8994SOL    HW231439   5.607   5.014  10.847 -0.1690  2.0949  0.4890
 8995SOL     OW31440   5.484   0.260   8.217  0.4344  0.3550  0.0404
 8995SOL    HW131441   5.454   0.195   8.154  1.2535  1.2107 -1.2976
 8995SOL    HW231442   5.525   0.328   8.163  0.3575  1.5644  1.4446
 8996SOL     OW31443   9.910   6.000  10.228 -0.0975  0.3520  0.6009
 8996SOL    HW131444   9.993   5.954  10.241  0.7940  1.3630 -1.1917
 8996SOL    HW231445   9.930   6.092  10.248 -1.0399  0.4778  1.0394
 8997SOL     OW31446   3.204   5.167   6.194  0.2296 -0.2240  0.2749
 8997SOL    HW131447   3.268   5.148   6.261 -0.2813 -0.8628  0.5937
 8997SOL    HW231448   3.119   5.150   6.236 -0.0512 -3.1065 -1.2343
 8998SOL     OW31449   5.868   7.888   4.081  0.0311  0.2471 -0.1769
 8998SOL    HW131450   5.907   7.858   4.163 -2.8974  1.3325  1.7735
 8998SOL    HW231451   5.826   7.811   4.044  0.1011  0.0578  0.1370
 8999SOL     OW31452   4.681   4.877   4.640 -0.3500 -0.9686 -0.0654
 8999SOL    HW131453   4.759   4.839   4.600  0.5840 -0.9688  1.6913
 8999SOL    HW231454   4.635   4.802   4.678 -0.1222 -0.7300  0.6903
 9000SOL     OW31455   1.717   4.273   8.456 -0.1169  0.1914 -0.0167
 9000SOL    HW131456   1.738   4.333   8.527  0.0931  0.8007 -0.5758
 9000SOL    HW231457   1.722   4.327   8.377  1.1826 -0.7990 -0.6498
 9001SOL     OW31458   1.454   1.307   1.773 -0.0877 -0.3004 -0.2559
 9001SOL    HW131459   1.469   1.343   1.860 -0.7310 -0.4926 -0.0600
 9001SOL    HW231460   1.429   1.382   1.719 -0.2336 -0.2672 -0.1414
 9002SOL     OW31461   3.045   9.751   9.381  0.0342  0.3938 -0.4090
 9002SOL    HW131462   2.976   9.813   9.358 -0.2042  0.0160 -0.7414
 9002SOL    HW231463   3.112   9.803   9.424 -0.1912  0.8661 -0.6303
 9003SOL     OW31464   6.179   0.344   4.400  0.0053  0.1578 -0.1957
 9003SOL    HW131465   6.203   0.391   4.321 -0.6144 -1.7027 -1.5697
 9003SOL    HW231466   6.087   0.367   4.416  0.2565  0.8691  0.2515
 9004SOL     OW31467   9.670   6.994   3.925  0.3328 -0.2918  0.0443
 9004SOL    HW131468   9.731   7.051   3.878 -0.7250 -0.1075 -1.1675
 9004SOL    HW231469   9.723   6.954   3.994  1.2343  1.7242  0.5975
 9005SOL     OW31470   4.970   9.525   5.120  0.2348 -0.1589  0.0531
 9005SOL    HW131471   5.031   9.565   5.182  1.2988  1.5210 -1.9641
 9005SOL    HW231472   4.884   9.558   5.148  0.4380 -0.9222  1.6988
 9006SOL     OW31473   6.613   6.265   2.452  0.0980 -0.3299  0.1515
 9006SOL    HW131474   6.702   6.300   2.450  0.3478 -0.9617 -0.1161
 9006SOL    HW231475   6.606   6.226   2.539  0.0174 -0.1224  0.2390
 9007SOL     OW31476   9.882   4.849   8.786  0.2916 -0.0984  0.2854
 9007SOL    HW131477   9.791   4.824   8.802  0.6130 -1.7790 -0.3428
 9007SOL    HW231478   9.888   4.856   8.690  0.7956  0.1366  0.3316
 9008SOL     OW31479  10.284   8.494   1.293  0.2511 -0.5889  0.5203
 9008SOL    HW131480  10.196   8.502   1.331 -0.4373  2.2674 -1.2878
 9008SOL    HW231481  10.342   8.531   1.359 -0.3248  0.1458  0.6337
 9009SOL     OW31482   9.700   3.248   9.311  0.2665  0.1664 -0.2158
 9009SOL    HW131483   9.721   3.285   9.225  1.7765 -0.9334 -0.3664
 9009SOL    HW231484   9.775   3.192   9.332 -0.5606 -0.4267  1.3442
 9010SOL     OW31485   9.940   7.877   4.105  0.7655 -0.1871  0.7658
 9010SOL    HW131486   9.967   7.912   4.020  2.5775  3.2976  2.5980
 9010SOL    HW231487  10.004   7.808   4.124  0.7488 -0.5300 -0.3304
 9011SOL     OW31488   5.245   7.435   9.934  0.3598  0.3209 -0.6955
 9011SOL    HW131489   5.257   7.528   9.952  1.7129  0.0860 -0.2731
 9011SOL    HW231490   5.180   7.407   9.999  1.9608  0.4239  1.0583
 9012SOL     OW31491   3.176   2.843   2.305  0.0110  0.2141  0.4491
 9012SOL    HW131492   3.086   2.831   2.337  0.3006 -0.9819  0.8761
 9012SOL    HW231493   3.206   2.754   2.286  1.4562  0.4948  1.2723
 9013SOL     OW31494   3.395   3.994   8.970 -0.2595 -0.7249  0.3408
 9013SOL    HW131495   3.405   3.911   9.017 -1.5089  0.4352  2.8680
 9013SOL    HW231496   3.467   4.049   9.002 -0.7969 -0.0879  0.4888
 9014SOL     OW31497   2.408   5.639   3.667 -0.2324  0.4519 -0.8507
 9014SOL    HW131498   2.469   5.606   3.732  0.0892  1.8068 -0.4301
 9014SOL    HW231499   2.340   5.572   3.661  0.3869 -0.2687 -0.0512
 9015SOL     OW31500   8.998   3.584   5.959  0.4021  0.1949  0.3815
 9015SOL    HW131501   8.917   3.633   5.945  0.0608 -0.1823  0.9580
 9015SOL    HW231502   9.067   3.650   5.953  0.0680  0.4962 -0.2682
 9016SOL     OW31503   5.703   8.972   4.906 -0.0439  0.0736 -0.1406
 9016SOL    HW131504   5.664   9.055   4.880 -1.3430 -0.4051  0.1779
 9016SOL    HW231505   5.680   8.912   4.835  0.9846 -0.0130 -0.4253
 9017SOL     OW31506   5.176   4.321   9.521  0.6072 -0.3302  0.3783
 9017SOL    HW131507   5.097   4.374   9.536 -0.4072 -1.9821  1.0672
 9017SOL    HW231508   5.234   4.344   9.594 -0.1788 -0.7810  1.1661
 9018SOL     OW31509   5.395   8.466   0.028  0.3206 -0.3770  0.1081
 9018SOL    HW131510   5.428   8.556   0.025  0.3930 -0.3905  0.4905
 9018SOL    HW231511   5.338   8.459  -0.049  0.1529  0.0589  0.1870
 9019SOL     OW31512  10.655   9.157   7.734 -0.2033  0.0113 -0.3892
 9019SOL    HW131513  10.603   9.095   7.683  0.3743  0.7670 -1.9599
 9019SOL    HW231514  10.670   9.231   7.675  1.7053  0.3025  0.3618
 9020SOL     OW31515   0.705   4.576   9.130  0.0953 -0.3188  0.6468
 9020SOL    HW131516   0.710   4.652   9.187 -1.5020  1.0676 -0.9265
 9020SOL    HW231517   0.625   4.530   9.156  0.4465 -0.8302  0.8449
 9021SOL     OW31518   1.162  10.182   9.446 -0.2012  0.1067  0.1658
 9021SOL    HW131519   1.140  10.115   9.511 -1.8039 -1.4802 -1.8612
 9021SOL    HW231520   1.143  10.265   9.489  2.0920 -0.6191  2.8578
 9022SOL     OW31521   5.831   3.631   9.856 -0.2378 -0.1262  0.0132
 9022SOL    HW131522   5.925   3.614   9.865 -0.4405 -1.2709  0.1044
 9022SOL    HW231523   5.810   3.687   9.931  0.5128  0.7908 -0.4418
 9023SOL     OW31524   9.779   0.602   5.450  0.4881  0.3075  0.2962
 9023SOL    HW131525   9.873   0.584   5.443  0.5766  0.7112  0.4324
 9023SOL    HW231526   9.768   0.691   5.418  0.1820  0.3461  0.4990
 9024SOL     OW31527   6.540   9.120   6.761  0.2670  0.4370  0.3183
 9024SOL    HW131528   6.574   9.210   6.762  0.2669  0.4313  0.8544
 9024SOL    HW231529   6.475   9.121   6.690 -0.8080  1.2703  1.2741
 9025SOL     OW31530   1.727   4.375   5.743  0.1467 -0.0355  0.3064
 9025SOL    HW131531   1.821   4.370   5.764  0.2042  1.3466  0.4806
 9025SOL    HW231532   1.722   4.344   5.652  0.8770  0.4972  0.0686
 9026SOL     OW31533   7.040   5.819   4.089 -0.7316 -0.3425  0.2398
 9026SOL    HW131534   7.039   5.897   4.145 -0.7557 -0.3578  0.2609
 9026SOL    HW231535   6.949   5.806   4.064 -0.3534  1.4522 -2.3336
 9027SOL     OW31536   3.147   1.802   6.788  0.1517 -0.1783  0.2554
 9027SOL    HW131537   3.233   1.841   6.801 -0.0967  0.9093 -1.1204
 9027SOL    HW231538   3.095   1.871   6.747 -2.0190 -0.0784  2.8621
 9028SOL     OW31539   8.075   3.865   9.727  0.3689 -0.0873  0.1260
 9028SOL    HW131540   8.140   3.913   9.778  1.0236 -0.7611 -0.0587
 9028SOL    HW231541   8.126   3.803   9.675 -0.4756 -1.3166  0.7045
 9029SOL     OW31542   1.274   4.345   2.044  0.3983 -0.3458  0.4719
 9029SOL    HW131543   1.306   4.277   1.984 -0.3397  0.5712 -1.0408
 9029SOL    HW231544   1.179   4.334   2.043  0.3178  0.3145  0.6849
 9030SOL     OW31545   8.600  10.594   5.280 -0.3507 -0.0775  0.2581
 9030SOL    HW131546   8.657  10.562   5.351  0.7918  1.1769 -0.0450
 9030SOL    HW231547   8.622  10.687   5.273 -0.5285 -0.1544 -1.6749
 9031SOL     OW31548   3.244   4.596   7.743  0.1346 -0.5626 -0.3486
 9031SOL    HW131549   3.288   4.566   7.663 -0.1227  0.1760 -0.7849
 9031SOL    HW231550   3.184   4.665   7.713  0.1209 -0.1879  0.4986
 9032SOL     OW31551   0.260  10.822   7.318  0.0255  0.2473  0.3825
 9032SOL    HW131552   0.213  10.758   7.371  0.9071  0.1220  1.0362
 9032SOL    HW231553   0.256  10.787   7.229 -1.9912  0.7636  0.2145
 9033SOL     OW31554   4.213   6.248   4.411  0.1519  0.7333  0.3993
 9033SOL    HW131555   4.168   6.205   4.483  1.7996  1.7106  2.0929
 9033SOL    HW231556   4.146   6.303   4.369 -0.7756  0.3225  1.3189
 9034SOL     OW31557   9.592   7.243   9.514  0.5629  0.2516  0.0867
 9034SOL    HW131558   9.563   7.330   9.485  0.1036 -0.2390 -0.9499
 9034SOL    HW231559   9.533   7.222   9.587  0.4344  0.6527  0.1010
 9035SOL     OW31560   4.934   6.189   4.015  0.1083  0.5962 -0.1338
 9035SOL    HW131561   4.886   6.112   3.983  1.5998  0.1638 -1.4499
 9035SOL    HW231562   4.898   6.262   3.964  1.2083  0.1809 -1.5822
 9036SOL     OW31563   9.365   7.246   3.528 -0.1525 -0.0757  0.1330
 9036SOL    HW131564   9.403   7.272   3.611 -2.4208  0.7007  1.0029
 9036SOL    HW231565   9.379   7.151   3.524 -0.0202 -0.1239  1.4168
 9037SOL     OW31566  10.723   6.564   7.005  0.0723 -0.1358 -0.0331
 9037SOL    HW131567  10.631   6.573   6.978  0.2669  1.1712 -0.3766
 9037SOL    HW231568  10.726   6.602   7.093  0.0540 -1.3809  0.5183
 9038SOL     OW31569   6.866   6.756   2.601 -0.1008  0.7681 -1.1521
 9038SOL    HW131570   6.780   6.795   2.610 -0.9864 -1.5033  1.9152
 9038SOL    HW231571   6.849   6.667   2.569  1.2305  0.6653 -1.6501
 9039SOL     OW31572  10.517   0.580   2.326 -0.9400  0.1026  0.3813
 9039SOL    HW131573  10.597   0.633   2.336 -1.1851  0.7128 -0.6715
 9039SOL    HW231574  10.518   0.554   2.233 -1.0058 -1.4733  0.7938
 9040SOL     OW31575   3.268  10.835   5.049 -0.7880  0.0171 -0.0020
 9040SOL    HW131576   3.286  10.840   4.955 -1.0897 -0.4438 -0.0876
 9040SOL    HW231577   3.267  10.926   5.078  0.7713  0.1222 -0.1593
 9041SOL     OW31578   0.068   1.919   7.202  0.5775  0.2212 -0.2784
 9041SOL    HW131579   0.004   1.891   7.137  0.5175  0.8636 -0.5045
 9041SOL    HW231580   0.118   1.988   7.159  0.8031  0.3720  0.2136
 9042SOL     OW31581   4.727   4.336   4.859  0.9766 -0.5130  0.0419
 9042SOL    HW131582   4.775   4.260   4.892  0.1159 -1.1939 -0.2534
 9042SOL    HW231583   4.766   4.410   4.906  0.8716 -1.2784  1.4056
 9043SOL     OW31584   2.809   8.458   1.838 -0.0786  0.0103  0.6741
 9043SOL    HW131585   2.898   8.488   1.821  0.0574 -0.0805  1.2230
 9043SOL    HW231586   2.783   8.503   1.919  0.6381 -2.3690  2.3256
 9044SOL     OW31587   8.917   9.476   6.119  0.1616  0.5867  0.0562
 9044SOL    HW131588   8.834   9.475   6.070 -0.8557  1.4639  1.6656
 9044SOL    HW231589   8.984   9.468   6.052 -1.1447  2.2052 -1.5553
 9045SOL     OW31590  10.765   6.382   3.748 -0.3492  0.0622  0.0139
 9045SOL    HW131591  10.747   6.401   3.840 -0.4462  0.2306 -0.0384
 9045SOL    HW231592  10.765   6.287   3.742 -1.7340  0.0541 -0.0792
 9046SOL     OW31593   1.723   4.797   1.951  0.4409  0.5231 -0.1728
 9046SOL    HW131594   1.640   4.822   1.910  0.5515 -0.4088 -1.0000
 9046SOL    HW231595   1.708   4.706   1.979  1.6323 -0.1369 -1.5874
 9047SOL     OW31596  10.602   8.222   0.970  0.6164  0.4973  0.5116
 9047SOL    HW131597  10.579   8.208   0.878  0.3011  1.3477  0.4547
 9047SOL    HW231598  10.518   8.235   1.014  0.8134  0.9048  0.7759
 9048SOL     OW31599  10.342   1.541   6.081  0.2253 -0.5252 -0.2272
 9048SOL    HW131600  10.296   1.484   6.143 -1.5069 -1.2278 -2.0555
 9048SOL    HW231601  10.272   1.583   6.030  1.5427  1.3002 -0.6438
 9049SOL     OW31602   3.566   3.576   9.786 -0.4090  0.0030  0.0560
 9049SOL    HW131603   3.496   3.587   9.722  0.4457 -0.7220 -1.0584
 9049SOL    HW231604   3.545   3.638   9.856 -2.4159 -0.5556  0.0047
 9050SOL     OW31605   2.878   8.849   1.014  0.1076 -0.3396 -0.2002
 9050SOL    HW131606   2.793   8.839   0.970  0.3654  0.5225 -0.9313
 9050SOL    HW231607   2.855   8.862   1.106 -0.6876  1.5558 -0.6080
 9051SOL     OW31608   5.609   6.759   1.458 -0.3738  0.1074 -0.1151
 9051SOL    HW131609   5.676   6.822   1.431 -0.2505 -1.0701 -2.8751
 9051SOL    HW231610   5.532   6.812   1.477  1.1465  1.4753  2.8740
 9052SOL     OW31611   2.325   8.471   2.024 -1.0183  0.4760  0.4004
 9052SOL    HW131612   2.314   8.404   1.956 -0.4515  0.4614  0.3199
 9052SOL    HW231613   2.416   8.462   2.052 -0.0280  2.9782 -1.5422
 9053SOL     OW31614   2.193   4.349   9.884 -0.0421  0.5140  0.3635
 9053SOL    HW131615   2.223   4.392   9.964  0.2790  0.4520  0.2753
 9053SOL    HW231616   2.271   4.340   9.830  0.0788 -0.9340  0.7191
 9054SOL     OW31617   0.641   5.946   5.472  0.6894 -0.6281 -0.0764
 9054SOL    HW131618   0.585   5.903   5.537 -0.1093 -1.7304 -1.4261
 9054SOL    HW231619   0.706   5.879   5.450  2.0714  0.3615  0.8654
 9055SOL     OW31620   6.189   3.796   1.925 -0.3074  0.3059 -0.1589
 9055SOL    HW131621   6.202   3.874   1.979  0.7311 -0.2926  0.4878
 9055SOL    HW231622   6.140   3.827   1.849 -0.1507  1.5297  0.2233
 9056SOL     OW31623   7.215   0.493   6.046  0.1510  0.6706 -0.2609
 9056SOL    HW131624   7.181   0.415   6.003 -0.2746  0.8501 -0.2561
 9056SOL    HW231625   7.291   0.518   5.994  0.3889  0.1548 -0.1608
 9057SOL     OW31626   6.910   1.156   2.257  0.3938 -0.0889 -0.2465
 9057SOL    HW131627   6.855   1.122   2.327  0.8025 -1.2669 -0.4725
 9057SOL    HW231628   6.897   1.251   2.260 -2.0959 -0.3466 -0.6798
 9058SOL     OW31629   9.384   3.925   7.934  0.4994  0.7871 -0.3530
 9058SOL    HW131630   9.442   3.898   8.005 -0.7547  1.8975  1.1667
 9058SOL    HW231631   9.422   4.006   7.900  0.7301  0.6134 -0.5165
 9059SOL     OW31632   1.014   7.085   3.064 -0.3015 -0.5185 -0.5149
 9059SOL    HW131633   0.944   7.127   3.114  0.3095  0.8983 -0.7975
 9059SOL    HW231634   0.972   7.053   2.985 -0.8020 -0.5448 -0.2392
 9060SOL     OW31635   3.631   5.609   4.641  0.3223 -0.5070 -0.3023
 9060SOL    HW131636   3.548   5.561   4.631  0.4753 -0.4487 -2.1909
 9060SOL    HW231637   3.627   5.645   4.730 -0.8591 -2.0037  0.3090
 9061SOL     OW31638   9.223   4.552   1.463  0.3214  0.4638 -0.1280
 9061SOL    HW131639   9.306   4.599   1.463 -1.3201  3.7234 -1.0919
 9061SOL    HW231640   9.233   4.484   1.397  1.7169  1.8970 -1.4677
 9062SOL     OW31641   2.626   6.005   1.593  0.0950 -0.5929  0.6365
 9062SOL    HW131642   2.701   6.051   1.556 -0.2293  0.0589  0.7777
 9062SOL    HW231643   2.649   5.912   1.587  1.9815 -0.3744  2.8897
 9063SOL     OW31644   5.293   4.664   5.214 -0.1719  0.0464 -0.1545
 9063SOL    HW131645   5.207   4.682   5.252 -0.1803  1.8838 -0.9267
 9063SOL    HW231646   5.293   4.710   5.130  2.1181  1.5181  0.5392
 9064SOL     OW31647  10.310   1.150   3.501 -0.3799 -0.3037  0.2121
 9064SOL    HW131648  10.279   1.147   3.411  0.3347 -2.5850 -0.0177
 9064SOL    HW231649  10.260   1.082   3.546 -0.3258  0.4204  1.4154
 9065SOL     OW31650   5.628   9.472   6.828  0.2010  0.0765 -0.9070
 9065SOL    HW131651   5.569   9.405   6.793  1.4388 -0.9006 -1.2223
 9065SOL    HW231652   5.676   9.427   6.898  0.5867  0.8294 -0.6806
 9066SOL     OW31653   4.965   6.558   8.258 -0.6302  0.0281 -0.6156
 9066SOL    HW131654   4.896   6.587   8.318 -0.0715  1.8890 -0.8157
 9066SOL    HW231655   4.933   6.582   8.171  0.0641  0.5102 -0.7460
 9067SOL     OW31656   0.183   4.131   4.252 -0.0250 -0.2386 -0.1870
 9067SOL    HW131657   0.110   4.073   4.230  0.3624 -0.1484 -1.7972
 9067SOL    HW231658   0.197   4.183   4.174  1.0910  0.4854  0.4688
 9068SOL     OW31659   2.665   0.511   1.624 -0.2150 -0.5835 -0.0500
 9068SOL    HW131660   2.625   0.455   1.690  1.6104 -0.6359  1.0989
 9068SOL    HW231661   2.608   0.588   1.620 -0.5871 -0.7652  1.3095
 9069SOL     OW31662   3.139   4.458   6.675  0.0015  0.4920  0.1497
 9069SOL    HW131663   3.127   4.366   6.653  0.4493  0.6293 -0.7085
 9069SOL    HW231664   3.112   4.465   6.766 -2.4009 -0.0141 -0.4621
 9070SOL     OW31665   2.517   1.435   2.189  0.3375 -0.6092  0.1810
 9070SOL    HW131666   2.423   1.420   2.183  0.0778  0.6163  0.8664
 9070SOL    HW231667   2.556   1.351   2.164 -0.9614 -1.7190  1.6457
 9071SOL     OW31668   9.284   2.056   9.141  0.0718  0.5620  0.7890
 9071SOL    HW131669   9.272   1.962   9.124  0.2088  0.5208  0.9192
 9071SOL    HW231670   9.217   2.077   9.206  0.2367  0.4868  0.9859
 9072SOL     OW31671   5.044   1.909  10.700 -0.1781  0.3262 -0.8087
 9072SOL    HW131672   5.122   1.891  10.752 -0.3063  0.1973 -0.6591
 9072SOL    HW231673   5.027   2.003  10.713  0.2036  0.4511 -1.1909
 9073SOL     OW31674   8.885  11.040   4.419  0.1811 -0.6395 -0.3199
 9073SOL    HW131675   8.836  10.965   4.385  2.0435 -2.2579  0.3853
 9073SOL    HW231676   8.880  11.106   4.350 -0.6741 -1.7616 -1.3687
 9074SOL     OW31677   4.218   8.626   9.655 -0.1279  0.2031  0.5448
 9074SOL    HW131678   4.273   8.645   9.579  0.7656 -0.3218  1.0435
 9074SOL    HW231679   4.243   8.691   9.720 -0.1306 -0.0137  0.7632
 9075SOL     OW31680   8.083   3.312   5.431 -0.6101 -0.7581 -0.0513
 9075SOL    HW131681   8.164   3.351   5.465 -0.4899 -0.3864 -0.7584
 9075SOL    HW231682   8.099   3.302   5.337 -1.1266 -1.3309 -0.0818
 9076SOL     OW31683  10.405   7.795   8.718 -0.4934  0.0850 -0.0422
 9076SOL    HW131684  10.497   7.778   8.698 -0.0227  1.5002  0.7508
 9076SOL    HW231685  10.384   7.874   8.667 -1.1691 -0.0247  0.0584
 9077SOL     OW31686   6.790   2.965   8.580  0.2903  0.1508 -0.5901
 9077SOL    HW131687   6.786   2.869   8.587 -0.8000  0.2636  1.0492
 9077SOL    HW231688   6.698   2.992   8.578  0.5202  1.2573  1.3530
 9078SOL     OW31689   0.316   8.665   7.659  0.1223  0.4902  0.1961
 9078SOL    HW131690   0.387   8.687   7.599 -0.1420 -2.1867 -1.2365
 9078SOL    HW231691   0.236   8.690   7.612 -0.0137  2.5292  1.3787
 9079SOL     OW31692   0.379  10.406   8.533  0.8594  0.0616  0.0435
 9079SOL    HW131693   0.349  10.333   8.479 -2.1599  1.1827 -0.0087
 9079SOL    HW231694   0.441  10.366   8.594 -0.3768 -2.5097 -0.2127
 9080SOL     OW31695   3.263   5.794   1.451  0.6594 -0.3281 -0.5750
 9080SOL    HW131696   3.251   5.878   1.496 -0.2542 -1.0330  0.5533
 9080SOL    HW231697   3.203   5.797   1.377 -0.8055 -0.6965  0.5446
 9081SOL     OW31698   3.458  10.023   3.670  0.1377  0.1099  0.2707
 9081SOL    HW131699   3.408   9.945   3.646 -1.5938  1.2853 -0.1234
 9081SOL    HW231700   3.416  10.094   3.621  2.4923  1.1213 -0.4253
 9082SOL     OW31701   5.457   8.779  11.059 -0.4440 -0.0539  0.0006
 9082SOL    HW131702   5.473   8.873  11.049 -0.4792 -0.1459 -1.0687
 9082SOL    HW231703   5.544   8.742  11.073 -0.5277  0.2281  1.3826
 9083SOL     OW31704   7.510   1.767   5.516 -0.1969 -0.4400 -0.0963
 9083SOL    HW131705   7.504   1.847   5.568  1.3828 -0.3029 -0.0600
 9083SOL    HW231706   7.420   1.746   5.493 -0.6178  1.9241 -0.9746
 9084SOL     OW31707   9.905   1.903  10.784  0.0836  0.7129  0.3380
 9084SOL    HW131708   9.891   1.890  10.691  1.2072  0.6125  0.1756
 9084SOL    HW231709   9.934   1.994  10.792 -0.4558  0.8653  0.6483
 9085SOL     OW31710   0.553   4.438   6.356  0.0760  0.3804  0.0378
 9085SOL    HW131711   0.523   4.457   6.444  0.7912 -0.3369  0.4464
 9085SOL    HW231712   0.615   4.509   6.337 -2.0483  2.1013 -0.9658
 9086SOL     OW31713   7.622   1.097   1.686 -0.4914 -0.8339  0.0278
 9086SOL    HW131714   7.531   1.090   1.657 -0.7361  0.7720  0.3119
 9086SOL    HW231715   7.616   1.122   1.778  0.2083  0.6208 -0.3041
 9087SOL     OW31716   4.269   8.202   8.868  0.0461  0.1062 -0.1145
 9087SOL    HW131717   4.299   8.210   8.778  0.0587  1.3504 -0.0090
 9087SOL    HW231718   4.348   8.210   8.921 -0.0098 -0.2569  0.0269
 9088SOL     OW31719   7.936   3.902   1.023  0.6767 -0.7363  0.3949
 9088SOL    HW131720   7.852   3.895   1.068 -0.9879  0.3441 -2.3173
 9088SOL    HW231721   7.991   3.953   1.083 -1.7852  1.6641  0.7838
 9089SOL     OW31722   4.245   6.639   4.413 -0.4441 -0.3052  0.7368
 9089SOL    HW131723   4.181   6.707   4.392 -0.7792 -0.6586  0.6068
 9089SOL    HW231724   4.259   6.648   4.507  0.8787  1.1173  0.4459
 9090SOL     OW31725   9.681   4.840   2.568  0.3072 -0.2745  0.1964
 9090SOL    HW131726   9.594   4.848   2.607  1.0295 -1.0306  2.0493
 9090SOL    HW231727   9.680   4.903   2.495 -1.3419  0.6697  0.9805
 9091SOL     OW31728   5.265  10.772   5.081 -0.0932 -0.1048  0.2167
 9091SOL    HW131729   5.239  10.824   5.005  2.0947 -0.4501 -0.8595
 9091SOL    HW231730   5.352  10.805   5.104  0.1020 -1.3157  1.3350
 9092SOL     OW31731   7.959   7.468   0.285  0.1015 -0.0234 -1.0916
 9092SOL    HW131732   7.873   7.502   0.306  0.8360  1.0772  0.2500
 9092SOL    HW231733   7.965   7.474   0.189 -1.5820 -0.8795 -1.2853
 9093SOL     OW31734   3.336   5.721   7.021  0.0099 -0.1413 -0.0026
 9093SOL    HW131735   3.265   5.784   7.038  0.3255  0.3879 -0.5773
 9093SOL    HW231736   3.370   5.699   7.107 -0.4259  0.1047  0.2378
 9094SOL     OW31737  10.142   7.041   2.274 -0.0191 -0.5004 -0.3708
 9094SOL    HW131738  10.215   7.022   2.332  0.3792 -0.3291 -0.8105
 9094SOL    HW231739  10.082   6.968   2.285  0.2513 -0.6732 -0.0572
 9095SOL     OW31740   5.943   7.834   0.691 -0.2825  0.6022 -0.0727
 9095SOL    HW131741   5.988   7.902   0.741  2.2860  0.5747 -2.1540
 9095SOL    HW231742   5.866   7.879   0.654  0.6953  2.0721 -0.4085
 9096SOL     OW31743   6.988   3.854   2.653  0.0575  0.2000 -0.0549
 9096SOL    HW131744   6.926   3.908   2.703  0.9750  1.2679 -0.0496
 9096SOL    HW231745   7.061   3.839   2.713  0.5814  0.3982 -0.6365
 9097SOL     OW31746   4.593   7.370   7.786 -0.2025  0.2655  0.0208
 9097SOL    HW131747   4.645   7.348   7.710 -1.1153 -0.6450 -0.3572
 9097SOL    HW231748   4.579   7.287   7.832 -1.8066  0.3737 -0.2186
 9098SOL     OW31749   2.830   3.392   6.836  0.7837 -0.4768 -0.5435
 9098SOL    HW131750   2.907   3.368   6.888  1.5738 -1.0792 -1.9337
 9098SOL    HW231751   2.830   3.330   6.763  0.0994  0.7723 -1.6349
 9099SOL     OW31752   4.741   0.377   4.532  0.1234  0.7202 -0.0968
 9099SOL    HW131753   4.662   0.340   4.572  1.1988 -0.3288  1.1648
 9099SOL    HW231754   4.739   0.470   4.557  0.4581  0.2206  2.0067
 9100SOL     OW31755   3.976   3.396   7.848 -0.4627 -0.1374  0.0165
 9100SOL    HW131756   4.048   3.361   7.795 -0.9600 -0.9082 -0.1698
 9100SOL    HW231757   3.900   3.343   7.823 -0.4253 -1.5305  2.5614
 9101SOL     OW31758   8.651  10.594   7.546  0.2569 -0.0006 -0.6143
 9101SOL    HW131759   8.695  10.624   7.626 -0.2330  0.4728 -0.5183
 9101SOL    HW231760   8.668  10.500   7.544  1.0646  0.1277 -0.4524
 9102SOL     OW31761  10.174   7.355   9.589  0.3440 -0.5631  0.3912
 9102SOL    HW131762  10.087   7.318   9.601  0.9233 -1.5673  1.7594
 9102SOL    HW231763  10.232   7.298   9.640  1.4835  1.3943  1.4294
 9103SOL     OW31764   1.540   5.346   1.958 -0.1486  0.1584  0.0006
 9103SOL    HW131765   1.537   5.410   2.030  1.2005  0.4580 -0.1837
 9103SOL    HW231766   1.518   5.262   2.000 -0.9417  0.5769  0.4402
 9104SOL     OW31767   1.669   7.119   6.485 -0.1502  0.2778 -0.2511
 9104SOL    HW131768   1.759   7.089   6.496 -0.1452  0.2319 -0.4257
 9104SOL    HW231769   1.624   7.087   6.564 -0.0052  0.3372 -0.1424
 9105SOL     OW31770   2.884   3.596   7.776  0.5062 -0.4765 -0.1790
 9105SOL    HW131771   2.953   3.536   7.802  0.3324 -0.0115  1.4482
 9105SOL    HW231772   2.852   3.561   7.693  0.7925 -2.3082  0.4368
 9106SOL     OW31773   7.374   0.519   0.816  0.1054 -0.2840 -0.2117
 9106SOL    HW131774   7.331   0.600   0.843  0.4299 -0.9468  2.6330
 9106SOL    HW231775   7.462   0.524   0.854  0.2515 -1.8079 -0.2746
 9107SOL     OW31776   2.912  10.266   2.287 -0.4070  0.0301  0.7938
 9107SOL    HW131777   2.879  10.178   2.304 -0.3510  0.0877  1.2104
 9107SOL    HW231778   3.005  10.262   2.311 -0.4062  0.2054  0.8228
 9108SOL     OW31779   9.497   2.441   3.385  0.4189 -0.1337  0.2824
 9108SOL    HW131780   9.581   2.484   3.367  0.2035  0.1839  0.0257
 9108SOL    HW231781   9.434   2.512   3.391 -0.3597 -0.4747 -2.3236
 9109SOL     OW31782   3.874   2.043  10.254 -0.1990 -0.1481 -0.3196
 9109SOL    HW131783   3.794   2.092  10.235 -1.0330 -1.1349  0.5656
 9109SOL    HW231784   3.944   2.097  10.217 -0.9470  2.2574  1.4819
 9110SOL     OW31785   7.157   8.663  10.266  0.8531 -0.0172 -0.1082
 9110SOL    HW131786   7.215   8.699  10.198  0.9791 -2.1921 -1.2414
 9110SOL    HW231787   7.073   8.651  10.221  0.4958 -0.0405  0.5648
 9111SOL     OW31788   6.946   5.622   7.743  0.5441 -0.1153  0.1515
 9111SOL    HW131789   7.027   5.672   7.734  1.1051 -1.0432 -0.1464
 9111SOL    HW231790   6.965   5.558   7.813  0.0832 -0.3565  0.0607
 9112SOL     OW31791   1.660   6.004   2.019  0.3367  0.4746 -0.1023
 9112SOL    HW131792   1.607   5.961   1.952  0.5453  0.5683 -0.3303
 9112SOL    HW231793   1.674   6.093   1.985  1.0055  0.3146 -0.2549
 9113SOL     OW31794   8.007   5.416   0.184 -0.3345  0.0500 -0.2738
 9113SOL    HW131795   8.021   5.336   0.234 -2.3263 -0.0146  0.2591
 9113SOL    HW231796   8.060   5.482   0.228 -0.8071 -0.3804  0.9708
 9114SOL     OW31797   2.373   0.617   0.601 -0.0993 -0.5330 -0.0151
 9114SOL    HW131798   2.377   0.708   0.631 -2.1106  0.0917 -1.4017
 9114SOL    HW231799   2.288   0.586   0.631  1.0937 -2.4564  1.5835
 9115SOL     OW31800   9.264   8.706   0.375 -0.5495 -0.8566 -0.3325
 9115SOL    HW131801   9.329   8.725   0.444 -2.1800  0.5389  0.9094
 9115SOL    HW231802   9.225   8.622   0.401 -1.2085 -0.3010  0.5302
 9116SOL     OW31803   7.129   4.437   7.556 -0.7987 -0.5335 -0.1514
 9116SOL    HW131804   7.132   4.472   7.467 -2.0434  0.1088  0.0396
 9116SOL    HW231805   7.069   4.495   7.603 -0.6777 -1.2551  0.9408
 9117SOL     OW31806   4.730   5.917   1.940  0.4249 -0.2200  0.4761
 9117SOL    HW131807   4.738   5.843   2.000  0.5644  0.9267  1.9089
 9117SOL    HW231808   4.820   5.942   1.921  0.3796 -0.4941 -0.1460
 9118SOL     OW31809   9.547  10.656   5.417 -0.3232 -0.1682 -0.0844
 9118SOL    HW131810   9.502  10.599   5.355  0.5885 -0.5891 -0.3744
 9118SOL    HW231811   9.490  10.657   5.494 -1.2145 -0.0413 -0.7303
 9119SOL     OW31812   5.696   6.539   6.499 -0.2801  0.0669  0.3644
 9119SOL    HW131813   5.686   6.451   6.537  0.9182 -1.0709 -1.7496
 9119SOL    HW231814   5.769   6.577   6.546  1.8588 -1.7156 -1.2786
 9120SOL     OW31815  10.736   7.111   0.138  0.2510 -0.9890 -0.1070
 9120SOL    HW131816  10.771   7.065   0.061  0.2176  0.0956 -0.7964
 9120SOL    HW231817  10.641   7.115   0.122  0.5118  1.9687 -1.6375
 9121SOL     OW31818   4.280   9.905  10.131 -0.1654  0.5439  0.1724
 9121SOL    HW131819   4.358   9.889  10.077  0.7755 -1.1122  1.8913
 9121SOL    HW231820   4.314   9.951  10.207 -0.5426 -1.4262  1.6140
 9122SOL     OW31821   8.853   9.474   8.767 -0.3051  0.4969 -0.1148
 9122SOL    HW131822   8.922   9.430   8.816 -0.6732 -0.9728 -0.8302
 9122SOL    HW231823   8.897   9.514   8.692 -0.1119  0.2136 -0.1549
 9123SOL     OW31824   1.784   6.053   2.461  0.5099 -0.1517 -0.8900
 9123SOL    HW131825   1.795   5.982   2.524 -1.2421 -0.9245 -1.4172
 9123SOL    HW231826   1.786   6.011   2.376 -3.3503 -0.1148 -1.1687
 9124SOL     OW31827  10.346   2.529   3.728  0.1182 -0.4406  0.0141
 9124SOL    HW131828  10.310   2.575   3.653 -0.2498  0.7506  0.8856
 9124SOL    HW231829  10.357   2.438   3.698  0.0896  0.0281 -1.4853
 9125SOL     OW31830   7.722   0.243   9.648  0.3123 -0.5514 -0.0836
 9125SOL    HW131831   7.802   0.206   9.684 -0.1190 -1.0825  0.3345
 9125SOL    HW231832   7.657   0.173   9.655 -0.4956  0.2371  0.6495
 9126SOL     OW31833   8.748   8.158   8.743 -0.4290  0.2391 -0.0519
 9126SOL    HW131834   8.716   8.168   8.833  0.2310 -0.3745  0.2605
 9126SOL    HW231835   8.684   8.101   8.701 -0.6579  0.4021  0.0766
 9127SOL     OW31836   3.210   3.754   5.983 -0.4475 -0.0742  0.1762
 9127SOL    HW131837   3.191   3.841   6.020 -0.4989  1.3676 -2.9178
 9127SOL    HW231838   3.134   3.735   5.928  0.4036 -1.2127 -0.6325
 9128SOL     OW31839   6.425   5.024   0.478 -0.3622  0.3249  0.2183
 9128SOL    HW131840   6.428   5.119   0.481 -0.0227  0.4271 -1.8752
 9128SOL    HW231841   6.516   4.997   0.464 -0.3539 -0.3715  1.4560
 9129SOL     OW31842   4.794   7.364   1.867 -0.0696 -0.4801 -0.1544
 9129SOL    HW131843   4.794   7.443   1.922  0.0503 -1.1790  0.8933
 9129SOL    HW231844   4.886   7.335   1.867 -0.2232 -0.9872  0.0497
 9130SOL     OW31845   6.992   5.449   6.543  0.3620  0.1370 -0.4652
 9130SOL    HW131846   6.906   5.482   6.571 -0.6692 -1.8518 -1.0899
 9130SOL    HW231847   7.054   5.515   6.574 -1.1861  0.6578  1.8272
 9131SOL     OW31848   6.025   4.509  10.941  0.6280  0.1561 -0.0610
 9131SOL    HW131849   6.021   4.538  10.850  0.2254 -1.3624 -0.5599
 9131SOL    HW231850   5.949   4.452  10.952  1.6923 -1.1942  0.6569
 9132SOL     OW31851   5.926   1.343   9.136 -0.0883 -0.0959 -0.3666
 9132SOL    HW131852   5.913   1.334   9.042 -0.6441 -3.6382 -0.1168
 9132SOL    HW231853   5.990   1.275   9.157  0.0407  0.6340  1.8133
 9133SOL     OW31854   5.766   9.074   3.008  0.1592 -0.3030  0.4364
 9133SOL    HW131855   5.846   9.061   3.059  0.4531 -3.4498 -0.6038
 9133SOL    HW231856   5.698   9.031   3.059 -0.0690 -1.0708 -0.4813
 9134SOL     OW31857   0.043   8.346   2.197  0.0619 -0.0898 -0.2379
 9134SOL    HW131858   0.014   8.422   2.248  1.4428  1.1501 -1.1975
 9134SOL    HW231859   0.008   8.361   2.109  0.6778 -0.3320 -0.5356
 9135SOL     OW31860   0.911   4.445   2.504 -0.4810  0.1426 -0.4604
 9135SOL    HW131861   0.838   4.503   2.480 -0.5214  0.0201 -0.6400
 9135SOL    HW231862   0.922   4.388   2.428 -1.4216 -1.0871  0.2847
 9136SOL     OW31863   0.971   3.430   8.178 -0.2883  0.3216 -0.2444
 9136SOL    HW131864   1.029   3.375   8.230  1.8965  1.3509 -1.4323
 9136SOL    HW231865   0.898   3.373   8.154 -0.2414 -0.7921  1.9860
 9137SOL     OW31866   2.951   7.501   3.878  0.0726 -0.1612 -0.1034
 9137SOL    HW131867   3.001   7.548   3.811  2.3729 -1.4768  0.5673
 9137SOL    HW231868   2.894   7.442   3.829  1.8481 -1.2452 -0.9899
 9138SOL     OW31869   9.339  10.539   7.936 -0.5380  1.0023  0.3420
 9138SOL    HW131870   9.251  10.511   7.963 -0.3670  0.6936  0.5873
 9138SOL    HW231871   9.362  10.609   7.997  0.7246 -1.1262  2.4616
 9139SOL     OW31872   9.557   8.783  10.830 -0.1312 -0.1495 -0.1748
 9139SOL    HW131873   9.606   8.842  10.888 -2.5036  1.0704  0.7353
 9139SOL    HW231874   9.623   8.721  10.799  1.8007  0.8077  1.6619
 9140SOL     OW31875  10.861   9.085   3.019  0.2226 -0.4753 -0.1283
 9140SOL    HW131876  10.907   9.167   2.997 -2.1596  1.5182  1.6976
 9140SOL    HW231877  10.831   9.051   2.934  0.5179  1.0627 -0.8862
 9141SOL     OW31878   6.112   5.979   1.766 -0.0330 -0.7218  0.4499
 9141SOL    HW131879   6.097   6.070   1.741 -1.2942 -0.7196  1.1351
 9141SOL    HW231880   6.071   5.928   1.696  1.2615 -0.8092 -0.2917
 9142SOL     OW31881   8.143  10.539   3.674 -0.4039  0.1811 -0.1840
 9142SOL    HW131882   8.058  10.497   3.658  0.6597 -2.0127 -0.3898
 9142SOL    HW231883   8.181  10.551   3.588 -0.9920  2.3548 -0.1864
 9143SOL     OW31884   9.652   3.742   2.843 -0.0257  0.0845 -0.0438
 9143SOL    HW131885   9.656   3.801   2.918 -1.8913 -0.1795  0.3293
 9143SOL    HW231886   9.664   3.799   2.767 -2.6697  1.2012  0.2509
 9144SOL     OW31887   1.246   3.015   7.935  0.3489 -0.4973  0.4196
 9144SOL    HW131888   1.189   2.947   7.971  2.1746 -2.1176  0.4348
 9144SOL    HW231889   1.306   2.968   7.877  2.1604  0.9499  1.0020
 9145SOL     OW31890   3.738   2.580   9.619 -0.3693  0.1222 -0.2475
 9145SOL    HW131891   3.823   2.555   9.656 -0.6328  2.4665  2.2389
 9145SOL    HW231892   3.756   2.659   9.568 -0.9804  0.3972 -0.0445
 9146SOL     OW31893   5.645   6.407   5.576  0.0209  0.1187 -0.6941
 9146SOL    HW131894   5.726   6.457   5.582 -0.6585  1.1610  0.1147
 9146SOL    HW231895   5.599   6.426   5.658 -0.8394 -0.8228 -0.9391
 9147SOL     OW31896   6.911   0.089  10.325  0.1510  0.1123  0.5893
 9147SOL    HW131897   6.859   0.095  10.244  0.5185  0.3748  0.3676
 9147SOL    HW231898   6.946   0.177  10.337 -2.1157  0.8297  2.5561
 9148SOL     OW31899   5.589   1.635   6.912  0.6646  0.3431  0.0152
 9148SOL    HW131900   5.578   1.722   6.874  2.4874  0.5057 -0.2249
 9148SOL    HW231901   5.535   1.636   6.991  1.2819  1.9887  0.4590
 9149SOL     OW31902   9.157   9.503   6.565  0.8740  0.2287 -0.6549
 9149SOL    HW131903   9.089   9.492   6.498  0.1654  1.3660 -0.1501
 9149SOL    HW231904   9.158   9.596   6.583  0.8968 -0.0796  1.0824
 9150SOL     OW31905   3.083   2.346   1.159  0.0248 -0.1038  0.0461
 9150SOL    HW131906   2.992   2.322   1.145 -0.8852  4.1776 -3.2971
 9150SOL    HW231907   3.132   2.288   1.100 -1.0191  0.1397 -1.0965
 9151SOL     OW31908   6.957   2.219   2.193  0.0785  0.1354 -0.2679
 9151SOL    HW131909   6.878   2.179   2.157  0.3572  0.3070 -1.0937
 9151SOL    HW231910   6.943   2.313   2.185 -0.2464  0.2091  0.9524
 9152SOL     OW31911   4.188   8.726   3.978 -0.6522 -0.0503 -0.2684
 9152SOL    HW131912   4.205   8.633   3.963 -2.9978 -0.9807  2.0792
 9152SOL    HW231913   4.137   8.753   3.902 -0.1016 -0.7350 -0.8953
 9153SOL     OW31914   8.933   4.591   1.125  0.3375 -0.5867 -0.4584
 9153SOL    HW131915   8.856   4.631   1.085  0.1688 -1.0640 -0.6139
 9153SOL    HW231916   8.995   4.581   1.053  0.9617  0.7527 -0.1479
 9154SOL     OW31917   5.488   9.386   3.174 -0.6094 -0.2499  0.2505
 9154SOL    HW131918   5.486   9.443   3.097 -0.8428  1.5872  1.5353
 9154SOL    HW231919   5.411   9.331   3.166 -0.6611 -0.0338 -0.8045
 9155SOL     OW31920   5.543   1.122   7.485 -0.1923  0.3942 -0.1537
 9155SOL    HW131921   5.600   1.081   7.420  1.3621  1.2829  0.5918
 9155SOL    HW231922   5.485   1.179   7.434  0.2464  0.2321 -0.8387
 9156SOL     OW31923  10.361   4.179   8.319  0.7615 -0.0653 -0.1990
 9156SOL    HW131924  10.366   4.171   8.224 -0.0146 -1.4694 -0.1443
 9156SOL    HW231925  10.413   4.105   8.351  2.5362  1.3984  0.5207
 9157SOL     OW31926   7.964   6.992   1.372  0.1890  0.4879 -0.6776
 9157SOL    HW131927   7.936   7.080   1.400  0.1989  0.3838 -0.3357
 9157SOL    HW231928   7.983   7.002   1.279 -1.7460  0.3808 -1.1386
 9158SOL     OW31929   2.966   2.086   1.756  0.3564  0.0176  0.4587
 9158SOL    HW131930   3.044   2.039   1.727  0.0695  0.1858 -0.6545
 9158SOL    HW231931   2.986   2.115   1.845  1.0591 -1.0380  0.6585
 9159SOL     OW31932   5.686   5.114   8.434 -0.1522 -0.3449 -0.1703
 9159SOL    HW131933   5.707   5.043   8.373 -0.0177 -1.7573  1.4491
 9159SOL    HW231934   5.771   5.149   8.460 -0.1512 -0.5668  0.1297
 9160SOL     OW31935   6.167   1.544   9.538  0.6005  0.4297  0.1875
 9160SOL    HW131936   6.212   1.503   9.464 -1.3535 -0.8139 -0.3938
 9160SOL    HW231937   6.105   1.478   9.568 -2.0984  2.6178 -0.1957
 9161SOL     OW31938   8.780   5.866   0.076  0.4022 -0.1997  0.1581
 9161SOL    HW131939   8.855   5.812   0.104 -0.2972 -1.1282  0.3126
 9161SOL    HW231940   8.728   5.807   0.021 -0.5064  0.2435  0.5264
 9162SOL     OW31941   5.892   5.074   7.517 -0.1712  0.0691  0.1816
 9162SOL    HW131942   5.853   5.157   7.491 -1.1753 -0.5505 -0.3805
 9162SOL    HW231943   5.833   5.008   7.480  0.6316 -0.8884  0.5743
 9163SOL     OW31944  10.376   9.402  10.992 -0.0326  0.3791 -0.4350
 9163SOL    HW131945  10.447   9.403  11.056  0.9695  1.2516 -1.5076
 9163SOL    HW231946  10.381   9.488  10.950 -2.0302  0.6328 -0.2363
 9164SOL     OW31947   7.685   1.918   7.185  0.2253  0.6501  0.2982
 9164SOL    HW131948   7.627   1.913   7.261 -0.2613 -2.3597 -0.1769
 9164SOL    HW231949   7.736   1.837   7.188 -2.1351 -1.3560 -4.3097
 9165SOL     OW31950   5.392   5.982   3.553  0.2508 -0.0735 -0.4331
 9165SOL    HW131951   5.422   6.009   3.466 -0.6911  0.0816 -0.7174
 9165SOL    HW231952   5.454   6.023   3.613  1.5828 -1.0991 -1.0677
 9166SOL     OW31953   3.932  10.499   0.745 -0.5374  0.5713 -0.7903
 9166SOL    HW131954   3.883  10.473   0.823  0.3842 -1.1183 -0.7240
 9166SOL    HW231955   3.878  10.469   0.672  0.2238 -1.0908 -0.7191
 9167SOL     OW31956   7.862   3.280   7.657 -0.2559 -0.2541 -0.1618
 9167SOL    HW131957   7.956   3.292   7.643  0.0405 -0.9018  1.1289
 9167SOL    HW231958   7.846   3.316   7.744 -1.0649 -0.8056 -0.0761
 9168SOL     OW31959   7.559  10.085   6.947  0.1016 -0.6133 -0.3660
 9168SOL    HW131960   7.615  10.159   6.925  1.5505 -1.3438  0.6825
 9168SOL    HW231961   7.558  10.031   6.868  0.4395 -0.3288 -0.5652
 9169SOL     OW31962   0.199   4.705   2.452 -0.2898 -0.1968 -0.2075
 9169SOL    HW131963   0.110   4.672   2.438 -0.5538  0.6631 -0.6408
 9169SOL    HW231964   0.237   4.710   2.364 -0.6764  1.7581 -0.3060
 9170SOL     OW31965   5.932  10.749   5.551 -0.0660  0.5936 -0.0473
 9170SOL    HW131966   5.889  10.680   5.601 -0.2848  0.5482 -0.2968
 9170SOL    HW231967   6.021  10.753   5.587 -0.3819  0.9368  0.7180
 9171SOL     OW31968   8.424   0.091   3.153  0.0853 -0.1631 -0.2380
 9171SOL    HW131969   8.498   0.077   3.094 -0.0160 -0.6904 -0.2437
 9171SOL    HW231970   8.388   0.004   3.167 -0.2391  0.0321  0.1532
 9172SOL     OW31971   1.784   0.561   1.954 -0.2297 -0.1765 -0.0453
 9172SOL    HW131972   1.786   0.655   1.970  1.6813  0.7375 -4.1523
 9172SOL    HW231973   1.873   0.531   1.975  0.2248 -0.2684 -1.9089
 9173SOL     OW31974   2.237   3.294   8.909 -0.0940 -0.1168 -0.7474
 9173SOL    HW131975   2.240   3.206   8.948 -1.5589 -0.1482 -0.6445
 9173SOL    HW231976   2.323   3.305   8.869  0.0914 -1.6474 -0.8461
 9174SOL     OW31977   0.051   7.828   9.450 -0.3936  0.0215  0.5792
 9174SOL    HW131978  -0.035   7.855   9.483 -1.1978 -3.0027  1.2945
 9174SOL    HW231979   0.039   7.817   9.356 -0.9100 -0.6240  0.7098
 9175SOL     OW31980   6.377   5.583   4.150  0.3112 -0.4332  0.0260
 9175SOL    HW131981   6.346   5.526   4.079 -0.5029 -0.3605  0.3194
 9175SOL    HW231982   6.364   5.672   4.117  0.5183 -0.4026  0.0236
 9176SOL     OW31983   5.981   5.700   0.425 -0.4716  0.4742  0.4262
 9176SOL    HW131984   5.911   5.710   0.361 -0.3630  3.2514  0.6132
 9176SOL    HW231985   6.022   5.617   0.404 -2.2439 -0.0370 -1.2588
 9177SOL     OW31986   6.089   6.602   8.035  0.1528 -0.0962 -0.4451
 9177SOL    HW131987   6.063   6.565   7.950 -0.6187 -0.5130 -0.0452
 9177SOL    HW231988   6.015   6.658   8.059  0.0235 -0.5839  0.3030
 9178SOL     OW31989  10.219  10.139   2.899  0.2329 -0.5063  0.7348
 9178SOL    HW131990  10.147  10.129   2.836  1.0384  0.0286 -0.3062
 9178SOL    HW231991  10.256  10.051   2.907 -0.3939 -0.7464  1.1303
 9179SOL     OW31992   4.001   3.065  10.392  0.0688  0.1219  0.1242
 9179SOL    HW131993   3.970   3.108  10.312  0.4346  1.5196  0.7041
 9179SOL    HW231994   3.970   2.975  10.384  0.9078 -0.0464 -2.0414
 9180SOL     OW31995  10.292   4.504   6.964  0.0009  0.2972 -0.3337
 9180SOL    HW131996  10.242   4.447   7.022 -0.4741 -0.7077 -1.6700
 9180SOL    HW231997  10.245   4.588   6.967  0.0554  0.3008  0.7932
 9181SOL     OW31998   8.032   2.180   2.846 -0.1951  0.4425  0.0107
 9181SOL    HW131999   7.985   2.182   2.930  0.2994 -0.2159  0.3175
 9181SOL    HW232000   7.990   2.109   2.798  0.4760 -0.1605  0.2923
 9182SOL     OW32001   4.246  10.120   9.787 -0.0290 -0.3818  0.4838
 9182SOL    HW132002   4.317  10.063   9.757  0.8873  0.7319  0.4471
 9182SOL    HW232003   4.280  10.162   9.866 -0.1273  1.1216 -0.2322
 9183SOL     OW32004   0.476   4.586   8.461  0.1527  0.0965  0.0807
 9183SOL    HW132005   0.402   4.560   8.516 -1.2572  0.9370 -1.3378
 9183SOL    HW232006   0.534   4.634   8.521 -1.5160  1.3339  0.7853
 9184SOL     OW32007   7.742   9.864   1.965 -0.0223 -0.8609  0.0846
 9184SOL    HW132008   7.768   9.816   2.044 -0.6578 -0.4772  0.5412
 9184SOL    HW232009   7.665   9.914   1.992 -0.0797 -0.5043 -0.7081
 9185SOL     OW32010   3.490   3.258   7.709 -0.1487 -0.2679  0.3324
 9185SOL    HW132011   3.452   3.336   7.668 -0.0280 -0.7427 -0.7159
 9185SOL    HW232012   3.422   3.191   7.701 -0.0384 -0.4281  0.7219
 9186SOL     OW32013   8.949   8.541   1.099  0.0399 -0.3267 -0.1999
 9186SOL    HW132014   8.926   8.457   1.139 -0.3589 -1.2693 -2.2820
 9186SOL    HW232015   8.896   8.545   1.020  1.3579  1.0883 -1.0640
 9187SOL     OW32016   6.817   6.100   9.708 -0.0160 -0.2573 -0.4859
 9187SOL    HW132017   6.909   6.076   9.716  0.9729  3.2870  0.4482
 9187SOL    HW232018   6.773   6.046   9.774  1.3364 -1.9189 -0.8456
 9188SOL     OW32019   3.236   2.346   8.388  0.3558  0.5173 -0.7314
 9188SOL    HW132020   3.187   2.422   8.358  0.3422  1.3841  1.2925
 9188SOL    HW232021   3.173   2.274   8.384 -0.1175  0.9431 -1.1449
 9189SOL     OW32022   3.833   0.396   8.730 -0.0448  0.2831  0.3589
 9189SOL    HW132023   3.779   0.351   8.794  1.1096 -0.1175  1.0971
 9189SOL    HW232024   3.784   0.475   8.707 -0.8287  0.0393  1.1512
 9190SOL     OW32025  10.553   7.368   9.074  0.0546 -0.6617  0.1519
 9190SOL    HW132026  10.574   7.423   8.999 -0.2645 -0.7276  0.0116
 9190SOL    HW232027  10.580   7.419   9.150  2.0158 -1.3110 -0.0695
 9191SOL     OW32028   6.758   3.983   0.861 -0.2714 -0.1128 -0.1389
 9191SOL    HW132029   6.741   4.055   0.922  0.0080  1.4047 -1.7650
 9191SOL    HW232030   6.853   3.983   0.851 -0.3932  0.6541 -1.6413
 9192SOL     OW32031   7.950   5.571   6.981 -0.2267 -0.3854 -0.0048
 9192SOL    HW132032   7.864   5.535   7.002  0.3820 -0.9097  1.7242
 9192SOL    HW232033   7.998   5.567   7.064  0.7503  1.9204 -0.4041
 9193SOL     OW32034   9.912   3.059   9.394  0.2174  0.2504  0.4303
 9193SOL    HW132035   9.956   2.985   9.436  2.2494 -0.4213 -2.5070
 9193SOL    HW232036   9.866   3.020   9.319  0.2524  1.7876 -0.4282
 9194SOL     OW32037   0.321   3.663   7.822  0.4309 -0.3119  0.2515
 9194SOL    HW132038   0.259   3.692   7.755  0.5324 -1.3976 -0.3327
 9194SOL    HW232039   0.408   3.678   7.783  0.5453  0.6973  0.8525
 9195SOL     OW32040  10.021   9.001   8.408 -0.0870 -0.0805  0.3511
 9195SOL    HW132041  10.107   9.022   8.373 -0.5903  1.5615  0.0213
 9195SOL    HW232042  10.008   9.064   8.479 -1.6559  0.7884 -0.6572
 9196SOL     OW32043  10.901   6.541   8.938  0.2227 -0.2741 -0.0208
 9196SOL    HW132044  10.876   6.521   9.028  0.0069  0.3045  0.0523
 9196SOL    HW232045  10.915   6.456   8.897 -0.2627 -0.5563  0.3952
 9197SOL     OW32046   6.138   1.202   3.376 -0.4159 -0.0032  0.1658
 9197SOL    HW132047   6.091   1.276   3.339  1.2881  0.8318 -0.4145
 9197SOL    HW232048   6.069   1.141   3.402 -1.8963  1.9316  1.0501
 9198SOL     OW32049   4.990  10.832   6.184  0.4156  0.3094 -0.1814
 9198SOL    HW132050   5.011  10.777   6.108  0.7427  1.1668 -0.7359
 9198SOL    HW232051   4.934  10.901   6.148  0.0211  0.3467  0.4935
 9199SOL     OW32052   4.774   4.862   9.328  0.4843 -0.0169 -0.4035
 9199SOL    HW132053   4.842   4.837   9.391 -0.0296 -0.4381 -0.0015
 9199SOL    HW232054   4.821   4.879   9.247  0.9421 -1.4444 -0.4526
 9200SOL     OW32055   4.023   1.256   3.237  0.0277 -0.4844  0.2404
 9200SOL    HW132056   4.063   1.280   3.320 -0.0623  0.3065  0.0567
 9200SOL    HW232057   3.929   1.255   3.255  0.0178 -0.4760  0.1903
 9201SOL     OW32058  10.364   5.626  10.946 -0.0868  0.0196 -0.1324
 9201SOL    HW132059  10.382   5.720  10.956  2.0273 -0.3163 -0.3515
 9201SOL    HW232060  10.366   5.611  10.852  0.7200 -0.4432 -0.0441
 9202SOL     OW32061   8.583   7.494   0.640  0.5108  0.1659  0.0837
 9202SOL    HW132062   8.660   7.438   0.634  0.1504 -0.4393  0.9865
 9202SOL    HW232063   8.613   7.570   0.691  0.8026  0.4711 -0.5266
 9203SOL     OW32064   3.007   2.786   1.161  0.0949 -0.1065 -0.8497
 9203SOL    HW132065   3.006   2.755   1.071 -0.1205 -0.8261 -0.6117
 9203SOL    HW232066   2.938   2.852   1.165 -0.4458 -0.6463 -1.0260
 9204SOL     OW32067   4.096   4.927   2.105 -0.0343  0.0762  0.1587
 9204SOL    HW132068   4.094   5.020   2.083  1.1994  0.0242 -0.2352
 9204SOL    HW232069   4.185   4.899   2.085 -0.3792 -1.1923  0.2999
 9205SOL     OW32070   0.575  11.067   9.193  0.4609 -0.1392 -0.3653
 9205SOL    HW132071   0.602  11.033   9.278 -0.6918 -0.9150 -0.2966
 9205SOL    HW232072   0.500  11.013   9.167 -1.5503  2.3544 -0.1900
 9206SOL     OW32073   2.772   5.176   3.727  0.3287  0.0596 -0.8329
 9206SOL    HW132074   2.837   5.197   3.794 -0.3254 -2.0178  0.5558
 9206SOL    HW232075   2.822   5.136   3.656  0.5882 -2.0238  0.4553
 9207SOL     OW32076   3.586   3.479   8.280  0.1737 -0.1025 -0.4002
 9207SOL    HW132077   3.572   3.573   8.266 -0.7244 -0.4823 -2.4009
 9207SOL    HW232078   3.527   3.457   8.352 -1.3972  0.4516 -1.4672
 9208SOL     OW32079  10.984   5.411   4.784 -0.1688  0.0646 -0.0130
 9208SOL    HW132080  10.893   5.440   4.793  0.3845  1.8313  0.2598
 9208SOL    HW232081  10.999   5.354   4.860 -0.6087  1.0103  0.8032
 9209SOL     OW32082   6.598   6.052  10.632  0.0743 -0.1053 -0.1666
 9209SOL    HW132083   6.691   6.033  10.619 -0.1084  0.1822 -2.2739
 9209SOL    HW232084   6.589   6.145  10.610 -0.9181 -0.4584 -1.3097
 9210SOL     OW32085   7.473   5.792   9.564 -0.1100 -0.3323  0.1577
 9210SOL    HW132086   7.480   5.798   9.659  1.2795 -0.6176  0.1002
 9210SOL    HW232087   7.389   5.834   9.543 -0.2245  0.1397  1.4590
 9211SOL     OW32088   1.919   8.881   5.787 -0.4367 -0.0889  0.3218
 9211SOL    HW132089   1.982   8.830   5.737 -1.5695  0.2882 -1.5714
 9211SOL    HW232090   1.864   8.816   5.831  0.3878 -0.4269  0.8695
 9212SOL     OW32091   4.405   0.471   7.817 -0.2364 -0.2851  0.0139
 9212SOL    HW132092   4.360   0.387   7.816 -1.1002  0.1669 -0.5005
 9212SOL    HW232093   4.432   0.484   7.726  0.2623 -0.1907  0.1705
 9213SOL     OW32094   7.501   3.119   3.479 -0.9003 -0.2572 -0.0484
 9213SOL    HW132095   7.510   3.058   3.553 -0.2383 -0.3654 -0.2137
 9213SOL    HW232096   7.406   3.132   3.470 -0.9771  0.3330  1.2930
 9214SOL     OW32097   8.671   1.518   7.852 -0.0677 -0.3096  0.0489
 9214SOL    HW132098   8.697   1.548   7.764  0.9147 -2.6289 -0.5134
 9214SOL    HW232099   8.742   1.546   7.909 -0.0045 -0.0744 -0.1417
 9215SOL     OW32100   9.394   3.974   7.364 -0.0819 -0.9172 -0.5699
 9215SOL    HW132101   9.328   3.928   7.312 -1.4131 -0.9104  1.0335
 9215SOL    HW232102   9.469   3.915   7.367  0.0543 -0.8983 -2.4892
 9216SOL     OW32103   2.253   6.698   3.409 -0.0722  0.1277  0.4168
 9216SOL    HW132104   2.204   6.780   3.403 -0.9704 -0.4582 -0.7439
 9216SOL    HW232105   2.326   6.708   3.349 -1.4630 -0.7208 -1.5168
 9217SOL     OW32106   7.602  10.023   7.987  0.1340  0.2548  0.1713
 9217SOL    HW132107   7.645   9.988   8.065 -0.7116 -0.6182  0.2631
 9217SOL    HW232108   7.513   9.987   7.991  0.2802 -0.3830 -1.5740
 9218SOL     OW32109   8.784   6.617  10.409 -0.0242  0.2690 -0.2210
 9218SOL    HW132110   8.726   6.683  10.372  1.1271  1.3930 -0.0725
 9218SOL    HW232111   8.733   6.576  10.479 -0.5396  1.4104  0.0855
 9219SOL     OW32112   0.461   6.158   3.854 -0.0564 -0.1668  0.0874
 9219SOL    HW132113   0.488   6.183   3.943  2.1682  0.4082 -0.6799
 9219SOL    HW232114   0.460   6.062   3.856 -2.2811 -0.1988  1.2882
 9220SOL     OW32115   7.643   9.680  10.708 -0.1121 -0.4983  0.0855
 9220SOL    HW132116   7.736   9.704  10.706 -0.0345 -0.7491  0.6340
 9220SOL    HW232117   7.635   9.612  10.641 -0.1397  0.3393 -0.7855
 9221SOL     OW32118   1.647   5.743   5.923  0.2999 -0.6094  0.0012
 9221SOL    HW132119   1.675   5.657   5.893 -2.9920 -2.0508  0.5418
 9221SOL    HW232120   1.551   5.737   5.927 -0.0013  2.6551  1.3738
 9222SOL     OW32121   2.834   7.771   5.974 -0.3607  0.4714 -0.3392
 9222SOL    HW132122   2.886   7.844   5.942  0.8424 -0.3021 -0.2032
 9222SOL    HW232123   2.893   7.695   5.970 -1.1558 -0.2438  0.7462
 9223SOL     OW32124  10.398   1.512   0.852  0.6006 -0.7217 -0.3375
 9223SOL    HW132125  10.481   1.523   0.806  1.0390 -1.9800  0.1148
 9223SOL    HW232126  10.351   1.446   0.801  0.8746 -1.7425  0.6780
 9224SOL     OW32127   1.753   8.074   9.430 -0.2013  0.4903 -0.3881
 9224SOL    HW132128   1.699   7.996   9.414  0.9761 -0.3318 -0.5102
 9224SOL    HW232129   1.699   8.129   9.487 -1.3977 -0.0132 -0.9848
 9225SOL     OW32130   4.669   6.842   7.284  0.1245 -0.0947 -0.4447
 9225SOL    HW132131   4.694   6.750   7.286 -1.8698 -0.7269  2.5127
 9225SOL    HW232132   4.621   6.852   7.201 -1.6021 -2.3922  0.1705
 9226SOL     OW32133  10.012   9.799   1.226 -0.0248  0.1929  0.4135
 9226SOL    HW132134  10.046   9.884   1.256  0.2274 -0.0814  0.9174
 9226SOL    HW232135  10.088   9.741   1.228 -0.0389  0.1161 -0.5952
 9227SOL     OW32136   8.950   2.205  10.696 -0.0762 -0.1439 -0.3619
 9227SOL    HW132137   8.887   2.135  10.677  0.1305  0.6397 -5.1584
 9227SOL    HW232138   8.899   2.285  10.689  0.8354  0.3928 -1.0008
 9228SOL     OW32139   5.704   3.381   7.846  0.1876  0.0454  0.1664
 9228SOL    HW132140   5.766   3.425   7.788  1.2247  1.7596  2.3829
 9228SOL    HW232141   5.618   3.403   7.811  0.6568  3.5500  0.7726
 9229SOL     OW32142   4.922   7.010   2.179  0.0371  0.2100 -0.4042
 9229SOL    HW132143   4.848   7.066   2.158  1.4318  2.1068 -0.5510
 9229SOL    HW232144   4.955   6.979   2.094 -0.6431 -0.7546 -0.3310
 9230SOL     OW32145   0.494   3.727  10.315 -0.5820  0.5776  0.7596
 9230SOL    HW132146   0.454   3.671  10.249  0.2288  1.0348 -0.1416
 9230SOL    HW232147   0.588   3.715  10.303 -0.3867 -0.6031  2.9307
 9231SOL     OW32148   6.212   5.771   6.143 -0.2511  0.3034  0.1712
 9231SOL    HW132149   6.287   5.715   6.161  0.0331 -0.1054 -2.0281
 9231SOL    HW232150   6.138   5.726   6.184  0.2213 -0.9064 -0.2735
 9232SOL     OW32151   2.833   6.235   6.555 -0.4572 -0.0846 -0.3899
 9232SOL    HW132152   2.754   6.269   6.513 -1.1879 -0.5467  0.5753
 9232SOL    HW232153   2.825   6.140   6.550 -0.0467 -0.1401 -0.1242
 9233SOL     OW32154   3.959   1.525   7.998  0.0739  0.0913 -0.6658
 9233SOL    HW132155   4.044   1.498   7.964 -0.0929 -0.5174 -0.6030
 9233SOL    HW232156   3.944   1.467   8.073 -0.5622 -0.0452 -0.8979
 9234SOL     OW32157   1.884   6.369   7.617 -0.0175 -0.0744  0.0296
 9234SOL    HW132158   1.793   6.394   7.638 -0.3467 -0.0049 -1.3755
 9234SOL    HW232159   1.875   6.301   7.551  0.9461 -2.0905  1.8760
 9235SOL     OW32160   3.214   5.023   3.694  0.0849  0.4236  0.1376
 9235SOL    HW132161   3.200   5.080   3.618  0.1738  0.0672 -0.1506
 9235SOL    HW232162   3.269   4.953   3.661 -0.0439  0.1579  0.4834
 9236SOL     OW32163   1.429   3.305  10.330 -0.2839 -0.3580  0.7848
 9236SOL    HW132164   1.495   3.244  10.298 -0.9958 -0.8593  0.2394
 9236SOL    HW232165   1.451   3.318  10.422 -0.0790 -1.3708  0.8915
 9237SOL     OW32166   3.704   1.772   8.396 -0.1628 -0.1241 -0.1464
 9237SOL    HW132167   3.634   1.727   8.445 -0.5693 -0.7022 -1.2256
 9237SOL    HW232168   3.785   1.737   8.434 -0.4720 -0.5427  0.1475
 9238SOL     OW32169   0.909   2.218   3.235  0.4084 -0.3629  0.6135
 9238SOL    HW132170   0.935   2.164   3.310 -1.2105 -0.5019  1.1120
 9238SOL    HW232171   0.874   2.298   3.274  1.2096  0.3378 -0.0696
 9239SOL     OW32172   3.848  11.003   8.698  0.8114 -0.0524  0.3600
 9239SOL    HW132173   3.889  10.971   8.779  0.7469  0.1318  0.4674
 9239SOL    HW232174   3.772  11.052   8.729 -0.2786 -1.5221  0.1130
 9240SOL     OW32175   0.428  10.605   2.468 -0.6768 -0.3276 -0.3204
 9240SOL    HW132176   0.338  10.630   2.490 -0.3713  0.6223 -0.0734
 9240SOL    HW232177   0.469  10.585   2.552 -0.9637 -1.8875 -0.5352
 9241SOL     OW32178  10.942   1.970   3.495  0.7424 -0.6867  0.0571
 9241SOL    HW132179  10.878   2.033   3.464  1.7871  0.7282  0.6893
 9241SOL    HW232180  10.893   1.912   3.553 -0.6218 -1.6304 -1.9116
 9242SOL     OW32181   0.057   5.495   2.154  0.0181  0.1012 -0.7746
 9242SOL    HW132182   0.111   5.544   2.216  0.2453  0.3794 -1.1829
 9242SOL    HW232183   0.061   5.404   2.184  0.9376  0.0749 -0.9473
 9243SOL     OW32184   5.141   9.754   2.536 -0.0178  0.6328 -0.1359
 9243SOL    HW132185   5.059   9.804   2.538 -1.1980 -1.1972 -0.4893
 9243SOL    HW232186   5.129   9.691   2.465  2.4978  1.5503 -1.5064
 9244SOL     OW32187   4.787   2.585   1.988 -0.1472  0.4063 -0.0356
 9244SOL    HW132188   4.807   2.661   1.932 -0.4995  0.1584 -0.5035
 9244SOL    HW232189   4.732   2.530   1.934  0.1708 -0.2267  0.2794
 9245SOL     OW32190   2.742   9.890   6.130  0.4188 -0.1506  0.4797
 9245SOL    HW132191   2.822   9.933   6.161  0.2901  0.6050 -0.2065
 9245SOL    HW232192   2.674   9.957   6.137 -0.3241 -0.9878  1.6854
 9246SOL     OW32193   6.946   9.816  10.131 -1.0478 -0.1782  0.4834
 9246SOL    HW132194   7.001   9.741  10.107  1.4215  1.9685 -1.1527
 9246SOL    HW232195   6.914   9.850  10.048 -1.3313  1.1298  1.1082
 9247SOL     OW32196   0.414   0.431   5.207 -0.2968  0.0386 -0.3976
 9247SOL    HW132197   0.466   0.387   5.275 -0.6398 -2.1582 -1.4693
 9247SOL    HW232198   0.478   0.479   5.155  0.4629 -1.2274 -0.6654
 9248SOL     OW32199   9.341   3.182   3.183  0.2409 -0.2227  0.2424
 9248SOL    HW132200   9.436   3.172   3.190  0.0597 -1.9846  0.9005
 9248SOL    HW232201   9.327   3.235   3.105  1.7881  0.8645  0.6760
 9249SOL     OW32202  11.002  10.407   7.814  0.9002  0.2642 -0.3185
 9249SOL    HW132203  10.990  10.392   7.908  0.5731 -2.0228 -0.6672
 9249SOL    HW232204  10.916  10.437   7.783  0.7443  0.1058 -0.0406
 9250SOL     OW32205   9.257   7.856   2.649 -0.0834 -0.2413 -0.2607
 9250SOL    HW132206   9.272   7.766   2.620 -2.1302 -0.5383 -0.5904
 9250SOL    HW232207   9.217   7.848   2.736  0.8498  0.4184  0.2498
 9251SOL     OW32208   3.913   2.434   3.268 -0.0367 -0.2853  0.0189
 9251SOL    HW132209   3.908   2.342   3.245  0.8521 -0.8214  1.8240
 9251SOL    HW232210   3.886   2.480   3.188 -1.3130 -2.0942 -0.6614
 9252SOL     OW32211   9.943   1.348   7.116  0.2986 -0.3078 -0.2034
 9252SOL    HW132212   9.849   1.336   7.106 -0.1578  2.3445  0.0859
 9252SOL    HW232213   9.981   1.263   7.092 -1.9769 -0.7077 -2.9676
 9253SOL     OW32214   0.995   2.448   2.430  0.2113 -0.1868  0.5368
 9253SOL    HW132215   0.908   2.419   2.458 -0.9184  1.2758 -1.1770
 9253SOL    HW232216   0.996   2.542   2.450  0.9751  0.0272 -0.4134
 9254SOL     OW32217   0.203   1.187   0.463 -0.0907 -0.0791  0.2093
 9254SOL    HW132218   0.234   1.184   0.554  0.2175 -0.6939  0.0888
 9254SOL    HW232219   0.114   1.222   0.469 -0.2506 -0.5636  0.8017
 9255SOL     OW32220   3.625   8.743   6.685 -0.0393  0.8528 -0.3353
 9255SOL    HW132221   3.718   8.749   6.662  0.4060 -0.8974  0.8074
 9255SOL    HW232222   3.623   8.760   6.779 -0.2496 -2.9932  0.5174
 9256SOL     OW32223  10.973   5.302   9.432  0.8421  0.2962  0.3161
 9256SOL    HW132224  10.895   5.296   9.376  0.4973 -0.3760  0.8598
 9256SOL    HW232225  10.957   5.239   9.502  0.8260  1.7831  1.7240
 9257SOL     OW32226   1.787  10.847   7.161 -0.3832 -0.5034 -0.4924
 9257SOL    HW132227   1.876  10.867   7.133  0.5284 -0.8109  1.9297
 9257SOL    HW232228   1.796  10.772   7.220 -2.2553 -0.6332 -0.2977
 9258SOL     OW32229   4.761   9.986  10.727  0.0071 -0.5386  0.2032
 9258SOL    HW132230   4.794  10.005  10.639  1.3636 -0.6341  0.6721
 9258SOL    HW232231   4.738  10.072  10.763  3.3666  0.0638  1.2350
 9259SOL     OW32232   5.110   0.522   9.398  0.4869  0.7246 -0.4336
 9259SOL    HW132233   5.184   0.476   9.439 -0.3276  1.1502  1.6052
 9259SOL    HW232234   5.081   0.585   9.464 -3.0181 -0.8122 -0.2749
 9260SOL     OW32235   2.984   3.121   0.493  0.1680 -0.1812  0.4531
 9260SOL    HW132236   3.049   3.141   0.425 -1.2641 -0.7472 -1.1495
 9260SOL    HW232237   2.993   3.027   0.508  0.4905 -0.0556  1.1000
 9261SOL     OW32238  10.817  10.579   1.205  0.0575 -0.1465  0.4071
 9261SOL    HW132239  10.731  10.545   1.226 -0.5125  0.0644 -1.4022
 9261SOL    HW232240  10.864  10.505   1.168  0.6030 -0.2049  1.1833
 9262SOL     OW32241   6.230   7.065   0.411  0.2623 -0.2967  0.4220
 9262SOL    HW132242   6.158   7.046   0.471 -1.2144 -1.1137 -1.5165
 9262SOL    HW232243   6.302   7.091   0.468 -2.0810  2.5611  2.4382
 9263SOL     OW32244   7.898   2.060   4.053 -0.0344  0.9257  0.1166
 9263SOL    HW132245   7.885   1.990   3.989 -0.8076  1.6540 -0.5596
 9263SOL    HW232246   7.870   2.140   4.007  2.6995  2.0109  0.1483
 9264SOL     OW32247   8.106   9.936   1.229  0.2423 -0.4109  0.1809
 9264SOL    HW132248   8.128   9.905   1.317  1.1045 -0.5224 -0.0603
 9264SOL    HW232249   8.015   9.962   1.235  0.9882  2.1685  1.8271
 9265SOL     OW32250  10.793   7.072   3.368  0.2105  0.2726  0.2545
 9265SOL    HW132251  10.789   7.082   3.273 -1.6482 -0.6160  0.1867
 9265SOL    HW232252  10.736   7.141   3.402  0.8723  0.5919  0.7461
 9266SOL     OW32253   0.891  10.607   1.486  0.2398 -0.9993  0.6001
 9266SOL    HW132254   0.910  10.536   1.425 -0.8544  0.0618 -1.0366
 9266SOL    HW232255   0.797  10.620   1.479 -0.0293 -1.2017  2.9648
 9267SOL     OW32256   2.729   1.582   6.953 -0.2057 -0.0159 -0.0049
 9267SOL    HW132257   2.796   1.520   6.924 -1.4078 -1.3543 -0.0444
 9267SOL    HW232258   2.769   1.628   7.027  1.7510  1.1963 -1.7075
 9268SOL     OW32259   2.713   1.512   2.370 -0.0430 -0.6287  0.8968
 9268SOL    HW132260   2.669   1.588   2.407  0.4236 -0.6761  1.5799
 9268SOL    HW232261   2.645   1.465   2.322 -0.0937  0.7871 -0.4724
 9269SOL     OW32262   6.294   4.897   0.816  0.1723 -0.0683  0.3701
 9269SOL    HW132263   6.230   4.902   0.745 -0.9792 -1.6567  1.2366
 9269SOL    HW232264   6.246   4.923   0.894  1.3542  1.3939  0.6426
 9270SOL     OW32265   9.912   4.019   4.367  0.2177 -0.2136  0.0659
 9270SOL    HW132266   9.859   3.992   4.293 -0.2237 -2.8539  1.2178
 9270SOL    HW232267   9.913   3.943   4.425 -2.3858  2.6427  4.5352
 9271SOL     OW32268   6.288   4.622   0.812  0.1513 -0.7107 -0.4997
 9271SOL    HW132269   6.273   4.571   0.892  0.1934  0.2663  0.1531
 9271SOL    HW232270   6.303   4.711   0.844  1.9184 -0.6243 -1.4863
 9272SOL     OW32271   5.780  10.516   5.681 -0.3369  0.1860 -0.2131
 9272SOL    HW132272   5.684  10.522   5.680 -0.3326  1.5044  1.4784
 9272SOL    HW232273   5.799  10.429   5.647 -2.0268  0.5487 -2.3102
 9273SOL     OW32274   4.548   3.966   6.534  0.1592  0.1291 -0.1120
 9273SOL    HW132275   4.581   3.908   6.465 -1.0250 -0.6906 -0.0240
 9273SOL    HW232276   4.453   3.970   6.518 -0.2058 -0.4222  1.7117
 9274SOL     OW32277   6.306   9.874  10.541 -0.4027  0.3543  0.0136
 9274SOL    HW132278   6.370   9.804  10.553 -0.4564  0.0213 -1.4934
 9274SOL    HW232279   6.343   9.929  10.473 -0.2868  1.9310  1.2837
 9275SOL     OW32280   2.249   7.978   6.350  0.4822  0.0858 -0.2265
 9275SOL    HW132281   2.328   8.019   6.386 -0.0743  1.9260 -1.0074
 9275SOL    HW232282   2.246   7.892   6.392  1.6137  0.8809  1.6083
 9276SOL     OW32283   2.214   8.169   1.119 -0.3347 -0.3560  0.8825
 9276SOL    HW132284   2.297   8.208   1.092  0.0998 -1.1271  1.0743
 9276SOL    HW232285   2.230   8.075   1.118 -1.0722 -0.4971  1.3590
 9277SOL     OW32286   1.667   8.181   2.241  0.1831  0.1693 -0.2726
 9277SOL    HW132287   1.726   8.142   2.176  1.9045 -0.5780  1.6461
 9277SOL    HW232288   1.619   8.106   2.277 -0.4789  0.5313 -0.3928
 9278SOL     OW32289   9.540  10.494   6.639  0.0838 -0.0733  0.5508
 9278SOL    HW132290   9.557  10.518   6.548 -3.0539  0.3087 -0.0494
 9278SOL    HW232291   9.523  10.577   6.684 -0.1141 -0.3785  1.0536
 9279SOL     OW32292   5.261   0.684   5.869  0.4038 -0.0391 -0.1059
 9279SOL    HW132293   5.203   0.689   5.793  0.9547  0.4178 -0.5006
 9279SOL    HW232294   5.258   0.591   5.894  0.6265 -0.3026 -1.0084
 9280SOL     OW32295   5.721   4.273   4.895  0.2141  0.0592  0.0143
 9280SOL    HW132296   5.781   4.233   4.958  0.1431  1.3199  0.9154
 9280SOL    HW232297   5.637   4.230   4.911  0.1953  0.3813  0.8105
 9281SOL     OW32298   9.484   6.693   2.850 -0.6961  0.5613 -0.2915
 9281SOL    HW132299   9.465   6.733   2.765 -1.2929 -1.0789 -0.9545
 9281SOL    HW232300   9.519   6.607   2.829 -1.0244  0.0632  1.1366
 9282SOL     OW32301   5.186   7.411   7.032  0.0514 -0.4565  0.4376
 9282SOL    HW132302   5.162   7.492   7.077  0.5114  0.3662 -0.7591
 9282SOL    HW232303   5.238   7.363   7.096 -1.0798 -0.2897  1.5277
 9283SOL     OW32304  10.290   0.037   7.109  0.2435 -0.2768  0.4451
 9283SOL    HW132305  10.230   0.106   7.078 -0.5794 -0.6351  1.1857
 9283SOL    HW232306  10.273   0.033   7.203 -0.3384 -2.0708  0.2941
 9284SOL     OW32307   7.793   7.192   8.098  0.2842 -0.0491  0.1527
 9284SOL    HW132308   7.729   7.256   8.131  0.2594  0.6870 -1.2520
 9284SOL    HW232309   7.813   7.222   8.009  2.1619 -0.5855  0.3528
 9285SOL     OW32310  10.173   2.111   0.347  0.1264 -0.4436  0.1470
 9285SOL    HW132311  10.125   2.180   0.394 -0.7014 -1.8247  1.3912
 9285SOL    HW232312  10.143   2.029   0.386  1.8507 -1.4858 -0.5900
 9286SOL     OW32313   0.114   2.267   2.499 -0.1610 -0.1462 -0.1974
 9286SOL    HW132314   0.154   2.190   2.539 -0.2575  0.0523  0.2894
 9286SOL    HW232315   0.183   2.303   2.442  0.2855  0.0679  0.4642
 9287SOL     OW32316   4.068   6.157   4.620  0.3784 -0.1806 -0.3945
 9287SOL    HW132317   4.054   6.063   4.618 -0.0639 -0.1098 -0.8865
 9287SOL    HW232318   4.069   6.179   4.714  0.8938 -0.7249 -0.2657
 9288SOL     OW32319   8.488  10.753   7.401 -0.1037  0.0071 -0.2626
 9288SOL    HW132320   8.413  10.702   7.370 -0.6350  1.3654 -1.2530
 9288SOL    HW232321   8.530  10.695   7.465 -1.7323 -0.9604  0.0012
 9289SOL     OW32322   3.938   5.931   6.332  0.1046  0.2113  0.4366
 9289SOL    HW132323   3.949   5.910   6.425  0.0894  0.7500  0.5616
 9289SOL    HW232324   3.844   5.947   6.322  0.0825 -0.0108  0.2942
 9290SOL     OW32325   7.207   8.137   0.498 -0.0207 -0.1025  0.4545
 9290SOL    HW132326   7.218   8.043   0.485  0.1029 -0.0443  0.1420
 9290SOL    HW232327   7.294   8.174   0.486 -0.2597  0.1777 -0.5106
 9291SOL     OW32328   5.038   8.241   7.681  0.0793 -0.8961 -0.2043
 9291SOL    HW132329   5.078   8.249   7.767  0.6232  0.8845 -0.5862
 9291SOL    HW232330   4.957   8.193   7.697 -0.0576 -0.1983  1.3871
 9292SOL     OW32331   8.389  10.957   2.452 -0.0423  0.1046 -0.6645
 9292SOL    HW132332   8.362  11.048   2.438  0.6915  0.3958 -0.2400
 9292SOL    HW232333   8.345  10.908   2.383 -0.0167  0.8632 -1.2319
 9293SOL     OW32334   2.376  11.031   5.657 -0.1593  0.4197  0.2916
 9293SOL    HW132335   2.384  11.063   5.747  2.1648 -0.0773  0.3198
 9293SOL    HW232336   2.308  11.086   5.619 -0.5513  1.2673  2.0727
 9294SOL     OW32337   7.067   2.780   6.588  0.3981  0.1917 -0.0357
 9294SOL    HW132338   7.099   2.843   6.653  0.3049 -0.5408  0.7411
 9294SOL    HW232339   7.144   2.758   6.536  0.4815  0.7733 -0.1556
 9295SOL     OW32340   0.946   0.024   4.771  0.1789 -0.0162  0.4658
 9295SOL    HW132341   0.948  -0.022   4.686 -0.9704  0.0500  0.3909
 9295SOL    HW232342   1.009   0.095   4.760 -1.9735  1.7541 -1.3850
 9296SOL     OW32343   5.203   4.165   5.931 -0.5420 -0.5098  0.3823
 9296SOL    HW132344   5.177   4.134   6.018  0.7429  0.9493  1.3626
 9296SOL    HW232345   5.293   4.134   5.921 -0.4275 -0.0449 -0.0884
 9297SOL     OW32346   6.331   4.999   4.207 -0.2101 -0.0061  0.1196
 9297SOL    HW132347   6.366   4.926   4.157  2.0931  1.3908 -0.4712
 9297SOL    HW232348   6.361   4.984   4.297  1.6778  0.9674 -0.3051
 9298SOL     OW32349   2.835   2.916   3.701 -0.3243  0.1118 -0.3457
 9298SOL    HW132350   2.741   2.898   3.699 -0.3244  0.1066 -0.3092
 9298SOL    HW232351   2.870   2.851   3.762 -0.0591 -0.9641 -1.5947
 9299SOL     OW32352   8.487   5.890   7.700 -0.1039  0.1842 -0.3728
 9299SOL    HW132353   8.566   5.851   7.662 -0.6697 -0.6772 -0.7094
 9299SOL    HW232354   8.518   5.943   7.773  0.7738 -0.1970 -0.4639
 9300SOL     OW32355   3.399   8.698   5.953 -0.3544 -0.2543 -0.1735
 9300SOL    HW132356   3.373   8.608   5.934 -1.5867  0.2213 -0.8351
 9300SOL    HW232357   3.371   8.747   5.876  3.2452  0.2298 -1.3506
 9301SOL     OW32358   5.908   7.192   0.769  0.4151 -0.2165 -0.1536
 9301SOL    HW132359   5.882   7.225   0.683  1.4847  0.5979 -0.1894
 9301SOL    HW232360   5.830   7.200   0.823  0.5532  2.3132 -0.2149
 9302SOL     OW32361   9.555   8.767   4.048  0.1226  0.5825  0.0635
 9302SOL    HW132362   9.508   8.693   4.088  0.0687 -1.3074 -3.1618
 9302SOL    HW232363   9.593   8.731   3.968  2.2779  3.4907 -0.3800
 9303SOL     OW32364   6.034   0.820   8.552  0.2986 -0.7580  0.1427
 9303SOL    HW132365   6.002   0.744   8.502 -2.0578 -1.4391  2.4231
 9303SOL    HW232366   6.082   0.781   8.625 -0.8163 -0.1010  1.2630
 9304SOL     OW32367   6.681   7.718   3.525 -0.1013  0.3462 -0.0931
 9304SOL    HW132368   6.741   7.731   3.451 -0.9044 -0.0585 -0.8433
 9304SOL    HW232369   6.623   7.795   3.522  2.1914  2.3788  2.5161
 9305SOL     OW32370   8.072   7.449   0.759  0.0125  0.1537  0.2158
 9305SOL    HW132371   8.051   7.395   0.683 -0.2772  2.1846 -1.2456
 9305SOL    HW232372   8.168   7.453   0.759  0.1191 -1.5031  1.2435
 9306SOL     OW32373   1.604  10.182   3.337 -0.1302  0.1449  0.5862
 9306SOL    HW132374   1.543  10.215   3.272 -0.4059 -0.7501  0.3786
 9306SOL    HW232375   1.559  10.195   3.421 -1.3558 -2.0003  0.3290
 9307SOL     OW32376   2.551   4.188   1.514 -0.3546  0.1601  0.4087
 9307SOL    HW132377   2.560   4.093   1.517 -1.0309 -0.1814 -3.1951
 9307SOL    HW232378   2.640   4.219   1.495 -0.5477 -0.0574 -0.9871
 9308SOL     OW32379   6.788   5.626   6.778 -0.1726  0.0091 -0.3177
 9308SOL    HW132380   6.738   5.562   6.729 -1.6872  0.7782  0.1379
 9308SOL    HW232381   6.838   5.575   6.842 -2.2474 -0.6824  0.8275
 9309SOL     OW32382  11.031   5.394  10.678 -0.2751  0.2353  0.2179
 9309SOL    HW132383  11.107   5.444  10.648  0.2850 -0.5568  0.2954
 9309SOL    HW232384  11.033   5.404  10.773  0.7601 -1.2006  0.3761
 9310SOL     OW32385   5.785   3.402   6.348 -0.4135  0.2301 -0.2792
 9310SOL    HW132386   5.806   3.426   6.258  1.1625  0.1239  0.0320
 9310SOL    HW232387   5.853   3.339   6.373 -1.9815 -1.3116  0.3382
 9311SOL     OW32388   6.643   0.848   6.299  0.1571  0.3005  0.2461
 9311SOL    HW132389   6.722   0.818   6.254 -0.7940 -1.0018 -0.6248
 9311SOL    HW232390   6.578   0.857   6.229 -1.1660 -1.0846  1.2500
 9312SOL     OW32391   6.599   4.111   2.849  0.4286 -0.0662 -0.5849
 9312SOL    HW132392   6.576   4.194   2.806 -0.3818 -0.4471 -0.9247
 9312SOL    HW232393   6.630   4.136   2.935 -0.1752  0.5771 -0.5434
 9313SOL     OW32394   8.948   6.944   2.437 -0.2265  0.3176  0.0481
 9313SOL    HW132395   8.894   6.866   2.455 -1.4742  0.7636 -1.6182
 9313SOL    HW232396   8.893   7.018   2.463  0.4903  0.7157  0.4755
 9314SOL     OW32397   6.965  10.311   5.744  0.2258  0.5560  0.2961
 9314SOL    HW132398   7.031  10.364   5.788  0.2396 -0.3820  1.4661
 9314SOL    HW232399   6.890  10.369   5.733  1.2678  1.7041 -1.2366
 9315SOL     OW32400   7.905   8.448   6.946 -0.8521  0.2650  1.1616
 9315SOL    HW132401   7.811   8.465   6.938 -1.0783 -0.5896  1.9247
 9315SOL    HW232402   7.945   8.504   6.879 -1.9808 -0.1186  0.1338
 9316SOL     OW32403   2.856   7.984   9.624  0.1057 -0.2727 -0.0356
 9316SOL    HW132404   2.848   8.077   9.643 -0.7154 -0.7023  1.9254
 9316SOL    HW232405   2.775   7.946   9.657  0.1015 -1.6158 -1.4598
 9317SOL     OW32406   2.906   7.984   0.012  0.3647  0.2405 -0.1551
 9317SOL    HW132407   2.942   7.943  -0.067  2.1905 -0.7360  1.1093
 9317SOL    HW232408   2.823   7.940   0.026 -0.2572  0.8036 -1.8014
 9318SOL     OW32409   6.152   0.427   9.608  0.1712  0.2758  0.6772
 9318SOL    HW132410   6.095   0.352   9.594 -0.0594  0.7294 -0.9922
 9318SOL    HW232411   6.223   0.416   9.546  0.5489  1.0434  0.9574
 9319SOL     OW32412   9.126   0.097  10.940 -0.2982  0.4078  0.6665
 9319SOL    HW132413   9.078   0.170  10.979 -1.7714  0.3691 -0.9035
 9319SOL    HW232414   9.061   0.054  10.883  1.2007 -0.6239 -0.3519
 9320SOL     OW32415   1.735   5.476   3.691 -0.3122 -0.1643 -0.0427
 9320SOL    HW132416   1.693   5.472   3.777  0.7570  0.1616  0.5157
 9320SOL    HW232417   1.730   5.386   3.658 -2.5101  0.0982 -0.5538
 9321SOL     OW32418  10.615   6.095   6.398  0.1171  0.1345  0.6355
 9321SOL    HW132419  10.652   6.167   6.348  2.5557 -2.1527 -1.1117
 9321SOL    HW232420  10.647   6.109   6.487  1.9846  0.3646 -0.0269
 9322SOL     OW32421   8.014   6.619   1.593 -0.4326 -0.0430  0.1929
 9322SOL    HW132422   8.042   6.680   1.662 -0.8850  0.2633  0.1045
 9322SOL    HW232423   8.074   6.636   1.521 -0.0133 -0.3020  0.4714
 9323SOL     OW32424   8.677   5.607   2.808 -0.7078  0.6525 -0.1439
 9323SOL    HW132425   8.669   5.673   2.877  2.5252  1.3067 -0.2316
 9323SOL    HW232426   8.741   5.545   2.841 -1.4677 -0.8214 -1.3221
 9324SOL     OW32427  11.051   4.716   8.575 -0.5116  0.0902 -0.7340
 9324SOL    HW132428  11.053   4.804   8.539  0.7129  0.4438  0.1402
 9324SOL    HW232429  10.973   4.714   8.630 -1.1215  0.2785 -1.5780
 9325SOL     OW32430   7.747  10.694   5.922 -0.0757  0.0812 -0.3644
 9325SOL    HW132431   7.664  10.694   5.874 -0.4909  0.1304  0.3439
 9325SOL    HW232432   7.744  10.774   5.974  0.2394 -0.1255 -0.0291
 9326SOL     OW32433   4.356   9.448   7.891 -0.0713 -0.0253  0.1048
 9326SOL    HW132434   4.354   9.486   7.803 -0.0565 -1.0512 -0.3501
 9326SOL    HW232435   4.357   9.524   7.949 -1.6489  0.6808 -0.7263
 9327SOL     OW32436   6.956   8.692   6.680 -0.3774 -0.0263  0.3818
 9327SOL    HW132437   6.924   8.610   6.641  1.3215 -0.2080 -0.7391
 9327SOL    HW232438   6.966   8.751   6.605 -0.2083  0.7323  0.9964
 9328SOL     OW32439  10.260   4.376   4.559 -0.0693 -0.3269  0.0005
 9328SOL    HW132440  10.196   4.428   4.608  0.2164  1.6337 -1.5949
 9328SOL    HW232441  10.257   4.411   4.471  2.8964 -0.4585 -0.2435
 9329SOL     OW32442   6.894   1.667   0.812 -0.2393 -0.1649 -0.7138
 9329SOL    HW132443   6.964   1.603   0.822  0.2863  0.5567  0.3782
 9329SOL    HW232444   6.890   1.682   0.717  1.4367  0.1597 -0.7719
 9330SOL     OW32445   1.189   2.811   5.150  0.3484  0.1781  0.6483
 9330SOL    HW132446   1.208   2.868   5.076  0.0469 -1.8801 -1.1324
 9330SOL    HW232447   1.275   2.786   5.184  0.5231  0.3341  0.3247
 9331SOL     OW32448   5.931   8.754   2.368  0.0428 -0.2988  0.7003
 9331SOL    HW132449   5.837   8.758   2.354  0.2318  1.2507 -0.4066
 9331SOL    HW232450   5.943   8.770   2.462 -0.8013 -1.1208  0.9597
 9332SOL     OW32451   2.275   9.015   1.031  0.5724  0.0121  0.3335
 9332SOL    HW132452   2.212   8.981   1.094  0.2357  0.7000  0.3734
 9332SOL    HW232453   2.252   8.973   0.948  0.4244 -0.1768  0.4718
 9333SOL     OW32454   1.124   8.545   7.182 -0.1561  0.6443 -0.3759
 9333SOL    HW132455   1.193   8.606   7.155 -0.2871  1.2095  0.5523
 9333SOL    HW232456   1.086   8.584   7.260  0.5388 -1.1929  0.9670
 9334SOL     OW32457   8.983   3.990   9.796  0.0538 -0.1180  0.0859
 9334SOL    HW132458   8.975   3.929   9.722  0.7355 -1.3733  1.0142
 9334SOL    HW232459   9.053   4.050   9.769 -0.4224  0.0958 -0.7192
 9335SOL     OW32460   9.613   4.752  10.280 -0.0025  0.4108  0.3667
 9335SOL    HW132461   9.640   4.660  10.275  0.8212  0.7104 -2.1404
 9335SOL    HW232462   9.527   4.749  10.322 -1.0778 -1.8138 -1.7399
 9336SOL     OW32463   5.343   4.346   4.458 -0.3883  0.2440  0.4100
 9336SOL    HW132464   5.343   4.250   4.456  0.7710  0.2338  0.1164
 9336SOL    HW232465   5.250   4.370   4.463 -0.8058 -0.8777 -1.1428
 9337SOL     OW32466  10.470   5.123   7.903  0.4356  0.3752  0.1590
 9337SOL    HW132467  10.479   5.112   7.808 -0.7900 -0.5494  0.1325
 9337SOL    HW232468  10.392   5.177   7.913 -0.3581 -0.8290  0.6723
 9338SOL     OW32469   0.790   4.264   9.478 -0.2885 -0.6413  0.0539
 9338SOL    HW132470   0.744   4.345   9.500 -1.7877 -0.9108 -1.8881
 9338SOL    HW232471   0.832   4.281   9.394  0.3986 -1.4946  0.2040
 9339SOL     OW32472   2.367  10.759   6.571 -0.0904  0.8957  0.8313
 9339SOL    HW132473   2.382  10.829   6.507  2.0929  0.9476  1.3183
 9339SOL    HW232474   2.308  10.798   6.636 -0.3408  1.6694  0.1598
 9340SOL     OW32475   9.280   0.837   5.306  0.1873  0.0381  0.2142
 9340SOL    HW132476   9.252   0.920   5.346 -0.4674  0.8430 -1.7902
 9340SOL    HW232477   9.254   0.845   5.215  1.2911 -1.8761 -0.3122
 9341SOL     OW32478   5.505   3.315   2.471  0.3357 -0.2043  0.1594
 9341SOL    HW132479   5.574   3.347   2.413  0.4990 -2.4299 -0.9607
 9341SOL    HW232480   5.432   3.294   2.413 -0.7092  0.5560  1.1560
 9342SOL     OW32481   2.074   7.524   3.733  0.2660 -0.1332  0.7276
 9342SOL    HW132482   2.014   7.517   3.659  1.1818 -0.4950  0.0106
 9342SOL    HW232483   2.017   7.546   3.808 -0.5706  1.1485 -0.2350
 9343SOL     OW32484   6.772   9.719  10.511  0.2243  0.0676 -0.0068
 9343SOL    HW132485   6.741   9.809  10.517 -1.4307 -0.5220  0.7114
 9343SOL    HW232486   6.726   9.673  10.581  0.0445 -1.6095 -1.1738
 9344SOL     OW32487   3.494   7.929  10.874  0.1980 -0.4878 -0.2167
 9344SOL    HW132488   3.454   8.013  10.897 -0.4114 -0.9409  0.4430
 9344SOL    HW232489   3.583   7.951  10.847 -0.2722  0.4835 -1.0951
 9345SOL     OW32490   9.515   8.009   5.338  0.6427  0.1638  0.0909
 9345SOL    HW132491   9.555   8.021   5.424  0.0972  0.8936  0.2501
 9345SOL    HW232492   9.565   7.938   5.298  1.3917  0.3331  0.7085
 9346SOL     OW32493   5.355   1.385   3.774 -0.4189  0.2662  0.1669
 9346SOL    HW132494   5.412   1.417   3.845 -0.4191 -1.3642  0.9373
 9346SOL    HW232495   5.312   1.308   3.811 -2.5791  1.0145 -0.6652
 9347SOL     OW32496   5.703  10.216   5.772  0.0105 -0.2488  0.2101
 9347SOL    HW132497   5.721  10.135   5.725  0.0382  0.5456 -1.2079
 9347SOL    HW232498   5.647  10.190   5.845 -0.5936 -1.4337 -0.6451
 9348SOL     OW32499   4.837   0.144   7.874 -0.2923 -0.0847 -0.3527
 9348SOL    HW132500   4.878   0.133   7.960 -0.1147  0.0579 -0.4165
 9348SOL    HW232501   4.909   0.171   7.817 -0.5638  0.6544 -0.3564
 9349SOL     OW32502   2.061   2.114  10.937 -0.3677  0.2054 -0.1345
 9349SOL    HW132503   1.977   2.078  10.965  0.5559 -1.0876  1.1138
 9349SOL    HW232504   2.123   2.042  10.948  1.2796  1.7201  0.9583
 9350SOL     OW32505   9.705   8.492   8.725  0.2361  0.1578  0.1503
 9350SOL    HW132506   9.623   8.469   8.771 -0.2323  1.3865 -0.0222
 9350SOL    HW232507   9.766   8.514   8.795 -0.0043  0.5523  0.2372
 9351SOL     OW32508   8.324   2.049   8.736 -0.7303  0.6186 -0.0606
 9351SOL    HW132509   8.316   1.986   8.664 -0.8210 -0.6386  1.0182
 9351SOL    HW232510   8.238   2.091   8.742 -0.7380  0.6938 -0.6337
 9352SOL     OW32511   8.402   8.558  11.051  0.1075  0.4003  1.0126
 9352SOL    HW132512   8.392   8.644  11.009 -0.6136 -0.2737 -0.2268
 9352SOL    HW232513   8.331   8.506  11.016 -1.6453  0.2710  4.3915
 9353SOL     OW32514   8.406  10.559   1.732 -0.5119 -0.6749  0.4271
 9353SOL    HW132515   8.369  10.530   1.815 -1.9676 -1.9390 -0.6049
 9353SOL    HW232516   8.334  10.602   1.687  0.0815 -0.5572 -0.4328
 9354SOL     OW32517   5.606   1.688   3.161  0.1606 -0.2742  0.2121
 9354SOL    HW132518   5.550   1.729   3.227  0.8778  0.8369  0.1531
 9354SOL    HW232519   5.656   1.622   3.209  0.2347  0.1039  0.6611
 9355SOL     OW32520   3.900   3.539   2.176  0.2462  0.1275 -0.2922
 9355SOL    HW132521   3.819   3.491   2.165  0.8996 -0.6735 -1.8472
 9355SOL    HW232522   3.885   3.623   2.131 -0.8470  1.4524  2.3101
 9356SOL     OW32523   2.005   1.128  10.828 -0.2641 -0.2041  0.3329
 9356SOL    HW132524   1.960   1.206  10.860  0.1737  0.2130 -0.0485
 9356SOL    HW232525   2.086   1.162  10.790 -1.9476 -0.2906 -3.8648
 9357SOL     OW32526   6.953   4.127   4.282 -0.1700 -0.0525 -0.3920
 9357SOL    HW132527   7.038   4.108   4.321  0.3582 -0.9293 -1.8894
 9357SOL    HW232528   6.893   4.063   4.321  0.3504 -0.9350 -1.0154
 9358SOL     OW32529   0.973   4.021   5.739  0.2735 -0.0748  0.6895
 9358SOL    HW132530   1.026   4.097   5.716  1.8165 -1.8656 -2.2682
 9358SOL    HW232531   0.913   4.010   5.665 -0.4332 -1.3163  1.4026
 9359SOL     OW32532   7.056   9.430   6.826 -0.7684 -0.8788 -0.0611
 9359SOL    HW132533   7.085   9.342   6.851  2.2578  0.2194  0.6599
 9359SOL    HW232534   7.098   9.488   6.889 -1.5324  1.2008 -1.3810
 9360SOL     OW32535   5.614   2.098   9.235  0.3636 -0.5429 -0.5132
 9360SOL    HW132536   5.694   2.085   9.184  0.1074  0.3297 -1.1623
 9360SOL    HW232537   5.631   2.176   9.288 -0.0110 -0.4229 -0.5643
 9361SOL     OW32538   4.399   1.324   8.455 -0.3058 -0.6309  0.3964
 9361SOL    HW132539   4.435   1.373   8.529 -0.5671 -0.4709  0.4153
 9361SOL    HW232540   4.471   1.322   8.391 -0.9308  1.5182 -0.4532
 9362SOL     OW32541  10.395   1.310   9.521 -0.0306 -0.1925  0.1180
 9362SOL    HW132542  10.427   1.240   9.465  0.8893  0.5760 -0.3516
 9362SOL    HW232543  10.419   1.390   9.475 -1.2693  0.4400  0.5269
 9363SOL     OW32544   4.400   8.881   3.356 -0.4589  0.4757  0.0833
 9363SOL    HW132545   4.440   8.837   3.432 -1.0104 -0.1710  0.0102
 9363SOL    HW232546   4.469   8.938   3.323  0.6514 -1.0999 -0.4431
 9364SOL     OW32547   1.853   9.257   7.181  0.4264  0.2779  0.0637
 9364SOL    HW132548   1.766   9.236   7.215  0.7691  1.7363  2.0191
 9364SOL    HW232549   1.913   9.202   7.230  0.7743  0.8530  0.2889
 9365SOL     OW32550   9.313   8.967   1.492 -0.2331 -0.4146  0.3820
 9365SOL    HW132551   9.400   8.935   1.517  0.1800  1.1221  1.0357
 9365SOL    HW232552   9.310   8.956   1.397  0.4490 -1.0078  0.4172
 9366SOL     OW32553   9.870   7.757   1.428  0.4969 -0.5801  0.4305
 9366SOL    HW132554   9.899   7.666   1.422  2.5756  0.0445  0.2153
 9366SOL    HW232555   9.935   7.806   1.377  0.2269  1.1667  1.6796
 9367SOL     OW32556   3.543   4.339   5.238 -0.1538  0.2096  0.0370
 9367SOL    HW132557   3.621   4.318   5.187 -0.7620 -0.5218 -0.6334
 9367SOL    HW232558   3.475   4.355   5.172 -0.4274  1.4335  0.6022
 9368SOL     OW32559   0.143   1.055   5.680 -0.5165 -0.5926  0.2846
 9368SOL    HW132560   0.137   1.024   5.590 -0.5216 -0.3489  0.2008
 9368SOL    HW232561   0.166   0.978   5.731 -1.7071 -0.9952  0.2490
 9369SOL     OW32562   2.887   5.873   7.164 -0.1489  0.6835 -0.8637
 9369SOL    HW132563   2.980   5.887   7.187  0.0659  1.3227 -2.0349
 9369SOL    HW232564   2.858   5.805   7.224  0.3783  2.2423  1.2807
 9370SOL     OW32565  10.727   4.676  10.088  0.8326  0.6869  0.0516
 9370SOL    HW132566  10.810   4.715  10.063  0.9365  1.6194  1.6907
 9370SOL    HW232567  10.663   4.748  10.080  0.4989  0.4285  0.3393
 9371SOL     OW32568   8.177  10.218   3.351 -0.1215 -0.1472 -0.4186
 9371SOL    HW132569   8.179  10.313   3.352 -1.0544 -0.0997 -1.1558
 9371SOL    HW232570   8.197  10.192   3.441 -0.8650  0.7683  0.0232
 9372SOL     OW32571   7.320   5.068   7.682  0.8527 -0.2032 -1.2553
 9372SOL    HW132572   7.393   5.023   7.639 -0.2013 -0.9100 -2.3492
 9372SOL    HW232573   7.287   5.006   7.746  2.9330  1.1307  1.3461
 9373SOL     OW32574   4.785   1.828   7.234  0.0688  0.0552  0.0237
 9373SOL    HW132575   4.802   1.916   7.200 -0.6074  0.2948  0.3011
 9373SOL    HW232576   4.846   1.819   7.307  0.8034 -0.0715 -0.5911
 9374SOL     OW32577   6.362   9.794   4.043 -0.6640  0.0616 -0.3151
 9374SOL    HW132578   6.397   9.718   3.996 -0.3050  0.5139 -0.8076
 9374SOL    HW232579   6.271   9.772   4.062  0.1608 -1.6386  2.0437
 9375SOL     OW32580   3.419   3.206   9.040 -0.2061 -0.3186  0.1531
 9375SOL    HW132581   3.373   3.182   8.960  0.1515 -2.5418  0.5519
 9375SOL    HW232582   3.401   3.135   9.101  0.9280  0.4649  1.4755
 9376SOL     OW32583   1.633   5.079   6.820 -0.0194  0.0884 -0.1629
 9376SOL    HW132584   1.713   5.058   6.867  0.8774  1.2502 -1.1271
 9376SOL    HW232585   1.648   5.048   6.731 -1.6859 -2.0566  0.1866
 9377SOL     OW32586   8.870   0.568   3.852 -0.3035 -0.2377 -0.0409
 9377SOL    HW132587   8.807   0.507   3.813 -1.4866  0.5838  0.5342
 9377SOL    HW232588   8.817   0.640   3.885  0.8387 -0.0026  1.3972
 9378SOL     OW32589   6.339   0.227   5.707  0.3307  0.1181  0.6309
 9378SOL    HW132590   6.328   0.162   5.776  0.5068 -1.0444 -0.4171
 9378SOL    HW232591   6.399   0.187   5.644  1.3968  1.7625  0.5220
 9379SOL     OW32592  10.518   4.443   0.272 -0.0946  0.0735  0.5293
 9379SOL    HW132593  10.481   4.483   0.350 -2.5011  0.3860 -0.6627
 9379SOL    HW232594  10.483   4.354   0.271  2.3104 -0.9679  1.2706
 9380SOL     OW32595   5.893   8.384   0.833 -0.7037  0.8032  0.5121
 9380SOL    HW132596   5.886   8.353   0.742  0.7518  1.3434  0.1946
 9380SOL    HW232597   5.907   8.478   0.825  0.8624  0.6605  1.2140
 9381SOL     OW32598   1.461   1.538   6.654  0.0012  0.5692  0.1833
 9381SOL    HW132599   1.401   1.579   6.716  0.7605  0.5464  0.9658
 9381SOL    HW232600   1.456   1.591   6.575 -1.3605  0.3144  0.0723
 9382SOL     OW32601  10.500  10.384   1.924 -0.1404  0.2294 -0.3362
 9382SOL    HW132602  10.447  10.354   1.850  0.3661  0.8473 -0.9607
 9382SOL    HW232603  10.439  10.386   1.998 -0.2451 -2.1105 -0.2916
 9383SOL     OW32604   0.016  10.435   1.780 -0.0529 -0.5443 -0.8496
 9383SOL    HW132605   0.091  10.466   1.729  1.9611 -2.4706  0.7021
 9383SOL    HW232606   0.055  10.382   1.850 -2.7217  0.4145  1.6030
 9384SOL     OW32607   4.850   2.556   0.707 -0.2737 -0.0247  0.2048
 9384SOL    HW132608   4.921   2.540   0.770 -0.0138 -1.5570 -0.4262
 9384SOL    HW232609   4.845   2.651   0.700  1.7436  0.1267  0.2445
 9385SOL     OW32610  10.442   3.814   5.749 -0.5643  0.2123  0.5092
 9385SOL    HW132611  10.391   3.748   5.795  0.7956  0.4113  2.4266
 9385SOL    HW232612  10.394   3.896   5.762 -2.7406 -0.3946 -2.6382
 9386SOL     OW32613   9.360  10.408   6.428 -0.0899 -0.5534 -0.4784
 9386SOL    HW132614   9.276  10.395   6.383 -0.3682  1.1388 -0.4997
 9386SOL    HW232615   9.338  10.451   6.510  0.8019  0.8155 -0.9091
 9387SOL     OW32616   7.057   7.515   2.188 -0.2722 -0.3534 -0.0306
 9387SOL    HW132617   7.083   7.583   2.127 -3.1355  1.7120  0.8317
 9387SOL    HW232618   6.969   7.489   2.160  0.5880 -3.6519 -0.1778
 9388SOL     OW32619   1.863   5.533   4.026  0.0473  0.1216  0.0140
 9388SOL    HW132620   1.775   5.500   4.008 -0.2333  0.2433  1.0811
 9388SOL    HW232621   1.922   5.467   3.987 -0.4278  1.4785 -3.3598
 9389SOL     OW32622   9.310   7.268   5.370  0.0449  0.7747 -0.4559
 9389SOL    HW132623   9.237   7.285   5.430 -1.5794  0.2949 -2.1949
 9389SOL    HW232624   9.279   7.299   5.285  2.1149  1.0511 -1.1595
 9390SOL     OW32625   8.832   4.926   7.446  0.2542  0.4113 -0.4017
 9390SOL    HW132626   8.831   4.999   7.383  2.7110  0.6270 -0.2928
 9390SOL    HW232627   8.907   4.872   7.418  0.3473 -0.4138  1.3371
 9391SOL     OW32628   8.443   7.801   7.446  0.0683  0.3365  0.4794
 9391SOL    HW132629   8.441   7.819   7.351  0.2408  0.5516  0.5141
 9391SOL    HW232630   8.384   7.866   7.484 -1.0282 -0.5906  0.3977
 9392SOL     OW32631   9.274   9.931   7.940 -0.4387  0.2308 -0.2683
 9392SOL    HW132632   9.228   9.884   8.009  0.3458  0.4985  0.4465
 9392SOL    HW232633   9.246  10.022   7.950  0.3930  0.4326  0.3066
 9393SOL     OW32634   1.308   0.603   2.476 -0.7616  0.2276 -0.2291
 9393SOL    HW132635   1.253   0.584   2.553  0.4984 -0.7812  0.4600
 9393SOL    HW232636   1.375   0.535   2.477  1.4379  2.2711 -0.1505
 9394SOL     OW32637   5.573  10.193  10.899  0.6810 -0.1632  0.5964
 9394SOL    HW132638   5.504  10.232  10.847  1.7136  1.2596  0.2269
 9394SOL    HW232639   5.537  10.110  10.929 -1.1212  0.4788  0.3201
 9395SOL     OW32640   9.676  10.192   2.478  0.3802 -0.1603  0.3376
 9395SOL    HW132641   9.688  10.136   2.402  1.5898 -1.3756  1.3682
 9395SOL    HW232642   9.609  10.149   2.530 -1.1019  1.1364 -0.4126
 9396SOL     OW32643   2.002  10.610   9.440 -0.0162 -0.0878 -0.0496
 9396SOL    HW132644   1.952  10.674   9.388  0.6760  2.1351  1.8815
 9396SOL    HW232645   1.935  10.558   9.484 -0.6671  1.2951  0.6582
 9397SOL     OW32646   7.780   9.260   3.822 -0.0903 -0.2360 -0.0771
 9397SOL    HW132647   7.712   9.196   3.843  0.5701 -1.1160 -0.5816
 9397SOL    HW232648   7.735   9.327   3.771 -0.5821 -0.8022 -0.3967
 9398SOL     OW32649   8.237  10.615   2.403  0.5269  0.3724 -0.2252
 9398SOL    HW132650   8.201  10.632   2.490 -0.1572 -1.1027 -0.1964
 9398SOL    HW232651   8.231  10.700   2.358 -2.0333  0.4811  0.1555
 9399SOL     OW32652   8.328   0.947   1.072 -0.8410 -0.7307  0.2964
 9399SOL    HW132653   8.236   0.970   1.057 -0.9939 -0.2081  1.8480
 9399SOL    HW232654   8.333   0.927   1.165  0.3415 -2.1840 -0.0388
 9400SOL     OW32655  10.410   2.083   0.206 -0.1678 -0.2677  0.4581
 9400SOL    HW132656  10.396   2.031   0.127  1.3944 -0.5890  0.3772
 9400SOL    HW232657  10.324   2.086   0.248 -0.8703 -0.6602 -0.9009
 9401SOL     OW32658   5.125  10.831  10.775  0.0024 -0.2977  0.0479
 9401SOL    HW132659   5.211  10.798  10.803 -0.6019 -0.4767  1.8122
 9401SOL    HW232660   5.103  10.898  10.841 -1.3624 -0.5071 -0.1739
 9402SOL     OW32661   9.973   2.181   2.680 -0.6632  0.1297  0.2184
 9402SOL    HW132662   9.965   2.158   2.773 -2.4579 -3.1017 -0.6087
 9402SOL    HW232663   9.883   2.184   2.648 -0.0951 -3.9527 -2.4053
 9403SOL     OW32664   2.116   3.463   4.090  0.2714 -0.0806  0.5048
 9403SOL    HW132665   2.160   3.420   4.017  0.7663 -0.7006  1.1465
 9403SOL    HW232666   2.039   3.409   4.107  0.2665 -0.0534  0.5704
 9404SOL     OW32667   2.423   6.543   3.661  0.0604  0.1900  0.2568
 9404SOL    HW132668   2.397   6.613   3.721  0.4096  2.0582 -1.6414
 9404SOL    HW232669   2.502   6.577   3.618 -1.6513  0.2740 -3.2184
 9405SOL     OW32670   3.266   5.048   2.093 -0.3102 -0.5075  0.1711
 9405SOL    HW132671   3.292   4.985   2.026 -2.0498 -0.2335 -0.8338
 9405SOL    HW232672   3.347   5.091   2.119  0.6755 -2.0295 -0.2825
 9406SOL     OW32673   9.366   1.014   4.830  0.3302 -0.0590  0.3782
 9406SOL    HW132674   9.443   1.038   4.882  0.9099  0.3560 -0.6314
 9406SOL    HW232675   9.319   1.097   4.817 -1.4199 -0.5984  2.6731
 9407SOL     OW32676   5.982   1.219   3.686 -0.2287  0.0216  0.8393
 9407SOL    HW132677   6.037   1.275   3.742 -0.2798  1.5990 -0.6146
 9407SOL    HW232678   5.902   1.270   3.672 -0.4797 -0.6218 -0.1485
 9408SOL     OW32679   6.920  10.923   8.777  0.5803  0.1938  0.5819
 9408SOL    HW132680   6.998  10.870   8.766  0.4988  0.4034 -1.4641
 9408SOL    HW232681   6.854  10.880   8.722  0.3119  1.9652 -0.5759
 9409SOL     OW32682   7.934   0.539   4.185 -0.1525  0.7735  0.2168
 9409SOL    HW132683   8.003   0.485   4.146  0.2979 -2.1544  4.4003
 9409SOL    HW232684   7.977   0.622   4.205  0.1406  1.5951 -3.1223
 9410SOL     OW32685   6.455   8.044   3.740  0.1115 -0.4335  0.4109
 9410SOL    HW132686   6.434   8.000   3.657  1.2209 -0.9222  0.3727
 9410SOL    HW232687   6.520   8.110   3.716  0.3362 -0.4839  0.8645
 9411SOL     OW32688   9.361   4.383   3.743 -0.0103  0.2516  0.2905
 9411SOL    HW132689   9.376   4.342   3.828  0.7929  1.2768  0.6633
 9411SOL    HW232690   9.447   4.382   3.700  0.1594  1.8903  0.4987
 9412SOL     OW32691   9.039   3.303   5.487  0.3584 -0.0554 -0.4881
 9412SOL    HW132692   9.013   3.276   5.575 -4.1167  1.5669 -1.0848
 9412SOL    HW232693   9.081   3.388   5.500 -1.6757  0.9152  0.0450
 9413SOL     OW32694   1.678   3.596   4.521  0.1297 -0.4454 -0.3849
 9413SOL    HW132695   1.687   3.590   4.426  3.5467  1.9628 -0.4240
 9413SOL    HW232696   1.636   3.681   4.536  1.8869  0.3713  0.1862
 9414SOL     OW32697   4.282   5.749   3.316 -0.1769 -0.3901 -0.1406
 9414SOL    HW132698   4.374   5.766   3.298 -0.6387  0.6881 -1.7280
 9414SOL    HW232699   4.255   5.820   3.375 -0.5355  0.7719 -1.6253
 9415SOL     OW32700   0.590   5.619   5.208  0.0562 -0.4443 -0.0404
 9415SOL    HW132701   0.662   5.572   5.249 -0.7194 -2.1345 -0.5410
 9415SOL    HW232702   0.583   5.582   5.120 -0.0515  1.2275 -0.7790
 9416SOL     OW32703   7.094   0.248   1.518  0.0220 -0.1420 -0.7440
 9416SOL    HW132704   7.080   0.327   1.466 -0.5194 -0.5128 -1.1681
 9416SOL    HW232705   7.166   0.271   1.577 -0.3362  0.7651 -0.6481
 9417SOL     OW32706   2.108  10.760   3.239  0.0093 -0.1384 -0.2933
 9417SOL    HW132707   2.035  10.821   3.253  0.3931  0.1857  0.3554
 9417SOL    HW232708   2.136  10.776   3.149  1.3926  2.0846  0.4777
 9418SOL     OW32709   6.970   5.687   7.439  0.3224 -0.4200  0.3612
 9418SOL    HW132710   6.941   5.684   7.530 -0.0171 -1.3368  0.2384
 9418SOL    HW232711   7.049   5.741   7.440 -0.2902  0.4849  1.0128
 9419SOL     OW32712   5.206   3.498   6.657  0.3054  0.4112  0.5203
 9419SOL    HW132713   5.298   3.508   6.681  0.4963 -0.5691  0.2534
 9419SOL    HW232714   5.200   3.534   6.568  0.1422  1.6671  1.0222
 9420SOL     OW32715   5.335   6.861   4.202 -0.7911  0.0408 -0.4684
 9420SOL    HW132716   5.299   6.811   4.128 -0.4668  0.3932 -0.8707
 9420SOL    HW232717   5.409   6.909   4.164 -0.0621 -0.4623  0.2780
 9421SOL     OW32718   5.258   4.556   6.432 -0.4564 -0.0177  0.0079
 9421SOL    HW132719   5.187   4.617   6.452  1.0906  1.6699  0.7168
 9421SOL    HW232720   5.321   4.609   6.383  0.3139 -1.4540 -0.5949
 9422SOL     OW32721   7.521   2.740  10.515 -0.4020  0.0750 -0.7504
 9422SOL    HW132722   7.567   2.824  10.510  2.0042 -1.2045 -1.8333
 9422SOL    HW232723   7.512   2.711  10.424  0.2029 -1.5220 -0.3416
 9423SOL     OW32724   5.067   0.486   6.839 -0.0832 -0.0563  0.2204
 9423SOL    HW132725   4.983   0.502   6.881 -0.9906 -3.0795 -0.2395
 9423SOL    HW232726   5.117   0.435   6.903 -0.0236 -1.4060 -0.8659
 9424SOL     OW32727   2.201   1.953   2.852 -0.5359 -0.0826 -0.4171
 9424SOL    HW132728   2.155   1.963   2.768  0.0628  1.4677 -0.5954
 9424SOL    HW232729   2.280   1.904   2.830 -1.0438 -0.8854 -0.4953
 9425SOL     OW32730   8.818   3.353   5.936  0.5563 -0.3496  0.0955
 9425SOL    HW132731   8.810   3.407   5.857 -0.2378 -0.0469  0.3671
 9425SOL    HW232732   8.801   3.413   6.008 -1.1393 -1.0741  0.3682
 9426SOL     OW32733   0.471   9.150   5.046 -0.0645  0.0834  0.1100
 9426SOL    HW132734   0.474   9.195   5.130 -0.3244 -0.0856  0.2117
 9426SOL    HW232735   0.420   9.209   4.990 -0.2247  0.0139  0.1824
 9427SOL     OW32736   4.772   7.234   0.313 -0.1010  0.0036  0.2065
 9427SOL    HW132737   4.724   7.203   0.390  1.3020 -0.2705  1.0103
 9427SOL    HW232738   4.704   7.262   0.252 -1.2625 -0.1554  1.3804
 9428SOL     OW32739   9.181   6.241   4.257  0.0118 -0.2819 -0.3459
 9428SOL    HW132740   9.094   6.244   4.298  0.5356  0.4919  0.7574
 9428SOL    HW232741   9.221   6.163   4.293 -0.8033 -1.6010 -2.1483
 9429SOL     OW32742   2.384   6.651   8.102 -0.1667  0.0543  0.2082
 9429SOL    HW132743   2.316   6.614   8.045 -1.4243  1.1391  0.9352
 9429SOL    HW232744   2.435   6.709   8.046  1.1006 -1.8136 -0.6736
 9430SOL     OW32745  10.892   5.347   0.518 -1.1461  0.4720  0.2354
 9430SOL    HW132746  10.836   5.410   0.472 -1.6103 -1.0288 -1.4024
 9430SOL    HW232747  10.979   5.360   0.480 -1.5203 -0.7345 -1.1375
 9431SOL     OW32748   9.820   5.240   9.799 -0.2013 -0.2925 -0.4665
 9431SOL    HW132749   9.740   5.226   9.849  1.0405 -1.2571  1.3580
 9431SOL    HW232750   9.796   5.216   9.709 -2.1676  0.2965 -0.1421
 9432SOL     OW32751   4.041   3.517   2.443  0.2030 -0.1627  0.9168
 9432SOL    HW132752   3.953   3.491   2.472  0.8133 -0.9193  2.1759
 9432SOL    HW232753   4.033   3.610   2.422 -1.4084 -0.6698 -1.1219
 9433SOL     OW32754   4.683   6.579   0.749  0.2777  0.4716 -0.2062
 9433SOL    HW132755   4.705   6.591   0.656 -1.8552 -1.5695 -1.0875
 9433SOL    HW232756   4.631   6.655   0.772  1.1136  1.1662 -0.5659
 9434SOL     OW32757   7.544   6.215   4.380 -0.3424  0.5126  0.4184
 9434SOL    HW132758   7.624   6.207   4.433 -0.4314  2.2686  0.8834
 9434SOL    HW232759   7.574   6.258   4.299 -0.5228 -0.4835 -0.1871
 9435SOL     OW32760   9.844   6.199   0.553  0.6634  0.3954  0.0477
 9435SOL    HW132761   9.927   6.226   0.513 -0.6664  1.4851 -2.1819
 9435SOL    HW232762   9.815   6.126   0.500  0.1205  0.1059  0.7319
 9436SOL     OW32763   9.148   1.547   6.406 -0.3667 -0.0055 -0.0276
 9436SOL    HW132764   9.130   1.560   6.499 -0.4860  0.9946 -0.1820
 9436SOL    HW232765   9.074   1.587   6.361 -0.2375 -0.3485 -0.5579
 9437SOL     OW32766   7.636  10.192   7.539  0.4741  0.8466  0.1727
 9437SOL    HW132767   7.719  10.153   7.511  0.4124 -0.2288  1.3794
 9437SOL    HW232768   7.601  10.129   7.603 -1.1676  1.3923 -0.1645
 9438SOL     OW32769   5.343  10.543   3.423 -0.2150 -1.0054  0.4033
 9438SOL    HW132770   5.374  10.453   3.436 -1.0241 -1.4306 -0.4627
 9438SOL    HW232771   5.314  10.572   3.509  1.1217 -1.1446  0.9240
 9439SOL     OW32772  10.737   6.907   9.700  0.1874  0.7196  0.4146
 9439SOL    HW132773  10.790   6.974   9.657 -1.3993  1.3427 -0.6507
 9439SOL    HW232774  10.797   6.834   9.715  0.7659  0.2413 -3.3127
 9440SOL     OW32775   7.823   0.989   7.501  0.0279  0.4219 -0.4097
 9440SOL    HW132776   7.732   1.014   7.515 -0.6519 -0.9970 -1.9255
 9440SOL    HW232777   7.836   0.912   7.557 -0.3605 -0.5909 -1.6546
 9441SOL     OW32778   8.163   7.420   5.051  0.3952  0.1694 -0.2947
 9441SOL    HW132779   8.130   7.504   5.081 -1.1462 -0.2761 -0.6389
 9441SOL    HW232780   8.175   7.368   5.130 -1.2767 -0.1805 -0.2496
 9442SOL     OW32781   5.266   2.093   2.131 -0.0421 -0.0662  0.5052
 9442SOL    HW132782   5.196   2.107   2.195 -0.8815  2.5660 -0.8335
 9442SOL    HW232783   5.246   2.008   2.092 -2.5269  0.5566  0.2168
 9443SOL     OW32784  10.694   4.654   7.689  0.0522 -0.6326 -0.3060
 9443SOL    HW132785  10.695   4.618   7.600  0.6602 -2.7820  0.5123
 9443SOL    HW232786  10.775   4.623   7.728  0.1180  0.8482  0.8169
 9444SOL     OW32787   1.292   6.429   7.074 -0.4457  0.4391  0.2711
 9444SOL    HW132788   1.252   6.503   7.029  0.6411  1.5088  0.9939
 9444SOL    HW232789   1.219   6.384   7.116 -1.2445  0.4886 -1.0199
 9445SOL     OW32790   8.407   6.518   1.483  0.1412  0.4679 -0.1403
 9445SOL    HW132791   8.434   6.439   1.530 -0.4655 -0.6747 -1.6447
 9445SOL    HW232792   8.321   6.497   1.448 -0.0004  1.7846 -0.6425
 9446SOL     OW32793   4.772   6.168   4.760 -0.4708 -0.1501 -0.1565
 9446SOL    HW132794   4.755   6.074   4.771  1.1667 -0.6547 -1.3758
 9446SOL    HW232795   4.743   6.208   4.842  0.1757 -1.9390  1.0080
 9447SOL     OW32796   3.142   6.668   7.307 -0.2764 -0.1343 -0.2029
 9447SOL    HW132797   3.223   6.713   7.284  0.0341  0.8130  2.4332
 9447SOL    HW232798   3.077   6.738   7.314 -0.7272 -0.5859  0.1536
 9448SOL     OW32799   9.756   7.225   9.174 -0.3165  0.2266 -0.0223
 9448SOL    HW132800   9.701   7.195   9.247 -2.8918 -2.0331 -2.6253
 9448SOL    HW232801   9.695   7.271   9.116  0.9433 -0.6658 -2.1492
 9449SOL     OW32802   3.080   9.574  10.107 -0.2551 -0.3655 -0.4368
 9449SOL    HW132803   3.077   9.602  10.015  1.3870  0.7216 -0.1983
 9449SOL    HW232804   2.988   9.565  10.132 -0.7560 -1.6234 -2.4312
 9450SOL     OW32805  10.544   4.741   7.299  0.1161  0.1513  0.3469
 9450SOL    HW132806  10.624   4.738   7.247  0.2992  0.4246  0.6112
 9450SOL    HW232807  10.565   4.798   7.373 -0.5680  0.9225 -0.0244
 9451SOL     OW32808   5.279   5.719   3.534  0.3353 -0.1916 -0.0162
 9451SOL    HW132809   5.213   5.723   3.603  0.0796  1.1942 -0.3237
 9451SOL    HW232810   5.334   5.795   3.548  0.4989 -0.0811 -1.1215
 9452SOL     OW32811  10.368   6.653  10.641  0.5529  0.3849 -0.0985
 9452SOL    HW132812  10.311   6.622  10.570  2.5716  1.4960 -2.3564
 9452SOL    HW232813  10.453   6.613  10.621  1.3859  1.4628  1.1823
 9453SOL     OW32814   1.780   7.328   7.777 -0.1025  0.2045  0.1324
 9453SOL    HW132815   1.725   7.406   7.776  0.1436  0.3881 -1.2112
 9453SOL    HW232816   1.758   7.284   7.859 -3.2587 -0.4167 -0.9079
 9454SOL     OW32817  10.929   8.448   2.734  0.7108 -0.1542  0.1616
 9454SOL    HW132818  10.834   8.445   2.728  0.6154  2.3466 -0.5171
 9454SOL    HW232819  10.948   8.495   2.814  1.3830 -0.3562  0.1335
 9455SOL     OW32820   5.004   2.477   0.991 -0.3621 -0.0806 -0.2367
 9455SOL    HW132821   5.071   2.471   1.060 -1.1308 -0.4637  0.4904
 9455SOL    HW232822   4.927   2.511   1.035 -0.3509  1.4055 -1.3039
 9456SOL     OW32823   7.892   6.128   0.749 -0.1099 -0.0667  0.2629
 9456SOL    HW132824   7.975   6.175   0.742 -0.6421  0.9416  0.5650
 9456SOL    HW232825   7.842   6.176   0.815 -0.2902 -1.6572  1.3529
 9457SOL     OW32826   6.845   6.059   6.365  0.3088  0.1500  0.1383
 9457SOL    HW132827   6.808   6.146   6.353  0.9527  0.4129  0.0263
 9457SOL    HW232828   6.838   6.041   6.459 -0.4558  0.0339  0.0610
 9458SOL     OW32829  10.961   6.362  10.473  0.3808  0.3289  0.2750
 9458SOL    HW132830  11.052   6.345  10.450  0.4251  1.5881 -0.5875
 9458SOL    HW232831  10.960   6.366  10.569  0.7788 -1.9624  0.4226
 9459SOL     OW32832   5.484   7.100   9.720 -0.0472 -0.4014 -0.3364
 9459SOL    HW132833   5.578   7.089   9.731  0.0291 -0.5245 -1.1200
 9459SOL    HW232834   5.454   7.134   9.805  0.9850  1.5642 -0.7222
 9460SOL     OW32835   7.834   1.959   0.090  0.0919  0.1951 -0.6685
 9460SOL    HW132836   7.805   1.908   0.166 -0.7041  0.4316 -0.8064
 9460SOL    HW232837   7.900   1.904   0.049 -2.5438 -2.0181 -2.3091
 9461SOL     OW32838  10.511   4.564   8.258 -0.0892 -0.0186  0.9243
 9461SOL    HW132839  10.577   4.629   8.279 -0.8527  2.0325 -2.2510
 9461SOL    HW232840  10.536   4.531   8.172 -2.3128 -0.2949  0.3017
 9462SOL     OW32841   5.338   6.746   5.487  0.7160  0.1049  0.1673
 9462SOL    HW132842   5.403   6.717   5.423  0.2246  1.0319 -0.7736
 9462SOL    HW232843   5.389   6.778   5.561  1.2892 -1.1613  0.3558
 9463SOL     OW32844   3.920   3.659   7.451  0.4419 -0.3896  0.5163
 9463SOL    HW132845   3.890   3.626   7.535  2.7196  0.2220  1.6578
 9463SOL    HW232846   3.947   3.580   7.402 -1.2663 -0.7776  0.1539
 9464SOL     OW32847   3.860   3.930   7.076 -0.3019  0.3694  0.0269
 9464SOL    HW132848   3.872   4.020   7.106  0.7295  0.5528 -0.8995
 9464SOL    HW232849   3.922   3.879   7.128  0.8280  0.5552 -1.1036
 9465SOL     OW32850  11.053   4.118   2.731 -0.0932 -0.0615  0.3501
 9465SOL    HW132851  10.970   4.125   2.778 -0.8629  1.8975 -1.1547
 9465SOL    HW232852  11.060   4.025   2.707 -1.8081 -0.2746  0.5763
 9466SOL     OW32853   4.046   9.482   6.474  0.3207  0.4938  0.2631
 9466SOL    HW132854   4.021   9.452   6.562 -4.1396  0.0079 -0.9724
 9466SOL    HW232855   4.040   9.577   6.479  1.1774  0.5353  0.7213
 9467SOL     OW32856   1.939   7.808   8.288  0.4542  0.1075 -0.5094
 9467SOL    HW132857   1.845   7.802   8.274  0.1654  1.1951  0.8236
 9467SOL    HW232858   1.955   7.760   8.370  1.0252  0.1670 -0.5789
 9468SOL     OW32859   7.853   1.373   9.085  0.1915  0.3041  0.1284
 9468SOL    HW132860   7.779   1.430   9.062  1.3949  1.4147 -1.1246
 9468SOL    HW232861   7.854   1.373   9.181 -1.7396 -0.1833  0.1880
 9469SOL     OW32862   0.198   9.405   1.758  0.7428 -0.6095 -0.0644
 9469SOL    HW132863   0.223   9.456   1.681 -0.0089 -2.2758 -1.5012
 9469SOL    HW232864   0.117   9.446   1.789  1.4056  0.4782  0.2592
 9470SOL     OW32865   0.726   3.434   0.949  0.0369  0.3204  0.4350
 9470SOL    HW132866   0.798   3.497   0.941  2.8788 -2.5179  1.4359
 9470SOL    HW232867   0.735   3.378   0.871 -1.8191  0.5375  0.0381
 9471SOL     OW32868   9.177   6.432   7.289 -0.7690  0.1619  0.4122
 9471SOL    HW132869   9.103   6.487   7.314  0.8450  2.6189  0.0776
 9471SOL    HW232870   9.254   6.478   7.322  0.7642 -1.3137 -0.9176
 9472SOL     OW32871   7.172  10.944   3.543  0.5694  0.2740 -0.1650
 9472SOL    HW132872   7.222  10.956   3.623 -1.8509 -0.2701  1.5489
 9472SOL    HW232873   7.137  11.031   3.523  0.7402  0.3026 -0.3463
 9473SOL     OW32874   4.026   6.503   8.651 -1.2324  0.1031  0.3924
 9473SOL    HW132875   4.075   6.421   8.656 -0.7445  0.3478 -0.2500
 9473SOL    HW232876   4.086   6.568   8.688 -1.1663  0.3610 -0.1662
 9474SOL     OW32877   0.026   5.894   9.579  0.0461 -0.1937 -0.7292
 9474SOL    HW132878   0.031   5.805   9.614  1.7473 -0.3717 -1.3612
 9474SOL    HW232879  -0.062   5.899   9.541 -0.3512 -1.3442 -0.0202
 9475SOL     OW32880   4.705   3.685   7.110  0.6503 -0.1413  0.5086
 9475SOL    HW132881   4.651   3.729   7.176 -1.7747 -0.2212 -1.2836
 9475SOL    HW232882   4.737   3.756   7.054 -1.1668 -0.3533 -0.8883
 9476SOL     OW32883   5.968   3.831  10.959 -0.0223  0.0646  0.2793
 9476SOL    HW132884   6.037   3.767  10.979 -0.4104  0.0124  1.5491
 9476SOL    HW232885   6.004   3.883  10.887 -0.5172 -2.8625 -2.2837
 9477SOL     OW32886   5.249   0.190   0.473 -0.1166  0.3047 -0.0352
 9477SOL    HW132887   5.331   0.217   0.432 -0.1417 -1.3572 -1.3150
 9477SOL    HW232888   5.260   0.211   0.566  0.2222  3.6004 -0.6970
 9478SOL     OW32889   8.912   4.424   0.352  0.0528  0.3351 -0.7486
 9478SOL    HW132890   8.943   4.402   0.440  1.0023  1.3133 -0.8112
 9478SOL    HW232891   8.822   4.393   0.350 -0.0884  0.5802  0.6784
 9479SOL     OW32892   9.445   7.699   8.769  0.6618 -0.1765 -0.3825
 9479SOL    HW132893   9.530   7.725   8.802  0.5198 -1.8455  1.5088
 9479SOL    HW232894   9.382   7.735   8.832 -0.2178  2.2032 -2.4750
 9480SOL     OW32895   8.914   7.324   4.849  0.2390 -0.0527  0.4293
 9480SOL    HW132896   8.885   7.365   4.930 -0.5298  1.4726 -0.5592
 9480SOL    HW232897   8.944   7.396   4.794 -2.3634 -0.5212 -1.8735
 9481SOL     OW32898   6.357   4.492   7.171  0.4749  0.1668  0.0988
 9481SOL    HW132899   6.428   4.430   7.156  1.9215  1.8446 -0.2748
 9481SOL    HW232900   6.339   4.529   7.085 -0.1675  0.5029  0.3711
 9482SOL     OW32901   4.560   9.152   8.488 -0.0585 -0.3449  0.4199
 9482SOL    HW132902   4.489   9.162   8.551 -0.5323 -3.2595  0.4861
 9482SOL    HW232903   4.516   9.128   8.406  0.6869  1.1973 -0.4716
 9483SOL     OW32904   4.802   9.064   2.908  0.9143 -0.2828 -0.0542
 9483SOL    HW132905   4.771   9.031   2.823 -0.7015 -0.1339  0.4451
 9483SOL    HW232906   4.790   8.990   2.968 -0.2580  0.3527  0.5252
 9484SOL     OW32907   9.090   0.984   6.290 -0.4582 -0.1210  0.1108
 9484SOL    HW132908   9.066   1.012   6.378 -1.6590 -0.5790 -0.0570
 9484SOL    HW232909   9.154   1.049   6.261 -1.4216  1.0971  0.6196
 9485SOL     OW32910  10.751   2.274   3.725  0.5762 -0.5508 -0.7687
 9485SOL    HW132911  10.781   2.195   3.769  3.3498  1.3002  1.0807
 9485SOL    HW232912  10.690   2.314   3.787  0.2813 -0.5515 -1.0577
 9486SOL     OW32913  10.602   9.866  10.650 -0.4956  0.5494 -0.6421
 9486SOL    HW132914  10.655   9.870  10.730 -1.7368 -0.7309  0.2968
 9486SOL    HW232915  10.529   9.926  10.666 -1.6070 -0.8780 -0.0884
 9487SOL     OW32916   2.303   3.850   2.661 -0.1705 -0.4746 -0.0028
 9487SOL    HW132917   2.217   3.891   2.647  0.3532  0.5896 -0.1938
 9487SOL    HW232918   2.349   3.909   2.720  1.0837 -0.0681 -1.3248
 9488SOL     OW32919  11.011   4.582   2.342 -0.1084 -0.3998 -0.0751
 9488SOL    HW132920  11.000   4.495   2.380  1.1836 -0.1421  0.9569
 9488SOL    HW232921  11.039   4.565   2.252  0.3945 -1.0776  0.1979
 9489SOL     OW32922   4.814   3.944   4.332  0.3834  0.2496 -0.3602
 9489SOL    HW132923   4.744   3.912   4.388  0.7519 -0.2027 -0.1507
 9489SOL    HW232924   4.811   4.039   4.340  0.2862  0.1958  0.2427
 9490SOL     OW32925   1.249   8.222   0.902 -0.1929 -0.5646  0.2329
 9490SOL    HW132926   1.266   8.299   0.956  2.7862 -0.0615 -1.2198
 9490SOL    HW232927   1.267   8.147   0.959 -0.0151 -0.1094  0.7813
 9491SOL     OW32928   8.117  10.707   4.600 -0.4543  0.4648  0.8888
 9491SOL    HW132929   8.171  10.630   4.587  0.1534  0.8233  1.2760
 9491SOL    HW232930   8.151  10.749   4.679  0.9233  2.5284 -0.6861
 9492SOL     OW32931   6.271   0.688   3.981  0.5088 -0.5054 -0.2367
 9492SOL    HW132932   6.299   0.603   3.948  1.8408  0.7433 -2.5747
 9492SOL    HW232933   6.239   0.735   3.903  0.4255  1.3641  0.8599
 9493SOL     OW32934  10.753   3.104   9.671  0.3464 -0.3794 -0.2902
 9493SOL    HW132935  10.779   3.011   9.671  0.2084 -0.4188 -0.3878
 9493SOL    HW232936  10.676   3.107   9.727 -0.2343 -0.4933 -1.0645
 9494SOL     OW32937   1.260   1.683   5.326 -1.0401  0.1250  0.7003
 9494SOL    HW132938   1.300   1.717   5.406 -0.3561 -1.5242  1.0959
 9494SOL    HW232939   1.334   1.669   5.267 -1.2945 -0.7010  0.5684
 9495SOL     OW32940   7.014   3.672   7.001  0.2156 -0.2688  0.2877
 9495SOL    HW132941   6.975   3.588   7.026  1.0254 -0.1091  2.3403
 9495SOL    HW232942   6.978   3.691   6.915 -2.0090 -1.4776  0.8604
 9496SOL     OW32943   6.884   6.007   4.565  0.7534  0.3494  0.0699
 9496SOL    HW132944   6.977   6.023   4.584  0.9484 -0.5710 -0.0581
 9496SOL    HW232945   6.877   6.020   4.470  0.5002  1.5475  0.2374
 9497SOL     OW32946   4.183   5.325   3.084 -0.1882  0.2587  0.3903
 9497SOL    HW132947   4.098   5.368   3.087 -1.5333 -2.2633  1.5546
 9497SOL    HW232948   4.202   5.303   3.176  1.4249  0.2067  0.0733
 9498SOL     OW32949  10.794   0.194   3.149  0.3478 -0.2852  0.5645
 9498SOL    HW132950  10.835   0.274   3.117 -0.6845 -0.0032 -0.0903
 9498SOL    HW232951  10.748   0.158   3.073 -2.4376  0.5643  1.7278
 9499SOL     OW32952   0.136   5.117   0.064  0.0675  0.3155  0.7405
 9499SOL    HW132953   0.147   5.065   0.144  2.2414  0.2033  0.4268
 9499SOL    HW232954   0.136   5.053  -0.007 -1.1491  0.4703  0.5895
 9500SOL     OW32955   5.107   6.465   7.251 -0.5039  0.1020  0.0028
 9500SOL    HW132956   5.068   6.380   7.236  1.3766 -1.2523  2.0835
 9500SOL    HW232957   5.093   6.513   7.170 -0.6786 -2.5522 -1.6505
 9501SOL     OW32958   3.548   2.673   7.221 -0.2600 -0.0727 -0.6086
 9501SOL    HW132959   3.453   2.669   7.229 -0.2956  1.0100 -0.4347
 9501SOL    HW232960   3.566   2.651   7.129 -0.6498 -0.4768 -0.5920
 9502SOL     OW32961   0.357   5.232   0.310 -0.1088 -0.2310 -0.0382
 9502SOL    HW132962   0.283   5.198   0.359  0.6447  0.1117  1.3824
 9502SOL    HW232963   0.371   5.320   0.343  1.6931 -0.7240  0.6394
 9503SOL     OW32964   1.451   8.174   7.676 -0.0073  0.1133  0.2176
 9503SOL    HW132965   1.358   8.157   7.687  0.2107 -2.5306 -1.3628
 9503SOL    HW232966   1.483   8.104   7.619  2.6757  1.7682 -0.5327
 9504SOL     OW32967   7.469   0.069   7.460 -0.0036  0.2687  0.7258
 9504SOL    HW132968   7.444   0.024   7.541  0.2684  0.2652  0.8099
 9504SOL    HW232969   7.471   0.162   7.484  2.0433  0.1410  1.2825
 9505SOL     OW32970   9.291   5.058   1.323  0.4107 -0.4104 -0.3583
 9505SOL    HW132971   9.218   5.038   1.383  1.4123  1.0565  1.4928
 9505SOL    HW232972   9.277   5.150   1.300  0.6812 -0.6435 -1.4877
 9506SOL     OW32973  10.500   7.124   3.587 -0.1041 -0.2337  0.1421
 9506SOL    HW132974  10.591   7.123   3.617 -0.4990 -1.5719  1.3990
 9506SOL    HW232975  10.473   7.032   3.588 -0.9796 -0.0488 -1.8325
 9507SOL     OW32976  10.628   7.522   9.290  0.0012 -0.0807 -0.0278
 9507SOL    HW132977  10.591   7.580   9.356  2.2115 -0.6439  1.8299
 9507SOL    HW232978  10.703   7.569   9.255 -2.3766  1.2177 -4.0363
 9508SOL     OW32979   8.782   2.430  10.640 -0.3592 -0.0596  0.2975
 9508SOL    HW132980   8.709   2.368  10.645  1.2635 -1.9877  1.5450
 9508SOL    HW232981   8.796   2.458  10.730  0.6264  0.0475  0.1173
 9509SOL     OW32982   3.052   0.934   2.024  0.2534 -0.1507  0.0686
 9509SOL    HW132983   3.112   0.872   2.065 -0.7549 -1.4799 -0.4003
 9509SOL    HW232984   3.086   0.945   1.935  0.7579  0.4227  0.3298
 9510SOL     OW32985   7.733   4.681   2.224  0.2529 -0.7785  0.0395
 9510SOL    HW132986   7.782   4.702   2.144 -0.6925  0.3303 -0.2763
 9510SOL    HW232987   7.641   4.689   2.199 -0.0723  0.6586  1.4832
 9511SOL     OW32988   2.148   9.176  10.831  0.3310  0.0026  0.3154
 9511SOL    HW132989   2.202   9.224  10.768  0.7326  0.0027  0.6508
 9511SOL    HW232990   2.211   9.121  10.879 -0.0104 -0.2273  0.5036
 9512SOL     OW32991   3.562   7.799   4.504 -0.0381 -0.2377  0.1798
 9512SOL    HW132992   3.544   7.727   4.444  3.4251 -0.8257 -0.3766
 9512SOL    HW232993   3.523   7.772   4.587  0.4675 -2.4157 -0.2398
 9513SOL     OW32994  10.339  10.257  10.216 -0.6864 -0.2352 -0.7050
 9513SOL    HW132995  10.278  10.303  10.272 -1.3107 -0.5940 -1.0836
 9513SOL    HW232996  10.392  10.326  10.176 -1.4684  0.1424 -1.0981
 9514SOL     OW32997   1.816   3.783   6.892  0.4298  0.1467  0.5527
 9514SOL    HW132998   1.798   3.825   6.808  0.3890 -1.2678 -0.1707
 9514SOL    HW232999   1.734   3.740   6.916 -0.2354  2.2425  2.4001
 9515SOL     OW33000   5.625   0.210   9.002 -0.5426 -0.4172  0.4267
 9515SOL    HW133001   5.589   0.249   8.922 -3.8252 -0.3949  1.7471
 9515SOL    HW233002   5.635   0.117   8.982 -0.4041 -0.2542 -0.2789
 9516SOL     OW33003   7.907   6.216   5.437 -0.5156  0.0976 -0.0879
 9516SOL    HW133004   7.942   6.294   5.478 -0.3837  0.6632 -1.2284
 9516SOL    HW233005   7.878   6.161   5.510 -1.0067  1.3860  0.7181
 9517SOL     OW33006   9.397   4.426   4.284  0.4234  0.3907  0.1381
 9517SOL    HW133007   9.323   4.379   4.323  0.2224  1.4121  1.0785
 9517SOL    HW233008   9.364   4.458   4.200  0.5264 -0.9944 -0.4514
 9518SOL     OW33009  10.708   7.858   8.434 -0.3723 -0.2609  0.2082
 9518SOL    HW133010  10.777   7.827   8.375  1.2049 -0.3111  2.0098
 9518SOL    HW233011  10.723   7.952   8.441 -1.3359 -0.0428 -0.4005
 9519SOL     OW33012   1.579   0.898   2.384  0.3743 -0.2789 -0.0149
 9519SOL    HW133013   1.616   0.975   2.340 -2.4416  1.7888  0.9216
 9519SOL    HW233014   1.616   0.901   2.473  0.1885  0.0783  0.0523
 9520SOL     OW33015   7.653   1.166   0.524 -0.0697 -0.2849  0.0137
 9520SOL    HW133016   7.670   1.119   0.443  0.5304  1.2364 -0.7892
 9520SOL    HW233017   7.670   1.258   0.502 -3.1309  0.6144  0.9283
 9521SOL     OW33018   9.509   6.701   3.303  0.3742  0.6021  0.3225
 9521SOL    HW133019   9.549   6.768   3.358  2.4452 -1.5436  1.6270
 9521SOL    HW233020   9.565   6.694   3.226  2.0414 -1.5852  1.6011
 9522SOL     OW33021   2.346   6.764   1.710 -0.1126  0.0172 -0.1238
 9522SOL    HW133022   2.410   6.707   1.668 -1.3012  0.0709 -2.1098
 9522SOL    HW233023   2.285   6.704   1.754  1.1533 -0.0353  1.6745
 9523SOL     OW33024   0.666   7.206   9.028 -0.1987  0.1176  0.4461
 9523SOL    HW133025   0.664   7.149   8.951  0.0464 -1.0716  1.3006
 9523SOL    HW233026   0.641   7.292   8.994  1.8740  0.0876 -1.3502
 9524SOL     OW33027   5.619   3.445   0.006  0.5459 -0.1481  0.4400
 9524SOL    HW133028   5.584   3.415  -0.078 -2.3541 -0.1286  1.4981
 9524SOL    HW233029   5.674   3.519  -0.016  0.4098 -0.5660 -1.4959
 9525SOL     OW33030   6.914   3.153   3.461 -0.2163 -0.4400 -0.0409
 9525SOL    HW133031   6.834   3.172   3.412 -0.8254 -0.0303  1.0749
 9525SOL    HW233032   6.908   3.059   3.480  0.4025 -0.7756 -1.3686
 9526SOL     OW33033   4.251   5.871   5.026  0.0921 -0.1154  0.0071
 9526SOL    HW133034   4.288   5.921   4.953 -0.4698 -2.1400 -1.7532
 9526SOL    HW233035   4.324   5.862   5.088  1.7620 -1.4846 -2.0209
 9527SOL     OW33036   2.331   7.739   2.779 -0.0245  0.0402 -0.2690
 9527SOL    HW133037   2.343   7.660   2.727 -2.1748  0.5452 -1.6685
 9527SOL    HW233038   2.374   7.808   2.728  1.6931 -0.1253  0.8612
 9528SOL     OW33039   0.658   9.218   0.609  0.1433  0.1121  0.3214
 9528SOL    HW133040   0.663   9.126   0.584 -0.1574 -0.3750  1.9435
 9528SOL    HW233041   0.623   9.217   0.698  0.9281  1.7520  0.6866
 9529SOL     OW33042   3.331   2.201   2.977  0.4636  0.1958 -0.1809
 9529SOL    HW133043   3.375   2.192   3.062  0.7853  1.3134 -0.2101
 9529SOL    HW233044   3.361   2.286   2.944  1.1410 -0.6510 -1.8748
 9530SOL     OW33045   3.760   5.662   6.877  0.2823  0.2749 -0.3041
 9530SOL    HW133046   3.790   5.634   6.791  1.0428  1.0064 -0.2917
 9530SOL    HW233047   3.792   5.752   6.886  0.7631  0.0079  0.9839
 9531SOL     OW33048   9.212   0.973   0.605 -0.5191  0.2420 -0.5945
 9531SOL    HW133049   9.137   1.024   0.576 -0.6674  0.9919  0.9819
 9531SOL    HW233050   9.261   0.954   0.525 -2.3247 -0.2008 -1.6402
 9532SOL     OW33051   1.206   4.146   5.484  0.3720 -0.1477  0.1846
 9532SOL    HW133052   1.251   4.088   5.423 -0.5958  0.2252 -0.9055
 9532SOL    HW233053   1.117   4.153   5.450  0.1613  1.0838  0.9226
 9533SOL     OW33054   2.483   7.619   4.198  0.1629  0.0013  0.6121
 9533SOL    HW133055   2.424   7.690   4.172  0.5657  0.2505  0.3604
 9533SOL    HW233056   2.454   7.594   4.286 -0.7648 -0.3616  0.2177
 9534SOL     OW33057   9.666   5.911   4.451 -0.0007  0.0447 -0.2050
 9534SOL    HW133058   9.757   5.931   4.430 -0.7385  2.3671 -1.5274
 9534SOL    HW233059   9.616   5.956   4.383 -2.1648 -0.8354  0.7360
 9535SOL     OW33060   6.368   7.777   5.782 -0.2906  0.4302  0.0447
 9535SOL    HW133061   6.386   7.706   5.844 -0.3444 -0.1961 -0.6549
 9535SOL    HW233062   6.316   7.737   5.713  0.0224  1.0528 -0.5687
 9536SOL     OW33063   8.049   5.767   5.128 -0.1172  0.5906 -0.0299
 9536SOL    HW133064   8.109   5.800   5.195  0.6270 -0.7874  0.0141
 9536SOL    HW233065   7.962   5.797   5.156  0.2083  0.2301  1.4433
 9537SOL     OW33066   9.716   6.449   0.226  0.2917  0.6931  0.4141
 9537SOL    HW133067   9.723   6.491   0.311 -1.0817  0.5329  0.6286
 9537SOL    HW233068   9.706   6.521   0.164  0.2004  0.7633  0.5121
 9538SOL     OW33069   5.511   3.065   6.660 -0.3829 -0.3345 -0.2611
 9538SOL    HW133070   5.508   2.982   6.613  2.8862 -1.1333  0.6684
 9538SOL    HW233071   5.480   3.130   6.597 -1.0491 -1.9721 -1.6997
 9539SOL     OW33072   8.531   7.052   2.412  0.1068  0.4285 -0.0936
 9539SOL    HW133073   8.565   6.966   2.433  2.5453  0.4988 -3.0874
 9539SOL    HW233074   8.449   7.035   2.365  1.2675 -0.4335 -1.9051
 9540SOL     OW33075   4.754   7.173   7.671  0.7461 -0.2589  0.0402
 9540SOL    HW133076   4.830   7.213   7.628 -0.1402  1.8017  0.2720
 9540SOL    HW233077   4.720   7.111   7.607 -0.0824  2.1679 -2.0290
 9541SOL     OW33078   2.559   3.722   2.639  0.5007  0.6763 -0.1306
 9541SOL    HW133079   2.541   3.638   2.597 -1.0518  0.9323 -0.0177
 9541SOL    HW233080   2.473   3.754   2.667  0.9565  2.6820 -0.9016
 9542SOL     OW33081   4.701   1.486   8.252  0.0847 -0.3291 -0.3937
 9542SOL    HW133082   4.725   1.453   8.165 -0.5208 -0.2115 -0.6104
 9542SOL    HW233083   4.723   1.415   8.312 -0.2083 -0.7156 -0.7356
 9543SOL     OW33084   2.050   6.252   8.239  0.2640 -0.0549 -0.0545
 9543SOL    HW133085   2.040   6.339   8.279 -0.0474 -0.0519 -0.1416
 9543SOL    HW233086   2.143   6.232   8.250  0.0036 -0.5024  1.5895
 9544SOL     OW33087   9.095   5.666  10.572  0.3271  0.4639 -0.2934
 9544SOL    HW133088   9.123   5.592  10.519 -0.0884  0.3622 -0.3687
 9544SOL    HW233089   9.132   5.649  10.658  0.9047  0.5702 -0.5100
 9545SOL     OW33090  10.236   7.231   3.175 -0.3945  0.0263 -0.1107
 9545SOL    HW133091  10.295   7.279   3.233  1.3040 -0.6603 -1.1914
 9545SOL    HW233092  10.197   7.163   3.231 -0.8451  1.0169  0.8144
 9546SOL     OW33093   9.858  10.769   1.558 -0.3894 -0.2875 -0.2599
 9546SOL    HW133094   9.826  10.812   1.637 -1.4950  0.2945 -0.9948
 9546SOL    HW233095   9.874  10.841   1.497 -0.4866 -0.7857 -0.8869
 9547SOL     OW33096   6.963   4.946   9.988 -0.3251 -0.9308 -0.4607
 9547SOL    HW133097   6.966   5.039  10.010 -0.5949 -0.9830 -0.1918
 9547SOL    HW233098   7.054   4.921   9.975 -0.1939 -0.7968  0.1871
 9548SOL     OW33099  10.319   8.828   9.134  0.0234 -0.2211 -0.5995
 9548SOL    HW133100  10.237   8.870   9.106  0.5083  1.1613 -0.0421
 9548SOL    HW233101  10.354   8.887   9.201  0.9629 -1.3276 -0.0856
 9549SOL     OW33102  10.458   9.258   8.867 -0.4978  0.7329 -0.3143
 9549SOL    HW133103  10.503   9.195   8.923  0.6159  0.7567 -1.1553
 9549SOL    HW233104  10.399   9.304   8.927 -1.1264 -0.8891  0.3636
 9550SOL     OW33105   9.742   2.787   2.438 -0.4370 -0.2827  0.4869
 9550SOL    HW133106   9.770   2.705   2.398  0.5876  0.2095  0.1489
 9550SOL    HW233107   9.811   2.806   2.502  1.3760  2.1292 -1.9366
 9551SOL     OW33108   6.206   3.403   4.458  0.4253  0.0632  0.4122
 9551SOL    HW133109   6.167   3.426   4.542  0.0478 -1.0805  0.5738
 9551SOL    HW233110   6.152   3.448   4.393  0.1709  0.2412  0.7438
 9552SOL     OW33111   9.694   9.502  10.473  0.1377 -0.1526 -0.0087
 9552SOL    HW133112   9.708   9.533  10.563 -0.0207  0.0119 -0.0414
 9552SOL    HW233113   9.606   9.467  10.473  0.2726 -0.4975 -0.0025
 9553SOL     OW33114   1.498   3.704   2.539 -0.1196 -0.2594 -0.2773
 9553SOL    HW133115   1.591   3.707   2.517  0.0089  4.9668 -0.3251
 9553SOL    HW233116   1.455   3.742   2.462 -1.4467  3.1965  1.9518
 9554SOL     OW33117   0.580   1.906   3.677 -0.1219  0.2984 -0.5163
 9554SOL    HW133118   0.581   1.827   3.730  1.9003  0.6664  0.0876
 9554SOL    HW233119   0.508   1.958   3.712  0.6487  0.1754  1.3977
 9555SOL     OW33120   5.687   9.599   6.006  0.2673  0.0816  0.1226
 9555SOL    HW133121   5.762   9.597   6.066 -1.0231 -3.8384  1.9295
 9555SOL    HW233122   5.694   9.517   5.956 -0.3199  1.8764 -3.2142
 9556SOL     OW33123   5.861   1.495   5.436  0.1597 -0.0344  0.2560
 9556SOL    HW133124   5.872   1.491   5.531 -0.1172  3.3372  0.5528
 9556SOL    HW233125   5.949   1.509   5.402  0.6228 -3.5290 -0.3238
 9557SOL     OW33126   9.817   9.364   1.928  0.5998 -0.0602 -0.3386
 9557SOL    HW133127   9.773   9.372   1.843 -1.0714 -0.0364  0.4948
 9557SOL    HW233128   9.892   9.425   1.922  0.4927 -0.0360 -1.7646
 9558SOL     OW33129   2.967   8.246   7.596 -0.0455  0.3580  0.0998
 9558SOL    HW133130   2.951   8.288   7.680  0.9558  2.4382 -0.6819
 9558SOL    HW233131   3.049   8.199   7.608  0.4748  1.2480  0.1012
 9559SOL     OW33132   6.640   3.922   7.585 -0.2952  0.1094 -0.1581
 9559SOL    HW133133   6.684   3.892   7.505 -1.3479 -0.7239 -0.4558
 9559SOL    HW233134   6.565   3.972   7.554 -0.5923 -0.0394  0.3022
 9560SOL     OW33135   0.574   7.853   1.035 -0.1863 -0.1069 -0.2116
 9560SOL    HW133136   0.585   7.807   1.118 -1.0529 -1.0710 -0.6043
 9560SOL    HW233137   0.642   7.920   1.035  0.0571 -0.3308  1.1089
 9561SOL     OW33138   5.248  10.257   1.596 -0.2526  0.7636 -0.5960
 9561SOL    HW133139   5.314  10.255   1.666 -1.4278  0.8779  0.5629
 9561SOL    HW233140   5.293  10.221   1.520  1.0400  0.5147  0.2425
 9562SOL     OW33141  10.842   6.223   0.416 -0.3649  0.9612 -0.7749
 9562SOL    HW133142  10.855   6.132   0.444 -0.7254  0.8910 -0.8424
 9562SOL    HW233143  10.808   6.216   0.327 -1.7749  1.1301 -0.2676
 9563SOL     OW33144   5.093   6.382   5.722 -0.3597 -0.0885 -0.0611
 9563SOL    HW133145   5.153   6.430   5.780  0.4782 -0.6986 -0.4089
 9563SOL    HW233146   5.131   6.295   5.715 -0.3956  0.0033 -1.6143
 9564SOL     OW33147   5.628   6.990   8.833 -0.0452  0.2680 -0.9496
 9564SOL    HW133148   5.598   6.929   8.766 -0.0111 -0.0544 -0.6753
 9564SOL    HW233149   5.593   6.954   8.915 -0.4319  0.8807 -0.8418
 9565SOL     OW33150   0.259   2.550   8.969 -0.9189  0.2702 -0.2236
 9565SOL    HW133151   0.206   2.601   8.907  0.9012  0.6385 -1.5584
 9565SOL    HW233152   0.309   2.616   9.017 -0.0708 -0.1564 -0.5157
 9566SOL     OW33153  10.783   8.951   2.809  0.0239  0.4428 -0.1224
 9566SOL    HW133154  10.836   9.002   2.748 -0.1119 -0.4316 -1.0106
 9566SOL    HW233155  10.768   8.868   2.763  0.0730 -0.3127  1.1820
 9567SOL     OW33156   2.949   1.958   7.572  0.2594 -0.3690 -0.1350
 9567SOL    HW133157   2.900   1.987   7.494 -1.1828 -0.8309  0.5539
 9567SOL    HW233158   3.024   1.910   7.538  1.6309  2.3830 -1.2931
 9568SOL     OW33159   8.673   1.808   5.859  0.1163 -0.9606  0.3205
 9568SOL    HW133160   8.767   1.793   5.863  0.1950 -0.1646  2.5088
 9568SOL    HW233161   8.635   1.740   5.916 -0.6653 -1.3611 -0.6437
 9569SOL     OW33162  10.774   2.552   7.344 -0.6325  0.2942 -0.5326
 9569SOL    HW133163  10.689   2.507   7.344  0.0903 -1.2097  1.1915
 9569SOL    HW233164  10.767   2.615   7.415  0.1409 -0.8547  0.6058
 9570SOL     OW33165   0.602   0.363   7.061  0.5219 -0.5367  0.3695
 9570SOL    HW133166   0.524   0.333   7.014 -0.6074  1.7540  0.6337
 9570SOL    HW233167   0.613   0.300   7.132 -0.0438 -1.8689 -0.6781
 9571SOL     OW33168   2.697   4.590   6.420  0.8032  0.5556  0.2292
 9571SOL    HW133169   2.702   4.685   6.416 -0.2220  0.8539  3.3290
 9571SOL    HW233170   2.659   4.572   6.505  0.8870 -2.6649 -0.3005
 9572SOL     OW33171   9.074   2.303   0.246  0.3022 -0.3250 -0.4598
 9572SOL    HW133172   9.049   2.234   0.185  0.5947 -0.8747  0.0420
 9572SOL    HW233173   9.116   2.369   0.190  0.1449 -0.6079 -0.9193
 9573SOL     OW33174   1.542   4.794   1.465 -0.3780  0.3448  0.3480
 9573SOL    HW133175   1.578   4.754   1.386 -0.8899  1.4162 -0.4461
 9573SOL    HW233176   1.613   4.846   1.501 -0.3564  0.4275  0.1880
 9574SOL     OW33177   1.134   5.040   3.181 -0.0909  0.2113  0.7149
 9574SOL    HW133178   1.082   5.021   3.259 -1.0392  0.3477  0.1266
 9574SOL    HW233179   1.105   4.977   3.116  1.6018 -0.7514  0.8336
 9575SOL     OW33180   0.671   4.277   5.581  0.0380 -0.3783  0.3413
 9575SOL    HW133181   0.644   4.368   5.568  1.1731 -0.2164 -1.1845
 9575SOL    HW233182   0.592   4.232   5.613 -0.6643  1.0265  0.6410
 9576SOL     OW33183   0.348   2.031   9.644  0.2372  0.1878 -0.3811
 9576SOL    HW133184   0.275   2.066   9.592  0.4004  1.0930 -0.0219
 9576SOL    HW233185   0.322   2.045   9.735  0.6985  0.1850 -0.2447
 9577SOL     OW33186   9.799   1.155   5.920  0.3531 -0.3940  0.4267
 9577SOL    HW133187   9.874   1.163   5.979  0.9194  0.7812 -0.4202
 9577SOL    HW233188   9.826   1.200   5.840 -1.0592 -0.4227 -0.0957
 9578SOL     OW33189   3.403   2.178   7.027  0.4151  0.0852 -0.0441
 9578SOL    HW133190   3.326   2.134   7.064 -0.1696  0.2540 -1.0325
 9578SOL    HW233191   3.421   2.249   7.088 -0.0157 -0.1529  0.3677
 9579SOL     OW33192   6.388   3.847   6.457 -0.0316 -0.3233  0.3210
 9579SOL    HW133193   6.422   3.819   6.373  0.2843  0.6940  0.0876
 9579SOL    HW233194   6.449   3.811   6.521  0.6177  0.1906  0.0032
 9580SOL     OW33195   1.639   4.958   8.424  0.6078  0.0951 -0.1344
 9580SOL    HW133196   1.615   4.879   8.376 -0.2547  1.2266 -1.6647
 9580SOL    HW233197   1.727   4.979   8.393 -0.5099  1.6823 -2.5887
 9581SOL     OW33198   3.465   7.358   7.776  0.7160 -0.1294 -0.4206
 9581SOL    HW133199   3.456   7.335   7.683 -1.5792 -0.7294 -0.1225
 9581SOL    HW233200   3.555   7.389   7.785  0.8367  0.4859 -2.9664
 9582SOL     OW33201   5.864   7.362   5.512  0.1032  0.1919  0.6120
 9582SOL    HW133202   5.896   7.331   5.596 -0.1291  3.0516  1.8785
 9582SOL    HW233203   5.782   7.407   5.533 -0.1696  0.6131 -1.2078
 9583SOL     OW33204   4.472   9.572   9.467  0.1740  0.1331 -0.3609
 9583SOL    HW133205   4.399   9.587   9.407 -0.0031 -0.7376 -0.3754
 9583SOL    HW233206   4.523   9.653   9.464 -0.7342  0.7081 -0.4299
 9584SOL     OW33207   4.772   5.064   3.362 -0.0410  0.1512  0.8339
 9584SOL    HW133208   4.776   4.991   3.424 -0.4598  0.3413  1.0835
 9584SOL    HW233209   4.809   5.138   3.409 -1.7215  0.6743  1.4052
 9585SOL     OW33210   9.139   1.490   3.750  0.4059  0.8801  0.3460
 9585SOL    HW133211   9.048   1.484   3.777  0.1258  2.3157 -0.1748
 9585SOL    HW233212   9.169   1.574   3.787  1.6956  0.1537  1.0150
 9586SOL     OW33213   6.918   1.521   6.632 -0.5115  0.0603 -0.3144
 9586SOL    HW133214   6.868   1.466   6.691 -0.4355 -0.1153 -0.4129
 9586SOL    HW233215   6.908   1.481   6.546  1.8728 -1.4909  0.0458
 9587SOL     OW33216   1.673   3.567   3.376  0.0780 -0.3484  0.2481
 9587SOL    HW133217   1.650   3.655   3.404 -1.1441 -0.1888 -1.1250
 9587SOL    HW233218   1.747   3.579   3.317 -0.5518 -0.1209 -0.5262
 9588SOL     OW33219   1.907   5.137   9.140 -0.0961  0.0523 -0.4105
 9588SOL    HW133220   1.831   5.116   9.194 -0.2880  0.0704 -0.6741
 9588SOL    HW233221   1.894   5.088   9.059  0.3051 -0.1512 -0.3543
 9589SOL     OW33222   2.589  11.068   7.392 -0.2299 -0.0430  0.4371
 9589SOL    HW133223   2.671  11.116   7.385  0.1339 -0.7727 -0.4488
 9589SOL    HW233224   2.522  11.137   7.393  0.3459  0.5302  0.3596
 9590SOL     OW33225   5.757   6.277   8.494  0.2727  0.0937 -0.1798
 9590SOL    HW133226   5.853   6.270   8.495  0.2258 -1.2951 -1.6062
 9590SOL    HW233227   5.736   6.316   8.578  2.0534 -0.3924  0.5559
 9591SOL     OW33228   0.313  10.188   0.619 -0.2136  0.0374  0.1871
 9591SOL    HW133229   0.326  10.205   0.713 -2.1010  0.2016  0.4537
 9591SOL    HW233230   0.279  10.099   0.615 -1.7622  0.6231 -0.1773
 9592SOL     OW33231  10.130   9.599  10.642 -0.0642  0.6098  0.5661
 9592SOL    HW133232  10.106   9.669  10.581 -2.0277 -0.4020  0.1040
 9592SOL    HW233233  10.156   9.526  10.587  2.6871  1.1117  1.0518
 9593SOL     OW33234   9.013   3.900   4.828  0.2406  0.6266 -0.2985
 9593SOL    HW133235   9.101   3.875   4.855 -0.0247  0.6515  0.6139
 9593SOL    HW233236   9.000   3.988   4.864 -1.5461 -0.7949  3.0181
 9594SOL     OW33237   0.590  10.463   3.502 -0.0813  0.0638 -0.5100
 9594SOL    HW133238   0.623  10.378   3.470  2.4284  1.8047 -3.0013
 9594SOL    HW233239   0.624  10.470   3.591  3.3656  0.1253 -1.6860
 9595SOL     OW33240   9.366   1.712   9.701 -0.4635 -0.4829  0.1669
 9595SOL    HW133241   9.362   1.637   9.761  0.4766 -0.5985  0.0941
 9595SOL    HW233242   9.299   1.693   9.635 -0.8634 -0.8059  0.6585
 9596SOL     OW33243   0.537   9.033   7.987  0.3601 -0.0563  0.1827
 9596SOL    HW133244   0.456   9.083   7.984  0.1959 -0.3663 -0.8911
 9596SOL    HW233245   0.517   8.952   7.941  0.8142 -0.8493  1.3245
 9597SOL     OW33246   0.999   8.927   3.560  0.0733 -0.4160 -0.0263
 9597SOL    HW133247   1.051   8.992   3.514  0.3194 -1.0962 -0.7375
 9597SOL    HW233248   0.951   8.976   3.626  0.9876  0.3396  0.0877
 9598SOL     OW33249   2.443   1.948   3.227 -0.2851 -0.3626 -0.0237
 9598SOL    HW133250   2.408   2.036   3.242  2.8216  1.1527 -0.7826
 9598SOL    HW233251   2.472   1.949   3.136  1.4695 -1.5155  0.4809
 9599SOL     OW33252   6.465   7.752   2.603 -0.4665 -0.5306 -0.5580
 9599SOL    HW133253   6.496   7.837   2.573  1.4543 -0.6817  0.8188
 9599SOL    HW233254   6.545   7.700   2.614 -1.2363 -1.2591  2.2527
 9600SOL     OW33255  10.963   5.026   0.367  0.2068 -0.5308 -0.2734
 9600SOL    HW133256  10.937   5.027   0.459 -0.0769 -2.8477 -0.2732
 9600SOL    HW233257  11.034   4.963   0.363  0.6062 -0.0245 -1.5581
 9601SOL     OW33258   0.944   1.014   6.474  0.0627 -0.6158 -0.7627
 9601SOL    HW133259   0.874   1.035   6.537  0.1567  0.4592 -1.0048
 9601SOL    HW233260   0.926   0.923   6.449 -2.5862  0.2273 -2.4556
 9602SOL     OW33261   8.884   7.340   9.421 -0.6756 -0.2384  1.0289
 9602SOL    HW133262   8.871   7.288   9.500 -0.4089 -0.4503  0.9317
 9602SOL    HW233263   8.950   7.293   9.370 -1.2076 -0.3649  0.4444
 9603SOL     OW33264   2.768   4.438   2.704  0.2525  0.0144  0.0395
 9603SOL    HW133265   2.811   4.384   2.638 -0.3628  0.1712 -0.4967
 9603SOL    HW233266   2.756   4.379   2.779 -1.8306 -1.1045 -1.0917
 9604SOL     OW33267   5.980   2.064   9.436 -0.0351 -0.0531  0.3343
 9604SOL    HW133268   6.076   2.067   9.428  0.2603 -2.6321  1.7695
 9604SOL    HW233269   5.950   2.023   9.355  0.1912 -0.1594  0.3038
 9605SOL     OW33270   7.242   8.365   2.091  0.2949  0.3814 -0.0388
 9605SOL    HW133271   7.291   8.430   2.142  0.6755 -0.9037  1.3210
 9605SOL    HW233272   7.265   8.384   2.000  2.5018  0.5361  0.4763
 9606SOL     OW33273   4.596   2.040  10.135  0.3709 -0.2138  0.2735
 9606SOL    HW133274   4.511   2.029  10.177 -0.0707 -1.4760 -0.8791
 9606SOL    HW233275   4.618   1.953  10.102  2.8287 -0.2665  1.8001
 9607SOL     OW33276   1.389   2.801   1.909  0.0604 -0.3867  0.1054
 9607SOL    HW133277   1.348   2.843   1.834 -0.4101 -2.3022 -0.7714
 9607SOL    HW233278   1.319   2.751   1.950  0.1394  1.1216  2.2745
 9608SOL     OW33279   9.153   1.411   6.118 -0.4700 -0.0283  0.1741
 9608SOL    HW133280   9.228   1.351   6.121 -0.3588  0.1433  1.2735
 9608SOL    HW233281   9.077   1.354   6.109 -0.6026 -0.6183  3.5596
 9609SOL     OW33282   7.374   7.959   7.381 -0.2916  0.1164  0.5413
 9609SOL    HW133283   7.439   8.027   7.398 -0.2252  0.8660 -2.1174
 9609SOL    HW233284   7.424   7.888   7.341 -0.7682 -0.2520  0.6002
 9610SOL     OW33285   2.843   1.563   0.711  0.0477  0.1344  0.4056
 9610SOL    HW133286   2.923   1.536   0.664  0.5849  0.4588  1.1200
 9610SOL    HW233287   2.772   1.532   0.655  0.6682  0.4521 -0.6094
 9611SOL     OW33288   7.931   5.225   5.908  0.1068  0.6568 -0.1887
 9611SOL    HW133289   7.906   5.201   5.998 -2.5530  0.8996 -0.7818
 9611SOL    HW233290   8.008   5.281   5.919  1.1113 -0.9724  1.7754
 9612SOL     OW33291   4.228   5.696  10.864  0.3892 -0.5248 -0.1823
 9612SOL    HW133292   4.249   5.621  10.808  0.7265 -0.1927 -0.5182
 9612SOL    HW233293   4.311   5.716  10.908  0.5051  0.1097 -0.6676
 9613SOL     OW33294   5.324   8.792   0.520 -0.1026 -0.5312  0.5694
 9613SOL    HW133295   5.309   8.884   0.544 -0.7409 -0.1336 -1.1920
 9613SOL    HW233296   5.249   8.745   0.556  0.5070 -0.4644  1.9578
 9614SOL     OW33297  10.625   6.446  10.955 -0.7688  0.1825 -0.6985
 9614SOL    HW133298  10.711   6.479  10.930 -0.9028 -0.6916 -2.4418
 9614SOL    HW233299  10.613   6.367  10.902 -2.1504 -0.3797  0.3842
 9615SOL     OW33300   1.500   6.406   0.449 -1.1476  0.1547 -0.1703
 9615SOL    HW133301   1.527   6.484   0.495 -1.9957  0.2415  0.1989
 9615SOL    HW233302   1.422   6.376   0.495 -1.2024 -0.5483 -0.6922
 9616SOL     OW33303   6.639   3.981  11.054  0.1716 -0.3081 -0.1163
 9616SOL    HW133304   6.631   3.891  11.023  0.9795 -0.7246  0.8325
 9616SOL    HW233305   6.609   3.978  11.145  0.3635  0.3480 -0.0266
 9617SOL     OW33306   4.378  10.678   3.374  0.0469  0.4654 -0.0237
 9617SOL    HW133307   4.389  10.610   3.308 -0.2253 -0.5131  0.9072
 9617SOL    HW233308   4.285  10.675   3.397  0.0164  1.2113 -0.0264
 9618SOL     OW33309   6.480   2.987   0.994  0.0025  0.1221 -0.7329
 9618SOL    HW133310   6.526   2.910   1.027  1.6926  1.8338  1.3320
 9618SOL    HW233311   6.396   2.987   1.039  0.4298 -0.0018  0.0823
 9619SOL     OW33312   7.997   3.748   5.714  0.6697  0.1383  0.5085
 9619SOL    HW133313   8.006   3.808   5.788 -0.1515  0.1808  0.5886
 9619SOL    HW233314   7.984   3.662   5.754  4.3918 -0.6116  0.4235
 9620SOL     OW33315   8.758   2.508   5.282  0.4440  0.1094  0.1156
 9620SOL    HW133316   8.707   2.429   5.300  1.8118 -0.5994  1.0582
 9620SOL    HW233317   8.716   2.576   5.335 -0.4945 -0.0532 -0.3864
 9621SOL     OW33318   7.322   1.705   9.516  0.1574  0.2582 -0.7593
 9621SOL    HW133319   7.302   1.788   9.473  0.8216  0.5523 -0.5139
 9621SOL    HW233320   7.399   1.724   9.570 -1.6733  0.3769  2.0040
 9622SOL     OW33321   9.357   7.444   7.923 -0.7038 -0.4363 -0.2788
 9622SOL    HW133322   9.431   7.388   7.903  0.5343  1.5461 -1.5446
 9622SOL    HW233323   9.381   7.488   8.005 -1.5259 -1.4476  0.5351
 9623SOL     OW33324   6.569   6.786   5.146  0.2360  0.2961  0.0328
 9623SOL    HW133325   6.591   6.713   5.087 -0.3170 -0.3164  0.5650
 9623SOL    HW233326   6.502   6.750   5.204 -1.1581  1.6938 -0.6539
 9624SOL     OW33327   0.255   3.705   4.089  0.2769  0.0512 -0.0770
 9624SOL    HW133328   0.212   3.679   4.171  0.9474 -0.1627  0.2104
 9624SOL    HW233329   0.331   3.756   4.117  1.5437 -1.5148 -0.4826
 9625SOL     OW33330  10.962   7.114   0.477 -0.0771  0.1768 -0.0127
 9625SOL    HW133331  10.868   7.129   0.461  0.0055 -0.6270 -1.3887
 9625SOL    HW233332  11.006   7.182   0.426  0.1029  1.1366  1.3624
 9626SOL     OW33333   0.717   1.688   2.795  0.3482 -0.2992  0.5147
 9626SOL    HW133334   0.687   1.721   2.880  1.2623 -0.5095  0.9372
 9626SOL    HW233335   0.743   1.598   2.813  3.7341  0.5976  0.8584
 9627SOL     OW33336   6.252   0.789   3.716 -0.2635  0.1838  0.1868
 9627SOL    HW133337   6.189   0.763   3.648 -1.3992  0.6311  1.0489
 9627SOL    HW233338   6.280   0.877   3.691 -0.4251  0.2148  0.1147
 9628SOL     OW33339   6.292   1.570   9.970  0.7594 -0.3213  0.3141
 9628SOL    HW133340   6.280   1.632   9.898  0.6010 -1.4221 -0.6543
 9628SOL    HW233341   6.274   1.620  10.049  0.3127  0.7709 -0.4555
 9629SOL     OW33342   9.937  10.162   1.545 -0.2541  0.4237 -0.4857
 9629SOL    HW133343   9.944  10.206   1.630  1.9261 -0.6508 -0.0375
 9629SOL    HW233344   9.844  10.142   1.536 -0.3147 -1.5777  2.8311
 9630SOL     OW33345   4.219   5.695   0.795 -0.6445  0.8992  0.8802
 9630SOL    HW133346   4.161   5.772   0.794 -0.4244  1.0645  0.5471
 9630SOL    HW233347   4.304   5.729   0.824 -0.3370  0.9429 -0.0333
 9631SOL     OW33348   5.514   7.413   6.303  0.2690  0.2554 -0.2827
 9631SOL    HW133349   5.547   7.339   6.252  1.3623  0.8550 -0.4625
 9631SOL    HW233350   5.438   7.444   6.254  0.4265 -0.0966 -0.7559
 9632SOL     OW33351   7.059   1.193   1.540  0.2796  0.0280 -0.9015
 9632SOL    HW133352   7.101   1.113   1.507 -1.5371 -0.2619 -2.6898
 9632SOL    HW233353   6.993   1.214   1.475  0.1158  2.5462 -0.0313
 9633SOL     OW33354   6.192   2.976   1.048 -0.1006  0.6729 -0.2341
 9633SOL    HW133355   6.229   2.895   1.013 -0.4950  0.0455  0.7547
 9633SOL    HW233356   6.201   2.967   1.143 -1.1068  1.3176 -0.0656
 9634SOL     OW33357   2.250   1.821   9.001  0.1639 -0.3343 -0.2817
 9634SOL    HW133358   2.243   1.726   8.990 -1.2319 -0.3544  0.5622
 9634SOL    HW233359   2.212   1.838   9.087 -2.2803  1.2385 -1.5394
 9635SOL     OW33360  10.622   4.191   6.716 -0.2677  0.4180  0.5527
 9635SOL    HW133361  10.699   4.215   6.767  0.1830 -1.5092  0.8379
 9635SOL    HW233362  10.657   4.155   6.634 -0.8439 -0.7580  0.8100
 9636SOL     OW33363   3.802   8.045   9.318  0.0394 -0.4416 -0.6495
 9636SOL    HW133364   3.875   8.041   9.379 -0.8731 -1.6382  0.4168
 9636SOL    HW233365   3.839   8.020   9.233  1.8788  3.6234 -1.2606
 9637SOL     OW33366   5.618   0.908   4.468 -0.0414 -0.1119 -0.2847
 9637SOL    HW133367   5.691   0.943   4.519  0.8322 -1.7022 -0.3698
 9637SOL    HW233368   5.655   0.894   4.380 -0.7988  0.1832 -0.6592
 9638SOL     OW33369   8.165  10.423  10.674 -0.4866 -0.5778 -0.2596
 9638SOL    HW133370   8.197  10.408  10.763 -2.2533  1.3409  0.7913
 9638SOL    HW233371   8.190  10.514  10.654  0.7690 -1.2664 -2.1912
 9639SOL     OW33372   4.120   2.971   1.819  0.0312 -0.3421  0.1237
 9639SOL    HW133373   4.171   2.931   1.889 -0.9450 -2.0390 -0.0833
 9639SOL    HW233374   4.036   2.993   1.859 -0.2553 -0.6068 -0.3127
 9640SOL     OW33375   9.518   8.949   6.293  0.0871 -0.4363 -0.6447
 9640SOL    HW133376   9.496   8.874   6.239 -1.4904 -0.6333  0.1794
 9640SOL    HW233377   9.541   8.911   6.378 -1.2833 -0.0288 -0.0478
 9641SOL     OW33378  10.007   7.209  10.885  0.2356  0.2730 -0.0783
 9641SOL    HW133379  10.037   7.241  10.800 -1.1945  3.3820  0.4355
 9641SOL    HW233380  10.054   7.262  10.949 -0.6690 -0.1427  0.9620
 9642SOL     OW33381   7.982   0.547   9.490 -0.2413  0.2172 -0.9255
 9642SOL    HW133382   8.062   0.501   9.462  1.0117  0.0616  2.4854
 9642SOL    HW233383   7.989   0.634   9.450  2.8428  0.9717  0.9499
 9643SOL     OW33384   4.363   9.798   5.656  0.1569 -0.0981  0.2062
 9643SOL    HW133385   4.309   9.753   5.591  0.4329  0.7580 -0.6289
 9643SOL    HW233386   4.314   9.787   5.738 -1.0371  0.2031 -0.4327
 9644SOL     OW33387   9.222   9.997   8.535  0.3264  0.4773 -0.4193
 9644SOL    HW133388   9.261  10.075   8.575  0.2599 -0.2018  1.0407
 9644SOL    HW233389   9.256   9.997   8.446  3.0678  0.3717  0.5001
 9645SOL     OW33390   7.630   7.815  10.956 -0.2313 -0.1415  0.0815
 9645SOL    HW133391   7.698   7.787  10.895  0.0007  0.3291  0.1210
 9645SOL    HW233392   7.603   7.735  11.000  0.7937 -0.2352  0.5614
 9646SOL     OW33393   7.951   3.335   5.827 -0.2347 -0.2448 -0.2796
 9646SOL    HW133394   7.941   3.354   5.920 -1.6582  2.9018 -0.9514
 9646SOL    HW233395   8.044   3.316   5.816  0.1385  0.3043  1.6405
 9647SOL     OW33396   0.933   3.581   0.088  0.2703  0.3406  0.1050
 9647SOL    HW133397   0.932   3.634   0.008  1.1435 -1.1480 -0.9438
 9647SOL    HW233398   0.873   3.626   0.147  0.2123  1.9277 -1.0927
 9648SOL     OW33399  11.050   2.126   1.236  0.3105  0.3013  0.3279
 9648SOL    HW133400  11.031   2.219   1.220  0.5921  0.1291 -1.1936
 9648SOL    HW233401  10.970   2.093   1.278 -0.0776  1.0779  0.2345
 9649SOL     OW33402   9.465   6.859   5.838 -0.5150 -0.2151  0.1280
 9649SOL    HW133403   9.474   6.796   5.909 -0.1832 -0.8131 -0.4300
 9649SOL    HW233404   9.549   6.906   5.837 -1.7209  2.2340  2.3522
 9650SOL     OW33405   2.180   6.906   3.710 -0.5383  0.1618 -0.1665
 9650SOL    HW133406   2.132   6.983   3.743 -0.7846  0.7488 -1.8080
 9650SOL    HW233407   2.237   6.941   3.641  0.0814 -0.9916 -0.2658
 9651SOL     OW33408   5.880   8.513   8.990 -0.2270 -0.2542 -0.1991
 9651SOL    HW133409   5.928   8.550   9.065 -0.4231 -1.0861  0.3445
 9651SOL    HW233410   5.946   8.506   8.921  0.4748 -1.4584  0.5654
 9652SOL     OW33411   9.969   1.339   0.190  0.6591  0.5391  0.1825
 9652SOL    HW133412   9.932   1.345   0.278 -1.1304  1.3879 -0.5580
 9652SOL    HW233413   9.983   1.246   0.175 -0.7553  0.2174  0.7177
 9653SOL     OW33414   1.862   2.251   1.879 -0.7884  0.0399  0.2124
 9653SOL    HW133415   1.837   2.169   1.922 -0.4372  0.4515  1.2515
 9653SOL    HW233416   1.780   2.285   1.844 -1.4144  0.4495  1.9526
 9654SOL     OW33417   7.030   5.260   7.970  0.2474 -0.0458  0.2433
 9654SOL    HW133418   7.084   5.338   7.954 -1.1453  0.7330 -0.9693
 9654SOL    HW233419   6.987   5.244   7.886 -1.4940 -0.5284  1.1783
 9655SOL     OW33420   5.115   8.546   9.769  0.0468  0.2956 -0.7676
 9655SOL    HW133421   5.067   8.485   9.826 -1.7594  2.1220 -0.2254
 9655SOL    HW233422   5.097   8.515   9.681 -1.1203  0.2044 -0.5119
 9656SOL     OW33423   2.301   7.140   5.854 -0.1416  0.1045  0.2443
 9656SOL    HW133424   2.395   7.138   5.838  0.0717  1.9737  0.9789
 9656SOL    HW233425   2.263   7.093   5.780  1.2558  1.0485 -1.1227
 9657SOL     OW33426   9.965   2.225   5.387  0.6706  0.1061  0.2848
 9657SOL    HW133427   9.890   2.279   5.410  0.9091  0.0879  1.1368
 9657SOL    HW233428   9.955   2.209   5.293  0.6498  1.7147 -0.0175
 9658SOL     OW33429   4.838   7.073   3.051 -0.1632  0.1918  0.0179
 9658SOL    HW133430   4.887   7.003   3.007  0.4070  0.2454  0.5618
 9658SOL    HW233431   4.798   7.123   2.980  2.0812  1.2737 -0.5487
 9659SOL     OW33432  10.063  10.411   8.214  0.9558 -0.5644 -0.5275
 9659SOL    HW133433  10.020  10.385   8.132 -0.0276 -0.0441 -0.1932
 9659SOL    HW233434  10.124  10.340   8.233  0.7490 -0.9863 -1.3917
 9660SOL     OW33435   5.988  10.033   9.065 -0.0869 -0.1358  0.2526
 9660SOL    HW133436   6.078  10.035   9.033  0.7494 -0.4210  2.4629
 9660SOL    HW233437   5.965  10.125   9.078  0.5655 -0.1277  1.4343
 9661SOL     OW33438   8.754   2.662   4.028  0.1681 -0.1229  0.2232
 9661SOL    HW133439   8.801   2.659   4.112 -0.8689 -0.1751  0.8090
 9661SOL    HW233440   8.736   2.755   4.015 -1.1099 -0.2617  0.8825
 9662SOL     OW33441   7.495   5.192   1.509  0.1843 -0.3978  0.3534
 9662SOL    HW133442   7.424   5.247   1.476  0.9009  0.5494  0.3236
 9662SOL    HW233443   7.496   5.115   1.452 -0.3368 -0.0620 -0.1113
 9663SOL     OW33444   5.903   0.262   3.023  0.4390  0.1864 -0.3637
 9663SOL    HW133445   5.872   0.345   2.988 -0.1368  0.4662  0.8066
 9663SOL    HW233446   5.866   0.196   2.964  0.1331  0.6936 -0.7447
 9664SOL     OW33447   1.224   6.012   3.173  0.1841 -0.4445 -0.8446
 9664SOL    HW133448   1.173   6.066   3.112 -1.1761 -1.7247 -0.9292
 9664SOL    HW233449   1.247   6.070   3.245 -3.1431 -0.1708  0.1657
 9665SOL     OW33450  10.360   6.478   1.204  0.0053 -0.0700  0.3274
 9665SOL    HW133451  10.376   6.407   1.267  0.3402 -1.9561 -1.7510
 9665SOL    HW233452  10.328   6.433   1.126 -0.3235  2.1768 -0.8899
 9666SOL     OW33453   8.026   4.071   1.241  0.4275 -0.2801 -0.0203
 9666SOL    HW133454   7.985   4.085   1.326  2.0929 -3.0001  1.3595
 9666SOL    HW233455   8.119   4.068   1.259  0.8178 -1.2351 -1.9196
 9667SOL     OW33456   7.157   3.653  10.130  0.2198  0.1252 -0.2953
 9667SOL    HW133457   7.167   3.574  10.078 -0.0686 -0.0979 -0.0166
 9667SOL    HW233458   7.203   3.721  10.080  0.1081 -0.1235 -0.7387
 9668SOL     OW33459  10.484   3.406   5.608 -0.7812  0.1891 -0.3856
 9668SOL    HW133460  10.514   3.463   5.537  1.5238  1.5469  1.5172
 9668SOL    HW233461  10.438   3.464   5.668 -0.0234 -0.2951  0.6912
 9669SOL     OW33462  10.037   7.858   9.482 -0.2846  0.8838  0.1355
 9669SOL    HW133463  10.115   7.834   9.432 -1.2305 -0.8472 -0.6096
 9669SOL    HW233464  10.070   7.890   9.566  1.2429  1.3206 -0.6081
 9670SOL     OW33465   0.739   1.276   5.673  0.3330  0.1471 -0.1480
 9670SOL    HW133466   0.656   1.235   5.649  0.2632  1.0447 -1.5213
 9670SOL    HW233467   0.770   1.224   5.747 -0.8171 -1.0121 -0.4373
 9671SOL     OW33468  10.753   2.418   2.397  0.0206 -0.2268 -0.1279
 9671SOL    HW133469  10.826   2.358   2.386  1.4551  1.2819  0.6558
 9671SOL    HW233470  10.710   2.389   2.478 -0.1198 -0.9732 -0.4637
 9672SOL     OW33471   1.412   7.353   3.868 -0.3722 -0.0559 -0.4209
 9672SOL    HW133472   1.360   7.412   3.923 -0.2180 -0.0199 -0.3146
 9672SOL    HW233473   1.383   7.372   3.779  1.8332  2.3730 -0.7258
 9673SOL     OW33474   8.893   0.698  10.048 -0.3371  0.4312  0.0464
 9673SOL    HW133475   8.966   0.729   9.994  1.2143 -0.2599  1.6252
 9673SOL    HW233476   8.881   0.607  10.021 -0.7542  0.6086 -0.3610
 9674SOL     OW33477  10.335   5.067   1.030  0.3215 -0.3848 -0.1770
 9674SOL    HW133478  10.270   5.019   0.979  1.6570 -1.1101 -1.2673
 9674SOL    HW233479  10.369   5.004   1.092 -1.2801  0.4922  1.7011
 9675SOL     OW33480   5.347   8.514   2.823 -0.1667  0.5646  0.3050
 9675SOL    HW133481   5.421   8.539   2.767  0.2593 -1.7679 -0.2684
 9675SOL    HW233482   5.271   8.517   2.764  0.0854 -0.6652 -0.1069
 9676SOL     OW33483   2.180   2.226   9.639  0.1923  0.3789  0.2191
 9676SOL    HW133484   2.117   2.259   9.704  0.9936 -0.2330  1.3538
 9676SOL    HW233485   2.126   2.191   9.568 -0.7227  0.8465  0.6731
 9677SOL     OW33486   2.321   0.484   5.157 -0.2584 -0.3796 -0.0812
 9677SOL    HW133487   2.396   0.512   5.105 -0.6181 -0.0167 -0.4073
 9677SOL    HW233488   2.358   0.464   5.243  0.0255  1.0115  0.1462
 9678SOL     OW33489   1.932   5.341   3.523  0.2120 -0.0314  0.2173
 9678SOL    HW133490   1.906   5.390   3.445  0.3716 -0.0638  0.1420
 9678SOL    HW233491   1.992   5.274   3.490  1.4566  0.8801  0.5493
 9679SOL     OW33492   0.415   4.227  11.013  0.3290  0.5581  0.0367
 9679SOL    HW133493   0.499   4.273  11.014  1.1773 -0.9434  1.1871
 9679SOL    HW233494   0.435   4.140  11.047 -1.3104 -0.5497 -1.6723
 9680SOL     OW33495   4.973   4.187   6.768 -0.0112  0.6879  0.1210
 9680SOL    HW133496   5.009   4.103   6.740 -1.3563 -0.1103  0.6545
 9680SOL    HW233497   4.918   4.215   6.695 -0.4846  0.5091  0.4008
 9681SOL     OW33498   8.637   7.763   9.075 -0.0295  0.1685  0.5814
 9681SOL    HW133499   8.674   7.763   8.986  0.4715  0.1343  0.7874
 9681SOL    HW233500   8.700   7.813   9.127 -0.8078  1.0239  0.7255
 9682SOL     OW33501   6.364   4.109   5.404  0.1272  0.1922  0.3347
 9682SOL    HW133502   6.296   4.137   5.344 -0.1120  0.9751  0.9628
 9682SOL    HW233503   6.319   4.055   5.469  0.2417  0.0706  0.3159
 9683SOL     OW33504   7.235   2.570  10.797  0.5614 -0.0686  0.1997
 9683SOL    HW133505   7.220   2.592  10.705  2.2990 -0.1056 -0.1255
 9683SOL    HW233506   7.215   2.477  10.803 -0.4834  0.1368  0.0931
 9684SOL     OW33507   6.264   8.682   5.592  0.6306  0.5891  0.1834
 9684SOL    HW133508   6.326   8.668   5.519  2.3441  0.6398  1.5614
 9684SOL    HW233509   6.310   8.648   5.669 -1.5857 -0.5146  1.1137
 9685SOL     OW33510  11.030   9.214   1.819  0.5418 -0.1665  0.3790
 9685SOL    HW133511  10.998   9.305   1.822 -2.3030 -1.0882  1.2775
 9685SOL    HW233512  11.076   9.202   1.902  1.9886  0.7494 -0.2537
 9686SOL     OW33513   0.501   0.746   0.594  0.0626 -0.7358 -0.3944
 9686SOL    HW133514   0.485   0.694   0.672  2.6743 -1.3096 -0.1426
 9686SOL    HW233515   0.525   0.682   0.527  0.0612 -0.0987 -1.0180
 9687SOL     OW33516   1.526  10.003   7.781  0.0440  0.3330  0.2052
 9687SOL    HW133517   1.448   9.957   7.748 -0.6803  1.6859 -0.0305
 9687SOL    HW233518   1.507  10.019   7.873  1.0503 -1.3200  0.7600
 9688SOL     OW33519   5.488   7.504   8.276 -0.2343  0.2704  0.0371
 9688SOL    HW133520   5.503   7.445   8.202 -1.9969  0.9845 -0.9533
 9688SOL    HW233521   5.435   7.453   8.337 -0.8114  0.4336 -0.3135
 9689SOL     OW33522   2.758   8.024   3.954  0.3522 -0.1690  0.1046
 9689SOL    HW133523   2.764   7.932   3.932 -1.1448 -0.4957  0.9295
 9689SOL    HW233524   2.701   8.062   3.886 -1.2926 -0.4431  1.2832
 9690SOL     OW33525   9.781   8.787   2.101  0.0852  0.3789  0.2771
 9690SOL    HW133526   9.756   8.877   2.077 -1.6846 -0.6225 -2.0400
 9690SOL    HW233527   9.874   8.781   2.078  0.5031  1.8816  1.4360
 9691SOL     OW33528  10.798   0.900   2.762 -0.1404  0.2705  0.7198
 9691SOL    HW133529  10.772   0.886   2.852 -2.9432 -0.3566 -0.0980
 9691SOL    HW233530  10.801   0.812   2.723 -0.2756  0.6212 -0.1107
 9692SOL     OW33531   1.328   7.980   6.054 -0.5033 -0.0970 -0.2467
 9692SOL    HW133532   1.270   8.046   6.016 -0.5299  0.7390  1.1846
 9692SOL    HW233533   1.292   7.897   6.024 -0.5481  0.5089 -1.9845
 9693SOL     OW33534  10.464   7.449   5.504  0.3638  0.0840  0.3757
 9693SOL    HW133535  10.538   7.505   5.528  1.2030 -0.4777 -0.7923
 9693SOL    HW233536  10.390   7.509   5.493  1.3332  1.0622 -1.2330
 9694SOL     OW33537   9.527  11.070   3.943  0.1487 -0.1759  0.5120
 9694SOL    HW133538   9.612  11.094   3.906 -0.5775  1.8777  0.0492
 9694SOL    HW233539   9.511  11.137   4.010 -1.8728  0.5448 -0.6334
 9695SOL     OW33540   8.258   4.139   5.628  0.1097  0.1396 -0.2057
 9695SOL    HW133541   8.312   4.078   5.678  2.2339  0.0968 -2.3707
 9695SOL    HW233542   8.235   4.092   5.548 -0.2686  1.3518 -0.8377
 9696SOL     OW33543   5.575   1.994   5.520  0.5325 -0.4117 -0.1335
 9696SOL    HW133544   5.577   2.082   5.558 -0.4785 -0.8022  0.8681
 9696SOL    HW233545   5.503   1.950   5.565 -0.6269 -0.9596 -2.3793
 9697SOL     OW33546  10.018  10.512   3.928  0.3672  0.1034  0.0881
 9697SOL    HW133547   9.970  10.518   4.011  0.9279  0.7456  0.3733
 9697SOL    HW233548  10.001  10.422   3.898  0.0284 -0.0912  0.8174
 9698SOL     OW33549   8.351   5.972   4.164 -0.8015  0.1077 -0.5149
 9698SOL    HW133550   8.420   5.996   4.226  0.0187  0.2901 -1.4705
 9698SOL    HW233551   8.276   6.025   4.189 -0.3881  0.3922  0.1400
 9699SOL     OW33552   8.355   3.278   1.660 -0.5467  0.4599  0.7406
 9699SOL    HW133553   8.343   3.277   1.565 -2.3916  0.4328  0.9354
 9699SOL    HW233554   8.436   3.327   1.673 -0.5267  0.9132 -0.8132
 9700SOL     OW33555   8.884   0.277  11.012  0.3736 -0.3459 -0.1237
 9700SOL    HW133556   8.856   0.206  10.954  0.9094 -0.4615 -0.2460
 9700SOL    HW233557   8.864   0.357  10.964 -2.7178 -0.2634  1.0728
 9701SOL     OW33558   8.703   7.236   0.642  0.1134 -0.0490  0.4611
 9701SOL    HW133559   8.609   7.224   0.658  0.2115  0.0529  1.1303
 9701SOL    HW233560   8.736   7.148   0.624  0.0177 -0.1837  0.9369
 9702SOL     OW33561  10.573   7.168   6.646  0.5082 -0.0548 -0.1456
 9702SOL    HW133562  10.559   7.215   6.564  0.4278 -0.6609 -0.4848
 9702SOL    HW233563  10.532   7.223   6.712 -0.4086 -0.0999 -0.6612
 9703SOL     OW33564   4.013   4.183  10.480 -0.4290  0.4534  0.1939
 9703SOL    HW133565   3.968   4.099  10.491 -2.6115  1.5336  0.1988
 9703SOL    HW233566   4.075   4.168  10.409 -3.3198 -0.3373 -2.4026
 9704SOL     OW33567   0.424  10.494   5.997  0.0159  0.4449 -0.2496
 9704SOL    HW133568   0.427  10.581   5.959  0.0181  1.4107  1.8384
 9704SOL    HW233569   0.338  10.488   6.038  0.8591  0.3859  1.6032
 9705SOL     OW33570   1.542   3.245   4.775  0.2200  0.1047  0.1894
 9705SOL    HW133571   1.586   3.178   4.828  0.3866  0.0514 -0.0158
 9705SOL    HW233572   1.556   3.218   4.685  1.5250  1.1549  0.0376
 9706SOL     OW33573   0.927   6.524   1.001  0.8729  0.5827  0.2160
 9706SOL    HW133574   0.944   6.616   0.979  0.3252  0.6573  0.0954
 9706SOL    HW233575   0.902   6.526   1.093  0.4520  0.6089  0.1038
 9707SOL     OW33576   2.651   9.509   7.246 -0.4048  0.0595 -0.0988
 9707SOL    HW133577   2.572   9.545   7.206 -0.6282 -0.5506 -0.2162
 9707SOL    HW233578   2.703   9.586   7.269 -1.2056  0.4849  0.3504
 9708SOL     OW33579   0.398   9.471   5.491  0.0295 -0.0892 -0.0454
 9708SOL    HW133580   0.315   9.432   5.463 -0.1878 -0.7182  1.3874
 9708SOL    HW233581   0.382   9.565   5.487 -1.7769 -0.1477  2.8432
 9709SOL     OW33582   3.249   5.692   3.841 -0.2374 -0.5682  0.3648
 9709SOL    HW133583   3.288   5.779   3.846  1.1044 -1.2324  2.9972
 9709SOL    HW233584   3.161   5.708   3.809  0.3463  1.6126 -0.3720
 9710SOL     OW33585   6.436   0.310   4.828 -0.4082 -0.1630  0.3583
 9710SOL    HW133586   6.435   0.286   4.736 -1.6483 -0.2975  0.3929
 9710SOL    HW233587   6.390   0.394   4.832 -0.4736 -0.2151  0.8663
 9711SOL     OW33588   7.624   1.088   8.117 -0.4090  0.1030  0.1218
 9711SOL    HW133589   7.571   1.044   8.183  0.1109 -1.0705 -0.2078
 9711SOL    HW233590   7.576   1.077   8.035  0.5531 -1.5046 -0.2937
 9712SOL     OW33591   7.588   7.366   7.542  0.0230  0.6293 -0.1033
 9712SOL    HW133592   7.519   7.407   7.594  0.3355 -1.2626  1.9459
 9712SOL    HW233593   7.558   7.277   7.526  1.2604  0.2761 -0.6286
 9713SOL     OW33594   1.167   8.113   7.721 -0.6915  0.0060 -0.5822
 9713SOL    HW133595   1.095   8.175   7.739 -0.9765 -0.3023 -0.6586
 9713SOL    HW233596   1.143   8.072   7.638 -0.5317 -0.2468 -0.5031
 9714SOL     OW33597   7.103   8.676   1.062  0.1789 -0.5837  0.1052
 9714SOL    HW133598   7.168   8.744   1.079 -1.8409  1.0783  1.8493
 9714SOL    HW233599   7.047   8.713   0.993 -0.5944 -0.7170  0.6513
 9715SOL     OW33600   3.102   8.210   8.160 -0.2266 -0.1845  0.4939
 9715SOL    HW133601   3.060   8.296   8.162 -1.6246 -0.7920 -0.9521
 9715SOL    HW233602   3.030   8.148   8.170  0.9412 -1.2411  3.5788
 9716SOL     OW33603   9.010   5.588   4.981  0.3346 -1.2138 -0.1855
 9716SOL    HW133604   8.960   5.540   4.914  0.4706 -0.9339 -0.4920
 9716SOL    HW233605   8.953   5.590   5.057 -1.0259  0.9365 -1.1707
 9717SOL     OW33606   8.277   6.316   9.464  0.4179  0.5328 -0.1420
 9717SOL    HW133607   8.246   6.359   9.544 -1.0102  0.3160 -0.5574
 9717SOL    HW233608   8.360   6.276   9.490  0.5248  1.3893  0.9294
 9718SOL     OW33609   5.110   7.709   6.912 -0.0660 -0.0922  0.6417
 9718SOL    HW133610   5.173   7.772   6.878 -0.5295  0.4072  0.6905
 9718SOL    HW233611   5.120   7.712   7.007  0.5697 -0.7946  0.6073
 9719SOL     OW33612   7.919  10.929   9.244  0.2081 -0.8542  0.7444
 9719SOL    HW133613   8.004  10.900   9.278  0.0139 -0.0076  2.0255
 9719SOL    HW233614   7.871  10.958   9.322 -0.9627 -0.5812 -0.0603
 9720SOL     OW33615   3.798   3.956   5.398  0.2448  0.2635 -0.3656
 9720SOL    HW133616   3.762   3.928   5.482 -0.7512  3.2787  0.3278
 9720SOL    HW233617   3.859   3.886   5.374 -0.3605 -1.2938  2.2159
 9721SOL     OW33618   2.462   5.052   1.377  0.0230  0.0668  0.0150
 9721SOL    HW133619   2.528   5.057   1.308  0.4928  1.6052  0.5365
 9721SOL    HW233620   2.416   4.970   1.360  1.4563 -0.5882 -0.9022
 9722SOL     OW33621   7.664   2.848   5.450 -0.7609 -0.0534 -0.2702
 9722SOL    HW133622   7.664   2.781   5.518 -0.9490 -0.4193 -0.6214
 9722SOL    HW233623   7.755   2.855   5.422 -0.8422 -0.6416 -0.6910
 9723SOL     OW33624   3.705   3.407   5.319 -0.3283 -0.3054 -0.3352
 9723SOL    HW133625   3.762   3.474   5.280 -0.0981 -2.1952 -3.6102
 9723SOL    HW233626   3.624   3.413   5.269 -1.9559  0.2328  2.1704
 9724SOL     OW33627  11.057   1.465   7.763  0.2935  0.5722 -0.7184
 9724SOL    HW133628  10.988   1.409   7.728 -1.4023  3.8382 -3.1482
 9724SOL    HW233629  11.117   1.478   7.690  2.1196 -0.0801  0.5915
 9725SOL     OW33630   9.880  10.218   9.510 -0.3371 -0.1863 -0.6272
 9725SOL    HW133631   9.887  10.147   9.573  1.8355 -0.7196 -1.3994
 9725SOL    HW233632   9.788  10.246   9.515 -1.1710 -2.7867 -0.0613
 9726SOL     OW33633   9.401   7.568   9.218  0.2374 -0.1034 -0.4435
 9726SOL    HW133634   9.315   7.566   9.177 -0.0882 -1.5531  0.2429
 9726SOL    HW233635   9.451   7.499   9.175  0.8691  0.3302 -0.4267
 9727SOL     OW33636   9.760   8.545   0.128  0.2698  0.1242  0.2451
 9727SOL    HW133637   9.741   8.528   0.035  0.4625  0.1105  0.2085
 9727SOL    HW233638   9.690   8.604   0.156 -1.5584 -2.2413  0.8930
 9728SOL     OW33639  10.043   0.166   7.271 -0.3142 -0.1979  0.1481
 9728SOL    HW133640   9.994   0.126   7.342  0.4318 -1.5785 -0.0739
 9728SOL    HW233641  10.028   0.109   7.196  0.5299  0.0968 -0.2672
 9729SOL     OW33642   4.605   3.428   4.685  0.2930 -0.1809 -0.0305
 9729SOL    HW133643   4.592   3.444   4.591  0.5217 -1.8480 -0.3856
 9729SOL    HW233644   4.650   3.506   4.716 -2.5541  1.8543 -0.5950
 9730SOL     OW33645   1.445   8.353   2.033  0.1343 -0.3854 -0.7159
 9730SOL    HW133646   1.377   8.384   1.973  0.4897  0.1495 -0.8388
 9730SOL    HW233647   1.522   8.341   1.978  0.2914 -0.4734 -0.4749
 9731SOL     OW33648   1.206   8.267   9.480 -0.7034 -0.0162  0.5308
 9731SOL    HW133649   1.251   8.184   9.492 -0.4353 -0.7665 -3.9662
 9731SOL    HW233650   1.246   8.326   9.544  1.3487 -2.5266  1.7048
 9732SOL     OW33651   8.431   5.121   6.950 -0.4783 -0.4529  0.1505
 9732SOL    HW133652   8.380   5.153   7.025  1.1023 -0.7864  1.4268
 9732SOL    HW233653   8.479   5.046   6.984 -0.6947 -1.4405 -1.5807
 9733SOL     OW33654   0.427   4.531   6.567  0.2723 -0.4516 -0.4390
 9733SOL    HW133655   0.476   4.533   6.649  0.4007 -2.4403 -0.4354
 9733SOL    HW233656   0.362   4.601   6.577  0.2985 -0.6323  1.3527
 9734SOL     OW33657   8.805   1.920   9.877 -0.5373 -0.0794  0.5643
 9734SOL    HW133658   8.847   1.897   9.960  2.5067  1.0804 -0.4970
 9734SOL    HW233659   8.862   1.988   9.840 -2.9175  0.9092 -1.5488
 9735SOL     OW33660   8.176   0.344   1.074  0.0670  0.3973 -0.1589
 9735SOL    HW133661   8.227   0.383   1.146 -1.4789 -0.1268  1.2938
 9735SOL    HW233662   8.134   0.419   1.032 -0.0196  0.6219  0.3127
 9736SOL     OW33663   0.834   3.017   3.906  0.4788 -0.6255  0.3007
 9736SOL    HW133664   0.888   2.946   3.942 -1.3125 -1.1408  2.1256
 9736SOL    HW233665   0.750   3.008   3.950 -0.5292  1.2811 -1.1081
 9737SOL     OW33666   7.608   7.781   9.746 -0.1294  0.4088 -0.0451
 9737SOL    HW133667   7.587   7.864   9.788  3.6656  1.5244 -0.0087
 9737SOL    HW233668   7.570   7.788   9.658 -2.4979  0.8017  0.9500
 9738SOL     OW33669   2.068   0.684   1.605  0.1841 -0.5882  0.5902
 9738SOL    HW133670   2.136   0.745   1.577 -2.0129  1.9035  0.3126
 9738SOL    HW233671   2.095   0.600   1.569  2.2420  0.6388 -0.9403
 9739SOL     OW33672   7.906  11.009   5.031 -0.4030 -0.2184  0.5077
 9739SOL    HW133673   7.873  10.997   4.942 -1.7205  0.0143  0.9348
 9739SOL    HW233674   8.000  11.017   5.021 -0.5256 -0.2333 -0.8636
 9740SOL     OW33675  10.254   2.179   8.638 -0.2984 -0.6227  0.4623
 9740SOL    HW133676  10.311   2.116   8.681  0.0394  0.2694  1.3492
 9740SOL    HW233677  10.180   2.190   8.697 -0.4185 -0.2816  0.2545
 9741SOL     OW33678   2.006   3.017   6.387  0.2279 -0.4778 -0.8649
 9741SOL    HW133679   2.089   3.023   6.340  0.7156  0.6820  0.0858
 9741SOL    HW233680   1.967   2.935   6.358  1.5645 -0.8835 -1.5585
 9742SOL     OW33681   5.829  10.867   3.591  0.1475 -0.7042 -0.4380
 9742SOL    HW133682   5.771  10.811   3.540 -0.6732  0.1144 -0.4394
 9742SOL    HW233683   5.856  10.813   3.666 -1.6081 -0.7155  0.2238
 9743SOL     OW33684   0.519   5.590   3.329  0.3460  0.7747  0.6884
 9743SOL    HW133685   0.607   5.578   3.365  0.6183 -0.3093 -0.2748
 9743SOL    HW233686   0.461   5.559   3.398  0.7970  0.0215  0.7410
 9744SOL     OW33687   8.295   6.388   1.130 -0.0768  0.1026 -0.4585
 9744SOL    HW133688   8.368   6.327   1.121 -1.5862 -1.7147 -0.7772
 9744SOL    HW233689   8.252   6.387   1.044  0.1203  2.0246 -0.6404
 9745SOL     OW33690   2.595   3.915  10.643  0.4654 -0.0368  0.1455
 9745SOL    HW133691   2.562   3.827  10.660  0.5750  0.0623  0.8743
 9745SOL    HW233692   2.619   3.949  10.729 -0.3941  1.0393 -0.0226
 9746SOL     OW33693   5.586   1.831   0.508  0.2119 -0.1768 -0.2186
 9746SOL    HW133694   5.639   1.752   0.508  1.5401  0.6685 -1.3084
 9746SOL    HW233695   5.557   1.841   0.598 -0.2638 -2.0625 -0.1226
 9747SOL     OW33696   1.822   2.028  10.709  0.2497  0.4255  0.1895
 9747SOL    HW133697   1.864   2.030  10.623 -1.2001 -1.2479 -0.6131
 9747SOL    HW233698   1.746   2.086  10.700 -0.0801  0.0026  0.2346
 9748SOL     OW33699   0.290   8.486   1.275 -0.0650  0.0193 -0.1757
 9748SOL    HW133700   0.234   8.547   1.325 -0.6783 -0.2619 -0.5167
 9748SOL    HW233701   0.313   8.418   1.338  2.2365  1.5467  0.8056
 9749SOL     OW33702   5.475   9.957   3.983  0.6286  0.0035  0.2921
 9749SOL    HW133703   5.483  10.017   3.909 -0.3736 -0.7365 -0.4407
 9749SOL    HW233704   5.488   9.870   3.945 -1.6913 -0.5374  0.5968
 9750SOL     OW33705   8.742   6.958  10.859  0.6386 -0.5262 -0.0960
 9750SOL    HW133706   8.826   6.999  10.839  1.7010 -2.3776  0.3140
 9750SOL    HW233707   8.761   6.896  10.929 -1.5815  0.6846  1.7113
 9751SOL     OW33708   5.432   2.447   3.381  0.3928 -0.8361 -0.0992
 9751SOL    HW133709   5.506   2.505   3.396 -1.4581  1.9768 -1.1668
 9751SOL    HW233710   5.415   2.408   3.467  3.0110 -1.5981  0.1757
 9752SOL     OW33711   0.672   6.844   1.467 -0.4117  0.2872  0.3729
 9752SOL    HW133712   0.604   6.905   1.437  1.5106  1.7033 -1.3886
 9752SOL    HW233713   0.643   6.759   1.435 -0.1238  1.2516 -2.8553
 9753SOL     OW33714   6.173   2.726   5.886 -0.2904 -0.7082  0.6332
 9753SOL    HW133715   6.124   2.792   5.936 -0.6006 -0.8492  0.5230
 9753SOL    HW233716   6.121   2.715   5.806 -0.8929 -1.9603  1.1738
 9754SOL     OW33717   9.611   1.375   0.187  0.4286 -0.1921 -0.6062
 9754SOL    HW133718   9.663   1.398   0.111  1.7422 -0.8539  0.0612
 9754SOL    HW233719   9.594   1.281   0.176 -0.0925 -0.1128 -0.4965
 9755SOL     OW33720   0.731   2.782   8.564  0.4097  0.2879  0.3072
 9755SOL    HW133721   0.694   2.870   8.576  1.1134  0.3438  2.6898
 9755SOL    HW233722   0.659   2.723   8.585  0.0558  0.2876 -0.8739
 9756SOL     OW33723   4.455   8.038   3.675  0.3410  0.8745  0.2756
 9756SOL    HW133724   4.544   8.039   3.639  0.0583  0.1620 -0.4990
 9756SOL    HW233725   4.456   7.968   3.740 -0.3462 -1.1307 -1.7409
 9757SOL     OW33726   1.315   0.141   6.800 -0.0336 -0.7991 -0.0048
 9757SOL    HW133727   1.379   0.167   6.865  1.1757 -0.0278 -1.4431
 9757SOL    HW233728   1.246   0.208   6.805  0.1984 -0.5814  0.2793
 9758SOL     OW33729  10.705   6.960   7.063 -0.1202  0.1109 -0.4991
 9758SOL    HW133730  10.610   6.952   7.054  0.0212 -1.7443 -0.6080
 9758SOL    HW233731  10.738   6.957   6.973  0.0511  1.0015 -0.4797
 9759SOL     OW33732   6.440   9.884   0.833  0.0684  0.0361  0.0707
 9759SOL    HW133733   6.401   9.969   0.815  1.9066  0.6881 -1.2060
 9759SOL    HW233734   6.431   9.873   0.927  0.0705  1.8103  0.3168
 9760SOL     OW33735   4.423   5.553   7.248 -0.3853  0.3865  0.4048
 9760SOL    HW133736   4.380   5.638   7.258 -0.2020  0.3483  1.6541
 9760SOL    HW233737   4.499   5.571   7.193 -1.0522  0.7768 -0.4091
 9761SOL     OW33738   1.437   3.993   4.180  0.3424 -0.7202  0.7184
 9761SOL    HW133739   1.455   3.978   4.273  1.5752 -2.7359  0.2311
 9761SOL    HW233740   1.517   3.965   4.136 -1.0365 -2.0329 -1.0834
 9762SOL     OW33741   0.507   7.689  10.711 -0.0559 -0.0142  0.1100
 9762SOL    HW133742   0.479   7.738  10.634  0.8552 -0.6741 -0.6591
 9762SOL    HW233743   0.600   7.709  10.720 -0.0285 -0.3802  0.7094
 9763SOL     OW33744  10.996   4.482  10.074  0.1542 -0.0863  0.1467
 9763SOL    HW133745  10.913   4.449  10.108 -1.0336  1.4518 -1.1141
 9763SOL    HW233746  10.973   4.525   9.992  1.8685  2.1893  0.7552
 9764SOL     OW33747   7.329   6.700   5.431 -0.0901 -0.4312 -0.0847
 9764SOL    HW133748   7.336   6.674   5.523  0.2973  0.7750  0.2446
 9764SOL    HW233749   7.238   6.685   5.408 -0.1044 -1.1012  0.3758
 9765SOL     OW33750   8.334   3.396  10.657 -0.2601  0.1297 -0.0205
 9765SOL    HW133751   8.416   3.354  10.631 -0.1733 -0.5422  1.3068
 9765SOL    HW233752   8.281   3.396  10.577  0.3554 -1.0230 -0.4433
 9766SOL     OW33753  10.985   8.770   2.442 -0.2686 -0.0625  0.3767
 9766SOL    HW133754  10.895   8.798   2.461  0.0834  1.6605 -0.3399
 9766SOL    HW233755  10.977   8.721   2.360 -0.3461  1.6533 -0.6854
 9767SOL     OW33756   5.234   6.949  10.918  0.4454  0.3079 -0.1276
 9767SOL    HW133757   5.222   7.043  10.903  1.6570  0.5055  0.0366
 9767SOL    HW233758   5.272   6.917  10.836 -1.8112 -0.4555 -0.9519
 9768SOL     OW33759   8.387   7.000   2.699 -0.1322  0.1735 -0.3236
 9768SOL    HW133760   8.438   6.922   2.676  3.0732  1.6809  1.0706
 9768SOL    HW233761   8.439   7.073   2.667 -1.3985  1.8797  1.2792
 9769SOL     OW33762   3.491   8.615   9.076  0.2844 -0.3326  0.0117
 9769SOL    HW133763   3.556   8.592   9.143  0.5725  1.4882  0.3905
 9769SOL    HW233764   3.474   8.708   9.089 -1.8847 -0.5815 -0.5388
 9770SOL     OW33765   0.800   2.277   5.429  0.6220 -0.5279  0.5402
 9770SOL    HW133766   0.780   2.208   5.492  2.3088 -0.5936  1.0440
 9770SOL    HW233767   0.735   2.265   5.359 -0.1922 -1.5294  1.4309
 9771SOL     OW33768   6.293   4.129   9.341 -0.2738 -0.4679 -0.2839
 9771SOL    HW133769   6.382   4.153   9.317  0.1578 -1.4975  0.2554
 9771SOL    HW233770   6.238   4.188   9.289  0.6931 -0.5112 -1.3903
 9772SOL     OW33771   8.341   3.412   2.727  0.0578  0.6618 -0.1513
 9772SOL    HW133772   8.277   3.369   2.670 -1.0782  2.5913 -0.4182
 9772SOL    HW233773   8.314   3.390   2.816  0.7635 -0.8652 -0.2772
 9773SOL     OW33774   0.310   3.842  10.776 -0.2130  0.1052 -0.0634
 9773SOL    HW133775   0.270   3.926  10.753  0.7186  0.8667  0.9930
 9773SOL    HW233776   0.404   3.860  10.779 -0.0206 -0.9102  0.4400
 9774SOL     OW33777   1.794   1.777   1.360 -0.0928  0.4170 -0.0224
 9774SOL    HW133778   1.855   1.846   1.336  1.2398 -0.5949  0.3608
 9774SOL    HW233779   1.750   1.754   1.278  0.1061  1.0813 -0.3167
 9775SOL     OW33780   6.747   3.591   3.738  1.3555  0.1259 -0.3333
 9775SOL    HW133781   6.695   3.513   3.758  0.2412  1.0124  0.3280
 9775SOL    HW233782   6.776   3.578   3.647 -0.8155  0.0237 -1.0694
 9776SOL     OW33783   5.359   0.673   1.279 -0.1050  0.2687  0.3556
 9776SOL    HW133784   5.325   0.702   1.364 -0.2949  0.9085  0.0626
 9776SOL    HW233785   5.349   0.577   1.282  2.3830 -0.0360  2.1305
 9777SOL     OW33786   1.640   6.333   8.908  0.4762 -0.0432  0.2963
 9777SOL    HW133787   1.565   6.285   8.872  1.2763 -0.7878 -0.4167
 9777SOL    HW233788   1.604   6.381   8.982 -1.0487  0.9109 -1.0073
 9778SOL     OW33789   2.717   7.003   7.314  0.6502  0.5276  0.0002
 9778SOL    HW133790   2.633   6.961   7.329 -0.1277  0.8623 -2.8110
 9778SOL    HW233791   2.725   7.068   7.384 -0.8601 -0.2786  0.9681
 9779SOL     OW33792   7.906   5.951   1.314  0.1393 -0.1252 -1.2371
 9779SOL    HW133793   7.830   5.984   1.360  2.6128  1.1742  2.2888
 9779SOL    HW233794   7.894   5.856   1.313 -0.5271 -0.1238  1.2841
 9780SOL     OW33795   7.221   6.956   4.815 -0.3526 -0.1993  0.1072
 9780SOL    HW133796   7.252   6.892   4.880  0.6824 -0.6604 -0.8270
 9780SOL    HW233797   7.126   6.940   4.810 -0.5702  0.2628  1.9309
 9781SOL     OW33798   9.641   0.402   2.347  0.4115  0.1696  0.3668
 9781SOL    HW133799   9.651   0.414   2.441 -0.2548 -0.0391  0.4647
 9781SOL    HW233800   9.551   0.375   2.335 -0.4081  2.9525 -0.5953
 9782SOL     OW33801   9.793   7.130   2.868 -0.4881 -0.2430  0.5436
 9782SOL    HW133802   9.787   7.225   2.857  1.8686 -0.2496 -1.8920
 9782SOL    HW233803   9.836   7.119   2.953 -0.6581  0.8660  0.7965
 9783SOL     OW33804   7.235   8.534   8.344  0.2852  0.8175  0.0314
 9783SOL    HW133805   7.240   8.629   8.342  0.9311  0.8387  1.4247
 9783SOL    HW233806   7.145   8.514   8.319  0.2357  1.7605 -0.6061
 9784SOL     OW33807   4.850   0.635   7.611  0.3037  0.0831  0.3660
 9784SOL    HW133808   4.828   0.543   7.622  1.1748 -0.3158 -1.0180
 9784SOL    HW233809   4.945   0.640   7.627  0.0322  1.0185  1.9263
 9785SOL     OW33810   1.903   9.341   0.392  0.2813  0.0876  0.5860
 9785SOL    HW133811   1.885   9.420   0.443  0.9347 -0.1531  1.2092
 9785SOL    HW233812   1.999   9.334   0.392  0.2965  0.0408 -0.6231
 9786SOL     OW33813   5.112   5.537   4.201  0.1999  0.5418  0.0574
 9786SOL    HW133814   5.150   5.589   4.272  0.3586 -0.4794  0.7248
 9786SOL    HW233815   5.129   5.590   4.122  1.3765  0.9683  0.5727
 9787SOL     OW33816   3.695   8.173   2.316  0.2328  0.1404  0.2329
 9787SOL    HW133817   3.753   8.122   2.371  1.0338  1.0604  0.2701
 9787SOL    HW233818   3.750   8.243   2.281 -0.4044 -0.0446 -1.2269
 9788SOL     OW33819   0.204   2.670   2.017 -0.4351  0.1859 -0.1775
 9788SOL    HW133820   0.110   2.656   2.029 -0.3577  0.3630  0.7284
 9788SOL    HW233821   0.220   2.757   2.054  0.2772 -0.3403  0.8110
 9789SOL     OW33822   9.343   5.089   0.930 -0.0886  0.5531 -0.1033
 9789SOL    HW133823   9.432   5.117   0.952  0.2356 -0.2972 -0.3115
 9789SOL    HW233824   9.351   4.997   0.907 -0.8600  0.7280 -1.1441
 9790SOL     OW33825   0.257   6.749   5.775 -0.0393  0.0226  0.5704
 9790SOL    HW133826   0.268   6.657   5.752 -2.1603  0.1189 -1.0852
 9790SOL    HW233827   0.340   6.790   5.748 -0.3157 -0.8623 -1.8312
 9791SOL     OW33828   4.485   0.681   1.821 -1.4964  0.1369 -0.2140
 9791SOL    HW133829   4.448   0.726   1.897 -0.8522 -0.0784  0.2373
 9791SOL    HW233830   4.435   0.599   1.815 -2.4378  0.7304 -0.8322
 9792SOL     OW33831   1.409   2.907   9.008  0.3438  0.1062 -0.1345
 9792SOL    HW133832   1.393   2.817   8.978 -0.5775 -0.3407  1.5829
 9792SOL    HW233833   1.436   2.898   9.099 -2.5945  1.6618  1.0234
 9793SOL     OW33834   7.409   7.388  10.659 -0.3739 -0.9945  0.4796
 9793SOL    HW133835   7.436   7.388  10.567  0.2096 -1.5596  0.6423
 9793SOL    HW233836   7.487   7.416  10.706 -1.1004  0.7862  0.7044
 9794SOL     OW33837   3.886   3.442  10.021 -0.0783 -0.0695 -0.0484
 9794SOL    HW133838   3.793   3.432  10.043  0.3894  0.1121  2.2837
 9794SOL    HW233839   3.905   3.534  10.042  1.0034 -0.5556  1.2290
 9795SOL     OW33840   4.992   1.317  10.044 -0.2856  0.1187  0.0762
 9795SOL    HW133841   5.070   1.275  10.081  0.6364 -0.1490 -2.0300
 9795SOL    HW233842   5.020   1.408  10.028 -0.5005  0.1032 -0.3887
 9796SOL     OW33843   2.152   0.202  10.350 -0.4467 -0.5499 -0.1131
 9796SOL    HW133844   2.090   0.255  10.300 -0.4233  0.3693  0.7963
 9796SOL    HW233845   2.238   0.235  10.325 -0.3920 -0.7108 -0.1416
 9797SOL     OW33846   4.995  10.130   1.569 -0.1456  0.2931 -0.1820
 9797SOL    HW133847   5.081  10.162   1.542  1.3560 -2.8452  0.4525
 9797SOL    HW233848   4.993  10.038   1.541 -4.2243  0.7398 -2.1065
 9798SOL     OW33849  10.667   0.036   0.315 -0.0476  0.4723 -0.9315
 9798SOL    HW133850  10.611   0.027   0.392  1.7658  2.9844  0.8574
 9798SOL    HW233851  10.632   0.112   0.269 -1.4601 -1.3271 -3.0536
 9799SOL     OW33852   9.690   8.375  10.688 -0.2621  0.0158  0.6477
 9799SOL    HW133853   9.711   8.457  10.642 -0.4709 -1.2089 -1.8066
 9799SOL    HW233854   9.776   8.339  10.711 -0.1490  0.6465  1.2524
 9800SOL     OW33855   1.882   3.461   7.221 -0.0904  0.3629 -0.1022
 9800SOL    HW133856   1.864   3.369   7.241 -2.5587  0.8707  0.3576
 9800SOL    HW233857   1.899   3.462   7.127 -0.7678 -0.4797 -0.2494
 9801SOL     OW33858   9.058   9.235   5.788 -0.7997 -0.1302 -0.0567
 9801SOL    HW133859   9.028   9.194   5.707  1.4464 -0.2293 -0.9288
 9801SOL    HW233860   9.103   9.164   5.835 -1.4989  0.0888  0.9631
 9802SOL     OW33861   4.933   4.567  10.198  1.0556 -0.2087  0.3686
 9802SOL    HW133862   4.923   4.582  10.104 -1.1224  1.9121  0.8209
 9802SOL    HW233863   4.911   4.475  10.210 -1.9251  0.2150 -0.9210
 9803SOL     OW33864   3.739   6.926   1.822 -0.2025 -0.1556  0.2552
 9803SOL    HW133865   3.647   6.903   1.826 -0.0913 -0.6464  0.0364
 9803SOL    HW233866   3.784   6.844   1.804 -0.0686  0.5820 -3.6837
 9804SOL     OW33867   8.958   2.672   0.036  0.0512  0.0218 -0.1665
 9804SOL    HW133868   8.970   2.731   0.110  0.7022 -0.4019  0.0711
 9804SOL    HW233869   9.026   2.605   0.047 -0.7642 -0.8503 -0.3638
 9805SOL     OW33870   6.600   7.624   5.619  0.4776  0.4647  0.2451
 9805SOL    HW133871   6.603   7.573   5.538  1.7261 -0.3356  0.7602
 9805SOL    HW233872   6.511   7.657   5.623 -0.5421 -2.0332  0.0663
 9806SOL     OW33873   6.784   8.915   9.901 -0.4056  0.6244 -0.5242
 9806SOL    HW133874   6.721   8.905   9.972  0.3797  0.0766  0.1111
 9806SOL    HW233875   6.789   8.828   9.860  1.4912  0.0520  0.7880
 9807SOL     OW33876   5.730   9.187   0.590  0.2037  0.0615  0.3364
 9807SOL    HW133877   5.645   9.151   0.567 -0.4730  0.8212  1.5507
 9807SOL    HW233878   5.748   9.152   0.678  0.5645  0.8757  0.5998
 9808SOL     OW33879   8.833   8.737   1.887  0.1733  0.0139 -0.3062
 9808SOL    HW133880   8.807   8.793   1.960  0.3906  0.1155 -0.3059
 9808SOL    HW233881   8.813   8.789   1.809  0.4551  0.1276 -0.3037
 9809SOL     OW33882   0.416   0.747   2.393 -0.6497 -0.1127  0.4014
 9809SOL    HW133883   0.470   0.697   2.454 -1.7905 -0.6081  1.0570
 9809SOL    HW233884   0.415   0.836   2.429 -0.0988 -0.0448  0.2567
 9810SOL     OW33885   1.905   3.434   5.013 -0.5622  0.3712  0.5223
 9810SOL    HW133886   1.874   3.348   5.043  0.3360  0.2359  1.1207
 9810SOL    HW233887   1.835   3.494   5.036 -0.9267 -0.1058  0.6904
 9811SOL     OW33888   1.197   0.265   1.664  0.0336  0.3523  0.2568
 9811SOL    HW133889   1.137   0.259   1.590 -0.0772  0.1956  0.3581
 9811SOL    HW233890   1.169   0.195   1.724 -0.5479  1.1527  0.9350
 9812SOL     OW33891   8.727   4.424   6.817 -0.3031 -0.0118  0.2921
 9812SOL    HW133892   8.696   4.409   6.907  1.0382  0.1405  0.8141
 9812SOL    HW233893   8.767   4.511   6.820  1.2480 -0.6782  0.0016
 9813SOL     OW33894  10.596  10.157   9.965  0.3127  0.1828 -0.4608
 9813SOL    HW133895  10.633  10.204  10.040  2.3846 -0.2418 -1.1490
 9813SOL    HW233896  10.580  10.225   9.900  0.4430  0.3060 -0.3645
 9814SOL     OW33897  10.757   3.767  10.772 -0.1277  0.4064 -0.3869
 9814SOL    HW133898  10.796   3.717  10.843 -1.9437  0.1668  0.5063
 9814SOL    HW233899  10.769   3.713  10.694 -0.5516 -0.6390  0.2549
 9815SOL     OW33900   4.451   8.516   3.674  0.0663 -0.0852  0.1401
 9815SOL    HW133901   4.518   8.561   3.622 -0.2798  0.1102 -0.1443
 9815SOL    HW233902   4.384   8.491   3.609  0.6575 -1.8064  0.1227
 9816SOL     OW33903   4.266   7.394   5.746  0.2218 -0.3547  0.4870
 9816SOL    HW133904   4.253   7.444   5.666 -0.4597  1.7716  1.8444
 9816SOL    HW233905   4.198   7.327   5.744 -1.0352  0.8762  0.1567
 9817SOL     OW33906   7.145   9.406   8.577 -0.9272  0.2887  0.1046
 9817SOL    HW133907   7.172   9.317   8.599 -0.0486  0.6457  0.5170
 9817SOL    HW233908   7.210   9.462   8.619 -1.4804  1.1305 -0.1330
 9818SOL     OW33909   0.891   1.921   5.413 -0.3803 -0.3743 -0.0912
 9818SOL    HW133910   0.816   1.948   5.360  0.0966 -0.8392 -1.0308
 9818SOL    HW233911   0.859   1.844   5.462 -0.8752  0.1637  0.4495
 9819SOL     OW33912   4.250   9.484   5.919 -0.4519 -0.1052  0.2732
 9819SOL    HW133913   4.295   9.487   6.003  0.5615 -2.5690 -0.0768
 9819SOL    HW233914   4.318   9.460   5.856 -1.0636  2.2191 -1.4174
 9820SOL     OW33915   3.457   8.038   9.880 -0.1358  0.1235 -1.0166
 9820SOL    HW133916   3.366   8.014   9.865 -0.1222 -0.6674  0.0216
 9820SOL    HW233917   3.485   8.081   9.800 -1.5204  0.6676 -1.2164
 9821SOL     OW33918   8.211   9.674   8.294  0.1066  0.6904  0.1412
 9821SOL    HW133919   8.174   9.738   8.355  1.1997 -0.1358  1.7600
 9821SOL    HW233920   8.271   9.724   8.240 -1.2189  1.5249 -0.6206
 9822SOL     OW33921   5.675   4.560   3.247  0.3512  0.1831  0.3230
 9822SOL    HW133922   5.603   4.511   3.287 -1.0396  3.0190  1.5355
 9822SOL    HW233923   5.634   4.609   3.176  0.8798  2.2718  1.3843
 9823SOL     OW33924   1.168   9.809   5.213 -0.5251  0.2473  0.0093
 9823SOL    HW133925   1.137   9.898   5.226 -0.7359  0.1480  0.1921
 9823SOL    HW233926   1.231   9.816   5.141 -1.2450  0.3874 -0.6255
 9824SOL     OW33927   2.601  10.296   2.516  0.2218 -0.7742 -0.5677
 9824SOL    HW133928   2.514  10.325   2.544  1.2314 -0.2237  2.3947
 9824SOL    HW233929   2.642  10.375   2.482 -0.3124 -0.9899 -1.7726
 9825SOL     OW33930  10.619   4.914   1.963  0.4249 -0.1944  0.1965
 9825SOL    HW133931  10.702   4.872   1.984  0.6452  0.5174  0.7667
 9825SOL    HW233932  10.582   4.860   1.893  0.8843 -1.1133  0.6370
 9826SOL     OW33933   6.509  10.104   1.731 -0.0178 -0.2739 -0.0923
 9826SOL    HW133934   6.482  10.013   1.741 -1.7682  0.3836  1.7470
 9826SOL    HW233935   6.565  10.120   1.807 -1.5817  0.7751  0.8844
 9827SOL     OW33936   0.084   1.355   9.889  0.2932  0.1960 -0.8581
 9827SOL    HW133937   0.039   1.438   9.874 -0.2622  0.2202  0.8425
 9827SOL    HW233938   0.023   1.289   9.857 -0.0375  0.3440 -0.5370
 9828SOL     OW33939   4.420   0.614   1.188 -0.2791 -0.4236 -0.7192
 9828SOL    HW133940   4.346   0.553   1.190 -1.6904  1.2203  0.4829
 9828SOL    HW233941   4.385   0.693   1.146  1.4989 -0.3727 -2.2667
 9829SOL     OW33942  10.977   1.073   8.575  0.0347  0.0890  0.3449
 9829SOL    HW133943  10.980   1.109   8.663 -0.4051  2.6825 -0.5976
 9829SOL    HW233944  10.886   1.080   8.548  0.0375 -1.2846 -0.1203
 9830SOL     OW33945   9.636   0.365   1.475 -0.0258 -0.0368 -0.5010
 9830SOL    HW133946   9.608   0.414   1.398 -1.2471 -0.5635 -0.4020
 9830SOL    HW233947   9.724   0.335   1.453  0.0340  0.6627 -1.2800
 9831SOL     OW33948   3.087   5.964   4.322  0.2895  0.8377  0.1159
 9831SOL    HW133949   3.091   6.059   4.327 -0.2248  0.8287  0.6785
 9831SOL    HW233950   3.093   5.934   4.412 -1.7025  0.4235  0.1546
 9832SOL     OW33951   9.155   0.011   3.987  0.1852  0.4744 -0.0695
 9832SOL    HW133952   9.117   0.087   4.031  0.2650  0.3371  0.2403
 9832SOL    HW233953   9.205  -0.034   4.056  0.1243  0.1350 -0.2451
 9833SOL     OW33954   4.145   7.481   2.869  0.6355  0.0097 -0.0515
 9833SOL    HW133955   4.064   7.440   2.839 -0.7261  1.8067  0.9963
 9833SOL    HW233956   4.169   7.432   2.947  0.2853 -0.2187 -0.0839
 9834SOL     OW33957   4.186   2.338   7.954 -0.3553 -0.0656 -0.5009
 9834SOL    HW133958   4.114   2.286   7.918  0.2441 -0.8318 -0.6409
 9834SOL    HW233959   4.232   2.277   8.012 -0.0018  0.5053 -0.1776
 9835SOL     OW33960   1.912   3.781   3.245  0.3580 -0.4213 -0.2541
 9835SOL    HW133961   1.924   3.849   3.180 -0.7456  0.3380  0.3137
 9835SOL    HW233962   1.850   3.720   3.206 -0.4929  0.1620  0.1620
 9836SOL     OW33963   5.862   1.545   0.348 -0.1517  0.2638  0.0257
 9836SOL    HW133964   5.869   1.633   0.311  0.1417  1.3069  2.3734
 9836SOL    HW233965   5.945   1.503   0.327  0.6648  1.4118  0.8658
 9837SOL     OW33966  10.764   1.679   6.112 -0.2269 -0.2797 -0.0432
 9837SOL    HW133967  10.683   1.712   6.151  0.1993  0.6504  0.0945
 9837SOL    HW233968  10.806   1.757   6.075  0.0025 -0.9402 -1.2318
 9838SOL     OW33969   5.187   8.725   7.389  0.4727  0.1670  0.4138
 9838SOL    HW133970   5.264   8.781   7.385  0.4080  0.2565  0.4068
 9838SOL    HW233971   5.122   8.769   7.334  0.2148  0.4119  0.9009
 9839SOL     OW33972  10.658   5.442   9.957  0.6917 -0.0215 -0.8102
 9839SOL    HW133973  10.713   5.495   9.901  2.5473 -0.3611  0.5906
 9839SOL    HW233974  10.618   5.378   9.898  1.3545  0.5955 -1.9582
 9840SOL     OW33975   0.794   6.393   8.544  0.2258  0.0080  0.5639
 9840SOL    HW133976   0.801   6.480   8.583 -0.5598 -0.2316  1.2973
 9840SOL    HW233977   0.848   6.338   8.601  0.9495  0.0585 -0.0649
 9841SOL     OW33978   9.826   3.263   7.208 -0.1818  0.7152 -0.4467
 9841SOL    HW133979   9.838   3.198   7.139  1.0978  0.5080 -0.0535
 9841SOL    HW233980   9.812   3.345   7.162 -0.4635  0.3853 -0.9488
 9842SOL     OW33981   8.681   6.501  10.624  0.2101 -0.0838  0.1963
 9842SOL    HW133982   8.603   6.555  10.636 -0.4698 -1.0318  0.1124
 9842SOL    HW233983   8.731   6.512  10.705  0.2068  0.8496  0.0847
 9843SOL     OW33984   1.549   6.740   7.305 -0.5603 -0.2808  0.4260
 9843SOL    HW133985   1.608   6.807   7.340 -1.3236 -0.1561  1.5382
 9843SOL    HW233986   1.594   6.658   7.323 -0.1948 -0.1383  0.1929
 9844SOL     OW33987   0.960   0.949  10.316  0.1241 -0.0070 -0.1004
 9844SOL    HW133988   0.967   0.966  10.222 -0.6883  0.8779 -0.0200
 9844SOL    HW233989   0.872   0.978  10.339  0.8443  1.2552  1.2256
 9845SOL     OW33990   8.169   7.748   6.538  0.4061 -0.5220  0.3487
 9845SOL    HW133991   8.204   7.789   6.460  1.9840 -2.1187  0.1639
 9845SOL    HW233992   8.078   7.727   6.516  0.3849  0.4144 -0.4827
 9846SOL     OW33993   8.662   2.181   6.946  0.0234 -0.4095  0.3877
 9846SOL    HW133994   8.618   2.182   6.861 -1.9197 -1.6141  1.3165
 9846SOL    HW233995   8.700   2.094   6.953  1.2461  0.0916  0.2788
 9847SOL     OW33996  10.821   7.894   6.091 -0.2156 -0.0825 -0.7323
 9847SOL    HW133997  10.744   7.875   6.143  0.5415 -1.3681 -0.0294
 9847SOL    HW233998  10.856   7.974   6.128 -0.4904 -0.2053 -0.1980
 9848SOL     OW33999   5.225  10.876  10.159 -0.0857 -0.2217  0.5649
 9848SOL    HW134000   5.317  10.876  10.185  0.1274  2.1887  0.0543
 9848SOL    HW234001   5.181  10.926  10.228 -1.0651 -1.4801  0.8817
 9849SOL     OW34002  10.791   8.964  10.911  0.1126  0.2691  0.0275
 9849SOL    HW134003  10.774   8.950  11.005  1.4535  1.7579  0.5345
 9849SOL    HW234004  10.721   9.023  10.883 -0.6141 -0.6105 -0.0734
 9850SOL     OW34005   8.232   5.884   1.519  0.2315  0.0563  0.5297
 9850SOL    HW134006   8.212   5.811   1.461  1.1641  0.5853 -0.5111
 9850SOL    HW234007   8.203   5.856   1.606  1.2795 -1.8665  0.3128
 9851SOL     OW34008  10.926   1.822   5.157 -0.4424  0.1141 -0.1760
 9851SOL    HW134009  10.870   1.770   5.215 -0.3080 -0.7198 -0.7817
 9851SOL    HW234010  10.999   1.850   5.213  0.4926 -1.9608 -0.2840
 9852SOL     OW34011   5.219   1.196  10.575 -0.4762  0.1375 -0.7574
 9852SOL    HW134012   5.314   1.188  10.586 -0.7663 -1.2642  1.2382
 9852SOL    HW234013   5.193   1.114  10.533 -0.9590 -0.1344  0.0542
 9853SOL     OW34014   9.790   7.430   7.690  0.4281  0.4066  1.0017
 9853SOL    HW134015   9.713   7.463   7.646  0.0692  0.1949  1.4609
 9853SOL    HW234016   9.840   7.508   7.714  1.3026  0.4920 -0.9414
 9854SOL     OW34017   7.014   6.913   9.145  0.9570  0.5169 -0.0937
 9854SOL    HW134018   6.955   6.843   9.118  1.1454  0.6296 -0.8150
 9854SOL    HW234019   7.008   6.978   9.075  0.9704  1.1106  0.4487
 9855SOL     OW34020   1.217   3.287   8.405  0.3451  0.2576 -0.1727
 9855SOL    HW134021   1.289   3.250   8.456  0.2079  0.9026  0.4959
 9855SOL    HW234022   1.220   3.381   8.422 -0.8525  0.2646  0.1378
 9856SOL     OW34023  10.116  10.974   8.232 -0.1073  0.2394  0.2665
 9856SOL    HW134024  10.068  10.898   8.200 -0.9378  0.4267  1.0026
 9856SOL    HW234025  10.106  10.969   8.328 -0.2057  1.2801  0.3232
 9857SOL     OW34026   5.668   0.971   1.719  0.0627  0.2951  0.0158
 9857SOL    HW134027   5.665   0.915   1.641  0.2647  1.7521 -1.0807
 9857SOL    HW234028   5.728   0.925   1.779  0.3789 -0.5653 -0.9212
 9858SOL     OW34029   9.404   8.202   9.492  0.3998  0.1127  0.5302
 9858SOL    HW134030   9.380   8.186   9.584 -0.2038 -0.7522  0.2454
 9858SOL    HW234031   9.377   8.121   9.447  2.0769 -0.0955 -0.1575
 9859SOL     OW34032   3.522   0.606   6.160 -0.2302 -0.0559 -0.3023
 9859SOL    HW134033   3.531   0.688   6.209  0.5621  1.0621 -2.2009
 9859SOL    HW234034   3.455   0.624   6.095  0.1969 -0.7931 -0.9679
 9860SOL     OW34035   1.147  10.914   7.447  0.2399  1.0551  0.0270
 9860SOL    HW134036   1.124  10.827   7.417 -0.3875  1.2126  0.0406
 9860SOL    HW234037   1.074  10.970   7.419  0.4253  1.4951  0.3926
 9861SOL     OW34038   6.806   6.816   8.782 -0.4222  0.4980 -0.1154
 9861SOL    HW134039   6.783   6.734   8.826  0.4470  0.4178  0.2089
 9861SOL    HW234040   6.723   6.864   8.776 -0.6343  0.3451  1.2760
 9862SOL     OW34041   4.249   3.294   9.065  0.1214 -0.3168 -0.6637
 9862SOL    HW134042   4.241   3.374   9.013 -0.6081 -0.6147 -1.0219
 9862SOL    HW234043   4.237   3.223   9.001  0.4380 -0.7065 -0.2912
 9863SOL     OW34044   0.959   2.760   5.259 -0.2253 -0.2738  0.2360
 9863SOL    HW134045   0.969   2.750   5.354 -1.5945  0.6918  0.5076
 9863SOL    HW234046   1.049   2.765   5.227  0.2679 -0.5565  1.4747
 9864SOL     OW34047   7.057  10.773   3.919  0.6240  0.0632  0.2446
 9864SOL    HW134048   7.130  10.821   3.958  1.2873 -0.8470  0.1556
 9864SOL    HW234049   7.056  10.690   3.966 -0.0569 -0.1137 -0.0842
 9865SOL     OW34050   8.392   3.061  10.540  0.3508  0.0115  0.1797
 9865SOL    HW134051   8.476   3.106  10.543  1.4981 -1.9759 -0.1768
 9865SOL    HW234052   8.380   3.037  10.448  1.4397 -3.1842  0.7443
 9866SOL     OW34053   4.943   3.693   1.089 -0.0531 -0.1396  0.2199
 9866SOL    HW134054   5.015   3.631   1.079  0.4600  0.5110 -0.2464
 9866SOL    HW234055   4.895   3.662   1.166  0.3835 -0.9153  0.1948
 9867SOL     OW34056   8.734   3.720   5.219 -0.3684 -0.3874  0.1940
 9867SOL    HW134057   8.783   3.798   5.246 -0.2963 -0.3228 -0.1208
 9867SOL    HW234058   8.771   3.649   5.271  0.5347 -0.4643 -0.5335
 9868SOL     OW34059  10.030   7.648   5.043 -0.8614  0.5900  0.2279
 9868SOL    HW134060   9.964   7.678   4.980 -0.5521 -1.5957 -1.2578
 9868SOL    HW234061  10.114   7.669   5.001 -0.6505 -0.9437 -0.1954
 9869SOL     OW34062   5.526  10.598   3.930 -0.1091  0.3251  0.3125
 9869SOL    HW134063   5.518  10.528   3.995  0.8230 -0.4206 -0.3273
 9869SOL    HW234064   5.439  10.636   3.923 -0.0615  0.9546  2.5471
 9870SOL     OW34065   0.188   6.591   3.608  0.1419  0.7253  0.9358
 9870SOL    HW134066   0.279   6.616   3.626  0.4703  0.2992 -0.0570
 9870SOL    HW234067   0.183   6.585   3.513  0.0889 -2.8026  1.0433
 9871SOL     OW34068  10.602   1.782  10.441  0.5751 -0.1866 -0.2715
 9871SOL    HW134069  10.676   1.720  10.442  0.4415 -0.3509 -0.5664
 9871SOL    HW234070  10.561   1.769  10.356 -1.3521 -1.9646  0.8498
 9872SOL     OW34071   9.265   0.553   4.883 -0.5500  0.5573  0.5185
 9872SOL    HW134072   9.272   0.485   4.951  2.5751  0.6136  0.4199
 9872SOL    HW234073   9.255   0.505   4.801 -1.6206  0.3802  0.7427
 9873SOL     OW34074   5.848   3.616   4.143  0.3114 -0.5104  0.2678
 9873SOL    HW134075   5.822   3.703   4.115  1.6833 -0.0636  0.3596
 9873SOL    HW234076   5.826   3.559   4.069  2.9785  0.5014 -1.4059
 9874SOL     OW34077  10.227   4.793   7.879 -0.0370 -0.3857  0.1362
 9874SOL    HW134078  10.294   4.808   7.946  0.2363 -1.1766  0.0467
 9874SOL    HW234079  10.155   4.751   7.926  0.1586 -0.9487 -0.0543
 9875SOL     OW34080   0.786   4.820   2.718  0.5723  0.7003 -0.1825
 9875SOL    HW134081   0.828   4.755   2.776  0.6180  1.0244  0.1553
 9875SOL    HW234082   0.852   4.889   2.710  0.2056  1.0906  0.1372
 9876SOL     OW34083   5.808   9.500  10.256 -0.2045  0.4718 -0.0929
 9876SOL    HW134084   5.742   9.568  10.245 -1.4764 -0.1890  2.6511
 9876SOL    HW234085   5.872   9.539  10.317  1.5741  0.8027 -2.0642
 9877SOL     OW34086  10.171  10.933   7.541 -0.1122  0.3184 -0.1181
 9877SOL    HW134087  10.159  10.840   7.521 -0.0303  0.5499 -1.3303
 9877SOL    HW234088  10.259  10.952   7.509  0.4537  0.4974  1.4381
 9878SOL     OW34089   9.767   0.859   9.823  0.1417 -0.3633  0.0280
 9878SOL    HW134090   9.772   0.830   9.732  1.1811  1.4704 -0.5511
 9878SOL    HW234091   9.677   0.839   9.849 -0.2349 -0.7569 -1.4559
 9879SOL     OW34092   1.430  10.096   8.754  0.3148  0.0598  0.1027
 9879SOL    HW134093   1.383  10.018   8.784 -0.1857  0.7614  1.2356
 9879SOL    HW234094   1.477  10.126   8.832  0.5939  0.8228 -0.3559
 9880SOL     OW34095   8.187   4.169   1.643 -0.3030 -0.2324 -0.1750
 9880SOL    HW134096   8.127   4.230   1.599  2.0994  1.2932 -1.5747
 9880SOL    HW234097   8.228   4.120   1.572  2.5505  1.2194  0.2968
 9881SOL     OW34098   9.548  10.101   9.400  0.7472  0.6825  0.9913
 9881SOL    HW134099   9.590  10.167   9.454  0.0998  0.4500  1.7925
 9881SOL    HW234100   9.560  10.132   9.310  2.8959  0.4766  1.1448
 9882SOL     OW34101   8.299   6.985   7.955  0.7350 -0.1322  0.3948
 9882SOL    HW134102   8.236   7.041   7.909  0.0930 -0.5987  0.7019
 9882SOL    HW234103   8.249   6.944   8.025  1.9204  1.4015  2.2643
 9883SOL     OW34104   4.276   2.822   2.046 -0.1171 -0.0339 -0.3285
 9883SOL    HW134105   4.315   2.778   2.122 -0.3999  0.7254  0.2654
 9883SOL    HW234106   4.195   2.861   2.080 -0.6543 -0.3552 -1.2058
 9884SOL     OW34107   9.275   2.356   8.628  0.1331 -0.8181  0.1217
 9884SOL    HW134108   9.347   2.305   8.666 -0.5022 -0.2222  2.2661
 9884SOL    HW234109   9.318   2.422   8.574  1.1257 -1.3403  0.2520
 9885SOL     OW34110   1.054   0.920   3.256  0.4680  0.0062  0.0918
 9885SOL    HW134111   1.059   0.824   3.261  1.1885 -0.0680 -1.4983
 9885SOL    HW234112   1.142   0.949   3.279  0.4041  0.2626  0.0123
 9886SOL     OW34113   7.814  10.740   0.904 -0.4375  0.3554 -0.2137
 9886SOL    HW134114   7.762  10.681   0.959 -0.5785 -1.0606 -1.7969
 9886SOL    HW234115   7.898  10.695   0.893  0.0455  1.2098 -0.1508
 9887SOL     OW34116   6.528   7.622   3.762 -0.1454 -0.5793  0.1398
 9887SOL    HW134117   6.444   7.630   3.716 -0.0795 -2.0018 -0.2678
 9887SOL    HW234118   6.543   7.709   3.799 -2.5941 -0.6733  1.6071
 9888SOL     OW34119   4.534   8.709   3.834 -0.1110 -0.5053 -0.4751
 9888SOL    HW134120   4.581   8.690   3.916 -1.2126  1.2743  0.6445
 9888SOL    HW234121   4.498   8.625   3.807 -0.6660 -0.9645  1.5033
 9889SOL     OW34122   3.660  10.732   7.413 -0.3836  0.0553 -0.1586
 9889SOL    HW134123   3.634  10.819   7.382  0.2785 -0.2625 -1.7317
 9889SOL    HW234124   3.591  10.674   7.382 -0.9011  0.0087  1.0182
 9890SOL     OW34125   2.759   9.642   7.669 -0.1692 -0.3385 -0.1553
 9890SOL    HW134126   2.842   9.641   7.621 -1.3033 -1.2150 -2.2525
 9890SOL    HW234127   2.777   9.593   7.750  1.2935 -0.7259 -0.6840
 9891SOL     OW34128   7.281   1.483   6.245  0.1841  0.8605  0.4623
 9891SOL    HW134129   7.362   1.527   6.219 -1.4620  2.5037 -2.3975
 9891SOL    HW234130   7.228   1.482   6.166 -2.2662 -1.0114  1.9818
 9892SOL     OW34131   8.375   9.726   0.695 -0.0264  1.0387 -0.5839
 9892SOL    HW134132   8.444   9.706   0.631  0.5187  0.8056  0.0583
 9892SOL    HW234133   8.344   9.813   0.671 -0.2259  0.7210 -1.5084
 9893SOL     OW34134   7.997   4.807   0.948 -0.3977 -0.6260 -0.1737
 9893SOL    HW134135   7.906   4.820   0.974 -0.2790 -1.5639  0.7618
 9893SOL    HW234136   8.023   4.891   0.909 -0.9540  0.4431  1.6332
 9894SOL     OW34137   2.859   5.368   9.988  0.3121 -0.0919  0.3490
 9894SOL    HW134138   2.814   5.441  10.031  2.1404  1.5909 -0.4295
 9894SOL    HW234139   2.819   5.363   9.901 -0.1298 -0.3541  0.5620
 9895SOL     OW34140   8.411   1.789   6.106 -0.5349  0.1467  0.1735
 9895SOL    HW134141   8.343   1.794   6.040 -1.2576  1.9267  0.9885
 9895SOL    HW234142   8.471   1.721   6.074 -1.7714 -0.2536 -1.4026
 9896SOL     OW34143  10.550   2.443   6.055 -0.3142 -0.7076  0.0045
 9896SOL    HW134144  10.476   2.389   6.027 -0.1795 -0.5010 -0.7555
 9896SOL    HW234145  10.534   2.529   6.017  0.6076 -0.8144 -0.6752
 9897SOL     OW34146   6.075   1.727   6.586  0.1155  0.0143 -0.1555
 9897SOL    HW134147   6.068   1.696   6.496  0.7084 -1.4739  0.2698
 9897SOL    HW234148   6.101   1.649   6.636  0.3642  0.9320  1.2081
 9898SOL     OW34149  10.046  10.144   8.026 -0.6360 -0.0795  0.2454
 9898SOL    HW134150  10.109  10.078   8.054 -0.0541  1.0628  1.7911
 9898SOL    HW234151   9.967  10.095   8.006 -1.1112 -1.1259  3.8961
 9899SOL     OW34152   4.896   9.192   6.498  0.1906  0.2261 -0.4864
 9899SOL    HW134153   4.832   9.163   6.434  0.0279  0.7737 -0.5680
 9899SOL    HW234154   4.939   9.267   6.458  0.1881  0.4833 -0.0130
 9900SOL     OW34155   7.097   7.004   2.560 -0.1551 -0.4331  1.2904
 9900SOL    HW134156   7.167   7.031   2.500 -0.7502  0.0530  0.8027
 9900SOL    HW234157   7.021   6.993   2.504 -1.2417  1.8853  2.1831
 9901SOL     OW34158   6.342  10.250   9.241 -0.2121 -0.0441  0.1767
 9901SOL    HW134159   6.437  10.259   9.249  0.1707 -2.6842 -0.4326
 9901SOL    HW234160   6.320  10.293   9.158  0.6046 -0.2525 -0.1556
 9902SOL     OW34161   1.629  10.233   0.102 -0.4785  0.1436 -0.4136
 9902SOL    HW134162   1.679  10.264   0.177 -1.6760  0.9915  0.0693
 9902SOL    HW234163   1.626  10.137   0.112  0.3682  0.1521 -0.0415
 9903SOL     OW34164   7.070  10.375   6.792 -0.2930 -0.2884 -0.2874
 9903SOL    HW134165   7.064  10.329   6.875 -1.4072 -0.3903 -0.3991
 9903SOL    HW234166   7.057  10.308   6.726 -4.0230  0.3164 -0.4218
 9904SOL     OW34167   5.769   2.787   8.557  0.0895 -0.5169 -0.4931
 9904SOL    HW134168   5.736   2.860   8.503 -0.0268  1.6755  2.3135
 9904SOL    HW234169   5.860   2.777   8.529 -0.3042 -0.3194 -1.9406
 9905SOL     OW34170   2.048   2.522  10.374  0.3597  0.1164  0.7374
 9905SOL    HW134171   1.955   2.546  10.375  0.2560 -0.2857  1.0114
 9905SOL    HW234172   2.054   2.449  10.313  0.5993  0.5218  0.2633
 9906SOL     OW34173   4.935   4.312   1.226 -0.0818 -0.4119  0.2913
 9906SOL    HW134174   4.984   4.320   1.307 -1.3949 -0.1730  1.0917
 9906SOL    HW234175   4.895   4.226   1.230  0.4606 -0.7188 -0.4850
 9907SOL     OW34176   0.986   6.323   9.089  0.1546 -0.0154  0.3699
 9907SOL    HW134177   1.063   6.362   9.047  0.9823 -1.2721  0.6648
 9907SOL    HW234178   0.920   6.319   9.020  0.2802  1.2482  0.1582
 9908SOL     OW34179   3.463   2.421   5.657 -0.1477 -0.2170 -0.5913
 9908SOL    HW134180   3.556   2.420   5.634 -0.0150  0.8037 -0.1747
 9908SOL    HW234181   3.437   2.329   5.659  0.7511 -0.4933 -1.1117
 9909SOL     OW34182   6.836   5.818   7.180 -0.4522 -0.6109  0.4982
 9909SOL    HW134183   6.870   5.818   7.091  0.1307 -0.6388  0.7167
 9909SOL    HW234184   6.897   5.762   7.229 -1.0965 -1.0657  0.7886
 9910SOL     OW34185   5.270   3.220   0.815  0.2088  0.4304 -0.8863
 9910SOL    HW134186   5.350   3.195   0.770  0.8144 -0.7838  0.7674
 9910SOL    HW234187   5.288   3.203   0.908 -2.0005 -0.0171 -0.4731
 9911SOL     OW34188   9.586   7.135  10.958 -0.0787  0.3995 -0.4942
 9911SOL    HW134189   9.536   7.198  10.905 -1.4150 -0.4107 -0.2381
 9911SOL    HW234190   9.581   7.170  11.047  0.3678  0.6480 -0.5617
 9912SOL     OW34191  10.810   1.061   5.713  0.1842  0.3042 -0.2647
 9912SOL    HW134192  10.884   1.028   5.763  0.5712  0.9251 -0.4236
 9912SOL    HW234193  10.772   1.130   5.768 -0.4332 -0.1723 -0.0743
 9913SOL     OW34194  10.531   6.894   3.902  0.0701  0.8195  0.2965
 9913SOL    HW134195  10.488   6.814   3.872 -0.0335  0.0794  2.2710
 9913SOL    HW234196  10.461   6.958   3.911 -0.2358  0.3991  0.9909
 9914SOL     OW34197   1.141  11.020  10.991 -0.3898  0.1146  0.4314
 9914SOL    HW134198   1.103  11.097  11.033 -0.0008  0.5516  0.0004
 9914SOL    HW234199   1.149  11.045  10.899  0.0711 -0.3067  0.3535
 9915SOL     OW34200   8.640   2.963   5.246  0.0269 -0.1290  0.0147
 9915SOL    HW134201   8.670   2.893   5.305 -0.2931  1.0202  1.6313
 9915SOL    HW234202   8.570   3.007   5.295  1.7525  2.7759  0.1576
 9916SOL     OW34203   7.269   5.541   2.386 -0.0180 -0.3516  0.3473
 9916SOL    HW134204   7.307   5.550   2.473 -1.1637 -0.2007  0.8539
 9916SOL    HW234205   7.343   5.549   2.326  0.8483 -0.9007  1.3160
 9917SOL     OW34206   7.792   6.355   3.770 -0.1878  0.0697 -0.1522
 9917SOL    HW134207   7.789   6.400   3.855  1.4578  1.2759 -0.6759
 9917SOL    HW234208   7.743   6.412   3.711  0.1682  0.1458 -0.3800
 9918SOL     OW34209   0.396  10.823   4.481 -0.1056  0.2031 -0.2566
 9918SOL    HW134210   0.471  10.787   4.432 -0.3174 -0.8010  0.1266
 9918SOL    HW234211   0.421  10.914   4.498  2.0853 -0.6605  1.8039
 9919SOL     OW34212   6.855   5.018   6.333  0.4479 -0.0202  0.0091
 9919SOL    HW134213   6.928   5.055   6.284 -1.2215  1.6964 -1.3241
 9919SOL    HW234214   6.802   5.094   6.358 -0.3976 -1.1284  1.8141
 9920SOL     OW34215   3.495   8.166   2.744 -0.0353 -0.3023  0.2434
 9920SOL    HW134216   3.464   8.104   2.810 -0.5616  0.7843  1.0698
 9920SOL    HW234217   3.447   8.247   2.764 -1.0953 -0.2260 -2.1888
 9921SOL     OW34218   5.914   0.818   8.835 -0.5780 -0.2458  0.6461
 9921SOL    HW134219   5.861   0.787   8.762 -1.7643 -1.3305  1.8918
 9921SOL    HW234220   6.004   0.797   8.811 -1.0634 -1.8290  0.0706
 9922SOL     OW34221   0.184   2.577   9.755 -0.1733  0.3866 -0.6250
 9922SOL    HW134222   0.108   2.549   9.704  0.7826  0.4113 -2.1427
 9922SOL    HW234223   0.254   2.517   9.729  0.3561  0.3945  0.7045
 9923SOL     OW34224   1.098   9.640  10.248  0.0039  0.1588  0.2994
 9923SOL    HW134225   1.159   9.570  10.226 -0.2918  0.0596 -0.2286
 9923SOL    HW234226   1.038   9.602  10.312 -1.9815 -1.0452 -2.1089
 9924SOL     OW34227   6.923   2.608   7.510  0.8391  0.2112 -0.2837
 9924SOL    HW134228   6.958   2.685   7.467 -0.7206  1.0653 -0.1078
 9924SOL    HW234229   6.895   2.550   7.438  2.2016 -0.3143 -0.4171
 9925SOL     OW34230   0.022   5.046   1.454  0.0951 -0.4176 -0.2595
 9925SOL    HW134231  -0.037   4.986   1.407  1.0866 -2.4359  0.9337
 9925SOL    HW234232   0.101   5.049   1.399 -0.4330  0.9146 -0.9881
 9926SOL     OW34233   8.986  10.595   2.894 -0.6563  0.1545  0.4892
 9926SOL    HW134234   9.040  10.598   2.973  2.1923 -0.6671 -1.2743
 9926SOL    HW234235   8.997  10.507   2.860  0.3336  1.1654 -2.1067
 9927SOL     OW34236   7.963   5.629   9.326 -0.4811 -0.2007  0.1706
 9927SOL    HW134237   7.969   5.565   9.256 -1.5832 -1.1117  0.8649
 9927SOL    HW234238   8.016   5.703   9.296 -0.1434 -0.9546 -1.1714
 9928SOL     OW34239   4.422   2.959   7.413 -0.1900 -0.3033  0.3576
 9928SOL    HW134240   4.502   2.908   7.407  1.3534  2.0534 -0.4272
 9928SOL    HW234241   4.427   3.003   7.497 -0.9123 -0.4933  0.5088
 9929SOL     OW34242   6.387   0.186   9.976  0.2388 -0.5129  0.2414
 9929SOL    HW134243   6.329   0.110   9.975 -1.0867  0.4866 -0.6178
 9929SOL    HW234244   6.337   0.256   9.934  1.7455  0.6197  0.2507
 9930SOL     OW34245   3.710   5.336   6.818 -0.6495  0.3159 -0.0881
 9930SOL    HW134246   3.670   5.315   6.734 -1.1464 -1.6213  0.5854
 9930SOL    HW234247   3.639   5.373   6.870 -1.2143 -1.5966  0.5596
 9931SOL     OW34248   7.847   9.449   8.393  0.2638 -0.1504  0.1432
 9931SOL    HW134249   7.835   9.543   8.405 -0.7010 -0.2141 -0.1986
 9931SOL    HW234250   7.862   9.415   8.482 -0.9078  0.1368  0.4695
 9932SOL     OW34251   7.450   2.196   9.843  0.1686  0.5416 -0.0134
 9932SOL    HW134252   7.354   2.201   9.846  0.0235 -0.3049 -1.8520
 9932SOL    HW234253   7.477   2.286   9.822 -0.2658  0.6170 -0.2754
 9933SOL     OW34254   5.967   6.896   9.641 -0.4179  0.1253  0.2331
 9933SOL    HW134255   5.998   6.856   9.722  0.6671 -0.8605 -0.6435
 9933SOL    HW234256   5.942   6.822   9.585 -0.3871  0.7491 -0.6323
 9934SOL     OW34257   5.620   4.711   4.231  0.2045 -0.0420  0.2947
 9934SOL    HW134258   5.660   4.655   4.298 -1.1190 -1.3773  0.0431
 9934SOL    HW234259   5.637   4.664   4.148  0.6417  0.8820 -0.1473
 9935SOL     OW34260  10.109   9.730   6.814 -0.5382  0.1668  0.0229
 9935SOL    HW134261  10.172   9.744   6.884 -0.9548  0.3758  0.3612
 9935SOL    HW234262  10.157   9.682   6.747 -0.9785 -2.9311  1.7634
 9936SOL     OW34263   2.781   5.144  10.700 -0.3751  0.2625 -0.2581
 9936SOL    HW134264   2.787   5.120  10.792 -0.6212 -1.2093 -0.6086
 9936SOL    HW234265   2.848   5.090  10.657 -1.9294 -0.9465 -1.2739
 9937SOL     OW34266   2.299   4.179   1.628  0.1795  0.0253  0.0724
 9937SOL    HW134267   2.318   4.220   1.713  0.0514  2.2103 -0.8980
 9937SOL    HW234268   2.385   4.165   1.588  0.1650  1.9013 -0.7015
 9938SOL     OW34269   8.947   7.323  10.267  0.6721 -0.0328  0.5148
 9938SOL    HW134270   8.944   7.418  10.280 -2.1315 -0.1206  1.1442
 9938SOL    HW234271   8.994   7.290  10.343  2.3826  0.8576 -0.1025
 9939SOL     OW34272   0.631  10.466  10.554 -0.4682 -0.2558  0.5324
 9939SOL    HW134273   0.628  10.402  10.483 -1.3231  0.9771 -0.5815
 9939SOL    HW234274   0.563  10.530  10.532  1.0287  1.5939  1.0738
 9940SOL     OW34275   3.312   7.719   7.231 -0.0560 -0.6489  0.0765
 9940SOL    HW134276   3.369   7.760   7.165 -1.5142 -2.7295 -2.6870
 9940SOL    HW234277   3.342   7.629   7.236  1.7457 -0.0626  4.5016
 9941SOL     OW34278   7.185   4.984   9.779  0.3387 -0.2738 -0.5079
 9941SOL    HW134279   7.090   4.987   9.787  0.4449  1.2724  0.6720
 9941SOL    HW234280   7.210   5.073   9.756  1.5146 -0.6704 -0.8496
 9942SOL     OW34281   9.621   2.782   6.186  0.1116  0.5080  0.4921
 9942SOL    HW134282   9.620   2.877   6.177  0.3003  0.5645  1.0320
 9942SOL    HW234283   9.578   2.750   6.106  1.1458  1.0000 -0.2914
 9943SOL     OW34284   6.844   0.694   8.445 -0.9898  0.2391 -0.1238
 9943SOL    HW134285   6.812   0.777   8.411 -1.0661  0.2737  0.0346
 9943SOL    HW234286   6.769   0.656   8.491 -0.8843  0.1909  0.0082
 9944SOL     OW34287   1.234   1.540   8.568 -0.3160  0.0547 -0.1685
 9944SOL    HW134288   1.324   1.508   8.565  0.3215  1.8253 -1.3448
 9944SOL    HW234289   1.214   1.545   8.662  0.0957 -2.1276  0.0888
 9945SOL     OW34290  10.541   5.841   2.640  0.0684  0.3994  1.0275
 9945SOL    HW134291  10.477   5.772   2.626 -0.8603  1.7092 -1.9846
 9945SOL    HW234292  10.611   5.823   2.577  1.4211  0.5006  2.4149
 9946SOL     OW34293   6.994   2.869   3.888  0.1706 -0.0026 -0.0216
 9946SOL    HW134294   6.923   2.934   3.889  1.3315  1.3167 -0.0329
 9946SOL    HW234295   7.018   2.860   3.980  0.6667  0.3370 -0.1160
 9947SOL     OW34296   8.712   0.628   5.648 -0.0575 -0.5044 -0.6295
 9947SOL    HW134297   8.788   0.609   5.703  0.0661 -1.5349 -1.1258
 9947SOL    HW234298   8.638   0.588   5.695  0.3699 -3.5432 -2.2551
 9948SOL     OW34299   2.847   6.495   7.251 -0.2902  0.5166 -0.3156
 9948SOL    HW134300   2.797   6.484   7.332 -0.3197 -1.0344 -0.5096
 9948SOL    HW234301   2.937   6.506   7.280  0.1278 -2.6895 -0.0502
 9949SOL     OW34302   9.965   1.325   9.733  0.1370 -0.8148 -0.0323
 9949SOL    HW134303   9.899   1.387   9.764 -1.0929 -1.1783 -1.7925
 9949SOL    HW234304  10.022   1.377   9.676  0.6282 -0.7740  0.4903
 9950SOL     OW34305   4.822   2.752   1.554  0.5878  0.5149  0.0103
 9950SOL    HW134306   4.772   2.807   1.614 -0.2118 -0.1881  0.0106
 9950SOL    HW234307   4.774   2.669   1.553  1.5037 -0.0239 -0.3465
 9951SOL     OW34308   5.811   9.407   4.753  0.3776  0.2889  0.0994
 9951SOL    HW134309   5.885   9.360   4.792  0.2280  0.4938  0.6416
 9951SOL    HW234310   5.815   9.385   4.660  1.0294  0.1726  0.1470
 9952SOL     OW34311   5.256   2.505   9.561 -0.0007  0.2869 -0.2022
 9952SOL    HW134312   5.247   2.515   9.655  0.1149 -0.8700 -0.0638
 9952SOL    HW234313   5.253   2.595   9.527 -1.2735  0.6386  0.7728
 9953SOL     OW34314   9.742   4.672   4.317 -0.4886 -0.3517  0.0528
 9953SOL    HW134315   9.731   4.736   4.246  1.0776 -0.5877 -0.4451
 9953SOL    HW234316   9.709   4.591   4.280  2.2789 -0.9912 -1.3168
 9954SOL     OW34317   5.389   8.930   8.336  0.3499  0.0955 -0.0182
 9954SOL    HW134318   5.341   8.934   8.253 -1.0914  2.0240  0.8425
 9954SOL    HW234319   5.322   8.930   8.404  1.5311  0.0094  1.2051
 9955SOL     OW34320  10.658   5.703   1.108 -0.0535  0.2442  0.3599
 9955SOL    HW134321  10.683   5.673   1.021 -0.2896  1.4350 -0.1407
 9955SOL    HW234322  10.595   5.638   1.139  0.0171 -0.1776 -0.3778
 9956SOL     OW34323   6.076   1.158   4.361  0.0442 -0.4471  0.1007
 9956SOL    HW134324   6.008   1.194   4.418  2.2367  1.6788  1.5813
 9956SOL    HW234325   6.113   1.234   4.317 -0.7374 -1.9017 -3.3974
 9957SOL     OW34326   5.136   1.558  10.001 -0.0328 -0.0602  0.8889
 9957SOL    HW134327   5.191   1.534  10.075 -0.0234 -0.4029  0.7748
 9957SOL    HW234328   5.105   1.646  10.021  0.0348 -0.1195  1.2599
 9958SOL     OW34329   6.334   2.179   0.020  0.1672  0.4921 -0.3944
 9958SOL    HW134330   6.414   2.153  -0.026  0.6237  1.0467  0.0595
 9958SOL    HW234331   6.295   2.097   0.051  1.2344  0.2808  0.4633
 9959SOL     OW34332   3.270   4.583   4.609 -0.2094  0.7240  0.4880
 9959SOL    HW134333   3.229   4.502   4.578 -0.4424  0.7363  0.7632
 9959SOL    HW234334   3.291   4.632   4.529  1.1441 -0.1896  0.2379
 9960SOL     OW34335   4.019   0.131   3.362  0.6016  0.5198  0.0124
 9960SOL    HW134336   3.927   0.142   3.387  0.9718  0.3423  1.5688
 9960SOL    HW234337   4.066   0.127   3.445  2.1457  1.5465 -0.7611
 9961SOL     OW34338   5.760   1.677   8.952 -0.2976 -0.3391 -0.3302
 9961SOL    HW134339   5.777   1.769   8.933 -1.4497 -0.4553 -2.2078
 9961SOL    HW234340   5.738   1.676   9.045  1.9203  0.9056  0.2876
 9962SOL     OW34341   4.773   8.156   1.995  0.4448 -0.0377  0.2661
 9962SOL    HW134342   4.679   8.163   1.980  0.3877  0.7800  0.9505
 9962SOL    HW234343   4.798   8.240   2.033  1.3106 -0.5472  0.8704
 9963SOL     OW34344   7.635   5.752  10.584  0.1472 -0.4494  0.1001
 9963SOL    HW134345   7.706   5.790  10.533 -1.7012  0.5175 -1.9348
 9963SOL    HW234346   7.588   5.696  10.521 -1.5658 -0.1232  1.0350
 9964SOL     OW34347   2.468   9.280   4.339 -0.2142 -1.1912 -0.5302
 9964SOL    HW134348   2.488   9.191   4.309 -0.1642 -1.3952  0.0827
 9964SOL    HW234349   2.398   9.267   4.404  1.0897 -0.9924  0.9809
 9965SOL     OW34350   9.622   3.149   3.283  0.0321  0.2527 -0.3665
 9965SOL    HW134351   9.697   3.197   3.248 -0.4736  1.5972  0.2920
 9965SOL    HW234352   9.655   3.105   3.361  0.4422 -0.2553 -0.8232
 9966SOL     OW34353   4.164   0.194   2.392 -0.6187 -0.4336  0.8416
 9966SOL    HW134354   4.188   0.102   2.381  0.6613 -0.0503  0.2484
 9966SOL    HW234355   4.221   0.241   2.330 -2.4316  0.5980 -0.1301
 9967SOL     OW34356   8.111   1.570   2.541 -0.2005 -0.3772  0.5941
 9967SOL    HW134357   8.135   1.657   2.511  0.7679 -0.7620  0.1922
 9967SOL    HW234358   8.029   1.582   2.589  0.1582  0.8172  0.9367
 9968SOL     OW34359   0.090   2.996   2.575  0.1093 -0.0992  0.2966
 9968SOL    HW134360   0.037   3.029   2.648 -0.5512  1.2907 -0.7558
 9968SOL    HW234361   0.043   2.918   2.545 -0.9322  0.6517 -0.0967
 9969SOL     OW34362   9.010   2.115   0.028  0.2022  0.0545  0.4721
 9969SOL    HW134363   8.989   2.063   0.106 -0.1564  0.7528  0.8561
 9969SOL    HW234364   8.927   2.121  -0.019  0.1341  0.6445  0.6590
 9970SOL     OW34365   1.595   3.923   9.042 -0.1889  0.2047 -0.4032
 9970SOL    HW134366   1.624   3.878   9.121 -0.4075  0.0170 -0.4297
 9970SOL    HW234367   1.636   4.009   9.047  0.2178  0.0073 -0.3444
 9971SOL     OW34368   2.059   5.565   4.576  0.0075  0.1458 -0.1716
 9971SOL    HW134369   2.034   5.654   4.551  2.1661  0.5715 -1.0581
 9971SOL    HW234370   1.979   5.513   4.564 -1.0257  1.7704 -0.6172
 9972SOL     OW34371   4.909   7.224   8.446  0.2558 -0.4387  0.3520
 9972SOL    HW134372   4.887   7.208   8.354  0.0151 -0.3761  0.3978
 9972SOL    HW234373   4.885   7.315   8.461  1.9842  0.1228 -0.0169
 9973SOL     OW34374   6.625   8.687   6.499  0.0839  0.4528  0.0763
 9973SOL    HW134375   6.674   8.767   6.481  0.5456  0.4581  1.2893
 9973SOL    HW234376   6.544   8.716   6.540 -0.9646  0.4387 -1.8699
 9974SOL     OW34377   7.556   5.034   3.712  0.3750  0.2128  0.0652
 9974SOL    HW134378   7.587   4.944   3.702  2.5744  0.8522  0.4934
 9974SOL    HW234379   7.474   5.027   3.760  0.7858 -1.5362  0.5637
 9975SOL     OW34380   2.290   4.742   5.390  0.1232 -0.5727  0.2183
 9975SOL    HW134381   2.200   4.713   5.406 -0.0769  0.3782  0.8186
 9975SOL    HW234382   2.314   4.696   5.309 -1.3555  0.1552 -0.6882
 9976SOL     OW34383   1.422  10.152   5.223  0.3662 -0.0142 -0.6491
 9976SOL    HW134384   1.470  10.092   5.166  0.6269 -1.2948  0.8251
 9976SOL    HW234385   1.337  10.110   5.235 -1.5719  2.5529 -3.7774
 9977SOL     OW34386   8.474   4.002   8.960  0.0941 -0.3777 -0.0478
 9977SOL    HW134387   8.532   4.039   8.894  0.7635 -0.4122  0.5069
 9977SOL    HW234388   8.478   4.063   9.034  0.3986 -1.0115  0.4734
 9978SOL     OW34389   3.481   5.501   1.730 -0.1883  0.4760  0.3865
 9978SOL    HW134390   3.490   5.584   1.777 -0.5631 -0.1174  1.5450
 9978SOL    HW234391   3.438   5.524   1.648 -0.6224  1.3732  0.8563
 9979SOL     OW34392   8.065   0.466   2.027 -0.7044 -0.1347 -0.3835
 9979SOL    HW134393   7.994   0.530   2.032  0.1470  0.8393 -0.4748
 9979SOL    HW234394   8.144   0.516   2.045 -0.0457 -1.2371 -0.1170
 9980SOL     OW34395   5.489   6.503  10.323  0.1017  0.0775 -0.0637
 9980SOL    HW134396   5.428   6.431  10.342  0.1328  0.0068 -0.2284
 9980SOL    HW234397   5.476   6.522  10.230  1.9196 -1.4585 -0.6992
 9981SOL     OW34398   9.268  10.826   7.699  1.0106 -0.0872  0.1594
 9981SOL    HW134399   9.344  10.772   7.720  2.3088  1.2263 -0.8998
 9981SOL    HW234400   9.268  10.830   7.603  0.3653  0.9597  0.1887
 9982SOL     OW34401   2.579   4.940   3.856  0.3522 -0.6611  0.6615
 9982SOL    HW134402   2.534   4.927   3.939  0.4228 -1.8393  0.5306
 9982SOL    HW234403   2.651   4.999   3.876  0.6791 -1.3473  1.5591
 9983SOL     OW34404   8.906  10.145   7.666 -0.2606 -0.4977 -0.3477
 9983SOL    HW134405   8.842  10.075   7.657  0.2522 -0.8557 -1.3578
 9983SOL    HW234406   8.865  10.220   7.624 -1.0098 -0.0181  1.1467
 9984SOL     OW34407   6.494   6.752   8.653 -1.0365  0.7531 -0.6020
 9984SOL    HW134408   6.477   6.823   8.591 -1.0660 -1.0621 -2.7994
 9984SOL    HW234409   6.548   6.690   8.604 -2.5366 -1.6078  0.5588
 9985SOL     OW34410   9.224   9.329   8.094 -0.5065 -0.1383 -0.2909
 9985SOL    HW134411   9.156   9.268   8.067 -1.8591  1.0474  0.3118
 9985SOL    HW234412   9.218   9.401   8.031 -0.0158  0.1329 -0.0380
 9986SOL     OW34413   6.715   9.299   1.798 -0.2619 -0.5354 -0.2099
 9986SOL    HW134414   6.660   9.370   1.765  0.5675 -0.3211 -1.1583
 9986SOL    HW234415   6.679   9.220   1.758 -0.2128 -0.4571 -0.4106
 9987SOL     OW34416   6.600   3.856   8.794  0.0946  0.4781 -0.0911
 9987SOL    HW134417   6.640   3.789   8.737  2.5478  2.0252 -0.3541
 9987SOL    HW234418   6.539   3.807   8.849 -0.3060 -1.5182 -2.1292
 9988SOL     OW34419   8.592   6.935   0.117 -0.3035 -0.2143  0.2458
 9988SOL    HW134420   8.629   6.864   0.064 -0.8782 -1.1286  1.0384
 9988SOL    HW234421   8.547   6.991   0.054  0.0360 -0.6323 -0.3789
 9989SOL     OW34422   7.307   1.884   2.805 -0.4815 -0.2818 -0.1978
 9989SOL    HW134423   7.365   1.818   2.768  0.4961  0.1876  0.4600
 9989SOL    HW234424   7.224   1.838   2.820 -0.2214 -1.0147 -0.9435
 9990SOL     OW34425  10.595   5.275   4.185 -0.2922 -1.0496  0.5393
 9990SOL    HW134426  10.553   5.292   4.270  0.4638 -0.6120  0.8406
 9990SOL    HW234427  10.576   5.353   4.133  0.6435 -0.5701  0.8891
 9991SOL     OW34428   7.587   5.066   7.635  0.7874  0.0835  0.1752
 9991SOL    HW134429   7.570   5.074   7.541  0.4323  0.5889  0.2758
 9991SOL    HW234430   7.680   5.083   7.645  1.3460 -2.3543 -0.3480
 9992SOL     OW34431   9.127   3.924   7.970  0.0144  0.1441 -0.2135
 9992SOL    HW134432   9.221   3.911   7.975  0.0297 -0.4310 -1.7092
 9992SOL    HW234433   9.091   3.837   7.956 -0.9935 -0.0383  2.7833
 9993SOL     OW34434   5.793   2.819  10.562  0.2773 -1.0398  0.2083
 9993SOL    HW134435   5.700   2.807  10.580  0.3428 -0.0362  1.3520
 9993SOL    HW234436   5.819   2.741  10.513 -1.4471 -0.7539 -1.2699
 9994SOL     OW34437   4.214   4.557   6.991 -0.2297 -0.2585  0.4825
 9994SOL    HW134438   4.262   4.476   7.007 -0.3045 -0.2995  0.5027
 9994SOL    HW234439   4.281   4.623   6.975 -0.1635 -0.2915  0.6197
 9995SOL     OW34440   2.516   0.744   6.526 -0.7172  0.0656 -0.0795
 9995SOL    HW134441   2.520   0.836   6.500 -0.0330 -0.4110 -1.7565
 9995SOL    HW234442   2.470   0.701   6.455  0.5378 -1.1785 -0.1689
 9996SOL     OW34443  10.833   0.950  10.281  0.2622 -0.3500 -0.2718
 9996SOL    HW134444  10.856   0.901  10.202  0.1961 -0.0062 -0.5071
 9996SOL    HW234445  10.879   0.904  10.352  1.4994  0.1877 -0.6992
 9997SOL     OW34446   2.164   1.873   9.676 -0.4377 -0.2037  0.2106
 9997SOL    HW134447   2.198   1.831   9.598  0.0090 -0.7181  0.6809
 9997SOL    HW234448   2.241   1.904   9.724 -0.7005  0.0235  0.5002
 9998SOL     OW34449   5.597   6.999   6.530 -0.0796  0.2725  0.7542
 9998SOL    HW134450   5.574   7.040   6.614  0.1521  3.0655 -0.4272
 9998SOL    HW234451   5.689   7.024   6.516 -0.9838  2.6754 -1.7251
 9999SOL     OW34452   7.591  10.832   2.750  0.3760 -0.1085 -0.2673
 9999SOL    HW134453   7.507  10.865   2.784 -0.1401 -0.9212 -0.7301
 9999SOL    HW234454   7.596  10.867   2.661 -0.0882 -1.1147 -0.6962
10000SOL     OW34455   4.735   5.293   5.711 -0.0628 -0.4381  0.2913
10000SOL    HW134456   4.818   5.247   5.715  0.0473 -0.5642 -2.1184
10000SOL    HW234457   4.685   5.248   5.642 -2.8517 -1.4213  2.7304
10001SOL     OW34458   3.824   1.110   4.709  0.2599  0.2845 -0.2628
10001SOL    HW134459   3.901   1.145   4.754  0.2093 -0.4096  0.3771
10001SOL    HW234460   3.763   1.184   4.706  0.1836  0.2965  1.0056
10002SOL     OW34461   6.291   7.824   6.484  0.0679 -0.1938  0.0352
10002SOL    HW134462   6.364   7.816   6.422  0.4781 -1.1291  0.6249
10002SOL    HW234463   6.323   7.884   6.551  1.9820 -3.6689  2.5423
10003SOL     OW34464   6.627  10.718   7.063  0.0247 -0.5411 -0.2028
10003SOL    HW134465   6.596  10.730   6.973 -2.0084 -1.2991  0.3422
10003SOL    HW234466   6.673  10.799   7.084 -0.5072  0.1348 -1.5227
10004SOL     OW34467   8.756   8.322   7.777 -0.0110  0.6890 -0.2809
10004SOL    HW134468   8.833   8.264   7.780 -0.2814  0.3424  0.3388
10004SOL    HW234469   8.691   8.273   7.727  0.0401  0.8077 -0.4616
10005SOL     OW34470   5.509   0.277   7.237  0.0693  0.5387  0.6210
10005SOL    HW134471   5.429   0.244   7.277 -0.2077  1.1863  0.6165
10005SOL    HW234472   5.578   0.259   7.301  0.0546 -0.6947  0.3035
10006SOL     OW34473   3.053   1.611   3.904 -0.5305  0.5506  0.1227
10006SOL    HW134474   3.046   1.520   3.935  0.7862  0.2627 -0.3667
10006SOL    HW234475   2.979   1.621   3.844  0.0151 -0.6222 -0.7931
10007SOL     OW34476   8.911  10.053   8.304  0.3407  0.2958  0.0805
10007SOL    HW134477   8.868   9.980   8.350  0.8424 -1.0399 -1.4658
10007SOL    HW234478   8.992  10.067   8.352 -0.5261  0.9884  1.3884
10008SOL     OW34479   8.403   6.836   6.277 -0.1489 -0.3015 -0.5928
10008SOL    HW134480   8.313   6.816   6.251  0.3437 -0.5981 -2.1715
10008SOL    HW234481   8.436   6.894   6.208  0.9900 -0.4927 -0.2375
10009SOL     OW34482   0.463   3.082   1.506  0.2963  0.2165  0.0919
10009SOL    HW134483   0.433   3.171   1.487  0.5580  0.3484  0.2884
10009SOL    HW234484   0.455   3.035   1.423 -0.2267  0.3139  0.0842
10010SOL     OW34485   4.234   8.628   1.583  0.3081 -0.7677  0.1209
10010SOL    HW134486   4.256   8.589   1.668  0.6583  0.3131  0.5433
10010SOL    HW234487   4.261   8.562   1.519  0.5837 -1.3513  0.8244
10011SOL     OW34488   3.620   0.410   4.304  0.3104 -0.8582 -0.0443
10011SOL    HW134489   3.679   0.482   4.279 -0.1677 -0.9778 -1.6542
10011SOL    HW234490   3.534   0.438   4.271 -0.2131 -1.4296  0.8015
10012SOL     OW34491   9.514   3.591   2.098 -0.2512  0.3367  0.3811
10012SOL    HW134492   9.464   3.529   2.044  0.7263  1.6599 -2.2281
10012SOL    HW234493   9.560   3.536   2.161 -1.5676 -1.2963 -0.0025
10013SOL     OW34494   3.586   6.209   8.104 -0.1920  0.1052  0.0171
10013SOL    HW134495   3.677   6.238   8.117 -0.2404  0.2327  0.0768
10013SOL    HW234496   3.570   6.149   8.177  0.3262 -1.0938 -0.8200
10014SOL     OW34497   7.933   9.482  10.254  0.0925  1.1193  0.1168
10014SOL    HW134498   7.979   9.440  10.181 -1.5839  1.9588 -1.5165
10014SOL    HW234499   8.002   9.521  10.306  1.3791  0.2317 -0.8489
10015SOL     OW34500   9.595   7.893   0.687  1.0639 -0.4668 -0.1868
10015SOL    HW134501   9.561   7.813   0.726  0.4387  0.1405  0.5174
10015SOL    HW234502   9.690   7.882   0.691  1.0011 -0.6486  1.0078
10016SOL     OW34503   5.674   1.716   4.789  0.1255  0.1492 -0.1227
10016SOL    HW134504   5.600   1.700   4.847  0.4030 -0.1401  0.1533
10016SOL    HW234505   5.724   1.785   4.833  0.5435 -0.3406  0.1755
10017SOL     OW34506   5.262   3.079   8.536 -0.0629 -0.9849 -0.0071
10017SOL    HW134507   5.218   3.151   8.581  0.6359  0.3720 -1.3728
10017SOL    HW234508   5.202   3.056   8.464  0.2186 -1.0335 -0.2249
10018SOL     OW34509   5.576   4.853   5.265  0.2944 -0.1012  0.0336
10018SOL    HW134510   5.516   4.900   5.322  0.7229 -0.0411  0.4368
10018SOL    HW234511   5.556   4.886   5.177 -0.2286 -0.0500  0.1679
10019SOL     OW34512   1.249  10.800   2.652 -0.7498 -0.0020  0.5393
10019SOL    HW134513   1.168  10.843   2.679 -1.0713 -0.7544  0.7851
10019SOL    HW234514   1.314  10.871   2.650 -1.3363  0.5464  0.6483
10020SOL     OW34515   7.810   7.784   7.829  0.0333  0.5184  0.3455
10020SOL    HW134516   7.785   7.872   7.858 -1.8641  0.4094 -0.8298
10020SOL    HW234517   7.898   7.796   7.792  0.6010  1.5215  1.8670
10021SOL     OW34518   4.116   2.655   1.804  0.1324 -0.2591  0.5008
10021SOL    HW134519   4.085   2.683   1.717 -0.2638 -0.4697  0.5671
10021SOL    HW234520   4.211   2.664   1.800  0.3696 -2.4935 -0.7882
10022SOL     OW34521  10.366   9.844   0.036  0.0945 -0.5566  0.5561
10022SOL    HW134522  10.283   9.846   0.084 -0.2305 -0.0555 -0.0154
10022SOL    HW234523  10.342   9.864  -0.054  0.9556  0.6617  0.5782
10023SOL     OW34524   5.374   2.823   3.816 -0.0941  0.0665  0.3247
10023SOL    HW134525   5.369   2.897   3.876  0.0641  0.0641  0.3409
10023SOL    HW234526   5.317   2.756   3.855  0.8898 -0.3567  1.0676
10024SOL     OW34527   0.675   3.905   8.015  0.0622 -0.3454  0.8801
10024SOL    HW134528   0.663   3.998   7.996 -0.4946 -0.8481 -1.5491
10024SOL    HW234529   0.709   3.868   7.934 -1.0884 -2.5183  1.3169
10025SOL     OW34530   1.432   8.857   4.929 -0.5098  0.5852 -0.7888
10025SOL    HW134531   1.484   8.876   4.851 -0.2857  0.2128 -0.7315
10025SOL    HW234532   1.425   8.762   4.931 -1.0526  0.6213 -0.7013
10026SOL     OW34533   8.403   7.407   9.606 -0.0364 -0.3652  0.0284
10026SOL    HW134534   8.451   7.326   9.588 -0.9782 -0.5575 -1.9462
10026SOL    HW234535   8.343   7.415   9.532 -2.4544  0.3107  1.9451
10027SOL     OW34536   3.212  10.579   5.109  0.2670 -0.1874 -0.0055
10027SOL    HW134537   3.229  10.670   5.085  1.6282 -0.0810  1.2179
10027SOL    HW234538   3.300  10.541   5.120 -0.2859 -1.2282  0.9775
10028SOL     OW34539   1.468   3.645   6.388 -0.9012  0.0571  0.4406
10028SOL    HW134540   1.445   3.634   6.480  0.2772  0.2547  0.7796
10028SOL    HW234541   1.551   3.694   6.390 -1.5862  1.3347 -0.7570
10029SOL     OW34542   7.784   5.399   2.437 -0.6111 -0.1947 -0.4895
10029SOL    HW134543   7.739   5.483   2.442 -0.8545 -0.3937  0.8996
10029SOL    HW234544   7.761   5.365   2.350 -0.8610  0.9705 -0.8906
10030SOL     OW34545   2.598   4.980   8.769  0.2132 -0.1390  0.3410
10030SOL    HW134546   2.660   4.920   8.728  0.0037  0.5114 -0.9577
10030SOL    HW234547   2.514   4.935   8.765  0.0653  0.1989 -0.5894
10031SOL     OW34548   0.141   0.910   8.987  0.5136 -0.1029 -0.2162
10031SOL    HW134549   0.232   0.890   9.009  0.9159  1.5559 -0.2726
10031SOL    HW234550   0.113   0.970   9.056 -0.4084 -0.2650 -0.4441
10032SOL     OW34551   8.472   1.885   0.075  0.4210 -0.3781  0.0801
10032SOL    HW134552   8.531   1.960   0.076  0.2353 -0.2198 -0.5678
10032SOL    HW234553   8.527   1.812   0.046  0.4344 -0.3440  0.0191
10033SOL     OW34554  10.929   0.164  10.834 -0.1520  0.3603 -0.0302
10033SOL    HW134555  10.882   0.247  10.845  0.4507  0.5835  1.0138
10033SOL    HW234556  10.940   0.154  10.740 -0.3722  1.3942 -0.1713
10034SOL     OW34557   4.982   2.545   9.255 -0.0816  0.6608 -0.0768
10034SOL    HW134558   5.016   2.469   9.207 -0.8950  0.2578 -0.0229
10034SOL    HW234559   4.929   2.592   9.191 -1.0700  0.1888  0.3819
10035SOL     OW34560   2.584   2.700   0.439  0.3874  0.0986 -0.5208
10035SOL    HW134561   2.643   2.637   0.398 -0.9098 -1.0373 -0.7082
10035SOL    HW234562   2.505   2.649   0.460 -0.0344  1.2750  0.8986
10036SOL     OW34563   3.811   2.051   4.015 -0.0405  0.1535  0.1522
10036SOL    HW134564   3.756   1.982   4.052  0.7264 -0.5320  0.0449
10036SOL    HW234565   3.787   2.053   3.923  0.4883 -0.5212 -0.0071
10037SOL     OW34566   1.235   0.777   0.146 -0.4775 -0.5827  0.1366
10037SOL    HW134567   1.160   0.757   0.203 -0.8095  1.3220  0.4215
10037SOL    HW234568   1.221   0.867   0.118  1.3307 -0.4439 -0.4414
10038SOL     OW34569  10.033   9.230   3.462 -0.1962 -0.5364  0.2287
10038SOL    HW134570  10.117   9.217   3.508 -0.6080  0.8246  1.4348
10038SOL    HW234571  10.045   9.310   3.412 -0.0581 -1.5461 -1.4433
10039SOL     OW34572   3.118   9.576   8.839 -0.5154  0.3929  0.2309
10039SOL    HW134573   3.187   9.641   8.823 -0.9960  0.9581  0.4369
10039SOL    HW234574   3.083   9.600   8.925  1.8984 -2.4488  2.2525
10040SOL     OW34575   8.090   4.499   8.763 -0.3864  0.3741  0.0619
10040SOL    HW134576   8.156   4.558   8.801  0.5633 -0.3059 -0.5007
10040SOL    HW234577   8.141   4.429   8.723 -1.4894 -1.5643  1.8339
10041SOL     OW34578   9.939   6.690   3.544 -0.4175 -0.1624  0.2246
10041SOL    HW134579   9.887   6.733   3.476  2.3544  1.4159 -1.0450
10041SOL    HW234580  10.014   6.652   3.497  0.3230 -1.1671  2.1089
10042SOL     OW34581   3.983   7.295   5.328  0.4698  0.1393 -0.2017
10042SOL    HW134582   3.888   7.306   5.320  0.5239  0.8389  0.0881
10042SOL    HW234583   4.010   7.359   5.393  1.0430 -0.5819  0.2925
10043SOL     OW34584  10.489   9.242   0.602 -0.0738 -0.1556  0.1056
10043SOL    HW134585  10.442   9.277   0.526 -1.6939 -1.3942  0.4890
10043SOL    HW234586  10.509   9.318   0.656 -1.6455  0.4158 -0.0826
10044SOL     OW34587   8.062   5.724  10.838  0.2535 -0.2123 -0.1669
10044SOL    HW134588   8.111   5.655  10.793  0.7862  0.0282  0.0376
10044SOL    HW234589   8.034   5.684  10.920 -1.6337 -1.0054 -1.1102
10045SOL     OW34590   9.112   8.385   7.951  0.3268 -0.3900 -0.2050
10045SOL    HW134591   9.176   8.370   7.881 -0.4681 -0.6419 -0.8914
10045SOL    HW234592   9.145   8.461   7.999 -0.1659  1.1016 -2.1136
10046SOL     OW34593   7.055  10.628   4.860 -0.1529  0.0646 -0.3040
10046SOL    HW134594   7.067  10.711   4.814 -0.0073  1.0726  1.4710
10046SOL    HW234595   7.004  10.574   4.800 -1.3155  1.8716 -1.0063
10047SOL     OW34596   1.051   2.921   9.820 -0.5203  0.0324 -0.0461
10047SOL    HW134597   0.961   2.889   9.821 -0.6126  0.2667 -0.4422
10047SOL    HW234598   1.052   2.993   9.883 -0.4211 -0.4573  0.5170
10048SOL     OW34599   4.072   7.164   8.815  0.3358  0.6021 -0.1114
10048SOL    HW134600   4.160   7.201   8.807  0.6885  0.0574  1.0239
10048SOL    HW234601   4.073   7.117   8.899 -1.9694  3.2556  1.6260
10049SOL     OW34602   2.437   4.273   2.128 -0.2698 -0.1222 -0.3937
10049SOL    HW134603   2.472   4.328   2.199  1.3374  0.2428 -1.4101
10049SOL    HW234604   2.445   4.184   2.161  0.3857  0.0492 -0.0607
10050SOL     OW34605   0.476  10.022   6.928  0.3783  0.2276 -0.1152
10050SOL    HW134606   0.458  10.098   6.873  1.0436  0.3580 -0.1625
10050SOL    HW234607   0.403   9.962   6.910  0.3848  0.4241 -0.8525
10051SOL     OW34608  10.341   0.364   4.218  0.3140  0.4523  0.1542
10051SOL    HW134609  10.357   0.447   4.262  1.3087  1.1209 -1.3891
10051SOL    HW234610  10.288   0.386   4.141  0.3964 -0.3623 -0.1555
10052SOL     OW34611   6.522   3.424   3.877  0.3243 -0.3584  0.1256
10052SOL    HW134612   6.591   3.422   3.944  0.4350  0.8736  0.0742
10052SOL    HW234613   6.452   3.475   3.916  0.8473  1.3919 -1.0834
10053SOL     OW34614   3.283   6.369   2.957  0.4332 -0.1766  0.2605
10053SOL    HW134615   3.228   6.297   2.926  0.3245  0.2877 -0.6415
10053SOL    HW234616   3.308   6.343   3.046 -0.7029 -0.7011  0.4508
10054SOL     OW34617   7.042   8.641  10.763  0.0092 -0.6086 -0.1815
10054SOL    HW134618   6.995   8.678  10.688  0.7529  3.0580  0.9288
10054SOL    HW234619   7.135   8.656  10.743  0.3214 -1.3656  0.6336
10055SOL     OW34620   3.137   9.201  10.525  0.9028 -0.1854  0.0534
10055SOL    HW134621   3.136   9.292  10.556  2.8156  0.0229 -0.3488
10055SOL    HW234622   3.129   9.148  10.604 -0.9834  0.2954  0.2281
10056SOL     OW34623   1.849   4.595   3.789 -0.3258 -0.5293  1.0448
10056SOL    HW134624   1.825   4.539   3.716 -0.6565  0.5402  0.3035
10056SOL    HW234625   1.924   4.646   3.757 -1.9609  1.6827  0.5168
10057SOL     OW34626   7.623   9.251  10.796 -0.1739 -0.3976  0.3221
10057SOL    HW134627   7.579   9.335  10.793 -1.6901 -1.1600  0.0600
10057SOL    HW234628   7.704   9.264  10.746 -0.0559  1.0614  0.8714
10058SOL     OW34629   4.213   5.619   5.219 -0.3081  0.0717  0.2494
10058SOL    HW134630   4.169   5.686   5.167  0.8811 -0.0632 -0.9792
10058SOL    HW234631   4.298   5.607   5.176  0.8745  0.1697  2.3910
10059SOL     OW34632   1.708  11.037   7.471 -0.2962  0.0721  0.2848
10059SOL    HW134633   1.707  11.004   7.382 -0.9793  0.8937 -0.0190
10059SOL    HW234634   1.657  11.118   7.468  0.9067  0.8957  1.1116
10060SOL     OW34635   4.782   6.214   7.019 -0.0980 -0.8142 -0.2779
10060SOL    HW134636   4.781   6.171   6.934 -2.4317  1.5248 -1.5777
10060SOL    HW234637   4.699   6.190   7.059 -0.1190  0.0867  0.2354
10061SOL     OW34638   5.176   2.829   5.315 -0.3676 -0.6308  0.3442
10061SOL    HW134639   5.230   2.763   5.270  0.1415 -0.7381  1.0920
10061SOL    HW234640   5.091   2.823   5.271 -0.0117 -1.0246 -0.3218
10062SOL     OW34641   0.464   6.649   7.076 -0.3252 -0.3342  0.2741
10062SOL    HW134642   0.409   6.727   7.083  1.1075  0.9060 -1.3861
10062SOL    HW234643   0.551   6.679   7.102  0.2971 -1.3157 -0.6110
10063SOL     OW34644   3.320   5.140   3.447  0.3476  0.0806 -0.0167
10063SOL    HW134645   3.402   5.119   3.401  0.5548  2.3972 -0.8308
10063SOL    HW234646   3.257   5.157   3.377 -0.2304  0.5033  0.5975
10064SOL     OW34647   0.310   9.257   1.430  0.1767 -0.2175 -0.3348
10064SOL    HW134648   0.359   9.314   1.489 -0.1459 -0.5328  0.2551
10064SOL    HW234649   0.348   9.170   1.443 -0.0415 -0.3287 -0.4330
10065SOL     OW34650   8.816   8.235   4.614  0.4359  0.7566  0.3710
10065SOL    HW134651   8.761   8.230   4.536  0.4718 -0.6750  0.4108
10065SOL    HW234652   8.766   8.288   4.676 -0.7565 -0.2432  0.2890
10066SOL     OW34653   4.389   1.330   6.752  0.1635 -0.3566 -0.3296
10066SOL    HW134654   4.469   1.349   6.704  0.2794 -2.3654 -1.0467
10066SOL    HW234655   4.416   1.269   6.820 -0.4596  0.4176  0.6395
10067SOL     OW34656   0.507   7.778   3.848  0.4997 -0.3609 -0.1135
10067SOL    HW134657   0.478   7.798   3.759  1.3933  1.1352 -0.1104
10067SOL    HW234658   0.602   7.771   3.841  0.4486 -1.8190  0.4556
10068SOL     OW34659   6.081   2.813   4.096 -0.6170  0.5848  0.0325
10068SOL    HW134660   6.028   2.744   4.056  0.1064  1.3588 -2.4945
10068SOL    HW234661   6.124   2.771   4.171 -2.8189 -0.6999  0.6349
10069SOL     OW34662   0.330   9.921  10.562 -0.0577 -0.4252 -0.3792
10069SOL    HW134663   0.315   9.970  10.481  1.1811 -0.2856 -0.5381
10069SOL    HW234664   0.407   9.962  10.601 -1.0866 -0.0008  1.2716
10070SOL     OW34665   5.037   8.884   4.298  0.2919  0.1734  0.1028
10070SOL    HW134666   4.967   8.823   4.320  0.1402  0.0535 -0.6759
10070SOL    HW234667   4.998   8.971   4.306  0.1079  0.1141 -0.1368
10071SOL     OW34668   9.384   5.221  10.480 -0.0103  0.0085  0.1018
10071SOL    HW134669   9.419   5.308  10.502 -0.1796 -0.1559  1.0303
10071SOL    HW234670   9.461   5.165  10.472 -0.0013 -1.0061  4.8186
10072SOL     OW34671   3.316   0.506   1.068 -0.6732 -0.3002  0.3932
10072SOL    HW134672   3.356   0.567   1.006  1.4055 -1.0854  0.8871
10072SOL    HW234673   3.305   0.425   1.017  0.0584 -0.6222  0.7281
10073SOL     OW34674   3.982   9.283   3.039  0.0597  0.2387 -0.0865
10073SOL    HW134675   3.928   9.286   2.961  1.1230 -0.3181 -0.8699
10073SOL    HW234676   3.922   9.306   3.111 -0.8743  0.9788 -1.0715
10074SOL     OW34677   0.581   6.863   0.689  0.1541  0.2676  0.4236
10074SOL    HW134678   0.579   6.768   0.675  0.0470  0.3448 -0.0731
10074SOL    HW234679   0.634   6.874   0.768 -0.4005 -0.2534  0.8771
10075SOL     OW34680   7.419   6.135   5.938 -0.2924 -0.3793 -0.4741
10075SOL    HW134681   7.426   6.068   6.005 -0.2247 -0.2577 -0.3606
10075SOL    HW234682   7.503   6.180   5.939 -0.4763 -0.0400 -0.2849
10076SOL     OW34683   2.854   0.138   7.394 -0.2054 -0.6198  0.0904
10076SOL    HW134684   2.876   0.223   7.357  0.6100 -0.1229  1.6635
10076SOL    HW234685   2.937   0.090   7.395 -0.2941 -0.7554  0.9448
10077SOL     OW34686   8.160  10.535   9.619 -0.1202 -0.2334  0.2069
10077SOL    HW134687   8.200  10.493   9.695 -0.8128 -0.5564  0.4006
10077SOL    HW234688   8.218  10.609   9.600 -0.1304  0.0798  1.2842
10078SOL     OW34689   2.987  10.590   7.217 -0.0053  0.1046 -0.1109
10078SOL    HW134690   2.927  10.545   7.159 -0.1186  1.3601 -1.0183
10078SOL    HW234691   3.073  10.578   7.177  0.0132  0.3614 -0.1533
10079SOL     OW34692   8.988   1.212   3.879 -0.4879  0.7071  0.4586
10079SOL    HW134693   8.927   1.286   3.881  0.2985  1.3850 -0.1571
10079SOL    HW234694   8.983   1.175   3.967 -1.8089  0.7243  0.4111
10080SOL     OW34695   5.125   6.399   5.070  0.4981  0.0652  0.1641
10080SOL    HW134696   5.121   6.475   5.012 -2.0864  0.2982  0.5149
10080SOL    HW234697   5.131   6.324   5.011 -2.1046  0.2927 -0.4890
10081SOL     OW34698   6.188   6.784   0.440 -0.5978  0.1389  0.2674
10081SOL    HW134699   6.217   6.875   0.441  1.4127 -0.4296  1.5120
10081SOL    HW234700   6.257   6.737   0.489 -1.3374 -2.1048 -0.7208
10082SOL     OW34701   7.556   5.157   8.580  0.3977 -0.3775 -0.4374
10082SOL    HW134702   7.561   5.083   8.641 -2.7197 -0.2905  0.0527
10082SOL    HW234703   7.595   5.123   8.499  1.2546 -1.7037  0.4780
10083SOL     OW34704   3.400  10.777   6.183 -0.5291  0.5230  0.0100
10083SOL    HW134705   3.424  10.850   6.125  0.5715  0.5501  0.4737
10083SOL    HW234706   3.447  10.702   6.146  0.9252  0.7225  1.3564
10084SOL     OW34707   4.832   0.081  10.156 -0.2211  0.2366 -0.4668
10084SOL    HW134708   4.796   0.041  10.235  0.7852 -0.5421 -0.3865
10084SOL    HW234709   4.789   0.035  10.084  1.1531 -1.2834 -0.3812
10085SOL     OW34710   8.447   6.434   5.558  0.3940  0.3416 -0.5176
10085SOL    HW134711   8.411   6.406   5.642  0.4599  1.4826 -0.0887
10085SOL    HW234712   8.540   6.412   5.563  0.5786  1.1826  0.0818
10086SOL     OW34713   6.663   2.356   4.830 -0.4863  0.8461 -0.0412
10086SOL    HW134714   6.745   2.309   4.817  0.7423  2.7019  0.5621
10086SOL    HW234715   6.598   2.287   4.843  0.6569 -0.7346 -2.0034
10087SOL     OW34716   7.242   6.031   1.788 -0.6641  0.4313  0.1807
10087SOL    HW134717   7.177   5.960   1.791  0.4973 -0.6390  2.2349
10087SOL    HW234718   7.316   5.993   1.740  0.1095  0.0576  1.6072
10088SOL     OW34719   8.568   6.067   2.104 -0.4170  0.4594 -0.6693
10088SOL    HW134720   8.624   6.054   2.027  0.5276  1.5591 -0.1909
10088SOL    HW234721   8.506   5.993   2.101 -0.4720  0.5311 -2.5313
10089SOL     OW34722   3.351   5.930   4.113 -0.2508  0.2561  0.3029
10089SOL    HW134723   3.439   5.901   4.091 -0.0881  1.8374 -1.4207
10089SOL    HW234724   3.303   5.850   4.133  0.9620 -0.8973 -1.1742
10090SOL     OW34725  10.219   0.210  10.279 -0.0634 -0.0107 -0.2146
10090SOL    HW134726  10.208   0.129  10.229 -0.2509  0.6221 -1.2343
10090SOL    HW234727  10.240   0.181  10.367 -0.9707 -1.1854 -0.3510
10091SOL     OW34728   9.831   9.541   4.939 -0.4430  0.4709 -0.2131
10091SOL    HW134729   9.830   9.633   4.913  0.6222  0.5048 -0.1796
10091SOL    HW234730   9.924   9.519   4.946 -0.6796 -0.7446 -0.6789
10092SOL     OW34731   3.705   4.365   4.738 -0.1767 -0.2673  0.0930
10092SOL    HW134732   3.735   4.448   4.775  1.5412 -0.4279 -0.8431
10092SOL    HW234733   3.736   4.298   4.799 -0.3862 -0.2994  0.1629
10093SOL     OW34734   5.624   0.110   3.912 -0.3200 -0.4087  0.0871
10093SOL    HW134735   5.651   0.071   3.829 -3.2468 -0.1376 -1.0964
10093SOL    HW234736   5.565   0.046   3.951 -0.8979  0.5058  0.7656
10094SOL     OW34737   7.944   9.728   8.169  0.3623 -0.0934 -0.2833
10094SOL    HW134738   8.033   9.698   8.185  0.9162  2.4333  2.1510
10094SOL    HW234739   7.896   9.703   8.248 -0.9530 -0.7324 -1.2357
10095SOL     OW34740   3.650   9.932   6.502 -0.1163  0.6709  0.1281
10095SOL    HW134741   3.566   9.948   6.546 -0.9657 -2.6360  0.0383
10095SOL    HW234742   3.625   9.892   6.419  1.5032 -1.5552  0.6337
10096SOL     OW34743   5.108   8.014   3.786  0.1810  0.1346 -0.0552
10096SOL    HW134744   5.174   7.974   3.842 -0.7771 -0.3566  0.7502
10096SOL    HW234745   5.148   8.096   3.756  0.3668  0.8923  2.1197
10097SOL     OW34746   3.014   6.168   9.413 -0.1534  0.0420 -0.3745
10097SOL    HW134747   3.097   6.124   9.429 -0.1771 -0.7148 -2.1470
10097SOL    HW234748   3.003   6.168   9.318 -2.1334  0.1933 -0.2072
10098SOL     OW34749   0.987   7.104   1.167 -0.2345 -0.2479  0.4670
10098SOL    HW134750   0.940   7.022   1.178  2.6409 -2.0389  0.5842
10098SOL    HW234751   1.072   7.078   1.132  1.5478  2.4284  2.3801
10099SOL     OW34752   7.151  10.037   7.815  0.1892  0.3718 -0.3836
10099SOL    HW134753   7.090  10.108   7.833  1.0523  1.1847 -0.5784
10099SOL    HW234754   7.163  10.039   7.720  0.3341  0.0612 -0.3735
10100SOL     OW34755   3.008   5.708   9.964 -0.0629  0.4103 -0.2509
10100SOL    HW134756   3.003   5.802   9.950  0.3072  0.5370  0.4474
10100SOL    HW234757   2.917   5.678   9.961 -0.3103  1.0045  1.0053
10101SOL     OW34758   0.475  11.004   4.830 -0.2571 -0.4291  0.2243
10101SOL    HW134759   0.486  11.033   4.740 -0.4930 -1.6629 -0.2251
10101SOL    HW234760   0.382  10.983   4.837  0.3782 -4.1733 -0.5254
10102SOL     OW34761   9.506   3.229  10.919  0.3705 -0.3256  0.2669
10102SOL    HW134762   9.562   3.159  10.951 -2.2385 -2.8076 -0.2300
10102SOL    HW234763   9.418   3.192  10.918 -0.6014  1.3304 -4.4466
10103SOL     OW34764   6.618   9.692   6.293  0.1797 -0.1537 -0.1551
10103SOL    HW134765   6.663   9.767   6.254 -0.9758  0.3776 -0.5084
10103SOL    HW234766   6.593   9.638   6.219  0.1957 -0.4289  0.0384
10104SOL     OW34767   8.149   9.805   6.640  0.4899 -0.0639 -0.4088
10104SOL    HW134768   8.072   9.858   6.661 -0.6545 -1.7696 -0.0504
10104SOL    HW234769   8.144   9.791   6.546  1.3250  1.1982 -0.6654
10105SOL     OW34770   4.965   8.734   0.424 -0.0025  0.7797 -0.1326
10105SOL    HW134771   5.022   8.739   0.500 -0.0399  1.0063 -0.1190
10105SOL    HW234772   5.020   8.696   0.355  0.3786  1.6275 -0.3175
10106SOL     OW34773   5.657   8.851   1.566  0.4402 -0.2210  0.3428
10106SOL    HW134774   5.701   8.905   1.631  0.2558 -1.6911  1.7723
10106SOL    HW234775   5.724   8.788   1.537  0.1121 -0.5307  0.2468
10107SOL     OW34776   1.838   1.766   3.419  0.3567  0.0979 -0.0855
10107SOL    HW134777   1.819   1.840   3.361  1.2548 -0.1372 -0.7007
10107SOL    HW234778   1.759   1.712   3.416  0.4268  0.0362 -1.1832
10108SOL     OW34779   6.975   8.133  10.271  0.0719 -0.1370  0.3220
10108SOL    HW134780   7.029   8.185  10.212  0.4923  0.1799  0.9741
10108SOL    HW234781   6.885   8.149  10.242  0.2094  0.7812  0.3726
10109SOL     OW34782   6.600   2.634   4.780 -0.3972 -0.5366  0.1397
10109SOL    HW134783   6.610   2.662   4.689  3.0319  0.3463  0.6373
10109SOL    HW234784   6.618   2.540   4.777  0.9624 -0.2955 -0.0028
10110SOL     OW34785   7.025   5.858   1.753 -0.0323 -0.3636  0.0817
10110SOL    HW134786   6.944   5.846   1.803  0.0110  3.0470  1.2141
10110SOL    HW234787   6.996   5.873   1.663 -0.6405  0.2780  0.3776
10111SOL     OW34788   3.676  10.677   2.950  0.0469  0.0357  0.3931
10111SOL    HW134789   3.584  10.659   2.930  0.0667  0.2877  0.0628
10111SOL    HW234790   3.701  10.746   2.889  0.1481  0.7588  1.2440
10112SOL     OW34791   5.905   3.983   3.702 -0.3979  0.3215  0.6057
10112SOL    HW134792   5.942   3.945   3.781  0.5742 -0.0574 -0.0092
10112SOL    HW234793   5.968   4.049   3.674 -1.3842  1.4225  0.8676
10113SOL     OW34794  10.261   3.353   5.442 -0.9559 -0.5537  0.0332
10113SOL    HW134795  10.176   3.350   5.485 -0.6632  2.9228  1.1611
10113SOL    HW234796  10.324   3.349   5.513 -0.3814  1.8967 -0.2458
10114SOL     OW34797   0.693   2.713  10.384 -0.4637  0.5843 -0.2437
10114SOL    HW134798   0.637   2.636  10.379  0.3105  0.0617 -1.5366
10114SOL    HW234799   0.703   2.741  10.293  2.2401 -0.0385 -0.2231
10115SOL     OW34800  10.554   5.639   4.381  0.4507 -0.0587 -0.0214
10115SOL    HW134801  10.557   5.652   4.476  1.8848 -4.1582  0.7067
10115SOL    HW234802  10.645   5.619   4.357  0.0725  0.6410 -2.2577
10116SOL     OW34803   5.236   3.408   7.147 -0.1762 -0.8083 -0.7194
10116SOL    HW134804   5.316   3.460   7.143  0.4947 -1.4861  1.9719
10116SOL    HW234805   5.256   3.329   7.096 -0.0099  0.0315 -2.0009
10117SOL     OW34806   0.453   6.008   7.189  0.5348 -0.7858 -0.1360
10117SOL    HW134807   0.366   6.039   7.214  0.4019  0.5965 -2.0888
10117SOL    HW234808   0.437   5.923   7.148  0.2497 -1.0572  0.5263
10118SOL     OW34809   7.342   8.124   1.057  0.0610 -0.5145 -0.5445
10118SOL    HW134810   7.429   8.140   1.092 -1.0358  1.1062  1.7088
10118SOL    HW234811   7.357   8.099   0.966  2.9620 -2.3702  0.3055
10119SOL     OW34812   7.122   2.663   2.715 -0.2024 -0.0646 -0.5624
10119SOL    HW134813   7.136   2.575   2.679 -0.2834  0.1598 -1.1527
10119SOL    HW234814   7.191   2.674   2.781 -0.6347 -0.8486  0.0379
10120SOL     OW34815   3.562   8.442   5.005 -0.9470 -0.3426  0.0913
10120SOL    HW134816   3.582   8.518   4.951 -0.1979 -0.2559  0.4784
10120SOL    HW234817   3.491   8.398   4.959  0.5539 -1.0074 -1.6833
10121SOL     OW34818   9.667   6.692   7.599 -0.1739 -0.4471 -0.1941
10121SOL    HW134819   9.686   6.632   7.671 -0.3557 -2.2444 -1.5930
10121SOL    HW234820   9.752   6.730   7.577  0.3145 -1.6920 -0.5555
10122SOL     OW34821   7.408   0.175   3.765 -0.0280  0.4634  0.0872
10122SOL    HW134822   7.473   0.202   3.831 -0.2451 -1.0366  0.9720
10122SOL    HW234823   7.325   0.204   3.801  0.0390  1.5042 -0.5670
10123SOL     OW34824  10.642   4.681   5.281 -0.2125 -0.5353  0.0585
10123SOL    HW134825  10.633   4.751   5.216 -1.4879  0.0727  0.8619
10123SOL    HW234826  10.659   4.602   5.229 -0.0275  0.1395 -0.9282
10124SOL     OW34827  10.857  10.155   2.885 -0.4232  0.2177  0.3923
10124SOL    HW134828  10.783  10.169   2.943 -1.1708 -1.1536 -0.1935
10124SOL    HW234829  10.818  10.142   2.798  0.3055 -2.5043  0.3776
10125SOL     OW34830   2.889   0.255   0.255  0.0568 -0.5245  0.2237
10125SOL    HW134831   2.924   0.314   0.321 -0.8548 -1.0855  1.2367
10125SOL    HW234832   2.801   0.288   0.237 -0.6102 -1.7535  1.0792
10126SOL     OW34833  10.928   3.613   4.896  0.0923 -0.1380  0.1419
10126SOL    HW134834  11.015   3.635   4.929  0.5325 -0.4213 -0.7854
10126SOL    HW234835  10.884   3.697   4.888  0.2225 -0.0052  0.7637
10127SOL     OW34836   9.592   1.370  10.860 -0.5254 -0.3113  0.2633
10127SOL    HW134837   9.610   1.304  10.792  0.4811 -1.9059  1.9927
10127SOL    HW234838   9.678   1.403  10.885 -1.0003  1.7040 -0.5121
10128SOL     OW34839   4.479  10.979   2.240  0.3534 -0.5777 -0.2531
10128SOL    HW134840   4.488  10.997   2.147  1.8944  0.4186  0.0515
10128SOL    HW234841   4.564  10.944   2.267 -0.9246 -3.5798  0.2648
10129SOL     OW34842   0.563   3.071   1.987 -0.7024  0.0128 -0.2341
10129SOL    HW134843   0.639   3.127   2.002 -2.1870  1.8154  1.1267
10129SOL    HW234844   0.595   2.982   2.003  0.9551  0.7723  1.0506
10130SOL     OW34845  11.053   7.267   3.306  0.4428 -1.2691 -0.2679
10130SOL    HW134846  10.989   7.213   3.260 -0.4661 -0.4555  0.0130
10130SOL    HW234847  11.014   7.354   3.309  0.8013 -1.1255  1.3717
10131SOL     OW34848   5.780   6.418   1.178 -0.2628 -0.0671  0.5856
10131SOL    HW134849   5.733   6.351   1.128 -0.8408  0.7398  0.0160
10131SOL    HW234850   5.858   6.374   1.211 -0.1384 -0.7598 -0.5888
10132SOL     OW34851   5.616   8.907   3.215  0.0321  0.7729 -0.2001
10132SOL    HW134852   5.694   8.883   3.264 -0.9189 -3.3379 -0.2670
10132SOL    HW234853   5.580   8.983   3.260  2.8758  1.4623  1.0822
10133SOL     OW34854   8.030   0.666   0.094 -0.4097 -0.1892 -0.0807
10133SOL    HW134855   8.101   0.658   0.031  0.2465  1.6138  0.3745
10133SOL    HW234856   7.973   0.734   0.058  0.0931  1.0243  1.3344
10134SOL     OW34857   1.463   3.898   1.661  0.2138 -0.1908 -0.4378
10134SOL    HW134858   1.414   3.962   1.712  1.3742 -0.6612  1.3417
10134SOL    HW234859   1.402   3.824   1.651 -0.3729  0.3085 -0.6347
10135SOL     OW34860   8.329   1.407   4.627 -0.7006  0.1438  0.0293
10135SOL    HW134861   8.236   1.393   4.644 -0.3780 -1.0040  0.9829
10135SOL    HW234862   8.365   1.319   4.619 -0.0082  0.5731 -2.3278
10136SOL     OW34863  10.547   2.561   0.076 -0.0011  0.6920  0.0947
10136SOL    HW134864  10.519   2.470   0.062  0.4395  0.3139  1.5164
10136SOL    HW234865  10.472   2.603   0.119 -0.2427  1.0477 -0.6509
10137SOL     OW34866   2.648   2.985   4.575 -0.1243  0.4187  0.2182
10137SOL    HW134867   2.632   2.914   4.512  1.5656  0.4909 -0.3467
10137SOL    HW234868   2.697   2.944   4.646 -2.1070  0.3171  1.6251
10138SOL     OW34869   5.923   7.472   0.389 -0.0397 -0.0031  0.2114
10138SOL    HW134870   5.901   7.545   0.331 -0.4914  0.5588  1.0696
10138SOL    HW234871   5.994   7.505   0.443 -0.3358 -0.1484  0.6949
10139SOL     OW34872   1.283   2.120   0.614  0.0035  0.2311  0.9171
10139SOL    HW134873   1.264   2.193   0.673  0.7903  0.1884  1.2251
10139SOL    HW234874   1.352   2.071   0.657 -0.2494 -0.4845  0.5260
10140SOL     OW34875   6.269   6.209   7.086  0.1027  0.2986 -0.2446
10140SOL    HW134876   6.285   6.115   7.096 -1.0319  0.2243  1.3645
10140SOL    HW234877   6.271   6.224   6.992 -2.0395 -1.8464 -0.7405
10141SOL     OW34878   2.009   9.611   8.201 -0.1122 -0.5222 -0.1782
10141SOL    HW134879   2.047   9.650   8.279 -2.4272 -1.1292  1.3482
10141SOL    HW234880   1.978   9.525   8.230  0.3585 -1.4448 -2.1943
10142SOL     OW34881   7.661   6.705   6.226  0.1452 -0.6101 -0.4002
10142SOL    HW134882   7.665   6.777   6.289 -0.3809  1.7491 -2.8536
10142SOL    HW234883   7.568   6.693   6.208  0.3023 -0.9149 -1.0461
10143SOL     OW34884   8.033   9.027   6.922 -0.5012  0.1730  0.2591
10143SOL    HW134885   8.055   9.046   7.013 -1.7432  1.6805  0.2834
10143SOL    HW234886   8.091   9.082   6.870 -0.2826 -0.1535  0.1528
10144SOL     OW34887   0.451   6.419   7.962  0.0498  0.2568 -0.0631
10144SOL    HW134888   0.483   6.353   7.900 -0.2870 -1.4428  1.5147
10144SOL    HW234889   0.529   6.471   7.983  0.6472 -0.5357 -0.2534
10145SOL     OW34890   3.095   4.125   8.195  0.1051 -0.0098 -0.7314
10145SOL    HW134891   3.181   4.082   8.196  0.4423  0.6615 -0.7835
10145SOL    HW234892   3.055   4.096   8.113  0.1883 -0.4946 -0.6074
10146SOL     OW34893   3.951   2.904   2.191 -0.3416  0.0851 -0.6564
10146SOL    HW134894   4.034   2.952   2.191 -0.9413  1.3851  2.4442
10146SOL    HW234895   3.968   2.827   2.245 -1.2046  0.5811  0.3623
10147SOL     OW34896  11.044   1.709   8.569 -0.1795  0.0343  0.2023
10147SOL    HW134897  11.040   1.686   8.476 -0.5673 -0.0273  0.2306
10147SOL    HW234898  10.962   1.675   8.605 -0.2079  0.4005  0.4881
10148SOL     OW34899   7.015   5.896   2.294 -0.2297  0.5734 -0.0515
10148SOL    HW134900   7.089   5.853   2.251  0.4428 -1.6411  3.0182
10148SOL    HW234901   6.938   5.854   2.256  0.2103  0.5312 -0.9225
10149SOL     OW34902   0.013   8.254   4.752  0.1051  0.2431 -0.1974
10149SOL    HW134903  -0.014   8.252   4.660  0.3207 -0.4748 -0.2507
10149SOL    HW234904   0.097   8.301   4.751  0.0394  0.3575 -0.3499
10150SOL     OW34905   7.335   7.428   0.432 -0.5504  0.4465  0.2789
10150SOL    HW134906   7.297   7.489   0.370 -0.5592  0.1619  0.0006
10150SOL    HW234907   7.391   7.482   0.488  0.1042  0.5833 -0.4995
10151SOL     OW34908   9.637   7.486   4.084 -0.1270 -0.1769 -0.2003
10151SOL    HW134909   9.597   7.439   4.011  1.8058  0.0650 -1.4794
10151SOL    HW234910   9.694   7.422   4.126 -0.2517  0.0394  0.3032
10152SOL     OW34911   2.374   6.673   5.570  0.3763  0.7843  0.1840
10152SOL    HW134912   2.333   6.623   5.499 -0.6318  0.2761  1.0863
10152SOL    HW234913   2.430   6.737   5.526  0.4418 -0.0837 -1.0375
10153SOL     OW34914  10.814   2.015   3.807  0.2514 -0.1174 -0.0253
10153SOL    HW134915  10.890   1.968   3.839 -0.1393 -0.0587  1.0127
10153SOL    HW234916  10.767   1.952   3.752  0.0100 -0.7818  0.9328
10154SOL     OW34917   7.193   2.835  10.866  0.2649  0.3516 -0.2125
10154SOL    HW134918   7.243   2.754  10.878  1.4403  1.1714  0.6839
10154SOL    HW234919   7.260   2.903  10.855 -0.6898  1.2455 -0.7369
10155SOL     OW34920   3.925   2.378   9.236 -0.4328  0.2728  0.6548
10155SOL    HW134921   3.909   2.284   9.241 -1.8890  0.5011  0.5282
10155SOL    HW234922   3.873   2.415   9.307  0.0601  1.0066  0.6470
10156SOL     OW34923   1.610   1.506   3.405  0.4687 -0.7212 -0.0579
10156SOL    HW134924   1.687   1.490   3.461  0.3749 -0.5982  0.1071
10156SOL    HW234925   1.554   1.564   3.457  0.5301 -0.3415 -0.4092
10157SOL     OW34926   2.352   4.288   3.757  0.0131 -0.7470  0.5222
10157SOL    HW134927   2.419   4.322   3.699 -0.6043 -0.6001 -0.1147
10157SOL    HW234928   2.383   4.201   3.782 -0.1965 -1.2298 -0.8386
10158SOL     OW34929   8.313   4.920   9.115 -0.2771 -0.0497 -0.6118
10158SOL    HW134930   8.400   4.938   9.150 -0.2813  1.0827 -1.1347
10158SOL    HW234931   8.299   4.827   9.131  1.2604 -0.3792 -1.0224
10159SOL     OW34932   8.956   9.119   8.553 -0.0171  0.1138 -0.4336
10159SOL    HW134933   9.000   9.088   8.632 -0.0231  2.6496  0.6765
10159SOL    HW234934   8.970   9.050   8.489  1.5152 -1.2589  1.2631
10160SOL     OW34935   5.504   5.817   4.609 -0.2189  0.0207  0.0937
10160SOL    HW134936   5.530   5.795   4.698  2.3023  0.1135 -0.5346
10160SOL    HW234937   5.438   5.885   4.619 -0.4282 -0.4085  1.8828
10161SOL     OW34938   7.902   7.684   7.307  0.0948 -0.1862 -0.0854
10161SOL    HW134939   7.997   7.681   7.318  0.1190  0.8792  0.0350
10161SOL    HW234940   7.870   7.605   7.352  0.9581 -0.8842 -0.6665
10162SOL     OW34941   2.453   3.753  10.323  0.0082  0.1238  0.3461
10162SOL    HW134942   2.547   3.766  10.314 -0.2233  1.9872  0.1355
10162SOL    HW234943   2.442   3.703  10.403  1.1405  0.5195  0.7593
10163SOL     OW34944  10.347   3.567   0.849 -0.9308 -0.2611  0.4965
10163SOL    HW134945  10.345   3.642   0.789 -0.5571 -0.4500  0.2444
10163SOL    HW234946  10.368   3.606   0.934  1.2202 -0.2635  0.0344
10164SOL     OW34947   8.792   2.114   5.802  0.5081  0.6718 -0.4099
10164SOL    HW134948   8.748   2.099   5.719 -0.4436 -0.1708  0.2248
10164SOL    HW234949   8.834   2.030   5.822  0.1449  0.6548  0.2966
10165SOL     OW34950   2.943  10.139   0.149 -0.0867 -0.2410  0.2397
10165SOL    HW134951   2.919  10.123   0.058  0.5518 -0.2972  0.0755
10165SOL    HW234952   3.025  10.189   0.144 -1.1778  1.6953  0.7589
10166SOL     OW34953   2.677  10.510   1.344  0.3282 -0.1318 -0.6498
10166SOL    HW134954   2.740  10.490   1.413  1.6626  1.3242 -1.3873
10166SOL    HW234955   2.602  10.545   1.390  0.6954 -0.3555  0.1401
10167SOL     OW34956   1.145   3.491   1.250 -0.1008 -0.5284 -0.8252
10167SOL    HW134957   1.227   3.442   1.241 -0.1000 -0.6768 -0.1204
10167SOL    HW234958   1.127   3.491   1.344  0.5830  1.9692 -0.6220
10168SOL     OW34959   5.227   7.829   7.378 -0.1978 -0.2221 -0.0908
10168SOL    HW134960   5.210   7.877   7.459 -0.0850  0.4281 -0.4438
10168SOL    HW234961   5.172   7.873   7.313 -0.6105 -1.0098 -0.2802
10169SOL     OW34962   4.784  10.191   8.186 -0.1862  0.1858 -0.0142
10169SOL    HW134963   4.703  10.143   8.165 -0.6286  0.9072  0.0149
10169SOL    HW234964   4.831  10.133   8.246 -0.1868 -0.7015 -0.8403
10170SOL     OW34965   6.368  10.120   6.947  0.2732  0.6791  0.3233
10170SOL    HW134966   6.431  10.186   6.917 -0.2893  0.6558 -0.9863
10170SOL    HW234967   6.313  10.104   6.871 -2.0616  1.5482  1.7222
10171SOL     OW34968   3.201   5.069   0.566  0.6967 -0.5205  0.1899
10171SOL    HW134969   3.146   5.147   0.569  0.3829 -0.6521 -1.3340
10171SOL    HW234970   3.139   4.996   0.566  0.9285 -0.7189 -0.0978
10172SOL     OW34971   8.903   1.107   1.647  0.5900  0.0047 -0.1172
10172SOL    HW134972   8.952   1.058   1.713 -0.3702 -0.4839  0.2522
10172SOL    HW234973   8.864   1.040   1.591  0.8057  0.4001 -0.7596
10173SOL     OW34974   4.950   8.836   2.707  0.2289  0.6119 -0.4914
10173SOL    HW134975   5.040   8.818   2.736 -0.8789 -0.2549  2.7607
10173SOL    HW234976   4.956   8.922   2.664  2.4476  0.9773  0.4231
10174SOL     OW34977   1.060   3.619   7.129 -0.1138  0.5612  0.2834
10174SOL    HW134978   0.968   3.607   7.152 -0.0932 -1.1113 -0.3293
10174SOL    HW234979   1.107   3.557   7.185  0.3326 -0.6044 -1.2800
10175SOL     OW34980   8.228   2.200   3.944 -0.0953  0.2851 -0.3920
10175SOL    HW134981   8.179   2.188   4.025 -0.0940  0.2191 -0.4004
10175SOL    HW234982   8.162   2.190   3.875  0.3413 -2.4601 -0.5292
10176SOL     OW34983   7.284  10.813   4.139 -0.5524  0.2580  0.4917
10176SOL    HW134984   7.237  10.757   4.201 -1.9728  1.3725  0.4924
10176SOL    HW234985   7.233  10.894   4.138  0.2097  0.7529 -1.1243
10177SOL     OW34986   3.943  10.758   1.988 -0.0338  0.4303  0.5048
10177SOL    HW134987   3.960  10.823   1.919  0.3730  0.9197  1.0495
10177SOL    HW234988   3.955  10.807   2.070  2.2708 -0.7749  0.9829
10178SOL     OW34989   6.288   7.002   0.175  0.6483  0.2192  0.1450
10178SOL    HW134990   6.350   6.944   0.219  0.2398 -0.7854 -0.5684
10178SOL    HW234991   6.245   7.049   0.246  0.6179 -0.7430  0.7860
10179SOL     OW34992  10.284  10.640   0.935  0.7242 -0.1282  0.1794
10179SOL    HW134993  10.225  10.623   1.007  1.7234 -0.0673  1.0393
10179SOL    HW234994  10.257  10.579   0.866 -0.3915 -0.0111  0.5062
10180SOL     OW34995   7.437   5.112   5.414  0.2095  1.0803 -0.3651
10180SOL    HW134996   7.402   5.177   5.353  0.2208  1.1010 -0.3500
10180SOL    HW234997   7.474   5.164   5.485 -1.5482  1.0234  0.6263
10181SOL     OW34998   6.368  10.875   2.030  0.2293 -0.7990  0.7390
10181SOL    HW134999   6.385  10.799   2.085 -0.4969 -1.0199  0.6684
10181SOL    HW235000   6.451  10.892   1.986  0.5529 -1.2014  1.1876
10182SOL     OW35001   4.350   2.144   0.068  0.1966  0.4845  0.1527
10182SOL    HW135002   4.326   2.193   0.147  2.1898 -0.0192  1.1288
10182SOL    HW235003   4.303   2.060   0.077  0.1378  0.5645  0.6313
10183SOL     OW35004   5.827   9.733   0.919 -0.1853 -0.6760  0.8984
10183SOL    HW135005   5.870   9.745   0.834  0.5797 -2.4448  1.0012
10183SOL    HW235006   5.767   9.660   0.906 -0.1942 -0.8542  1.8404
10184SOL     OW35007   1.400   0.636  11.054  0.1100  0.1606  0.0361
10184SOL    HW135008   1.446   0.700  10.999  1.2129 -0.0432  0.6919
10184SOL    HW235009   1.351   0.690  11.116  0.0092  0.3786 -0.2289
10185SOL     OW35010   2.479  10.407   3.795  0.0847  0.1475  0.0855
10185SOL    HW135011   2.422  10.416   3.871 -0.2069  1.1498 -0.2257
10185SOL    HW235012   2.502  10.314   3.792 -1.3645 -0.2460  0.3513
10186SOL     OW35013   5.368  10.574  10.339 -0.0871  0.1282  0.3494
10186SOL    HW135014   5.444  10.574  10.398  0.9978  0.2810 -1.0066
10186SOL    HW235015   5.400  10.614  10.258 -1.9692  1.3558  0.1547
10187SOL     OW35016   1.081   4.901   6.047  0.7045  0.3916  0.2152
10187SOL    HW135017   1.093   4.995   6.042  2.3393  0.3816  2.4984
10187SOL    HW235018   1.048   4.876   5.960 -2.2424  3.3259  0.3156
10188SOL     OW35019   8.507   6.147   7.842  0.0608 -0.0735  0.2747
10188SOL    HW135020   8.453   6.217   7.806 -1.5398 -0.8158  1.1336
10188SOL    HW235021   8.504   6.160   7.937 -0.4431 -1.4013  0.4663
10189SOL     OW35022   5.949   8.653   0.324 -0.2546 -0.3449  0.5761
10189SOL    HW135023   5.982   8.724   0.378 -2.9514  1.9418 -0.5582
10189SOL    HW235024   5.983   8.672   0.236 -1.9287  0.2951  0.0305
10190SOL     OW35025   3.827   0.877   7.251  0.2941  0.2002  0.3197
10190SOL    HW135026   3.752   0.936   7.239  1.2990  1.6143  0.6727
10190SOL    HW235027   3.903   0.935   7.244  1.3696 -1.2476 -0.3207
10191SOL     OW35028   4.346   5.608   2.624  0.1232 -0.5271 -0.1928
10191SOL    HW135029   4.282   5.616   2.695  0.2615 -0.1454 -0.1060
10191SOL    HW235030   4.294   5.606   2.544  0.0455  1.6801 -0.2712
10192SOL     OW35031   7.747   6.485   0.709 -0.7513  0.0931 -0.1558
10192SOL    HW135032   7.733   6.419   0.776 -1.0065  0.4805  0.1832
10192SOL    HW235033   7.752   6.436   0.627  0.3525 -0.4543  0.2297
10193SOL     OW35034   5.175   8.212   9.241  0.3432  0.3721  0.4676
10193SOL    HW135035   5.208   8.233   9.329 -0.1859 -1.8286  1.2518
10193SOL    HW235036   5.081   8.201   9.254  0.4312 -1.2865 -0.0568
10194SOL     OW35037   5.796   7.317   3.095 -0.1738  0.3854 -0.1140
10194SOL    HW135038   5.786   7.408   3.125  0.2416  0.4497 -0.1624
10194SOL    HW235039   5.763   7.264   3.167 -0.8860  0.5854 -0.2841
10195SOL     OW35040   1.053   8.792   4.513  0.0872  0.6990 -0.3990
10195SOL    HW135041   1.106   8.737   4.455  0.7944  0.7600  0.1725
10195SOL    HW235042   0.963   8.774   4.487  0.0808 -2.6075  1.2984
10196SOL     OW35043   9.686   9.974   3.606 -0.2092 -0.4069 -0.1187
10196SOL    HW135044   9.660  10.065   3.595  1.5922  0.0292 -1.1369
10196SOL    HW235045   9.612   9.934   3.652  0.0466  2.1474  2.8600
10197SOL     OW35046  11.059   0.575   6.775 -0.4671  0.0548 -0.3065
10197SOL    HW135047  11.096   0.493   6.808 -0.7657 -0.1942 -0.5796
10197SOL    HW235048  11.077   0.573   6.681 -0.3059  0.3951 -0.2853
10198SOL     OW35049   6.687   9.178  10.115 -0.0993 -0.5890  0.9704
10198SOL    HW135050   6.714   9.103  10.167  1.0790 -0.5457  0.4731
10198SOL    HW235051   6.679   9.249  10.179 -1.9828 -1.2858  1.5540
10199SOL     OW35052   7.213  10.336   4.645 -0.2272 -0.4936 -0.0228
10199SOL    HW135053   7.249  10.359   4.559 -0.8671 -0.2399 -0.2295
10199SOL    HW235054   7.118  10.346   4.634 -0.3461 -0.9889  0.5594
10200SOL     OW35055   7.879   6.281  10.463 -0.3362  0.3364 -0.5144
10200SOL    HW135056   7.921   6.352  10.513 -1.8229  1.3289 -0.6172
10200SOL    HW235057   7.941   6.208  10.469  0.6916  1.2491  0.6072
10201SOL     OW35058   5.500   5.815   2.499  0.2818  0.0957 -0.2348
10201SOL    HW135059   5.572   5.822   2.437 -0.9464 -0.7055 -1.8358
10201SOL    HW235060   5.516   5.884   2.563  2.9027 -0.5991 -0.0191
10202SOL     OW35061   7.401  10.755   0.046  0.3678 -0.1240  0.0462
10202SOL    HW135062   7.390  10.735  -0.047  1.2108  0.5350 -0.2091
10202SOL    HW235063   7.445  10.678   0.082 -0.2033 -0.4932 -0.0484
10203SOL     OW35064   6.340   7.079   7.253 -0.2224 -0.0130  0.9081
10203SOL    HW135065   6.332   6.990   7.221 -0.3864 -0.5457  2.3809
10203SOL    HW235066   6.424   7.110   7.218 -1.1167  0.0488 -1.3805
10204SOL     OW35067   9.475   0.253   5.706 -0.1685 -0.1915 -0.3532
10204SOL    HW135068   9.568   0.267   5.685 -0.6740  2.7190 -0.9981
10204SOL    HW235069   9.432   0.250   5.621 -0.9118  0.4788 -0.0063
10205SOL     OW35070   1.157  10.847   9.861  0.1460 -0.2044 -0.4085
10205SOL    HW135071   1.245  10.885   9.862  0.2924 -0.4473 -1.6295
10205SOL    HW235072   1.169  10.756   9.888  0.2279 -0.1673 -0.3205
10206SOL     OW35073   9.563  10.568   2.691 -0.3016  0.1578  0.4983
10206SOL    HW135074   9.504  10.493   2.701 -1.2925  0.5758 -1.6166
10206SOL    HW235075   9.524  10.619   2.620  3.0962 -0.0558 -1.7482
10207SOL     OW35076   5.020   9.552   3.977  0.4633  0.0968  0.0714
10207SOL    HW135077   4.941   9.569   4.028 -0.6350  0.1614 -1.5704
10207SOL    HW235078   5.044   9.462   4.000 -0.4166 -0.1246  0.1595
10208SOL     OW35079   3.104   7.799   4.203  0.0651 -0.8391 -0.5452
10208SOL    HW135080   3.058   7.716   4.193 -0.1017 -0.6349 -1.5409
10208SOL    HW235081   3.043   7.865   4.170 -0.2267 -0.1697  1.1882
10209SOL     OW35082   8.136   7.285   9.055  0.2267  0.2072 -0.2393
10209SOL    HW135083   8.103   7.327   9.134  0.7087 -1.6622  1.0401
10209SOL    HW235084   8.227   7.263   9.076  0.1786 -0.8773 -1.0488
10210SOL     OW35085   4.561   8.070   5.210  0.2552  0.1985  0.2025
10210SOL    HW135086   4.591   8.002   5.150 -0.7640 -2.0121  2.0858
10210SOL    HW235087   4.609   8.054   5.291 -0.0078  1.7555  0.6985
10211SOL     OW35088   6.999   3.113   7.666 -0.1041  0.3742 -0.4344
10211SOL    HW135089   6.926   3.098   7.726  0.9752 -1.4921  0.4979
10211SOL    HW235090   7.001   3.208   7.654 -2.2231  0.5403  0.0510
10212SOL     OW35091   2.794   8.235  10.129 -0.0662  0.5487  0.4692
10212SOL    HW135092   2.869   8.281  10.166  1.0427 -0.8866  0.1232
10212SOL    HW235093   2.731   8.229  10.201  1.2789 -0.5626  1.6123
10213SOL     OW35094   9.035   6.419   8.758  0.3394  0.0485 -0.2535
10213SOL    HW135095   8.995   6.506   8.763  1.4823  0.6867 -1.6235
10213SOL    HW235096   8.979   6.370   8.697 -0.5413 -0.3451  0.8328
10214SOL     OW35097   0.593   8.768   2.363  0.1434  0.3151  0.0483
10214SOL    HW135098   0.628   8.680   2.368 -0.3431  0.0513 -0.8737
10214SOL    HW235099   0.667   8.823   2.338  0.9633  0.5581  2.7439
10215SOL     OW35100   7.365   4.039   3.800  0.6739  0.1701  0.2384
10215SOL    HW135101   7.363   3.998   3.886 -1.1378 -0.6712 -0.1702
10215SOL    HW235102   7.280   4.081   3.790  1.5845  1.9633 -0.3653
10216SOL     OW35103   2.649   2.624   7.528 -0.1753 -0.4618 -0.0921
10216SOL    HW135104   2.609   2.638   7.613  0.0549 -0.1262 -0.0323
10216SOL    HW235105   2.743   2.636   7.544 -0.3067  3.0682 -0.9798
10217SOL     OW35106   0.550   5.957   4.730 -0.1883 -0.5078 -0.3008
10217SOL    HW135107   0.602   6.035   4.749 -1.0290 -0.2983  1.2736
10217SOL    HW235108   0.485   5.953   4.800 -0.6589 -2.2005 -0.7799
10218SOL     OW35109   4.057   2.404  10.238  0.7449  0.3552  0.2890
10218SOL    HW135110   3.975   2.452  10.225 -0.2892 -0.8880  1.8315
10218SOL    HW235111   4.063   2.392  10.333  0.6364 -3.0163 -0.0057
10219SOL     OW35112   2.791  10.593   8.607  0.3519 -0.3656  0.0264
10219SOL    HW135113   2.703  10.575   8.574  0.0150  1.3184 -0.1187
10219SOL    HW235114   2.816  10.675   8.565  0.7885  0.7207  2.2248
10220SOL     OW35115  10.801   8.214   3.961  0.4742 -0.4161 -0.5324
10220SOL    HW135116  10.712   8.199   3.931  0.1640 -1.2711  0.7383
10220SOL    HW235117  10.849   8.135   3.936  0.5695 -0.4902 -0.1231
10221SOL     OW35118   1.172   2.024   3.154  0.1526  0.0776  0.5399
10221SOL    HW135119   1.084   2.061   3.155  0.8657  1.8685  1.7845
10221SOL    HW235120   1.219   2.075   3.088 -0.1360 -2.0324 -1.4184
10222SOL     OW35121   1.861   0.692   2.342  0.3875 -0.0282  0.4378
10222SOL    HW135122   1.787   0.680   2.283  0.1602  0.4167  0.6292
10222SOL    HW235123   1.908   0.609   2.338 -0.3096 -0.4389  0.5724
10223SOL     OW35124   6.937   9.140   8.414  0.2263 -0.7067 -0.1261
10223SOL    HW135125   6.932   9.047   8.394  0.1317 -0.9226  0.8318
10223SOL    HW235126   6.880   9.151   8.491  0.4337  0.0953 -0.0737
10224SOL     OW35127   6.911   8.170   0.241 -0.7588  0.3265  0.3554
10224SOL    HW135128   6.842   8.214   0.192 -0.9868 -1.1662 -0.7490
10224SOL    HW235129   6.904   8.078   0.214  1.7811  0.1595  0.0542
10225SOL     OW35130   7.316   9.524   8.750 -0.0578  0.3370 -0.3575
10225SOL    HW135131   7.400   9.527   8.796 -0.0864  0.5373 -0.3165
10225SOL    HW235132   7.265   9.595   8.788 -0.2797  0.1594 -0.3211
10226SOL     OW35133  10.476   3.272  10.562 -0.1531  0.2333  0.1903
10226SOL    HW135134  10.548   3.335  10.565  0.3098 -0.2584 -0.2309
10226SOL    HW235135  10.497   3.215  10.487 -0.3048 -0.7139  0.8435
10227SOL     OW35136  10.289   5.891   4.621  0.0332 -0.2820  0.3781
10227SOL    HW135137  10.209   5.939   4.638 -0.1677  0.1266 -1.4739
10227SOL    HW235138  10.343   5.905   4.699 -0.6994  1.5200  0.6101
10228SOL     OW35139   4.431   2.756   5.736  0.0113  0.5994  0.7537
10228SOL    HW135140   4.374   2.724   5.668  0.3525  3.2157 -0.9230
10228SOL    HW235141   4.493   2.814   5.691  0.9261  1.6389  3.1284
10229SOL     OW35142   5.305   0.680  10.212  0.4710  0.6218 -0.2928
10229SOL    HW135143   5.285   0.661  10.303 -1.0683  0.5943 -0.6184
10229SOL    HW235144   5.292   0.598  10.166 -0.8192  1.1059 -0.8429
10230SOL     OW35145   4.881   5.829   9.820 -0.1763 -0.8779 -0.1016
10230SOL    HW135146   4.855   5.902   9.877 -1.6641 -1.3707 -0.1278
10230SOL    HW235147   4.901   5.871   9.736 -0.3182 -0.4212  0.0864
10231SOL     OW35148   7.638   9.324   2.793  0.1285  0.1660  0.0028
10231SOL    HW135149   7.628   9.343   2.700  0.2442  2.3239  0.3604
10231SOL    HW235150   7.549   9.332   2.829 -0.1272 -1.8730 -0.0649
10232SOL     OW35151   6.909  10.233   4.033  0.0452 -0.2531 -0.1074
10232SOL    HW135152   6.994  10.189   4.034 -0.3216 -1.0948 -1.9455
10232SOL    HW235153   6.848  10.170   4.071  0.2178  0.3882  1.3040
10233SOL     OW35154  10.279   2.039   3.563 -0.3938 -0.6167 -0.0692
10233SOL    HW135155  10.338   2.113   3.553 -0.2593 -0.6680  0.3566
10233SOL    HW235156  10.326   1.965   3.523  0.1272 -0.8103  0.8772
10234SOL     OW35157   6.430  10.915   6.102 -0.1695 -0.3083  0.0806
10234SOL    HW135158   6.497  10.847   6.107  0.3228  0.1461 -0.2734
10234SOL    HW235159   6.464  10.988   6.154 -0.3698 -0.0618 -0.1282
10235SOL     OW35160   0.355   9.395   6.326 -0.1652  0.7817  0.0204
10235SOL    HW135161   0.392   9.329   6.268  0.3788  1.4760 -0.4385
10235SOL    HW235162   0.431   9.435   6.369 -0.5154  0.8096  0.6258
10236SOL     OW35163   6.817   2.409   5.951 -0.2051  0.3333 -0.2444
10236SOL    HW135164   6.901   2.368   5.973 -0.5082  0.3433  1.0063
10236SOL    HW235165   6.759   2.335   5.931  0.2385  0.3519 -1.6893
10237SOL     OW35166   9.624   6.351   6.886  0.0977 -0.5007 -0.2078
10237SOL    HW135167   9.558   6.393   6.830  0.3415 -2.3566 -2.0090
10237SOL    HW235168   9.580   6.273   6.920  0.7238 -0.6500  0.2716
10238SOL     OW35169   8.230   3.864   3.150  0.1807  0.4834  0.6327
10238SOL    HW135170   8.173   3.863   3.227  0.8794 -0.6323  1.1726
10238SOL    HW235171   8.303   3.807   3.175  0.2160 -0.2354 -1.0130
10239SOL     OW35172   0.179   6.969   6.012 -0.0900  0.3642 -0.0634
10239SOL    HW135173   0.268   6.982   5.981 -0.3353  0.8840 -0.5755
10239SOL    HW235174   0.175   7.014   6.096  0.5855 -1.0634  0.7708
10240SOL     OW35175   1.120   4.835   4.799  0.6397  0.3140 -0.2048
10240SOL    HW135176   1.078   4.856   4.716  0.5073  1.0509  0.0432
10240SOL    HW235177   1.208   4.874   4.793  0.3453  1.0845  0.3092
10241SOL     OW35178   1.169   6.860  10.942 -0.6221 -0.1519 -0.2126
10241SOL    HW135179   1.090   6.909  10.965 -0.5829  0.4855 -1.3528
10241SOL    HW235180   1.157   6.774  10.981 -1.2092  0.4104  0.8805
10242SOL     OW35181   8.524   1.863   8.266  0.0848 -0.6815 -0.2656
10242SOL    HW135182   8.482   1.780   8.245 -1.5064 -0.6941  2.4060
10242SOL    HW235183   8.479   1.927   8.210 -0.7422 -1.2594 -0.2880
10243SOL     OW35184   0.479  10.392   1.716  0.4941 -0.8350  0.0922
10243SOL    HW135185   0.444  10.376   1.804  1.0777 -1.1486  0.2719
10243SOL    HW235186   0.473  10.307   1.672 -0.9468 -0.4125 -0.6058
10244SOL     OW35187   2.780   0.031   8.095  0.3280  0.2525  0.0026
10244SOL    HW135188   2.730  -0.025   8.155 -0.7542  1.2317  0.0455
10244SOL    HW235189   2.820  -0.031   8.033 -1.2220 -0.5460 -0.2423
10245SOL     OW35190   7.406   1.108   5.889  0.0597  0.4712  0.1890
10245SOL    HW135191   7.394   1.194   5.847 -1.1399  1.0164  1.5542
10245SOL    HW235192   7.413   1.046   5.816 -2.5978  1.2769 -0.8606
10246SOL     OW35193   6.442   1.796   2.240 -0.0209 -0.3045 -0.4035
10246SOL    HW135194   6.430   1.724   2.178 -1.2952  0.2271 -0.8197
10246SOL    HW235195   6.385   1.774   2.313 -0.6275  0.3784 -0.6500
10247SOL     OW35196   5.512  10.491   4.478 -0.1728  0.0210  0.2731
10247SOL    HW135197   5.428  10.447   4.463  0.0122 -0.0087 -0.7443
10247SOL    HW235198   5.516  10.504   4.572 -0.4198 -1.7825  0.5646
10248SOL     OW35199   5.667   9.666   5.696  0.1391 -0.1395 -0.6492
10248SOL    HW135200   5.578   9.642   5.724  0.9646 -1.2734  1.1824
10248SOL    HW235201   5.661   9.673   5.601 -2.0915  0.6173 -0.5205
10249SOL     OW35202   9.035   0.647   7.432  0.9285 -0.4975 -0.0769
10249SOL    HW135203   9.013   0.664   7.340  0.1244 -0.1027  0.1785
10249SOL    HW235204   9.120   0.691   7.445  0.8857 -0.2752 -0.5420
10250SOL     OW35205   0.543   4.090   7.308 -0.3621 -0.2512  0.0523
10250SOL    HW135206   0.575   4.072   7.397  0.5822 -1.7461 -0.5502
10250SOL    HW235207   0.464   4.143   7.321  0.6338  0.9112  1.7178
10251SOL     OW35208   1.557   6.720   0.458 -0.4174 -0.2845  0.0589
10251SOL    HW135209   1.591   6.755   0.376  0.1920  0.0247  0.4382
10251SOL    HW235210   1.484   6.777   0.480  0.9725  1.2068  1.0124
10252SOL     OW35211   2.079   1.142   2.916 -0.5496  0.3115 -0.2124
10252SOL    HW135212   2.082   1.057   2.872 -0.3675  0.2846 -0.1475
10252SOL    HW235213   2.106   1.124   3.006 -1.1987  0.3184 -0.0134
10253SOL     OW35214   1.213   8.492   6.839  0.5958  0.3211 -0.4828
10253SOL    HW135215   1.171   8.575   6.863  1.0917  0.7714 -1.1423
10253SOL    HW235216   1.304   8.504   6.865  0.3564 -0.6660  0.9809
10254SOL     OW35217   2.071   8.035   0.285  0.0235  0.3273  0.1537
10254SOL    HW135218   2.084   8.007   0.195  0.0428 -1.3976  0.6584
10254SOL    HW235219   1.992   7.989   0.314  0.9363 -0.4671  1.5033
10255SOL     OW35220   8.590   1.427   8.109 -0.2900 -0.3336 -0.3854
10255SOL    HW135221   8.583   1.394   8.020 -0.8016  1.9166 -1.2543
10255SOL    HW235222   8.641   1.508   8.101 -0.5799  0.0697  1.3279
10256SOL     OW35223   0.811   5.750  10.224 -0.6360 -0.0067 -0.0097
10256SOL    HW135224   0.893   5.726  10.267 -0.5333 -1.1197 -0.7820
10256SOL    HW235225   0.837   5.785  10.139 -0.9826 -1.9971 -0.9979
10257SOL     OW35226   9.624   3.102   2.119  0.2432 -0.2879 -0.3459
10257SOL    HW135227   9.714   3.070   2.129 -0.3530 -1.3561  2.5731
10257SOL    HW235228   9.572   3.023   2.107 -0.5543  0.1205  0.3477
10258SOL     OW35229  10.304   4.407   5.698 -0.6933  0.5609  0.4630
10258SOL    HW135230  10.266   4.350   5.630  2.7367 -0.9428 -0.4057
10258SOL    HW235231  10.321   4.490   5.653  0.9648 -0.2166 -0.4438
10259SOL     OW35232   1.560   4.491   3.656  0.0278  0.2094 -0.0638
10259SOL    HW135233   1.566   4.552   3.729 -1.3426  1.0177 -0.5750
10259SOL    HW235234   1.482   4.519   3.608  0.3143 -0.9284 -1.2620
10260SOL     OW35235   1.965   6.761   4.590 -0.0634  0.0878  0.3437
10260SOL    HW135236   1.899   6.767   4.520  0.0926 -1.3081  0.0651
10260SOL    HW235237   2.048   6.750   4.545  0.3908  1.6526  0.7043
10261SOL     OW35238   4.246   9.570  10.187  0.3063  0.7221 -0.1077
10261SOL    HW135239   4.186   9.613  10.126 -0.5577 -1.2718 -0.7371
10261SOL    HW235240   4.327   9.559  10.137  0.5619  1.6672  0.0862
10262SOL     OW35241   2.781   3.461   1.395  0.6356 -0.2899  0.1729
10262SOL    HW135242   2.730   3.380   1.390 -1.5710  0.9306  1.3075
10262SOL    HW235243   2.823   3.459   1.481  1.4303 -0.6641 -0.2113
10263SOL     OW35244   0.452   7.145   0.693 -0.3129 -0.3005 -0.6880
10263SOL    HW135245   0.412   7.209   0.635 -1.4760 -1.7809 -1.5858
10263SOL    HW235246   0.487   7.078   0.635  0.5437 -0.6772  0.2372
10264SOL     OW35247   2.574   2.359   5.217  0.1534 -0.0811 -0.1670
10264SOL    HW135248   2.547   2.419   5.147 -0.6699 -0.6394 -0.3496
10264SOL    HW235249   2.533   2.394   5.296  2.2525  1.3702  0.3524
10265SOL     OW35250  10.580   1.057   3.719 -0.3323  0.2866  0.2288
10265SOL    HW135251  10.526   1.113   3.774 -1.1293 -2.2312  2.1755
10265SOL    HW235252  10.667   1.097   3.723 -0.8880  1.4606  1.4084
10266SOL     OW35253   7.814   2.133  10.953 -0.1059  0.3481  0.0600
10266SOL    HW135254   7.796   2.078  11.030  4.6855  0.3650  1.5122
10266SOL    HW235255   7.830   2.070  10.883 -0.6784  0.1796  0.0720
10267SOL     OW35256   3.120   8.645   1.969  0.6414  0.6548  0.6898
10267SOL    HW135257   3.070   8.725   1.987 -0.0533  0.3107  0.3174
10267SOL    HW235258   3.211   8.671   1.983  0.3873  1.3739  1.0834
10268SOL     OW35259   7.613   9.560   8.692  0.0546 -0.5750  0.2347
10268SOL    HW135260   7.701   9.522   8.684  1.2839  2.1029 -0.1049
10268SOL    HW235261   7.628   9.647   8.730 -2.5067 -0.1639  0.4753
10269SOL     OW35262   3.936   2.081   7.480 -0.2304  0.2227 -0.6224
10269SOL    HW135263   4.017   2.033   7.492 -0.3544 -0.4529 -2.2981
10269SOL    HW235264   3.869   2.014   7.463 -1.2430  0.7360  1.0903
10270SOL     OW35265   8.315   4.667   2.685 -0.1984 -0.1557  0.0097
10270SOL    HW135266   8.356   4.684   2.770  1.4707  1.3081 -1.0395
10270SOL    HW235267   8.243   4.730   2.680 -0.3118 -0.2550  0.3162
10271SOL     OW35268   6.007   3.664   9.416  0.5617  0.1263 -0.2334
10271SOL    HW135269   5.947   3.670   9.342 -1.6861 -1.5190  1.3384
10271SOL    HW235270   5.965   3.715   9.485  1.4645 -0.2586  0.6322
10272SOL     OW35271   7.377   4.678   4.489 -0.6788 -0.4938  0.0735
10272SOL    HW135272   7.334   4.655   4.407  0.8145 -1.1521 -0.5592
10272SOL    HW235273   7.426   4.758   4.469  0.8335 -1.4185 -0.1439
10273SOL     OW35274   4.630   8.219   4.762  0.6649  0.4764 -0.3580
10273SOL    HW135275   4.607   8.144   4.816  0.3139  1.2741  0.6485
10273SOL    HW235276   4.694   8.267   4.815 -0.7695  2.0544  0.0550
10274SOL     OW35277   9.215   2.090   1.168 -0.1605  0.1521 -0.3263
10274SOL    HW135278   9.158   2.021   1.135 -2.0669  0.5458  1.8677
10274SOL    HW235279   9.258   2.050   1.244 -0.3366  0.9810  0.2160
10275SOL     OW35280   3.748   0.130   3.416  0.2786  0.8034  0.5216
10275SOL    HW135281   3.709   0.047   3.390 -0.4660  1.4211 -0.4542
10275SOL    HW235282   3.737   0.135   3.511  1.2107 -0.6223  0.7314
10276SOL     OW35283   0.466   6.989  10.433  0.0866  0.0764  0.6244
10276SOL    HW135284   0.518   7.069  10.438  1.8357 -0.9040 -0.7432
10276SOL    HW235285   0.522   6.921  10.470 -0.6150 -0.8492  0.0455
10277SOL     OW35286   3.344   8.450   5.889 -0.0535 -0.4082 -0.3367
10277SOL    HW135287   3.437   8.431   5.880  0.2347 -1.0991  2.7661
10277SOL    HW235288   3.302   8.364   5.889 -0.3479 -0.2803  0.7554
10278SOL     OW35289   6.073   3.767   4.639 -0.4866 -0.5692  0.3380
10278SOL    HW135290   6.060   3.837   4.703 -0.7634 -0.0679 -0.2460
10278SOL    HW235291   6.112   3.812   4.564 -0.5388 -1.0732  0.0071
10279SOL     OW35292   6.503   6.283   7.217  0.5496  0.4835  0.3848
10279SOL    HW135293   6.487   6.372   7.247 -1.4832  0.1981  0.3241
10279SOL    HW235294   6.430   6.264   7.158  0.8669 -1.2518  0.4867
10280SOL     OW35295   1.287   9.877   3.584  0.5040 -0.2266  0.7820
10280SOL    HW135296   1.197   9.849   3.597  0.3837 -0.1734  0.0876
10280SOL    HW235297   1.286   9.924   3.501  0.9325  0.8377  1.3694
10281SOL     OW35298   5.691   1.624   1.263  0.2810  0.0733  0.1844
10281SOL    HW135299   5.704   1.601   1.355  0.9202 -0.4399 -0.0208
10281SOL    HW235300   5.651   1.546   1.225 -0.8274  0.6108  0.2023
10282SOL     OW35301  10.518   9.670   3.100 -0.2162 -0.2623  0.4942
10282SOL    HW135302  10.583   9.613   3.138  0.3635  0.0532  0.0030
10282SOL    HW235303  10.511   9.744   3.161  1.0165  0.4492 -0.1835
10283SOL     OW35304   6.049  10.071   5.621  0.4677  0.3333  0.3395
10283SOL    HW135305   6.034  10.143   5.683  4.0751  1.0758  0.5734
10283SOL    HW235306   6.010   9.995   5.664 -1.2551  1.6490  1.2573
10284SOL     OW35307   7.517   3.068   2.735  0.1295  0.2539  0.4897
10284SOL    HW135308   7.509   3.007   2.661  2.9642  1.8582 -1.3181
10284SOL    HW235309   7.610   3.069   2.755 -0.2835  1.5862  2.6441
10285SOL     OW35310   1.797   5.586   2.785  0.1738  0.3740  0.3171
10285SOL    HW135311   1.711   5.560   2.818  0.3307 -2.9643 -1.4955
10285SOL    HW235312   1.853   5.587   2.862 -1.2120  1.5852  1.3701
10286SOL     OW35313   5.097   8.313   7.438  0.0371  0.0506  0.3780
10286SOL    HW135314   5.034   8.255   7.397  1.3873 -0.5585 -0.9162
10286SOL    HW235315   5.093   8.292   7.531 -2.8221  1.2027  0.6115
10287SOL     OW35316   8.635   7.305   3.626 -0.4159  0.6564 -0.2379
10287SOL    HW135317   8.728   7.324   3.635 -0.5466  1.5624 -0.6506
10287SOL    HW235318   8.602   7.375   3.570 -1.9346  2.1477  2.3354
10288SOL     OW35319   9.092   7.209  10.466 -0.1253  0.0748 -0.2555
10288SOL    HW135320   9.131   7.161  10.393 -0.1341 -0.0291 -0.1921
10288SOL    HW235321   9.110   7.155  10.543 -2.8246 -1.4409 -0.5608
10289SOL     OW35322   6.767   7.476   5.790  0.0241 -0.3209  0.5342
10289SOL    HW135323   6.845   7.467   5.734  0.0156 -1.3658  0.6538
10289SOL    HW235324   6.700   7.511   5.732 -0.2483 -2.2260 -0.4132
10290SOL     OW35325   6.580   2.063   5.023  0.4363 -0.4314 -0.2524
10290SOL    HW135326   6.564   1.993   5.087 -0.3079  0.6397  0.7784
10290SOL    HW235327   6.665   2.099   5.048 -0.7687  1.3739  1.5512
10291SOL     OW35328   6.626   4.827   7.564  0.2785  0.2691 -0.2292
10291SOL    HW135329   6.568   4.897   7.533  1.0560  0.2562 -1.7920
10291SOL    HW235330   6.567   4.758   7.594 -0.5360  0.4014 -1.4450
10292SOL     OW35331   2.695   7.868   3.378 -0.0334 -0.0271  0.3622
10292SOL    HW135332   2.621   7.866   3.439 -1.1463 -0.8119 -0.9484
10292SOL    HW235333   2.731   7.780   3.381  0.3266  0.1198  0.3725
10293SOL     OW35334   4.951   7.155   6.594  0.1202  0.1895  0.0354
10293SOL    HW135335   4.965   7.159   6.688  2.3919 -2.1763 -0.0780
10293SOL    HW235336   5.028   7.198   6.556 -1.0776  1.6991 -0.7968
10294SOL     OW35337   7.819   2.799   0.169 -0.0807  0.0095  0.1955
10294SOL    HW135338   7.817   2.882   0.216  0.7666  0.9007 -1.2790
10294SOL    HW235339   7.732   2.790   0.131 -0.0465  0.4200  0.0245
10295SOL     OW35340   5.297   1.253  10.903 -0.2522  0.3614 -0.4738
10295SOL    HW135341   5.306   1.185  10.836  1.9022 -1.3675  1.4073
10295SOL    HW235342   5.220   1.228  10.953  0.3539 -0.5515  0.0201
10296SOL     OW35343   4.472  10.550   4.486  0.2067 -0.3535 -0.4554
10296SOL    HW135344   4.450  10.587   4.401 -0.2523 -2.7401 -1.4736
10296SOL    HW235345   4.504  10.624   4.537 -0.6455  1.3811 -2.2899
10297SOL     OW35346   0.140   0.479   2.851  0.1399 -0.7375  0.0794
10297SOL    HW135347   0.074   0.455   2.786 -1.6906  0.7335  1.2669
10297SOL    HW235348   0.172   0.395   2.885  1.2428 -1.5382 -2.7032
10298SOL     OW35349  10.856   2.924   7.252  0.4981  0.2096 -0.5367
10298SOL    HW135350  10.946   2.932   7.219  1.2746 -0.9466  1.1548
10298SOL    HW235351  10.826   3.014   7.263  1.3175  0.6156 -1.4311
10299SOL     OW35352   0.865   6.934   2.194 -0.1043  0.4970 -0.0612
10299SOL    HW135353   0.813   6.858   2.167  1.3811 -0.1790 -1.1737
10299SOL    HW235354   0.872   6.925   2.289 -0.4053 -0.4655 -0.1127
10300SOL     OW35355   0.052   9.323   8.334 -0.4704 -0.2239 -0.7131
10300SOL    HW135356   0.064   9.229   8.345 -0.8621 -0.2102 -0.1189
10300SOL    HW235357   0.120   9.363   8.389 -1.4594 -0.1623  0.5056
10301SOL     OW35358  10.486  10.748   8.708 -0.4269  0.2398 -0.0550
10301SOL    HW135359  10.473  10.719   8.798 -2.9564  0.5640 -0.2401
10301SOL    HW235360  10.463  10.841   8.710 -1.5700  0.0054 -1.2060
10302SOL     OW35361   7.576   0.209   8.103  0.1490 -0.2319  0.6904
10302SOL    HW135362   7.483   0.231   8.102 -0.1461 -1.2124  2.1841
10302SOL    HW235363   7.613   0.255   8.028 -1.6740 -0.4569 -0.3976
10303SOL     OW35364   0.274  10.655   7.104 -0.0404  0.0551 -0.2326
10303SOL    HW135365   0.194  10.615   7.069  0.5211 -2.0255  0.6751
10303SOL    HW235366   0.324  10.581   7.139  1.1760  1.5807  1.4441
10304SOL     OW35367   6.638   8.161   9.326 -0.3372  0.0384  0.1244
10304SOL    HW135368   6.669   8.248   9.351  1.9820 -1.2373  2.1950
10304SOL    HW235369   6.718   8.112   9.308 -1.3524 -2.3639  1.6716
10305SOL     OW35370   5.451   4.363   9.355  0.5353  0.4689 -0.0754
10305SOL    HW135371   5.502   4.442   9.338  1.3502  0.4546  2.0131
10305SOL    HW235372   5.378   4.392   9.410  0.6901 -0.1845  0.4867
10306SOL     OW35373   6.939   5.720   2.760  0.2167  0.0324  0.3262
10306SOL    HW135374   7.022   5.734   2.714  0.0854  0.8284  0.3092
10306SOL    HW235375   6.876   5.771   2.710 -0.0384  0.4542  1.0618
10307SOL     OW35376   3.087  10.978   2.218 -0.0778 -0.3539  0.0643
10307SOL    HW135377   3.070  11.002   2.127  0.8072 -1.1815 -0.3302
10307SOL    HW235378   3.072  11.059   2.267  0.9486  0.5180 -1.0011
10308SOL     OW35379   6.617   4.056   3.667  0.9883 -1.1021  0.4359
10308SOL    HW135380   6.642   3.986   3.607  0.8511 -0.7271 -0.0654
10308SOL    HW235381   6.557   4.111   3.616  0.2394 -1.2212  1.1757
10309SOL     OW35382   5.327   0.448   7.033 -0.2638  0.2388 -0.4502
10309SOL    HW135383   5.384   0.399   6.975  0.2475 -0.8550  0.9194
10309SOL    HW235384   5.350   0.540   7.018  0.4001 -0.0692 -1.3792
10310SOL     OW35385   4.171   8.259  10.262  0.3258  0.1190 -0.0751
10310SOL    HW135386   4.222   8.193  10.216 -0.1153 -0.8545  0.7915
10310SOL    HW235387   4.165   8.332  10.201  1.9131 -0.1303 -0.5721
10311SOL     OW35388   0.753   6.231   0.481  0.3223 -0.7281  0.2008
10311SOL    HW135389   0.840   6.240   0.442  1.0969  2.1465  2.2631
10311SOL    HW235390   0.695   6.279   0.423  1.0891  1.6710  1.2889
10312SOL     OW35391   1.966   5.633   6.175  0.0392 -0.0763  0.2865
10312SOL    HW135392   1.961   5.646   6.080 -1.1131  0.0339  0.3501
10312SOL    HW235393   1.992   5.541   6.185  2.0978  0.4035 -0.1231
10313SOL     OW35394   5.240   0.794   6.522  0.1350  0.4050  0.2234
10313SOL    HW135395   5.158   0.824   6.484 -0.4458 -1.4167 -0.0451
10313SOL    HW235396   5.214   0.734   6.591  1.2459  0.8043  1.0268
10314SOL     OW35397   9.822   4.870   5.292  0.1004 -0.2659  0.3986
10314SOL    HW135398   9.913   4.879   5.261  0.8321 -2.8797  1.5072
10314SOL    HW235399   9.798   4.958   5.321  2.0434  0.6362 -0.5186
10315SOL     OW35400   3.091   0.671   4.596 -0.4617  0.0850 -0.0849
10315SOL    HW135401   3.083   0.633   4.683  1.1436 -0.0773  0.0207
10315SOL    HW235402   3.159   0.738   4.605  2.5700 -2.4198 -1.8981
10316SOL     OW35403  10.342   7.696   6.123 -0.5919  0.0828  0.1231
10316SOL    HW135404  10.435   7.686   6.143 -0.6232 -1.8574 -0.4330
10316SOL    HW235405  10.322   7.788   6.141  1.2437  0.3456  0.9833
10317SOL     OW35406   5.246   6.332   1.833  0.2969  0.1655  0.2156
10317SOL    HW135407   5.188   6.266   1.871 -0.8325  0.5569 -0.7498
10317SOL    HW235408   5.264   6.392   1.904 -0.8545  0.2689  0.4425
10318SOL     OW35409   4.044   7.948   3.145  0.8348 -0.0812 -0.4770
10318SOL    HW135410   4.121   8.004   3.159  1.4711 -1.0294 -0.0934
10318SOL    HW235411   4.069   7.892   3.071  0.8799 -1.0153  0.2349
10319SOL     OW35412   8.873   9.752   0.242 -0.5113 -0.6176  0.7917
10319SOL    HW135413   8.884   9.825   0.303  1.3903 -0.4525  0.3219
10319SOL    HW235414   8.850   9.793   0.159 -0.2868 -0.6077  0.7326
10320SOL     OW35415   8.759   7.884   3.735 -0.1065  0.3929  0.6183
10320SOL    HW135416   8.798   7.803   3.769  0.5788  0.8127  0.8387
10320SOL    HW235417   8.756   7.943   3.810  0.6357  1.0357  0.1539
10321SOL     OW35418   3.868   7.038   8.004 -0.4279 -0.0918 -0.8874
10321SOL    HW135419   3.947   7.008   8.049 -0.3544  4.3233  2.7204
10321SOL    HW235420   3.797   6.986   8.042  0.1907  0.3481  1.0196
10322SOL     OW35421   3.786   7.901   5.289  0.1826  0.2486  0.6551
10322SOL    HW135422   3.743   7.858   5.364 -0.1565  0.5068  0.6121
10322SOL    HW235423   3.720   7.963   5.257  0.3802  0.2373  0.2295
10323SOL     OW35424   1.147   2.240   7.010  0.2817 -0.1525  0.0297
10323SOL    HW135425   1.211   2.261   7.078 -0.0866 -0.3901  0.4592
10323SOL    HW235426   1.199   2.222   6.932  0.7281 -0.1758  0.3318
10324SOL     OW35427   9.362   9.071   9.580 -0.1479 -0.4625  0.0767
10324SOL    HW135428   9.354   8.977   9.595  2.1717 -0.5947  0.9568
10324SOL    HW235429   9.281   9.108   9.614 -2.0147 -2.2394 -2.0661
10325SOL     OW35430   9.879   6.045   5.179  0.2674  0.7111 -0.2859
10325SOL    HW135431   9.825   6.100   5.122 -1.4001  0.3199  0.8443
10325SOL    HW235432   9.937   6.106   5.223  0.7745  1.1487 -1.5245
10326SOL     OW35433  10.718   6.333   1.827  0.3383 -0.3590 -0.1858
10326SOL    HW135434  10.759   6.398   1.769  0.6275 -0.9828 -0.6878
10326SOL    HW235435  10.767   6.341   1.909  0.2080  0.2284 -0.1594
10327SOL     OW35436  10.717   4.419   9.501 -0.2065 -0.0421  0.4387
10327SOL    HW135437  10.787   4.481   9.480  0.6983 -1.6086 -1.4540
10327SOL    HW235438  10.763   4.341   9.533 -1.0898 -0.9473 -0.4207
10328SOL     OW35439   7.843   8.146   9.134  0.2593 -0.1280  0.3966
10328SOL    HW135440   7.858   8.171   9.043 -1.7027  3.0005  0.7779
10328SOL    HW235441   7.765   8.090   9.131 -1.6076  2.2887  0.2273
10329SOL     OW35442   9.975   0.789   4.620  0.3310 -0.2762 -0.6798
10329SOL    HW135443   9.995   0.696   4.615  0.9585 -0.4007  2.3451
10329SOL    HW235444  10.058   0.833   4.602  1.1713 -0.5239  2.0753
10330SOL     OW35445   9.716   7.976   3.603 -0.2429 -0.1640  0.4134
10330SOL    HW135446   9.759   7.892   3.620  1.0816  0.4600  0.3102
10330SOL    HW235447   9.663   7.991   3.681  0.1429 -0.7224  0.7988
10331SOL     OW35448   2.164   5.836   4.077  0.2748  0.3529  0.1930
10331SOL    HW135449   2.127   5.924   4.065 -2.1884 -0.7376 -1.0945
10331SOL    HW235450   2.160   5.797   3.990  4.3554 -0.0575  0.0267
10332SOL     OW35451   3.818  10.426   7.705  0.3835  0.1639 -0.3575
10332SOL    HW135452   3.879  10.494   7.733  2.3847 -2.1040  1.2797
10332SOL    HW235453   3.735  10.450   7.745  0.5390  2.4653 -1.2497
10333SOL     OW35454   4.496   8.518   8.729 -0.1269  0.0536  0.2895
10333SOL    HW135455   4.568   8.455   8.733 -1.5485 -1.7388 -0.9107
10333SOL    HW235456   4.502   8.565   8.813  1.7913 -0.7208  0.6641
10334SOL     OW35457   0.117   6.027   0.907 -0.5149  0.1455 -0.7602
10334SOL    HW135458   0.188   5.972   0.874  0.4181  1.0864 -0.3418
10334SOL    HW235459   0.048   6.017   0.841  0.7453  0.7983 -2.2495
10335SOL     OW35460  10.043   2.318   7.497 -0.0206  0.3293 -0.2975
10335SOL    HW135461  10.029   2.413   7.504 -0.8940  0.0782  1.9707
10335SOL    HW235462  10.137   2.309   7.487  0.0951  1.4186 -0.3492
10336SOL     OW35463   2.243   3.664   1.117 -0.6329 -0.4316 -0.0765
10336SOL    HW135464   2.154   3.698   1.115 -0.2287  0.6962  0.6768
10336SOL    HW235465   2.290   3.720   1.178  0.7835 -0.5764 -0.9737
10337SOL     OW35466   2.703   3.450   8.456  0.0247  0.8975  0.1036
10337SOL    HW135467   2.612   3.463   8.429  0.5587  1.6929 -1.4048
10337SOL    HW235468   2.729   3.534   8.494  0.4791  1.0692 -0.5684
10338SOL     OW35469   0.897   3.304   9.786  0.1193  0.4692  0.3730
10338SOL    HW135470   0.825   3.246   9.762  1.3106 -1.1169  0.4402
10338SOL    HW235471   0.944   3.255   9.854  2.6358  0.3517 -1.3464
10339SOL     OW35472   3.184   5.039   9.414  0.5172  0.1265  0.4420
10339SOL    HW135473   3.129   4.978   9.463  0.1751 -0.1277 -0.2584
10339SOL    HW235474   3.154   5.032   9.324 -0.5043  2.3662  0.5449
10340SOL     OW35475   6.719   4.642   3.945 -0.2654  0.2375  0.2019
10340SOL    HW135476   6.757   4.698   4.012  0.2659  0.1129  0.0144
10340SOL    HW235477   6.755   4.674   3.862 -0.2870 -0.1095  0.0527
10341SOL     OW35478   9.883   9.275  10.622 -0.2971 -0.6806 -0.1308
10341SOL    HW135479   9.856   9.358  10.582 -1.0850 -1.1455 -0.5964
10341SOL    HW235480   9.923   9.226  10.549  0.5654 -0.5544  0.2401
10342SOL     OW35481   3.776   4.984   5.917  0.3822  0.4492 -0.2517
10342SOL    HW135482   3.809   5.054   5.860  0.1321  1.1853  0.4713
10342SOL    HW235483   3.694   4.957   5.877 -0.6731  2.1512  0.6114
10343SOL     OW35484   0.235   6.772   2.153 -0.5205 -0.2888 -0.2701
10343SOL    HW135485   0.324   6.757   2.186 -0.1857  1.3906 -0.3515
10343SOL    HW235486   0.186   6.803   2.229 -0.9118 -0.7061 -0.3462
10344SOL     OW35487   0.972   9.160   5.452  0.2346 -0.5758 -0.2093
10344SOL    HW135488   0.945   9.214   5.526  2.1137 -0.0635  0.1551
10344SOL    HW235489   1.034   9.215   5.403  1.7285 -2.1252 -0.1734
10345SOL     OW35490   4.274   0.861   8.751  0.5630 -0.4243  0.0543
10345SOL    HW135491   4.258   0.809   8.672 -1.5031  0.7183 -0.3579
10345SOL    HW235492   4.251   0.802   8.824 -0.3095 -0.5789 -0.3365
10346SOL     OW35493   3.212   9.548   6.135  0.0624  0.1913  0.3899
10346SOL    HW135494   3.159   9.483   6.181  1.1842  0.3368  1.9697
10346SOL    HW235495   3.279   9.573   6.198  2.2356 -0.2234 -1.6058
10347SOL     OW35496   3.202   4.158   1.772  0.1775  0.2019 -0.6425
10347SOL    HW135497   3.257   4.080   1.780  0.4434  0.1365 -2.5488
10347SOL    HW235498   3.182   4.183   1.862  1.7065 -0.9185  0.0509
10348SOL     OW35499   4.284   8.018   1.992  0.3315 -0.6684  0.1750
10348SOL    HW135500   4.191   8.015   1.968  0.4493  1.4418 -0.7375
10348SOL    HW235501   4.316   8.099   1.953  2.6778 -1.5512  0.1440
10349SOL     OW35502   0.371   6.113   1.793  0.0621 -0.1831 -0.0793
10349SOL    HW135503   0.421   6.193   1.780  0.0344 -0.0199  0.7637
10349SOL    HW235504   0.410   6.072   1.870 -2.4523  1.0874  2.0425
10350SOL     OW35505   7.555  10.095   5.936  0.0537 -0.1626  0.9385
10350SOL    HW135506   7.560  10.042   6.016  1.1287 -0.4763  0.6819
10350SOL    HW235507   7.592  10.180   5.962  2.7485 -1.0076  0.2222
10351SOL     OW35508   9.845   3.262   5.275  0.5086  0.1932  0.1354
10351SOL    HW135509   9.816   3.344   5.315 -0.1515  0.2948 -0.5380
10351SOL    HW235510   9.801   3.259   5.190  0.7379 -0.7277  0.0351
10352SOL     OW35511   6.286   3.204   2.825 -0.2482  0.4271 -0.3835
10352SOL    HW135512   6.207   3.226   2.775  0.0364 -0.2408 -1.1538
10352SOL    HW235513   6.260   3.215   2.917 -0.8121  1.5777 -0.6638
10353SOL     OW35514   3.030   5.014   1.941 -0.1347 -0.1747 -0.6869
10353SOL    HW135515   2.955   5.035   1.998  0.0842  1.0249 -0.8034
10353SOL    HW235516   3.106   5.047   1.989  0.2832 -0.9933 -0.7692
10354SOL     OW35517   0.660  10.828   7.586  0.4943  0.4006 -0.0665
10354SOL    HW135518   0.640  10.824   7.679 -2.2511 -0.6010 -0.6105
10354SOL    HW235519   0.735  10.770   7.575 -0.5571 -1.2827  1.2154
10355SOL     OW35520   0.192   3.878   9.586  0.3407  0.8986 -0.3809
10355SOL    HW135521   0.273   3.929   9.578  0.1790  1.2929  0.4509
10355SOL    HW235522   0.143   3.922   9.655 -0.6806  0.7847 -1.0139
10356SOL     OW35523   6.982   9.316   3.983 -0.2768 -0.4340 -0.0084
10356SOL    HW135524   6.979   9.359   4.069 -1.4575 -0.3292 -0.0956
10356SOL    HW235525   6.899   9.269   3.977  0.6390 -2.1041 -0.2474
10357SOL     OW35526   5.387   3.688   2.495 -0.7396 -0.4050  0.1367
10357SOL    HW135527   5.360   3.632   2.422  0.5842 -0.5645 -0.2615
10357SOL    HW235528   5.465   3.733   2.463 -0.6373  0.1714  1.1618
10358SOL     OW35529   5.366   5.952   4.910  0.4546 -0.0818  0.3349
10358SOL    HW135530   5.357   6.003   4.830  1.5770  0.6346  0.6484
10358SOL    HW235531   5.282   5.963   4.955  0.4026  0.8669  0.0323
10359SOL     OW35532   6.457   8.109   1.521 -0.4364 -0.0452  0.4213
10359SOL    HW135533   6.442   8.039   1.458  0.1918  0.7526 -0.6571
10359SOL    HW235534   6.369   8.139   1.545 -0.6834  0.1200 -0.6457
10360SOL     OW35535   5.771   1.285  10.368 -0.2617 -0.4752  0.1828
10360SOL    HW135536   5.706   1.355  10.361  1.5270  1.3462  0.7358
10360SOL    HW235537   5.781   1.252  10.279 -1.5894 -0.4675  0.0162
10361SOL     OW35538   2.325   7.738   5.117  0.5971 -0.5327  0.0076
10361SOL    HW135539   2.418   7.740   5.093  0.5881  0.2675  0.0302
10361SOL    HW235540   2.324   7.755   5.211  0.2975  1.9194 -0.3894
10362SOL     OW35541   3.574   4.588   1.270  0.1250 -0.0673 -0.3406
10362SOL    HW135542   3.540   4.606   1.358  1.3036 -0.7824  0.2829
10362SOL    HW235543   3.506   4.534   1.229 -0.1966 -0.1655  0.3126
10363SOL     OW35544   4.998   9.572   3.708  0.1715  0.1230 -0.2907
10363SOL    HW135545   5.091   9.591   3.697  0.1388  1.0728  0.8933
10363SOL    HW235546   4.991   9.536   3.797 -0.6193  0.2577 -0.2945
10364SOL     OW35547   1.933   2.278   9.752 -0.4984  0.0248 -0.5704
10364SOL    HW135548   1.881   2.249   9.677 -1.1876  0.5036 -0.2954
10364SOL    HW235549   1.933   2.203   9.811  0.0975 -0.3743 -1.0723
10365SOL     OW35550   4.847   7.477   8.502  0.0866 -0.0188 -0.2261
10365SOL    HW135551   4.762   7.513   8.476  0.1073 -0.7495 -1.3997
10365SOL    HW235552   4.881   7.539   8.567 -0.1896  1.7186 -1.6264
10366SOL     OW35553   8.680  10.762   0.210 -0.1131 -0.0836 -0.0496
10366SOL    HW135554   8.757  10.788   0.262 -0.1926 -1.1237  0.6103
10366SOL    HW235555   8.612  10.745   0.275 -1.3865  2.1905 -0.6764
10367SOL     OW35556   4.781   2.743   4.242  0.3296 -1.0269  0.0611
10367SOL    HW135557   4.769   2.648   4.255 -0.8947 -0.9709 -0.5196
10367SOL    HW235558   4.781   2.779   4.331 -0.5747 -1.4390  0.2458
10368SOL     OW35559   1.179   4.030   2.278  0.0602  0.0980  0.1522
10368SOL    HW135560   1.097   3.985   2.260  0.2977 -0.1670 -0.3013
10368SOL    HW235561   1.153   4.118   2.304 -0.3092  0.9171 -2.6192
10369SOL     OW35562   3.481   3.087  10.001  0.0552  0.4168  0.1229
10369SOL    HW135563   3.497   3.130   9.917  0.3833  0.5840  0.2689
10369SOL    HW235564   3.567   3.057  10.030 -0.1486 -0.2057  0.1003
10370SOL     OW35565   6.027   2.841   4.697  0.7232  0.3555  0.0775
10370SOL    HW135566   6.084   2.824   4.772  0.9728 -0.9607 -0.3907
10370SOL    HW235567   6.006   2.935   4.704  1.7705  0.5403  1.0587
10371SOL     OW35568   3.987   8.328   4.060 -0.3745 -0.2468 -0.1519
10371SOL    HW135569   3.904   8.291   4.032 -0.4155 -2.1981  2.2637
10371SOL    HW235570   4.027   8.260   4.115  4.3863 -0.8768 -3.6986
10372SOL     OW35571   3.050   6.160   7.035 -0.4197 -0.4508  0.0489
10372SOL    HW135572   2.955   6.172   7.047 -0.1894  1.4487  0.3233
10372SOL    HW235573   3.087   6.247   7.049  1.2441 -0.8480 -1.4261
10373SOL     OW35574   0.689   4.619   5.070 -0.5859 -0.2299  0.4449
10373SOL    HW135575   0.700   4.711   5.044 -0.1255 -0.5743 -0.6460
10373SOL    HW235576   0.651   4.577   4.992  0.6544 -1.2726  0.3677
10374SOL     OW35577   7.488   6.429   2.625  0.0922  0.1306 -0.4751
10374SOL    HW135578   7.436   6.447   2.703  0.1280 -2.4258  0.2093
10374SOL    HW235579   7.506   6.516   2.588 -0.6822  1.3604  1.8408
10375SOL     OW35580   1.196   0.374   2.306  0.2488 -0.4487  0.2887
10375SOL    HW135581   1.217   0.410   2.392  1.7031  0.3132 -0.3528
10375SOL    HW235582   1.278   0.334   2.276  0.2408  0.7008 -1.4051
10376SOL     OW35583   3.375   2.561   6.597  0.1344  0.1260 -0.2306
10376SOL    HW135584   3.468   2.584   6.586  0.2382 -0.1561  0.0328
10376SOL    HW235585   3.333   2.642   6.625  0.3035  0.2529 -0.3424
10377SOL     OW35586   4.061   0.856   1.100 -1.0278  0.5218 -0.1632
10377SOL    HW135587   3.966   0.849   1.106 -0.9051 -1.3125 -0.0307
10377SOL    HW235588   4.094   0.793   1.163  0.2655 -0.1840 -1.4930
10378SOL     OW35589   3.794   4.283   2.834 -0.4293  0.1649  0.4478
10378SOL    HW135590   3.874   4.304   2.882  0.7823 -0.4304 -1.2126
10378SOL    HW235591   3.763   4.367   2.801  0.0321  0.3014  0.3488
10379SOL     OW35592   1.498   5.186  10.095 -0.5583 -0.5825 -0.3736
10379SOL    HW135593   1.576   5.136  10.073 -1.0053 -1.2556 -0.4588
10379SOL    HW235594   1.521   5.277  10.075  0.1390 -0.7948 -0.5568
10380SOL     OW35595  10.210   6.688   9.827  0.4876 -0.2920  0.2082
10380SOL    HW135596  10.263   6.691   9.747 -1.4688 -0.5698 -1.1665
10380SOL    HW235597  10.176   6.777   9.836 -2.5372 -1.1191 -1.6587
10381SOL     OW35598   7.283   7.272   0.714 -0.0419 -0.0844 -0.3756
10381SOL    HW135599   7.352   7.215   0.748 -0.6706 -1.9582 -2.0854
10381SOL    HW235600   7.330   7.335   0.660  0.4891 -0.1044  0.0424
10382SOL     OW35601   4.686   1.513   3.442 -0.3957  0.0569 -0.2323
10382SOL    HW135602   4.769   1.555   3.459 -0.8148 -0.1120  2.6069
10382SOL    HW235603   4.697   1.473   3.355  2.6475 -0.4062  0.2523
10383SOL     OW35604   7.886   6.859   4.259  0.0931 -0.1625  0.9186
10383SOL    HW135605   7.856   6.859   4.169 -0.2188 -2.3191  0.9576
10383SOL    HW235606   7.977   6.889   4.255 -0.2644  0.8726  0.0735
10384SOL     OW35607   7.263   4.126   8.007  0.1013  0.1801  0.3233
10384SOL    HW135608   7.307   4.130   7.922  0.6467  1.8071  0.6301
10384SOL    HW235609   7.171   4.115   7.987  0.2624  0.2407 -0.4707
10385SOL     OW35610   6.679   1.033   1.433  0.0394  0.4138  0.0699
10385SOL    HW135611   6.606   1.022   1.494  0.2642  2.8517  0.9096
10385SOL    HW235612   6.640   1.028   1.346 -0.7669 -0.3546  0.4681
10386SOL     OW35613  10.998   9.546   4.020  0.5816  0.7207  0.2761
10386SOL    HW135614  10.980   9.489   4.095  1.1454 -0.1680 -0.2319
10386SOL    HW235615  11.026   9.485   3.951  0.9549  1.6014 -0.3643
10387SOL     OW35616   7.480   0.044   6.847 -0.4596  0.2214  0.3917
10387SOL    HW135617   7.547  -0.017   6.879 -0.4132  0.3677  0.5773
10387SOL    HW235618   7.482   0.034   6.752  0.1377  0.5498  0.3648
10388SOL     OW35619  10.920   4.935   1.282 -0.0314  1.0883 -0.5884
10388SOL    HW135620  10.848   4.998   1.282 -0.3494  0.7370 -1.0704
10388SOL    HW235621  10.878   4.850   1.269  0.5037  0.9236 -1.3425
10389SOL     OW35622   2.484   0.218   8.105 -0.2780 -0.5749 -0.0192
10389SOL    HW135623   2.501   0.156   8.035 -1.6777  0.7588 -1.6172
10389SOL    HW235624   2.393   0.203   8.129 -0.7899  1.1065 -0.7629
10390SOL     OW35625   8.272   6.070   1.283  0.3937  0.1313 -0.3068
10390SOL    HW135626   8.309   6.012   1.217 -0.2636 -1.3697  0.5739
10390SOL    HW235627   8.177   6.058   1.275  0.2181  1.4280 -0.3808
10391SOL     OW35628   0.012   4.467   5.444 -0.1568 -0.4918 -0.2810
10391SOL    HW135629   0.002   4.387   5.391 -1.9718  0.7104 -1.9344
10391SOL    HW235630   0.089   4.510   5.408 -0.1574 -0.6987 -0.5367
10392SOL     OW35631   5.296   4.924   0.844  0.4392 -0.0788 -0.2046
10392SOL    HW135632   5.346   4.850   0.879 -0.9943 -0.4475  1.2095
10392SOL    HW235633   5.342   5.002   0.875  0.3090 -0.4081  0.8463
10393SOL     OW35634   6.655   7.860   8.811 -0.2411 -0.6781  0.2076
10393SOL    HW135635   6.743   7.890   8.834  0.9473 -3.1821 -0.7421
10393SOL    HW235636   6.598   7.898   8.879  1.3190  1.9846  0.1723
10394SOL     OW35637   1.724   8.891   3.931  0.9095 -0.4953 -0.1017
10394SOL    HW135638   1.807   8.853   3.904  1.5310 -1.2087  2.4826
10394SOL    HW235639   1.678   8.819   3.974  0.0015  0.4756  0.6031
10395SOL     OW35640   2.848   1.987   3.883 -0.5077 -0.1597  0.0739
10395SOL    HW135641   2.830   2.031   3.966 -0.3236  0.0748 -0.0100
10395SOL    HW235642   2.762   1.974   3.843 -0.4464  2.5480 -1.1479
10396SOL     OW35643   1.318   2.967   2.429  0.0404 -0.1071  0.0014
10396SOL    HW135644   1.233   2.970   2.386 -0.2601  2.5718  0.5925
10396SOL    HW235645   1.381   2.980   2.357 -0.2478  0.6744 -0.1250
10397SOL     OW35646   3.089   7.111   3.392  0.3032  0.0864 -0.2696
10397SOL    HW135647   3.150   7.059   3.340 -0.9012 -1.1011 -0.5211
10397SOL    HW235648   3.114   7.094   3.483  0.1209 -0.6918 -0.3597
10398SOL     OW35649   8.375   6.648   3.065 -0.7510 -0.2204  0.1372
10398SOL    HW135650   8.340   6.730   3.029 -0.6397 -1.0366 -2.0044
10398SOL    HW235651   8.309   6.618   3.127 -2.2292  0.0269 -1.2502
10399SOL     OW35652   8.474   3.435   4.373 -0.0421 -0.0157 -0.5841
10399SOL    HW135653   8.407   3.500   4.395  0.4872  0.6215 -0.8421
10399SOL    HW235654   8.540   3.483   4.323  1.3992 -0.2619  0.9744
10400SOL     OW35655   0.798   3.803   6.880 -0.5144  0.5194 -0.1229
10400SOL    HW135656   0.757   3.874   6.831  1.7960  0.4141 -2.3776
10400SOL    HW235657   0.726   3.766   6.932 -2.8268  1.5238 -2.3729
10401SOL     OW35658   5.737   0.798   5.998  0.0593  0.3595  0.0874
10401SOL    HW135659   5.652   0.800   5.954 -0.5352  1.8395  1.2261
10401SOL    HW235660   5.726   0.733   6.067 -0.1727  0.5509  0.2365
10402SOL     OW35661   1.574   2.773   0.901  0.0688 -0.4051 -0.1828
10402SOL    HW135662   1.484   2.747   0.920 -0.3027 -0.1935 -1.5786
10402SOL    HW235663   1.608   2.702   0.846  0.6018 -0.2315 -0.0847
10403SOL     OW35664   1.611   0.653   5.414 -0.3039  0.1625 -0.6188
10403SOL    HW135665   1.584   0.703   5.337 -0.1955 -0.3310 -0.9825
10403SOL    HW235666   1.683   0.704   5.452 -0.4532  0.4807 -0.7547
10404SOL     OW35667   4.292   0.655   8.527  0.3105 -0.4140  0.5131
10404SOL    HW135668   4.206   0.651   8.485 -0.2061  1.7600  1.2278
10404SOL    HW235669   4.294   0.580   8.586 -0.2748 -1.6176 -0.9403
10405SOL     OW35670   9.812   1.099   1.289 -0.6418  0.1718  0.1910
10405SOL    HW135671   9.738   1.144   1.248 -0.5656 -2.1268 -2.8206
10405SOL    HW235672   9.889   1.139   1.248 -0.4586 -0.6255 -0.2551
10406SOL     OW35673   1.639   0.725   4.827 -0.0604 -0.5785  0.4245
10406SOL    HW135674   1.687   0.668   4.886  1.0761 -0.3621 -0.2509
10406SOL    HW235675   1.630   0.808   4.874  0.0746 -0.6755  0.6184
10407SOL     OW35676   2.289   1.361   9.970  0.2123 -0.3540 -0.2080
10407SOL    HW135677   2.217   1.420   9.948 -0.3080 -0.7284  0.4776
10407SOL    HW235678   2.256   1.274   9.951  0.2533 -0.5769  0.7233
10408SOL     OW35679   2.131   0.174  10.835  0.9359  0.4301  0.1311
10408SOL    HW135680   2.050   0.223  10.820  2.1160  2.0454 -1.4282
10408SOL    HW235681   2.134   0.111  10.762  1.6410  1.2187 -0.5468
10409SOL     OW35682   9.181   7.017   4.546  0.5648  0.9059  0.1250
10409SOL    HW135683   9.139   7.042   4.628  2.6881  1.6873  1.0453
10409SOL    HW235684   9.187   6.921   4.550 -0.2003  0.8654  0.4264
10410SOL     OW35685   6.483   4.263   1.232 -0.6598  0.2884  0.3395
10410SOL    HW135686   6.408   4.232   1.283 -0.4150 -0.9844 -0.0407
10410SOL    HW235687   6.552   4.199   1.249  0.4792  1.6062  0.9249
10411SOL     OW35688   2.025   7.808   1.304 -0.3228 -0.1072  0.6504
10411SOL    HW135689   2.026   7.807   1.208  0.0028 -1.4232  0.6528
10411SOL    HW235690   2.103   7.758   1.329 -1.2614 -1.1446  1.5950
10412SOL     OW35691   3.527   3.639   1.967 -0.5393 -0.2768 -0.4263
10412SOL    HW135692   3.493   3.702   2.031 -1.7518 -0.5297 -0.7840
10412SOL    HW235693   3.546   3.692   1.889  0.3491 -0.0638 -0.0752
10413SOL     OW35694   1.354   7.933   8.099 -0.1843 -0.3750 -0.1143
10413SOL    HW135695   1.353   8.022   8.065 -0.4824 -0.2323  0.2609
10413SOL    HW235696   1.421   7.888   8.048  1.4621  0.6140  1.1116
10414SOL     OW35697  10.499   4.047   3.544  0.0923 -0.3624  0.6157
10414SOL    HW135698  10.442   4.102   3.597  0.5919 -1.4906  2.3897
10414SOL    HW235699  10.570   4.022   3.603  0.8404 -1.4304 -0.6811
10415SOL     OW35700   1.980   0.891   2.832 -0.7166  0.7000  0.0678
10415SOL    HW135701   1.924   0.829   2.879  1.6439 -2.5100 -1.0192
10415SOL    HW235702   1.942   0.895   2.744 -1.1702  1.2285  0.2849
10416SOL     OW35703   7.863   0.238   1.250 -0.0046 -0.4842  0.3473
10416SOL    HW135704   7.935   0.238   1.312 -0.2006 -1.6009  0.6013
10416SOL    HW235705   7.868   0.323   1.206  0.1594  0.2967  1.8421
10417SOL     OW35706   7.776  10.055   5.748  0.0133 -0.3640 -0.1923
10417SOL    HW135707   7.703  10.051   5.809 -0.9956  0.6985 -1.2752
10417SOL    HW235708   7.782   9.967   5.711  0.0817 -0.7762  0.7687
10418SOL     OW35709   0.393  10.170   2.603  0.1039  0.5594  0.2817
10418SOL    HW135710   0.360  10.107   2.667 -2.1847  0.0078 -1.2820
10418SOL    HW235711   0.366  10.256   2.637 -1.2157  0.2590  0.0657
10419SOL     OW35712   4.862   1.685   2.867 -0.2377 -0.2378  0.1567
10419SOL    HW135713   4.834   1.707   2.956  0.0057  1.3164 -0.1275
10419SOL    HW235714   4.807   1.610   2.842 -0.9904 -0.0709  1.2452
10420SOL     OW35715  10.696   7.869   9.654  0.3464  0.5489  0.0107
10420SOL    HW135716  10.745   7.868   9.736  0.1901  1.1300  0.1199
10420SOL    HW235717  10.605   7.855   9.680  0.5072 -1.2480 -0.2562
10421SOL     OW35718   9.191   6.578   2.901  0.3781 -0.1278  0.4830
10421SOL    HW135719   9.266   6.629   2.871  0.4140 -0.9334 -0.8874
10421SOL    HW235720   9.118   6.611   2.848 -0.0497  0.0263  1.1671
10422SOL     OW35721   0.589   3.620   8.541 -0.2289  0.3956 -0.0492
10422SOL    HW135722   0.540   3.613   8.622 -0.7384 -0.2733 -0.4054
10422SOL    HW235723   0.528   3.662   8.480  0.5132  1.8854  0.1970
10423SOL     OW35724   1.809   0.091   2.386  0.1322  0.3213 -0.7664
10423SOL    HW135725   1.740   0.123   2.329  0.8364  1.3570 -1.0615
10423SOL    HW235726   1.768   0.021   2.438 -1.4197  1.6233 -0.1770
10424SOL     OW35727  10.888   2.538   9.874 -0.2158 -0.2583 -0.2232
10424SOL    HW135728  10.946   2.547   9.949  1.2697  0.2299 -1.3831
10424SOL    HW235729  10.826   2.610   9.882  1.1940  1.0187 -0.5143
10425SOL     OW35730   3.941   0.419   9.747 -0.1288 -0.2977  0.5266
10425SOL    HW135731   3.856   0.459   9.767  0.3319  1.4342 -0.8029
10425SOL    HW235732   3.974   0.390   9.833 -1.8847 -0.6936  1.1050
10426SOL     OW35733  10.062  10.745   6.674  0.3590  0.4132  0.4780
10426SOL    HW135734  10.117  10.799   6.617  1.6582 -1.3535 -0.0247
10426SOL    HW235735   9.987  10.801   6.694 -0.0281  1.2510 -2.7023
10427SOL     OW35736   8.763   6.449   0.324 -0.1126 -0.0736 -0.2370
10427SOL    HW135737   8.759   6.429   0.230  1.5072 -0.4897 -0.2643
10427SOL    HW235738   8.772   6.544   0.328  0.8827 -0.1421 -0.5764
10428SOL     OW35739   0.199   2.143   5.563  0.5480  0.4083  0.5336
10428SOL    HW135740   0.261   2.210   5.592  0.7443  0.1742  0.6562
10428SOL    HW235741   0.117   2.191   5.548  1.1884  0.9909 -1.2386
10429SOL     OW35742   4.137   0.505   6.964 -0.5466 -0.0376 -0.3291
10429SOL    HW135743   4.122   0.513   6.869 -0.4009  0.2936 -0.3230
10429SOL    HW235744   4.083   0.430   6.990 -1.9972  0.9612 -0.3503
10430SOL     OW35745   8.641   4.579   9.591  0.0641  0.2985 -0.4899
10430SOL    HW135746   8.689   4.659   9.615 -0.8936  0.7402  0.0427
10430SOL    HW235747   8.688   4.508   9.634 -0.3121  0.8373  0.8580
10431SOL     OW35748   4.925   1.197   8.207  0.3051  0.4259 -0.7330
10431SOL    HW135749   4.853   1.234   8.258  0.8458  1.0956 -0.4538
10431SOL    HW235750   4.953   1.121   8.258  0.0676  0.4012 -0.6370
10432SOL     OW35751  10.116   4.752   0.737 -0.0489 -0.1936  0.2166
10432SOL    HW135752  10.147   4.711   0.817 -0.6650 -1.2592 -0.0656
10432SOL    HW235753  10.050   4.692   0.703 -0.7428  0.8705 -0.4091
10433SOL     OW35754   6.006   5.943   5.829 -0.5389 -0.5242  0.3244
10433SOL    HW135755   6.066   6.003   5.783  1.0103 -1.0672  1.5398
10433SOL    HW235756   6.003   5.976   5.918 -0.5463 -1.6228  0.7400
10434SOL     OW35757   6.446   0.841   9.698  0.0132  0.3651 -0.4547
10434SOL    HW135758   6.391   0.919   9.711  0.3919  0.4576  0.7431
10434SOL    HW235759   6.414   0.778   9.763  1.5003  0.5385  0.4980
10435SOL     OW35760   8.298   2.966   0.101  0.2669 -0.6149  0.0909
10435SOL    HW135761   8.322   2.904   0.171 -1.5068  0.0950  1.3993
10435SOL    HW235762   8.320   2.920   0.020  2.3145 -1.5118  1.0782
10436SOL     OW35763   2.991   0.677   4.884 -0.2266 -0.3875  0.1117
10436SOL    HW135764   2.990   0.599   4.940  0.3736 -0.6822 -0.2743
10436SOL    HW235765   2.978   0.750   4.944 -1.4910 -0.8306  0.3952
10437SOL     OW35766   9.684   1.939   0.039  0.0196  0.2972 -0.2953
10437SOL    HW135767   9.712   2.030   0.041 -2.0156  0.9609  0.5697
10437SOL    HW235768   9.659   1.924  -0.052 -0.5388  0.9109 -0.2475
10438SOL     OW35769   0.340   6.117  10.385  0.2991  0.2855  0.1623
10438SOL    HW135770   0.398   6.125  10.460  1.5723  1.8533 -0.9081
10438SOL    HW235771   0.393   6.075  10.317 -0.6831 -0.7011 -0.0236
10439SOL     OW35772  10.272   5.621   4.788  0.0200 -0.5261 -0.0837
10439SOL    HW135773  10.267   5.710   4.753  0.3311 -0.2884  0.4733
10439SOL    HW235774  10.187   5.607   4.831 -1.4003 -1.7105 -2.9658
10440SOL     OW35775   0.737   4.210   8.189  0.3321  0.4861 -0.3057
10440SOL    HW135776   0.825   4.245   8.202  0.6292 -0.6260  0.8706
10440SOL    HW235777   0.728   4.141   8.255 -0.8623 -0.4631 -1.4059
10441SOL     OW35778   9.295   2.146   7.935  0.0745  0.0567 -0.2018
10441SOL    HW135779   9.247   2.151   7.852 -1.4627 -0.0193  0.6432
10441SOL    HW235780   9.231   2.171   8.001  0.8136 -1.3607  1.1210
10442SOL     OW35781   5.049   1.132   6.269  0.2687 -0.2015 -0.4517
10442SOL    HW135782   5.027   1.161   6.357 -0.9875  0.8313 -1.0739
10442SOL    HW235783   5.047   1.036   6.274 -2.5879 -0.2162  0.0319
10443SOL     OW35784   2.762   1.502   2.933  0.9423  0.6506 -0.3494
10443SOL    HW135785   2.757   1.412   2.966 -0.0537  0.2308 -1.5564
10443SOL    HW235786   2.680   1.542   2.959  0.6290  0.6552 -1.3015
10444SOL     OW35787   5.916   2.151   4.846  0.6084 -0.1799  0.1838
10444SOL    HW135788   5.887   2.237   4.818 -0.2092  0.3734  2.5155
10444SOL    HW235789   5.939   2.106   4.765  0.2489  1.9148 -1.1584
10445SOL     OW35790   4.460   3.077   4.071  0.2168  0.3983 -0.1919
10445SOL    HW135791   4.531   3.015   4.087 -0.3317 -0.0977  0.4494
10445SOL    HW235792   4.489   3.130   3.998  0.5399 -0.9035 -1.0411
10446SOL     OW35793   0.764   6.226   4.408  0.4457 -0.2361 -0.2444
10446SOL    HW135794   0.780   6.288   4.337 -1.2566  1.9066  1.1009
10446SOL    HW235795   0.763   6.280   4.487 -0.7321 -2.0580  1.0623
10447SOL     OW35796   2.435  10.816   8.882  0.0845 -1.1456 -0.0144
10447SOL    HW135797   2.459  10.851   8.968 -0.8303 -0.8209  0.1175
10447SOL    HW235798   2.507  10.758   8.859  1.8390  1.0614 -0.4126
10448SOL     OW35799  11.066   5.024   6.142 -0.0948 -0.0103 -1.2351
10448SOL    HW135800  11.082   5.103   6.194 -0.0430 -0.9313  0.1806
10448SOL    HW235801  10.981   5.039   6.101  0.4079  1.2439 -1.8917
10449SOL     OW35802   5.016   7.020   3.346  0.1911 -0.6312  0.1640
10449SOL    HW135803   5.056   6.974   3.273 -1.1464 -1.5108 -0.0521
10449SOL    HW235804   5.068   7.100   3.356  0.8668 -0.8689 -1.2374
10450SOL     OW35805   6.994   6.770   1.040  0.1773  0.0008 -0.3069
10450SOL    HW135806   6.921   6.778   1.101  0.2607 -0.6314 -0.1090
10450SOL    HW235807   7.031   6.858   1.033  0.5032 -0.0181  0.9828
10451SOL     OW35808   0.587   1.171   1.896  0.0621  0.1115  0.1901
10451SOL    HW135809   0.660   1.233   1.901  0.4215 -0.1839 -1.1088
10451SOL    HW235810   0.618   1.101   1.839 -1.6026  0.5084 -1.3048
10452SOL     OW35811   4.529   1.467   3.818 -0.4641 -0.1240 -0.4412
10452SOL    HW135812   4.513   1.410   3.893  0.9020 -0.7785 -0.6265
10452SOL    HW235813   4.511   1.555   3.850  0.3985 -0.3649  0.7544
10453SOL     OW35814   3.736   3.369   2.581  0.4319 -0.6544 -0.4462
10453SOL    HW135815   3.669   3.405   2.640  0.8882 -0.0188 -0.3109
10453SOL    HW235816   3.816   3.369   2.633  0.6428 -0.9464 -0.7746
10454SOL     OW35817   4.967   6.193   5.475 -0.4180  0.1696  0.0443
10454SOL    HW135818   5.058   6.169   5.457 -1.0171 -1.7630 -0.6528
10454SOL    HW235819   4.931   6.215   5.389 -1.0538 -0.8369  0.0322
10455SOL     OW35820   9.651   0.507   4.558  0.2222 -0.1048 -0.2774
10455SOL    HW135821   9.739   0.472   4.548 -0.1866 -0.8778 -1.3379
10455SOL    HW235822   9.633   0.553   4.476 -0.1042  0.6632  0.2084
10456SOL     OW35823  10.709   5.209   4.927 -0.3003  0.5043 -1.0333
10456SOL    HW135824  10.645   5.143   4.953  0.3579  0.1474 -0.2340
10456SOL    HW235825  10.695   5.221   4.833  0.7343 -2.1301 -1.6218
10457SOL     OW35826  10.092   3.510  10.076  0.2416 -0.2952  0.2600
10457SOL    HW135827  10.014   3.459  10.098 -0.5191  0.7428  0.0614
10457SOL    HW235828  10.157   3.483  10.140 -0.6138 -0.4145  1.1039
10458SOL     OW35829   9.572  10.390   1.426 -0.2607 -0.0735  0.0084
10458SOL    HW135830   9.647  10.432   1.468  0.2191  1.9777 -2.5852
10458SOL    HW235831   9.588  10.400   1.332 -2.0760 -2.8009 -0.7216
10459SOL     OW35832   0.189   9.581  10.658  0.1934 -0.2846  0.3980
10459SOL    HW135833   0.168   9.610  10.747 -0.1428  0.4264  0.0951
10459SOL    HW235834   0.246   9.648  10.623 -0.8899  0.2319 -0.4428
10460SOL     OW35835   8.892   6.330   1.975 -0.0738  0.9340 -0.1457
10460SOL    HW135836   8.894   6.268   2.049 -0.5961  2.0342  0.8174
10460SOL    HW235837   8.983   6.334   1.945  0.0836  0.2084  0.2056
10461SOL     OW35838  10.392   2.879   7.628 -0.2893  0.0219 -0.2313
10461SOL    HW135839  10.348   2.937   7.691  0.4447  1.2699 -0.8179
10461SOL    HW235840  10.430   2.810   7.681  0.5319  1.1877  0.7597
10462SOL     OW35841   7.720   4.474   8.699  0.2866 -0.3408  0.6959
10462SOL    HW135842   7.731   4.568   8.683  1.7031 -0.1860  2.3320
10462SOL    HW235843   7.635   4.468   8.743  0.3266  0.2235  0.8641
10463SOL     OW35844   9.786   4.635   8.425  0.3480  0.1622  0.1879
10463SOL    HW135845   9.744   4.590   8.351 -1.2401  0.9434  0.5502
10463SOL    HW235846   9.755   4.587   8.502  0.3204  0.6006  0.4499
10464SOL     OW35847   2.816   4.510   7.663  0.0056 -0.0430  0.5453
10464SOL    HW135848   2.887   4.516   7.599  0.6044  0.7054  1.2449
10464SOL    HW235849   2.860   4.519   7.748 -0.7595 -1.0505  1.0761
10465SOL     OW35850   8.493   3.152   0.178  0.5184 -0.2709 -0.7409
10465SOL    HW135851   8.420   3.095   0.157 -0.4522  0.9081 -0.6716
10465SOL    HW235852   8.542   3.105   0.245 -1.4135 -0.1680  0.8327
10466SOL     OW35853   6.101  10.316   1.503 -0.5443 -1.0026  0.4776
10466SOL    HW135854   6.104  10.341   1.595  1.5320 -1.6227  0.6269
10466SOL    HW235855   6.104  10.220   1.504 -2.4130 -1.1109 -0.2192
10467SOL     OW35856   1.553   1.038   1.086  0.4235  0.4872 -0.2014
10467SOL    HW135857   1.510   1.064   1.005  1.8220  2.4720 -0.3715
10467SOL    HW235858   1.481   1.026   1.148 -0.5177  1.3990 -1.0800
10468SOL     OW35859   8.290   4.692   8.853 -0.4667 -0.2635  0.2221
10468SOL    HW135860   8.317   4.706   8.944  1.3974  0.1832 -0.3557
10468SOL    HW235861   8.247   4.773   8.828 -2.4209 -0.9559  1.1381
10469SOL     OW35862   8.787   8.201   0.023  0.1243  0.0504  0.0925
10469SOL    HW135863   8.865   8.235  -0.021 -0.9965  3.1368  0.2165
10469SOL    HW235864   8.727   8.180  -0.049  0.1869  0.0348  0.0443
10470SOL     OW35865   5.922   2.368   0.865 -0.1510  0.4235  0.3710
10470SOL    HW135866   5.842   2.346   0.817 -0.1032  0.0479  0.4555
10470SOL    HW235867   5.904   2.340   0.955 -0.5656  1.9050  0.7772
10471SOL     OW35868   8.852   8.811   4.616  0.1811 -0.4897 -0.2133
10471SOL    HW135869   8.763   8.847   4.612  0.4606  0.3116  0.6298
10471SOL    HW235870   8.905   8.882   4.651  1.6100 -0.1196 -2.8656
10472SOL     OW35871   9.655   9.709   9.601 -0.2332  0.0459  0.3452
10472SOL    HW135872   9.686   9.794   9.569 -0.7434  0.3582  0.6639
10472SOL    HW235873   9.569   9.698   9.559 -0.5276  0.0666  0.9346
10473SOL     OW35874   6.817   1.723   9.071  0.3704  0.1690  0.2386
10473SOL    HW135875   6.866   1.767   9.141  1.8227 -1.2136  0.1241
10473SOL    HW235876   6.829   1.630   9.088 -1.4861 -0.2112 -0.3484
10474SOL     OW35877  10.025   2.572   4.175 -0.0030  0.3831  0.0442
10474SOL    HW135878   9.989   2.655   4.143  1.7048  0.7123 -1.1716
10474SOL    HW235879  10.079   2.541   4.103  0.3415 -1.1972  0.9523
10475SOL     OW35880  10.727   9.392   1.766 -0.2585  0.4304  0.2813
10475SOL    HW135881  10.640   9.408   1.801  0.2359 -0.3306  1.9651
10475SOL    HW235882  10.777   9.470   1.789 -0.1989  0.3709  0.3547
10476SOL     OW35883   9.434   0.681   3.354  0.1771  0.1092  0.2568
10476SOL    HW135884   9.495   0.609   3.343 -0.9965 -0.7448 -0.9776
10476SOL    HW235885   9.352   0.650   3.315 -1.0223  1.2703  1.7078
10477SOL     OW35886   0.409   7.120   8.347 -0.4458 -0.5999  0.0017
10477SOL    HW135887   0.438   7.131   8.437 -0.8241 -1.1375  0.1933
10477SOL    HW235888   0.316   7.098   8.355 -0.9233  1.0228 -0.5875
10478SOL     OW35889   9.874   4.532   7.800 -0.2331  0.6021  0.2873
10478SOL    HW135890   9.910   4.585   7.871  0.5978 -0.7556  0.9122
10478SOL    HW235891   9.905   4.444   7.818  0.5513  0.3333 -2.1410
10479SOL     OW35892   0.913   2.559  10.527 -0.7916  0.0366 -0.1047
10479SOL    HW135893   0.864   2.634  10.494 -0.7232 -0.5581 -1.6843
10479SOL    HW235894   0.890   2.488  10.467  1.3903 -0.4520 -0.4278
10480SOL     OW35895   2.861   5.440   0.551 -0.7382  0.3681  0.5946
10480SOL    HW135896   2.914   5.400   0.620  1.1514  2.3074  0.3992
10480SOL    HW235897   2.842   5.369   0.490  1.0993 -0.5479  1.0279
10481SOL     OW35898  10.161   5.452   3.080  0.4439  0.7273  0.1077
10481SOL    HW135899  10.254   5.448   3.061  0.1727 -0.5411 -1.2297
10481SOL    HW235900  10.119   5.441   2.994 -0.9307  1.2630  0.6775
10482SOL     OW35901   3.274   6.389  10.582  0.0075  0.6882  0.0242
10482SOL    HW135902   3.352   6.374  10.528 -0.9538 -0.0237 -1.2264
10482SOL    HW235903   3.201   6.363  10.526 -1.0873  0.6011  1.4415
10483SOL     OW35904   7.108   3.150   0.201  0.4614  0.6563 -0.3148
10483SOL    HW135905   7.105   3.119   0.111  1.3466  0.4675 -0.2944
10483SOL    HW235906   7.134   3.073   0.252 -1.0968  0.4680  0.2654
10484SOL     OW35907   3.663   7.356   4.233  0.1945 -0.2799 -0.2555
10484SOL    HW135908   3.752   7.340   4.200 -0.1561 -1.2491 -0.7419
10484SOL    HW235909   3.608   7.360   4.155 -0.0040  1.8543 -0.0819
10485SOL     OW35910   0.731   7.458   7.700  0.0195 -0.1758 -0.2498
10485SOL    HW135911   0.802   7.471   7.636  0.0170  1.7016  0.0702
10485SOL    HW235912   0.652   7.455   7.647  0.1718 -0.5008 -0.4675
10486SOL     OW35913   8.738  10.810   3.029 -0.1401 -0.0353 -0.4516
10486SOL    HW135914   8.660  10.756   3.017 -1.5925  2.0988 -1.2975
10486SOL    HW235915   8.786  10.802   2.947  0.8336 -1.6942  0.2268
10487SOL     OW35916   1.741   6.119   4.546 -0.4987 -0.3023  0.4015
10487SOL    HW135917   1.663   6.071   4.574  0.7260 -1.9725  1.1509
10487SOL    HW235918   1.772   6.072   4.468 -0.3183  0.4281  0.0229
10488SOL     OW35919   2.108   5.708   4.306 -0.4068  0.2464  0.1773
10488SOL    HW135920   2.015   5.727   4.308 -0.7374 -1.0182 -1.7089
10488SOL    HW235921   2.141   5.756   4.230  0.3947  0.2463  0.5097
10489SOL     OW35922   8.576   8.866   3.186 -0.5149 -0.4466 -0.2069
10489SOL    HW135923   8.547   8.949   3.224  0.8048  0.0240 -0.1893
10489SOL    HW235924   8.501   8.807   3.199 -0.7426  0.1604  1.5989
10490SOL     OW35925   0.349   5.556   3.082 -0.8504  0.3838  0.1183
10490SOL    HW135926   0.418   5.621   3.071 -1.5234  1.3288  1.2393
10490SOL    HW235927   0.302   5.584   3.160 -2.8919  0.1327 -0.9396
10491SOL     OW35928   2.861   3.134   6.674  1.2214 -0.4048 -0.6717
10491SOL    HW135929   2.955   3.125   6.659  0.7734 -1.9040 -3.2540
10491SOL    HW235930   2.829   3.181   6.597 -0.1523  0.2388  0.2516
10492SOL     OW35931   1.322   5.132   1.086 -0.1363  0.2795  0.4198
10492SOL    HW135932   1.234   5.140   1.122 -0.3738 -0.5522  0.0388
10492SOL    HW235933   1.341   5.038   1.090 -0.4614  0.0430 -2.3158
10493SOL     OW35934   3.435   1.355   9.464 -0.0212  0.0374 -0.0896
10493SOL    HW135935   3.408   1.386   9.550  2.0959  2.5939 -0.2071
10493SOL    HW235936   3.511   1.299   9.481 -0.4283 -0.5763 -0.2455
10494SOL     OW35937   5.951   7.037  11.059 -0.2909  0.7465  0.2201
10494SOL    HW135938   5.904   6.995  10.987 -0.6290  0.3093  0.6940
10494SOL    HW235939   6.037   7.057  11.022 -0.5707  0.8261 -0.4044
10495SOL     OW35940   7.498   0.341   2.319 -0.4700 -0.5528  0.2698
10495SOL    HW135941   7.481   0.251   2.293 -0.2530 -0.8069  0.9710
10495SOL    HW235942   7.593   0.344   2.332 -0.6029 -0.5361  1.3416
10496SOL     OW35943   8.747  11.071   6.044  0.2964  0.3530 -0.0874
10496SOL    HW135944   8.668  11.020   6.028  0.4169  0.3540 -0.7092
10496SOL    HW235945   8.776  11.043   6.131 -0.9149  1.0569  0.5734
10497SOL     OW35946   9.173   7.633   4.042 -0.0569 -0.1239  0.1700
10497SOL    HW135947   9.262   7.633   4.077  0.1834 -0.8333 -0.4183
10497SOL    HW235948   9.121   7.679   4.108  0.6239 -0.2993  0.8416
10498SOL     OW35949   8.093   5.283   9.294 -0.1620 -0.0150  0.1780
10498SOL    HW135950   8.181   5.250   9.273  0.2499  1.2138 -0.1044
10498SOL    HW235951   8.071   5.340   9.220 -1.0967 -0.1192  0.3683
10499SOL     OW35952   0.590   9.175   7.144 -0.0871  0.0745  0.0542
10499SOL    HW135953   0.522   9.165   7.210 -0.5258 -1.0067 -0.5239
10499SOL    HW235954   0.588   9.268   7.121 -2.4749 -0.1601 -1.0556
10500SOL     OW35955   2.244   4.220   7.164 -0.0011  0.1404 -0.1234
10500SOL    HW135956   2.195   4.301   7.179 -2.0079 -1.0226 -0.0742
10500SOL    HW235957   2.227   4.167   7.242  1.3166 -0.3497 -0.1381
10501SOL     OW35958   0.433   3.810   0.251 -0.7944 -0.1538  0.0051
10501SOL    HW135959   0.482   3.828   0.331 -0.6367  1.3914 -0.3968
10501SOL    HW235960   0.476   3.734   0.212  1.9325  1.6726 -0.7944
10502SOL     OW35961   4.509   9.244   5.031 -0.0627  0.0979  0.2441
10502SOL    HW135962   4.511   9.172   5.094  0.2241 -0.5265 -0.4614
10502SOL    HW235963   4.599   9.275   5.028 -0.2273  0.6268  0.6998
10503SOL     OW35964   9.884   5.255   8.339 -0.1717  0.1844 -0.0941
10503SOL    HW135965   9.863   5.270   8.432  2.9796  0.9075  0.6164
10503SOL    HW235966   9.882   5.342   8.300  0.7320  0.1961 -0.1384
10504SOL     OW35967   8.432   3.011   7.412  0.5387 -0.1423  0.8240
10504SOL    HW135968   8.369   3.061   7.464  0.5237  0.0197  0.6482
10504SOL    HW235969   8.517   3.046   7.439  0.4920  0.6443  0.0175
10505SOL     OW35970   5.582   7.758   2.509 -0.3920  0.2153 -0.1705
10505SOL    HW135971   5.669   7.797   2.497 -0.4325  0.4491  0.2769
10505SOL    HW235972   5.524   7.833   2.521 -0.3562  0.0203  1.4636
10506SOL     OW35973   7.739  10.494   7.886 -0.0438  0.3406 -0.0529
10506SOL    HW135974   7.734  10.400   7.869 -0.4964  0.8864 -3.6903
10506SOL    HW235975   7.686  10.506   7.966 -0.7921 -2.3471 -0.0387
10507SOL     OW35976   4.322  10.252   4.234  0.2522 -0.0853 -0.5674
10507SOL    HW135977   4.403  10.228   4.279  0.0612 -1.7035 -1.0422
10507SOL    HW235978   4.287  10.169   4.201 -1.2572  0.6703 -0.9435
10508SOL     OW35979   8.301   7.431   4.586 -0.3074 -0.3089 -0.0306
10508SOL    HW135980   8.230   7.421   4.521 -0.2328 -1.7784  0.1010
10508SOL    HW235981   8.267   7.496   4.647 -1.8846 -1.5111  0.4405
10509SOL     OW35982   9.828   7.332   1.603  0.0656  0.2598  0.6321
10509SOL    HW135983   9.886   7.281   1.659 -0.9293 -0.7685  0.7705
10509SOL    HW235984   9.741   7.321   1.642 -0.6565 -0.4606 -1.0564
10510SOL     OW35985   2.233   2.396   7.356 -0.4966 -0.0946  0.0978
10510SOL    HW135986   2.167   2.401   7.287  0.0301  3.3142 -0.3229
10510SOL    HW235987   2.317   2.409   7.311  0.0521  0.0734  1.1239
10511SOL     OW35988   3.589   6.601  10.966 -0.1989 -0.2157  0.1229
10511SOL    HW135989   3.567   6.521  10.919  0.8491  0.3111 -1.3446
10511SOL    HW235990   3.644   6.572  11.038  1.3024 -0.7461 -1.1748
10512SOL     OW35991  10.851   8.184  11.059 -0.3093 -0.2432  0.4982
10512SOL    HW135992  10.844   8.092  11.084  0.8410  0.0164  1.9063
10512SOL    HW235993  10.772   8.225  11.094 -0.8436 -0.6936 -0.1683
10513SOL     OW35994   4.770   4.924   7.687  0.2096 -0.1519  0.2938
10513SOL    HW135995   4.775   4.832   7.713 -0.7302 -0.2346  0.2196
10513SOL    HW235996   4.762   4.921   7.592  0.4254  0.0186  0.2708
10514SOL     OW35997   4.606   4.442   6.124 -0.4528  0.5115  0.8336
10514SOL    HW135998   4.699   4.465   6.123 -0.0796 -0.8509  1.1979
10514SOL    HW235999   4.590   4.410   6.213  0.2341 -4.5658 -0.5100
10515SOL     OW36000  10.380  10.101   9.445  0.0197  0.6906  0.3224
10515SOL    HW136001  10.441  10.028   9.434  0.0489  0.6843  0.5293
10515SOL    HW236002  10.325  10.075   9.519 -0.2862  0.6597  0.0904
10516SOL     OW36003   1.780   7.952   9.720 -0.1398  0.1040 -0.1603
10516SOL    HW136004   1.687   7.975   9.715  0.3426  2.3854  0.2677
10516SOL    HW236005   1.821   8.007   9.653  1.1167  0.4940  0.9011
10517SOL     OW36006   8.175   0.223   1.401  0.1748  0.1156 -0.5852
10517SOL    HW136007   8.144   0.300   1.449  2.8275  0.5517  0.6401
10517SOL    HW236008   8.218   0.259   1.323 -0.0121 -0.2445 -0.8546
10518SOL     OW36009  10.835   3.830   4.680 -0.5115  0.1991  0.3526
10518SOL    HW136010  10.784   3.843   4.760  0.0443  0.1051  0.7281
10518SOL    HW236011  10.874   3.915   4.662  1.3070 -0.3193  1.5500
10519SOL     OW36012   2.300   1.709   1.106  0.5239  0.3174  0.1787
10519SOL    HW136013   2.237   1.670   1.166 -0.7399  1.2057 -0.5385
10519SOL    HW236014   2.340   1.780   1.156  0.8283 -0.1234  0.5703
10520SOL     OW36015   9.550   8.093  10.020  0.2927  0.3582 -0.2401
10520SOL    HW136016   9.512   8.152  10.084 -0.5306  1.5501 -1.7545
10520SOL    HW236017   9.527   8.131   9.935  0.4409 -1.6891 -1.2749
10521SOL     OW36018   3.007   9.021   1.741  0.2613  0.4953  0.0736
10521SOL    HW136019   2.934   8.996   1.798 -0.0956  2.3294  0.4791
10521SOL    HW236020   2.968   9.028   1.654  0.1322  0.7029  0.1488
10522SOL     OW36021   4.298   5.516   8.600  0.0354  0.3591  0.1237
10522SOL    HW136022   4.224   5.575   8.585  0.1089  0.1800 -1.0284
10522SOL    HW236023   4.344   5.554   8.675 -0.8936  0.7943  0.4891
10523SOL     OW36024   1.284   7.679   3.687 -0.5267 -0.1990 -0.2752
10523SOL    HW136025   1.273   7.771   3.664  0.3382 -0.1331 -0.4912
10523SOL    HW236026   1.197   7.650   3.714 -0.7288  0.7834  0.1733
10524SOL     OW36027   4.306   1.581   6.368 -0.2524  0.3833 -0.1266
10524SOL    HW136028   4.238   1.523   6.401 -0.6021  1.0397  0.3275
10524SOL    HW236029   4.267   1.669   6.373  0.6834  0.7865  0.3038
10525SOL     OW36030   3.567   4.212   6.314 -0.1357 -0.2570 -0.0154
10525SOL    HW136031   3.561   4.307   6.310  0.7669 -0.2145 -0.7658
10525SOL    HW236032   3.609   4.194   6.398 -0.5262 -0.0148  0.2339
10526SOL     OW36033   1.192   1.020   7.415  0.3146  0.0090 -0.3805
10526SOL    HW136034   1.229   1.067   7.490 -0.3653 -1.1908  0.7413
10526SOL    HW236035   1.268   0.989   7.366  0.7726  1.5353 -0.6936
10527SOL     OW36036   9.266   4.832   5.824 -0.2357  0.1972  0.0498
10527SOL    HW136037   9.214   4.772   5.878 -0.4732 -0.4471 -0.8624
10527SOL    HW236038   9.239   4.812   5.734  0.7100  0.7002 -0.3619
10528SOL     OW36039   4.294   8.330   6.430 -0.3458  0.1683  0.6690
10528SOL    HW136040   4.265   8.419   6.409 -0.1280  0.2027  0.5124
10528SOL    HW236041   4.224   8.294   6.484 -1.0643 -0.0343 -0.3627
10529SOL     OW36042   5.004   3.947   0.896 -0.0848  0.6809  0.4362
10529SOL    HW136043   4.946   3.872   0.904 -0.2640  0.9527  1.8015
10529SOL    HW236044   5.022   3.974   0.986 -1.7627  3.6257 -0.0079
10530SOL     OW36045   8.727   8.592   8.464  0.0570  0.0097 -0.2384
10530SOL    HW136046   8.642   8.581   8.505 -0.2028 -2.3525 -1.2543
10530SOL    HW236047   8.773   8.510   8.480  1.7225  0.8025 -0.6836
10531SOL     OW36048   8.268   8.066   2.101  0.3905  0.2322 -0.0712
10531SOL    HW136049   8.349   8.055   2.152  0.0243  1.2446  0.7668
10531SOL    HW236050   8.298   8.091   2.014  1.0190 -1.1982 -0.2938
10532SOL     OW36051   6.483   8.771   9.787  0.6465 -0.5473 -0.9172
10532SOL    HW136052   6.527   8.786   9.704  0.5622 -1.0754 -1.0585
10532SOL    HW236053   6.398   8.733   9.763  0.2317  0.1839 -0.6358
10533SOL     OW36054   7.184   8.427   5.276 -0.2395 -0.0003 -0.4018
10533SOL    HW136055   7.136   8.452   5.197 -0.6625 -1.1559 -0.5369
10533SOL    HW236056   7.186   8.331   5.274 -0.7641 -0.0938  1.2758
10534SOL     OW36057   6.274   2.606   0.496 -0.8092  0.3735 -0.0387
10534SOL    HW136058   6.256   2.539   0.431  3.5170  0.8470 -2.0445
10534SOL    HW236059   6.288   2.557   0.577 -1.0519 -0.7751 -0.6694
10535SOL     OW36060   6.254   3.180   3.919  0.0120 -0.5008 -0.3991
10535SOL    HW136061   6.333   3.234   3.910  0.4642 -0.6993  1.8701
10535SOL    HW236062   6.270   3.106   3.860  2.3899 -1.4367  1.2486
10536SOL     OW36063   1.771   9.974   7.987  0.0102  0.0862 -0.2440
10536SOL    HW136064   1.788  10.055   8.034 -1.2783 -0.3340  1.0440
10536SOL    HW236065   1.842   9.915   8.013 -0.0798  0.2186  0.3266
10537SOL     OW36066   7.015   7.281   0.707 -0.2444  0.1552 -0.7654
10537SOL    HW136067   7.106   7.271   0.735  0.0576 -0.9494 -2.0321
10537SOL    HW236068   7.007   7.374   0.684  0.3148  0.4442  0.1398
10538SOL     OW36069   0.164  10.012   8.920  0.1679  0.9707  0.0689
10538SOL    HW136070   0.122  10.055   8.995  1.4038 -0.1400  1.4740
10538SOL    HW236071   0.096   9.956   8.884 -1.0198  2.9412 -0.8851
10539SOL     OW36072  10.829   4.361   2.141 -0.1738  0.1573 -0.3370
10539SOL    HW136073  10.752   4.385   2.089 -1.4827  1.0728  1.8944
10539SOL    HW236074  10.793   4.335   2.226  1.7491 -2.7273 -0.2399
10540SOL     OW36075   9.568   4.150   9.631 -0.5469  0.3305  0.8172
10540SOL    HW136076   9.538   4.102   9.553 -1.2199  0.0884  1.2175
10540SOL    HW236077   9.513   4.229   9.633 -0.6342  0.2636  1.1274
10541SOL     OW36078   5.148   9.760   5.229  0.0605  0.0849 -0.2667
10541SOL    HW136079   5.163   9.808   5.148  2.1559  0.3177  0.2059
10541SOL    HW236080   5.207   9.800   5.292  1.2090 -2.4523  0.3986
10542SOL     OW36081   0.136   1.610   2.838 -0.4468 -0.0187 -0.2328
10542SOL    HW136082   0.159   1.533   2.786 -0.2616  0.4469 -0.8527
10542SOL    HW236083   0.177   1.595   2.923 -1.2247 -1.0540 -0.0306
10543SOL     OW36084   5.600   9.709   7.833 -0.7475 -0.1129  0.3121
10543SOL    HW136085   5.683   9.662   7.839 -1.6373 -2.4027 -2.6076
10543SOL    HW236086   5.622   9.789   7.785  0.1122  0.4855  1.6531
10544SOL     OW36087   3.283   1.255   2.380 -0.4042 -0.6932 -0.2640
10544SOL    HW136088   3.263   1.319   2.311  1.9646  0.7086  0.2236
10544SOL    HW236089   3.198   1.235   2.419 -1.3447  1.7005 -0.8665
10545SOL     OW36090   8.852   6.185   5.505 -0.3324 -0.2665  0.3204
10545SOL    HW136091   8.815   6.273   5.501 -0.3816 -0.3349 -1.5999
10545SOL    HW236092   8.862   6.159   5.414  2.6112 -1.0216  0.7450
10546SOL     OW36093   6.847   0.282   0.798 -0.2925  0.0377  0.4035
10546SOL    HW136094   6.854   0.215   0.730  1.0745 -0.9590  1.4677
10546SOL    HW236095   6.934   0.322   0.802 -0.1635 -0.3170  1.9238
10547SOL     OW36096   3.146   8.888   5.362 -0.4582  0.0407  0.1389
10547SOL    HW136097   3.071   8.936   5.330 -1.1881  0.2257  2.0264
10547SOL    HW236098   3.112   8.835   5.434  0.7919 -1.5278 -0.3573
10548SOL     OW36099   5.194   9.082   7.760  0.3382  0.0728  0.6940
10548SOL    HW136100   5.184   9.029   7.839  0.0769  0.4912  0.9495
10548SOL    HW236101   5.168   9.024   7.688 -1.1939  0.2185  1.0822
10549SOL     OW36102   9.917   4.707   4.577 -0.5758  0.1625 -0.5231
10549SOL    HW136103   9.941   4.800   4.575  0.3285 -0.0495  0.0434
10549SOL    HW236104   9.876   4.692   4.492 -1.4880  1.2689 -0.3125
10550SOL     OW36105  10.541   3.658   9.105  0.1859 -0.2268  0.2458
10550SOL    HW136106  10.566   3.749   9.120  2.5704 -0.8286  0.4594
10550SOL    HW236107  10.515   3.626   9.191  1.5251 -0.3111  0.6400
10551SOL     OW36108   2.040   9.062   1.572  0.6767  0.4320 -0.3912
10551SOL    HW136109   1.996   8.989   1.613 -0.3266  1.7223  0.9512
10551SOL    HW236110   1.986   9.084   1.497  0.2940  0.5460 -0.0886
10552SOL     OW36111   4.050   6.243   0.346 -0.3138  0.1249 -0.2072
10552SOL    HW136112   4.122   6.274   0.290 -0.2316  0.1495 -0.0880
10552SOL    HW236113   4.071   6.151   0.363  0.5552  0.5376  1.1589
10553SOL     OW36114   9.543   5.335   8.882  0.4254  0.2580  0.1397
10553SOL    HW136115   9.502   5.395   8.818  0.8398 -1.0262 -1.4013
10553SOL    HW236116   9.483   5.261   8.887 -0.1518  0.8080  2.1421
10554SOL     OW36117   6.417   1.314   2.658  0.0773 -0.9985 -0.1272
10554SOL    HW136118   6.354   1.282   2.594 -0.4305  0.2962 -0.3219
10554SOL    HW236119   6.382   1.286   2.742 -0.5179 -0.7123 -0.2703
10555SOL     OW36120   3.620   4.558   4.361 -0.3302  0.6523 -0.3013
10555SOL    HW136121   3.594   4.466   4.354  1.0990  0.1500  0.4811
10555SOL    HW236122   3.691   4.567   4.298  0.1753  0.9554  0.3036
10556SOL     OW36123   7.836   3.747   1.286  0.3828 -0.5277  0.5060
10556SOL    HW136124   7.828   3.654   1.308  1.8509 -1.1769 -1.4555
10556SOL    HW236125   7.809   3.752   1.195  1.3607  0.8036  0.2784
10557SOL     OW36126   6.591  10.295   0.561 -0.1858  0.1964  0.3275
10557SOL    HW136127   6.531  10.344   0.505  2.6532  0.2752 -2.9140
10557SOL    HW236128   6.631  10.230   0.503  1.5064 -1.1154  2.7840
10558SOL     OW36129   3.977   8.284   1.879 -0.0512 -0.7230 -0.2219
10558SOL    HW136130   3.958   8.345   1.808 -0.0250 -1.2469 -0.6860
10558SOL    HW236131   4.035   8.333   1.938 -1.3863  0.2912  0.3109
10559SOL     OW36132   4.095   0.995   2.432  0.0968 -0.1530 -0.2250
10559SOL    HW136133   4.012   0.947   2.440 -0.6231  1.0439 -0.3230
10559SOL    HW236134   4.077   1.062   2.366  1.2782 -0.1245 -0.5400
10560SOL     OW36135   2.363   0.509   8.605  0.2227  0.0427  0.1147
10560SOL    HW136136   2.318   0.442   8.554 -1.2334 -0.8553  2.4345
10560SOL    HW236137   2.314   0.589   8.589 -0.7257 -0.4072  0.6966
10561SOL     OW36138   5.721   6.854   6.194  0.6956  0.2963  0.1393
10561SOL    HW136139   5.708   6.938   6.238  0.5653  0.0517  0.5813
10561SOL    HW236140   5.767   6.876   6.113 -1.1773  1.0396 -0.7758
10562SOL     OW36141   6.669   0.280   5.701 -0.1299 -0.1269  0.3122
10562SOL    HW136142   6.641   0.199   5.659  0.5760 -0.6211  0.7724
10562SOL    HW236143   6.734   0.253   5.766  0.9236  0.9068 -0.2722
10563SOL     OW36144  10.576   1.815   7.490  0.6729  0.0057  0.5447
10563SOL    HW136145  10.569   1.890   7.431 -0.5666 -0.0436  0.6063
10563SOL    HW236146  10.491   1.772   7.485  1.1288 -1.0029  1.0493
10564SOL     OW36147   0.583   5.356   2.114  0.1996 -0.0501 -0.0339
10564SOL    HW136148   0.511   5.338   2.053  0.1677 -1.2434  0.3264
10564SOL    HW236149   0.617   5.270   2.135 -0.5534  0.2104  2.5734
10565SOL     OW36150   4.793   9.338   4.469 -0.6529 -0.3464 -0.1179
10565SOL    HW136151   4.839   9.325   4.386  1.6297 -3.5025  1.4178
10565SOL    HW236152   4.860   9.374   4.527 -1.1824 -1.4181  1.1935
10566SOL     OW36153   0.794   2.450   9.441  0.3000 -0.2069  0.3509
10566SOL    HW136154   0.779   2.544   9.442  1.6238  0.0612 -0.6853
10566SOL    HW236155   0.737   2.417   9.371 -0.9177 -0.3532  1.3842
10567SOL     OW36156   8.558   9.196   6.139  0.0357 -0.2963 -0.3351
10567SOL    HW136157   8.477   9.247   6.126 -0.7626 -1.8479 -1.8324
10567SOL    HW236158   8.627   9.250   6.100 -0.6230  0.1013 -0.9784
10568SOL     OW36159   9.635   4.865   4.561  0.2608 -0.1652  0.0791
10568SOL    HW136160   9.636   4.775   4.528 -1.1431  0.3458 -1.5081
10568SOL    HW236161   9.713   4.905   4.523 -0.6222  0.0356 -1.6148
10569SOL     OW36162   5.109   7.924   4.172 -0.1501  0.1934 -0.0965
10569SOL    HW136163   5.065   7.988   4.228 -1.2346 -0.1086 -0.5833
10569SOL    HW236164   5.141   7.858   4.232 -1.6100 -0.3056  0.1702
10570SOL     OW36165   6.779   4.407   3.005 -0.2760 -0.4795 -0.3805
10570SOL    HW136166   6.836   4.429   3.079  0.7686 -1.1625 -0.9664
10570SOL    HW236167   6.756   4.315   3.018  0.5737 -0.8444 -1.3099
10571SOL     OW36168   3.766   3.249   0.473 -0.3421 -0.0639  0.3421
10571SOL    HW136169   3.696   3.268   0.411  0.6546  1.3553 -0.3839
10571SOL    HW236170   3.733   3.174   0.524 -1.3490 -1.0286 -1.6184
10572SOL     OW36171   5.279   8.892  10.492 -0.3521 -0.0777  0.4459
10572SOL    HW136172   5.291   8.870  10.585  3.0128 -0.3475  0.0392
10572SOL    HW236173   5.313   8.981  10.484  0.5965 -0.5256 -0.7490
10573SOL     OW36174   4.322   7.742   0.281  0.0586  0.4524 -0.1423
10573SOL    HW136175   4.235   7.780   0.288 -0.2526 -0.5596  2.7159
10573SOL    HW236176   4.380   7.807   0.320  0.2809  0.2361 -0.1079
10574SOL     OW36177   5.996   6.573   1.034  0.0021  0.2032  0.3843
10574SOL    HW136178   5.903   6.579   1.055 -0.3224 -0.9488 -0.5853
10574SOL    HW236179   6.012   6.644   0.972 -0.5711 -0.3900 -0.4733
10575SOL     OW36180   6.451   6.979   6.225 -0.3196 -0.1761 -0.0866
10575SOL    HW136181   6.393   6.903   6.232  0.4307 -0.9083 -1.5420
10575SOL    HW236182   6.525   6.948   6.173 -0.0698  1.6008 -0.8475
10576SOL     OW36183   4.913   8.245   9.567  0.0656  0.2555  0.5169
10576SOL    HW136184   4.891   8.181   9.499  1.0379  1.6139 -1.1584
10576SOL    HW236185   4.835   8.301   9.572  0.8090  1.5245 -1.1876
10577SOL     OW36186   7.536   0.804   7.661  0.4259  0.1598  0.3700
10577SOL    HW136187   7.510   0.824   7.751 -2.4320  0.4491 -0.4237
10577SOL    HW236188   7.543   0.889   7.619 -2.1402 -0.0127 -0.5817
10578SOL     OW36189   2.220   6.375   0.133  0.6056  0.2693  0.4541
10578SOL    HW136190   2.198   6.442   0.198  2.0838 -0.2184  1.5021
10578SOL    HW236191   2.313   6.359   0.145  0.7587 -0.4078 -1.2811
10579SOL     OW36192   8.938   7.109   3.532 -0.5183 -0.3122 -0.4261
10579SOL    HW136193   9.031   7.083   3.535 -0.5422 -0.3678 -0.0110
10579SOL    HW236194   8.892   7.035   3.570 -0.4952  0.6981  1.7254
10580SOL     OW36195   0.130   4.232  10.920 -0.2884  0.0671  0.5494
10580SOL    HW136196   0.220   4.200  10.932 -0.8522 -0.9483  2.3814
10580SOL    HW236197   0.139   4.327  10.911  0.9510 -0.0051  0.8871
10581SOL     OW36198   0.139   1.409   6.637 -0.3210 -0.4044  0.3933
10581SOL    HW136199   0.158   1.424   6.544 -1.6947  0.0602  0.1724
10581SOL    HW236200   0.092   1.326   6.640 -1.0089 -0.0162  0.5691
10582SOL     OW36201   5.095  10.855   3.350 -0.7368  0.0553  0.1495
10582SOL    HW136202   5.072  10.808   3.430  0.8356 -1.6885 -0.3452
10582SOL    HW236203   5.060  10.801   3.279  0.6683 -0.1681 -0.4203
10583SOL     OW36204  11.035   7.373   5.420  0.4295  0.2885 -0.0995
10583SOL    HW136205  10.963   7.432   5.442  1.2253  0.5670  1.9251
10583SOL    HW236206  11.089   7.423   5.359 -0.4100  0.5453 -0.6563
10584SOL     OW36207   6.311   6.641   9.526  0.4406  0.2147  0.2622
10584SOL    HW136208   6.272   6.556   9.506  0.5039 -0.2751  2.1309
10584SOL    HW236209   6.262   6.673   9.601  0.4436  1.8459 -0.3851
10585SOL     OW36210   9.810   0.878   0.005  0.4503  0.5198  0.3382
10585SOL    HW136211   9.902   0.898  -0.013  0.6666  1.1657  1.9925
10585SOL    HW236212   9.796   0.906   0.096 -0.7061 -1.8805  0.9962
10586SOL     OW36213   8.642   7.514   4.036  0.4404 -0.2752 -0.2852
10586SOL    HW136214   8.712   7.547   3.979  0.4678 -0.0294 -0.1101
10586SOL    HW236215   8.648   7.419   4.028 -0.3094 -0.2314 -1.6063
10587SOL     OW36216   9.357   7.584   2.889 -0.1158 -0.1137  0.0849
10587SOL    HW136217   9.351   7.596   2.794 -2.5781  0.0840  0.2019
10587SOL    HW236218   9.286   7.637   2.924  0.1732 -0.9149  1.9847
10588SOL     OW36219  10.856   4.583   4.937  0.1526  0.5958  0.1048
10588SOL    HW136220  10.926   4.560   4.997  1.9580 -0.2524 -2.1860
10588SOL    HW236221  10.779   4.538   4.971  1.5291 -1.3712  0.7856
10589SOL     OW36222   3.548   0.678   9.217  0.1594  0.4026 -0.2687
10589SOL    HW136223   3.632   0.652   9.255 -0.5370 -0.0182  1.0400
10589SOL    HW236224   3.550   0.774   9.219  0.3298  0.3901  0.4187
10590SOL     OW36225   0.791   2.838   9.782  0.0301  0.1514  0.0347
10590SOL    HW136226   0.796   2.838   9.687  0.1578  1.4201  0.0204
10590SOL    HW236227   0.698   2.847   9.802 -0.1880 -1.7627  0.0749
10591SOL     OW36228   0.880   1.968  10.833  0.6187  0.3524  0.2532
10591SOL    HW136229   0.845   1.990  10.747  1.6817  1.6141  0.1097
10591SOL    HW236230   0.918   1.881  10.823  0.5870  0.4264 -0.5043
10592SOL     OW36231   9.618   1.423   8.185  0.3756 -1.0671  0.5553
10592SOL    HW136232   9.659   1.368   8.119  1.9443 -0.7392  1.2124
10592SOL    HW236233   9.667   1.505   8.182  2.1667 -1.8422  3.7355
10593SOL     OW36234  10.786   8.224   2.441 -0.1951 -0.5469 -0.6375
10593SOL    HW136235  10.822   8.171   2.370  0.5999 -0.9386  0.0391
10593SOL    HW236236  10.854   8.288   2.459 -0.4360 -0.3879 -0.2899
10594SOL     OW36237   0.157   6.840   2.962  0.0674 -0.1007 -0.3270
10594SOL    HW136238   0.216   6.778   2.919 -0.3890  0.2954 -1.5639
10594SOL    HW236239   0.214   6.912   2.988  0.2904 -0.1660 -0.6252
10595SOL     OW36240   8.678   3.798   4.425  0.0990  0.3223  0.0661
10595SOL    HW136241   8.652   3.861   4.359  1.0952  1.8023  1.0220
10595SOL    HW236242   8.633   3.826   4.505  1.2147  0.3720  0.7031
10596SOL     OW36243  10.717   6.539   1.282 -0.1440 -0.2728  0.5189
10596SOL    HW136244  10.729   6.584   1.366  1.2667  3.3983 -1.4053
10596SOL    HW236245  10.800   6.492   1.269 -0.1709 -0.4496  0.9754
10597SOL     OW36246   6.537   7.585   1.474 -0.0760  0.0720 -0.2361
10597SOL    HW136247   6.473   7.600   1.405 -0.9955 -1.7934  0.1474
10597SOL    HW236248   6.490   7.606   1.555  0.3550  0.3287 -0.0504
10598SOL     OW36249   9.175   9.782   3.660 -0.0414  0.6053 -0.2416
10598SOL    HW136250   9.246   9.722   3.685  0.6188  0.1799 -2.7860
10598SOL    HW236251   9.109   9.771   3.727  1.4345 -0.5755  1.0894
10599SOL     OW36252   4.766   0.338   4.253  0.8100 -0.0632  0.0024
10599SOL    HW136253   4.785   0.334   4.347  0.4909 -1.9695  0.0250
10599SOL    HW236254   4.688   0.393   4.247  2.1730  2.0888  0.5596
10600SOL     OW36255   4.747   0.344   8.211 -0.2114 -0.6411 -0.2146
10600SOL    HW136256   4.678   0.363   8.275  0.1321 -1.8317  0.5453
10600SOL    HW236257   4.701   0.343   8.127 -1.0680 -1.1034  0.2437
10601SOL     OW36258   2.091   3.705  11.042 -0.0601  0.0739 -0.5245
10601SOL    HW136259   2.175   3.747  11.022 -0.6101  0.0607 -3.0867
10601SOL    HW236260   2.044   3.703  10.959 -2.8829  0.6041  0.9328
10602SOL     OW36261   0.719   9.985   8.125  0.1188  0.3312  0.2209
10602SOL    HW136262   0.679   9.972   8.212  0.4244  1.2481  0.5058
10602SOL    HW236263   0.781  10.056   8.138  2.5663 -1.6185 -0.0034
10603SOL     OW36264   0.357   1.646   5.382 -0.7308  0.1094 -0.0986
10603SOL    HW136265   0.324   1.672   5.296  1.9776  0.8179 -1.0423
10603SOL    HW236266   0.421   1.714   5.405  1.0054 -1.7406  0.9302
10604SOL     OW36267   6.341  10.897   1.078  0.3290 -0.4786  0.3474
10604SOL    HW136268   6.411  10.883   1.015 -1.2295  2.2898 -2.3381
10604SOL    HW236269   6.384  10.933   1.155  2.1415 -2.2459  0.2193
10605SOL     OW36270   9.704   3.876   0.994  0.7297  0.4594 -0.5591
10605SOL    HW136271   9.668   3.899   1.080  1.1266  0.9241 -0.5123
10605SOL    HW236272   9.645   3.809   0.960  2.1193 -1.8794  1.2888
10606SOL     OW36273   6.066  10.068   7.673  0.8334 -0.0546  0.0048
10606SOL    HW136274   5.984  10.068   7.723  1.6975  1.0900  1.5016
10606SOL    HW236275   6.098  10.158   7.680  0.6146  0.4207 -3.3770
10607SOL     OW36276   1.682   4.769   3.271 -0.4510 -0.0337 -0.2732
10607SOL    HW136277   1.681   4.804   3.359 -1.6532 -0.1087 -0.2486
10607SOL    HW236278   1.722   4.838   3.217 -0.7034  0.4412  0.1469
10608SOL     OW36279   1.731   7.960   1.090 -0.6366  0.7026 -0.4453
10608SOL    HW136280   1.669   7.996   1.154 -0.3303  1.0841 -0.3634
10608SOL    HW236281   1.693   7.875   1.066 -1.4654  1.1587 -0.7943
10609SOL     OW36282   5.523   0.364   3.964  0.3885  0.3517 -0.2859
10609SOL    HW136283   5.531   0.401   4.052  0.2614 -0.3394  0.0203
10609SOL    HW236284   5.584   0.291   3.963 -1.6461 -1.4754  0.2190
10610SOL     OW36285   1.437   0.727   7.763  0.4141  0.4640 -0.3357
10610SOL    HW136286   1.457   0.653   7.706  0.9877  2.2310 -2.5570
10610SOL    HW236287   1.490   0.799   7.729  1.8614  1.3139  3.3346
10611SOL     OW36288  10.015   9.152   8.936  0.0409  0.1092 -0.1591
10611SOL    HW136289  10.053   9.089   8.997  3.2588  0.0268 -2.0009
10611SOL    HW236290  10.010   9.234   8.985  0.0592 -0.5436  0.9611
10612SOL     OW36291   0.669   9.299   9.222  0.5044 -0.2169  0.2820
10612SOL    HW136292   0.675   9.309   9.127  1.2679 -0.3681  0.3053
10612SOL    HW236293   0.759   9.279   9.250  0.3300  0.0517  1.0639
10613SOL     OW36294   4.813   4.878   2.987 -0.3170 -0.1902 -0.7649
10613SOL    HW136295   4.798   4.967   3.019 -0.6259 -0.9193  1.2407
10613SOL    HW236296   4.737   4.860   2.931 -0.3447  0.7184 -1.0454
10614SOL     OW36297   4.726   9.779   4.587 -0.1827  0.3172 -0.6035
10614SOL    HW136298   4.779   9.800   4.510  2.6210  0.2105  1.1699
10614SOL    HW236299   4.677   9.859   4.606  1.0096  1.1735 -1.0496
10615SOL     OW36300   0.697   4.159   2.772  0.2071 -0.6368 -0.2079
10615SOL    HW136301   0.682   4.066   2.785 -0.4900 -0.4311  0.5761
10615SOL    HW236302   0.701   4.195   2.861 -1.7259  0.4073 -0.4902
10616SOL     OW36303   0.986   5.927   3.474 -0.3656 -0.2427 -0.0445
10616SOL    HW136304   0.919   5.870   3.436 -1.0576  1.1687 -0.9955
10616SOL    HW236305   0.970   6.013   3.435  1.6970  0.2429  0.0652
10617SOL     OW36306   7.780   7.057   9.125  0.4913 -0.0813 -0.1107
10617SOL    HW136307   7.789   7.132   9.066  0.9037  0.4146  0.5570
10617SOL    HW236308   7.698   7.074   9.172  0.4868 -0.1442 -0.0963
10618SOL     OW36309   6.415   9.475   5.657  0.5715 -0.0141 -0.1614
10618SOL    HW136310   6.358   9.414   5.611 -0.9537  0.7604  0.6375
10618SOL    HW236311   6.356   9.533   5.704  2.0465  0.3071  1.4029
10619SOL     OW36312   4.792   4.626   0.113  0.1132 -0.2567 -0.3408
10619SOL    HW136313   4.850   4.697   0.085 -0.2635 -0.8290 -2.8061
10619SOL    HW236314   4.774   4.645   0.205 -1.0127  3.6141 -1.1626
10620SOL     OW36315   3.997   5.471   0.039  0.3020  0.4995 -0.0391
10620SOL    HW136316   3.970   5.539  -0.023 -1.4280  1.1104  1.2821
10620SOL    HW236317   4.047   5.517   0.106 -0.9203  0.5506  0.8884
10621SOL     OW36318   7.225   4.997   2.640  0.7924 -0.2666 -0.5241
10621SOL    HW136319   7.202   4.906   2.619 -0.4780  0.1309 -0.9641
10621SOL    HW236320   7.141   5.037   2.664  1.2392  0.9467 -0.9494
10622SOL     OW36321  10.375   9.627  10.863  0.1936 -0.2137 -0.0051
10622SOL    HW136322  10.338   9.715  10.870  0.8254  0.1193 -0.6791
10622SOL    HW236323  10.353   9.599  10.773  4.2287  1.2855 -1.6691
10623SOL     OW36324   3.645   6.918   3.959  0.0687 -0.2281  0.4064
10623SOL    HW136325   3.628   7.012   3.952 -1.8727 -0.5576 -0.1932
10623SOL    HW236326   3.557   6.879   3.961  0.8321 -2.0830 -0.2735
10624SOL     OW36327   9.243   0.063   1.309  0.4071 -0.2546 -0.4563
10624SOL    HW136328   9.333   0.094   1.317  0.0309  0.9797 -0.7447
10624SOL    HW236329   9.190   0.142   1.317 -0.8695 -1.2807  2.9300
10625SOL     OW36330   7.666  10.695   8.449  0.5615 -0.4943  0.3127
10625SOL    HW136331   7.603  10.628   8.424  1.4165 -1.1669 -0.0651
10625SOL    HW236332   7.745  10.674   8.400  1.0649  0.3805  0.7249
10626SOL     OW36333   8.004   6.592   5.315  0.1419 -0.1709  0.7142
10626SOL    HW136334   8.057   6.578   5.237  0.7258  0.2162  1.0448
10626SOL    HW236335   8.060   6.565   5.388 -0.0979  0.2672  1.0647
10627SOL     OW36336   3.902  10.034   6.510 -0.4748 -0.5756  0.5921
10627SOL    HW136337   3.908  10.099   6.580 -1.9404  1.5360 -1.0736
10627SOL    HW236338   3.812  10.003   6.514 -1.1922  1.0098 -1.4132
10628SOL     OW36339   7.669   4.388   5.544 -0.0445 -0.6014 -0.2108
10628SOL    HW136340   7.707   4.476   5.552 -4.0742  1.7613 -3.2136
10628SOL    HW236341   7.714   4.350   5.469  0.2827 -0.2369 -0.2064
10629SOL     OW36342   9.096   0.424   9.644 -0.0271  0.3706 -0.2680
10629SOL    HW136343   9.091   0.502   9.699 -0.5831  0.2539 -0.1513
10629SOL    HW236344   9.106   0.352   9.706 -0.2193  0.2810 -0.3414
10630SOL     OW36345   6.738   5.177   3.967  0.4216 -0.1932  0.3823
10630SOL    HW136346   6.824   5.175   4.008  0.6417 -0.3967 -0.0734
10630SOL    HW236347   6.690   5.245   4.013  1.6750  1.7350 -1.0234
10631SOL     OW36348   3.190   0.134   9.707 -0.0201  0.3392  0.0365
10631SOL    HW136349   3.196   0.208   9.646 -1.1136 -0.8849 -1.6344
10631SOL    HW236350   3.127   0.163   9.774  0.5825  1.4077  0.1515
10632SOL     OW36351   7.946   7.538   4.033 -0.7624  0.2841 -0.2751
10632SOL    HW136352   7.888   7.540   4.110 -0.7749  1.3197 -0.2993
10632SOL    HW236353   7.997   7.618   4.039 -1.7038  1.0871 -2.0478
10633SOL     OW36354   3.695   3.204   9.010  0.1674  0.0617 -0.1557
10633SOL    HW136355   3.601   3.196   9.025  0.6297  0.3281  3.9656
10633SOL    HW236356   3.721   3.119   8.974 -1.3706 -0.7025  0.4608
10634SOL     OW36357   3.003   1.276   7.123 -0.1689  0.3081 -0.0349
10634SOL    HW136358   2.938   1.216   7.161  0.8723 -1.1520 -0.4756
10634SOL    HW236359   3.066   1.290   7.193 -0.3800  0.8782  0.0484
10635SOL     OW36360   5.548   2.741  10.690 -0.8050  0.2742  0.0303
10635SOL    HW136361   5.459   2.766  10.665 -0.7530 -0.0446 -0.4870
10635SOL    HW236362   5.572   2.671  10.629 -0.4771 -0.1662  0.6585
10636SOL     OW36363   1.136   2.129   2.546  0.6825 -0.5466  0.1223
10636SOL    HW136364   1.169   2.202   2.494 -1.0706  0.5895  0.5229
10636SOL    HW236365   1.044   2.122   2.520  0.4762 -1.7229  1.1145
10637SOL     OW36366   1.904   6.401   4.216 -0.1730 -0.2596  0.2017
10637SOL    HW136367   1.889   6.416   4.310 -0.0533  1.2550  0.0002
10637SOL    HW236368   1.997   6.378   4.210  0.0928  0.7465  0.3485
10638SOL     OW36369   8.084   5.580   3.665 -0.2036  0.2667 -0.2912
10638SOL    HW136370   8.109   5.540   3.582 -1.1432 -1.7615  0.3366
10638SOL    HW236371   8.026   5.652   3.641  0.0719  0.1326 -1.4022
10639SOL     OW36372   6.223   0.774   1.238  0.6963 -0.1628  0.9767
10639SOL    HW136373   6.163   0.702   1.219  1.5213 -1.9071  4.1361
10639SOL    HW236374   6.167   0.850   1.250 -0.1985 -0.0940 -2.5612
10640SOL     OW36375   3.959   5.613   2.324 -0.4979 -0.0188 -0.2122
10640SOL    HW136376   3.973   5.685   2.263  0.2425 -0.0160 -0.0423
10640SOL    HW236377   3.900   5.553   2.278  0.1458 -0.0788 -0.9759
10641SOL     OW36378   6.328   4.562  10.452 -0.3103  0.6569  0.3893
10641SOL    HW136379   6.349   4.511  10.374 -0.6294 -1.5237  1.6376
10641SOL    HW236380   6.237   4.590  10.438 -0.3847  0.2318 -0.0076
10642SOL     OW36381   7.959   8.769   2.074 -0.9230  0.1927  0.4373
10642SOL    HW136382   8.032   8.747   2.131  0.4609  2.5688 -0.2772
10642SOL    HW236383   7.947   8.692   2.019  0.8416 -0.3714  0.7969
10643SOL     OW36384   3.315   9.071   4.216 -0.1892  0.0623  0.6250
10643SOL    HW136385   3.252   9.054   4.285 -2.5472  2.7911 -0.6769
10643SOL    HW236386   3.345   8.984   4.189 -2.2047 -1.2543  2.3441
10644SOL     OW36387   0.977   6.330  10.992  0.1675  0.5303 -0.7656
10644SOL    HW136388   0.977   6.375  11.076  1.4531 -0.0206 -0.4467
10644SOL    HW236389   0.986   6.237  11.014  0.5421  0.3789 -1.4992
10645SOL     OW36390   3.454   9.950   8.495  0.4173 -0.1808 -0.0250
10645SOL    HW136391   3.389   9.960   8.426 -2.0895  0.9428  2.2997
10645SOL    HW236392   3.458   9.856   8.511  0.3517 -0.3674 -1.0761
10646SOL     OW36393   8.259   6.152   5.438  0.2979 -0.3684  0.2602
10646SOL    HW136394   8.339   6.188   5.476 -0.3214  0.2703  0.9918
10646SOL    HW236395   8.252   6.193   5.352 -0.2266  1.0620  0.9548
10647SOL     OW36396   4.298   2.679   5.276 -0.3588 -0.0260 -0.6525
10647SOL    HW136397   4.241   2.748   5.242 -0.4452  0.3393  0.2126
10647SOL    HW236398   4.329   2.633   5.198  0.5971  1.6747 -1.3298
10648SOL     OW36399   2.320   9.924   1.701  0.1208 -0.3351 -0.4858
10648SOL    HW136400   2.307   9.930   1.796  1.2990 -0.4536 -0.3025
10648SOL    HW236401   2.403   9.878   1.691 -0.0712 -0.4698 -1.5900
10649SOL     OW36402   9.699   5.542   1.469 -0.0535 -0.3981  0.2746
10649SOL    HW136403   9.610   5.509   1.482 -0.2845  0.0318 -0.1821
10649SOL    HW236404   9.755   5.465   1.475 -0.6677 -1.0763 -1.7678
10650SOL     OW36405   3.075   1.268   2.547 -0.1799 -0.0842  0.2134
10650SOL    HW136406   3.100   1.299   2.634 -1.0266 -0.5811  0.6512
10650SOL    HW236407   3.004   1.205   2.564 -0.0064 -0.5701 -0.7996
10651SOL     OW36408   9.013   6.679   0.814 -0.6399 -0.5598 -0.2468
10651SOL    HW136409   8.944   6.684   0.881  1.2393  0.2740  1.7438
10651SOL    HW236410   9.014   6.766   0.774  1.5485  0.7406  2.2944
10652SOL     OW36411   6.225   9.828   9.790 -0.0949 -0.1941  0.5754
10652SOL    HW136412   6.164   9.893   9.754 -0.0968  0.1467  1.1690
10652SOL    HW236413   6.310   9.852   9.753 -0.0763  0.2201  0.8770
10653SOL     OW36414  10.945   0.845   5.521  0.1147 -0.3792  1.0169
10653SOL    HW136415  10.905   0.821   5.605 -1.1859  0.2161  0.5971
10653SOL    HW236416  10.987   0.764   5.491 -1.3461 -1.2467  1.1907
10654SOL     OW36417   2.571   8.035   2.366  0.8204  0.6511 -0.3430
10654SOL    HW136418   2.580   7.948   2.328 -0.5664  1.0612 -1.7291
10654SOL    HW236419   2.651   8.080   2.341  1.9321 -0.4387  1.0997
10655SOL     OW36420   9.043   0.791   0.020  0.0650  0.3894 -0.5120
10655SOL    HW136421   9.074   0.770   0.108 -1.3685  1.4094  0.2728
10655SOL    HW236422   8.957   0.831   0.034  0.5018  2.0694 -2.2517
10656SOL     OW36423   7.061  10.411   2.960  0.1226  0.0233 -0.6780
10656SOL    HW136424   7.001  10.419   2.886 -0.8356  0.4391  0.1126
10656SOL    HW236425   7.025  10.471   3.025  2.1600  1.3150 -0.6645
10657SOL     OW36426   6.593   1.235   4.892 -0.3166 -0.3528  0.6778
10657SOL    HW136427   6.570   1.168   4.828 -0.3183  0.0728  0.2349
10657SOL    HW236428   6.662   1.195   4.945  0.6659 -0.2011 -0.4629
10658SOL     OW36429   5.782   5.363   7.740  0.0991  0.2021  0.1452
10658SOL    HW136430   5.742   5.355   7.826  0.9294  1.4974  0.6853
10658SOL    HW236431   5.865   5.316   7.748  0.4188  0.7632  0.2423
10659SOL     OW36432   9.726   7.860   4.602  0.1414  0.2303 -0.5165
10659SOL    HW136433   9.660   7.912   4.556  0.7001  1.3548 -0.0736
10659SOL    HW236434   9.776   7.923   4.652  3.6429 -0.0349 -3.2627
10660SOL     OW36435   0.345   4.674   0.566 -0.4006 -0.1784  0.3029
10660SOL    HW136436   0.384   4.740   0.623  0.1308  0.1714 -0.4357
10660SOL    HW236437   0.251   4.689   0.572 -0.3352  0.0438  0.8467
10661SOL     OW36438   1.436   5.948   2.574 -0.0271  0.1321  0.0136
10661SOL    HW136439   1.424   6.036   2.610 -0.7976  0.5757 -1.2247
10661SOL    HW236440   1.462   5.963   2.483  0.4532 -0.9329 -0.0436
10662SOL     OW36441   8.803   1.820   4.495  0.1514  0.2410 -0.3030
10662SOL    HW136442   8.874   1.851   4.551  1.3499  0.3691 -1.8093
10662SOL    HW236443   8.767   1.899   4.455  0.3634  0.0429 -0.8988
10663SOL     OW36444   3.864   8.780   1.087  0.5502  0.4285  0.1583
10663SOL    HW136445   3.870   8.753   1.179  1.4596 -1.0188 -0.2832
10663SOL    HW236446   3.817   8.709   1.044 -0.4634  1.4109 -0.3999
10664SOL     OW36447   7.451   4.285  10.634 -0.2026  0.0873  0.4305
10664SOL    HW136448   7.506   4.228  10.580  0.6728  1.2118  0.0923
10664SOL    HW236449   7.445   4.240  10.719 -0.9299 -1.3057 -0.3229
10665SOL     OW36450   1.427  10.370   4.504 -0.1397  0.3955 -0.7442
10665SOL    HW136451   1.453  10.392   4.593 -2.2484 -1.2323  0.3742
10665SOL    HW236452   1.479  10.292   4.482 -0.0464  0.4427 -0.6872
10666SOL     OW36453   8.841   8.359   8.349  0.7877 -1.2375  0.0626
10666SOL    HW136454   8.845   8.392   8.259  0.5749 -0.0225  0.4836
10666SOL    HW236455   8.932   8.361   8.378  0.9819 -2.4704 -0.3977
10667SOL     OW36456   4.252  11.034   4.367 -0.0447  0.3328  0.4541
10667SOL    HW136457   4.249  11.028   4.463 -0.4969  2.5089  0.6404
10667SOL    HW236458   4.167  11.071   4.343 -1.2810 -3.1515 -1.1828
10668SOL     OW36459   1.015   1.763   5.221 -0.3929 -0.3608 -0.3759
10668SOL    HW136460   1.100   1.744   5.262  0.7923  1.9415 -1.5902
10668SOL    HW236461   0.967   1.813   5.287  0.0870  0.2292 -0.4644
10669SOL     OW36462   1.087   7.700  10.905 -1.0585 -0.4057  0.3442
10669SOL    HW136463   1.066   7.606  10.901 -2.3783 -0.1449  0.5529
10669SOL    HW236464   1.182   7.704  10.897 -1.1237 -1.6236 -2.0477
10670SOL     OW36465   8.510   5.580  10.849  0.4370  0.3327 -0.6385
10670SOL    HW136466   8.516   5.485  10.836 -0.8900  0.2075 -0.5005
10670SOL    HW236467   8.531   5.592  10.941 -3.2989 -0.3554  0.4777
10671SOL     OW36468   5.771   5.014   4.469  0.2786  0.1451 -0.4061
10671SOL    HW136469   5.706   4.962   4.422  1.5894 -1.7766 -0.1661
10671SOL    HW236470   5.818   4.952   4.524  0.9437  1.8227  1.0428
10672SOL     OW36471  10.329   4.604  10.329 -0.2581  0.1205 -0.2159
10672SOL    HW136472  10.413   4.587  10.372 -0.3430 -2.2392 -0.8217
10672SOL    HW236473  10.264   4.562  10.386 -0.9691  1.3465 -0.0943
10673SOL     OW36474   0.807   5.270   1.266  0.3485  0.4506  0.1900
10673SOL    HW136475   0.868   5.237   1.332 -0.1769 -0.5423  0.1920
10673SOL    HW236476   0.732   5.210   1.270  0.0162  0.7761 -0.8440
10674SOL     OW36477   7.682   6.216   2.660 -0.4140 -0.7402 -0.2371
10674SOL    HW136478   7.639   6.131   2.672 -0.1759 -0.5574  2.8809
10674SOL    HW236479   7.614   6.273   2.627 -1.4409 -1.4455  0.5921
10675SOL     OW36480   7.660   6.584   5.259 -0.5307  0.8646 -0.4195
10675SOL    HW136481   7.722   6.571   5.187  1.5892  0.7675  1.3434
10675SOL    HW236482   7.712   6.623   5.329 -2.1918 -0.3056  1.5615
10676SOL     OW36483   2.313   5.616   0.982 -0.7224 -0.0987 -0.1614
10676SOL    HW136484   2.366   5.600   1.060  0.3176  1.3884 -0.5171
10676SOL    HW236485   2.245   5.678   1.011 -0.1102  0.7506 -0.4844
10677SOL     OW36486   3.094   6.368   2.554 -0.4674  0.4763 -0.2405
10677SOL    HW136487   3.131   6.304   2.493 -0.0777  0.3755  0.1010
10677SOL    HW236488   3.016   6.324   2.589 -0.4161  0.3409 -0.2939
10678SOL     OW36489  10.373   7.871   2.884  0.0065  0.5024 -0.0096
10678SOL    HW136490  10.372   7.950   2.937  2.8219  0.5049  0.2141
10678SOL    HW236491  10.368   7.903   2.794 -1.5660  0.7018  0.1173
10679SOL     OW36492   8.843  10.074   1.472 -0.6529 -0.1132 -0.1687
10679SOL    HW136493   8.855  10.003   1.535 -0.1341  1.1372  1.2015
10679SOL    HW236494   8.917  10.066   1.412  1.0937  0.9855  1.7275
10680SOL     OW36495   6.698   1.181   9.990 -0.3323 -0.3239 -0.7551
10680SOL    HW136496   6.692   1.246  10.059 -1.2166  0.8511 -1.8860
10680SOL    HW236497   6.791   1.181   9.966 -0.4602  1.2518 -1.3729
10681SOL     OW36498   3.759   8.744   5.956  0.0397  0.1106  0.4671
10681SOL    HW136499   3.849   8.725   5.928 -0.1671 -2.0478  1.0450
10681SOL    HW236500   3.705   8.686   5.901 -0.7120 -0.9468  2.2180
10682SOL     OW36501   6.197   9.023   2.996  0.3338  0.3331  0.5009
10682SOL    HW136502   6.201   9.023   2.901  1.2546  0.3234  0.5276
10682SOL    HW236503   6.282   8.989   3.024  0.7853  2.0381  1.3387
10683SOL     OW36504   9.614   0.867   7.510 -0.2560 -0.4495 -0.6947
10683SOL    HW136505   9.592   0.874   7.417  0.6097  4.1594 -0.7830
10683SOL    HW236506   9.707   0.891   7.515 -0.2047 -0.8738  1.3495
10684SOL     OW36507   7.171   6.122   0.641 -0.2839  0.0768 -0.4566
10684SOL    HW136508   7.104   6.095   0.577 -0.9030 -1.9032  0.9445
10684SOL    HW236509   7.129   6.112   0.726  0.9651  1.3644  0.3565
10685SOL     OW36510   0.857   7.334   5.771  0.2129 -0.2261  0.0175
10685SOL    HW136511   0.906   7.271   5.824 -0.1949 -1.3072 -0.8523
10685SOL    HW236512   0.921   7.400   5.746  0.9959 -1.0647 -0.2418
10686SOL     OW36513  10.147   8.178   4.606  0.0213  0.3133 -0.5119
10686SOL    HW136514  10.062   8.213   4.581 -1.2724 -1.7761  0.7180
10686SOL    HW236515  10.185   8.246   4.662 -1.9413  0.2568  0.9748
10687SOL     OW36516   7.852   9.956   8.082 -0.3403  0.1365  0.0550
10687SOL    HW136517   7.915  10.022   8.112 -0.3863  0.2322 -0.0596
10687SOL    HW236518   7.888   9.873   8.113 -0.0746  0.1752 -0.1458
10688SOL     OW36519   7.549  10.540   1.663 -0.0754  0.5839 -0.3703
10688SOL    HW136520   7.586  10.591   1.735  1.2708 -0.8079 -0.0028
10688SOL    HW236521   7.457  10.527   1.687  0.4089 -0.0690  1.2707
10689SOL     OW36522  10.062   3.852   7.667  0.0555 -0.0686  0.1489
10689SOL    HW136523  10.119   3.839   7.592  0.5610  3.1634 -0.1759
10689SOL    HW236524  10.122   3.874   7.739 -0.5892 -0.5521  0.8573
10690SOL     OW36525   1.591  10.222   5.444  0.5266 -0.0262  0.0271
10690SOL    HW136526   1.524  10.290   5.450  1.1594  0.5786  0.4559
10690SOL    HW236527   1.550  10.153   5.393 -0.4854  0.2477  0.4348
10691SOL     OW36528   1.970   2.900   4.250  0.0332  0.2243  0.6629
10691SOL    HW136529   1.935   2.982   4.214 -0.9580 -1.5204 -2.7255
10691SOL    HW236530   2.063   2.902   4.226  0.1409  0.5921  1.0969
10692SOL     OW36531   1.707   9.552   2.044  0.0526  0.0587  0.4048
10692SOL    HW136532   1.771   9.491   2.081 -1.7145 -2.2461 -0.1443
10692SOL    HW236533   1.632   9.547   2.103 -1.5663 -1.2502 -1.6030
10693SOL     OW36534   4.863   3.400   5.548  0.7470 -0.3946  0.2204
10693SOL    HW136535   4.936   3.359   5.594  0.1301 -0.1691  1.4429
10693SOL    HW236536   4.798   3.331   5.538  0.3896 -0.1480  0.7852
10694SOL     OW36537   4.576   2.226   5.545  0.8550 -0.1927 -0.3921
10694SOL    HW136538   4.623   2.195   5.623  0.7508  2.7951  0.9828
10694SOL    HW236539   4.638   2.281   5.499 -0.5540  2.1594  0.3569
10695SOL     OW36540   5.160   0.308   8.434  0.4186 -0.0097  0.3187
10695SOL    HW136541   5.072   0.276   8.453 -0.4114  0.7383 -1.9869
10695SOL    HW236542   5.157   0.401   8.459  0.8375 -0.1675  0.9930
10696SOL     OW36543   9.101   3.443   6.935  0.8113  0.0613 -0.4344
10696SOL    HW136544   9.057   3.528   6.934  2.6433  1.0836 -1.8041
10696SOL    HW236545   9.161   3.447   6.860  0.8445 -2.5137 -0.6297
10697SOL     OW36546  10.297   9.467   2.465 -0.4407  0.0785 -0.4895
10697SOL    HW136547  10.322   9.518   2.388 -1.2159 -0.3711 -1.0594
10697SOL    HW236548  10.299   9.530   2.537 -1.2070  0.8763 -1.1452
10698SOL     OW36549   5.050   6.772   9.338  0.2370  0.7314 -0.7880
10698SOL    HW136550   5.023   6.680   9.348 -0.7937  1.0631 -0.3499
10698SOL    HW236551   5.096   6.774   9.254  2.1409 -0.5935  0.1600
10699SOL     OW36552   9.698   4.087   6.298  0.3400 -0.1564  0.2498
10699SOL    HW136553   9.684   4.154   6.231  1.5755 -0.1529 -0.0114
10699SOL    HW236554   9.716   4.007   6.250  1.0066 -0.2043  0.5769
10700SOL     OW36555   2.927  10.330   3.153 -0.7616 -0.3830 -0.1633
10700SOL    HW136556   2.862  10.263   3.129 -0.3862  0.0704 -2.8259
10700SOL    HW236557   2.976  10.344   3.072  0.5033  1.6585  0.8962
10701SOL     OW36558   8.239   3.621   4.266  0.4857 -0.0981 -0.2207
10701SOL    HW136559   8.190   3.702   4.281 -0.0909 -0.7979  1.9377
10701SOL    HW236560   8.177   3.551   4.286  1.1246 -1.1078 -1.5865
10702SOL     OW36561   2.394   9.883   3.646 -0.1465 -0.1428 -0.1935
10702SOL    HW136562   2.393   9.954   3.581 -1.0925 -0.2008 -0.2574
10702SOL    HW236563   2.418   9.805   3.595  1.6904  0.2380  0.0215
10703SOL     OW36564   0.097   2.286   2.841 -0.4015 -0.0580 -0.0523
10703SOL    HW136565   0.080   2.253   2.930  0.4774  0.6138  0.3811
10703SOL    HW236566   0.137   2.212   2.796 -0.4634 -0.2720  0.2373
10704SOL     OW36567   0.060   7.044   8.110 -0.1533  0.2007  0.2229
10704SOL    HW136568   0.056   6.954   8.077  0.2537 -0.3234  1.5499
10704SOL    HW236569   0.109   7.091   8.043  0.7864 -0.8668  0.1317
10705SOL     OW36570   1.481   2.056   1.950 -0.0023  0.1299  0.0599
10705SOL    HW136571   1.498   2.107   2.029 -2.0791 -3.4044  3.1228
10705SOL    HW236572   1.394   2.085   1.921 -0.5896 -0.6491  0.9877
10706SOL     OW36573   9.107   5.818   9.373  0.9673  0.0524  0.2098
10706SOL    HW136574   9.081   5.887   9.434  0.0419  0.1338 -0.2560
10706SOL    HW236575   9.164   5.760   9.424 -1.3804 -1.0037  1.7632
10707SOL     OW36576   3.264   9.469   0.836  0.1808  0.3681  0.0542
10707SOL    HW136577   3.264   9.548   0.890 -0.2643  0.5351 -0.1840
10707SOL    HW236578   3.297   9.498   0.751 -0.9359  0.5191 -0.3385
10708SOL     OW36579   8.801   5.814   2.323 -0.1045 -0.4505 -0.3097
10708SOL    HW136580   8.877   5.871   2.328  1.1315 -1.9979 -0.4370
10708SOL    HW236581   8.782   5.807   2.230 -1.1618  0.8504 -0.2116
10709SOL     OW36582   5.614   7.844   4.678  0.0932  0.5989 -0.2536
10709SOL    HW136583   5.657   7.765   4.711  0.8669  1.6009  1.3094
10709SOL    HW236584   5.660   7.916   4.723 -2.7988  1.7813  1.0703
10710SOL     OW36585   9.837   5.159   5.031 -0.3491  0.1448  0.3353
10710SOL    HW136586   9.781   5.208   4.970 -0.4216  0.0312  0.3109
10710SOL    HW236587   9.901   5.115   4.974  0.3972  1.0842  0.4295
10711SOL     OW36588   0.966   4.652   9.339  0.0669  0.4581 -0.4207
10711SOL    HW136589   1.000   4.634   9.426 -0.0061  1.7903 -0.1089
10711SOL    HW236590   1.038   4.630   9.280  0.1932 -0.2259 -0.0295
10712SOL     OW36591   3.513   4.010   9.861  0.3172  0.0055  0.4700
10712SOL    HW136592   3.453   3.937   9.844 -0.0379  0.6113 -1.0772
10712SOL    HW236593   3.594   3.968   9.890 -0.1547 -0.9552  0.4600
10713SOL     OW36594   5.279   6.603   7.422  0.4094  0.1789  0.9114
10713SOL    HW136595   5.299   6.657   7.345  2.1896 -1.7511 -0.0898
10713SOL    HW236596   5.205   6.548   7.394 -0.3546  0.9574  1.3668
10714SOL     OW36597   7.574   4.253   9.216  0.3200  0.8376  0.4558
10714SOL    HW136598   7.626   4.241   9.136 -0.1194 -0.8147  0.3869
10714SOL    HW236599   7.555   4.347   9.218  1.4470  1.1148 -0.6823
10715SOL     OW36600   0.107   1.175  10.814  0.3330  0.1722 -0.8997
10715SOL    HW136601   0.019   1.143  10.797  0.2537  0.0954 -0.3582
10715SOL    HW236602   0.150   1.103  10.861  0.4213  0.5210 -0.4373
10716SOL     OW36603   8.062  10.911  10.864  0.0443  0.0438  0.7326
10716SOL    HW136604   7.973  10.876  10.870  0.6527 -1.9774 -1.0673
10716SOL    HW236605   8.080  10.913  10.770  2.0369  0.0978  1.0901
10717SOL     OW36606   8.361   0.383  10.930  0.1888  0.2444 -0.2377
10717SOL    HW136607   8.384   0.395  11.022 -0.1578  2.1756 -0.3555
10717SOL    HW236608   8.404   0.456  10.885 -0.4298 -0.1252 -1.4742
10718SOL     OW36609   6.987   0.179   2.693  0.3260  0.1433 -0.4488
10718SOL    HW136610   7.064   0.141   2.651  0.0500 -1.2394  0.2288
10718SOL    HW236611   7.017   0.206   2.780  0.5122  1.4878 -0.9181
10719SOL     OW36612   0.707   2.510   0.653 -0.1770 -0.7112 -0.0308
10719SOL    HW136613   0.704   2.555   0.738  0.3605  0.0877 -0.4182
10719SOL    HW236614   0.771   2.560   0.602 -0.3542 -1.2959 -0.8453
10720SOL     OW36615   1.444   1.519   3.863  0.0161  0.2842 -0.1426
10720SOL    HW136616   1.537   1.543   3.861  0.1267 -0.1203 -0.0286
10720SOL    HW236617   1.442   1.436   3.911 -0.2741 -0.2877 -1.1239
10721SOL     OW36618  10.098   6.407   9.746  0.4580  0.2399 -0.2820
10721SOL    HW136619  10.163   6.469   9.714 -1.1592  2.1969  0.0546
10721SOL    HW236620  10.037   6.460   9.798 -0.4356 -1.8058  0.8846
10722SOL     OW36621   0.256   3.203   6.571  0.1031  0.4013  0.4669
10722SOL    HW136622   0.200   3.137   6.530  0.2973  0.2676  0.4199
10722SOL    HW236623   0.246   3.187   6.665  1.0403 -0.4272  0.4309
10723SOL     OW36624   1.473   6.619   3.286  0.0659 -0.4326  0.4494
10723SOL    HW136625   1.419   6.626   3.208 -0.0678 -0.5455  0.5311
10723SOL    HW236626   1.551   6.572   3.257  0.3764  0.2133  0.2034
10724SOL     OW36627   6.559   5.663   0.673  0.1768  0.2344  0.3296
10724SOL    HW136628   6.464   5.663   0.669 -0.0087 -1.9108  2.5801
10724SOL    HW236629   6.585   5.588   0.620  0.5125 -0.1217  0.9925
10725SOL     OW36630   4.995   2.042   6.712  0.3612 -0.1688 -0.2531
10725SOL    HW136631   5.071   1.985   6.706 -0.3494 -1.4103  1.6318
10725SOL    HW236632   4.923   1.984   6.737 -0.9174  1.1952 -0.6021
10726SOL     OW36633   2.800   5.430   9.727 -0.9976 -0.8007 -0.7344
10726SOL    HW136634   2.812   5.365   9.657 -2.6039 -2.3943  0.3900
10726SOL    HW236635   2.707   5.454   9.722 -0.7198  0.4840 -0.2985
10727SOL     OW36636   0.387   2.050   2.000  0.0588 -0.2897 -0.4289
10727SOL    HW136637   0.432   2.116   1.949 -0.0770 -0.6103 -0.9653
10727SOL    HW236638   0.434   1.969   1.982  0.2345 -0.3403  0.2373
10728SOL     OW36639   4.213   3.435   7.672 -0.6411 -0.2136  0.3765
10728SOL    HW136640   4.293   3.395   7.636 -0.6038 -0.0529  0.2794
10728SOL    HW236641   4.147   3.421   7.605 -0.4108  0.6656 -0.0526
10729SOL     OW36642  10.288   1.520   3.523  0.0484  0.0501  0.0095
10729SOL    HW136643  10.228   1.560   3.585 -0.9826  0.4231 -1.1967
10729SOL    HW236644  10.249   1.536   3.437  1.3546 -0.5868 -0.7383
10730SOL     OW36645   6.379   1.949  10.734  0.5434  0.5641  0.3648
10730SOL    HW136646   6.428   1.874  10.701 -0.9714  0.2109 -1.2180
10730SOL    HW236647   6.414   2.025  10.686  0.4491  0.5128  0.2151
10731SOL     OW36648   0.313   0.863   8.596 -0.6223 -0.2391  0.4097
10731SOL    HW136649   0.309   0.953   8.563 -0.4251  0.4503  2.1480
10731SOL    HW236650   0.221   0.838   8.608 -0.6708 -0.1054  0.3261
10732SOL     OW36651   4.982   2.176   6.025 -0.0973 -0.5745 -0.0323
10732SOL    HW136652   5.000   2.262   5.988 -1.0930  1.0142  2.8922
10732SOL    HW236653   4.890   2.159   6.003 -0.2042 -0.3976  0.2719
10733SOL     OW36654   2.991   0.764   6.423  0.0015  0.0735 -0.2476
10733SOL    HW136655   2.920   0.761   6.487 -1.0075  0.8029 -1.2890
10733SOL    HW236656   3.006   0.857   6.408  0.0704 -0.0842 -1.2170
10734SOL     OW36657   3.534   9.853   2.028  0.2510 -0.4701 -0.3254
10734SOL    HW136658   3.477   9.778   2.008 -1.9157  0.1958  2.6720
10734SOL    HW236659   3.595   9.820   2.093 -2.3410  0.7254  3.0102
10735SOL     OW36660   0.160   9.325   5.457  0.7633 -0.0430  0.2776
10735SOL    HW136661   0.156   9.235   5.425 -0.9154 -0.4322  1.4823
10735SOL    HW236662   0.148   9.317   5.551 -0.9428  1.5335  0.2376
10736SOL     OW36663   5.055   2.909   0.370 -0.0932  0.3133  0.1017
10736SOL    HW136664   5.037   2.899   0.464  1.4360  1.7761  0.5912
10736SOL    HW236665   5.067   3.003   0.358  2.5301 -0.0892 -0.9949
10737SOL     OW36666   4.559   0.560   9.650 -0.1955  0.6533  0.1806
10737SOL    HW136667   4.503   0.624   9.607 -0.4507  1.1850  1.2847
10737SOL    HW236668   4.648   0.589   9.629 -0.2906 -0.0034 -1.2931
10738SOL     OW36669   3.692   4.869   5.634  0.3464  0.3677  0.2665
10738SOL    HW136670   3.602   4.837   5.628  0.3484  0.3302  0.4396
10738SOL    HW236671   3.734   4.837   5.554  0.4453 -0.3748  0.6036
10739SOL     OW36672   0.792  10.458   8.900 -0.2344 -0.0731 -0.1861
10739SOL    HW136673   0.801  10.371   8.862 -2.2741 -0.2187 -0.4538
10739SOL    HW236674   0.731  10.447   8.972 -0.2106  1.0604  0.0254
10740SOL     OW36675   7.806   2.639   7.577  0.0248  0.1741  0.2897
10740SOL    HW136676   7.820   2.566   7.517  3.2526  0.7738  0.1510
10740SOL    HW236677   7.824   2.602   7.664  0.5171  0.5197  0.3365
10741SOL     OW36678   3.568   3.204   5.523 -0.1031  0.2352 -0.7105
10741SOL    HW136679   3.529   3.281   5.480 -0.2346  0.8420  0.4457
10741SOL    HW236680   3.608   3.239   5.602  1.2791 -0.6623 -0.9826
10742SOL     OW36681   5.931   3.059   4.043 -0.1415  0.2121 -0.4298
10742SOL    HW136682   5.927   3.134   4.102 -3.9986  0.7046 -1.0266
10742SOL    HW236683   5.980   2.993   4.090  1.0175  2.1643  1.2585
10743SOL     OW36684   6.861   9.071   1.538 -0.1324 -0.3363 -0.1647
10743SOL    HW136685   6.938   9.124   1.558  0.0857 -0.0186 -1.6959
10743SOL    HW236686   6.894   8.981   1.536  0.3592 -0.1436 -1.4414
10744SOL     OW36687   6.264   9.910   1.277  0.7456 -0.6107 -0.0806
10744SOL    HW136688   6.178   9.908   1.319  0.6410 -0.3664 -0.2794
10744SOL    HW236689   6.292  10.002   1.284  0.8410 -0.6209 -0.3145
10745SOL     OW36690   0.183   0.242   7.505 -0.0020  0.4725  0.4508
10745SOL    HW136691   0.205   0.180   7.435 -0.3410 -1.1509  1.7228
10745SOL    HW236692   0.222   0.203   7.583 -0.5241  1.7164  1.3483
10746SOL     OW36693   6.476   3.694   8.966  0.7567 -0.3511  0.1290
10746SOL    HW136694   6.448   3.684   9.057  1.8428  1.1882  0.6776
10746SOL    HW236695   6.483   3.604   8.933 -1.5952 -0.8925  0.9042
10747SOL     OW36696   7.746   2.429   6.072 -0.1153  0.1515 -0.4066
10747SOL    HW136697   7.734   2.524   6.068 -1.2677 -0.0096 -1.8773
10747SOL    HW236698   7.724   2.399   5.983 -1.4944 -1.6648  0.4813
10748SOL     OW36699   2.260   1.472   4.060 -0.2462  0.3024  0.0266
10748SOL    HW136700   2.174   1.430   4.073 -0.4695  0.3164 -1.2255
10748SOL    HW236701   2.252   1.557   4.103  0.2792 -0.9280  2.8040
10749SOL     OW36702  10.457   1.698   7.074  0.4206  0.5421  0.0852
10749SOL    HW136703  10.546   1.712   7.041  0.2839  0.1350 -0.4694
10749SOL    HW236704  10.469   1.653   7.158  0.7054 -1.1464 -0.8267
10750SOL     OW36705   1.464   1.247  10.170  0.0943  0.3765  0.0501
10750SOL    HW136706   1.497   1.287  10.251 -2.4719  0.3609  1.2116
10750SOL    HW236707   1.470   1.153  10.185 -1.1333  0.3665  0.6173
10751SOL     OW36708   9.737   2.014   2.383  0.1137 -0.0643 -0.2598
10751SOL    HW136709   9.726   2.090   2.440  2.2208 -0.1857  0.3811
10751SOL    HW236710   9.650   1.974   2.379 -0.2311  0.2432  2.4412
10752SOL     OW36711   9.077   3.902  10.603 -0.0065  0.3525 -0.2341
10752SOL    HW136712   9.094   3.931  10.692  1.8077 -1.3731  0.0533
10752SOL    HW236713   9.154   3.928  10.553  1.1552 -2.6622 -0.2152
10753SOL     OW36714   3.537   5.219   7.446  0.5523  1.1195  0.2653
10753SOL    HW136715   3.592   5.268   7.385  1.3984 -2.0488 -1.6918
10753SOL    HW236716   3.448   5.249   7.427  1.0129  1.7776 -0.9560
10754SOL     OW36717   0.476   5.100   0.088  0.5973 -0.3210 -0.4383
10754SOL    HW136718   0.424   5.144   0.156 -1.0224  1.1204 -2.4949
10754SOL    HW236719   0.414   5.043   0.043  0.6910  1.4453 -2.9555
10755SOL     OW36720   7.351   7.925   9.390 -0.1855  0.1833  0.4001
10755SOL    HW136721   7.406   7.868   9.444 -0.8515  0.3456  1.2726
10755SOL    HW236722   7.304   7.866   9.332  0.7244  0.0263 -0.2158
10756SOL     OW36723   9.900   7.581  10.526  0.3529 -0.2703  0.3152
10756SOL    HW136724   9.934   7.589  10.436 -0.1351 -1.1444  0.0513
10756SOL    HW236725   9.885   7.488  10.538  0.9135 -0.2207  1.5024
10757SOL     OW36726  10.274   1.700   6.440  0.0833 -0.6202  0.2617
10757SOL    HW136727  10.185   1.668   6.429 -0.6425  1.3549  0.0401
10757SOL    HW236728  10.291   1.695   6.534 -0.1455 -1.2664  0.2698
10758SOL     OW36729   5.114  10.843   8.323 -0.1544  0.3191  0.3502
10758SOL    HW136730   5.178  10.892   8.376  1.0925  0.6849 -1.4208
10758SOL    HW236731   5.167  10.778   8.276 -1.2032  0.0746 -0.5254
10759SOL     OW36732  10.174   9.203   0.290  0.5071 -0.2843  0.2315
10759SOL    HW136733  10.237   9.169   0.227 -0.3787 -0.4483 -0.5833
10759SOL    HW236734  10.172   9.297   0.274  1.2639 -0.1286  0.9409
10760SOL     OW36735   8.558   4.622   4.490 -0.0405 -0.1134 -0.0056
10760SOL    HW136736   8.484   4.682   4.482 -0.1719 -0.3891 -0.9402
10760SOL    HW236737   8.633   4.679   4.511 -0.2929  0.2923 -0.1984
10761SOL     OW36738   9.889   2.154   6.505 -0.6493 -0.3513 -0.4337
10761SOL    HW136739   9.944   2.081   6.476 -1.0977 -1.0623  0.4347
10761SOL    HW236740   9.861   2.129   6.593 -1.2387  0.6382 -0.3265
10762SOL     OW36741   2.109   5.546   9.589  0.4618  0.4610 -0.2854
10762SOL    HW136742   2.099   5.535   9.494  3.4603  0.6206 -0.7254
10762SOL    HW236743   2.128   5.639   9.600 -0.0611  0.4859  0.5239
10763SOL     OW36744   5.411   1.880   7.359 -0.4353 -0.0552 -0.1864
10763SOL    HW136745   5.440   1.899   7.270  2.1891 -0.7227  0.4257
10763SOL    HW236746   5.363   1.958   7.387  1.4214  1.4831 -1.1227
10764SOL     OW36747  10.817   1.588   4.968  0.2668 -0.3453 -0.2875
10764SOL    HW136748  10.885   1.554   4.910  1.1106  0.5006  0.1910
10764SOL    HW236749  10.860   1.656   5.018 -0.3813 -1.2166  1.5324
10765SOL     OW36750   8.232   1.741   5.881  0.2631 -0.6631  0.1961
10765SOL    HW136751   8.159   1.683   5.902 -0.4393  0.0918 -0.1176
10765SOL    HW236752   8.199   1.796   5.811  1.0643 -0.1546  0.2113
10766SOL     OW36753   3.985   5.703  10.980  0.2952 -0.0743  0.0346
10766SOL    HW136754   4.075   5.690  10.950  1.0966  0.4969  1.9880
10766SOL    HW236755   3.966   5.795  10.960  0.2756 -0.0948 -0.0411
10767SOL     OW36756   1.516   6.377   4.601  0.0911 -0.2433  0.3348
10767SOL    HW136757   1.498   6.446   4.665  1.1493  0.7233 -0.3552
10767SOL    HW236758   1.525   6.297   4.653  1.7740  0.6541  1.5417
10768SOL     OW36759   2.838   1.155   1.065  0.6853  0.4762 -0.1412
10768SOL    HW136760   2.931   1.177   1.061  0.5678  0.7895 -1.7947
10768SOL    HW236761   2.802   1.214   1.132  1.6465  0.4140  0.4424
10769SOL     OW36762   7.008   2.412   8.508 -0.1482  0.3617  0.2843
10769SOL    HW136763   7.046   2.493   8.473  0.2595  0.2031  0.3464
10769SOL    HW236764   6.936   2.441   8.564 -1.2800  0.5837 -1.2333
10770SOL     OW36765   3.563   3.740   6.047  0.1124  0.1413  0.4703
10770SOL    HW136766   3.539   3.729   6.139  0.0718 -0.4881  0.3857
10770SOL    HW236767   3.590   3.832   6.040 -0.6386  0.4031  0.9358
10771SOL     OW36768   7.552   0.727  10.841 -0.0022 -0.1671  0.0732
10771SOL    HW136769   7.640   0.732  10.803 -0.1374 -0.3676 -0.2659
10771SOL    HW236770   7.518   0.816  10.834  0.0080 -0.1824 -0.1919
10772SOL     OW36771   3.768   9.808   9.376 -0.0494  0.0169  0.6297
10772SOL    HW136772   3.770   9.898   9.344  0.5008 -0.3297 -0.3400
10772SOL    HW236773   3.679   9.796   9.408 -0.1371  0.8960  0.7617
10773SOL     OW36774  10.176  10.281   5.245  0.0454  0.4892 -0.1693
10773SOL    HW136775  10.154  10.373   5.232  0.8851  0.6607 -0.4784
10773SOL    HW236776  10.119  10.234   5.184  1.9601  1.0881 -2.5993
10774SOL     OW36777   7.380   8.138   2.008  0.3091  0.0068 -0.1882
10774SOL    HW136778   7.432   8.074   2.056  0.6940  0.6713  0.2973
10774SOL    HW236779   7.377   8.215   2.065  0.4695  0.6792 -1.0542
10775SOL     OW36780  10.860   2.002   7.663  0.2442 -0.2484  0.6283
10775SOL    HW136781  10.895   2.082   7.702 -0.8926  1.5256 -1.7243
10775SOL    HW236782  10.895   2.001   7.574 -0.8500 -1.6488  0.1712
10776SOL     OW36783   3.347   7.772   6.156  0.2012 -0.0073 -0.2760
10776SOL    HW136784   3.357   7.691   6.107 -3.1941  0.6949 -2.4943
10776SOL    HW236785   3.257   7.799   6.139 -0.0014  2.3284  3.4331
10777SOL     OW36786   0.823   6.254   8.083  0.2708  0.0962  0.3868
10777SOL    HW136787   0.841   6.193   8.012  1.6775 -1.0258  1.6368
10777SOL    HW236788   0.900   6.249   8.139  0.0615  2.4232  0.9908
10778SOL     OW36789  11.043   4.091   8.870 -0.3496  0.3679  0.2160
10778SOL    HW136790  11.110   4.099   8.937  0.8454  0.9964 -0.9859
10778SOL    HW236791  11.020   4.182   8.848  0.5270  0.2538 -1.3626
10779SOL     OW36792   0.561   7.537   5.429  0.0097 -0.5852  0.0751
10779SOL    HW136793   0.543   7.617   5.379  0.3794  0.0703  0.9608
10779SOL    HW236794   0.617   7.485   5.372  0.4635  0.1652 -0.1750
10780SOL     OW36795   9.087   5.586   2.054 -0.1627  0.2654 -0.3153
10780SOL    HW136796   9.130   5.621   2.132  1.1697 -3.6050  0.9112
10780SOL    HW236797   8.993   5.592   2.073 -0.0482  3.1070 -0.3107
10781SOL     OW36798   9.894   3.722   6.973 -0.5054 -0.0282 -0.3605
10781SOL    HW136799   9.875   3.778   6.898  0.1871  1.1230  0.2875
10781SOL    HW236800   9.961   3.770   7.022 -0.8843 -0.7960  0.9524
10782SOL     OW36801   5.964   2.694   5.052  0.2147  0.0424  0.4121
10782SOL    HW136802   5.927   2.742   4.977 -1.0392  0.4357  1.2314
10782SOL    HW236803   5.948   2.602   5.032 -0.9156  0.1876  0.5692
10783SOL     OW36804  10.741   2.358   9.202  0.5643 -0.0413 -0.5070
10783SOL    HW136805  10.718   2.281   9.149 -1.0192  0.1608 -0.1664
10783SOL    HW236806  10.835   2.369   9.189  0.2164  0.1903 -3.5438
10784SOL     OW36807  10.246   6.593   1.448  0.0511 -0.1996  0.2455
10784SOL    HW136808  10.261   6.575   1.355 -0.7693  1.9090 -0.3786
10784SOL    HW236809  10.315   6.655   1.472  0.9983 -1.6703  1.4163
10785SOL     OW36810   3.454  10.866   2.791  0.5143  0.3719  0.4752
10785SOL    HW136811   3.546  10.874   2.765  0.1488  2.6384 -0.2982
10785SOL    HW236812   3.453  10.790   2.849  2.5306 -0.8621 -0.9764
10786SOL     OW36813   7.812   2.049   9.285 -0.0891  0.2327  0.1832
10786SOL    HW136814   7.856   2.102   9.352  0.1479  0.3520 -0.0678
10786SOL    HW236815   7.725   2.032   9.322 -0.5600  1.6777 -0.1730
10787SOL     OW36816   0.855   7.773   7.684  0.0819  0.5507  0.2698
10787SOL    HW136817   0.774   7.824   7.679  0.2661  0.8683  0.5113
10787SOL    HW236818   0.842   7.715   7.760 -1.0675 -1.4162 -1.3322
10788SOL     OW36819   7.531   1.935  10.211  0.7321  0.4169  0.2879
10788SOL    HW136820   7.504   2.024  10.189  1.0328 -0.0083 -2.1324
10788SOL    HW236821   7.627   1.939  10.210  0.7583 -0.0878 -0.7349
10789SOL     OW36822   9.518   2.068   5.431 -1.0738  0.1830 -0.4547
10789SOL    HW136823   9.607   2.041   5.406 -1.8418  0.0570 -3.4684
10789SOL    HW236824   9.471   1.986   5.445 -1.6139  0.0559 -2.6495
10790SOL     OW36825   5.718   3.244   1.340 -0.3686 -0.6065 -0.1177
10790SOL    HW136826   5.758   3.299   1.274 -0.3732 -0.5181 -0.0467
10790SOL    HW236827   5.632   3.282   1.356  0.4329  0.6479  1.4798
10791SOL     OW36828   1.357   2.735   7.359 -0.5431  0.2636 -0.1500
10791SOL    HW136829   1.297   2.680   7.409  0.1564 -1.2353 -0.9080
10791SOL    HW236830   1.317   2.742   7.272 -0.6782  1.0731 -0.0345
10792SOL     OW36831   7.813   7.915   7.185  0.4602  0.2796  0.0502
10792SOL    HW136832   7.810   7.828   7.226  1.7896  0.9048  1.6077
10792SOL    HW236833   7.722   7.945   7.187  0.4218  0.2605  2.6825
10793SOL     OW36834   3.959  10.275   2.095 -0.2904 -0.2274  0.2698
10793SOL    HW136835   3.925  10.201   2.146  0.0989 -0.8829 -0.4030
10793SOL    HW236836   4.043  10.245   2.061 -0.3671  0.3340 -0.4466
10794SOL     OW36837   2.883   7.669   7.034 -0.0115  0.0167  0.0953
10794SOL    HW136838   2.942   7.659   7.109  1.1145  1.2516 -0.5899
10794SOL    HW236839   2.884   7.583   6.991 -0.2127 -0.5258  1.1387
10795SOL     OW36840   4.123   0.567   0.950  0.2483  0.6021  0.5368
10795SOL    HW136841   4.084   0.593   1.033  0.9529  1.1445  0.7051
10795SOL    HW236842   4.160   0.480   0.967 -2.4249 -0.7909 -0.1259
10796SOL     OW36843   9.173   6.431   5.724 -0.0356 -0.6540 -0.1884
10796SOL    HW136844   9.244   6.373   5.755  0.3210  0.2276  0.7021
10796SOL    HW236845   9.159   6.491   5.797  1.2045  1.8723 -1.9073
10797SOL     OW36846   4.458   5.314   7.858 -0.3827 -0.2086 -0.5751
10797SOL    HW136847   4.434   5.300   7.767 -3.5916  0.4437  0.0541
10797SOL    HW236848   4.390   5.269   7.908  1.3552 -0.6618  1.5284
10798SOL     OW36849   4.114   9.053   4.781 -0.5287  0.1673  0.4751
10798SOL    HW136850   4.117   9.149   4.780 -0.2946  0.2366 -2.7670
10798SOL    HW236851   4.184   9.027   4.841  0.7121  2.0369 -0.0876
10799SOL     OW36852   9.167   1.248   9.052 -0.8498 -0.2375 -0.2398
10799SOL    HW136853   9.196   1.207   9.133 -1.8474 -1.2243 -0.3526
10799SOL    HW236854   9.213   1.201   8.983  2.5446  2.6838 -0.2475
10800SOL     OW36855   4.154   7.121   2.309  0.2000  0.2375  0.0203
10800SOL    HW136856   4.178   7.029   2.319  1.4199  0.5020 -0.2554
10800SOL    HW236857   4.061   7.125   2.329  0.1062 -1.0796 -0.1162
10801SOL     OW36858  10.311   5.905   9.552  0.8216 -0.3645 -0.3193
10801SOL    HW136859  10.391   5.854   9.541  1.3806  0.4758 -0.3295
10801SOL    HW236860  10.254   5.851   9.606  1.5750 -0.8058  0.0517
10802SOL     OW36861   5.741   1.387   6.452  0.1516 -0.2880 -0.2781
10802SOL    HW136862   5.721   1.344   6.535  1.4962 -0.3879  0.0292
10802SOL    HW236863   5.669   1.362   6.393  0.2231 -1.9132  0.2665
10803SOL     OW36864   3.948   0.798  10.151  0.0526 -0.1102  0.0142
10803SOL    HW136865   3.922   0.890  10.161  0.2059  0.5702 -4.1217
10803SOL    HW236866   3.977   0.772  10.239 -0.7569  3.5100  1.5471
10804SOL     OW36867   8.446   7.022   8.647 -0.2458  0.1815 -0.4051
10804SOL    HW136868   8.481   6.933   8.650 -0.6701 -0.0556 -1.8406
10804SOL    HW236869   8.352   7.010   8.636 -0.6474  0.8230  1.8804
10805SOL     OW36870   7.215   6.880   7.068 -0.0147  0.2598  0.2746
10805SOL    HW136871   7.239   6.911   6.981 -0.2762 -0.7268 -0.1578
10805SOL    HW236872   7.140   6.935   7.093 -1.6991 -1.1941 -1.2767
10806SOL     OW36873   8.399  10.964   3.856 -0.0051  0.2300 -0.0878
10806SOL    HW136874   8.387  11.045   3.904  0.0053 -0.1207  0.5183
10806SOL    HW236875   8.476  10.979   3.802 -1.1030  1.2999 -1.4535
10807SOL     OW36876   7.292   7.183   1.470  0.6508  0.1114 -0.2292
10807SOL    HW136877   7.217   7.149   1.518 -2.4730  3.1188 -2.5266
10807SOL    HW236878   7.296   7.130   1.390  1.5086 -0.5205  0.2189
10808SOL     OW36879   3.624   2.465   3.336  0.1888 -0.7827  0.2796
10808SOL    HW136880   3.718   2.446   3.340  0.2197 -0.7387 -0.2111
10808SOL    HW236881   3.612   2.510   3.252 -0.2568 -0.7035  0.3825
10809SOL     OW36882   4.069   3.427   1.934 -0.1268  0.2294 -0.3225
10809SOL    HW136883   3.981   3.425   1.896  0.6091 -2.3602 -2.1855
10809SOL    HW236884   4.067   3.359   2.002  0.7165 -0.7154 -1.2149
10810SOL     OW36885   4.364   3.912   5.125 -0.2799 -0.2919 -0.2784
10810SOL    HW136886   4.441   3.862   5.152 -0.6837 -0.9316 -0.3017
10810SOL    HW236887   4.387   4.003   5.144  0.4138 -0.4946 -0.1244
10811SOL     OW36888   4.329   4.576   3.144  0.1889 -0.1086  0.3350
10811SOL    HW136889   4.338   4.576   3.049  1.0678  1.6995  0.3897
10811SOL    HW236890   4.382   4.650   3.174 -1.7878  0.7245  2.0495
10812SOL     OW36891   5.414   6.947   0.892  0.2371 -0.3301  0.0975
10812SOL    HW136892   5.475   6.881   0.861  2.7827  0.8102  2.3228
10812SOL    HW236893   5.457   6.987   0.968 -3.0765  0.9157  1.5292
10813SOL     OW36894   5.319   1.542  10.254 -0.2093  0.2191  0.4197
10813SOL    HW136895   5.261   1.481  10.300  1.1453 -0.6017  1.1017
10813SOL    HW236896   5.407   1.514  10.279  0.4652  2.0264  0.1796
10814SOL     OW36897   1.757   6.181   4.898 -0.3452 -0.6112 -0.1270
10814SOL    HW136898   1.758   6.276   4.887 -0.4984 -0.7356 -1.2968
10814SOL    HW236899   1.849   6.158   4.914 -0.2313 -0.3275 -0.3642
10815SOL     OW36900   6.164   8.836  10.667 -0.3420 -0.6411 -0.2891
10815SOL    HW136901   6.154   8.867  10.576 -1.2403 -1.3196 -0.4393
10815SOL    HW236902   6.089   8.778  10.680 -1.0389  0.5556  1.3585
10816SOL     OW36903   8.563   5.574   1.163 -0.2376  0.0834 -0.4776
10816SOL    HW136904   8.528   5.576   1.074  0.1573  1.6200 -0.6285
10816SOL    HW236905   8.649   5.532   1.155 -0.0572  0.5244 -0.8816
10817SOL     OW36906   8.221   0.726   5.961 -0.0580 -0.2417  0.0851
10817SOL    HW136907   8.296   0.742   6.017 -0.1427 -0.0680  0.1491
10817SOL    HW236908   8.212   0.631   5.958 -0.5033 -0.2343  0.9590
10818SOL     OW36909  11.031   1.930   7.450  0.1898 -0.8236  0.1832
10818SOL    HW136910  11.066   1.880   7.524 -1.6835 -1.1128  0.9141
10818SOL    HW236911  11.096   1.917   7.380  1.5664 -1.2509  1.4764
10819SOL     OW36912   4.549   0.021   8.535  0.0001  0.4172  0.1755
10819SOL    HW136913   4.513   0.027   8.623 -0.1955 -1.5471  0.2634
10819SOL    HW236914   4.642   0.005   8.548 -0.1084 -0.3479  0.0423
10820SOL     OW36915   4.987   6.771   1.206 -0.3092  0.1836  0.5790
10820SOL    HW136916   4.967   6.844   1.264 -0.4701  1.0730 -0.5499
10820SOL    HW236917   5.046   6.808   1.140  2.2687 -1.4879  1.7528
10821SOL     OW36918   1.786   6.566   6.988 -0.0398  0.3730 -0.0960
10821SOL    HW136919   1.732   6.643   7.011 -1.4718 -0.6259  0.0333
10821SOL    HW236920   1.754   6.497   7.046  0.7298 -0.5118 -0.7053
10822SOL     OW36921   4.851   5.062  10.712  0.1469  0.2505  0.0913
10822SOL    HW136922   4.881   4.971  10.708  1.1392  0.5726 -0.1067
10822SOL    HW236923   4.756   5.057  10.698  0.5036 -0.5202 -2.6789
10823SOL     OW36924   0.979   7.127   2.000 -0.0585  0.1231  0.1947
10823SOL    HW136925   0.947   7.068   2.068  0.8181  1.1713  1.5525
10823SOL    HW236926   1.071   7.104   1.989 -0.1244  0.1493 -0.4457
10824SOL     OW36927   7.059   5.873   3.077  0.0680 -0.1460 -0.0612
10824SOL    HW136928   7.133   5.929   3.098  0.4444 -0.5387 -0.3043
10824SOL    HW236929   6.996   5.930   3.033 -0.8193  0.7318  2.2098
10825SOL     OW36930   8.976  10.440   6.974 -0.3261 -0.0627  0.2928
10825SOL    HW136931   9.038  10.490   7.027 -2.1431  2.4572  0.2194
10825SOL    HW236932   9.011  10.350   6.974  3.5188  1.2374 -0.1385
10826SOL     OW36933   7.171   0.811   6.586 -0.2216  0.0192 -0.1407
10826SOL    HW136934   7.111   0.885   6.575  0.3660  0.3936 -0.9032
10826SOL    HW236935   7.240   0.827   6.522  0.9822 -0.1226  1.0897
10827SOL     OW36936   6.214   6.561   1.222 -0.1188  0.3015 -0.1285
10827SOL    HW136937   6.250   6.643   1.189  1.7056 -1.2015 -2.1192
10827SOL    HW236938   6.120   6.567   1.204  0.2396  1.2237 -1.9476
10828SOL     OW36939   3.594   0.629   8.707 -0.0969  0.0307 -0.3158
10828SOL    HW136940   3.608   0.600   8.798 -1.9279  0.4381  0.1409
10828SOL    HW236941   3.616   0.723   8.709  0.4256 -0.0854 -0.4472
10829SOL     OW36942   5.213  10.050   4.849  0.0608 -0.2321 -0.1328
10829SOL    HW136943   5.221  10.102   4.769 -2.1304 -0.6085 -0.6719
10829SOL    HW236944   5.295  10.001   4.855  2.7426  3.8490  0.9141
10830SOL     OW36945   3.821   6.718  10.888  0.4001 -0.2197  0.8929
10830SOL    HW136946   3.739   6.682  10.920 -0.6981  1.0335 -0.3665
10830SOL    HW236947   3.873   6.641  10.861 -0.2509 -1.0317  1.9124
10831SOL     OW36948   7.047   1.196   5.723  0.1924  0.0890 -0.2172
10831SOL    HW136949   6.991   1.189   5.646  1.0988  1.2517 -1.0125
10831SOL    HW236950   7.003   1.259   5.780 -1.4276 -2.1207  1.1205
10832SOL     OW36951   7.510   3.839   0.295  0.8111 -0.1208 -0.6222
10832SOL    HW136952   7.592   3.878   0.265  0.5527  1.9663  1.1231
10832SOL    HW236953   7.516   3.840   0.390 -0.8376 -0.8507 -0.4795
10833SOL     OW36954   1.491   5.620   1.727  0.1756  0.0373 -0.6271
10833SOL    HW136955   1.544   5.631   1.648  1.0137 -0.6385 -0.1684
10833SOL    HW236956   1.477   5.526   1.735  0.6384  0.0353  0.3678
10834SOL     OW36957   8.813   6.731   3.406  0.0351 -0.1942  0.6988
10834SOL    HW136958   8.885   6.772   3.359 -0.0658 -0.8892 -0.0830
10834SOL    HW236959   8.738   6.737   3.346 -0.4050 -0.0165  1.2557
10835SOL     OW36960   1.078   8.417   5.851 -0.2173 -0.0054 -0.0117
10835SOL    HW136961   1.069   8.508   5.878  0.4054  0.0112  0.1673
10835SOL    HW236962   1.168   8.394   5.876 -1.1946 -1.5053  2.5045
10836SOL     OW36963  10.972   3.503   8.883 -0.1099  0.2196 -0.3539
10836SOL    HW136964  10.997   3.512   8.791 -0.4709  0.6342 -0.4110
10836SOL    HW236965  10.878   3.517   8.885 -0.2344 -0.6030 -0.0298
10837SOL     OW36966   2.090   7.835   9.795 -0.1241  0.3771  0.1331
10837SOL    HW136967   2.152   7.762   9.789 -1.1226 -0.4304 -0.7867
10837SOL    HW236968   2.062   7.837   9.886 -0.0190 -0.3429  0.1826
10838SOL     OW36969   6.643   0.015   7.455  0.0088  0.0977 -0.1571
10838SOL    HW136970   6.636   0.110   7.444 -1.8507  0.0111 -0.0634
10838SOL    HW236971   6.588  -0.021   7.385  0.9222 -0.9410 -0.3756
10839SOL     OW36972   9.696   3.660   9.071  0.4049 -0.8081 -0.4617
10839SOL    HW136973   9.729   3.746   9.097 -0.3620 -0.2072 -1.4100
10839SOL    HW236974   9.747   3.637   8.994  0.0834 -0.8470 -0.6647
10840SOL     OW36975   2.860   6.671   4.537 -1.1199  0.1408 -0.0623
10840SOL    HW136976   2.855   6.701   4.447 -0.9875  0.2563 -0.0322
10840SOL    HW236977   2.948   6.696   4.566 -1.3004  0.4622  0.2195
10841SOL     OW36978   3.991   8.791   6.342 -0.3767 -0.4512 -0.1626
10841SOL    HW136979   4.006   8.862   6.405  0.9243 -1.8834  1.2444
10841SOL    HW236980   3.901   8.804   6.313 -0.8436  0.6259  1.5506
10842SOL     OW36981   2.232   6.109   4.840  0.1098 -0.1141 -0.3468
10842SOL    HW136982   2.294   6.037   4.841  0.3043  0.0513  0.3848
10842SOL    HW236983   2.278   6.181   4.882  0.0429  0.5546 -1.3795
10843SOL     OW36984   8.443   3.633   9.798 -0.0907  0.3835 -0.2181
10843SOL    HW136985   8.473   3.721   9.819 -2.4589  1.1967  0.0195
10843SOL    HW236986   8.433   3.591   9.884 -0.5555  0.4495 -0.2399
10844SOL     OW36987   7.018   0.331   9.995 -0.3001 -0.3731  0.1728
10844SOL    HW136988   7.001   0.290  10.080 -1.7079 -1.1274 -0.4351
10844SOL    HW236989   7.009   0.260   9.932  0.8027  0.1614 -0.6248
10845SOL     OW36990   2.458   4.926  11.044 -0.1631 -0.4911 -0.0311
10845SOL    HW136991   2.515   4.921  10.967 -0.2607 -0.4448 -0.1078
10845SOL    HW236992   2.508   4.977  11.108  0.7202 -2.1710  0.6666
10846SOL     OW36993   7.495   6.210  10.298  0.5445  0.0299 -0.0686
10846SOL    HW136994   7.423   6.253  10.251 -1.2040  0.5528  2.8046
10846SOL    HW236995   7.540   6.282  10.343 -0.0137 -0.6858  1.7315
10847SOL     OW36996   8.146   4.562   0.159 -0.2658  0.4046 -0.6412
10847SOL    HW136997   8.145   4.489   0.097 -1.7300 -1.4111  1.3325
10847SOL    HW236998   8.055   4.593   0.160 -0.4478 -0.0587  0.9741
10848SOL     OW36999   2.133   0.219   5.017  0.0662 -0.1746 -0.1740
10848SOL    HW137000   2.161   0.271   5.093 -1.3769 -2.1492  1.8606
10848SOL    HW237001   2.213   0.178   4.985  0.5629 -0.2194  1.0610
10849SOL     OW37002   6.707   2.457   0.580 -0.4771  0.3250 -0.2274
10849SOL    HW137003   6.631   2.421   0.627 -1.3000 -0.8708 -2.3226
10849SOL    HW237004   6.682   2.547   0.559 -1.2229  0.0240 -0.6721
10850SOL     OW37005   4.661   2.300   7.399  0.5838 -0.2240  0.3956
10850SOL    HW137006   4.724   2.308   7.471  0.1933  0.6717  0.6524
10850SOL    HW237007   4.598   2.370   7.415 -0.0222 -0.5989 -0.3155
10851SOL     OW37008   4.712   1.040   7.223 -0.6568 -0.0961  0.0746
10851SOL    HW137009   4.764   0.986   7.283 -0.3233  0.5448  0.3807
10851SOL    HW237010   4.642   0.982   7.193 -0.9694 -0.3747  1.2710
10852SOL     OW37011   5.658   1.873   2.634 -0.1964 -0.0573  0.6859
10852SOL    HW137012   5.669   1.898   2.542 -0.4275 -0.2539  0.6026
10852SOL    HW237013   5.565   1.885   2.651 -0.6589 -2.3678  0.1685
10853SOL     OW37014   1.221   4.712   5.442 -0.1262  0.4873 -0.2826
10853SOL    HW137015   1.215   4.682   5.533  0.1406 -1.5940 -0.8897
10853SOL    HW237016   1.183   4.799   5.443  0.1408  0.6457  1.8799
10854SOL     OW37017   6.515  10.205   8.350 -0.0513 -0.2853 -0.0850
10854SOL    HW137018   6.599  10.228   8.311  0.1539  0.7919  0.9525
10854SOL    HW237019   6.502  10.113   8.327  0.1344  0.2314 -2.5235
10855SOL     OW37020   8.123   9.925   8.487 -0.4393 -0.5264 -0.4183
10855SOL    HW137021   8.214   9.953   8.488 -0.8815  0.9969 -0.6864
10855SOL    HW237022   8.100   9.913   8.579  0.4156 -2.3677 -0.3911
10856SOL     OW37023   3.011   6.879   6.506 -0.4582 -0.0664 -0.2814
10856SOL    HW137024   2.979   6.902   6.419  1.6652  1.4451 -0.7523
10856SOL    HW237025   3.044   6.790   6.497  0.1107  0.2209 -1.1549
10857SOL     OW37026  10.700   5.233   6.980 -0.6957  0.5804  0.5792
10857SOL    HW137027  10.745   5.223   6.896 -0.6005 -0.0846  0.7024
10857SOL    HW237028  10.745   5.172   7.038  1.6777  3.5454  2.1680
10858SOL     OW37029   2.592   4.543   9.558  0.2650  0.1895 -0.2399
10858SOL    HW137030   2.603   4.629   9.599 -0.8451 -0.8917  2.5640
10858SOL    HW237031   2.507   4.548   9.515 -0.3560  0.1816  0.9369
10859SOL     OW37032   1.167   0.264   4.095 -0.4301  0.3752 -0.4154
10859SOL    HW137033   1.212   0.216   4.026 -0.0465  0.4144 -0.1968
10859SOL    HW237034   1.075   0.263   4.069 -0.5923 -1.2980  0.0468
10860SOL     OW37035   0.721   3.263   7.025 -0.4963  0.3903  0.3298
10860SOL    HW137036   0.735   3.240   7.117 -1.7039 -0.0090  0.4290
10860SOL    HW237037   0.699   3.180   6.983  1.3089  0.3399 -0.6070
10861SOL     OW37038   0.339   1.337   0.262  0.4469  0.3628  0.0093
10861SOL    HW137039   0.300   1.305   0.344 -1.0096  3.4153  0.6593
10861SOL    HW237040   0.427   1.299   0.261 -0.2531 -1.4999  1.8652
10862SOL     OW37041   1.303   1.907   2.511  0.0093  1.0488 -0.1997
10862SOL    HW137042   1.228   1.951   2.551 -0.4865  0.5548 -0.5641
10862SOL    HW237043   1.358   1.881   2.585  0.2855  2.2117  0.0240
10863SOL     OW37044   3.019   3.155   5.693  0.5275  0.2095 -0.0675
10863SOL    HW137045   3.041   3.112   5.776  0.3111 -0.8533 -0.5472
10863SOL    HW237046   3.013   3.248   5.716  1.3079  0.0386  0.9351
10864SOL     OW37047   2.848   7.329   4.173 -0.0159  0.2225  0.3106
10864SOL    HW137048   2.846   7.294   4.262 -1.0620 -0.5028  0.0191
10864SOL    HW237049   2.758   7.318   4.141  0.4439  0.0904 -0.9838
10865SOL     OW37050   6.425   2.355   2.600 -0.1342 -0.1173 -0.0761
10865SOL    HW137051   6.427   2.289   2.668  1.8196  2.6664  2.8880
10865SOL    HW237052   6.358   2.418   2.629  0.6897  1.0996 -0.6972
10866SOL     OW37053   5.004   8.238   6.187 -0.1555  0.7018  0.0389
10866SOL    HW137054   5.004   8.300   6.114 -0.2285 -0.6186 -1.1189
10866SOL    HW237055   4.967   8.288   6.261 -1.7157  1.5712 -1.2602
10867SOL     OW37056  10.464   1.420   9.190 -0.3373 -0.0546  0.5036
10867SOL    HW137057  10.547   1.376   9.206  0.3283  1.5530  1.7722
10867SOL    HW237058  10.487   1.502   9.149 -1.2924  0.3917  0.8185
10868SOL     OW37059   2.548   3.801   4.509 -0.2623 -0.2980 -0.3156
10868SOL    HW137060   2.600   3.831   4.434 -1.5519  0.5263 -0.9334
10868SOL    HW237061   2.592   3.723   4.540  2.5455  1.4880  0.5448
10869SOL     OW37062   5.756   3.844   5.755  0.7206  0.1470 -0.4253
10869SOL    HW137063   5.839   3.889   5.739  0.9959 -0.6284 -1.2275
10869SOL    HW237064   5.718   3.890   5.830 -0.0838  3.2330 -2.4944
10870SOL     OW37065   6.468   9.215   2.691  0.1240  0.0652 -0.0472
10870SOL    HW137066   6.404   9.281   2.665 -1.7697 -1.3623  0.8062
10870SOL    HW237067   6.488   9.235   2.782  0.5525  0.2095 -0.1673
10871SOL     OW37068   5.980  10.043   0.990  0.3051  0.8006  0.2276
10871SOL    HW137069   5.957  10.132   0.962 -4.1676 -0.0452  0.3704
10871SOL    HW237070   5.989   9.994   0.908 -0.9748  0.7001  0.1248
10872SOL     OW37071   4.335   9.346   1.918 -0.3405  0.2174  0.7935
10872SOL    HW137072   4.428   9.368   1.913 -0.0877 -0.6329  1.4282
10872SOL    HW237073   4.330   9.282   1.989 -1.3450 -0.1080  0.4427
10873SOL     OW37074   4.297   2.103   8.944 -0.6898  0.3894  0.3363
10873SOL    HW137075   4.225   2.056   8.986  0.0887 -0.3194  0.8950
10873SOL    HW237076   4.267   2.114   8.853 -1.5474  0.2006  0.5806
10874SOL     OW37077   0.278   9.644   7.138 -0.1815  0.0143 -0.1915
10874SOL    HW137078   0.330   9.582   7.087 -1.0436  1.1873 -2.6019
10874SOL    HW237079   0.327   9.726   7.133 -0.7181  0.3643  0.1743
10875SOL     OW37080  10.468   5.107   4.994 -0.0118  0.0163  0.7541
10875SOL    HW137081  10.417   5.186   4.979  0.6578  0.3510  0.1825
10875SOL    HW237082  10.417   5.037   4.952 -0.2328  0.2691  0.5991
10876SOL     OW37083   0.843   4.886   4.976 -0.4927 -0.2427  0.0826
10876SOL    HW137084   0.792   4.943   4.919 -0.1123 -0.1662 -0.1836
10876SOL    HW237085   0.905   4.842   4.917 -0.9819 -1.1555  0.2340
10877SOL     OW37086   0.426   6.396  10.372 -0.0299  0.3547 -0.0308
10877SOL    HW137087   0.485   6.399  10.447  1.2927  0.3108 -1.0424
10877SOL    HW237088   0.388   6.484  10.369  2.0121  1.2499 -0.9229
10878SOL     OW37089   4.049   3.175   1.093 -0.0152  0.3001  0.1411
10878SOL    HW137090   4.106   3.098   1.102 -0.1697  0.0991 -0.5972
10878SOL    HW237091   4.109   3.246   1.070  0.0515  0.2777  0.2433
10879SOL     OW37092   2.155   0.693   2.225  0.3298 -0.0997 -0.2153
10879SOL    HW137093   2.073   0.741   2.220  0.0083 -0.4581  1.1807
10879SOL    HW237094   2.177   0.673   2.134 -1.5872 -0.7649 -0.5680
10880SOL     OW37095   4.329  11.011   6.134  0.3585 -0.7653  0.5106
10880SOL    HW137096   4.392  10.942   6.156  1.4232 -0.2209 -0.6866
10880SOL    HW237097   4.374  11.064   6.069 -1.3903 -0.4003 -0.4623
10881SOL     OW37098   5.253   8.199   2.805  0.2033 -0.6034 -0.1097
10881SOL    HW137099   5.191   8.270   2.811 -0.5735 -1.3643  1.3955
10881SOL    HW237100   5.231   8.141   2.878  3.2727 -0.4271  1.1338
10882SOL     OW37101   3.630  10.392   2.121 -0.4913  0.2023 -0.3810
10882SOL    HW137102   3.621  10.405   2.026  0.0608  0.2316 -0.4341
10882SOL    HW237103   3.688  10.316   2.128 -2.9457 -1.7567 -0.0856
10883SOL     OW37104   1.534   7.598   6.086  0.3419  0.2457 -0.0671
10883SOL    HW137105   1.504   7.682   6.120  1.6946  0.4406  0.6959
10883SOL    HW237106   1.628   7.608   6.075  0.1215 -0.1050 -3.1091
10884SOL     OW37107   1.218   2.867   3.254 -0.0800  0.2414 -0.8091
10884SOL    HW137108   1.209   2.868   3.349  0.4267 -1.9567 -0.6891
10884SOL    HW237109   1.222   2.960   3.229  0.4717  0.8507  1.3612
10885SOL     OW37110   2.285   3.302   5.400 -0.0670  0.0626  0.1898
10885SOL    HW137111   2.325   3.338   5.479  0.3831  0.9983 -0.4492
10885SOL    HW237112   2.238   3.224   5.431 -0.4855  0.7938  1.4919
10886SOL     OW37113   3.020   5.989  10.982 -0.0124 -0.2822 -0.1494
10886SOL    HW137114   3.037   6.083  10.979  1.3068 -0.4152  1.4535
10886SOL    HW237115   2.929   5.980  10.954 -0.0954  1.4419 -0.5553
10887SOL     OW37116   8.316   2.743   4.563  0.6540 -0.0669  0.1969
10887SOL    HW137117   8.339   2.823   4.610  0.6327  0.1616 -0.1769
10887SOL    HW237118   8.221   2.749   4.551  0.6692 -0.0883  0.0609
10888SOL     OW37119   3.006   7.943   8.912  0.0450  0.2598 -0.0845
10888SOL    HW137120   2.975   7.853   8.922  0.1718  0.2440  0.1575
10888SOL    HW237121   3.007   7.957   8.817 -0.6097  0.2271 -0.1050
10889SOL     OW37122   9.848   9.969   7.377  0.6331  0.2494  0.5790
10889SOL    HW137123   9.838  10.062   7.360  1.0899  0.6613  2.3782
10889SOL    HW237124   9.897   9.936   7.301  1.0946  1.5955  0.2577
10890SOL     OW37125   7.417   2.575   7.376 -0.6526  0.0275  0.5385
10890SOL    HW137126   7.507   2.597   7.401  0.2890 -1.2022 -1.5465
10890SOL    HW237127   7.383   2.529   7.453  1.9738 -3.2507 -0.0058
10891SOL     OW37128   5.426   1.189   9.576 -0.1894  0.3296  0.6799
10891SOL    HW137129   5.387   1.194   9.663 -1.7873 -2.2940  0.2345
10891SOL    HW237130   5.360   1.226   9.518 -0.1392 -0.0517  0.3747
10892SOL     OW37131   6.238   9.435   4.904  0.3556 -0.3516 -0.0360
10892SOL    HW137132   6.328   9.404   4.890  0.5027  0.6821 -1.6496
10892SOL    HW237133   6.244   9.488   4.984  0.9664 -1.0326  0.3892
10893SOL     OW37134   1.924   2.833  10.696  0.3904 -0.2285 -0.1801
10893SOL    HW137135   1.992   2.836  10.763 -0.7932  0.7865  1.0090
10893SOL    HW237136   1.860   2.770  10.729 -0.0397  0.0270 -0.5226
10894SOL     OW37137   1.525   9.587   3.414  0.1825 -0.7072  0.3780
10894SOL    HW137138   1.541   9.676   3.446 -1.5255 -0.4116  0.4770
10894SOL    HW237139   1.456   9.553   3.470  1.0651 -2.2626  0.5874
10895SOL     OW37140   3.322   0.582  10.748  0.1840  0.2812  0.2610
10895SOL    HW137141   3.268   0.638  10.693  0.8542  1.1348  0.4545
10895SOL    HW237142   3.299   0.493  10.722 -1.9484  0.5657  0.9229
10896SOL     OW37143   2.517   2.974   5.053  0.8415 -0.0050  0.1922
10896SOL    HW137144   2.512   3.002   4.962 -1.4473  0.0035  0.2521
10896SOL    HW237145   2.445   3.021   5.096  0.8447 -1.2489  1.6398
10897SOL     OW37146   8.856   8.428   8.088  0.2783  0.1825  0.0114
10897SOL    HW137147   8.935   8.400   8.041  0.9095  1.9992 -0.0601
10897SOL    HW237148   8.817   8.495   8.033 -0.5563  0.3129  0.7325
10898SOL     OW37149  10.855   2.836   9.655 -0.0669 -0.0124 -0.2433
10898SOL    HW137150  10.766   2.821   9.687  0.5445  1.5263  2.4933
10898SOL    HW237151  10.906   2.763   9.690  0.2261  0.5761  0.5842
10899SOL     OW37152   4.895   9.608   7.063 -0.2229 -0.4044 -0.1075
10899SOL    HW137153   4.806   9.631   7.093 -0.3739 -1.1064  0.0037
10899SOL    HW237154   4.902   9.647   6.976 -0.2251  0.6233  0.3340
10900SOL     OW37155   8.149   1.035   6.472  0.1406  0.0865 -0.1052
10900SOL    HW137156   8.058   1.061   6.486  0.3729  0.7991  0.0917
10900SOL    HW237157   8.146   0.939   6.471 -0.4943  0.0823  0.6933
10901SOL     OW37158   2.481   2.902   0.580  0.1950 -0.2682 -0.3503
10901SOL    HW137159   2.536   2.827   0.559 -0.0186 -1.0222  1.5596
10901SOL    HW237160   2.448   2.932   0.496  1.9427 -1.0020 -1.3600
10902SOL     OW37161   6.492   1.196   9.859 -0.2437 -0.1114 -0.1472
10902SOL    HW137162   6.539   1.189   9.776 -0.2107  0.5391 -0.1864
10902SOL    HW237163   6.561   1.194   9.925 -0.2294 -0.0720 -0.1612
10903SOL     OW37164   9.258   9.934   4.706 -0.3964  0.4441 -0.3967
10903SOL    HW137165   9.335   9.977   4.668  0.6191  0.1923  1.2721
10903SOL    HW237166   9.287   9.904   4.792 -2.0460 -0.6753 -0.1773
10904SOL     OW37167   7.888   0.812   3.553 -0.5874  0.3439  0.5326
10904SOL    HW137168   7.933   0.749   3.498  1.5283  0.2148  2.3068
10904SOL    HW237169   7.810   0.837   3.502  1.5255  0.7280 -2.7719
10905SOL     OW37170   7.232   0.934  10.467 -0.3265  0.5809  0.4944
10905SOL    HW137171   7.244   0.864  10.403 -0.9479  2.3407 -1.6908
10905SOL    HW237172   7.321   0.965  10.485 -0.2057  0.7925 -0.4116
10906SOL     OW37173   3.493   7.106   4.883  0.3267  0.5324 -0.0633
10906SOL    HW137174   3.426   7.111   4.951  0.1010  0.3188 -0.2685
10906SOL    HW237175   3.525   7.016   4.887 -0.3407  0.2518 -0.8556
10907SOL     OW37176   8.060   1.637   8.804 -0.0684  0.0451 -0.1362
10907SOL    HW137177   7.978   1.686   8.816  0.1244  0.7011 -1.2787
10907SOL    HW237178   8.082   1.651   8.711  2.1847  1.2209  0.5109
10908SOL     OW37179  10.514   2.373   7.934 -0.3907  0.2889  0.0891
10908SOL    HW137180  10.482   2.439   7.995  2.4483  1.8711 -0.0201
10908SOL    HW237181  10.593   2.338   7.975 -0.5303 -1.3829 -0.9621
10909SOL     OW37182   2.900   0.378   2.791 -0.4201  0.1036 -0.2694
10909SOL    HW137183   2.858   0.300   2.826 -0.3894  0.4832  0.6563
10909SOL    HW237184   2.897   0.441   2.864  1.5997  0.1943 -0.1992
10910SOL     OW37185   1.052   3.202   1.310 -0.3230 -0.1807  0.5517
10910SOL    HW137186   0.966   3.167   1.288 -0.2876  0.4553 -0.6652
10910SOL    HW237187   1.046   3.224   1.403 -1.0555 -1.3054  0.7876
10911SOL     OW37188   7.703   7.295   3.320 -0.1182  0.2498  0.1729
10911SOL    HW137189   7.647   7.304   3.243  0.5080  0.5767 -0.2459
10911SOL    HW237190   7.786   7.335   3.295  0.8046 -1.4994  0.2800
10912SOL     OW37191   6.885   8.978   6.973 -0.1295 -0.3032  0.6791
10912SOL    HW137192   6.825   8.937   6.910  0.3284  1.5100 -1.0367
10912SOL    HW237193   6.830   9.039   7.023  0.2064  1.4676 -0.9926
10913SOL     OW37194   5.785  10.268   6.780 -0.0314  0.3945 -0.1303
10913SOL    HW137195   5.853  10.285   6.715 -0.0572  1.3004  0.0696
10913SOL    HW237196   5.720  10.215   6.734 -0.2161  1.3103 -0.9460
10914SOL     OW37197   8.404   4.052   6.001  0.1156 -0.4645 -0.3690
10914SOL    HW137198   8.488   4.093   5.981  0.1624 -0.7737 -0.7963
10914SOL    HW237199   8.399   3.977   5.943  0.9068 -2.2331  1.7150
10915SOL     OW37200   6.814   3.140  10.284  0.3976 -0.1355  0.3216
10915SOL    HW137201   6.752   3.153  10.356  0.7062  0.3685  0.5063
10915SOL    HW237202   6.786   3.059  10.243 -1.7777  1.2018 -1.0281
10916SOL     OW37203   9.960   3.839   7.980  0.5501 -0.2850 -0.4812
10916SOL    HW137204  10.001   3.757   7.954  1.9755 -0.2035  1.2891
10916SOL    HW237205  10.025   3.906   7.959  0.0362  0.2201 -0.4831
10917SOL     OW37206   7.300   7.523   5.788 -0.3903  0.2218 -0.2144
10917SOL    HW137207   7.316   7.431   5.769  1.2552  0.7543 -1.6330
10917SOL    HW237208   7.344   7.571   5.718 -0.4845  2.1238  0.9354
10918SOL     OW37209   1.071   4.588   0.903 -0.6315 -0.1232  0.1908
10918SOL    HW137210   1.117   4.507   0.924  0.4616  0.1069 -1.1265
10918SOL    HW237211   1.016   4.565   0.828 -0.6412  0.2363  0.0844
10919SOL     OW37212   3.769   7.536   8.210 -0.3951 -0.2257 -0.2092
10919SOL    HW137213   3.752   7.630   8.220  1.2037 -0.0228  1.0169
10919SOL    HW237214   3.705   7.494   8.267 -2.0377 -0.0287 -1.7851
10920SOL     OW37215   1.895   6.318   3.240 -0.1557  0.3027  0.8524
10920SOL    HW137216   1.958   6.372   3.191  0.7495 -0.0814  1.5588
10920SOL    HW237217   1.928   6.320   3.330 -0.0924 -1.4229  0.8986
10921SOL     OW37218   8.984   4.759   1.673  0.1927 -0.2240  0.4452
10921SOL    HW137219   9.047   4.795   1.611  0.5170 -0.3806  0.6806
10921SOL    HW237220   9.004   4.665   1.675 -1.3353 -0.6451 -0.9842
10922SOL     OW37221   8.238   1.410  10.429  0.2301  0.4153 -0.0738
10922SOL    HW137222   8.241   1.380  10.338 -0.2489 -0.8245  0.2943
10922SOL    HW237223   8.329   1.432  10.450  0.2219  1.4663 -1.0815
10923SOL     OW37224   1.158   6.881   5.655  0.0149 -0.1622 -0.1342
10923SOL    HW137225   1.101   6.804   5.646 -1.2818  0.5436  1.4335
10923SOL    HW237226   1.117   6.948   5.601 -0.8829  0.4301  1.2076
10924SOL     OW37227   6.791   7.546   6.043 -0.2984 -0.4194  0.4474
10924SOL    HW137228   6.777   7.519   5.952  1.2712 -1.3721  0.4508
10924SOL    HW237229   6.807   7.464   6.090  2.3523  0.2569  0.8996
10925SOL     OW37230   3.038   5.588   7.409 -0.0748 -0.0423 -0.0811
10925SOL    HW137231   3.003   5.563   7.494 -0.4082 -3.2643 -1.0403
10925SOL    HW237232   2.960   5.611   7.357 -0.0750 -0.1621 -0.1340
10926SOL     OW37233   5.476   7.181   2.168  0.3715  0.2360 -0.3930
10926SOL    HW137234   5.492   7.104   2.114  1.4037  0.5462 -0.5464
10926SOL    HW237235   5.503   7.255   2.114  0.6692  0.6078  0.2595
10927SOL     OW37236   7.830   8.744   5.327  0.9003 -0.5653  0.1122
10927SOL    HW137237   7.920   8.766   5.350 -0.2103  2.8520  1.8269
10927SOL    HW237238   7.776   8.802   5.380 -2.3163 -1.2286 -2.1046
10928SOL     OW37239   5.335   7.276  10.965 -0.0958 -0.1828  0.2818
10928SOL    HW137240   5.408   7.317  11.011 -0.8495 -0.3325  1.7053
10928SOL    HW237241   5.262   7.283  11.027 -0.6470 -2.2660 -0.0700
10929SOL     OW37242   1.644   2.159   2.681 -0.2826  0.7038  0.1445
10929SOL    HW137243   1.560   2.187   2.645  0.3067  0.3283 -1.6344
10929SOL    HW237244   1.700   2.147   2.604  1.1208  0.0399  1.2252
10930SOL     OW37245   5.863   4.869   4.042 -0.1205 -0.3698  0.0935
10930SOL    HW137246   5.869   4.944   4.101  1.3161 -0.0849 -0.3725
10930SOL    HW237247   5.843   4.795   4.100  2.1561 -0.2600  1.1113
10931SOL     OW37248   6.674   1.842   1.668  0.1103  0.4678  0.1423
10931SOL    HW137249   6.679   1.749   1.690 -0.7538 -0.2905 -2.4324
10931SOL    HW237250   6.685   1.888   1.751  0.5121 -1.9267  1.4893
10932SOL     OW37251   5.301   1.109   4.078  0.5822 -0.1401 -0.8309
10932SOL    HW137252   5.257   1.191   4.057 -0.6170 -0.3617  0.6254
10932SOL    HW237253   5.324   1.117   4.171  3.7663 -0.0149 -1.5113
10933SOL     OW37254   5.746   8.321   7.695  0.2484  0.2269  0.0091
10933SOL    HW137255   5.667   8.267   7.698  0.3412 -0.1597 -2.2395
10933SOL    HW237256   5.818   8.259   7.707  0.2558  0.5991  2.1988
10934SOL     OW37257   0.082   9.338   7.846  0.0601  0.1414 -0.2530
10934SOL    HW137258   0.018   9.307   7.782 -2.1856  1.2123  1.3274
10934SOL    HW237259   0.079   9.275   7.917  1.6267 -0.3812 -0.6096
10935SOL     OW37260   2.234   2.536   4.264  0.1112  0.0619 -0.0280
10935SOL    HW137261   2.191   2.606   4.313 -0.4850  0.2475 -0.8061
10935SOL    HW237262   2.234   2.567   4.173  0.1565 -0.7933 -0.3217
10936SOL     OW37263   7.105   8.942   5.553 -0.7182  0.2007 -0.2732
10936SOL    HW137264   7.038   8.891   5.508 -1.7474 -0.7137  2.1345
10936SOL    HW237265   7.131   8.888   5.627  4.6572 -0.6579 -2.3701
10937SOL     OW37266   7.166   4.402   0.214 -0.5783 -0.2046  0.5542
10937SOL    HW137267   7.077   4.414   0.182  0.3830  2.1732 -1.7050
10937SOL    HW237268   7.168   4.448   0.298 -1.0459  1.6430 -0.3820
10938SOL     OW37269   7.120   1.719   0.468 -0.2200  0.2214  0.2737
10938SOL    HW137270   7.171   1.784   0.419  1.0626 -0.7728  0.2314
10938SOL    HW237271   7.176   1.695   0.541 -1.1760  0.0096  0.9561
10939SOL     OW37272   8.763  10.441   9.277  0.0046  0.0354  0.1407
10939SOL    HW137273   8.785  10.354   9.310  0.1977 -0.6673 -1.7603
10939SOL    HW237274   8.848  10.482   9.259 -0.0266  1.1296  2.1254
10940SOL     OW37275   1.686  10.895   9.133 -0.0814  0.4536  0.1238
10940SOL    HW137276   1.706  10.823   9.193  0.3706  1.4580  1.2192
10940SOL    HW237277   1.711  10.974   9.181 -0.9722  1.3795 -0.8748
10941SOL     OW37278  10.035   3.840   8.340  0.2392 -0.0250 -0.4947
10941SOL    HW137279  10.033   3.775   8.410 -0.2490  0.1986 -0.2951
10941SOL    HW237280  10.035   3.924   8.386  0.4515  0.1218 -0.7576
10942SOL     OW37281   5.236   6.068   7.870 -0.1460 -0.0033  0.0435
10942SOL    HW137282   5.193   5.983   7.857 -1.0014  0.0684  2.0583
10942SOL    HW237283   5.317   6.046   7.916  0.2761  0.1900 -0.5870
10943SOL     OW37284   1.979   7.766   9.559  0.6063  0.0395 -0.3135
10943SOL    HW137285   1.993   7.795   9.649  2.3379 -1.0498 -0.1903
10943SOL    HW237286   1.951   7.845   9.513  1.1646  0.9574  0.8627
10944SOL     OW37287   0.617   9.289   7.851  0.1449 -0.1679  0.2247
10944SOL    HW137288   0.600   9.234   7.927 -0.4317 -0.1364  0.1165
10944SOL    HW237289   0.568   9.369   7.867  0.5027  0.0785  0.0988
10945SOL     OW37290   7.303   8.806   8.349  0.2479  0.1741 -0.0077
10945SOL    HW137291   7.314   8.893   8.310  1.4259 -0.1264 -0.3833
10945SOL    HW237292   7.347   8.812   8.434  1.2936 -0.3522 -0.4940
10946SOL     OW37293  10.028   8.159   2.854 -0.0921  0.2695 -0.3454
10946SOL    HW137294  10.111   8.156   2.902 -0.3956 -0.6770  0.1484
10946SOL    HW237295  10.054   8.155   2.762  0.4283  0.5673 -0.2160
10947SOL     OW37296  10.385  10.551   2.806 -0.2002 -0.0026 -0.0788
10947SOL    HW137297  10.434  10.559   2.888  1.1066 -0.3927 -0.7943
10947SOL    HW237298  10.294  10.559   2.832  0.1769 -0.3117  1.4470
10948SOL     OW37299   9.521   8.102   6.753 -0.0732 -0.3429  0.6109
10948SOL    HW137300   9.445   8.159   6.768  0.1032  0.9896 -2.6480
10948SOL    HW237301   9.579   8.155   6.697  2.0325 -2.2935  0.8238
10949SOL     OW37302   5.159  10.551   3.202  0.0271  0.3294  0.0146
10949SOL    HW137303   5.151  10.457   3.187 -0.4560  0.5053 -0.9347
10949SOL    HW237304   5.212  10.559   3.281 -0.7139 -0.7529  0.6468
10950SOL     OW37305  10.574   4.016   2.353  0.0100  0.3415 -0.2714
10950SOL    HW137306  10.583   3.987   2.262  0.7251 -1.0459  0.2180
10950SOL    HW237307  10.632   3.959   2.403 -0.1324  1.2822  1.0366
10951SOL     OW37308   8.655   2.195  10.336  0.0126 -0.1614  0.0875
10951SOL    HW137309   8.645   2.208  10.431 -0.7756 -3.2283  0.5434
10951SOL    HW237310   8.748   2.212  10.319 -0.0237  1.3761  1.1741
10952SOL     OW37311   7.326   4.426   3.755 -0.1766  0.4101 -0.3013
10952SOL    HW137312   7.270   4.377   3.695 -0.0887  1.3107 -1.1516
10952SOL    HW237313   7.372   4.359   3.806 -2.0191 -0.3510  0.4381
10953SOL     OW37314   5.409   5.604   4.503 -0.3822 -0.2023  0.8523
10953SOL    HW137315   5.478   5.548   4.468 -0.4635  1.0679 -1.5162
10953SOL    HW237316   5.453   5.660   4.567 -0.1184 -2.1926  2.5233
10954SOL     OW37317   6.839   4.990   0.918  0.7944  1.3510 -0.1159
10954SOL    HW137318   6.773   5.051   0.950 -0.0088  0.3393  0.2053
10954SOL    HW237319   6.800   4.903   0.931  1.9664  0.7594 -0.4209
10955SOL     OW37320   8.572   8.929   6.146  0.3122  0.2616  0.3830
10955SOL    HW137321   8.567   9.025   6.138 -0.8476  0.1559 -0.4660
10955SOL    HW237322   8.558   8.897   6.057  1.3764 -0.6964  0.5472
10956SOL     OW37323   3.776   8.885   0.779 -0.0049  0.0701  0.1608
10956SOL    HW137324   3.776   8.810   0.839 -1.7905  0.6296  0.9459
10956SOL    HW237325   3.722   8.857   0.705 -1.0113  0.6727  0.6401
10957SOL     OW37326   2.147  11.008   3.804 -0.0056 -0.4261 -0.2173
10957SOL    HW137327   2.173  11.099   3.792 -0.6069 -0.1969  0.1594
10957SOL    HW237328   2.122  11.002   3.896 -0.3723 -0.8655 -0.3425
10958SOL     OW37329   1.316   3.152   9.491 -0.1383  0.1825  0.5541
10958SOL    HW137330   1.292   3.242   9.513 -0.1214 -0.2797  2.6374
10958SOL    HW237331   1.233   3.104   9.492  0.0116 -0.0757  0.8166
10959SOL     OW37332   4.733   3.848   6.367 -0.1407  0.5031  0.2428
10959SOL    HW137333   4.807   3.890   6.411 -0.4154 -0.8608  2.1862
10959SOL    HW237334   4.772   3.792   6.300  0.4719  1.0657  0.1328
10960SOL     OW37335   0.754   7.174   5.399  0.1136  0.5658  0.1829
10960SOL    HW137336   0.689   7.200   5.464 -0.3152  0.4292 -0.1859
10960SOL    HW237337   0.805   7.254   5.382 -0.8934  1.0668 -0.5969
10961SOL     OW37338   9.944   8.410   9.773 -0.4381 -0.2507  0.4488
10961SOL    HW137339   9.894   8.333   9.801  1.3179 -0.7517  2.4251
10961SOL    HW237340   9.967   8.455   9.854  0.6536  1.0224 -0.5237
10962SOL     OW37341   8.657   4.294   2.523  0.8177  0.1221 -0.3668
10962SOL    HW137342   8.586   4.343   2.482  0.1328 -1.3455 -1.0378
10962SOL    HW237343   8.697   4.246   2.450  1.3424 -0.4187  0.2685
10963SOL     OW37344   8.767   3.142   3.242  0.0501  0.0063 -0.1655
10963SOL    HW137345   8.739   3.078   3.307  0.8418  0.2833  0.4568
10963SOL    HW237346   8.835   3.098   3.192 -2.1758 -1.1109 -2.4846
10964SOL     OW37347   3.194   2.869   3.339  0.2228  0.1350  0.5430
10964SOL    HW137348   3.112   2.830   3.371 -0.5755 -1.0931 -2.5925
10964SOL    HW237349   3.174   2.963   3.332 -1.4522 -0.2630 -1.2230
10965SOL     OW37350   1.107   5.443   0.948 -0.3906 -0.4619 -0.6988
10965SOL    HW137351   1.136   5.391   0.873 -0.7192  0.3232 -1.3911
10965SOL    HW237352   1.106   5.381   1.021  0.6739 -1.0664 -1.1704
10966SOL     OW37353   9.932   3.679   0.222  0.1972 -0.0211  0.2894
10966SOL    HW137354   9.955   3.737   0.294  0.2334 -0.1064  0.3470
10966SOL    HW237355   9.843   3.650   0.242 -0.0854  0.5597 -0.0984
10967SOL     OW37356   7.774   3.383   1.906  0.3453 -0.7365 -0.2414
10967SOL    HW137357   7.756   3.426   1.822  1.1839  0.9558  0.3950
10967SOL    HW237358   7.718   3.428   1.969  0.7170 -1.0664  0.3356
10968SOL     OW37359   9.556   8.697   0.253 -0.3501 -0.2457 -0.6066
10968SOL    HW137360   9.480   8.640   0.249 -0.2471 -0.4622  0.4162
10968SOL    HW237361   9.520   8.786   0.254 -0.6346 -0.3574  0.5481
10969SOL     OW37362   9.543   2.502   4.916  0.6133  0.0493 -0.2196
10969SOL    HW137363   9.472   2.489   4.853  1.2785  0.5032 -1.0855
10969SOL    HW237364   9.547   2.597   4.928  0.3548 -0.0431  0.6898
10970SOL     OW37365   5.973   8.387   1.479 -0.0461  0.3221 -0.1841
10970SOL    HW137366   5.925   8.340   1.412 -2.6863  2.3301  0.1293
10970SOL    HW237367   6.028   8.449   1.431 -0.8155  0.7389 -0.5492
10971SOL     OW37368   0.340   2.791   4.342  0.2311  0.3752  0.0681
10971SOL    HW137369   0.274   2.727   4.368 -0.8164  0.9275 -1.1346
10971SOL    HW237370   0.390   2.747   4.273 -0.5387  0.8508 -0.8137
10972SOL     OW37371   5.457  10.810   0.636 -0.0214  0.3920  0.1345
10972SOL    HW137372   5.408  10.889   0.657  1.1933  1.0756  0.4753
10972SOL    HW237373   5.519  10.837   0.568  0.4660 -0.2509  0.3129
10973SOL     OW37374   3.893   1.838   4.684 -0.4210 -0.0567  0.2021
10973SOL    HW137375   3.869   1.912   4.739 -0.4474 -0.7812  1.1802
10973SOL    HW237376   3.936   1.877   4.608 -0.0560  0.9352  0.9066
10974SOL     OW37377   1.140   2.260   0.403 -0.2400  0.2553 -0.2157
10974SOL    HW137378   1.064   2.206   0.384 -0.8217  1.0346 -0.1647
10974SOL    HW237379   1.184   2.215   0.475 -1.1300  0.2336  0.3402
10975SOL     OW37380   0.018   3.996   9.763 -0.4194  0.6244  0.0852
10975SOL    HW137381   0.057   4.023   9.846  1.0719 -0.9200 -0.0645
10975SOL    HW237382  -0.029   4.074   9.733  2.0345  2.4473  0.6161
10976SOL     OW37383   9.331   9.167   6.810 -0.9383  0.7652 -0.0409
10976SOL    HW137384   9.313   9.077   6.839  0.4922  0.3172 -0.4340
10976SOL    HW237385   9.331   9.218   6.891  3.0019 -0.4661  0.9604
10977SOL     OW37386   1.417  10.889   1.524  0.1530  0.0749  0.3897
10977SOL    HW137387   1.510  10.882   1.547  0.1917  1.0010  0.5468
10977SOL    HW237388   1.414  10.959   1.458 -0.5177  0.5396  0.9066
10978SOL     OW37389   9.792   3.766   4.947 -0.2426 -0.2605  0.2994
10978SOL    HW137390   9.857   3.775   4.877 -1.1194 -0.7973 -0.6127
10978SOL    HW237391   9.795   3.673   4.970  1.3622  0.1967  2.3385
10979SOL     OW37392   1.556   9.251  10.788  0.2429  0.2612 -0.3177
10979SOL    HW137393   1.507   9.333  10.788  0.4309  0.3838 -1.1709
10979SOL    HW237394   1.490   9.183  10.800  0.0624  0.5228  0.1783
10980SOL     OW37395   5.878   5.505   0.027  0.2467  0.4696  0.2107
10980SOL    HW137396   5.881   5.454   0.108 -0.1594 -0.6350 -0.4316
10980SOL    HW237397   5.959   5.556   0.027  2.5091 -2.7489 -0.6663
10981SOL     OW37398   0.001   3.103   3.711 -0.5238  0.0830  0.1145
10981SOL    HW137399   0.089   3.082   3.743  0.5870  0.8374 -2.2362
10981SOL    HW237400  -0.025   3.027   3.660 -0.9846  0.1097  0.3046
10982SOL     OW37401   3.808   4.947   1.501 -0.3703 -0.1954  0.3612
10982SOL    HW137402   3.724   4.901   1.501 -1.4827  1.7379  1.1695
10982SOL    HW237403   3.785   5.039   1.512  1.9300  0.2854  1.6780
10983SOL     OW37404  10.372   8.455   2.584  0.1940  0.4125  0.1278
10983SOL    HW137405  10.318   8.396   2.533 -1.0002  0.0022  1.7839
10983SOL    HW237406  10.326   8.539   2.581 -1.4404 -0.2725  2.6987
10984SOL     OW37407   2.836   3.672   8.792 -0.5845  0.6896  0.2578
10984SOL    HW137408   2.917   3.683   8.743  0.9655 -1.4087  2.0910
10984SOL    HW237409   2.834   3.746   8.852  1.2305 -0.3273  1.6893
10985SOL     OW37410  11.044   0.992   0.720 -0.0451 -0.0787  0.8153
10985SOL    HW137411  10.976   0.967   0.783  1.1203 -3.0460  1.0594
10985SOL    HW237412  11.023   0.942   0.641  1.3095 -0.3381  0.5940
10986SOL     OW37413   8.650   2.936   7.127  0.1054 -0.3632  0.1119
10986SOL    HW137414   8.744   2.955   7.128  0.2645 -0.9156  2.7484
10986SOL    HW237415   8.609   3.018   7.153 -0.2497  0.1201 -1.8569
10987SOL     OW37416   3.177   6.008   8.156  0.1560 -0.4544 -0.4870
10987SOL    HW137417   3.144   5.919   8.143  1.1821 -1.0171  0.5749
10987SOL    HW237418   3.245   5.999   8.223  0.1058  1.1753 -0.1760
10988SOL     OW37419   0.405   5.318   1.903  0.2965  0.4959  0.1770
10988SOL    HW137420   0.413   5.314   1.807  1.7538  1.5884  0.2148
10988SOL    HW237421   0.354   5.396   1.920 -1.1034 -0.4097  0.2841
10989SOL     OW37422   2.955   7.133  10.306  0.6684  0.1802 -0.0308
10989SOL    HW137423   2.897   7.107  10.377  1.7130 -3.4158 -0.2578
10989SOL    HW237424   3.031   7.172  10.351 -0.0359  0.8672  0.5807
10990SOL     OW37425   5.054   4.379   3.483 -0.2253  0.0521  0.3035
10990SOL    HW137426   4.985   4.445   3.482 -1.5979 -1.3334 -0.2483
10990SOL    HW237427   5.054   4.345   3.572  0.9717  1.2430  0.7892
10991SOL     OW37428   0.270   0.124   5.691  0.2004  0.0758 -0.1751
10991SOL    HW137429   0.291   0.183   5.762  0.6728  0.7128 -0.8244
10991SOL    HW237430   0.219   0.053   5.731 -2.0751  1.8778  0.3016
10992SOL     OW37431   3.118   0.010   2.818  0.1546  0.0309  0.1242
10992SOL    HW137432   3.149  -0.078   2.796  1.4250 -0.0218  1.9218
10992SOL    HW237433   3.131   0.060   2.738 -1.4154 -1.5850 -1.2196
10993SOL     OW37434   7.305   9.059   1.173  0.2011 -0.0804  0.1907
10993SOL    HW137435   7.307   9.153   1.156 -3.1108 -0.2045 -1.7166
10993SOL    HW237436   7.367   9.022   1.110  0.8095  0.7181  0.3036
10994SOL     OW37437   2.647  10.706   1.957  0.2374  0.3883  0.0375
10994SOL    HW137438   2.604  10.788   1.933  1.4650  1.4022  1.1441
10994SOL    HW237439   2.597  10.638   1.910 -0.6954  1.7584 -1.0502
10995SOL     OW37440   4.885   0.989   4.630 -0.3969  0.2890  0.3133
10995SOL    HW137441   4.961   0.950   4.671  0.4421  0.9350 -0.5715
10995SOL    HW237442   4.842   0.917   4.584  1.7361  0.4735 -2.2186
10996SOL     OW37443   2.512   7.500   8.367 -0.3882 -0.4215 -0.1524
10996SOL    HW137444   2.461   7.565   8.319 -0.5659  1.2265  2.1438
10996SOL    HW237445   2.466   7.417   8.349 -1.7714  0.4735 -0.9698
10997SOL     OW37446   3.167   9.518   2.269  0.0652  0.0961  0.5150
10997SOL    HW137447   3.190   9.586   2.331  1.1116  1.1999 -1.0248
10997SOL    HW237448   3.243   9.510   2.212 -1.2859 -0.0035 -1.3757
10998SOL     OW37449   1.999  10.947   1.299 -0.5549 -0.2016 -0.0851
10998SOL    HW137450   1.964  11.031   1.270 -1.4732 -0.1270  1.1564
10998SOL    HW237451   2.079  10.969   1.347 -0.5585 -0.0699 -0.1420
10999SOL     OW37452   8.552   1.131   4.194  0.2174 -0.6265 -0.3962
10999SOL    HW137453   8.514   1.082   4.122 -0.7392 -1.0772  0.3979
10999SOL    HW237454   8.520   1.088   4.273 -2.8570  2.7415  0.4799
11000SOL     OW37455  10.451   6.446   6.600 -0.6746  0.2682 -0.0328
11000SOL    HW137456  10.528   6.472   6.549 -0.8178 -0.1493 -0.4746
11000SOL    HW237457  10.485   6.388   6.667 -0.4432  1.0602  0.5466
11001SOL     OW37458   2.044   1.653   0.852 -0.6036  0.1665  0.1434
11001SOL    HW137459   2.071   1.563   0.868 -0.9661  0.1123  0.4590
11001SOL    HW237460   2.120   1.706   0.877 -0.4972 -0.0296  0.2389
11002SOL     OW37461   0.157   8.771   3.177  0.0600 -0.4236 -0.6917
11002SOL    HW137462   0.084   8.829   3.157 -0.3409 -0.4685  0.5791
11002SOL    HW237463   0.116   8.689   3.206  0.5098  0.2965  2.2817
11003SOL     OW37464   0.102   9.713   8.964  0.9437 -0.2548 -0.0571
11003SOL    HW137465   0.104   9.621   8.989  0.5434 -0.3282 -0.2852
11003SOL    HW237466   0.010   9.732   8.948  1.1884 -0.3194 -1.8407
11004SOL     OW37467   0.783   6.286   9.383 -0.3099 -0.3969 -0.8440
11004SOL    HW137468   0.713   6.351   9.393 -0.1316 -0.1853 -0.9593
11004SOL    HW237469   0.802   6.258   9.472  1.2077  1.4065 -0.5289
11005SOL     OW37470   0.972   3.796   3.137 -0.3284 -0.9146  0.2999
11005SOL    HW137471   1.003   3.799   3.046 -0.7446 -0.1991  0.1739
11005SOL    HW237472   0.916   3.873   3.146  0.2706 -0.5828  1.3688
11006SOL     OW37473   9.936   6.864   7.286  0.8865  0.1866 -0.0471
11006SOL    HW137474   9.971   6.903   7.206 -0.8344  0.2400 -0.8235
11006SOL    HW237475   9.959   6.771   7.280  2.9566  0.5990  0.6720
11007SOL     OW37476   1.486   2.688   9.559 -0.3586  0.0508 -0.4314
11007SOL    HW137477   1.490   2.592   9.552 -2.0808  0.0529 -2.3322
11007SOL    HW237478   1.401   2.705   9.599  0.6463  0.8041  1.5045
11008SOL     OW37479   7.589   1.588   4.333  0.2756  0.4658 -0.2205
11008SOL    HW137480   7.516   1.591   4.272  1.2023 -1.7925 -1.5644
11008SOL    HW237481   7.648   1.521   4.297  0.2706 -1.9882  3.7994
11009SOL     OW37482   9.782   2.370  10.231  0.6514  0.1755  0.3708
11009SOL    HW137483   9.743   2.400  10.313 -1.4712 -1.8931  0.2342
11009SOL    HW237484   9.733   2.418  10.163 -0.4418 -1.0525  0.2532
11010SOL     OW37485  10.212  10.776   1.209  0.3712  0.1761 -0.0257
11010SOL    HW137486  10.241  10.847   1.266  1.2718  0.1066 -0.3680
11010SOL    HW237487  10.211  10.699   1.266 -1.9469  0.6598  0.6942
11011SOL     OW37488   4.436   1.298   1.364  0.1059 -0.4339  0.2964
11011SOL    HW137489   4.487   1.289   1.444  0.4781  0.2987  0.1553
11011SOL    HW237490   4.468   1.228   1.307  0.1990 -0.6406  0.6014
11012SOL     OW37491   6.634   5.352  10.248  0.4909 -0.1113  0.2986
11012SOL    HW137492   6.692   5.279  10.271 -0.4487 -0.9629  0.0378
11012SOL    HW237493   6.558   5.310  10.209 -0.3490  0.9875  0.7262
11013SOL     OW37494   9.905  10.925   5.080 -0.1968  0.1290 -0.0467
11013SOL    HW137495   9.989  10.964   5.057  0.1259 -0.0635  0.7700
11013SOL    HW237496   9.927  10.848   5.132 -0.8579 -0.4536 -0.6021
11014SOL     OW37497   9.641   7.986   1.134 -0.2226 -0.2604 -0.2885
11014SOL    HW137498   9.615   7.937   1.212 -1.9514 -1.6377 -1.6079
11014SOL    HW237499   9.712   8.043   1.162  0.8388 -2.4237  1.7383
11015SOL     OW37500   4.980   2.020   8.594 -0.1609 -0.2694 -0.5530
11015SOL    HW137501   4.922   2.076   8.646 -1.7227 -1.5140 -0.8638
11015SOL    HW237502   5.067   2.036   8.630 -0.7772  1.1447  0.4177
11016SOL     OW37503   2.907   6.689   4.267  0.3553  0.5393 -0.5518
11016SOL    HW137504   2.988   6.644   4.290  0.5671  1.9820  1.8958
11016SOL    HW237505   2.924   6.727   4.181  1.5901 -0.6841 -0.8805
11017SOL     OW37506   3.273   4.048   2.721 -0.1557 -0.0139 -0.2514
11017SOL    HW137507   3.286   3.955   2.740 -0.7209 -0.5060 -2.0729
11017SOL    HW237508   3.201   4.049   2.658 -0.5044  1.7189  0.1385
11018SOL     OW37509   0.968   5.315   4.455 -0.0934 -0.0361  0.3305
11018SOL    HW137510   0.935   5.379   4.519  0.5296 -0.7608  1.4237
11018SOL    HW237511   0.922   5.335   4.374  0.9260  2.6066  0.2801
11019SOL     OW37512   6.927   6.438   0.251 -0.2313  0.0441  0.3213
11019SOL    HW137513   6.960   6.511   0.198  2.2780 -0.1569  1.4615
11019SOL    HW237514   6.931   6.469   0.341  1.1636 -1.5392  0.8617
11020SOL     OW37515   8.365   0.370   0.118 -0.0675  0.1254  0.5740
11020SOL    HW137516   8.274   0.396   0.104  0.1014  0.6233  0.3652
11020SOL    HW237517   8.370   0.344   0.210 -0.1228  1.3669  0.9414
11021SOL     OW37518  10.905   9.716   0.495 -0.1416 -0.9291 -0.6556
11021SOL    HW137519  10.888   9.690   0.586  1.1075 -1.8058 -0.6610
11021SOL    HW237520  10.856   9.653   0.443  0.3518 -1.3391 -0.6196
11022SOL     OW37521   2.082  10.962   5.424 -0.0461  0.4040 -0.0123
11022SOL    HW137522   2.041  11.025   5.483 -3.8579  0.1511 -2.0258
11022SOL    HW237523   2.021  10.889   5.421  1.6003 -1.0180 -1.8023
11023SOL     OW37524   1.250   7.121   1.703  0.4074 -0.5182 -0.2323
11023SOL    HW137525   1.163   7.104   1.667  0.7964 -1.4404 -0.7629
11023SOL    HW237526   1.241   7.103   1.797  0.0020 -0.5029 -0.2651
11024SOL     OW37527   4.918   0.150   8.286  0.1732  0.1635 -0.2093
11024SOL    HW137528   4.850   0.214   8.266  1.1864  2.3018  2.4707
11024SOL    HW237529   4.871   0.075   8.321 -0.9610  0.1377 -1.7297
11025SOL     OW37530   3.639   8.231   8.762 -0.0675  0.3564 -0.4793
11025SOL    HW137531   3.544   8.233   8.770  0.0743 -0.2202  2.4241
11025SOL    HW237532   3.671   8.242   8.852  2.6404  1.3233 -1.4669
11026SOL     OW37533   7.260   5.547   9.643 -0.0981 -0.1451  0.2749
11026SOL    HW137534   7.266   5.634   9.683  0.0452 -0.7842  1.7164
11026SOL    HW237535   7.166   5.528   9.643 -0.0974 -0.1497  0.3272
11027SOL     OW37536   1.627   1.347  10.362 -0.4670 -0.5796 -0.5302
11027SOL    HW137537   1.685   1.330  10.288 -1.0485 -2.4961 -0.5837
11027SOL    HW237538   1.683   1.342  10.439  0.3572  2.4436 -0.8011
11028SOL     OW37539   4.124   8.673   6.666 -0.2553  0.1147  0.1181
11028SOL    HW137540   4.163   8.622   6.737 -0.3583  0.8375  0.7028
11028SOL    HW237541   4.193   8.679   6.600 -0.1422 -0.5198  0.1706
11029SOL     OW37542   8.347   7.480   6.414 -0.7108  0.1936 -0.2523
11029SOL    HW137543   8.441   7.496   6.427 -0.9249  0.2897  1.5179
11029SOL    HW237544   8.324   7.532   6.338  0.6813  0.1522 -0.7259
11030SOL     OW37545   1.267   2.957   6.395 -0.2403 -0.0682  0.4434
11030SOL    HW137546   1.183   2.955   6.349  1.4964 -2.1233 -3.0702
11030SOL    HW237547   1.286   3.050   6.406 -0.8962  0.6324 -3.0863
11031SOL     OW37548   5.567   8.506   7.840  0.2495 -0.2665  0.1880
11031SOL    HW137549   5.654   8.473   7.816  1.1180  0.5918  1.9696
11031SOL    HW237550   5.554   8.581   7.781  1.0084 -0.0155  0.3178
11032SOL     OW37551   2.422   9.560   1.282 -0.0753  0.1405  0.2238
11032SOL    HW137552   2.466   9.519   1.208  2.0992 -2.1241  2.5279
11032SOL    HW237553   2.448   9.652   1.277 -2.5176  0.8493 -3.3579
11033SOL     OW37554   1.552   2.336   5.626 -0.1022  0.4620  0.4752
11033SOL    HW137555   1.623   2.399   5.619 -0.5353  1.2275  2.4276
11033SOL    HW237556   1.560   2.282   5.547  2.3818  0.7693  0.4480
11034SOL     OW37557   5.196  10.360   9.769  0.1074 -0.1018 -0.1491
11034SOL    HW137558   5.280  10.400   9.792  1.0098 -1.5081 -0.8682
11034SOL    HW237559   5.136  10.434   9.762  1.3252  0.9648  0.1660
11035SOL     OW37560   9.565  10.899   0.715 -0.1825 -0.1824 -0.0175
11035SOL    HW137561   9.540  10.814   0.678  0.0483 -0.4016  0.3281
11035SOL    HW237562   9.500  10.960   0.680 -0.3058 -0.4854 -0.3305
11036SOL     OW37563   8.972   3.567   0.604  1.1875 -0.0701 -0.1194
11036SOL    HW137564   8.960   3.662   0.603 -0.7029 -0.2466  0.9133
11036SOL    HW237565   8.946   3.538   0.516  0.3102  0.2398  0.0276
11037SOL     OW37566   4.790   2.666   5.467 -0.4230  0.1761  0.9067
11037SOL    HW137567   4.720   2.623   5.417  2.4802 -3.5279 -0.3555
11037SOL    HW237568   4.834   2.721   5.403 -0.0838 -0.2189  0.7982
11038SOL     OW37569   3.883   2.877   0.932  0.3602 -0.9393 -0.3360
11038SOL    HW137570   3.844   2.907   1.014 -0.3461 -0.0246 -0.9856
11038SOL    HW237571   3.809   2.843   0.882  0.6703 -0.8021 -0.8939
11039SOL     OW37572   5.165   2.137   1.324  0.0402 -0.0432 -0.3907
11039SOL    HW137573   5.132   2.117   1.237 -0.6620  0.1134 -0.1736
11039SOL    HW237574   5.235   2.074   1.339 -1.0128 -1.2537 -0.3640
11040SOL     OW37575   8.963   8.975   1.385 -0.3116  0.1119  0.0563
11040SOL    HW137576   8.976   8.983   1.479  0.2103 -0.4868  0.0381
11040SOL    HW237577   8.984   8.884   1.365 -1.7908 -0.1471 -0.4245
11041SOL     OW37578   7.753   3.009   9.192  0.1833 -0.3855 -0.1027
11041SOL    HW137579   7.845   2.997   9.170  0.0624 -1.9792  0.1193
11041SOL    HW237580   7.742   3.104   9.200  1.2437 -0.0142 -2.3840
11042SOL     OW37581   0.499  10.409  10.155  0.0670  0.1086  0.4374
11042SOL    HW137582   0.448  10.354  10.214  1.7845  0.5608  2.4649
11042SOL    HW237583   0.455  10.493  10.156 -0.2195 -0.0426  0.6372
11043SOL     OW37584   1.611   3.058   7.921  0.4346 -0.2749  0.0478
11043SOL    HW137585   1.559   2.978   7.915 -3.3350  1.9887 -0.9618
11043SOL    HW237586   1.578   3.102   7.999  0.7796  1.3044 -0.6617
11044SOL     OW37587   2.489   9.715   2.158  0.1427 -0.2482 -0.6718
11044SOL    HW137588   2.559   9.697   2.096  0.6475 -0.4788 -0.0373
11044SOL    HW237589   2.433   9.638   2.155  0.5886 -0.5925 -0.2771
11045SOL     OW37590  10.138   8.007   9.714  0.6712 -0.2057  0.8308
11045SOL    HW137591  10.085   8.006   9.793 -0.4895 -0.6254  0.0744
11045SOL    HW237592  10.174   8.096   9.710  0.1447  0.0413  1.4493
11046SOL     OW37593   7.231   6.436   4.371  0.4202 -0.4918  0.1201
11046SOL    HW137594   7.247   6.412   4.280  1.5894  0.5456  0.0205
11046SOL    HW237595   7.147   6.396   4.392  0.0678 -0.6459 -1.4491
11047SOL     OW37596  11.034   5.973   1.147  0.2119  0.4879 -0.2442
11047SOL    HW137597  11.093   6.022   1.090 -0.0763  0.3860 -0.6311
11047SOL    HW237598  11.087   5.901   1.180  0.3091  0.4090 -0.5754
11048SOL     OW37599   0.958   8.911   3.107  0.0978  0.2396 -0.1293
11048SOL    HW137600   0.885   8.964   3.074 -0.7153  1.0589  2.7019
11048SOL    HW237601   1.007   8.970   3.165  1.0365 -1.2219  0.6308
11049SOL     OW37602   0.908   7.090   1.585  0.1533  1.1030 -0.2040
11049SOL    HW137603   0.857   7.011   1.567  1.6879  0.2419 -0.9424
11049SOL    HW237604   0.872   7.123   1.667 -0.8360 -0.0877 -0.1287
11050SOL     OW37605   4.181  10.260   7.818 -0.0943 -0.2147  0.0697
11050SOL    HW137606   4.153  10.252   7.909  1.3823  3.5790  1.0530
11050SOL    HW237607   4.265  10.214   7.815 -1.2483 -2.4118 -0.0867
11051SOL     OW37608   8.552   9.903   2.723  0.1868  0.2149 -0.2088
11051SOL    HW137609   8.566   9.971   2.789  0.5006  1.4497 -1.5020
11051SOL    HW237610   8.470   9.928   2.681  0.7437  0.3063 -1.2744
11052SOL     OW37611   0.797   4.939   0.802 -0.2437 -0.1246  0.3978
11052SOL    HW137612   0.876   4.901   0.840  0.6031  1.2555  0.0875
11052SOL    HW237613   0.803   5.032   0.823 -2.0544 -0.0714  0.8039
11053SOL     OW37614   8.897   9.229   0.231 -0.4866 -0.6365 -0.0378
11053SOL    HW137615   8.838   9.299   0.203  1.1682  0.8054 -0.0992
11053SOL    HW237616   8.952   9.212   0.155  0.7816 -0.1981  0.7441
11054SOL     OW37617   4.455   0.378   4.196  0.0215  0.2396 -0.1247
11054SOL    HW137618   4.513   0.451   4.174  1.4709 -1.2191 -1.2925
11054SOL    HW237619   4.379   0.420   4.236  0.6089  2.4322 -1.1618
11055SOL     OW37620   2.429   4.685   0.971 -0.2033 -0.2872  0.2605
11055SOL    HW137621   2.448   4.617   1.035 -1.3669 -1.6642 -0.7846
11055SOL    HW237622   2.475   4.657   0.892  0.5232  0.9461  0.2164
11056SOL     OW37623  10.451  10.165   7.721 -0.1137  0.4009 -0.2656
11056SOL    HW137624  10.541  10.197   7.723 -0.1194  0.4204 -0.3412
11056SOL    HW237625  10.458  10.072   7.742 -0.2244  0.7165  1.3492
11057SOL     OW37626   1.053   8.495   2.872  0.2203 -0.4151  0.2320
11057SOL    HW137627   1.079   8.569   2.926 -0.3639  0.4749 -0.6548
11057SOL    HW237628   0.959   8.506   2.859  0.3289 -0.6365 -0.8840
11058SOL     OW37629  11.018   7.840   9.989  0.1443  0.0453 -0.1836
11058SOL    HW137630  11.050   7.828  10.078  1.1024  0.8400 -0.4003
11058SOL    HW237631  11.091   7.812   9.933  0.4330  1.6880 -0.6844
11059SOL     OW37632   5.140  10.075   6.854  0.3358 -0.0656  0.5641
11059SOL    HW137633   5.231  10.048   6.840  0.3912 -0.4712  1.5923
11059SOL    HW237634   5.099   9.998   6.894 -1.3667 -1.1791 -2.8972
11060SOL     OW37635  10.597   8.801   5.399 -0.0952  0.6979  0.4354
11060SOL    HW137636  10.572   8.805   5.306 -3.0992  1.5022  1.1660
11060SOL    HW237637  10.692   8.813   5.398  0.3362 -1.7145 -2.6496
11061SOL     OW37638  10.389   8.161   7.571 -0.6175  0.1166 -0.3825
11061SOL    HW137639  10.401   8.075   7.531  1.3902  0.3017 -0.2821
11061SOL    HW237640  10.370   8.143   7.663 -1.6151 -0.2208 -0.6387
11062SOL     OW37641   6.024   9.487   2.693  0.0096  0.1307  0.4715
11062SOL    HW137642   6.020   9.415   2.757 -1.3364  0.3512  0.6499
11062SOL    HW237643   6.109   9.474   2.650 -0.2128 -1.6028  0.4572
11063SOL     OW37644   9.954   4.554   0.955 -0.1506 -0.6483  0.5903
11063SOL    HW137645  10.049   4.543   0.942  0.2717  1.9106  1.0023
11063SOL    HW237646   9.944   4.564   1.049 -0.8910 -1.1646  0.5741
11064SOL     OW37647   7.866  10.637   0.198  0.1421 -0.0279  0.0832
11064SOL    HW137648   7.785  10.685   0.213 -1.5797 -2.5934 -0.3571
11064SOL    HW237649   7.883  10.592   0.281  0.6096 -0.2341 -0.1207
11065SOL     OW37650   1.362   4.823   7.918 -0.1762 -0.1119  0.0239
11065SOL    HW137651   1.280   4.812   7.966 -0.6886  0.8776 -0.5834
11065SOL    HW237652   1.362   4.916   7.892 -0.1642 -0.6898 -2.2735
11066SOL     OW37653   8.078   3.266   6.447  0.5011 -0.8804  1.0017
11066SOL    HW137654   8.131   3.193   6.416 -0.3459 -0.3628 -1.9857
11066SOL    HW237655   8.120   3.343   6.408 -0.7191 -0.1764  1.0436
11067SOL     OW37656   0.348   1.249   4.925 -0.6911  0.1151  0.0562
11067SOL    HW137657   0.348   1.254   4.829 -2.6500 -1.9324 -0.1313
11067SOL    HW237658   0.422   1.193   4.946 -0.5942  0.1087 -0.2855
11068SOL     OW37659   8.821   1.633   4.860 -0.1177 -0.2466  0.0635
11068SOL    HW137660   8.818   1.711   4.916 -0.2359 -0.6156  0.5775
11068SOL    HW237661   8.735   1.632   4.818  0.7927  1.3798 -2.0153
11069SOL     OW37662   4.900   1.917   1.030  0.3142  0.4176  0.2070
11069SOL    HW137663   4.924   1.956   0.946  0.7205 -1.8362 -0.7837
11069SOL    HW237664   4.976   1.865   1.055 -0.9245 -1.3673  0.4320
11070SOL     OW37665  10.111   0.472   9.116 -0.8646  0.3663  0.4480
11070SOL    HW137666  10.150   0.538   9.059 -1.0462  0.4052  0.3713
11070SOL    HW237667  10.166   0.394   9.104  0.0467  0.8334  1.3869
11071SOL     OW37668   4.307   9.773   7.236  0.9599 -0.6434  0.0960
11071SOL    HW137669   4.304   9.866   7.216 -3.3337 -0.8868 -1.5002
11071SOL    HW237670   4.364   9.736   7.168  0.5612  0.5611 -0.9387
11072SOL     OW37671   4.689   1.369   6.340  0.4073 -0.1197 -0.4436
11072SOL    HW137672   4.662   1.373   6.249  0.3309 -1.5673 -0.5018
11072SOL    HW237673   4.637   1.437   6.383 -1.4936 -1.1388 -1.0191
11073SOL     OW37674   1.719  10.547  10.820 -0.3276 -0.0592 -0.1013
11073SOL    HW137675   1.795  10.498  10.852 -0.8966 -0.4900  0.6352
11073SOL    HW237676   1.681  10.490  10.753 -0.2648 -0.0580 -0.1374
11074SOL     OW37677   8.568   1.265   3.182  0.6534 -0.1104  0.5025
11074SOL    HW137678   8.656   1.298   3.165  0.9846 -0.6920  1.0632
11074SOL    HW237679   8.517   1.344   3.202  1.1850  0.1728  0.7682
11075SOL     OW37680   3.072   6.279  10.391  0.4518  0.1255  0.0475
11075SOL    HW137681   3.119   6.325  10.321  1.7498 -2.3413 -0.8392
11075SOL    HW237682   2.992   6.246  10.348  0.4694 -0.0562  0.1535
11076SOL     OW37683   6.360   0.582   5.483 -0.0529  0.1070  0.2239
11076SOL    HW137684   6.413   0.538   5.550  0.2366  0.0122 -0.0685
11076SOL    HW237685   6.305   0.513   5.447 -0.5417  0.2490  0.6840
11077SOL     OW37686   6.547   7.732   4.814  0.2225  0.0308  0.1141
11077SOL    HW137687   6.462   7.731   4.769  0.6402  2.8736 -0.9324
11077SOL    HW237688   6.549   7.817   4.859  2.4717 -0.0042  0.1765
11078SOL     OW37689  10.018   8.054   2.034  0.0651  0.5817  0.2098
11078SOL    HW137690  10.036   8.119   1.966 -0.4908  1.3265  0.7596
11078SOL    HW237691   9.923   8.054   2.042  0.1074  0.2288  0.7413
11079SOL     OW37692  10.373   0.241   1.642  0.4556  0.0651  0.2038
11079SOL    HW137693  10.444   0.178   1.632  0.6116  0.5801 -2.5114
11079SOL    HW237694  10.300   0.202   1.593 -0.6064  0.3618  1.4934
11080SOL     OW37695   6.997   6.316   4.420  0.0611 -0.3408 -0.7797
11080SOL    HW137696   6.958   6.249   4.363 -0.7666  0.1127 -0.7552
11080SOL    HW237697   6.923   6.354   4.467  0.6572 -0.2024  0.0705
11081SOL     OW37698   0.249   7.024   1.742 -0.3950 -0.3301 -0.0134
11081SOL    HW137699   0.269   6.992   1.830 -3.0295  0.7721  1.0894
11081SOL    HW237700   0.216   6.947   1.695  0.7215 -0.8499  0.0255
11082SOL     OW37701   3.407   3.980  10.787 -0.1923 -0.3877 -0.1622
11082SOL    HW137702   3.461   3.960  10.863  0.0926  1.8297  0.2561
11082SOL    HW237703   3.330   3.923  10.798  0.6511 -1.4025  0.8048
11083SOL     OW37704   0.287   7.973   8.355 -0.0923  0.1547  0.4112
11083SOL    HW137705   0.274   8.057   8.399 -1.6538  0.3628 -0.3685
11083SOL    HW237706   0.211   7.921   8.381  0.6901 -0.9193  0.6162
11084SOL     OW37707   7.669   4.242   6.591 -0.1203  0.0490  0.7070
11084SOL    HW137708   7.758   4.258   6.624  1.0659 -1.0642 -1.7066
11084SOL    HW237709   7.612   4.263   6.665  2.1558  0.4567  2.4571
11085SOL     OW37710   7.061   8.151   2.075 -0.1490 -0.1764  0.1652
11085SOL    HW137711   7.040   8.149   1.982 -1.9816  0.0186  0.5425
11085SOL    HW237712   7.130   8.218   2.083 -0.5757  0.4076 -0.9425
11086SOL     OW37713   4.145   1.941   0.129  0.2066 -0.2326 -0.5550
11086SOL    HW137714   4.085   2.012   0.150  1.1758  0.2538  0.7129
11086SOL    HW237715   4.096   1.861   0.149  0.6857  0.1639  2.8111
11087SOL     OW37716   4.849   4.095   8.707 -0.1342  0.2271  0.4433
11087SOL    HW137717   4.846   4.168   8.646  3.0322  0.6434  0.5972
11087SOL    HW237718   4.811   4.021   8.658  1.3034  0.8005 -1.6938
11088SOL     OW37719   0.640   2.507  10.769  0.3885 -0.0148 -0.7550
11088SOL    HW137720   0.592   2.523  10.850 -0.9620 -1.0530 -1.3226
11088SOL    HW237721   0.611   2.576  10.710 -1.1361 -1.1581 -1.3860
11089SOL     OW37722   5.073   8.688   4.073 -0.0667 -0.9758 -0.7534
11089SOL    HW137723   5.162   8.664   4.101 -0.2845 -1.1613 -0.2009
11089SOL    HW237724   5.078   8.783   4.059  0.3400 -1.0577 -1.1882
11090SOL     OW37725   1.453   9.449   6.216 -0.0971  0.1286 -1.1656
11090SOL    HW137726   1.463   9.544   6.204  0.9677  0.1882 -0.0305
11090SOL    HW237727   1.471   9.435   6.309 -0.1837 -1.2028 -1.3349
11091SOL     OW37728   9.554   9.445   5.018 -0.0493  0.1541  0.5647
11091SOL    HW137729   9.648   9.447   5.001 -0.0815  1.9714  0.4244
11091SOL    HW237730   9.517   9.512   4.960 -1.4225 -0.4373  0.7134
11092SOL     OW37731   5.869   3.396   3.642 -0.5643  0.1496 -0.2928
11092SOL    HW137732   5.951   3.411   3.594  0.7905  1.1189  2.1688
11092SOL    HW237733   5.883   3.312   3.685 -0.4907  0.7244  0.8234
11093SOL     OW37734   9.738   7.001   1.897  0.4817 -0.0218  0.4753
11093SOL    HW137735   9.763   6.954   1.977  0.7812 -0.2968  0.2216
11093SOL    HW237736   9.737   6.934   1.829  1.0871  0.3699  0.0732
11094SOL     OW37737   7.112   0.753   6.124 -0.2209  0.1475 -0.0680
11094SOL    HW137738   7.153   0.670   6.100 -0.4867 -0.0560  0.1662
11094SOL    HW237739   7.100   0.799   6.041 -1.5592 -0.7513 -0.4042
11095SOL     OW37740   0.705   3.617   1.177 -0.5050 -0.1861 -0.4423
11095SOL    HW137741   0.799   3.630   1.163 -0.3493 -1.3487 -0.5341
11095SOL    HW237742   0.679   3.556   1.108 -0.8208 -1.8165  1.0791
11096SOL     OW37743   5.114   3.247   5.906  0.2454 -0.1436  0.1710
11096SOL    HW137744   5.118   3.192   5.985  1.1697 -0.0777  0.1809
11096SOL    HW237745   5.044   3.208   5.854 -0.0752 -0.4642  0.8158
11097SOL     OW37746   0.184   0.445   7.323 -0.0589  0.3256  0.1600
11097SOL    HW137747   0.187   0.528   7.371  0.5149  0.5072 -0.1722
11097SOL    HW237748   0.209   0.379   7.388  0.3369  0.5239  0.2161
11098SOL     OW37749   3.109   2.306   9.813 -0.3086  0.1468  0.7333
11098SOL    HW137750   3.026   2.351   9.798 -0.0677  0.5692  0.6451
11098SOL    HW237751   3.085   2.215   9.827 -0.7973  0.2856  0.8122
11099SOL     OW37752   9.099   1.081   6.539  0.7072  0.2018  0.2485
11099SOL    HW137753   9.021   1.114   6.585 -0.4669  0.0125 -1.4869
11099SOL    HW237754   9.134   1.158   6.494  0.0209 -0.1848 -0.9862
11100SOL     OW37755   4.324   3.236   8.814  0.1642 -0.0450  0.3174
11100SOL    HW137756   4.364   3.323   8.818 -1.1103  0.5308  1.8520
11100SOL    HW237757   4.305   3.222   8.721  0.4849  1.2818  0.0324
11101SOL     OW37758   4.312   4.703   5.357 -0.1222 -0.4329  0.2476
11101SOL    HW137759   4.323   4.765   5.285  1.9705 -2.0448 -0.9405
11101SOL    HW237760   4.220   4.711   5.382 -0.4368  1.5387 -1.3283
11102SOL     OW37761   1.051  10.885   8.564  0.2743  0.3903  0.2799
11102SOL    HW137762   1.125  10.840   8.605  0.3885  0.8436  0.5703
11102SOL    HW237763   0.994  10.908   8.637 -0.1223  0.1080  0.0639
11103SOL     OW37764   5.910   1.094   2.108 -0.1727 -0.5532  0.0359
11103SOL    HW137765   5.995   1.096   2.064 -0.4175 -0.8913 -0.4725
11103SOL    HW237766   5.896   1.183   2.140  0.4013 -0.5150  0.1747
11104SOL     OW37767   3.318   4.332   7.795  0.2677 -0.0777 -0.1545
11104SOL    HW137768   3.252   4.397   7.772 -1.2534 -1.0048  1.4137
11104SOL    HW237769   3.391   4.384   7.831 -0.6332  0.8148  0.4265
11105SOL     OW37770   8.279  10.890   3.112  0.3616  0.4110 -0.1281
11105SOL    HW137771   8.237  10.900   3.197  1.8708  2.2387  0.4725
11105SOL    HW237772   8.213  10.920   3.049 -1.3771 -2.4676  0.1393
11106SOL     OW37773   9.815   7.774   5.679 -0.1807  0.0421 -0.1260
11106SOL    HW137774   9.845   7.810   5.763 -0.1886  0.8159 -0.4417
11106SOL    HW237775   9.857   7.689   5.672  0.6195  0.4005  0.2080
11107SOL     OW37776   5.650   9.346   4.128 -0.0461  0.5136  0.6309
11107SOL    HW137777   5.581   9.295   4.171  1.0881 -1.2372  0.4753
11107SOL    HW237778   5.604   9.397   4.062 -1.3032  0.1643  1.1982
11108SOL     OW37779   3.142   1.603   4.733  0.0007 -0.3988  0.0436
11108SOL    HW137780   3.120   1.630   4.643 -0.5775 -0.3499  0.1932
11108SOL    HW237781   3.059   1.611   4.781  0.3565 -0.2339  0.6304
11109SOL     OW37782   9.488   8.380   0.795 -0.2852 -0.1115  0.5390
11109SOL    HW137783   9.442   8.333   0.865  0.5832 -0.3188  0.9949
11109SOL    HW237784   9.435   8.458   0.780 -2.0896 -1.4919 -0.6625
11110SOL     OW37785   8.085   6.743   1.827  0.6265 -0.1768  0.5930
11110SOL    HW137786   8.119   6.680   1.891  1.5865 -0.5706 -0.2704
11110SOL    HW237787   8.149   6.815   1.829 -0.5509  0.8869  1.6978
11111SOL     OW37788   9.932   6.541   7.450  0.0588 -0.0927 -0.7009
11111SOL    HW137789   9.939   6.613   7.514 -1.6471 -0.6658  0.1878
11111SOL    HW237790   9.975   6.575   7.372  2.5457  0.5187  0.7980
11112SOL     OW37791   3.984   1.022   7.445  0.5890 -0.2540  0.3062
11112SOL    HW137792   3.892   1.002   7.459  0.7119 -2.1087 -1.1287
11112SOL    HW237793   3.986   1.117   7.429 -0.8721  0.0254  1.5251
11113SOL     OW37794  11.043   7.315   1.048  0.4714  0.2047  0.4039
11113SOL    HW137795  11.103   7.380   1.011  0.4046 -0.1608 -0.3619
11113SOL    HW237796  11.058   7.236   0.997  0.4089 -0.3403  1.2025
11114SOL     OW37797   5.906   7.408  10.359 -0.0564 -0.2673 -0.2997
11114SOL    HW137798   5.972   7.436  10.295  1.6599  1.4725  2.0517
11114SOL    HW237799   5.890   7.316  10.339  2.4107 -0.4952 -1.5525
11115SOL     OW37800   4.908   2.227   0.964  0.3767  0.6287  0.1803
11115SOL    HW137801   4.958   2.307   0.947  1.0214  0.1581 -0.1924
11115SOL    HW237802   4.855   2.247   1.041 -0.6775  1.9536 -0.8414
11116SOL     OW37803   3.215   5.438   8.060  0.0545 -0.3681 -0.9763
11116SOL    HW137804   3.290   5.434   8.001  0.4712 -2.5493 -0.3799
11116SOL    HW237805   3.139   5.424   8.004 -0.0349  2.3018 -1.6571
11117SOL     OW37806   4.139   6.986   0.304  0.5653 -0.2413 -0.5170
11117SOL    HW137807   4.101   6.922   0.245  2.8741 -2.4911  0.2872
11117SOL    HW237808   4.110   6.959   0.391  2.3002 -0.8490 -0.0829
11118SOL     OW37809   1.655   1.122   3.543  0.4139  0.6516  0.0649
11118SOL    HW137810   1.746   1.098   3.524  0.0517  1.0590 -2.5854
11118SOL    HW237811   1.616   1.137   3.457 -2.5321 -0.7614  1.0053
11119SOL     OW37812   7.652   4.850   5.935 -0.0001  0.3825 -0.3564
11119SOL    HW137813   7.596   4.909   5.885 -0.4047 -1.1440 -1.7975
11119SOL    HW237814   7.597   4.774   5.953  0.2736  0.6647  2.0960
11120SOL     OW37815   7.674  10.074   8.314 -0.1023 -0.6299  0.0265
11120SOL    HW137816   7.630   9.994   8.284  1.2179 -2.0883  1.7832
11120SOL    HW237817   7.732  10.045   8.384  0.1960  1.9496  0.9431
11121SOL     OW37818   4.675   8.642   0.266  0.0467  0.7255  0.1768
11121SOL    HW137819   4.699   8.557   0.230  0.4951  1.3208 -0.9607
11121SOL    HW237820   4.598   8.624   0.319  0.1083 -0.3830 -0.0789
11122SOL     OW37821   9.217   2.947   3.866  0.0085 -0.1224 -0.0195
11122SOL    HW137822   9.216   3.028   3.917 -0.3319  0.0010 -0.2194
11122SOL    HW237823   9.142   2.954   3.808 -0.3177 -0.8075  0.3036
11123SOL     OW37824   3.496   1.608   6.685 -0.2725  0.0566  0.0144
11123SOL    HW137825   3.462   1.686   6.728  0.6478 -0.3072  1.4926
11123SOL    HW237826   3.554   1.640   6.617 -0.9323  0.6503 -0.2781
11124SOL     OW37827   0.333   5.770   4.290  0.5204  0.3142  0.3983
11124SOL    HW137828   0.419   5.737   4.263  0.4278  1.2783 -1.2192
11124SOL    HW237829   0.346   5.801   4.380  1.9369  0.6771  0.0902
11125SOL     OW37830   0.759  11.033   1.991  0.3027  0.2702 -0.0693
11125SOL    HW137831   0.850  11.059   1.973 -0.0074  1.4849  0.0027
11125SOL    HW237832   0.761  11.002   2.082  0.7991 -0.5312 -0.3415
11126SOL     OW37833   5.177   1.304   3.591  0.2776 -0.4835  0.2351
11126SOL    HW137834   5.245   1.324   3.656  0.3351  1.2827 -0.3133
11126SOL    HW237835   5.204   1.352   3.513 -0.4855 -1.5115 -0.6789
11127SOL     OW37836   8.974   3.195   9.905 -0.6750  0.0607  0.2159
11127SOL    HW137837   9.005   3.262   9.967  1.2618  1.3996 -2.0344
11127SOL    HW237838   9.003   3.112   9.943  0.6184  0.8561  1.0534
11128SOL     OW37839   3.957   4.750   3.642  0.3849  0.0363 -0.9476
11128SOL    HW137840   4.025   4.781   3.702  2.4538  0.5659 -3.3926
11128SOL    HW237841   3.925   4.830   3.599  0.8609 -0.5361 -2.4164
11129SOL     OW37842   9.058   7.263   5.805 -0.6983 -0.2913  0.2700
11129SOL    HW137843   9.124   7.210   5.851  1.3997  0.5753 -1.5452
11129SOL    HW237844   8.983   7.205   5.795  0.6805 -2.1748  0.2938
11130SOL     OW37845  10.234   6.384   6.001  0.0936 -0.3181  0.0915
11130SOL    HW137846  10.284   6.399   5.921 -2.1737  0.0267 -1.3567
11130SOL    HW237847  10.170   6.317   5.977  0.1122 -1.0978  2.0054
11131SOL     OW37848   5.848  10.472   4.764  0.6259  0.4335  0.1542
11131SOL    HW137849   5.878  10.503   4.679 -1.6498 -1.2135 -1.3659
11131SOL    HW237850   5.752  10.472   4.757  0.4180 -1.4771  2.0357
11132SOL     OW37851   7.336   2.274   4.328 -0.1582 -0.5566 -0.8868
11132SOL    HW137852   7.384   2.214   4.270 -1.4478 -1.7157 -0.8153
11132SOL    HW237853   7.395   2.348   4.339  1.7206 -1.9979 -0.6127
11133SOL     OW37854   9.335   9.476   8.639  0.0039 -0.2196 -0.3976
11133SOL    HW137855   9.300   9.419   8.571 -0.5958 -0.7895  0.3672
11133SOL    HW237856   9.296   9.562   8.621  0.1005 -0.2893 -0.9544
11134SOL     OW37857   6.397   3.739   9.984 -0.0981  0.6789 -0.2183
11134SOL    HW137858   6.311   3.697   9.986 -0.0677  0.5577 -1.1358
11134SOL    HW237859   6.455   3.673   9.946  0.2441  1.0394 -0.3244
11135SOL     OW37860   5.036   7.510   4.772  0.2559  0.2808 -0.0603
11135SOL    HW137861   5.078   7.596   4.763 -2.3721  1.5792 -1.3474
11135SOL    HW237862   4.956   7.529   4.822 -0.6975 -1.3030 -0.9185
11136SOL     OW37863   1.361   0.839   8.130 -0.0528 -0.3177 -0.1058
11136SOL    HW137864   1.278   0.798   8.104  0.4771 -0.1962 -2.1157
11136SOL    HW237865   1.425   0.768   8.126  0.3493  0.0723 -0.8494
11137SOL     OW37866   5.098   9.292   3.365  0.2618 -0.0671 -0.0900
11137SOL    HW137867   5.079   9.254   3.451  3.7028 -1.2814  0.2940
11137SOL    HW237868   5.121   9.383   3.384 -3.3837  1.0863 -0.4347
11138SOL     OW37869   8.591  10.366   1.713 -0.3432 -0.1151 -0.0374
11138SOL    HW137870   8.542  10.447   1.700 -0.8690 -0.1958  1.2509
11138SOL    HW237871   8.528  10.306   1.752  0.7091 -0.2555  1.5826
11139SOL     OW37872   0.594   9.419   4.701 -0.4080 -0.9606  0.2107
11139SOL    HW137873   0.508   9.398   4.738 -0.4748  0.8514  1.1749
11139SOL    HW237874   0.576   9.485   4.634  0.2580 -0.4112  0.5696
11140SOL     OW37875   4.646   7.934   8.255 -0.4811 -0.0534  0.0187
11140SOL    HW137876   4.734   7.929   8.293 -1.1870  0.3941  1.7891
11140SOL    HW237877   4.630   7.846   8.220 -0.1263 -0.7478  1.5422
11141SOL     OW37878   1.795   6.278   8.080  0.2637  0.0194  0.1154
11141SOL    HW137879   1.864   6.230   8.126  1.0987 -0.0179 -1.1185
11141SOL    HW237880   1.839   6.356   8.047 -0.4220  0.2628 -0.2343
11142SOL     OW37881   1.631   9.781   7.207 -0.5227  0.1370 -0.0884
11142SOL    HW137882   1.553   9.786   7.151 -0.5915 -1.6426 -0.2245
11142SOL    HW237883   1.613   9.707   7.265  0.4812  0.6031  0.8434
11143SOL     OW37884   5.267  10.327  10.340  0.0810 -0.1674 -0.1825
11143SOL    HW137885   5.283  10.421  10.349  0.4232 -0.1318 -1.0423
11143SOL    HW237886   5.184  10.312  10.385  1.2637  0.0750  2.2505
11144SOL     OW37887   6.289   3.564   5.476  0.0464 -0.5127 -0.0452
11144SOL    HW137888   6.205   3.604   5.498 -0.4655 -2.0994  1.0528
11144SOL    HW237889   6.276   3.528   5.388  0.1169  0.6248 -0.5328
11145SOL     OW37890   4.884   0.332   7.538  0.2671 -0.1514 -0.3067
11145SOL    HW137891   4.881   0.358   7.630 -0.6383  0.9559 -0.6189
11145SOL    HW237892   4.860   0.239   7.538  0.9262 -0.3311  0.6167
11146SOL     OW37893   5.573   8.983   8.790 -0.4178  0.2144  0.5511
11146SOL    HW137894   5.554   8.920   8.720 -0.3865 -0.7266  1.3606
11146SOL    HW237895   5.564   8.932   8.871  2.7855  0.3745  1.1317
11147SOL     OW37896   8.800   8.646  10.244  0.0224  0.0353  0.8646
11147SOL    HW137897   8.748   8.595  10.307  0.1035  0.1044  0.9895
11147SOL    HW237898   8.855   8.702  10.299  1.5005 -1.2495  0.8089
11148SOL     OW37899   0.843   3.663   0.603  0.0501 -0.1993 -1.0153
11148SOL    HW137900   0.765   3.667   0.659  2.1733 -1.5680  2.3220
11148SOL    HW237901   0.845   3.573   0.571 -0.1325  0.0566 -1.7640
11149SOL     OW37902   9.643  10.385   7.371  0.1982  0.5423  0.1383
11149SOL    HW137903   9.584  10.310   7.361 -0.1874  0.6949  1.1420
11149SOL    HW237904   9.628  10.416   7.461  2.5922 -0.0826  0.8484
11150SOL     OW37905   3.869  10.804   6.779  0.1214  0.0788  0.0758
11150SOL    HW137906   3.863  10.860   6.701  1.8007 -0.0593 -0.1919
11150SOL    HW237907   3.811  10.846   6.843 -1.8133 -0.1914 -1.4439
11151SOL     OW37908   2.764   4.521   3.198  0.7441  0.1527 -0.1577
11151SOL    HW137909   2.725   4.462   3.134  2.4314  0.3601 -1.4368
11151SOL    HW237910   2.829   4.571   3.149 -0.1010  2.5785  1.0461
11152SOL     OW37911   0.260   8.554   5.092  0.1764  0.8085 -0.0098
11152SOL    HW137912   0.176   8.549   5.046  0.0473  0.5755  0.2467
11152SOL    HW237913   0.258   8.638   5.138  0.7252  1.5117 -1.2289
11153SOL     OW37914   4.008   3.641   0.163 -0.7030  0.3211 -0.2770
11153SOL    HW137915   4.023   3.565   0.219 -0.3903  0.8259  0.3325
11153SOL    HW237916   4.085   3.644   0.105 -0.5424  0.3824 -0.0608
11154SOL     OW37917   5.926   4.996   5.940  0.4957 -0.1326  0.0057
11154SOL    HW137918   5.997   5.005   5.876  1.0933  0.1838  0.6998
11154SOL    HW237919   5.877   4.919   5.911  0.5265  0.2268 -1.0487
11155SOL     OW37920   7.518   9.554   6.027 -0.0294 -1.0087 -0.1688
11155SOL    HW137921   7.467   9.505   6.090 -1.7569  1.0807  0.1751
11155SOL    HW237922   7.608   9.550   6.060 -0.8729  0.0810  2.5510
11156SOL     OW37923   9.615   2.393   6.816 -0.3420  0.0256 -0.1986
11156SOL    HW137924   9.530   2.424   6.847  0.2894  2.2662 -0.5003
11156SOL    HW237925   9.604   2.386   6.721  0.3126  2.4207 -0.5337
11157SOL     OW37926   3.616   2.132   3.516  0.0858 -0.1143  0.2124
11157SOL    HW137927   3.559   2.209   3.521  1.1056  0.6312  0.9991
11157SOL    HW237928   3.557   2.057   3.516 -0.8915  0.6405  0.7684
11158SOL     OW37929   5.825   0.275   1.008 -0.7154 -0.3105 -0.3814
11158SOL    HW137930   5.787   0.199   0.965 -1.0674 -0.6250  0.4665
11158SOL    HW237931   5.837   0.248   1.099  1.3997 -0.1561 -0.5728
11159SOL     OW37932   7.959  10.407   4.711  0.6518 -0.7788  0.3459
11159SOL    HW137933   8.023  10.472   4.741  1.8057 -2.1446  0.9224
11159SOL    HW237934   7.876  10.435   4.750  1.3536 -0.2985  1.5409
11160SOL     OW37935   5.450   2.219   3.823 -0.3654 -0.4059  0.6743
11160SOL    HW137936   5.418   2.155   3.886 -0.0555 -0.0001  1.2626
11160SOL    HW237937   5.498   2.282   3.877 -0.2129  0.0218  0.0417
11161SOL     OW37938   5.418   0.906  10.151  0.4467 -0.7334  0.3985
11161SOL    HW137939   5.399   0.827  10.201  0.9557  1.2572  4.0299
11161SOL    HW237940   5.332   0.936  10.121 -0.2434 -0.7614  2.2138
11162SOL     OW37941   1.613   2.515   4.706  0.3356 -0.7116  0.2614
11162SOL    HW137942   1.646   2.542   4.792  1.2978  1.1083 -0.6272
11162SOL    HW237943   1.692   2.497   4.655 -0.0323  1.5965 -1.2532
11163SOL     OW37944  10.537   3.948   7.880  0.6873 -0.2044 -0.3143
11163SOL    HW137945  10.629   3.935   7.853  0.4812 -0.0611 -1.1209
11163SOL    HW237946  10.488   3.885   7.827  0.0144  1.6308 -1.9771
11164SOL     OW37947  10.929   1.084   2.934  0.1661  0.2535  0.2700
11164SOL    HW137948  10.886   1.169   2.927  0.2607  0.2670 -0.2140
11164SOL    HW237949  10.886   1.029   2.869 -0.6172 -0.3957  1.3114
11165SOL     OW37950   7.710   7.827   4.110  0.3095 -0.1092 -0.5921
11165SOL    HW137951   7.770   7.895   4.141  1.3188 -0.7872 -0.9610
11165SOL    HW237952   7.758   7.745   4.125 -0.7986 -0.7254 -0.3271
11166SOL     OW37953   8.644   5.952   2.516 -0.1649  0.1359  0.6407
11166SOL    HW137954   8.595   5.896   2.577  1.1892 -2.1399 -0.2232
11166SOL    HW237955   8.664   5.895   2.442 -1.6927  2.7769 -1.9943
11167SOL     OW37956  10.184   4.082   4.153 -0.3820  0.5746 -0.4014
11167SOL    HW137957  10.216   4.168   4.126  1.0618  0.1917 -0.0198
11167SOL    HW237958  10.164   4.092   4.246 -0.4721  0.5727 -0.4210
11168SOL     OW37959  10.120   2.521   0.268 -0.2516 -0.0949  0.3312
11168SOL    HW137960  10.055   2.515   0.338 -1.6386 -1.1815 -0.9537
11168SOL    HW237961  10.113   2.437   0.222  1.6507  0.0139 -0.2341
11169SOL     OW37962  10.644   5.022   9.056 -0.1043 -0.3008 -0.1932
11169SOL    HW137963  10.711   5.088   9.074  1.6631 -1.6238 -1.4913
11169SOL    HW237964  10.610   4.998   9.142  0.6602  0.8393  0.4507
11170SOL     OW37965   8.907   4.767   0.093 -0.6052 -0.2598  0.5319
11170SOL    HW137966   8.985   4.712   0.087 -0.4976  0.0108 -0.8749
11170SOL    HW237967   8.920   4.818   0.173  1.2500  0.6499 -0.2961
11171SOL     OW37968   9.649   5.559   6.170  0.3783 -0.2989  0.2592
11171SOL    HW137969   9.653   5.465   6.191 -0.3952 -0.6570 -1.0750
11171SOL    HW237970   9.655   5.563   6.075  1.3462  1.0917  0.3485
11172SOL     OW37971   1.620   6.011   0.879 -0.2114 -0.0809 -0.0131
11172SOL    HW137972   1.714   6.004   0.864 -0.1037  1.1040 -0.0212
11172SOL    HW237973   1.609   5.995   0.973  0.1613  0.9838  0.2268
11173SOL     OW37974   9.353   1.146   0.385 -0.0418  0.3259 -0.2852
11173SOL    HW137975   9.425   1.157   0.323  0.6119 -1.3550  0.1212
11173SOL    HW237976   9.277   1.124   0.330  0.4870 -0.9610 -0.5344
11174SOL     OW37977   3.849   3.932   4.081  0.2658  0.1216 -0.3373
11174SOL    HW137978   3.766   3.908   4.040 -0.0520  1.2279 -0.3621
11174SOL    HW237979   3.830   4.011   4.132  0.9650 -0.4322  0.8530
11175SOL     OW37980   8.101   6.592   6.776  0.0582 -0.3594 -0.1487
11175SOL    HW137981   8.135   6.585   6.865 -0.9481 -0.6304  0.2224
11175SOL    HW237982   8.099   6.502   6.744 -2.2492 -0.6119  0.5871
11176SOL     OW37983   5.872   7.562   6.096  0.0752  0.0618 -0.3452
11176SOL    HW137984   5.814   7.502   6.050 -0.0487  0.4187 -0.6621
11176SOL    HW237985   5.840   7.649   6.072  0.6910  0.2616 -0.4494
11177SOL     OW37986  10.934   9.926   3.065  0.1568 -0.2006  0.0880
11177SOL    HW137987  10.903  10.008   3.027 -0.7351  0.3451  1.8714
11177SOL    HW237988  10.879   9.914   3.143  2.2401 -0.9513  1.5177
11178SOL     OW37989   5.031   1.214   5.684 -0.1174 -0.2365  0.4124
11178SOL    HW137990   4.938   1.236   5.687 -0.0988 -0.0530 -0.1462
11178SOL    HW237991   5.053   1.217   5.590  0.4239 -0.3809  0.5320
11179SOL     OW37992  10.472   5.340   0.509  0.1143  0.0736 -0.0672
11179SOL    HW137993  10.471   5.338   0.414 -1.2121  0.0804 -0.0643
11179SOL    HW237994  10.505   5.254   0.535  0.2671 -0.0055 -0.5156
11180SOL     OW37995   0.794   1.067   1.334 -0.2340  0.0973 -0.2337
11180SOL    HW137996   0.755   1.144   1.292 -1.9595 -1.0030 -0.7556
11180SOL    HW237997   0.811   1.094   1.424 -1.2106  0.9869 -0.2966
11181SOL     OW37998  11.020   0.889   3.932 -0.0338 -0.1797  0.2639
11181SOL    HW137999  11.067   0.817   3.974 -1.4204 -0.5585  1.2420
11181SOL    HW238000  11.011   0.863   3.840  0.9506 -0.4558  0.2406
11182SOL     OW38001   3.155   0.826   5.508 -0.4525 -0.5411  0.6174
11182SOL    HW138002   3.230   0.820   5.566 -0.3734  0.7173  0.6648
11182SOL    HW238003   3.099   0.753   5.534  0.4692 -1.1394  0.9743
11183SOL     OW38004   7.070   2.412   9.939 -0.3938 -0.1089  0.7573
11183SOL    HW138005   7.095   2.467   9.865  0.4758 -1.2037  0.1997
11183SOL    HW238006   6.979   2.433   9.956 -0.2535  1.0243  0.1476
11184SOL     OW38007   8.447   9.295   0.534  0.2886 -0.6363  0.1795
11184SOL    HW138008   8.474   9.290   0.625 -0.8291 -0.6733  0.5220
11184SOL    HW238009   8.503   9.362   0.496  0.4395 -0.2809  1.0090
11185SOL     OW38010   3.321   9.554   9.176 -0.0689  0.4766 -0.3319
11185SOL    HW138011   3.294   9.483   9.234  0.4835  0.4094 -0.1510
11185SOL    HW238012   3.239   9.595   9.148 -0.3586  0.2063  0.1122
11186SOL     OW38013   4.827  10.611   0.714 -0.0073  0.0926 -0.3688
11186SOL    HW138014   4.863  10.657   0.638 -0.5767 -0.1838 -0.8136
11186SOL    HW238015   4.783  10.679   0.765 -0.5876  0.0989 -0.8680
11187SOL     OW38016   2.931   4.042   9.236 -0.0429 -0.0475  0.1528
11187SOL    HW138017   2.849   4.045   9.187  0.2716  1.2346 -0.3396
11187SOL    HW238018   2.947   3.949   9.250 -0.5741 -0.4118 -1.4387
11188SOL     OW38019   5.777   8.905   0.994 -0.2485 -0.0247 -0.1847
11188SOL    HW138020   5.855   8.905   0.938 -0.8230 -0.0844 -0.9995
11188SOL    HW238021   5.803   8.854   1.071  0.7938  0.6806 -0.0449
11189SOL     OW38022   6.560   0.316   5.294  0.1222  0.1994 -0.3303
11189SOL    HW138023   6.524   0.285   5.211 -0.1134  2.3724 -1.1020
11189SOL    HW238024   6.579   0.236   5.343 -0.6321 -1.1225 -2.0779
11190SOL     OW38025   8.973   1.233   6.094  0.0498  0.6298 -0.4172
11190SOL    HW138026   8.890   1.251   6.049  0.7680 -1.5346 -2.9406
11190SOL    HW238027   8.948   1.174   6.166 -0.7872  1.4318 -0.0316
11191SOL     OW38028   5.445   8.996   1.409 -0.6550  0.1650  0.3963
11191SOL    HW138029   5.502   8.957   1.476 -0.8461  0.4237  0.7152
11191SOL    HW238030   5.438   8.929   1.342  0.4508  0.3222  0.0947
11192SOL     OW38031   6.186   1.924   1.294 -0.0673 -0.1588  0.1792
11192SOL    HW138032   6.233   1.847   1.326  1.0751  0.6636  0.5244
11192SOL    HW238033   6.201   1.924   1.200 -1.6010 -1.3533 -0.1056
11193SOL     OW38034  10.509   4.566   7.954  0.3691  0.1290 -0.0770
11193SOL    HW138035  10.433   4.550   7.898  0.7040 -1.1740 -0.1946
11193SOL    HW238036  10.583   4.530   7.905  0.6498 -1.1466  1.2305
11194SOL     OW38037   8.056   1.215   1.711  0.2056  0.5670 -0.0984
11194SOL    HW138038   8.032   1.188   1.800 -0.0503  0.0703 -0.3123
11194SOL    HW238039   8.008   1.155   1.654  1.1501  0.2137 -0.5589
11195SOL     OW38040   2.346   7.456   8.979  0.0095  0.3469  0.2318
11195SOL    HW138041   2.304   7.420   8.900  0.9338 -0.6437  0.1759
11195SOL    HW238042   2.366   7.546   8.956 -1.5571  0.6755  0.0579
11196SOL     OW38043   8.075   6.653   9.304  0.0717  0.4192 -0.2445
11196SOL    HW138044   8.026   6.599   9.242  0.1678 -1.0784  0.9006
11196SOL    HW238045   8.165   6.620   9.297 -0.0618 -0.3413  1.2163
11197SOL     OW38046   1.048   0.909   8.444  0.6565  0.4362  0.1747
11197SOL    HW138047   1.079   0.885   8.532  1.3620 -0.4258 -0.2857
11197SOL    HW238048   0.955   0.929   8.456 -0.5414 -4.0677  0.4501
11198SOL     OW38049   6.866   6.556   4.231  0.2407  0.0988  0.2460
11198SOL    HW138050   6.798   6.591   4.173  0.8888 -0.0164 -0.5955
11198SOL    HW238051   6.835   6.468   4.254  2.0591 -1.7868 -3.6442
11199SOL     OW38052   0.275   6.683   6.291  0.1228  0.4524  0.3163
11199SOL    HW138053   0.302   6.713   6.204 -2.5208  0.1762 -0.6687
11199SOL    HW238054   0.294   6.757   6.349  2.8464  0.2899 -0.2213
11200SOL     OW38055   0.377   1.449   3.474  0.2476 -0.4062  0.3332
11200SOL    HW138056   0.454   1.409   3.434  1.3955  1.0286  1.0250
11200SOL    HW238057   0.303   1.398   3.439  1.3817 -0.9475 -1.4308
11201SOL     OW38058   2.315   1.282   3.245 -0.4960  0.0432 -0.5676
11201SOL    HW138059   2.364   1.228   3.307 -0.3051 -1.0830 -1.6608
11201SOL    HW238060   2.373   1.290   3.169 -1.2273  0.3298 -1.1065
11202SOL     OW38061   0.457   0.522   2.200 -0.2473 -0.0552 -0.1194
11202SOL    HW138062   0.440   0.592   2.262  0.0693 -0.5060  0.4800
11202SOL    HW238063   0.386   0.530   2.136 -0.6776  0.3048  0.3915
11203SOL     OW38064   4.690   2.495   0.058  0.3110  0.2459 -0.3479
11203SOL    HW138065   4.626   2.459  -0.004  1.6179 -2.6459 -0.1795
11203SOL    HW238066   4.642   2.505   0.140 -0.5407  0.6621 -0.8836
11204SOL     OW38067   1.522   8.531   5.597  0.6278 -0.2450 -0.2605
11204SOL    HW138068   1.569   8.612   5.577 -0.5488  0.5621  0.0965
11204SOL    HW238069   1.512   8.532   5.693 -0.2041 -0.3288 -0.3388
11205SOL     OW38070   6.978   0.153   9.799 -0.4294 -0.5341  0.0577
11205SOL    HW138071   7.059   0.160   9.748 -1.2029 -2.9080 -1.6791
11205SOL    HW238072   6.910   0.187   9.740 -0.8509  0.5308  1.1267
11206SOL     OW38073   7.516   8.051   3.561 -0.0410 -0.7887 -0.2450
11206SOL    HW138074   7.570   7.988   3.608  0.0013 -2.1921 -2.0268
11206SOL    HW238075   7.575   8.088   3.495 -0.6325 -0.5614 -0.6547
11207SOL     OW38076   2.500   8.822   8.063  0.3691 -0.6556  0.2841
11207SOL    HW138077   2.467   8.861   8.144  0.8512  1.9475 -0.6975
11207SOL    HW238078   2.427   8.829   8.001  0.0287 -2.5680  0.3921
11208SOL     OW38079   2.823   6.177   4.163 -0.7972  0.2964 -1.5353
11208SOL    HW138080   2.774   6.251   4.198  0.9711  0.9692 -0.3414
11208SOL    HW238081   2.759   6.106   4.158 -1.7397  0.8977  0.7646
11209SOL     OW38082   0.853   2.249   7.537  0.3387  0.0919  0.6448
11209SOL    HW138083   0.779   2.197   7.569 -0.1601 -0.6532 -1.5268
11209SOL    HW238084   0.841   2.252   7.442  1.5266  2.4471  0.4967
11210SOL     OW38085  10.407   9.704  10.211 -0.1845  0.5000  0.1462
11210SOL    HW138086  10.455   9.763  10.153  1.8004 -1.1841 -0.0460
11210SOL    HW238087  10.466   9.630  10.224 -1.5954 -0.3576  2.2922
11211SOL     OW38088   3.758   3.090   3.650 -0.4785 -0.0857  1.1798
11211SOL    HW138089   3.666   3.072   3.632 -0.1836 -0.0795 -0.5500
11211SOL    HW238090   3.782   3.031   3.721 -1.4844 -1.0166  0.7591
11212SOL     OW38091   0.934   9.733  10.963 -0.0533 -0.2206 -0.6189
11212SOL    HW138092   0.937   9.816  11.010 -0.9390 -0.0308 -0.8705
11212SOL    HW238093   0.862   9.744  10.901 -0.1306 -1.1525 -0.7039
11213SOL     OW38094   3.485   6.068   7.116  0.1557 -0.3261  0.1028
11213SOL    HW138095   3.531   6.151   7.125 -0.8053  0.2223  0.0228
11213SOL    HW238096   3.459   6.045   7.206  1.7085 -1.3170  0.3457
11214SOL     OW38097   3.089   3.397   4.830  0.1244  0.3403  0.0872
11214SOL    HW138098   3.138   3.323   4.795 -0.9584 -0.6121  0.4859
11214SOL    HW238099   3.066   3.449   4.754  0.8821  0.2559 -0.2052
11215SOL     OW38100  10.078   0.915  10.660 -0.0405  0.0882  0.0673
11215SOL    HW138101  10.095   0.952  10.573 -1.7488 -0.3829 -0.5098
11215SOL    HW238102  10.140   0.842  10.668 -0.9854 -0.9393 -1.4960
11216SOL     OW38103   3.076   2.343  11.067 -0.1358 -0.3606  0.5055
11216SOL    HW138104   3.051   2.267  11.015 -0.0272 -0.9271  1.2605
11216SOL    HW238105   3.064   2.315  11.158  0.9120  0.1676  0.8260
11217SOL     OW38106   6.189   0.079   4.328 -0.0183 -0.5236  0.3186
11217SOL    HW138107   6.170   0.013   4.394 -1.1762  0.9915  1.5632
11217SOL    HW238108   6.194   0.161   4.376  1.5410  0.3299 -1.1577
11218SOL     OW38109  10.360   4.139   9.088 -0.5859  0.0567  0.1649
11218SOL    HW138110  10.313   4.214   9.050 -1.3657  0.0017  0.9842
11218SOL    HW238111  10.453   4.161   9.077 -0.7856  1.4655  0.9651
11219SOL     OW38112   0.653  10.166   9.736  0.5270  0.6030 -0.3357
11219SOL    HW138113   0.582  10.104   9.756  2.1140 -1.5350 -0.9804
11219SOL    HW238114   0.662  10.218   9.816 -1.2075  0.3805  0.0490
11220SOL     OW38115   6.854   9.012   9.294 -0.0748 -0.3039  0.1264
11220SOL    HW138116   6.822   8.966   9.216  0.8744 -0.0548 -0.4387
11220SOL    HW238117   6.912   9.080   9.259 -1.1339  1.0723  0.9691
11221SOL     OW38118   7.397   1.452   2.680  0.1725  0.0443  0.2240
11221SOL    HW138119   7.418   1.458   2.773  1.9153  1.2861 -0.1792
11221SOL    HW238120   7.384   1.543   2.653  2.0199 -0.0419 -1.1731
11222SOL     OW38121   9.777   9.086  10.774  0.5729 -0.4389  0.4337
11222SOL    HW138122   9.850   9.135  10.737 -0.7259  0.1306 -1.4974
11222SOL    HW238123   9.749   9.027  10.704 -1.1171 -0.2895  0.9226
11223SOL     OW38124   8.549   0.812   8.036  0.6836 -0.0297  0.2893
11223SOL    HW138125   8.626   0.759   8.017  0.7006  0.0353  0.1724
11223SOL    HW238126   8.522   0.846   7.950  3.1418  3.5906  0.7107
11224SOL     OW38127   4.606  11.048   0.077  0.3078  0.0781  0.5473
11224SOL    HW138128   4.535  11.113   0.067 -0.8315 -1.2250 -0.2463
11224SOL    HW238129   4.650  11.073   0.158 -0.9893  1.0215  1.0076
11225SOL     OW38130  10.834   2.444   2.985  0.5120  0.1263 -0.7633
11225SOL    HW138131  10.831   2.413   2.894  2.2806 -1.2036 -0.4241
11225SOL    HW238132  10.864   2.368   3.035  0.7598  1.1910  0.7596
11226SOL     OW38133   2.219   3.338   9.214  0.2912  0.1161  0.2165
11226SOL    HW138134   2.180   3.377   9.135  0.1256 -2.1101 -0.9014
11226SOL    HW238135   2.313   3.334   9.195  0.4349  0.8436  0.7456
11227SOL     OW38136   0.463   5.860   3.875 -0.2942  0.1781 -0.0277
11227SOL    HW138137   0.462   5.775   3.921 -1.7916  0.2304  0.0897
11227SOL    HW238138   0.539   5.854   3.817  0.2945 -0.7977  0.7901
11228SOL     OW38139   4.514   0.552   8.383  0.4475 -0.0095 -0.0968
11228SOL    HW138140   4.445   0.558   8.449  1.0482  0.5596  0.5035
11228SOL    HW238141   4.468   0.551   8.300 -0.3054 -0.1109  0.3134
11229SOL     OW38142   8.601   8.917   4.540  0.1966  0.1838  0.1299
11229SOL    HW138143   8.510   8.926   4.566  0.1380  0.2303 -0.0919
11229SOL    HW238144   8.599   8.915   4.445  0.4960  0.9536  0.1028
11230SOL     OW38145   2.494   2.344   1.543 -0.6952 -0.5513 -0.4755
11230SOL    HW138146   2.404   2.345   1.511 -0.2766  0.5901 -1.7001
11230SOL    HW238147   2.548   2.342   1.463  0.3718 -0.4106  0.2189
11231SOL     OW38148   5.858   5.775   6.110 -0.3623 -0.1722 -0.6798
11231SOL    HW138149   5.915   5.706   6.146 -2.2981 -1.3530  0.2632
11231SOL    HW238150   5.817   5.735   6.034 -2.9964 -0.8912  0.9816
11232SOL     OW38151   4.524   6.501   3.790  0.3777 -0.2004  0.4200
11232SOL    HW138152   4.551   6.410   3.774  3.4881  0.3044  2.0476
11232SOL    HW238153   4.479   6.498   3.874  1.4945 -0.1198  1.0376
11233SOL     OW38154   5.521   7.122   7.613 -0.4877 -0.0312 -0.2622
11233SOL    HW138155   5.551   7.193   7.670 -1.2479 -1.6799  2.3816
11233SOL    HW238156   5.441   7.155   7.573 -0.4673  0.8326  0.3795
11234SOL     OW38157   7.518   8.457   8.674  0.2049  0.2286  0.7949
11234SOL    HW138158   7.504   8.552   8.672 -0.6677  0.1072  0.7169
11234SOL    HW238159   7.613   8.447   8.684  0.8217  1.1029 -2.6965
11235SOL     OW38160   7.036   0.708   0.051  0.0787 -0.1310  0.3862
11235SOL    HW138161   6.957   0.656   0.062  0.1682 -0.4143 -0.2735
11235SOL    HW238162   7.007   0.799   0.065 -0.0523 -0.3455  1.6442
11236SOL     OW38163   0.321   5.322   2.353  0.1210 -0.9789 -0.6022
11236SOL    HW138164   0.291   5.276   2.432  0.9879 -2.4042 -1.0611
11236SOL    HW238165   0.338   5.252   2.290  1.3057 -0.0064 -1.4094
11237SOL     OW38166   1.115   2.907   8.672 -0.1323  0.2617 -0.7291
11237SOL    HW138167   1.049   2.966   8.637 -1.1906 -1.4906 -1.8119
11237SOL    HW238168   1.172   2.963   8.725 -1.3271  2.1456 -1.3640
11238SOL     OW38169   4.057   4.544   3.172  0.1059 -0.5921 -0.2179
11238SOL    HW138170   4.153   4.550   3.174  0.2163 -2.0080 -0.4873
11238SOL    HW238171   4.030   4.566   3.261  0.6167  0.4410 -0.2920
11239SOL     OW38172  10.855   8.751  10.397  0.4031  0.0585  0.1121
11239SOL    HW138173  10.807   8.754  10.479  0.0820 -1.2978 -0.0128
11239SOL    HW238174  10.787   8.759  10.329  0.6314  0.8099 -0.0389
11240SOL     OW38175   9.495   0.936   3.289  0.0914 -0.9335  0.0818
11240SOL    HW138176   9.485   0.842   3.304  1.3319 -1.1536 -0.3335
11240SOL    HW238177   9.590   0.949   3.281 -0.1395  0.1067 -1.3794
11241SOL     OW38178   3.767   5.205   1.513  0.4530  0.4478  0.0418
11241SOL    HW138179   3.770   5.235   1.603  1.0437  0.0602  0.1527
11241SOL    HW238180   3.686   5.243   1.478  0.7271  1.4216  0.4320
11242SOL     OW38181   2.990   2.034   8.712  0.2284 -0.4847  0.2351
11242SOL    HW138182   2.913   2.064   8.761 -0.3124 -1.3487 -0.0563
11242SOL    HW238183   3.053   2.105   8.721 -0.6675  0.3265  0.3270
11243SOL     OW38184   4.664   9.320   9.084  0.2992  0.4986  1.0242
11243SOL    HW138185   4.621   9.372   9.016 -0.3169 -0.5782  0.5762
11243SOL    HW238186   4.598   9.314   9.154 -0.9608 -2.4455 -0.2854
11244SOL     OW38187   1.911   1.428   1.827 -0.6318 -0.2071 -0.3284
11244SOL    HW138188   1.942   1.393   1.744 -0.4787  1.3371 -0.9612
11244SOL    HW238189   1.927   1.358   1.891 -0.8635 -1.4587 -1.6030
11245SOL     OW38190   8.296   9.702   9.317  0.0074 -0.0308  0.0798
11245SOL    HW138191   8.323   9.617   9.353  0.0383  0.2139  0.6387
11245SOL    HW238192   8.271   9.753   9.393 -1.9206 -0.2018 -0.4038
11246SOL     OW38193   2.613   4.706  10.586 -0.1708  0.6968 -0.0349
11246SOL    HW138194   2.576   4.651  10.655 -0.9029  1.5691  0.3007
11246SOL    HW238195   2.581   4.794  10.607  2.0236  1.5025  0.2126
11247SOL     OW38196   4.215   4.486   2.517 -0.1107 -0.2922 -0.4949
11247SOL    HW138197   4.218   4.440   2.600  1.1630 -1.2976 -1.0692
11247SOL    HW238198   4.225   4.418   2.450 -1.7245  0.4110 -1.5237
11248SOL     OW38199   3.465   6.118   6.238 -0.7631  0.2737  0.3330
11248SOL    HW138200   3.464   6.199   6.290 -0.1949  0.9424 -0.6558
11248SOL    HW238201   3.558   6.097   6.229 -0.8734 -0.0323 -0.1001
11249SOL     OW38202   9.655   0.680  10.919 -0.0910  0.4196  0.0090
11249SOL    HW138203   9.721   0.718  10.978  0.9676  0.9881 -1.4679
11249SOL    HW238204   9.639   0.748  10.854  0.1780 -0.8323 -1.4315
11250SOL     OW38205   8.106   8.240   8.834 -0.1781 -0.0785  0.1989
11250SOL    HW138206   8.082   8.268   8.745 -0.0788 -1.2303 -0.2059
11250SOL    HW238207   8.088   8.316   8.888  0.0752  0.7614 -0.8583
11251SOL     OW38208   8.865   5.709   5.627 -0.2340 -0.5698  0.6466
11251SOL    HW138209   8.797   5.643   5.639  0.6488 -1.0548  3.5766
11251SOL    HW238210   8.818   5.793   5.630 -0.9275 -0.9419  0.3904
11252SOL     OW38211   0.701   6.379   0.241 -0.0548 -0.4529 -0.3158
11252SOL    HW138212   0.699   6.471   0.267 -0.0071 -0.0508 -1.6613
11252SOL    HW238213   0.615   6.363   0.202 -0.1013 -1.0225 -0.0022
11253SOL     OW38214   1.000   2.841   9.435  0.4074  0.4682  0.6621
11253SOL    HW138215   0.920   2.806   9.472 -1.8802  3.9323 -0.4954
11253SOL    HW238216   0.978   2.860   9.343  3.2673 -0.3524 -0.3037
11254SOL     OW38217   4.984   9.428   5.497 -0.3482 -0.2861 -0.0945
11254SOL    HW138218   4.912   9.455   5.441  0.2353 -1.4935 -1.5070
11254SOL    HW238219   5.053   9.493   5.481 -0.6453  0.1213  0.2564
11255SOL     OW38220  10.626   1.815   8.932  0.4529 -0.1250  0.1004
11255SOL    HW138221  10.619   1.891   8.874  1.6713  0.2986  0.4815
11255SOL    HW238222  10.718   1.788   8.926  0.4397 -0.4887  1.3102
11256SOL     OW38223   8.021   2.119   1.565  0.1862  0.0607  0.7038
11256SOL    HW138224   7.978   2.115   1.650  0.3745  0.7522  0.8445
11256SOL    HW238225   7.997   2.038   1.521 -0.2231 -0.1285  1.2692
11257SOL     OW38226   3.944   0.249   2.140  0.3254  0.0998 -0.6831
11257SOL    HW138227   3.851   0.238   2.160  0.7314 -1.1419  0.6568
11257SOL    HW238228   3.980   0.294   2.216  1.2663 -1.6847 -0.0153
11258SOL     OW38229   9.048   7.232   5.168  0.8570  0.1881 -0.0479
11258SOL    HW138230   9.004   7.291   5.229  1.3831  0.1544  0.3737
11258SOL    HW238231   9.002   7.149   5.178  1.5714 -0.1007  1.0688
11259SOL     OW38232   2.959   1.604   3.275 -0.3176  0.1328 -0.3354
11259SOL    HW138233   3.043   1.615   3.231 -0.4072 -0.8667 -0.7951
11259SOL    HW238234   2.902   1.669   3.233  0.2020  0.7843 -0.0529
11260SOL     OW38235   8.584  10.966   9.110  0.1947 -0.3941  0.4555
11260SOL    HW138236   8.573  10.998   9.199 -1.4583 -0.0600  0.1574
11260SOL    HW238237   8.644  10.892   9.119  0.0118 -0.4009  1.8554
11261SOL     OW38238  10.918   8.702   4.569  0.7937  0.2510 -0.1545
11261SOL    HW138239  10.921   8.660   4.655  0.3928  0.2480 -0.1399
11261SOL    HW238240  10.889   8.633   4.509 -0.1035  0.5579 -0.0906
11262SOL     OW38241   4.253   3.234   1.399  0.3922 -0.2355 -0.1714
11262SOL    HW138242   4.185   3.217   1.333 -1.7995  2.7057  1.1525
11262SOL    HW238243   4.214   3.296   1.459  2.7059 -1.8705  3.3519
11263SOL     OW38244   0.480   6.712  10.707  0.8741 -0.1199 -0.7369
11263SOL    HW138245   0.556   6.727  10.651  1.2453  2.2371  0.2628
11263SOL    HW238246   0.419   6.782  10.683 -0.3506 -1.0535 -0.4401
11264SOL     OW38247   1.545   5.667   9.604  0.5671  0.6517 -0.4473
11264SOL    HW138248   1.468   5.724   9.603  1.4383  1.9069 -2.8140
11264SOL    HW238249   1.522   5.597   9.665 -1.9025  1.7046 -0.0589
11265SOL     OW38250   5.180   0.003  10.548  0.3780  0.1521 -0.0374
11265SOL    HW138251   5.153  -0.083  10.581  2.2056  0.2118  1.8057
11265SOL    HW238252   5.125   0.017  10.471 -1.1992 -1.8770  0.6186
11266SOL     OW38253  11.016   3.174   8.899 -0.3942 -0.0818  0.0056
11266SOL    HW138254  10.927   3.201   8.919 -0.6353 -0.6433 -0.2985
11266SOL    HW238255  11.071   3.226   8.959 -0.9731 -0.3880  0.8153
11267SOL     OW38256   2.956   7.200   9.049 -0.1304  0.3557  0.1410
11267SOL    HW138257   3.017   7.271   9.031 -0.7124  0.4009 -1.7880
11267SOL    HW238258   2.958   7.146   8.970 -1.8357 -0.1852  0.4373
11268SOL     OW38259   4.422   9.413   5.719  0.2156  0.3710 -0.7685
11268SOL    HW138260   4.443   9.403   5.627  1.6558 -0.0237 -0.4307
11268SOL    HW238261   4.453   9.332   5.760 -2.3790 -0.4407 -0.2248
11269SOL     OW38262   6.361   7.983   6.675  0.0775  0.5045 -0.6319
11269SOL    HW138263   6.335   8.058   6.728 -0.5049 -0.0920 -0.0639
11269SOL    HW238264   6.444   7.954   6.713 -1.1600 -0.9991  1.1551
11270SOL     OW38265   6.476   4.102   7.952 -0.5550  0.0181  0.0305
11270SOL    HW138266   6.432   4.156   8.018  0.5222  1.0664 -0.0644
11270SOL    HW238267   6.454   4.144   7.869 -0.9055 -0.5789 -0.1867
11271SOL     OW38268  10.535   6.281   6.794 -0.0177 -0.3776  0.6264
11271SOL    HW138269  10.575   6.338   6.859 -1.2216  0.5401  0.6066
11271SOL    HW238270  10.483   6.219   6.846  0.8526 -1.1321  0.6223
11272SOL     OW38271   2.206   8.081   9.665 -0.0226 -0.7149  0.2693
11272SOL    HW138272   2.288   8.068   9.712 -0.8133 -0.2385  1.8670
11272SOL    HW238273   2.143   8.025   9.711 -1.3761  1.5816  1.4141
11273SOL     OW38274   3.485   3.492   6.648 -0.2173  0.2169 -0.7870
11273SOL    HW138275   3.572   3.522   6.677  0.0479 -1.0850 -0.1379
11273SOL    HW238276   3.500   3.456   6.561  0.3900 -2.0326  0.1861
11274SOL     OW38277   9.653   1.839   3.501  0.3693 -0.4504 -0.6280
11274SOL    HW138278   9.688   1.892   3.573  1.7349 -1.2607 -0.6604
11274SOL    HW238279   9.672   1.890   3.422  1.7118 -0.9646 -0.6626
11275SOL     OW38280   9.172   7.899   8.268  0.3026  0.2631 -0.1222
11275SOL    HW138281   9.183   7.972   8.208  0.6019 -0.6538 -1.2178
11275SOL    HW238282   9.151   7.940   8.352  2.5880  1.7085 -0.1598
11276SOL     OW38283   3.123   5.430   5.312 -0.5839  0.5909  0.1622
11276SOL    HW138284   3.132   5.501   5.250 -1.5041 -0.0695 -0.7614
11276SOL    HW238285   3.146   5.351   5.263 -0.1959  0.1766  0.9797
11277SOL     OW38286   7.763   1.893   2.017 -0.5177  0.0922 -0.3459
11277SOL    HW138287   7.707   1.917   2.091  0.6725  1.1387  0.2611
11277SOL    HW238288   7.703   1.892   1.942 -1.5784 -0.0744  0.4735
11278SOL     OW38289   9.611   4.886  10.044 -0.0910 -0.2075 -0.1888
11278SOL    HW138290   9.618   4.830  10.121 -0.0357 -0.4748 -0.3863
11278SOL    HW238291   9.696   4.878  10.000  0.6229  1.5018  0.7685
11279SOL     OW38292   6.667   6.649   7.436 -0.0985  0.4037  0.4298
11279SOL    HW138293   6.723   6.572   7.446 -1.2047 -0.6992 -1.3086
11279SOL    HW238294   6.725   6.717   7.402  0.6096 -0.0908  0.6293
11280SOL     OW38295   4.487   9.028   5.197  0.0834 -0.3863  0.0029
11280SOL    HW138296   4.398   9.011   5.227 -0.0144  0.5332  0.2709
11280SOL    HW238297   4.522   8.942   5.176 -0.4898 -0.8742  0.9551
11281SOL     OW38298   6.085   0.926   9.096 -0.0705  0.3070 -0.4596
11281SOL    HW138299   6.132   0.935   9.013 -0.6692 -1.2220 -0.9965
11281SOL    HW238300   6.115   0.842   9.131 -1.1592  0.0906 -0.0134
11282SOL     OW38301   5.619   4.054   7.556  0.1532 -0.6060  0.3992
11282SOL    HW138302   5.684   4.092   7.497  0.7820 -0.2145  1.3118
11282SOL    HW238303   5.566   4.129   7.585 -0.9734 -0.9731 -0.6276
11283SOL     OW38304   7.477   3.194   6.154  0.4915  0.5483  0.6412
11283SOL    HW138305   7.416   3.212   6.226 -0.7428  2.1453 -0.7278
11283SOL    HW238306   7.558   3.237   6.179  0.4325  0.1528  1.5532
11284SOL     OW38307   9.666   7.914   2.698  0.2192 -0.1244  0.4844
11284SOL    HW138308   9.676   7.952   2.785  1.0696  0.4699  0.1457
11284SOL    HW238309   9.577   7.937   2.672  0.1269  0.1196  1.0028
11285SOL     OW38310  10.397   8.643   7.019 -0.0473  0.0485 -0.4638
11285SOL    HW138311  10.455   8.575   6.983  1.3662  1.2435 -0.5356
11285SOL    HW238312  10.353   8.680   6.943  0.6435  0.5106 -0.6467
11286SOL     OW38313   8.312  10.327   0.706  0.0521 -0.0985  0.1152
11286SOL    HW138314   8.269  10.241   0.700 -1.1935  0.5651 -1.2067
11286SOL    HW238315   8.397  10.308   0.746 -0.9597 -1.6521  1.7204
11287SOL     OW38316   7.791   4.087   8.606 -0.4333 -0.0675  0.6781
11287SOL    HW138317   7.861   4.151   8.592  0.7249 -1.2261  1.0026
11287SOL    HW238318   7.772   4.052   8.519  0.5270 -0.8940  0.7896
11288SOL     OW38319  10.634   8.234   4.297 -0.3414 -0.2673  0.5055
11288SOL    HW138320  10.648   8.156   4.243 -1.3951 -0.3272  0.2935
11288SOL    HW238321  10.544   8.260   4.279 -0.6228 -0.0976  1.9898
11289SOL     OW38322   7.502   8.518   7.615 -0.1333  0.3791  0.3990
11289SOL    HW138323   7.544   8.587   7.563 -1.6761  1.4427  0.4865
11289SOL    HW238324   7.528   8.536   7.705 -0.4971  0.8576  0.4175
11290SOL     OW38325   1.657   3.124   1.501 -0.1569  0.3676 -0.5495
11290SOL    HW138326   1.682   3.189   1.435  1.2036 -0.0185 -0.4574
11290SOL    HW238327   1.739   3.107   1.548 -1.0466  0.4886  1.1082
11291SOL     OW38328   3.398   8.732   4.565  0.7937 -0.1755 -0.4048
11291SOL    HW138329   3.475   8.694   4.607  0.2084 -2.0998 -0.9730
11291SOL    HW238330   3.431   8.768   4.483  1.1024 -1.0486 -0.6776
11292SOL     OW38331   0.708   9.823   6.657 -0.0052 -0.3176 -0.2702
11292SOL    HW138332   0.802   9.819   6.670 -0.0831 -0.3431  0.2950
11292SOL    HW238333   0.688   9.747   6.602  0.3506 -0.0908 -0.7252
11293SOL     OW38334   4.752   4.347   9.158  0.9385  0.0969  0.0255
11293SOL    HW138335   4.782   4.282   9.221 -0.5209 -0.3611  0.2833
11293SOL    HW238336   4.805   4.425   9.177  1.5251 -0.4835  0.8372
11294SOL     OW38337   2.018   3.446   4.707  0.2950 -0.0443 -0.1684
11294SOL    HW138338   2.060   3.394   4.639 -0.9461  0.6973 -1.5685
11294SOL    HW238339   2.072   3.525   4.715  0.5720 -0.2375 -0.1295
11295SOL     OW38340   5.947   1.875   3.179 -0.0248  0.5298 -0.3786
11295SOL    HW138341   5.876   1.904   3.236 -1.1331 -1.6452 -0.5437
11295SOL    HW238342   5.903   1.826   3.110  1.4699  1.2827 -1.9394
11296SOL     OW38343   3.975   8.892   4.612 -0.5484  0.2551 -0.6921
11296SOL    HW138344   4.004   8.804   4.637 -1.0997  0.5199  1.0126
11296SOL    HW238345   4.017   8.951   4.674 -0.6210  1.1659 -1.4682
11297SOL     OW38346   9.642   9.769   4.491 -0.1488  0.1205  0.3385
11297SOL    HW138347   9.586   9.847   4.488 -0.4545  0.0668  2.6709
11297SOL    HW238348   9.581   9.696   4.480 -0.1647  0.1563  0.1911
11298SOL     OW38349   9.002  10.509   1.178 -0.1698 -0.1198 -0.0044
11298SOL    HW138350   9.022  10.564   1.102 -0.7687  0.6500  0.3868
11298SOL    HW238351   9.071  10.528   1.241  0.3878 -0.8368 -0.3768
11299SOL     OW38352  11.048   7.227   1.486  0.6950 -0.2632 -0.3428
11299SOL    HW138353  11.085   7.305   1.527  1.5631  0.2989 -2.0902
11299SOL    HW238354  10.999   7.261   1.411 -1.4388 -1.1991  0.5432
11300SOL     OW38355   0.948   4.253  11.023  0.0671  0.0847  0.2835
11300SOL    HW138356   0.981   4.163  11.032 -1.5134 -0.5994 -0.2403
11300SOL    HW238357   1.012   4.297  10.967  0.0283 -1.2440 -0.8773
11301SOL     OW38358   9.443   9.542   9.336  0.7809  0.1387 -0.0255
11301SOL    HW138359   9.482   9.508   9.255  0.2030  0.2340 -0.3482
11301SOL    HW238360   9.447   9.469   9.397  0.5937 -0.1542 -0.3577
11302SOL     OW38361   9.710   4.027   2.346 -0.2990 -0.5305 -0.2988
11302SOL    HW138362   9.733   3.944   2.305  0.1907 -1.2026  1.2646
11302SOL    HW238363   9.649   4.003   2.416  0.1873  0.3681  0.4520
11303SOL     OW38364   0.675   6.980   7.249 -0.3051  0.2343  0.4660
11303SOL    HW138365   0.609   6.988   7.318 -0.6751 -0.5706  0.2261
11303SOL    HW238366   0.637   7.024   7.173  0.4591  1.8575  0.9986
11304SOL     OW38367   4.792   8.613   4.908 -0.2064 -0.2853  0.1140
11304SOL    HW138368   4.827   8.561   4.980 -0.6451 -0.7375  0.0078
11304SOL    HW238369   4.699   8.621   4.928 -0.2113  0.1212 -0.0777
11305SOL     OW38370   8.574   8.622   0.709 -0.2938 -0.0918 -0.1596
11305SOL    HW138371   8.630   8.579   0.773  0.4693  2.7277  1.2017
11305SOL    HW238372   8.524   8.550   0.669  1.5373 -2.2854  1.2473
11306SOL     OW38373  10.981   3.671   7.812  0.4276 -0.5394  0.9880
11306SOL    HW138374  11.028   3.671   7.896 -1.2648  0.4131  2.0146
11306SOL    HW238375  10.888   3.669   7.837 -0.2456  2.4074 -0.7094
11307SOL     OW38376   6.766   9.616   4.057  0.4223  0.1960  0.1673
11307SOL    HW138377   6.750   9.708   4.035 -0.1960  0.2449  0.7811
11307SOL    HW238378   6.837   9.589   3.998  0.7958  1.1401  0.1709
11308SOL     OW38379   3.327   9.846   8.162 -0.5387  0.2929  0.5469
11308SOL    HW138380   3.383   9.920   8.137 -1.0715  0.2667 -0.7528
11308SOL    HW238381   3.246   9.886   8.192  0.2893  0.3561  2.9154
11309SOL     OW38382   6.990   1.328   3.659 -0.1415  0.4182  0.6315
11309SOL    HW138383   6.956   1.350   3.746 -1.0526 -1.7426  0.9044
11309SOL    HW238384   7.038   1.405   3.631  0.4175  1.0820  3.1805
11310SOL     OW38385   0.374   3.649   9.431 -0.2731  0.4264 -0.4722
11310SOL    HW138386   0.437   3.604   9.488  0.0451  0.0372 -1.1161
11310SOL    HW238387   0.336   3.716   9.486 -0.9949 -0.8341  0.6172
11311SOL     OW38388   9.348   9.403   1.332  0.2921  0.3853  0.2612
11311SOL    HW138389   9.322   9.395   1.240  1.7636  0.7820 -0.2117
11311SOL    HW238390   9.292   9.340   1.378 -0.3867  0.0958 -0.9139
11312SOL     OW38391   4.257   8.661   5.086  0.4272 -0.3696  0.0552
11312SOL    HW138392   4.181   8.706   5.050  0.8154 -0.4414 -0.8876
11312SOL    HW238393   4.249   8.672   5.181 -0.0846  0.7066 -0.0945
11313SOL     OW38394  10.328   8.182   9.880 -0.0999  0.3268  0.2560
11313SOL    HW138395  10.329   8.238   9.959  0.3425  0.3877  0.2082
11313SOL    HW238396  10.417   8.148   9.874  0.0586  0.8859 -0.6204
11314SOL     OW38397   4.682   2.928   8.479  0.0853 -0.2245  0.1439
11314SOL    HW138398   4.654   2.878   8.403  2.6734  0.9359 -1.7365
11314SOL    HW238399   4.702   2.863   8.546 -2.1232 -1.2734 -0.1499
11315SOL     OW38400   7.425   3.896   3.031 -0.0658  0.2747  0.2863
11315SOL    HW138401   7.406   3.870   3.121 -0.2082  1.2773  0.5670
11315SOL    HW238402   7.446   3.815   2.985  3.9495  0.0223  2.1284
11316SOL     OW38403   1.746   6.560   0.175  0.4147  0.2944 -0.5324
11316SOL    HW138404   1.796   6.619   0.231 -0.2212 -0.6775  1.1577
11316SOL    HW238405   1.769   6.472   0.207 -3.0159 -0.2018  1.0754
11317SOL     OW38406   4.117   2.358  10.761 -0.1415  0.0113 -0.5053
11317SOL    HW138407   4.183   2.330  10.825  0.4892  1.7459 -0.3446
11317SOL    HW238408   4.035   2.362  10.811 -0.2852 -1.5017 -0.5504
11318SOL     OW38409   7.813   9.149   7.594  0.1315 -0.0206 -0.1041
11318SOL    HW138410   7.877   9.080   7.579  1.1609  1.2034 -1.6231
11318SOL    HW238411   7.846   9.197   7.669  0.5821  0.1522 -0.4154
11319SOL     OW38412  11.069   5.946   1.878  0.1859 -0.0492  0.3071
11319SOL    HW138413  11.142   5.900   1.919 -0.1596  0.9744  2.1418
11319SOL    HW238414  11.104   5.975   1.793  1.0647 -1.7813  0.0382
11320SOL     OW38415   8.967   8.710   7.241 -0.6873  0.5725  0.2391
11320SOL    HW138416   8.938   8.657   7.167 -2.7256  0.6313  0.9361
11320SOL    HW238417   8.910   8.787   7.238  0.1413  1.2285  1.0600
11321SOL     OW38418   7.029   0.959   7.322  0.3550  0.2006  0.4723
11321SOL    HW138419   7.114   1.002   7.308 -0.1773  0.5017 -2.4897
11321SOL    HW238420   6.970   1.001   7.259 -1.7117 -0.8265  1.6241
11322SOL     OW38421   2.916   8.410   8.904  0.3264 -0.1871  0.2500
11322SOL    HW138422   2.848   8.343   8.892  1.6066 -1.3334 -0.9925
11322SOL    HW238423   2.867   8.489   8.927 -1.3933 -1.0478 -0.2113
11323SOL     OW38424   4.241   2.194   6.775 -0.2292  0.4718  1.0475
11323SOL    HW138425   4.264   2.102   6.761 -0.2730  0.8023 -1.6230
11323SOL    HW238426   4.235   2.202   6.870  0.9777 -1.9810  1.4241
11324SOL     OW38427   7.783   4.000   2.209 -0.4645 -0.4535 -0.3406
11324SOL    HW138428   7.792   4.037   2.296 -0.6128 -0.6393 -0.2473
11324SOL    HW238429   7.750   3.912   2.223 -0.0917 -0.6311 -0.5625
11325SOL     OW38430   8.292   4.102   8.037 -0.6556 -0.1121  0.2539
11325SOL    HW138431   8.315   4.190   8.067 -0.6722 -0.4428  1.2698
11325SOL    HW238432   8.351   4.044   8.084  0.0225 -0.5998 -1.1510
11326SOL     OW38433   8.219   6.425   3.701 -0.9253 -0.3206 -0.3662
11326SOL    HW138434   8.311   6.452   3.697 -0.6363 -1.1464  0.3485
11326SOL    HW238435   8.177   6.491   3.755 -0.6764 -0.1468 -0.3786
11327SOL     OW38436   5.662   6.993   1.983 -0.3414 -0.1038 -0.2723
11327SOL    HW138437   5.731   6.927   1.985  0.7413  0.9692 -1.1092
11327SOL    HW238438   5.607   6.968   1.908 -1.8587 -1.8723  1.3319
11328SOL     OW38439   3.160   8.680   4.895 -0.2209 -0.0013  0.2492
11328SOL    HW138440   3.104   8.738   4.947 -0.5233  0.6051 -0.7192
11328SOL    HW238441   3.151   8.594   4.935  1.3272  0.8482  2.6203
11329SOL     OW38442   1.404   5.174   5.945  0.9425 -0.2093  0.8487
11329SOL    HW138443   1.454   5.225   5.881  0.5718  1.9351  2.1826
11329SOL    HW238444   1.354   5.239   5.994 -0.0807 -1.9434  2.2097
11330SOL     OW38445   9.753   1.236  10.294  0.7352 -0.0944 -0.0082
11330SOL    HW138446   9.777   1.315  10.342 -1.0093  0.1143  0.5689
11330SOL    HW238447   9.752   1.263  10.202 -2.2798  1.3082  0.3284
11331SOL     OW38448  10.128   8.063   3.161  0.1643 -0.3991 -0.4384
11331SOL    HW138449  10.192   7.998   3.188 -0.1136  0.0278  1.3903
11331SOL    HW238450  10.049   8.012   3.143  0.1965 -0.6687  0.1428
11332SOL     OW38451   1.899   0.014   1.618  0.1968  0.3131  0.3281
11332SOL    HW138452   1.822   0.043   1.668 -0.3454 -0.9108  0.2467
11332SOL    HW238453   1.943  -0.049   1.675 -0.3320 -0.9692 -0.6186
11333SOL     OW38454   1.128   3.599   4.681  0.5607  0.1771  0.9425
11333SOL    HW138455   1.129   3.517   4.632  1.3382  0.0847  1.0872
11333SOL    HW238456   1.038   3.630   4.676 -0.7887 -2.6851  4.2911
11334SOL     OW38457   2.447   9.522   8.772  0.1126  0.1257  0.2643
11334SOL    HW138458   2.479   9.515   8.862 -2.7163 -1.3531  1.2722
11334SOL    HW238459   2.466   9.437   8.733  0.4194  0.4201 -0.2401
11335SOL     OW38460   8.257   2.603   2.631 -0.1344  0.4959  0.0580
11335SOL    HW138461   8.282   2.686   2.591 -0.3824  0.3242 -0.4543
11335SOL    HW238462   8.310   2.598   2.711  0.6786  0.6400 -0.4640
11336SOL     OW38463  10.279   3.722   5.369  0.3709 -0.0684  0.0297
11336SOL    HW138464  10.186   3.721   5.346  0.3602  0.7869  0.0009
11336SOL    HW238465  10.314   3.797   5.321  1.4539 -1.3937 -1.3664
11337SOL     OW38466   7.772   8.312   5.038  0.3629 -0.2814 -0.6823
11337SOL    HW138467   7.767   8.407   5.036  0.8749 -0.2498 -0.7545
11337SOL    HW238468   7.840   8.290   4.974 -0.9701 -0.8139 -1.9740
11338SOL     OW38469   4.562   2.160   1.460 -0.2085  1.2085  0.3202
11338SOL    HW138470   4.607   2.127   1.382  0.2702 -0.0736  1.1141
11338SOL    HW238471   4.552   2.254   1.443  0.9203  1.1608 -0.7790
11339SOL     OW38472   0.432   1.636   3.668  0.1298 -0.0521  0.0677
11339SOL    HW138473   0.408   1.568   3.605 -1.3467 -0.4034  0.9714
11339SOL    HW238474   0.488   1.592   3.732  0.0347 -0.1507  0.0813
11340SOL     OW38475   1.089   8.562   0.784  0.1741 -0.0745 -0.6672
11340SOL    HW138476   1.083   8.654   0.759  2.4751  0.0443 -0.9332
11340SOL    HW238477   1.124   8.563   0.873 -0.1898 -0.6909 -0.5107
11341SOL     OW38478   4.807   9.574   4.728 -0.5122 -0.3220 -0.2934
11341SOL    HW138479   4.772   9.641   4.669 -1.9599 -0.8942 -0.1093
11341SOL    HW238480   4.732   9.520   4.751  0.5113 -1.6746  0.0241
11342SOL     OW38481   2.427   5.133   0.256 -0.1604  0.1325  0.0843
11342SOL    HW138482   2.340   5.118   0.218 -0.7106  1.4678  0.7695
11342SOL    HW238483   2.410   5.175   0.340  1.1388 -0.0976  0.4843
11343SOL     OW38484   9.673   5.275   6.194 -0.3192 -0.4847 -0.5255
11343SOL    HW138485   9.691   5.191   6.150 -1.4199 -1.0290  0.0201
11343SOL    HW238486   9.626   5.250   6.274  0.3463  0.5867  0.2245
11344SOL     OW38487   8.936   7.088   3.138  0.4266  0.6415 -0.1086
11344SOL    HW138488   9.019   7.107   3.094  0.1870  1.2279 -0.3214
11344SOL    HW238489   8.955   7.014   3.195  0.4022 -1.1266 -2.2776
11345SOL     OW38490   2.944   3.784   4.537 -0.2292 -0.1835 -0.5669
11345SOL    HW138491   2.996   3.842   4.593 -0.2628 -0.3332 -0.3776
11345SOL    HW238492   3.004   3.713   4.515 -0.1418 -0.0028 -0.9221
11346SOL     OW38493   5.980   5.050   3.346  0.0838 -0.0680  0.2709
11346SOL    HW138494   6.034   5.074   3.271 -0.5737 -0.1740 -0.2472
11346SOL    HW238495   5.891   5.051   3.313 -0.0670 -2.3553  0.4401
11347SOL     OW38496   0.719   5.804   8.934  0.0818  0.0720  0.1453
11347SOL    HW138497   0.769   5.739   8.983 -0.8287 -0.6624  0.1442
11347SOL    HW238498   0.635   5.809   8.981 -0.8347 -0.6822 -1.3121
11348SOL     OW38499  10.024   3.732   1.833 -0.2048 -0.1455 -0.4066
11348SOL    HW138500  10.066   3.654   1.796 -0.3533  0.0338 -0.9635
11348SOL    HW238501  10.088   3.767   1.895  0.7225  0.4559 -1.6728
11349SOL     OW38502   6.716   0.566   2.309  0.1608 -0.2518  0.3975
11349SOL    HW138503   6.727   0.518   2.391  0.9830  1.6568  1.4782
11349SOL    HW238504   6.655   0.513   2.258  1.2381 -2.5544  1.3613
11350SOL     OW38505   7.363   7.963   2.389 -0.0909 -0.0091  0.1212
11350SOL    HW138506   7.294   7.903   2.359  1.8930 -1.7459 -1.2565
11350SOL    HW238507   7.325   8.050   2.380 -1.0978 -0.6794 -3.5740
11351SOL     OW38508   0.812  10.649  10.693  0.0946 -0.0954  0.3096
11351SOL    HW138509   0.837  10.711  10.624 -0.6535  0.8508  0.8691
11351SOL    HW238510   0.760  10.583  10.647  1.3223 -0.6327 -0.3826
11352SOL     OW38511  11.054   4.478  10.427 -1.0688 -0.1196  0.6116
11352SOL    HW138512  11.133   4.484  10.373 -1.4355 -0.2399  0.0574
11352SOL    HW238513  11.015   4.394  10.403 -1.6772  0.2026  0.4569
11353SOL     OW38514   8.463   8.933   7.992 -0.2231  0.1012 -0.6023
11353SOL    HW138515   8.427   8.845   7.982  0.9997 -0.5312  0.2954
11353SOL    HW238516   8.555   8.924   7.966  0.9270  0.2119  2.9832
11354SOL     OW38517   8.282   0.958   0.575  0.0247  0.7606 -0.3270
11354SOL    HW138518   8.283   1.022   0.646 -2.1654  2.7455 -1.8868
11354SOL    HW238519   8.192   0.925   0.573  0.7453 -1.3327 -0.4949
11355SOL     OW38520   0.268   8.844   4.089  0.4049 -0.1084  0.2609
11355SOL    HW138521   0.270   8.853   4.184 -1.2407  0.5229  0.2570
11355SOL    HW238522   0.298   8.754   4.073  0.7487 -0.2005  1.3596
11356SOL     OW38523   3.392   1.666   2.322 -0.0709  0.1220  0.4592
11356SOL    HW138524   3.416   1.758   2.310  0.6684 -0.0580  0.5685
11356SOL    HW238525   3.469   1.616   2.294 -0.2766 -0.4514  0.8893
11357SOL     OW38526  10.829   7.678   9.897 -0.4324 -0.7738  0.5733
11357SOL    HW138527  10.781   7.675   9.980 -1.2624  0.5480  0.1651
11357SOL    HW238528  10.913   7.718   9.920 -0.5785 -0.6027  0.8119
11358SOL     OW38529   6.539   0.766   3.765 -0.2591  0.7214 -0.1777
11358SOL    HW138530   6.574   0.824   3.698 -0.3685  0.1495 -0.7351
11358SOL    HW238531   6.444   0.770   3.754 -0.2307 -0.3130 -0.8618
11359SOL     OW38532   1.147   0.848   5.568 -0.2616 -0.0171  0.2707
11359SOL    HW138533   1.236   0.829   5.597 -0.1374 -1.2717 -0.8435
11359SOL    HW238534   1.157   0.923   5.509 -0.4369  2.1210  2.7810
11360SOL     OW38535  10.403   2.090   2.124 -0.3089 -0.0359 -0.1191
11360SOL    HW138536  10.350   2.011   2.119 -0.0653 -0.1300 -2.3362
11360SOL    HW238537  10.362   2.150   2.061  1.2204  0.4893 -0.6528
11361SOL     OW38538  10.634   1.533   0.712  0.4185  0.2117 -0.0084
11361SOL    HW138539  10.653   1.439   0.711  1.0936  0.3188  0.8402
11361SOL    HW238540  10.720   1.574   0.717  0.2244  0.9519 -1.9836
11362SOL     OW38541   2.846  10.027   8.327  0.3464 -0.0207  0.5671
11362SOL    HW138542   2.841  10.122   8.315  1.1250  0.1624  1.5675
11362SOL    HW238543   2.772  10.006   8.384 -0.3118 -0.1530 -0.3085
11363SOL     OW38544   4.441   2.138   5.328 -0.1145  0.7901  0.4300
11363SOL    HW138545   4.484   2.159   5.411  0.3059 -0.4518  0.5469
11363SOL    HW238546   4.366   2.197   5.324 -1.5863 -0.7506  2.8939
11364SOL     OW38547  11.063   1.282   5.740 -0.6292  0.3571 -0.0931
11364SOL    HW138548  11.097   1.199   5.706 -2.5621 -0.2101 -0.7755
11364SOL    HW238549  11.047   1.335   5.663 -2.1575  0.2265  0.0970
11365SOL     OW38550   4.876   7.222   4.145  0.3516 -0.4171 -0.0449
11365SOL    HW138551   4.871   7.150   4.082  0.4133 -0.4479 -0.0142
11365SOL    HW238552   4.805   7.205   4.206  0.7805 -0.8203  0.3512
11366SOL     OW38553   1.408   1.763   0.717 -0.1796  0.1981 -0.1367
11366SOL    HW138554   1.421   1.858   0.714  1.0551  0.1145  1.4244
11366SOL    HW238555   1.494   1.727   0.741 -0.4504 -1.3889 -1.3553
11367SOL     OW38556   5.455   2.818   6.078  0.0939  0.1850 -0.0699
11367SOL    HW138557   5.505   2.744   6.112 -0.6006 -0.2752 -0.0419
11367SOL    HW238558   5.370   2.781   6.054 -0.5682  1.1258  0.7463
11368SOL     OW38559   2.402   8.964   6.350 -0.0301 -0.0216 -0.1527
11368SOL    HW138560   2.423   8.899   6.416 -1.3455 -0.1007  0.2092
11368SOL    HW238561   2.352   9.031   6.397 -1.5132 -0.3742 -1.1640
11369SOL     OW38562  10.712   9.197   1.992  0.1900 -0.1203 -0.0576
11369SOL    HW138563  10.769   9.126   2.022 -0.5126 -0.0858  1.4750
11369SOL    HW238564  10.751   9.227   1.910  1.3151 -1.3069  0.0153
11370SOL     OW38565   0.077   3.114   9.514  0.4279  0.4507  0.4475
11370SOL    HW138566  -0.007   3.159   9.515 -0.0034 -0.3141 -0.3639
11370SOL    HW238567   0.136   3.174   9.468  0.3951  1.0839  1.2111
11371SOL     OW38568   8.019   5.500  10.548 -0.2588  0.0211 -0.6014
11371SOL    HW138569   8.046   5.424  10.600 -0.3908  0.0201 -0.5343
11371SOL    HW238570   7.967   5.464  10.477  0.7352 -0.0769 -1.3088
11372SOL     OW38571   1.196   0.059   0.761 -0.2106 -0.0193 -0.4290
11372SOL    HW138572   1.262   0.027   0.822  0.6540 -2.0891 -2.3429
11372SOL    HW238573   1.130   0.101   0.817  0.2702 -2.2573  1.9781
11373SOL     OW38574   4.050   0.051  10.966  0.3482 -0.2520 -0.5296
11373SOL    HW138575   4.042  -0.027  10.911  1.1893 -0.4599 -0.3690
11373SOL    HW238576   4.002   0.119  10.918 -1.5199 -1.1522 -0.0525
11374SOL     OW38577   7.902   3.763   5.458  0.4119 -0.5195  0.0646
11374SOL    HW138578   7.953   3.788   5.534  1.1035  0.1594 -0.6038
11374SOL    HW238579   7.835   3.831   5.449  1.1328  0.1154 -0.6665
11375SOL     OW38580   7.128   1.098   6.489  0.5341 -0.2478  0.1522
11375SOL    HW138581   7.111   1.183   6.449  0.1848 -1.1451 -1.7524
11375SOL    HW238582   7.111   1.111   6.582 -1.0861  1.3693 -0.3062
11376SOL     OW38583   7.405   1.375   1.477  0.3665  0.4167  0.5159
11376SOL    HW138584   7.406   1.281   1.495  0.1461  0.5557  1.2925
11376SOL    HW238585   7.474   1.411   1.532  2.0111  0.4400 -1.4629
11377SOL     OW38586   7.358   8.271   7.916  0.1184 -0.0998 -0.0756
11377SOL    HW138587   7.379   8.232   7.831  1.2462  1.2849 -0.4692
11377SOL    HW238588   7.270   8.307   7.904 -0.4594 -1.4459 -0.0674
11378SOL     OW38589   2.854   2.883   5.368 -0.0618 -0.5484 -0.5608
11378SOL    HW138590   2.940   2.888   5.326  0.4338  0.3852  0.5236
11378SOL    HW238591   2.836   2.789   5.373  0.5854 -0.7324 -1.3811
11379SOL     OW38592   7.419   6.059  10.670 -0.3382  0.2900 -0.1714
11379SOL    HW138593   7.514   6.069  10.673 -0.2565 -0.4879  1.9006
11379SOL    HW238594   7.404   5.967  10.692 -1.5719  0.3078 -0.8202
11380SOL     OW38595   3.036   7.958   2.933  0.2945 -0.3644  0.2087
11380SOL    HW138596   3.067   7.877   2.893  0.1002 -0.6131  0.5517
11380SOL    HW238597   2.993   8.006   2.862 -3.0229 -2.2711  0.7006
11381SOL     OW38598  10.847   6.445   9.211  0.3306 -0.0087 -0.6608
11381SOL    HW138599  10.788   6.385   9.166 -0.6995  0.7373 -0.3548
11381SOL    HW238600  10.789   6.507   9.255  1.3528  1.0251 -0.7097
11382SOL     OW38601   9.349   3.154   7.979  0.0365 -0.2253 -0.0228
11382SOL    HW138602   9.334   3.210   8.055  0.2663  0.8352 -0.7388
11382SOL    HW238603   9.272   3.169   7.923 -0.3247 -1.2975  0.1604
11383SOL     OW38604   5.244   5.961  10.910  0.2683 -0.1992  0.1868
11383SOL    HW138605   5.328   5.924  10.884 -0.9574 -3.9809  1.0495
11383SOL    HW238606   5.262   6.002  10.995  1.3772 -0.2393 -0.0102
11384SOL     OW38607   7.585   5.801  10.197  0.3856 -0.1933  0.1416
11384SOL    HW138608   7.665   5.798  10.145 -0.1555  1.6691 -0.8718
11384SOL    HW238609   7.603   5.867  10.265 -0.7308  1.3328 -0.9755
11385SOL     OW38610   5.302   6.250   4.457  0.0064 -0.2271  0.0810
11385SOL    HW138611   5.259   6.333   4.476 -1.0655 -0.7808  0.1115
11385SOL    HW238612   5.396   6.270   4.463 -0.2346  0.9686  0.1051
11386SOL     OW38613   1.455   9.531   8.522 -0.3620 -0.4082 -0.0347
11386SOL    HW138614   1.533   9.586   8.521 -0.1428 -0.7146 -0.7206
11386SOL    HW238615   1.388   9.582   8.476 -0.4716 -0.2843  0.2596
11387SOL     OW38616   4.417   3.073   9.806  0.2887  0.1640  0.1104
11387SOL    HW138617   4.345   3.022   9.769  0.4262 -0.4483  0.6471
11387SOL    HW238618   4.482   3.007   9.830  0.3671  0.5671  1.0538
11388SOL     OW38619  10.613   2.925   3.759  0.0370 -0.4239 -0.8117
11388SOL    HW138620  10.561   2.944   3.681  0.6832  0.1380 -1.1167
11388SOL    HW238621  10.575   2.845   3.795 -0.7627 -0.2538 -1.2622
11389SOL     OW38622   0.471   6.491   2.443  0.6225  0.1187  0.1022
11389SOL    HW138623   0.521   6.413   2.418  0.8156  0.1704  0.3273
11389SOL    HW238624   0.518   6.527   2.518  1.5966  1.4818 -1.1054
11390SOL     OW38625   7.741   1.112  10.515  0.1069 -0.2437 -0.0730
11390SOL    HW138626   7.758   1.092  10.607  1.3799  0.1719 -0.1973
11390SOL    HW238627   7.825   1.096  10.471  0.4340  2.5740 -0.6426
11391SOL     OW38628   2.716   7.357   2.815  0.3188 -0.0844  0.6844
11391SOL    HW138629   2.635   7.389   2.776  0.3380  0.0229  0.7311
11391SOL    HW238630   2.740   7.281   2.762  0.9024  0.6793 -0.1785
11392SOL     OW38631   8.561   7.443   3.405 -0.2115  0.4697  0.3881
11392SOL    HW138632   8.571   7.391   3.325  0.0677  1.6120 -0.3403
11392SOL    HW238633   8.628   7.510   3.398 -0.1722  0.5744  1.6071
11393SOL     OW38634   7.610   0.620   2.263 -0.4120  0.3489 -0.1789
11393SOL    HW138635   7.638   0.655   2.348  2.7386 -0.6617 -0.6740
11393SOL    HW238636   7.600   0.526   2.279 -0.3213  0.2302 -0.7976
11394SOL     OW38637   7.646  10.831   8.736  0.2800 -0.3577  0.3125
11394SOL    HW138638   7.622  10.743   8.709 -2.1610 -0.1503  1.5845
11394SOL    HW238639   7.645  10.882   8.655  2.1590 -1.5188 -0.5069
11395SOL     OW38640   6.316   3.057   4.158  0.1708 -0.2221  0.2662
11395SOL    HW138641   6.230   3.017   4.173  0.5393 -1.5477 -0.9756
11395SOL    HW238642   6.300   3.123   4.091  0.3812 -1.6994 -1.3095
11396SOL     OW38643   2.598   6.947   3.540 -0.9164 -0.2736 -0.0462
11396SOL    HW138644   2.601   6.876   3.476  0.0381 -2.1671  1.9784
11396SOL    HW238645   2.660   7.012   3.508 -1.3842 -0.5813 -1.6406
11397SOL     OW38646  10.280   7.267   9.144 -0.1329  1.0360  0.1080
11397SOL    HW138647  10.208   7.300   9.198 -0.8230 -0.4449  0.1519
11397SOL    HW238648  10.338   7.342   9.133  0.3235  1.2969  3.3384
11398SOL     OW38649   4.427   0.980   9.069 -0.1619  0.3975  0.3338
11398SOL    HW138650   4.371   0.903   9.067 -0.6900  0.7514  0.8482
11398SOL    HW238651   4.448   0.992   9.162  0.1879  0.6744  0.2216
11399SOL     OW38652   6.711   5.190   8.284  0.7713 -0.1672 -0.2627
11399SOL    HW138653   6.747   5.180   8.372 -0.0500 -1.9783 -0.0803
11399SOL    HW238654   6.622   5.222   8.298  0.6435 -0.4467 -0.4278
11400SOL     OW38655   3.877   0.381   1.175 -0.4898 -0.6487 -0.6226
11400SOL    HW138656   3.802   0.432   1.144 -0.9519  0.4369  1.9546
11400SOL    HW238657   3.951   0.442   1.173 -0.6387 -0.3850  0.7323
11401SOL     OW38658   2.433   4.268   6.356 -0.3507  0.6487  0.0347
11401SOL    HW138659   2.518   4.258   6.399 -0.4976  1.1069  0.4343
11401SOL    HW238660   2.374   4.296   6.426 -1.3442 -1.7667  0.2766
11402SOL     OW38661   3.661   5.449   9.281 -0.3070  0.8517  0.1757
11402SOL    HW138662   3.711   5.477   9.204 -1.6216  2.1881 -0.2311
11402SOL    HW238663   3.572   5.479   9.264 -1.2415 -1.2966  0.9783
11403SOL     OW38664   6.241   4.781   9.955 -0.5166  0.4149  0.5029
11403SOL    HW138665   6.258   4.843   9.884 -0.5358  0.5345  0.6026
11403SOL    HW238666   6.237   4.835  10.034  0.8335  0.1405  0.7807
11404SOL     OW38667   9.192   6.474   4.099 -0.0462  0.0011  0.0325
11404SOL    HW138668   9.133   6.536   4.141 -1.2153 -0.4702 -0.8437
11404SOL    HW238669   9.179   6.392   4.147 -1.0580 -0.4222 -0.9145
11405SOL     OW38670  10.796   8.689   7.892 -0.3766  0.4150  0.0429
11405SOL    HW138671  10.849   8.765   7.919  1.2137 -1.1456  1.6349
11405SOL    HW238672  10.810   8.682   7.798  2.0433  0.2989  0.3517
11406SOL     OW38673   2.744   3.350   7.262  0.8155 -0.0494  1.0770
11406SOL    HW138674   2.711   3.267   7.227  2.4979 -0.8503  1.3195
11406SOL    HW238675   2.692   3.416   7.216  0.3335 -1.1879 -0.0959
11407SOL     OW38676   8.912   2.261   0.913 -0.1444 -0.1448  0.4066
11407SOL    HW138677   8.974   2.333   0.902 -0.0336 -0.4266 -1.0072
11407SOL    HW238678   8.861   2.284   0.991  0.5031  0.9949  0.5053
11408SOL     OW38679   9.791   0.815   1.332  0.4314 -0.2759  0.3737
11408SOL    HW138680   9.729   0.769   1.274  0.8198 -0.6137  0.2260
11408SOL    HW238681   9.782   0.907   1.307 -0.8753 -0.1659  1.1630
11409SOL     OW38682  10.791   4.730   0.245  0.4360 -0.5108  0.1611
11409SOL    HW138683  10.830   4.646   0.271  2.3139 -0.1134 -1.1717
11409SOL    HW238684  10.812   4.789   0.317 -1.3622 -1.2229  1.3677
11410SOL     OW38685   8.970   7.764   8.593 -0.3290 -0.1993  0.3567
11410SOL    HW138686   9.027   7.689   8.606  0.8622  0.4179 -1.0520
11410SOL    HW238687   8.934   7.752   8.505  1.4157  1.8217 -0.7098
11411SOL     OW38688  10.662   3.879   6.949  0.1776  0.0523  0.2434
11411SOL    HW138689  10.649   3.828   6.869 -0.1209 -0.3877  0.5672
11411SOL    HW238690  10.668   3.814   7.018 -1.9828  0.4937  0.9100
11412SOL     OW38691  10.278   4.375   8.981  0.2217 -0.0985 -0.3673
11412SOL    HW138692  10.302   4.466   8.968 -0.5173  0.1517 -0.0750
11412SOL    HW238693  10.251   4.344   8.895 -2.0065  0.7358 -0.0310
11413SOL     OW38694   1.101   1.859   7.464  0.2527  0.0484 -0.0860
11413SOL    HW138695   1.104   1.763   7.467  1.1067 -0.0816 -2.8743
11413SOL    HW238696   1.008   1.880   7.453  0.1244 -0.4687 -0.0127
11414SOL     OW38697   9.966   0.010   4.587 -0.1493 -0.0128 -0.0583
11414SOL    HW138698   9.921   0.058   4.657 -0.9049  0.3860 -0.8086
11414SOL    HW238699   9.974   0.073   4.515 -0.8656 -0.8918 -0.9352
11415SOL     OW38700   4.687   2.831  11.029  0.5728  0.8022 -0.6390
11415SOL    HW138701   4.728   2.808  11.112 -1.2845  1.9623  0.6802
11415SOL    HW238702   4.599   2.794  11.035  0.2396  1.3412 -1.8869
11416SOL     OW38703  10.836   5.168   3.520 -0.6315  0.5917  0.0327
11416SOL    HW138704  10.796   5.192   3.604  0.0082  2.3315 -0.1077
11416SOL    HW238705  10.922   5.209   3.523  0.0809 -0.7758 -0.7975
11417SOL     OW38706   4.246   9.324   5.270  0.6784 -0.0018  0.4216
11417SOL    HW138707   4.173   9.320   5.331 -3.1002  1.4306 -3.4989
11417SOL    HW238708   4.236   9.246   5.215  0.1536  1.6200 -1.9586
11418SOL     OW38709   6.241   9.986   2.778  0.0953  0.3309 -0.4301
11418SOL    HW138710   6.218   9.918   2.840  1.3389 -0.4144 -0.7568
11418SOL    HW238711   6.246  10.066   2.830 -2.7232  0.5178 -0.2636
11419SOL     OW38712   5.777   0.373   0.158  0.4488 -0.0081 -0.1150
11419SOL    HW138713   5.858   0.413   0.190  0.2894  0.2166  0.0141
11419SOL    HW238714   5.734   0.442   0.108 -0.8649  0.7135  1.8937
11420SOL     OW38715   1.097  10.451   8.411 -0.0583  0.1862  0.8637
11420SOL    HW138716   1.134  10.488   8.491 -0.7991  1.1209  0.7828
11420SOL    HW238717   1.009  10.421   8.436  0.1799 -0.7003  0.6993
11421SOL     OW38718   1.780   0.818   2.029 -0.4095 -0.7990  0.0725
11421SOL    HW138719   1.688   0.843   2.021 -0.6118 -1.3660  0.6378
11421SOL    HW238720   1.813   0.872   2.100  0.0694  0.4252 -1.0243
11422SOL     OW38721   3.873   1.197   0.629 -0.0586 -0.1813  0.5922
11422SOL    HW138722   3.939   1.138   0.592 -1.3678 -1.6452  0.4986
11422SOL    HW238723   3.886   1.279   0.582  1.6553 -0.4388  0.5469
11423SOL     OW38724  11.041   8.774   1.046  0.1618 -0.5477  0.3081
11423SOL    HW138725  10.996   8.828   0.982  0.2791  0.1552  0.8068
11423SOL    HW238726  11.108   8.831   1.083 -0.1469 -0.8172  1.3241
11424SOL     OW38727   6.428   9.579   9.164 -0.0962  0.2696 -0.6003
11424SOL    HW138728   6.439   9.489   9.132  0.0699  0.5635 -1.4001
11424SOL    HW238729   6.350   9.575   9.219 -0.4893 -0.2348 -1.1701
11425SOL     OW38730   9.579   2.135   9.133 -0.1358 -0.1469  0.2999
11425SOL    HW138731   9.592   2.062   9.072 -0.1176  1.2587 -1.4489
11425SOL    HW238732   9.484   2.144   9.139 -0.1358 -0.2160  0.4252
11426SOL     OW38733   9.825   7.408   2.907 -0.0908  1.0021  0.4110
11426SOL    HW138734   9.820   7.478   2.843 -0.3160  1.3664  0.8234
11426SOL    HW238735   9.898   7.433   2.964  0.3971  0.4582  0.0402
11427SOL     OW38736   2.926   2.113   4.115  0.1044  0.0637 -0.0813
11427SOL    HW138737   2.919   2.033   4.167 -1.9357  1.4110  1.9522
11427SOL    HW238738   2.982   2.171   4.168 -2.2040  1.5521  0.8719
11428SOL     OW38739   2.981   5.356   4.213  0.3366  0.3316 -0.1746
11428SOL    HW138740   2.973   5.410   4.292 -1.0466  1.4448 -1.0303
11428SOL    HW238741   3.057   5.300   4.230 -0.2390  0.1490  2.1623
11429SOL     OW38742   4.815   6.028   3.762  0.3646  0.4984 -0.0465
11429SOL    HW138743   4.762   5.978   3.701 -0.3095  0.6160  0.4352
11429SOL    HW238744   4.874   5.964   3.802 -0.3572  0.1212  0.4247
11430SOL     OW38745   5.845   5.504   4.675  0.1732 -0.2973  0.2757
11430SOL    HW138746   5.823   5.585   4.630  0.7312 -0.1034  0.3479
11430SOL    HW238747   5.821   5.435   4.613  1.1127 -0.0298 -0.4172
11431SOL     OW38748   9.899   5.796  10.428 -0.1490  0.3295 -0.7117
11431SOL    HW138749   9.891   5.804  10.523 -0.2284 -0.3935 -0.6499
11431SOL    HW238750   9.869   5.880  10.394 -1.5743  0.0788 -0.1665
11432SOL     OW38751   6.210   1.603   7.860 -0.1118  0.4265 -0.6106
11432SOL    HW138752   6.186   1.685   7.816  1.5602  1.2420 -0.0858
11432SOL    HW238753   6.127   1.560   7.877 -0.9980  1.7446 -1.4163
11433SOL     OW38754   2.270   4.393   6.154  0.4370 -0.7196 -0.2648
11433SOL    HW138755   2.328   4.450   6.204 -0.1896  0.1448 -0.5043
11433SOL    HW238756   2.253   4.320   6.214 -0.8762  0.6412  1.1399
11434SOL     OW38757   1.821   1.429   3.603  0.6229  0.1220  0.2994
11434SOL    HW138758   1.905   1.467   3.630  1.5693 -1.9337  0.4582
11434SOL    HW238759   1.843   1.340   3.576 -1.7875 -1.1227  2.0978
11435SOL     OW38760   9.089   7.814  10.293 -0.2289 -0.7555 -0.1149
11435SOL    HW138761   9.072   7.834  10.385  0.7078  0.8727 -0.2548
11435SOL    HW238762   9.169   7.762  10.294  0.6665  0.5546 -0.0490
11436SOL     OW38763   8.146  10.546   1.340  0.3815  0.1536  0.3292
11436SOL    HW138764   8.054  10.563   1.363 -0.1253  1.4178 -2.1665
11436SOL    HW238765   8.185  10.634   1.331  1.1478 -0.2825 -0.9234
11437SOL     OW38766   9.332  10.634   2.887 -0.2816 -0.0884 -0.1934
11437SOL    HW138767   9.308  10.572   2.818  1.2988 -0.4832 -0.4251
11437SOL    HW238768   9.382  10.582   2.949  1.1487  0.9508 -0.4303
11438SOL     OW38769   0.185   6.583   2.833  0.4300  0.1597  0.0579
11438SOL    HW138770   0.109   6.627   2.796  1.9273  1.3107 -1.8390
11438SOL    HW238771   0.180   6.494   2.799  0.1874  0.3702 -0.4591
11439SOL     OW38772   7.413  10.242  10.200  0.3532 -0.0334  0.3574
11439SOL    HW138773   7.393  10.330  10.169  0.5598  0.1261  0.6748
11439SOL    HW238774   7.508  10.240  10.209  0.3738 -0.3752  0.0971
11440SOL     OW38775   6.911  10.418   4.680  0.4277  0.6066 -0.6134
11440SOL    HW138776   6.848  10.362   4.726 -0.4432  2.1264  0.1116
11440SOL    HW238777   6.873  10.430   4.593  0.3404  0.4989 -0.5907
11441SOL     OW38778  10.876   6.454   6.055  0.1215 -0.3989  0.2258
11441SOL    HW138779  10.802   6.468   5.996  0.0070 -2.0371 -0.0626
11441SOL    HW238780  10.881   6.359   6.065  1.4313 -0.2516  1.2222
11442SOL     OW38781   6.168   4.584   0.407  0.0426  0.0511 -0.0027
11442SOL    HW138782   6.208   4.515   0.462 -0.2816  0.0413  0.2209
11442SOL    HW238783   6.092   4.613   0.457  0.2716  0.6875 -0.0253
11443SOL     OW38784   7.045  10.041   0.595 -0.2732  0.1400 -0.2803
11443SOL    HW138785   7.029   9.950   0.570 -0.1894  0.3778 -1.2309
11443SOL    HW238786   7.125  10.037   0.648 -1.5517 -0.6278  1.7408
11444SOL     OW38787   2.068   5.079   0.809  0.5564  0.0965  0.0525
11444SOL    HW138788   2.114   5.109   0.731 -0.1144  0.0896 -0.3544
11444SOL    HW238789   2.120   5.005   0.840  0.7238 -0.0293 -0.5064
11445SOL     OW38790   4.677   3.911   2.937  0.4687 -0.0547 -0.2137
11445SOL    HW138791   4.696   3.907   3.031 -0.9263  2.3762  0.2855
11445SOL    HW238792   4.725   3.988   2.906  0.5602 -0.5686 -1.4094
11446SOL     OW38793  10.756   1.265   1.810 -0.3268  0.5471  0.3504
11446SOL    HW138794  10.686   1.290   1.750  0.9093  1.8958 -0.6050
11446SOL    HW238795  10.835   1.267   1.757  0.6980  0.9423  1.8307
11447SOL     OW38796   0.681   1.932   4.718  0.2056  0.4586  0.4247
11447SOL    HW138797   0.667   1.979   4.636  2.4716 -0.3762 -0.5142
11447SOL    HW238798   0.594   1.900   4.742 -0.4066  0.0670 -2.0640
11448SOL     OW38799   0.678   6.442   1.914 -0.3748  0.8367 -0.0955
11448SOL    HW138800   0.762   6.463   1.873  0.0886 -0.7624 -0.0085
11448SOL    HW238801   0.684   6.481   2.002 -0.6114  2.5969 -0.8264
11449SOL     OW38802  10.981   3.614   4.535 -0.2924 -0.1098  0.1651
11449SOL    HW138803  11.003   3.570   4.617  1.3553  1.8617  0.8427
11449SOL    HW238804  10.919   3.682   4.560  0.9112  1.0891 -0.0443
11450SOL     OW38805   3.464   2.217   3.218 -1.3037 -0.4371 -0.2437
11450SOL    HW138806   3.451   2.312   3.227 -0.8954 -0.4617  0.7075
11450SOL    HW238807   3.510   2.191   3.298 -1.3982 -1.4405 -0.4985
11451SOL     OW38808  10.293   9.743   3.330 -0.5227  0.3020  0.3643
11451SOL    HW138809  10.246   9.795   3.396  1.6687  1.9850  0.7225
11451SOL    HW238810  10.385   9.769   3.340  0.2397 -1.3380 -1.6303
11452SOL     OW38811  10.619   1.077   8.260 -0.4043 -0.4645 -0.2945
11452SOL    HW138812  10.682   1.058   8.190 -0.3909 -1.3882 -0.0546
11452SOL    HW238813  10.537   1.039   8.229 -0.8678  0.7849 -0.6277
11453SOL     OW38814   4.222   7.377   3.538 -0.0025 -0.0951 -0.3111
11453SOL    HW138815   4.197   7.336   3.621 -1.3081 -0.8578 -1.0581
11453SOL    HW238816   4.141   7.412   3.503  0.7204  1.1706 -0.7806
11454SOL     OW38817   2.306   5.744   0.760  0.6096 -0.3655 -0.2464
11454SOL    HW138818   2.263   5.697   0.832  0.5203  1.1670  0.7321
11454SOL    HW238819   2.312   5.834   0.790  0.0324  0.4548 -2.4146
11455SOL     OW38820   7.748  10.373   9.415  0.0272  0.0831 -0.1335
11455SOL    HW138821   7.815  10.441   9.430 -0.0020 -0.1248  1.0039
11455SOL    HW238822   7.677  10.420   9.371 -0.7524  1.2540  2.2057
11456SOL     OW38823   2.029   2.073   9.478 -0.0417  0.4276 -0.0593
11456SOL    HW138824   1.993   2.008   9.418 -0.6229  0.9138 -0.2505
11456SOL    HW238825   2.067   2.022   9.549  0.4693 -0.1494 -0.7345
11457SOL     OW38826   7.096   8.305   0.675 -0.4545 -0.2158  0.0960
11457SOL    HW138827   7.070   8.254   0.752  1.2895  0.6634  1.3627
11457SOL    HW238828   7.151   8.246   0.624  0.7769  0.0248  1.0748
11458SOL     OW38829   6.123   4.046   0.012  0.0918  0.6102 -0.2360
11458SOL    HW138830   6.145   3.992  -0.064  0.6895  1.2093 -0.4967
11458SOL    HW238831   6.150   4.135  -0.012  3.1337  0.4044  1.7420
11459SOL     OW38832   9.325   3.909   0.807 -0.4413 -0.3084 -0.7017
11459SOL    HW138833   9.314   3.998   0.842  0.3432 -0.5893  0.3074
11459SOL    HW238834   9.236   3.877   0.795 -0.7422  0.0661  0.3980
11460SOL     OW38835   1.086   7.764   9.897 -0.9058  0.3856  0.7374
11460SOL    HW138836   1.061   7.853   9.872 -0.0654  0.6812  0.9163
11460SOL    HW238837   1.133   7.775   9.980  1.3213  0.0646 -0.4138
11461SOL     OW38838   0.245   3.300   9.380 -0.3284 -0.0565 -0.0698
11461SOL    HW138839   0.270   3.349   9.301 -1.0193  1.1291  0.4243
11461SOL    HW238840   0.327   3.265   9.413  0.0338 -0.1874 -1.0647
11462SOL     OW38841   3.446   3.811   7.256  0.2352 -0.0595 -0.6868
11462SOL    HW138842   3.507   3.743   7.284 -0.4400 -0.4866 -0.2159
11462SOL    HW238843   3.438   3.870   7.330 -0.6411 -0.5336 -0.3864
11463SOL     OW38844   1.889   9.855   9.545  0.9167 -0.3805  0.0288
11463SOL    HW138845   1.795   9.860   9.526  1.1330  0.3359 -0.9438
11463SOL    HW238846   1.894   9.837   9.639 -0.2280 -3.0411 -0.3159
11464SOL     OW38847   1.654   2.674   9.294  0.3198 -0.2607 -0.2736
11464SOL    HW138848   1.604   2.617   9.352  0.8263  0.2996  0.7390
11464SOL    HW238849   1.742   2.674   9.331  0.4447  0.7793 -0.5491
11465SOL     OW38850   6.686   8.801   3.181 -0.7991 -0.4293 -0.6700
11465SOL    HW138851   6.638   8.761   3.253  0.1325  0.3219  0.4086
11465SOL    HW238852   6.724   8.728   3.133  0.5423 -0.9276  1.0238
11466SOL     OW38853   9.732   8.380   9.592 -0.1995 -0.0460  0.3210
11466SOL    HW138854   9.807   8.417   9.639 -0.9144 -0.3983  1.8132
11466SOL    HW238855   9.733   8.423   9.507  0.9472  0.8905  0.7818
11467SOL     OW38856   5.810   7.515   1.501  0.3263  0.3545 -0.2555
11467SOL    HW138857   5.813   7.588   1.439  0.6576  0.3054 -0.3030
11467SOL    HW238858   5.902   7.501   1.524  0.2089  0.3349  0.2017
11468SOL     OW38859   2.174   4.539   1.965 -0.7541 -0.5320 -0.0415
11468SOL    HW138860   2.162   4.486   2.044  0.0721 -0.3875  0.1911
11468SOL    HW238861   2.194   4.627   1.998 -0.8230 -0.3755 -0.4131
11469SOL     OW38862   0.783   9.171   4.333 -0.0036  0.4574 -0.6807
11469SOL    HW138863   0.768   9.101   4.271  0.3812  1.1663 -1.5973
11469SOL    HW238864   0.875   9.195   4.321  0.6390 -0.6000  1.4554
11470SOL     OW38865   7.951  10.670   7.321  0.0276 -0.6429 -0.2458
11470SOL    HW138866   7.996  10.733   7.265 -0.1998 -1.2534 -1.1384
11470SOL    HW238867   8.004  10.666   7.400  0.3457  0.2477 -0.4039
11471SOL     OW38868   5.861   6.490   9.105  0.0493 -0.6247 -0.4132
11471SOL    HW138869   5.951   6.523   9.111 -0.0598 -0.1868 -1.0806
11471SOL    HW238870   5.811   6.547   9.164  0.1520 -0.6609 -0.2903
11472SOL     OW38871   5.990   5.826   0.003 -0.2930  0.0744 -0.1396
11472SOL    HW138872   6.026   5.910   0.032  1.0257  0.0414 -1.5191
11472SOL    HW238873   6.046   5.761   0.045 -2.5854 -0.2956  2.6379
11473SOL     OW38874   5.268   0.720  10.501  0.4440 -0.3374  0.1883
11473SOL    HW138875   5.352   0.728  10.548 -1.1318  0.2253  3.1514
11473SOL    HW238876   5.216   0.661  10.556 -1.6807  0.6541 -0.6672
11474SOL     OW38877   1.367   3.450   7.972 -0.5167 -0.7780 -0.3536
11474SOL    HW138878   1.401   3.520   8.028 -2.8480  0.2526 -0.1221
11474SOL    HW238879   1.356   3.375   8.031 -0.4674 -0.5227 -0.0178
11475SOL     OW38880   2.466   1.149   2.739  0.7862 -0.0863  0.6407
11475SOL    HW138881   2.471   1.054   2.752  0.8636 -0.2464 -0.4639
11475SOL    HW238882   2.515   1.164   2.658  0.5797  0.8730  0.6920
11476SOL     OW38883   7.950   3.318   3.535  0.0597 -0.1106 -0.1139
11476SOL    HW138884   7.907   3.342   3.452 -2.4907 -0.8020  0.9051
11476SOL    HW238885   7.904   3.240   3.564  2.0211 -0.8553  1.1921
11477SOL     OW38886   1.314   7.321   4.526 -0.2994 -0.3779  0.2637
11477SOL    HW138887   1.381   7.388   4.530  0.7138 -1.3111 -0.3228
11477SOL    HW238888   1.309   7.285   4.615  0.7208 -0.9830  0.0886
11478SOL     OW38889   9.901   4.200   0.774  0.0988 -0.5110  0.0173
11478SOL    HW138890   9.970   4.186   0.709 -0.4877 -1.8512 -0.3427
11478SOL    HW238891   9.880   4.293   0.765  0.1166 -0.6248 -1.6429
11479SOL     OW38892   1.620   8.333   1.155  0.0769  0.3407 -0.5166
11479SOL    HW138893   1.614   8.418   1.199  2.4287  0.6321 -0.5984
11479SOL    HW238894   1.544   8.284   1.187 -0.1307  1.7067  1.2779
11480SOL     OW38895   5.715   6.595   1.753  0.0393 -0.4302 -0.4153
11480SOL    HW138896   5.758   6.574   1.836 -0.8314 -3.2455 -0.5852
11480SOL    HW238897   5.778   6.651   1.707  0.7589  0.7812  1.8746
11481SOL     OW38898   3.594   4.366   7.408  0.0508  0.7763 -0.2472
11481SOL    HW138899   3.688   4.350   7.413 -0.3535 -1.7493  1.5158
11481SOL    HW238900   3.561   4.294   7.354 -1.1557 -0.4129  1.9348
11482SOL     OW38901  11.007   3.731   7.209 -0.0793 -0.0198  0.8786
11482SOL    HW138902  11.088   3.747   7.162  0.6573 -1.3098  1.6323
11482SOL    HW238903  10.968   3.817   7.222  0.9507  0.5710  0.1306
11483SOL     OW38904   1.025   7.179   0.085  0.3255  0.0492  0.2468
11483SOL    HW138905   1.117   7.152   0.091  0.4605  0.7118  1.3834
11483SOL    HW238906   0.985   7.114   0.027  1.6074  0.0213 -0.6575
11484SOL     OW38907   5.208   0.304   8.151 -0.3609  0.2150  0.4835
11484SOL    HW138908   5.134   0.307   8.212  0.4959  1.2590  1.5138
11484SOL    HW238909   5.285   0.312   8.207  0.4501  1.1684 -0.7225
11485SOL     OW38910   1.347   9.131   2.475 -0.4368  0.0880 -0.1244
11485SOL    HW138911   1.385   9.170   2.554  0.7009 -0.7172 -0.2434
11485SOL    HW238912   1.274   9.189   2.453 -0.8815  0.2519  1.5894
11486SOL     OW38913   5.580   1.316   9.323 -0.2603  0.4300 -0.7460
11486SOL    HW138914   5.567   1.222   9.339  3.6094  0.0349  1.2783
11486SOL    HW238915   5.493   1.354   9.336 -1.2813 -2.4315  2.3772
11487SOL     OW38916   4.302   0.409   5.218  0.2267  0.1050  0.5526
11487SOL    HW138917   4.228   0.367   5.262 -0.0173 -1.4620 -1.2159
11487SOL    HW238918   4.263   0.473   5.159  0.5892  2.7868  3.0083
11488SOL     OW38919   7.619   2.356   6.418  0.9473  0.4140  0.4695
11488SOL    HW138920   7.661   2.430   6.461  2.2056  0.6911 -1.1664
11488SOL    HW238921   7.576   2.393   6.341  1.5539 -0.5274 -0.3472
11489SOL     OW38922   9.236   9.529   2.998  0.2121 -0.1112 -0.0549
11489SOL    HW138923   9.163   9.498   3.051 -1.7070  1.4114 -1.6180
11489SOL    HW238924   9.227   9.481   2.915  1.2114 -0.1681 -0.1392
11490SOL     OW38925   7.723   8.064   4.316  0.3659 -0.3237  1.0477
11490SOL    HW138926   7.790   8.102   4.259 -0.3418  0.5251  0.7546
11490SOL    HW238927   7.640   8.086   4.274 -0.0941 -2.2711  0.8333
11491SOL     OW38928   7.774   8.302   4.724  0.0645 -0.2084 -0.5245
11491SOL    HW138929   7.809   8.217   4.696  3.0918  1.4718 -2.2973
11491SOL    HW238930   7.827   8.326   4.800 -0.4906  0.2880 -0.2898
11492SOL     OW38931   8.891   7.466   3.596  0.2426  0.3800  0.8556
11492SOL    HW138932   8.981   7.449   3.624  0.5845 -0.2893 -0.5784
11492SOL    HW238933   8.899   7.490   3.503 -1.0912 -0.0577  0.6111
11493SOL     OW38934   8.520  10.654   6.842 -0.5595 -0.0944  0.0125
11493SOL    HW138935   8.450  10.599   6.808  0.3342 -0.4258 -1.3739
11493SOL    HW238936   8.573  10.595   6.897 -0.9769 -0.0002  0.5276
11494SOL     OW38937   6.555   6.734   3.336  0.1417 -0.0633  1.0773
11494SOL    HW138938   6.573   6.746   3.430 -0.0311  1.1340  0.9695
11494SOL    HW238939   6.461   6.744   3.329  0.3889  2.2544  0.4660
11495SOL     OW38940   6.780   2.720   8.448 -0.4578  0.4308 -0.3859
11495SOL    HW138941   6.816   2.768   8.374  1.1163 -1.4394 -0.9163
11495SOL    HW238942   6.685   2.724   8.436 -0.2960  1.7031 -1.4545
11496SOL     OW38943  10.866   7.077   9.280 -0.1085  0.3002  0.1367
11496SOL    HW138944  10.786   7.129   9.276  0.5408  1.3001 -0.3679
11496SOL    HW238945  10.838   6.988   9.259 -0.8992  0.8616 -1.3550
11497SOL     OW38946   8.246   8.414  10.849 -0.9602 -0.4844 -0.3971
11497SOL    HW138947   8.236   8.442  10.759 -0.4224 -0.5018 -0.4665
11497SOL    HW238948   8.170   8.359  10.866 -1.3334 -0.0572 -0.6717
11498SOL     OW38949   3.437   1.602   8.953  0.6981 -0.3478 -0.4307
11498SOL    HW138950   3.475   1.592   8.866 -0.3902 -1.1965 -0.8267
11498SOL    HW238951   3.368   1.667   8.941  0.3302 -0.7062 -0.2843
11499SOL     OW38952   7.348   0.288   2.673  1.1045 -0.1585 -0.0641
11499SOL    HW138953   7.311   0.319   2.590 -1.4009 -1.9565  0.2635
11499SOL    HW238954   7.335   0.361   2.734  0.8570  0.3577 -0.7211
11500SOL     OW38955   4.198   9.876   5.910 -0.7525  0.2512 -0.1810
11500SOL    HW138956   4.176   9.892   6.002  1.0073  1.7683  0.0470
11500SOL    HW238957   4.135   9.810   5.881 -1.4037 -0.2118  2.0811
11501SOL     OW38958   0.906   9.633   9.208 -0.3179 -0.3736 -0.3263
11501SOL    HW138959   0.983   9.583   9.180  0.5849 -0.7512  2.5170
11501SOL    HW238960   0.872   9.585   9.283 -3.2158 -0.0240 -1.2941
11502SOL     OW38961   7.882  11.057   6.827  0.1799 -0.1755 -0.1746
11502SOL    HW138962   7.854  11.100   6.746  1.4819 -1.5101 -1.4016
11502SOL    HW238963   7.805  11.010   6.857 -0.1519 -0.1774 -1.0085
11503SOL     OW38964   3.545   1.700   7.600  0.2215  0.4914  0.0943
11503SOL    HW138965   3.601   1.632   7.638 -1.5836  0.3573  2.7853
11503SOL    HW238966   3.488   1.652   7.539 -0.6651 -0.3902  1.5563
11504SOL     OW38967   6.972   5.306   4.197  0.7323  0.2433 -0.6918
11504SOL    HW138968   6.908   5.375   4.213  0.0074 -0.3653 -0.9397
11504SOL    HW238969   6.991   5.270   4.283  1.1306  0.7560 -0.5591
11505SOL     OW38970   7.606   7.934   4.581 -0.2029  0.1785  0.2249
11505SOL    HW138971   7.586   7.857   4.528  1.8323 -0.7469  0.6764
11505SOL    HW238972   7.631   8.001   4.517 -0.0417 -0.1868 -0.1043
11506SOL     OW38973   3.632   9.426   7.903 -0.6703  0.5093  0.3972
11506SOL    HW138974   3.640   9.349   7.959  0.9754 -0.4232 -1.0335
11506SOL    HW238975   3.558   9.408   7.846 -2.7109  1.6974  2.4937
11507SOL     OW38976   0.923   3.811   8.687  0.2598  0.2464  0.0693
11507SOL    HW138977   0.876   3.869   8.747  3.4660  1.1311  1.9908
11507SOL    HW238978   0.989   3.769   8.742  2.7930  0.4178 -2.6262
11508SOL     OW38979   0.702   5.077   3.647 -0.0285 -0.9939  0.0868
11508SOL    HW138980   0.760   5.001   3.655 -1.1538 -1.7476  1.6345
11508SOL    HW238981   0.627   5.056   3.703 -0.5967  1.0633  0.1756
11509SOL     OW38982   3.105   1.709  11.059  0.1600 -0.2012 -0.4565
11509SOL    HW138983   3.029   1.673  11.104  0.4617 -0.1253  0.1189
11509SOL    HW238984   3.156   1.751  11.128 -0.1307  1.2481 -1.0905
11510SOL     OW38985   3.170   7.323   5.965 -0.0674  0.4531  0.4336
11510SOL    HW138986   3.150   7.415   5.945  0.5551  0.7147  0.9669
11510SOL    HW238987   3.187   7.283   5.880  1.0160  1.1719  0.2885
11511SOL     OW38988   7.397   0.990   9.162 -0.2001  0.2606  0.2842
11511SOL    HW138989   7.436   1.046   9.094  0.3756  1.4928  1.5662
11511SOL    HW238990   7.377   1.051   9.233 -2.2643 -0.7387  0.6178
11512SOL     OW38991   5.455   1.740   8.732  0.2006 -0.2281  0.0395
11512SOL    HW138992   5.429   1.830   8.750  0.0181 -0.0956 -0.8458
11512SOL    HW238993   5.550   1.744   8.722  0.0349  0.1577 -1.5555
11513SOL     OW38994   7.765   4.188   4.104 -0.1305 -0.0809  1.1983
11513SOL    HW138995   7.843   4.230   4.066  0.0343 -2.0699 -0.8323
11513SOL    HW238996   7.695   4.251   4.090  0.4280  0.2471 -0.2439
11514SOL     OW38997   6.451   1.139   3.427 -0.1294 -0.2080 -0.3165
11514SOL    HW138998   6.358   1.130   3.447 -0.1538 -0.9338 -0.7477
11514SOL    HW238999   6.463   1.091   3.345  0.6610 -0.2555 -0.1769
11515SOL     OW39000   2.127   9.881   4.270  0.0991  0.6485  0.2532
11515SOL    HW139001   2.062   9.941   4.234 -0.2415  0.2885  0.2595
11515SOL    HW239002   2.194   9.875   4.202 -0.0204  0.7887  0.1216
11516SOL     OW39003   0.166   4.373   9.476 -0.2126  0.1263 -0.8101
11516SOL    HW139004   0.171   4.359   9.381  3.2957 -3.4619 -0.3646
11516SOL    HW239005   0.077   4.348   9.500 -0.7213 -0.3197 -2.9819
11517SOL     OW39006   3.749   3.057  10.651  0.1246 -0.2038 -0.3980
11517SOL    HW139007   3.824   2.998  10.652  0.2159 -0.1633 -2.1125
11517SOL    HW239008   3.725   3.064  10.559 -0.7605  1.3396 -0.0841
11518SOL     OW39009   2.821   2.085   9.374  0.4683 -0.1482 -0.0472
11518SOL    HW139010   2.868   2.120   9.449  0.4114  1.4086 -0.7038
11518SOL    HW239011   2.863   2.001   9.357  0.8137 -0.2897  1.3935
11519SOL     OW39012   0.257   5.012   9.437 -0.1180  0.1503  0.6224
11519SOL    HW139013   0.184   4.957   9.409 -0.7967  0.9241  0.8382
11519SOL    HW239014   0.331   4.983   9.382 -0.7647 -0.1497 -0.1089
11520SOL     OW39015   7.398  10.569   4.422  0.2823 -0.1553  0.2112
11520SOL    HW139016   7.457  10.645   4.423 -1.4756  1.4049  3.7672
11520SOL    HW239017   7.317  10.602   4.384  0.0540 -0.7551  0.1679
11521SOL     OW39018   3.781   0.872   1.084  0.1266  0.0579  0.6143
11521SOL    HW139019   3.793   0.929   1.160  3.8901  1.3773 -0.7381
11521SOL    HW239020   3.715   0.918   1.031 -1.4911 -0.1643  2.3188
11522SOL     OW39021   1.698   9.805   3.561  0.3573 -0.3570 -0.0546
11522SOL    HW139022   1.646   9.877   3.525 -1.0189 -0.5249  1.4957
11522SOL    HW239023   1.639   9.760   3.621  1.5951 -2.0103 -0.0049
11523SOL     OW39024   4.394   5.157   4.035  0.1435 -0.1843 -0.3647
11523SOL    HW139025   4.427   5.068   4.047 -2.2884 -1.4816 -2.2571
11523SOL    HW239026   4.304   5.154   4.069 -0.2783  1.2868 -1.2443
11524SOL     OW39027  11.000  10.013   5.293 -0.1616 -0.1378  0.1680
11524SOL    HW139028  10.911   9.996   5.324 -0.4560 -0.6468 -0.9023
11524SOL    HW239029  10.990  10.028   5.199  1.0232 -1.3846 -0.1806
11525SOL     OW39030   0.062   1.705   3.167 -0.2955  0.3624  0.2507
11525SOL    HW139031   0.070   1.771   3.236  2.1253  1.5525 -1.0321
11525SOL    HW239032  -0.014   1.732   3.116 -0.3930  1.1399  0.7917
11526SOL     OW39033   4.516  10.516   9.400 -0.1944 -0.3192 -0.0518
11526SOL    HW139034   4.526  10.430   9.440 -0.1419  0.3323  1.3845
11526SOL    HW239035   4.600  10.559   9.414  0.3575 -0.5728 -2.1899
11527SOL     OW39036   7.512   3.483   1.185  0.0105 -0.0810 -0.3488
11527SOL    HW139037   7.456   3.526   1.250  0.5714 -1.3762  1.0659
11527SOL    HW239038   7.452   3.456   1.116 -0.8758 -0.0524  0.3870
11528SOL     OW39039   9.282   5.363   9.287 -0.2815 -0.1617 -0.1757
11528SOL    HW139040   9.231   5.363   9.206 -1.9410  0.0612  0.8025
11528SOL    HW239041   9.217   5.344   9.355  0.8985  0.4767  1.1831
11529SOL     OW39042   3.837   3.744   1.190  0.4956  0.5931 -0.7206
11529SOL    HW139043   3.837   3.649   1.196 -1.1341  0.3547 -3.1099
11529SOL    HW239044   3.918   3.766   1.145  0.5296  0.2879 -0.8095
11530SOL     OW39045  11.021   1.951   4.223  0.5176 -1.0035  0.4618
11530SOL    HW139046  10.952   1.974   4.161  0.1908  2.2569  1.7987
11530SOL    HW239047  11.020   1.856   4.226 -2.2820 -1.1660 -1.3407
11531SOL     OW39048   2.306   8.870   4.009 -0.4905 -0.3320 -0.6392
11531SOL    HW139049   2.309   8.799   4.073  1.3505  0.1428 -0.1360
11531SOL    HW239050   2.271   8.945   4.058  2.0994  0.3863  0.2807
11532SOL     OW39051   1.678   6.664   2.738 -0.4687 -0.2379  0.1043
11532SOL    HW139052   1.591   6.676   2.774 -0.1003  0.0209  0.9363
11532SOL    HW239053   1.668   6.679   2.644 -1.3053 -0.1816  0.1960
11533SOL     OW39054   2.054   4.096   9.532  0.0165  0.8600  0.1013
11533SOL    HW139055   2.076   4.068   9.621 -1.6420  0.3200  0.3760
11533SOL    HW239056   2.034   4.014   9.486  2.4203  0.9587 -1.2791
11534SOL     OW39057   9.595   5.755   8.657  0.1982 -0.2019  0.0928
11534SOL    HW139058   9.548   5.743   8.575 -1.5498 -0.1287  1.0335
11534SOL    HW239059   9.669   5.810   8.634  0.6685 -1.4847 -1.7196
11535SOL     OW39060   8.216  10.223   3.891  0.2140 -0.2097  0.0702
11535SOL    HW139061   8.241  10.206   3.982 -0.6812  1.5303  0.6851
11535SOL    HW239062   8.176  10.310   3.893 -0.9771 -0.6631 -1.7692
11536SOL     OW39063   6.316   8.024   4.526 -0.5607  0.7292 -0.4091
11536SOL    HW139064   6.338   7.966   4.453  0.1438  0.7930 -0.2596
11536SOL    HW239065   6.347   8.111   4.498 -1.8450  1.0953 -0.7404
11537SOL     OW39066   9.373   9.947   5.258  0.4521 -0.1900 -0.1220
11537SOL    HW139067   9.467   9.932   5.250  0.5334  0.1877  0.0810
11537SOL    HW239068   9.347   9.984   5.174  0.3747 -0.8356 -0.3843
11538SOL     OW39069   1.218  11.021   6.989 -0.2775 -0.2955  0.0650
11538SOL    HW139070   1.126  11.006   6.968 -0.8742  0.6232  1.8880
11538SOL    HW239071   1.240  11.104   6.946 -1.4897  1.5699  2.7940
11539SOL     OW39072  10.317   9.665   3.617 -0.8893  0.3352 -0.7093
11539SOL    HW139073  10.405   9.680   3.582 -0.9360 -2.4891 -2.3381
11539SOL    HW239074  10.271   9.748   3.601  1.0928  1.4746 -0.9033
11540SOL     OW39075   8.141   2.503   0.897 -1.2233 -0.4741  0.2199
11540SOL    HW139076   8.199   2.428   0.905 -0.7441 -0.0016  1.5608
11540SOL    HW239077   8.098   2.493   0.812 -0.1046 -1.4883 -0.2379
11541SOL     OW39078  10.562   0.426   6.793  0.5585 -0.2773 -0.3257
11541SOL    HW139079  10.634   0.487   6.777  0.0998  0.2042 -0.5798
11541SOL    HW239080  10.603   0.351   6.837  1.5437 -0.8248 -2.0880
11542SOL     OW39081   7.094   7.909   8.036  0.6005  0.5498 -0.1041
11542SOL    HW139082   7.165   7.897   7.974  0.5939 -0.1373  0.0206
11542SOL    HW239083   7.138   7.920   8.121  0.5596 -0.1067  0.0089
11543SOL     OW39084   5.148   4.059  10.319  0.3427 -0.7425 -0.4694
11543SOL    HW139085   5.231   4.011  10.326  0.1114 -1.0364  0.4502
11543SOL    HW239086   5.089   4.015  10.381 -0.4087 -0.3495 -0.8922
11544SOL     OW39087   0.454   6.187  10.671 -0.3082 -0.1554  0.2040
11544SOL    HW139088   0.546   6.209  10.656 -0.7069 -0.4100 -3.3020
11544SOL    HW239089   0.416   6.268  10.706  0.9590  0.3577  0.4753
11545SOL     OW39090   8.585   9.477   4.606 -0.3174 -0.0550  1.0587
11545SOL    HW139091   8.543   9.562   4.591 -1.5032 -0.5064  1.6648
11545SOL    HW239092   8.523   9.413   4.570  0.8339 -0.6529  0.0626
11546SOL     OW39093   8.868   2.416   7.666  0.2921  0.4553  0.4966
11546SOL    HW139094   8.951   2.409   7.619  0.3431 -1.4628  0.8315
11546SOL    HW239095   8.813   2.470   7.609  0.4901 -1.4471 -1.6243
11547SOL     OW39096   5.957   5.474   4.914  0.0363  0.1855  0.5436
11547SOL    HW139097   5.956   5.379   4.929 -0.8272 -0.0225 -0.6185
11547SOL    HW239098   5.930   5.483   4.822 -1.9179  1.6258  1.1910
11548SOL     OW39099   8.902   0.263   1.005 -0.2525  0.0911  0.3893
11548SOL    HW139100   8.833   0.197   0.992  0.2747 -0.3086 -0.5051
11548SOL    HW239101   8.983   0.212   1.010  0.4556  0.7031 -2.5529
11549SOL     OW39102   8.119   0.167   7.565  0.0013 -0.3454  0.3925
11549SOL    HW139103   8.101   0.165   7.471 -1.0035 -1.4635  0.5802
11549SOL    HW239104   8.056   0.230   7.600  1.0864  0.8717  0.1989
11550SOL     OW39105   4.691   3.711   6.726 -0.3813 -0.5184 -0.2414
11550SOL    HW139106   4.756   3.779   6.746 -0.3531 -0.2355 -1.2294
11550SOL    HW239107   4.716   3.637   6.782 -0.1785  0.1464  0.5633
11551SOL     OW39108   6.782   6.367   1.517 -0.3505  0.2197  0.6564
11551SOL    HW139109   6.832   6.287   1.529 -0.2011  0.2990  0.5632
11551SOL    HW239110   6.691   6.342   1.535 -0.4963 -0.2802 -0.6532
11552SOL     OW39111  10.440   8.563   9.247 -0.1382 -0.2432 -0.1388
11552SOL    HW139112  10.511   8.563   9.311 -0.2570 -0.6692 -0.0018
11552SOL    HW239113  10.360   8.565   9.299 -0.3631 -3.9962 -0.0591
11553SOL     OW39114   5.916   8.283   2.232  0.0455 -0.5767  0.1803
11553SOL    HW139115   5.830   8.289   2.275 -0.5101 -2.4899 -0.5680
11553SOL    HW239116   5.977   8.316   2.298 -1.2417  0.8550  0.7231
11554SOL     OW39117  10.036  11.065   2.292  0.3753 -0.0011 -0.0573
11554SOL    HW139118   9.996  11.102   2.371  1.7898  1.8040 -0.1069
11554SOL    HW239119  10.117  11.025   2.323  0.6613  0.2118 -0.5256
11555SOL     OW39120   0.471   2.260   4.542 -0.3595 -0.3951 -0.2045
11555SOL    HW139121   0.442   2.250   4.633  2.6152 -0.8219  0.7877
11555SOL    HW239122   0.390   2.277   4.494 -1.8886  1.5154  2.7271
11556SOL     OW39123   3.991   1.743   4.368  0.1586  0.1043 -0.0404
11556SOL    HW139124   3.900   1.736   4.397  0.2156 -0.0356  0.1133
11556SOL    HW239125   4.031   1.805   4.430  0.4520 -0.7225  0.6255
11557SOL     OW39126   9.092   6.292   2.892 -0.0474 -0.1229  0.3597
11557SOL    HW139127   9.098   6.227   2.962 -0.9772  1.6819  2.2044
11557SOL    HW239128   9.162   6.354   2.912 -1.1890  1.1459  0.5155
11558SOL     OW39129   8.626  10.931   9.850  0.0272  0.4354  0.1995
11558SOL    HW139130   8.581  10.977   9.778  1.6245  1.4999 -0.1594
11558SOL    HW239131   8.608  10.838   9.833  1.3538  0.5392 -2.3436
11559SOL     OW39132   5.957   3.565   7.164  0.7161  0.1627 -0.4307
11559SOL    HW139133   5.913   3.648   7.147  0.0876 -0.1857 -0.5240
11559SOL    HW239134   5.934   3.509   7.089  0.0685 -0.5131  0.2492
11560SOL     OW39135   9.176   1.352   0.837  0.5433 -0.0177 -0.3426
11560SOL    HW139136   9.213   1.289   0.775  2.2913 -0.2962  0.8965
11560SOL    HW239137   9.240   1.424   0.839 -1.3912  1.8447 -1.6954
11561SOL     OW39138   4.421  10.827   9.912 -0.2742  0.0200  0.2612
11561SOL    HW139139   4.453  10.847   9.824 -1.6118 -1.2844 -0.5714
11561SOL    HW239140   4.337  10.873   9.919  0.4308  1.2193  1.4061
11562SOL     OW39141   7.525  10.063   2.349  0.4930  0.4823 -0.2625
11562SOL    HW139142   7.602  10.033   2.301  0.8641 -0.1917  0.7167
11562SOL    HW239143   7.504   9.990   2.407  0.9669  1.8180  1.6828
11563SOL     OW39144   8.443   0.184   6.111  1.1380  0.3323  0.0461
11563SOL    HW139145   8.497   0.143   6.179  2.9764  0.1398 -1.4418
11563SOL    HW239146   8.501   0.189   6.035 -0.8063  0.6407 -1.4836
11564SOL     OW39147   3.761   2.907   8.944  0.6373  0.0306  0.0062
11564SOL    HW139148   3.743   2.816   8.919  0.4876  0.1226 -0.2259
11564SOL    HW239149   3.831   2.901   9.008  0.7013 -0.2432 -0.0877
11565SOL     OW39150   1.217  10.254   4.224  0.0431 -0.0269  0.8057
11565SOL    HW139151   1.216  10.268   4.129 -1.5781 -1.7542  0.5078
11565SOL    HW239152   1.305  10.223   4.243  0.0622 -0.7208 -0.3383
11566SOL     OW39153   0.704   1.963   5.234 -0.6043 -0.0735 -0.4452
11566SOL    HW139154   0.644   1.914   5.177  0.5577 -1.1744 -0.7704
11566SOL    HW239155   0.651   2.035   5.268 -2.1174 -1.0192 -0.7018
11567SOL     OW39156   0.273   0.413   2.558  0.2277 -0.0910  0.2424
11567SOL    HW139157   0.274   0.349   2.629  1.7779  0.5186  0.8192
11567SOL    HW239158   0.331   0.376   2.491  0.3196  0.2260  0.1428
11568SOL     OW39159   4.195   5.659   9.769 -0.2280  0.6042  0.8329
11568SOL    HW139160   4.209   5.753   9.780  0.8704  0.4064  1.2652
11568SOL    HW239161   4.195   5.645   9.674 -1.9262  1.2406  0.7157
11569SOL     OW39162   6.845   2.152   4.737  0.2724  0.0028 -0.0431
11569SOL    HW139163   6.920   2.133   4.680  1.2321 -2.6251  1.9115
11569SOL    HW239164   6.770   2.115   4.691  0.6235  0.0958 -0.7116
11570SOL     OW39165   5.859   3.386   1.148  0.8721 -0.3231 -0.4863
11570SOL    HW139166   5.901   3.304   1.121 -0.0547 -0.8672 -0.3150
11570SOL    HW239167   5.932   3.447   1.162  1.5774 -1.1241 -0.5916
11571SOL     OW39168   5.061   2.449   3.577 -0.1377  0.0752 -0.0520
11571SOL    HW139169   5.042   2.455   3.670 -0.9434  0.4086 -0.2355
11571SOL    HW239170   4.999   2.384   3.544  0.8235 -0.8014 -0.1797
11572SOL     OW39171   4.103   8.050   3.998 -0.3083  0.5113  0.1285
11572SOL    HW139172   4.104   8.004   4.082 -2.1373 -1.1813 -0.6837
11572SOL    HW239173   4.131   7.984   3.934 -0.8180  1.1743 -0.8052
11573SOL     OW39174   6.904   9.466   7.443 -0.2920 -0.0726 -0.1247
11573SOL    HW139175   6.900   9.545   7.496  0.1505 -0.7961  1.0276
11573SOL    HW239176   6.997   9.456   7.421  0.0560 -1.5142  1.7478
11574SOL     OW39177   9.408  10.487   4.281  0.4347  0.0054 -0.6574
11574SOL    HW139178   9.495  10.466   4.249  0.9976  1.6872 -0.3175
11574SOL    HW239179   9.356  10.502   4.202 -0.0052 -2.5390 -0.9156
11575SOL     OW39180   2.999   1.512   1.721  0.1607 -0.2799 -0.0838
11575SOL    HW139181   2.945   1.547   1.792 -0.1961 -0.6780 -0.1551
11575SOL    HW239182   3.073   1.470   1.766  0.2679  0.0271  0.0260
11576SOL     OW39183   3.403   7.596   1.026 -0.2464 -0.0697  0.3929
11576SOL    HW139184   3.369   7.527   0.969  2.4008 -1.4524  0.3536
11576SOL    HW239185   3.354   7.585   1.108 -0.4959 -1.4256  0.0916
11577SOL     OW39186   8.485   7.689   0.394  0.2364 -0.2731 -0.2591
11577SOL    HW139187   8.548   7.637   0.445 -0.8207 -1.5368 -0.1901
11577SOL    HW239188   8.533   7.714   0.315  1.4307  0.4515  0.6641
11578SOL     OW39189   5.568   5.393   2.482 -0.1158 -0.1697  0.1523
11578SOL    HW139190   5.625   5.354   2.548  0.2182  0.4962  0.2570
11578SOL    HW239191   5.626   5.448   2.429 -0.5839  0.1762 -0.0068
11579SOL     OW39192   8.939   8.796  10.700  0.3105  0.0084 -0.1940
11579SOL    HW139193   8.917   8.744  10.777 -0.0504  1.3354  0.6351
11579SOL    HW239194   8.996   8.865  10.733 -0.0359  0.7375 -1.0717
11580SOL     OW39195   1.379   0.675   1.098 -0.3505  0.9565  0.0221
11580SOL    HW139196   1.400   0.651   1.188 -0.0035  0.0804 -0.2783
11580SOL    HW239197   1.285   0.663   1.091 -0.4306  1.3655  0.3616
11581SOL     OW39198   2.793   7.651   0.953  0.6662  0.0072 -0.2011
11581SOL    HW139199   2.795   7.694   1.039 -0.2793 -0.0346 -0.1399
11581SOL    HW239200   2.883   7.625   0.936  1.0833  1.1589  0.1978
11582SOL     OW39201   4.802   8.499   1.771  0.8186 -0.8683  0.4723
11582SOL    HW139202   4.874   8.561   1.761 -0.1523  0.2650  0.3548
11582SOL    HW239203   4.796   8.456   1.686  1.8135 -1.5068  0.7053
11583SOL     OW39204   0.996  10.589   4.146  0.4595  0.1603  0.4709
11583SOL    HW139205   1.063  10.558   4.086 -0.0084  1.6551 -0.8708
11583SOL    HW239206   0.924  10.618   4.090 -0.4298  0.6192  1.7969
11584SOL     OW39207   4.773   7.096   1.297  0.1095  0.0631  0.0136
11584SOL    HW139208   4.701   7.120   1.238  1.6495  0.9561 -1.6099
11584SOL    HW239209   4.788   7.175   1.350  0.2538  0.0651 -0.0300
11585SOL     OW39210   0.539   2.300   3.825  0.3180  0.1228  0.1478
11585SOL    HW139211   0.500   2.374   3.779  1.4083 -0.2412 -1.4479
11585SOL    HW239212   0.473   2.273   3.889 -0.9020  1.1859 -0.6277
11586SOL     OW39213   2.251   3.342   3.856 -0.1258  0.0512 -0.5260
11586SOL    HW139214   2.312   3.414   3.839  0.9489 -0.1765  1.9121
11586SOL    HW239215   2.273   3.276   3.791  1.5936  0.3913 -0.3374
11587SOL     OW39216   6.684   2.122   6.631  0.1360  0.4016 -0.2813
11587SOL    HW139217   6.592   2.106   6.615 -0.0270  0.4084  0.5662
11587SOL    HW239218   6.688   2.212   6.664  0.3722  0.2380  0.1559
11588SOL     OW39219   6.403   0.476   8.366  0.1837  0.0190  0.1975
11588SOL    HW139220   6.439   0.559   8.398  4.5347 -0.8965 -1.5691
11588SOL    HW239221   6.400   0.420   8.443 -0.7158  1.1544  1.0133
11589SOL     OW39222   1.201   5.930   8.649 -0.0867 -0.3282 -0.0526
11589SOL    HW139223   1.273   5.912   8.588 -1.3879 -0.5175 -1.5760
11589SOL    HW239224   1.171   5.844   8.677 -0.1620 -0.2664  0.0585
11590SOL     OW39225   2.965   4.527   6.460  0.1981 -0.2641  0.1545
11590SOL    HW139226   2.979   4.530   6.554  0.9022 -0.4883  0.0573
11590SOL    HW239227   2.870   4.523   6.450  0.1789 -2.5287  0.9211
11591SOL     OW39228   3.379   7.462   2.479 -0.1516 -0.1373 -0.4127
11591SOL    HW139229   3.341   7.548   2.466  0.7079  0.0776 -1.6387
11591SOL    HW239230   3.461   7.479   2.526  0.8102 -0.1054 -2.0557
11592SOL     OW39231   8.375  10.730   3.547  0.6168 -0.2826 -0.4666
11592SOL    HW139232   8.322  10.807   3.568  1.1695 -0.1662  0.5939
11592SOL    HW239233   8.457  10.765   3.514  1.3027 -0.3460  1.0625
11593SOL     OW39234   4.837   8.849   9.517 -0.4640 -0.2419  0.0630
11593SOL    HW139235   4.836   8.890   9.430 -1.1612  0.9961  0.6312
11593SOL    HW239236   4.757   8.797   9.521 -0.2004 -0.6810 -0.1886
11594SOL     OW39237   2.916  10.999   4.225  0.3593  0.1617 -0.1134
11594SOL    HW139238   2.912  10.998   4.129 -2.0650 -2.0406 -0.1143
11594SOL    HW239239   3.002  11.034   4.246  0.9145  0.7948 -3.0918
11595SOL     OW39240   3.427   4.877   1.232 -0.5001 -0.0895  0.1132
11595SOL    HW139241   3.460   4.962   1.204 -0.0256 -0.2280  0.2402
11595SOL    HW239242   3.451   4.871   1.324  1.0148 -1.0799 -0.3112
11596SOL     OW39243   1.278   0.808   3.625 -0.0213  0.0796  0.0737
11596SOL    HW139244   1.237   0.731   3.586  1.3266 -0.4704 -0.3210
11596SOL    HW239245   1.344   0.836   3.561  1.9471 -0.5855  1.6854
11597SOL     OW39246  10.094   9.153   9.279  0.2932  0.1281  0.2310
11597SOL    HW139247  10.027   9.210   9.241  1.6693  2.6188  1.2645
11597SOL    HW239248  10.055   9.066   9.279 -1.3766  0.7631 -2.7849
11598SOL     OW39249   3.333   5.454   3.774 -0.6070  0.6594 -0.2405
11598SOL    HW139250   3.425   5.464   3.746 -0.3520 -1.2127 -0.1758
11598SOL    HW239251   3.311   5.539   3.814  2.1889  0.1176  2.8961
11599SOL     OW39252   6.072   5.813   0.647  0.3982  0.1190 -0.3487
11599SOL    HW139253   6.042   5.793   0.558 -0.0768  0.8224 -0.3593
11599SOL    HW239254   6.013   5.763   0.704  1.7786 -1.7056 -0.4361
11600SOL     OW39255   4.484   4.760   3.246 -0.1322  0.2803 -0.1936
11600SOL    HW139256   4.519   4.714   3.323  2.0654 -0.7420 -1.6996
11600SOL    HW239257   4.527   4.845   3.248  0.3386  0.0526 -0.5708
11601SOL     OW39258  10.762   5.370   0.776 -0.1537  0.1406 -0.1475
11601SOL    HW139259  10.819   5.405   0.708  1.4546  0.4527  1.3138
11601SOL    HW239260  10.809   5.383   0.858 -2.6999  1.2208  1.2709
11602SOL     OW39261   6.822   0.737   5.234 -0.2555 -0.4154 -0.0770
11602SOL    HW139262   6.816   0.779   5.148  0.1238 -1.7282 -0.7764
11602SOL    HW239263   6.769   0.658   5.226 -2.4149  0.7245  1.7685
11603SOL     OW39264   1.550   4.377   2.980 -0.3502  0.0962 -0.9796
11603SOL    HW139265   1.524   4.409   3.066  2.2356  0.7757 -0.3698
11603SOL    HW239266   1.525   4.284   2.981 -3.4580  0.8464 -0.8853
11604SOL     OW39267   4.623   5.280   3.569  0.0228  0.8688 -0.1008
11604SOL    HW139268   4.642   5.190   3.596  0.7049  1.0517  0.0651
11604SOL    HW239269   4.642   5.333   3.647 -1.1714  1.0772  0.0597
11605SOL     OW39270   8.306   3.280   9.974  0.1428 -0.0367 -0.4000
11605SOL    HW139271   8.339   3.365  10.004 -1.0120  0.5105 -0.6521
11605SOL    HW239272   8.360   3.259   9.898 -0.8665  1.4492 -1.5824
11606SOL     OW39273   6.314   9.184   2.233 -0.3074  0.1805  0.1546
11606SOL    HW139274   6.354   9.256   2.186 -0.8562  0.6004  0.3198
11606SOL    HW239275   6.387   9.127   2.257  0.1037  0.5666 -0.1693
11607SOL     OW39276  10.863   8.455   9.777 -0.2352  0.0951  0.0429
11607SOL    HW139277  10.861   8.445   9.873 -1.2998  0.4657  0.0780
11607SOL    HW239278  10.795   8.520   9.759 -0.8023 -0.7763 -1.0614
11608SOL     OW39279   2.903   2.855   6.600 -0.5076 -0.1877 -0.4120
11608SOL    HW139280   2.872   2.821   6.684 -1.5494  2.2834  0.2854
11608SOL    HW239281   2.851   2.933   6.585  0.2571 -0.0853 -2.9769
11609SOL     OW39282   1.340   2.280   4.204  0.2670 -0.6064  0.1346
11609SOL    HW139283   1.273   2.236   4.152  1.3884 -1.4321 -0.6560
11609SOL    HW239284   1.316   2.373   4.200 -0.6620 -0.8519 -0.3646
11610SOL     OW39285   7.574   9.494   9.334  0.1837  0.5344  0.5862
11610SOL    HW139286   7.533   9.521   9.252  0.2863 -1.7513 -0.2738
11610SOL    HW239287   7.507   9.443   9.379  1.4884 -1.9785 -0.1563
11611SOL     OW39288   7.796  10.506   7.560  0.3941  0.5912  0.3162
11611SOL    HW139289   7.817  10.413   7.566 -1.2813  0.1359 -0.4318
11611SOL    HW239290   7.820  10.530   7.470 -2.5267 -0.0843 -0.7684
11612SOL     OW39291   4.971   9.481   6.635 -0.4020 -0.1403  0.1658
11612SOL    HW139292   5.011   9.523   6.559 -1.8126  1.4009  0.2111
11612SOL    HW239293   5.039   9.483   6.702  0.3821 -0.2053 -0.6085
11613SOL     OW39294   2.929   2.445  10.099 -0.1359  0.0842  0.7517
11613SOL    HW139295   2.874   2.451  10.021  0.4103 -1.6311  0.1812
11613SOL    HW239296   3.018   2.451  10.065  0.0795  0.6468  1.4042
11614SOL     OW39297   3.760   1.153  10.318  0.1298 -0.5624 -0.4861
11614SOL    HW139298   3.676   1.192  10.340  0.3343  0.5166 -1.4956
11614SOL    HW239299   3.820   1.184  10.387 -0.1808 -0.8782 -0.0750
11615SOL     OW39300   7.261   3.066   8.827  0.1569  0.3362  0.2889
11615SOL    HW139301   7.339   3.082   8.881  0.3064  1.1541 -0.1599
11615SOL    HW239302   7.296   3.037   8.743 -0.0498 -0.0547  0.3365
11616SOL     OW39303   4.899   1.158   1.867 -0.0525 -0.7617 -0.0120
11616SOL    HW139304   4.946   1.156   1.784 -0.0260  0.4167 -0.0517
11616SOL    HW239305   4.964   1.136   1.933 -0.0257 -1.5040 -0.2808
11617SOL     OW39306  10.086   6.250   0.461 -0.0264  0.1588  0.3270
11617SOL    HW139307  10.126   6.260   0.374 -1.3435  1.2146 -0.1764
11617SOL    HW239308  10.125   6.169   0.495  0.8659 -0.0281 -1.0433
11618SOL     OW39309   9.731   2.771   7.647  0.4080  0.4922 -0.0789
11618SOL    HW139310   9.788   2.846   7.630 -1.0930  1.6747 -0.1323
11618SOL    HW239311   9.775   2.722   7.716  1.8552  0.9251 -0.6730
11619SOL     OW39312   3.377   4.250   2.909  0.4870 -0.1272 -0.3436
11619SOL    HW139313   3.389   4.329   2.856 -0.9848  1.8302  2.0397
11619SOL    HW239314   3.337   4.187   2.848 -2.1443  2.3509 -1.4504
11620SOL     OW39315   3.922   0.619   7.252  0.4607 -0.0107  0.0993
11620SOL    HW139316   3.903   0.713   7.256  1.8287  0.3120 -0.5363
11620SOL    HW239317   4.016   0.613   7.268  0.5558 -1.1967 -0.7811
11621SOL     OW39318   8.634   1.263   2.130 -0.0662 -0.0583 -0.0023
11621SOL    HW139319   8.709   1.311   2.095 -0.5008  0.9094  0.3458
11621SOL    HW239320   8.608   1.313   2.207 -0.6446 -0.7739  0.2720
11622SOL     OW39321   7.546   8.590   1.722 -0.6150  0.5392 -0.0039
11622SOL    HW139322   7.558   8.643   1.801 -0.7818  1.6983 -0.7259
11622SOL    HW239323   7.526   8.503   1.755  1.4790  0.4567  1.2312
11623SOL     OW39324   7.947   8.741   4.747  0.2226  0.0087  0.0505
11623SOL    HW139325   7.943   8.746   4.652  0.3799  0.0620  0.0470
11623SOL    HW239326   8.031   8.780   4.770 -0.7454  2.0889  0.3445
11624SOL     OW39327   5.895   7.214   0.271  0.0592 -0.4290 -0.3457
11624SOL    HW139328   5.903   7.302   0.309  1.8992 -0.9901  0.7036
11624SOL    HW239329   5.884   7.157   0.347 -0.3841 -1.1882 -0.9679
11625SOL     OW39330   3.327   2.118   7.516  0.3163 -0.2785 -0.1167
11625SOL    HW139331   3.351   2.167   7.595 -1.3432 -0.7495  0.7268
11625SOL    HW239332   3.258   2.170   7.476  0.8476 -0.2691 -1.0322
11626SOL     OW39333   8.808   4.372   5.382  0.6370  0.6405  0.1221
11626SOL    HW139334   8.741   4.402   5.444 -0.0762  1.3034 -0.9509
11626SOL    HW239335   8.770   4.387   5.296  1.4875 -0.5759 -0.4944
11627SOL     OW39336  10.585   3.486  10.938  0.3344 -0.0015  0.0358
11627SOL    HW139337  10.640   3.559  10.967  0.4688  0.5539 -1.5207
11627SOL    HW239338  10.521   3.527  10.879 -0.2472 -0.9975 -0.0348
11628SOL     OW39339   1.419   6.833   1.606  0.1858  0.6734 -0.1816
11628SOL    HW139340   1.331   6.861   1.631  0.5862  1.0531  0.8664
11628SOL    HW239341   1.477   6.877   1.668  1.1252  0.4649 -0.8868
11629SOL     OW39342   1.888   2.658   1.962  0.0387 -0.0523  0.0297
11629SOL    HW139343   1.820   2.725   1.951 -1.0886 -1.0632  0.5891
11629SOL    HW239344   1.938   2.661   1.880 -0.5292  0.8874 -0.2969
11630SOL     OW39345   9.876   8.134   8.741 -0.4588 -0.1399  0.1212
11630SOL    HW139346   9.799   8.163   8.790  0.2240 -0.0899  1.2083
11630SOL    HW239347   9.879   8.039   8.754  0.9096  0.1068  2.0372
11631SOL     OW39348   3.886   2.432   4.940  0.0563 -0.0128 -0.0203
11631SOL    HW139349   3.979   2.409   4.950  0.5677  1.6767 -0.4940
11631SOL    HW239350   3.846   2.354   4.902  0.9248 -1.3942  1.7541
11632SOL     OW39351   0.818   3.094   1.239  0.0285 -0.6683 -0.4111
11632SOL    HW139352   0.800   3.101   1.332  0.9712 -1.1108 -0.1761
11632SOL    HW239353   0.747   3.142   1.196  1.1366  2.1183  0.6507
11633SOL     OW39354   5.131   1.481   5.009 -0.1602 -0.4434 -0.5554
11633SOL    HW139355   5.054   1.426   4.993  0.6000 -1.6016 -0.3655
11633SOL    HW239356   5.185   1.429   5.069 -0.3378  1.3774  1.2912
11634SOL     OW39357   2.419   6.005   3.235 -0.3805  0.2136 -0.2509
11634SOL    HW139358   2.351   6.042   3.291 -0.2687 -0.4065  0.3056
11634SOL    HW239359   2.438   6.074   3.172  0.1508  1.2895  1.0335
11635SOL     OW39360   0.072   1.456  10.493 -0.4528 -0.4229  0.2977
11635SOL    HW139361   0.038   1.431  10.407  0.8757  1.2141 -0.7803
11635SOL    HW239362   0.144   1.396  10.509  0.2525  0.1893 -0.4671
11636SOL     OW39363   3.343   3.612   6.203  0.1180 -0.1855 -0.2293
11636SOL    HW139364   3.306   3.652   6.125 -0.6501 -1.8492 -0.7820
11636SOL    HW239365   3.268   3.597   6.260  0.6897  1.1074  0.8934
11637SOL     OW39366   3.556   2.000  10.778 -0.3234 -0.0082 -0.0293
11637SOL    HW139367   3.460   2.002  10.769 -0.5726 -3.8959 -0.0176
11637SOL    HW239368   3.573   1.923  10.831  2.8291  1.7367  1.7744
11638SOL     OW39369   2.898   6.916   5.948 -0.0750  0.1574  0.7985
11638SOL    HW139370   2.853   6.961   5.876 -0.2280  0.3045  0.9874
11638SOL    HW239371   2.986   6.899   5.914  0.7062  2.4985  1.4607
11639SOL     OW39372   6.844   6.633   5.348  0.5190 -0.2310  0.4093
11639SOL    HW139373   6.925   6.676   5.378  0.3458  0.5023 -0.1685
11639SOL    HW239374   6.805   6.599   5.429  0.1618  1.5420  1.0234
11640SOL     OW39375   0.334   4.772   8.289  0.5725  0.7888 -0.1513
11640SOL    HW139376   0.391   4.843   8.319  2.5159 -0.9975  0.6564
11640SOL    HW239377   0.365   4.695   8.336 -2.7508 -0.2844  0.5359
11641SOL     OW39378   7.324  11.044   9.509  0.9604  0.0637  0.1420
11641SOL    HW139379   7.352  11.010   9.424  0.9987  0.8136 -0.1587
11641SOL    HW239380   7.249  11.101   9.488  0.0539 -0.8642  0.7788
11642SOL     OW39381   6.746   8.902   8.129 -0.3439 -0.3269  0.4847
11642SOL    HW139382   6.796   8.821   8.136  0.7864  0.3742  0.8385
11642SOL    HW239383   6.657   8.874   8.112  0.0606 -1.6384  0.4350
11643SOL     OW39384   9.350   5.405   6.301  0.2063  0.5429 -0.2460
11643SOL    HW139385   9.401   5.406   6.220  0.3934 -1.0313 -0.1686
11643SOL    HW239386   9.281   5.470   6.286  1.3853  1.7183 -0.8824
11644SOL     OW39387   8.329   8.235   4.610  0.0265 -0.0451 -0.5065
11644SOL    HW139388   8.251   8.191   4.645 -0.0431  0.7702  0.3950
11644SOL    HW239389   8.377   8.264   4.687  0.1665  1.2924 -1.0776
11645SOL     OW39390   9.934   5.627   5.962 -0.5043  0.5421  0.7556
11645SOL    HW139391   9.935   5.628   6.058 -0.5830  3.2177  0.8082
11645SOL    HW239392   9.914   5.718   5.938  1.2784  0.3525 -1.8009
11646SOL     OW39393   1.926   0.948   9.539 -0.2244  0.5422  0.2410
11646SOL    HW139394   2.015   0.939   9.505  1.1960 -0.1843  3.6684
11646SOL    HW239395   1.891   0.860   9.538 -1.2719  0.9238 -1.7429
11647SOL     OW39396   0.756   8.998   4.122 -0.4969  0.3201  0.4043
11647SOL    HW139397   0.705   9.023   4.045 -0.0415  0.1229  0.0299
11647SOL    HW239398   0.838   8.964   4.086 -0.6444 -0.6315  0.9381
11648SOL     OW39399   5.660   3.117   7.921 -0.3274  0.4517 -0.0144
11648SOL    HW139400   5.602   3.136   7.995 -1.8277  0.0986 -1.0549
11648SOL    HW239401   5.689   3.203   7.891  0.3362  0.5992  0.9764
11649SOL     OW39402   8.057   8.141   6.171  1.1865  0.1824  0.8159
11649SOL    HW139403   7.991   8.140   6.240  0.9256  0.7682  0.5819
11649SOL    HW239404   8.063   8.233   6.145  1.9540  0.1096  0.6975
11650SOL     OW39405  10.844   4.155   0.196  0.1040  0.0763  0.4809
11650SOL    HW139406  10.874   4.072   0.233  1.5512  0.3425 -0.0426
11650SOL    HW239407  10.900   4.169   0.119 -1.4510  0.5451 -0.6273
11651SOL     OW39408   5.824   3.439   5.381  0.2829 -0.0376 -0.0175
11651SOL    HW139409   5.729   3.427   5.379  0.1755  0.7645  0.0696
11651SOL    HW239410   5.853   3.422   5.291 -0.2904  2.3138 -0.7156
11652SOL     OW39411   2.913   8.005   8.208  0.2710 -0.2443 -0.0533
11652SOL    HW139412   2.824   8.014   8.242  0.9748 -0.0175  1.9158
11652SOL    HW239413   2.959   7.956   8.276  1.5766 -0.6231 -1.1712
11653SOL     OW39414  10.965   7.854   4.160 -1.0351  0.1576  0.3791
11653SOL    HW139415  10.884   7.804   4.168 -1.8999  1.2787 -0.8348
11653SOL    HW239416  10.968   7.881   4.068  1.2356 -0.6606  0.1435
11654SOL     OW39417   3.313  10.259   5.475  0.2007 -0.3031 -0.0851
11654SOL    HW139418   3.326  10.185   5.534 -0.1310  0.3519  0.8283
11654SOL    HW239419   3.283  10.330   5.531  2.6652  1.2234 -0.5258
11655SOL     OW39420   0.684   8.410   1.029 -0.3670 -0.1297 -0.1396
11655SOL    HW139421   0.721   8.495   1.007 -0.2984 -0.0918  0.1175
11655SOL    HW239422   0.758   8.359   1.062 -0.8405  0.5666  2.1843
11656SOL     OW39423   2.728   3.725   7.969 -0.0584 -0.1043 -0.3585
11656SOL    HW139424   2.805   3.738   8.025  1.0335 -2.6115 -1.1317
11656SOL    HW239425   2.762   3.678   7.892 -2.3684 -1.4197 -0.6705
11657SOL     OW39426   5.943   3.623   3.084  0.2994  0.2126  0.4387
11657SOL    HW139427   5.920   3.547   3.138 -2.5855  0.2229 -0.6051
11657SOL    HW239428   5.988   3.585   3.008  0.3473 -0.2553  0.6940
11658SOL     OW39429   3.487   8.346   2.097 -0.2349  0.1714 -0.6628
11658SOL    HW139430   3.425   8.348   2.169 -0.6052  0.9142 -0.9959
11658SOL    HW239431   3.530   8.261   2.105  2.0502  1.4211  2.3672
11659SOL     OW39432   0.020   4.690  10.214  0.1195  0.5592  0.2134
11659SOL    HW139433   0.115   4.676  10.216  0.6643  3.7107  0.5633
11659SOL    HW239434  -0.012   4.624  10.152  2.1064 -2.3852  2.0866
11660SOL     OW39435   1.424   4.257  10.532  0.1469  0.4007 -0.1500
11660SOL    HW139436   1.338   4.256  10.489  0.1155 -1.2294 -0.1209
11660SOL    HW239437   1.460   4.344  10.512 -0.8639  0.5589 -1.4549
11661SOL     OW39438   4.238   6.024   9.004  0.0848 -0.3560  0.5973
11661SOL    HW139439   4.251   6.092   8.938 -1.9149  0.1015  0.6274
11661SOL    HW239440   4.243   5.942   8.955 -3.3182  0.0149 -0.5881
11662SOL     OW39441   7.277  10.578   7.813  0.0203 -0.1346  0.5564
11662SOL    HW139442   7.361  10.581   7.768 -0.6070  0.1891 -0.6372
11662SOL    HW239443   7.278  10.494   7.860  0.3613 -0.9138 -0.7845
11663SOL     OW39444   9.208   9.004   0.077  0.2782 -0.0994 -0.1317
11663SOL    HW139445   9.150   8.966   0.143 -1.2033  1.3864 -0.5237
11663SOL    HW239446   9.161   9.080   0.044  3.3076  2.5385  1.0661
11664SOL     OW39447  10.347   3.934   6.987 -0.0157 -0.1973  0.8630
11664SOL    HW139448  10.438   3.929   6.958  0.2256 -0.1296  1.6090
11664SOL    HW239449  10.313   4.013   6.944 -0.6294 -1.7994 -1.8768
11665SOL     OW39450   4.337   6.811   8.337  0.7408 -0.0855  0.8712
11665SOL    HW139451   4.406   6.854   8.286  0.1164 -0.0426  0.0518
11665SOL    HW239452   4.282   6.882   8.369 -1.8309 -0.2339 -2.6445
11666SOL     OW39453   7.905   8.562   5.624 -0.1028  0.4818 -0.2862
11666SOL    HW139454   7.933   8.653   5.630  3.0127 -0.3481 -0.5449
11666SOL    HW239455   7.893   8.534   5.715 -0.0154  0.8391 -0.1635
11667SOL     OW39456   5.138   5.105   8.117 -0.3194 -0.1896 -0.2891
11667SOL    HW139457   5.088   5.029   8.086 -1.0299  0.9965 -2.1957
11667SOL    HW239458   5.198   5.068   8.182 -1.2396 -2.2323 -0.4993
11668SOL     OW39459   4.343   6.998   4.321  0.3323  0.0306  0.1086
11668SOL    HW139460   4.328   7.059   4.248  0.7180  1.7810  1.4287
11668SOL    HW239461   4.292   6.920   4.298 -1.0235  1.2398 -1.1604
11669SOL     OW39462   5.901   1.788  10.982  1.0274  0.1516  0.2803
11669SOL    HW139463   5.907   1.727  10.908 -1.9292 -1.3408  1.0914
11669SOL    HW239464   5.859   1.866  10.945  0.2069 -0.3112  0.2078
11670SOL     OW39465   5.234   3.452  10.894  0.0280 -0.3335  0.0869
11670SOL    HW139466   5.173   3.526  10.903  0.3409 -0.0056 -0.4121
11670SOL    HW239467   5.178   3.375  10.884 -0.3107 -0.0305 -0.4037
11671SOL     OW39468   1.371   7.790   2.649 -0.4503  0.5988 -0.1416
11671SOL    HW139469   1.408   7.875   2.670 -1.7870  1.2796 -0.4768
11671SOL    HW239470   1.448   7.732   2.641  0.6602  2.2226 -2.0762
11672SOL     OW39471   6.058   1.760   2.082 -0.0070 -0.0733  0.3534
11672SOL    HW139472   6.042   1.845   2.122 -0.2195  0.3263 -0.5669
11672SOL    HW239473   5.975   1.736   2.041  0.6215  0.2630 -1.1998
11673SOL     OW39474   8.046   1.824   3.105  0.3325  0.0891 -0.2595
11673SOL    HW139475   8.062   1.760   3.174  1.8909  1.4837  0.7632
11673SOL    HW239476   8.100   1.794   3.032  1.3882  0.4001  0.3614
11674SOL     OW39477   9.996   1.493   4.458 -0.7336  0.6836  0.4823
11674SOL    HW139478   9.921   1.524   4.508  0.0790 -0.6693  2.7088
11674SOL    HW239479  10.068   1.550   4.485 -0.8178  1.6757 -1.2853
11675SOL     OW39480   3.477   2.150   1.791 -0.0049  0.0352 -0.2809
11675SOL    HW139481   3.441   2.235   1.818  0.9734  0.9467 -1.6772
11675SOL    HW239482   3.549   2.134   1.852  1.2652  1.3632 -1.3470
11676SOL     OW39483   0.162   4.532   4.068 -0.5594 -0.1763  0.4340
11676SOL    HW139484   0.101   4.481   4.014 -0.9270 -0.3510  1.0101
11676SOL    HW239485   0.244   4.531   4.019 -1.1068  0.3579 -0.5329
11677SOL     OW39486   2.888   9.753   4.391 -0.2475 -0.4989  0.4588
11677SOL    HW139487   2.906   9.687   4.325 -1.2261 -1.9230  1.5642
11677SOL    HW239488   2.931   9.720   4.470  1.1355  1.3044  0.5371
11678SOL     OW39489  10.859   1.715   0.258  0.4576  0.2925  0.1016
11678SOL    HW139490  10.836   1.669   0.177 -0.3021  0.4617  0.2121
11678SOL    HW239491  10.953   1.728   0.252  0.6697 -1.1933  0.0239
11679SOL     OW39492  10.085   2.496   3.336 -0.3893 -0.4424 -0.0286
11679SOL    HW139493   9.998   2.533   3.348 -0.1470  1.2192 -2.5449
11679SOL    HW239494  10.072   2.422   3.277 -0.2618 -1.0963  0.7618
11680SOL     OW39495   5.232   3.479   3.144  0.4311 -0.0494 -0.4271
11680SOL    HW139496   5.254   3.407   3.203 -1.8576 -0.6681 -0.2226
11680SOL    HW239497   5.168   3.530   3.192 -1.3329 -0.4305 -2.2135
11681SOL     OW39498   9.885   4.583   7.475 -0.3164 -0.0573 -0.0734
11681SOL    HW139499   9.857   4.531   7.550  1.0605 -1.6017 -0.5739
11681SOL    HW239500   9.892   4.672   7.509 -0.1416 -0.6425  1.5118
11682SOL     OW39501   2.540   8.690   1.580 -0.2464 -0.0463  0.2967
11682SOL    HW139502   2.517   8.682   1.673 -0.9680 -0.1279  0.1159
11682SOL    HW239503   2.559   8.601   1.552 -1.5187 -0.2334 -0.0050
11683SOL     OW39504   3.052   4.492   4.326  0.2778 -0.3279  0.4007
11683SOL    HW139505   2.959   4.502   4.304  0.3837 -0.1640  0.0083
11683SOL    HW239506   3.055   4.418   4.386 -0.0447 -0.6618  0.0046
11684SOL     OW39507   4.436   3.756   4.182  0.4463 -0.4145  0.0073
11684SOL    HW139508   4.481   3.786   4.261  0.7830  0.0638 -0.3589
11684SOL    HW239509   4.378   3.828   4.158  0.4157 -0.5174 -0.2321
11685SOL     OW39510  10.181   3.054   4.776 -0.0165 -0.5495 -0.2114
11685SOL    HW139511  10.098   3.024   4.738 -0.1336 -0.6785  0.1462
11685SOL    HW239512  10.228   2.974   4.797 -0.1455 -0.4869  0.3387
11686SOL     OW39513   3.721  10.836   2.696  0.8065 -1.1162 -0.2806
11686SOL    HW139514   3.777  10.903   2.734  1.3477 -1.3583 -0.6428
11686SOL    HW239515   3.752  10.826   2.606 -1.3043  0.3999 -1.2725
11687SOL     OW39516   9.602   9.322  10.803  0.3737 -0.3923  0.2700
11687SOL    HW139517   9.630   9.411  10.783 -0.6564 -0.1738 -0.2422
11687SOL    HW239518   9.679   9.268  10.784  1.7327  0.5651  2.5606
11688SOL     OW39519   8.665   3.111  10.351  0.0462  0.2208 -0.1511
11688SOL    HW139520   8.625   3.041  10.299 -1.3163 -0.5322  1.7843
11688SOL    HW239521   8.759   3.102  10.335 -0.3196  0.0097 -2.3897
11689SOL     OW39522   5.903   2.480   7.708  0.0560 -0.0221  0.4434
11689SOL    HW139523   5.838   2.540   7.672  0.3567  0.1201  0.1371
11689SOL    HW239524   5.983   2.498   7.659  0.3399 -0.1664  0.8485
11690SOL     OW39525   5.368   0.246   4.670  0.1072 -0.5062 -0.0408
11690SOL    HW139526   5.299   0.293   4.716 -1.8292 -2.0583 -1.2194
11690SOL    HW239527   5.379   0.294   4.588 -0.3865 -0.8960 -0.3392
11691SOL     OW39528  11.075   0.502   8.455 -0.1538 -0.0127  0.1261
11691SOL    HW139529  11.001   0.452   8.489 -0.9829 -0.6052 -2.3062
11691SOL    HW239530  11.150   0.443   8.464  0.0083  0.4235  2.1957
11692SOL     OW39531   8.672   1.646   4.049 -0.3667  0.2410  0.0301
11692SOL    HW139532   8.658   1.669   4.140 -1.1203 -2.3198  0.6315
11692SOL    HW239533   8.617   1.570   4.034 -1.0453  1.1666 -2.8846
11693SOL     OW39534   9.950   4.811  10.889 -0.4558  0.1454  0.0284
11693SOL    HW139535   9.960   4.742  10.823 -1.6730 -2.0368  1.9616
11693SOL    HW239536   9.865   4.851  10.869 -0.2771  0.3079 -0.4231
11694SOL     OW39537   8.806  10.452  10.374 -0.4784  0.2719 -0.1566
11694SOL    HW139538   8.798  10.418  10.463  0.1809  1.6035  0.4411
11694SOL    HW239539   8.874  10.399  10.333  1.3046  1.5141  1.1077
11695SOL     OW39540   4.127   5.474   7.589 -0.0235 -0.6143  0.0631
11695SOL    HW139541   4.164   5.392   7.556  0.5612  0.0923 -1.0888
11695SOL    HW239542   4.090   5.516   7.511  0.6503  0.7160  0.4441
11696SOL     OW39543   0.008   9.485   7.027 -0.4795 -0.1027 -0.7732
11696SOL    HW139544   0.066   9.414   7.054 -0.9103 -0.2215 -0.1468
11696SOL    HW239545   0.056   9.530   6.958  0.4848 -0.0040 -0.0519
11697SOL     OW39546   2.706   7.922   0.512 -0.2152  0.1556  0.5720
11697SOL    HW139547   2.672   7.892   0.428  1.6676 -1.3472  0.2645
11697SOL    HW239548   2.674   7.857   0.575  1.0131 -0.6293  0.4461
11698SOL     OW39549   4.985   3.721   2.971  0.3348  0.1651 -0.5169
11698SOL    HW139550   4.967   3.693   3.060  2.3803  0.4488  0.0244
11698SOL    HW239551   5.009   3.640   2.925  0.1368  0.1533 -0.6047
11699SOL     OW39552   0.887   0.349   7.462  0.2450  0.3324 -0.2005
11699SOL    HW139553   0.933   0.300   7.531 -0.2375  0.6459  0.3536
11699SOL    HW239554   0.890   0.440   7.492 -0.2391  0.4278 -0.4388
11700SOL     OW39555   3.282   5.287   7.035  0.1008  0.3352 -0.4613
11700SOL    HW139556   3.312   5.370   6.997  2.0043  0.6239  1.4994
11700SOL    HW239557   3.360   5.232   7.038 -0.4831 -0.4446  0.9929
11701SOL     OW39558   8.386   4.806   2.351  0.7946 -0.5324  0.1748
11701SOL    HW139559   8.402   4.894   2.317  2.6951 -1.1084 -0.5815
11701SOL    HW239560   8.324   4.767   2.289 -0.6163  0.4692  0.9102
11702SOL     OW39561   6.920   1.965   3.879  0.1156  0.1491  0.1525
11702SOL    HW139562   6.858   1.977   3.951 -0.6693 -0.2009 -0.4474
11702SOL    HW239563   6.980   1.896   3.909 -0.1100  0.1158  0.5281
11703SOL     OW39564  10.053   6.518   3.305 -0.1083  0.3679  0.5077
11703SOL    HW139565   9.973   6.505   3.255 -1.6370  2.3031  2.2753
11703SOL    HW239566  10.061   6.440   3.359 -0.0675 -0.4005 -0.5793
11704SOL     OW39567   9.046   6.968   2.163  0.0228 -0.3177 -0.0506
11704SOL    HW139568   9.035   6.945   2.255  0.6615 -0.8407 -0.1019
11704SOL    HW239569   8.957   6.962   2.126 -0.3050  0.3137  0.6184
11705SOL     OW39570   0.583   6.406   6.561  0.0522 -0.2030 -0.4603
11705SOL    HW139571   0.576   6.421   6.655  0.1243  1.2802 -0.6731
11705SOL    HW239572   0.666   6.445   6.536  0.2231 -0.9484 -1.0788
11706SOL     OW39573   2.320   2.877   1.207  0.7176 -0.3675 -0.0466
11706SOL    HW139574   2.296   2.847   1.295 -0.4667 -1.7218 -0.8040
11706SOL    HW239575   2.242   2.862   1.154  0.4362  2.9337 -0.8142
11707SOL     OW39576   2.303   5.419   9.314 -0.2746  0.3411 -0.0193
11707SOL    HW139577   2.216   5.381   9.319 -0.1975  0.2912  1.1019
11707SOL    HW239578   2.293   5.494   9.255 -1.0833  0.3616  0.1311
11708SOL     OW39579   4.698   5.197   9.285 -0.3345 -0.6783 -0.0897
11708SOL    HW139580   4.716   5.124   9.344 -2.0267 -0.1218  1.2150
11708SOL    HW239581   4.616   5.234   9.318  1.0588  2.5735  0.0394
11709SOL     OW39582   7.890   7.374   9.205  0.0614  1.0517 -0.3371
11709SOL    HW139583   7.862   7.340   9.120 -2.7153 -0.1948  0.9509
11709SOL    HW239584   7.855   7.463   9.208 -1.1417  0.5846  0.0294
11710SOL     OW39585   9.500   0.837   9.910  0.0922 -0.1799  0.2179
11710SOL    HW139586   9.503   0.768   9.975 -2.8809 -0.3682  0.3012
11710SOL    HW239587   9.451   0.908   9.952 -0.8480  0.1585 -1.3494
11711SOL     OW39588   9.182   0.277   5.987  0.3997 -0.5019 -0.1137
11711SOL    HW139589   9.112   0.303   5.928  1.3395  2.2147 -0.1734
11711SOL    HW239590   9.139   0.229   6.057 -1.7023  1.7785  0.2818
11712SOL     OW39591   0.264   0.274   7.071  0.4030 -0.2803 -0.5315
11712SOL    HW139592   0.327   0.203   7.080 -0.1062 -0.7783 -0.9045
11712SOL    HW239593   0.260   0.313   7.159  2.1428  0.5444 -0.7690
11713SOL     OW39594  10.004   6.817   2.349 -0.5262 -0.2786  0.0221
11713SOL    HW139595  10.002   6.761   2.427 -0.4522 -0.4576 -0.1055
11713SOL    HW239596   9.997   6.756   2.276 -1.9696 -0.0369 -0.0855
11714SOL     OW39597   0.192   9.641   1.587 -0.0473 -0.4475  0.0677
11714SOL    HW139598   0.267   9.636   1.528 -1.4695 -1.5043 -1.7607
11714SOL    HW239599   0.117   9.654   1.529 -1.3989 -0.3551  1.7577
11715SOL     OW39600   5.290   1.250   9.796 -0.1120  0.4226  0.2457
11715SOL    HW139601   5.236   1.327   9.814 -1.4670 -0.2806 -0.6178
11715SOL    HW239602   5.238   1.177   9.829 -0.0325 -0.3410 -1.2195
11716SOL     OW39603   7.638   7.010  10.382 -0.1953 -0.6362 -0.1598
11716SOL    HW139604   7.554   6.982  10.345 -1.3457  1.7083  0.4643
11716SOL    HW239605   7.614   7.060  10.459  1.9914 -2.5662  1.9134
11717SOL     OW39606   5.165   4.843   9.185  0.2116  0.1141 -0.2328
11717SOL    HW139607   5.109   4.809   9.115  1.2790  0.0660 -1.0958
11717SOL    HW239608   5.248   4.799   9.172  0.2002 -0.5116  1.5963
11718SOL     OW39609   4.473   2.712  10.608  0.6860  0.0551 -0.0985
11718SOL    HW139610   4.502   2.801  10.624  1.6913 -0.2585 -0.1020
11718SOL    HW239611   4.380   2.720  10.589  1.0035  1.2468 -1.2898
11719SOL     OW39612   8.217   3.656   9.625 -0.3215 -0.1300  0.3044
11719SOL    HW139613   8.279   3.641   9.697  0.1941  0.0225 -0.1016
11719SOL    HW239614   8.245   3.596   9.556 -1.0347 -0.5370  0.3564
11720SOL     OW39615   5.298   4.452   8.500 -0.4401 -0.0940  0.0597
11720SOL    HW139616   5.255   4.528   8.540  1.2374  0.9567 -0.0258
11720SOL    HW239617   5.373   4.434   8.557  1.1906  0.5521 -1.7938
11721SOL     OW39618   1.097   4.393  10.835  1.0089 -0.6313  0.5252
11721SOL    HW139619   1.057   4.414  10.750  0.1879 -1.5490  0.6762
11721SOL    HW239620   1.090   4.475  10.885  0.0035 -0.5591  0.2849
11722SOL     OW39621  10.830   7.955   7.687  0.3816  0.5471 -0.3119
11722SOL    HW139622  10.792   8.043   7.678 -1.5697 -0.3356 -1.3675
11722SOL    HW239623  10.924   7.970   7.695 -0.0014  2.7805  0.7207
11723SOL     OW39624   6.608   1.995   2.569 -0.4431  0.6919  0.4786
11723SOL    HW139625   6.591   1.907   2.536 -1.1746  1.1167 -0.3072
11723SOL    HW239626   6.583   2.053   2.497 -0.5563  1.5737  1.2100
11724SOL     OW39627   5.420   4.372   9.694 -0.2056 -0.4210 -0.4249
11724SOL    HW139628   5.503   4.354   9.738 -1.2775 -2.5572  0.9600
11724SOL    HW239629   5.372   4.429   9.755 -0.5064 -0.8571 -0.2435
11725SOL     OW39630   0.942   4.895   8.453 -0.1240 -0.1868  0.2201
11725SOL    HW139631   1.020   4.950   8.456 -0.5634  0.4256  0.5055
11725SOL    HW239632   0.969   4.818   8.402  0.2686  0.6357 -0.8374
11726SOL     OW39633   7.346   9.098   8.360  0.0684  0.6665 -0.4066
11726SOL    HW139634   7.380   9.187   8.370 -1.0171  0.9661  0.8780
11726SOL    HW239635   7.280   9.106   8.291  2.4931  0.0503 -3.0359
11727SOL     OW39636   6.585   3.082   7.550 -1.0328  0.4872  0.4722
11727SOL    HW139637   6.609   3.148   7.485  1.4204 -1.0081 -0.2685
11727SOL    HW239638   6.571   3.002   7.499 -1.5842 -0.1482  1.5745
11728SOL     OW39639   5.678   8.700   5.887  0.1774  0.3181 -0.0109
11728SOL    HW139640   5.745   8.655   5.836  1.1529  1.6982 -0.0017
11728SOL    HW239641   5.684   8.661   5.975 -0.8438 -1.3743 -0.6443
11729SOL     OW39642   9.746   5.802   9.318  0.0631  0.5297 -0.7458
11729SOL    HW139643   9.714   5.869   9.257 -0.3065  1.6401  0.6143
11729SOL    HW239644   9.680   5.733   9.315 -0.6165  1.1603 -0.6670
11730SOL     OW39645   9.440   6.783   9.471  0.1401  0.2247  0.2521
11730SOL    HW139646   9.477   6.858   9.517 -0.3621  1.6146 -1.4728
11730SOL    HW239647   9.354   6.769   9.512  0.5715  0.0505  1.1131
11731SOL     OW39648   6.097   3.865   5.410  0.0097 -0.1116  0.0019
11731SOL    HW139649   6.139   3.854   5.325  0.1063 -0.2761  0.0686
11731SOL    HW239650   6.090   3.775   5.444 -0.0506 -0.0484  0.1547
11732SOL     OW39651   9.663   0.575   9.387 -0.2599  0.6543 -0.0630
11732SOL    HW139652   9.621   0.490   9.397 -0.6297  0.9787  1.2549
11732SOL    HW239653   9.741   0.557   9.335 -1.3950 -0.1498 -1.6035
11733SOL     OW39654   6.579   2.646   7.008  0.4009 -0.0806 -0.1520
11733SOL    HW139655   6.570   2.567   7.061  0.7920  0.1828  0.3245
11733SOL    HW239656   6.673   2.665   7.009  0.4047 -0.0332 -0.8979
11734SOL     OW39657   7.215   8.957   7.238 -0.5426 -0.1744  0.5672
11734SOL    HW139658   7.261   8.951   7.321  1.1732 -1.4591 -0.4126
11734SOL    HW239659   7.284   8.955   7.172 -1.9807 -2.4417 -1.0011
11735SOL     OW39660   1.299   7.107   3.859  0.2189 -0.1805  0.2088
11735SOL    HW139661   1.299   7.110   3.763  0.7691 -0.1500  0.2048
11735SOL    HW239662   1.348   7.185   3.885  0.9793 -0.7501  0.4893
11736SOL     OW39663   9.893  10.087   9.923  0.7673 -0.3249 -0.0050
11736SOL    HW139664   9.953  10.132   9.983  1.0838 -2.1099  1.1060
11736SOL    HW239665   9.858  10.015   9.975  0.3819 -1.4318 -1.7262
11737SOL     OW39666   9.405   4.511   1.937 -0.2729  0.0769  0.9816
11737SOL    HW139667   9.497   4.496   1.961 -0.5183 -1.2056  1.1766
11737SOL    HW239668   9.399   4.606   1.926  1.4137  0.0686 -0.4466
11738SOL     OW39669   5.137  10.385   6.452  0.0759 -0.6141 -0.2011
11738SOL    HW139670   5.198  10.453   6.423  0.2269 -0.9220 -0.6051
11738SOL    HW239671   5.181  10.343   6.526  0.3251 -0.7908 -0.4491
11739SOL     OW39672  10.122   8.074  11.066  0.1542  0.0577 -0.0592
11739SOL    HW139673  10.056   8.143  11.058 -0.3938 -0.5622 -0.9598
11739SOL    HW239674  10.168   8.075  10.982  0.4674 -0.3509  0.1045
11740SOL     OW39675   1.607   4.531   6.604  0.0367  0.5647  0.8134
11740SOL    HW139676   1.512   4.520   6.614  0.2067 -1.9594  0.3366
11740SOL    HW239677   1.621   4.531   6.510  0.6398 -1.0645  0.8692
11741SOL     OW39678   7.565   0.784   9.232 -0.2573  0.5803 -0.0005
11741SOL    HW139679   7.546   0.690   9.231 -0.7982  0.6007  2.2505
11741SOL    HW239680   7.479   0.825   9.223 -0.1493  0.8389  0.1548
11742SOL     OW39681   0.390   1.007   0.680  0.3378  0.4345 -0.2795
11742SOL    HW139682   0.469   0.954   0.666  0.1771 -0.4344  1.6975
11742SOL    HW239683   0.331   0.949   0.729 -0.3552  2.0220  0.8691
11743SOL     OW39684   0.214  10.788   1.448 -0.0377 -0.1226  0.1033
11743SOL    HW139685   0.187  10.876   1.473  0.0972  0.2115 -0.9012
11743SOL    HW239686   0.132  10.743   1.426 -0.0391 -0.0002 -0.1457
11744SOL     OW39687  10.158  10.380   5.535 -0.2720  0.0459  0.3791
11744SOL    HW139688  10.074  10.412   5.500 -0.5735  0.7835  1.7278
11744SOL    HW239689  10.143  10.371   5.629 -0.0578 -3.6153  0.2258
11745SOL     OW39690   0.499   1.709   0.867  0.3549  0.5850  0.1017
11745SOL    HW139691   0.549   1.791   0.863  1.0184  0.1718 -0.2413
11745SOL    HW239692   0.506   1.681   0.958 -0.3825  1.2033  0.3692
11746SOL     OW39693   4.072   8.255   6.569  0.4209 -0.3438  0.2245
11746SOL    HW139694   4.060   8.186   6.504  0.1835 -0.0476 -0.0481
11746SOL    HW239695   4.026   8.331   6.532  1.3373  0.1914  0.1444
11747SOL     OW39696   4.779   8.164   6.500  0.1458  0.2009  0.3642
11747SOL    HW139697   4.803   8.108   6.427 -0.4514  1.1705 -0.5955
11747SOL    HW239698   4.749   8.246   6.460 -1.8011  0.1682  1.6158
11748SOL     OW39699   5.790   7.915   1.607  0.1249  0.0893 -0.1297
11748SOL    HW139700   5.707   7.876   1.635  0.6698  0.0012  1.4618
11748SOL    HW239701   5.767   8.005   1.583 -0.7025 -0.4203 -1.3986
11749SOL     OW39702   9.654   2.121   7.570  0.2560  0.4182 -0.2180
11749SOL    HW139703   9.682   2.211   7.586  1.7114 -0.3204  1.8499
11749SOL    HW239704   9.639   2.085   7.658 -1.2300 -1.0965 -1.0276
11750SOL     OW39705   3.719   7.568   2.304 -0.0007 -0.4613 -0.4263
11750SOL    HW139706   3.721   7.485   2.352  2.4025 -1.0685 -1.4021
11750SOL    HW239707   3.734   7.635   2.371  1.2034 -1.1207 -0.0044
11751SOL     OW39708   2.824   0.770   1.397 -0.1487  0.3036  0.5372
11751SOL    HW139709   2.906   0.810   1.366 -0.9895  1.9235  0.2768
11751SOL    HW239710   2.851   0.687   1.436  1.3071 -0.3662 -1.7286
11752SOL     OW39711   5.195   8.262   9.519  0.6244  0.1282  0.2995
11752SOL    HW139712   5.105   8.254   9.550  0.9038 -1.3828  0.8199
11752SOL    HW239713   5.247   8.212   9.582  2.1566  2.7013  1.2084
11753SOL     OW39714   8.052   3.565   4.966  0.6655 -0.5997 -0.1369
11753SOL    HW139715   8.023   3.584   5.056 -0.4241 -2.0915 -0.1456
11753SOL    HW239716   8.129   3.508   4.977  3.2942  2.6086 -0.1366
11754SOL     OW39717   0.795   0.018   8.059  0.3287 -0.2760  0.1139
11754SOL    HW139718   0.841  -0.062   8.032 -0.0899 -0.4461 -0.0932
11754SOL    HW239719   0.706  -0.010   8.080  0.3578  0.0294  0.6730
11755SOL     OW39720   5.766   7.913   7.944 -0.4727 -0.1201 -0.1458
11755SOL    HW139721   5.790   7.983   8.005  0.4499  0.4856 -1.1537
11755SOL    HW239722   5.760   7.835   7.998 -2.3784  0.8684  1.1583
11756SOL     OW39723   8.915   1.252   8.413  0.0059  0.3343  0.3695
11756SOL    HW139724   8.885   1.336   8.447 -1.1116  0.7726 -1.5699
11756SOL    HW239725   8.868   1.187   8.466 -1.3414  0.9832  0.0194
11757SOL     OW39726  10.056   1.290  10.921 -0.1376 -0.3911 -0.2402
11757SOL    HW139727  10.111   1.269  10.846  2.6171 -0.5828  1.6793
11757SOL    HW239728  10.096   1.369  10.959 -0.6405 -1.0201  1.7150
11758SOL     OW39729   6.996   7.291   2.560  0.4961 -0.1465 -0.2474
11758SOL    HW139730   7.080   7.298   2.514  0.4617  0.5925 -0.2092
11758SOL    HW239731   6.986   7.198   2.577  1.6023 -0.1854  0.2861
11759SOL     OW39732   7.182   1.592   0.777 -0.1702 -0.3492 -0.1181
11759SOL    HW139733   7.186   1.681   0.812 -1.1737 -0.7811  1.2005
11759SOL    HW239734   7.220   1.537   0.845  3.2407 -0.7398 -2.0863
11760SOL     OW39735   0.550   4.498   8.194  0.2607 -0.3761  0.1868
11760SOL    HW139736   0.531   4.538   8.279 -0.0999  0.6691 -0.3665
11760SOL    HW239737   0.514   4.409   8.201  1.2162 -0.6836  1.4910
11761SOL     OW39738   4.768   1.718   5.996  0.0981 -0.2319 -0.4722
11761SOL    HW139739   4.830   1.771   6.047 -2.5018  0.8138  1.8717
11761SOL    HW239740   4.743   1.775   5.923 -0.7451  0.8631  0.6161
11762SOL     OW39741   7.946   9.142   4.628 -0.3234  0.0165 -0.7548
11762SOL    HW139742   7.934   9.057   4.671  0.8935  0.2676  0.1576
11762SOL    HW239743   7.863   9.188   4.641 -0.7781 -0.8015 -0.7289
11763SOL     OW39744   2.757   4.966   2.010 -0.3731 -0.4193  0.7640
11763SOL    HW139745   2.778   4.986   1.919  2.4383  1.2019  1.6435
11763SOL    HW239746   2.675   5.013   2.027  0.9055  2.3012 -0.0344
11764SOL     OW39747   0.684   9.266   2.882  0.9465 -0.0807 -0.1147
11764SOL    HW139748   0.689   9.293   2.790  0.8290  1.3943  0.2735
11764SOL    HW239749   0.684   9.171   2.880  1.7112 -0.0705 -1.6010
11765SOL     OW39750  10.774   5.923   4.009  0.5855 -0.4206  0.0221
11765SOL    HW139751  10.833   5.850   4.026  1.2550 -0.1293 -0.9632
11765SOL    HW239752  10.709   5.888   3.948  2.3022  0.3698 -2.4398
11766SOL     OW39753   1.363  10.941   4.058  0.6992  0.0750  0.5040
11766SOL    HW139754   1.288  11.001   4.060  1.1468  0.6314  1.2714
11766SOL    HW239755   1.382  10.930   3.965 -1.3738 -1.4280  0.1792
11767SOL     OW39756  11.059   0.857   9.847 -0.1346 -0.1254  0.5053
11767SOL    HW139757  11.148   0.862   9.813 -0.5238 -0.2680 -0.5537
11767SOL    HW239758  11.070   0.862   9.942  1.0228 -0.4140  0.4056
11768SOL     OW39759   5.330  10.183   0.430  0.3155  0.3921  0.3131
11768SOL    HW139760   5.331  10.170   0.525  1.7674 -1.9457  0.0500
11768SOL    HW239761   5.422  10.190   0.406 -0.0110  0.4498 -1.0022
11769SOL     OW39762   8.275   4.989   4.732  0.5720  0.3129 -0.3487
11769SOL    HW139763   8.224   5.066   4.755  0.1999 -0.0077 -0.0853
11769SOL    HW239764   8.341   4.982   4.800 -1.1271 -1.1964  1.2725
11770SOL     OW39765  10.438  10.375   8.768 -0.1769 -0.5165  0.3075
11770SOL    HW139766  10.448  10.389   8.674 -1.5657 -1.3449  0.0147
11770SOL    HW239767  10.455  10.460   8.807 -0.7088  0.1063 -0.7814
11771SOL     OW39768   3.943   9.235   9.729  0.5544  0.2778  0.6021
11771SOL    HW139769   4.013   9.234   9.664  1.2325 -0.4199  1.3117
11771SOL    HW239770   3.963   9.160   9.786 -1.0255 -0.2202  0.5524
11772SOL     OW39771   3.886   0.581   7.712 -0.2202 -0.5074  0.0348
11772SOL    HW139772   3.978   0.606   7.721  0.3616 -2.3541 -0.2926
11772SOL    HW239773   3.841   0.663   7.690  1.7949  0.0313 -2.7786
11773SOL     OW39774   7.020   0.579   0.712 -0.5505 -0.6235  0.2760
11773SOL    HW139775   6.938   0.558   0.666 -0.6725 -0.3485  0.3642
11773SOL    HW239776   7.089   0.547   0.654 -0.6137  1.6006 -1.1591
11774SOL     OW39777   3.937   5.263   0.973 -0.2426 -0.7412 -0.2757
11774SOL    HW139778   3.881   5.186   0.978  0.2210 -1.0094  1.4344
11774SOL    HW239779   3.939   5.297   1.062 -1.2202  1.8356 -1.1447
11775SOL     OW39780   6.289   0.737   5.004 -0.4621  0.7313  0.4383
11775SOL    HW139781   6.338   0.732   5.086 -0.0967 -0.1432  0.1808
11775SOL    HW239782   6.295   0.828   4.978  0.2147  0.8268  0.9042
11776SOL     OW39783   9.663   6.238   2.876  0.3113  0.2665 -0.4295
11776SOL    HW139784   9.759   6.243   2.869  0.3440 -0.6625 -0.8555
11776SOL    HW239785   9.647   6.170   2.941 -0.0660  1.0528  0.3110
11777SOL     OW39786   3.211   3.154   3.444  0.3915  0.0833 -0.3136
11777SOL    HW139787   3.116   3.166   3.455  0.6087  2.8109 -0.5872
11777SOL    HW239788   3.243   3.138   3.533 -0.2157  0.4524 -0.0201
11778SOL     OW39789  10.089   8.185   5.359  0.7929 -0.5656  0.0382
11778SOL    HW139790  10.089   8.089   5.362 -0.3942 -0.6109 -1.0433
11778SOL    HW239791  10.007   8.208   5.316  0.7664  0.9692  0.8445
11779SOL     OW39792   7.522   8.268   3.332  0.1435  0.2407 -0.2711
11779SOL    HW139793   7.467   8.332   3.378  1.7526  0.1059  2.0074
11779SOL    HW239794   7.461   8.218   3.277 -1.5101  2.0481 -0.1637
11780SOL     OW39795   1.920   1.059   3.216  0.7326  0.4108 -0.0100
11780SOL    HW139796   2.015   1.050   3.207  0.7667  0.8095 -0.0708
11780SOL    HW239797   1.906   1.093   3.304  0.6297  0.1536  0.0762
11781SOL     OW39798   1.490   8.139  10.762  0.0655 -0.6451  0.1581
11781SOL    HW139799   1.584   8.133  10.780  0.4121 -0.7340 -1.5777
11781SOL    HW239800   1.478   8.227  10.726 -1.1951  0.9074  3.8373
11782SOL     OW39801   3.814   3.819   9.712 -0.1858  0.0506  0.1283
11782SOL    HW139802   3.780   3.821   9.802 -0.4379  1.0059  0.0243
11782SOL    HW239803   3.741   3.852   9.659  0.3134  0.4579 -0.3074
11783SOL     OW39804   8.368  10.244   6.644  0.4563 -0.3858  0.5202
11783SOL    HW139805   8.352  10.167   6.698  0.7914 -0.8072  0.0317
11783SOL    HW239806   8.367  10.210   6.554  1.1765  0.0763  0.3338
11784SOL     OW39807  10.954   5.710   1.265  0.4958  0.2438  0.4298
11784SOL    HW139808  10.997   5.627   1.242 -0.4604 -0.1195 -0.0775
11784SOL    HW239809  10.953   5.710   1.361  0.8085 -0.1717  0.4392
11785SOL     OW39810   3.362   6.839   7.241  0.0924  0.2607 -0.4169
11785SOL    HW139811   3.417   6.827   7.319 -2.3169 -1.0081  1.2499
11785SOL    HW239812   3.338   6.931   7.241  0.4433  0.3519  0.1380
11786SOL     OW39813   9.397   0.494   0.329  0.4330  0.3397 -0.1344
11786SOL    HW139814   9.458   0.567   0.319  1.5363 -0.1052  2.4281
11786SOL    HW239815   9.451   0.416   0.318 -0.3971 -0.0952 -1.2172
11787SOL     OW39816   7.585   5.823   7.882  0.2774 -0.1230  0.2644
11787SOL    HW139817   7.578   5.867   7.797 -1.9420  0.1661  0.5482
11787SOL    HW239818   7.636   5.744   7.864  1.8970  1.0867 -0.8262
11788SOL     OW39819   8.611   0.396   7.896 -0.2945 -0.1700 -0.1446
11788SOL    HW139820   8.592   0.478   7.941  0.6439 -0.0203  0.0087
11788SOL    HW239821   8.707   0.391   7.896 -0.3138 -0.7407 -1.0969
11789SOL     OW39822   2.283   2.259   3.990 -0.0682 -0.1482 -0.2266
11789SOL    HW139823   2.339   2.268   4.067  0.1026  0.5778 -0.4352
11789SOL    HW239824   2.223   2.187   4.012 -0.4801  0.5130  0.8575
11790SOL     OW39825   3.134   6.372   4.517  0.0601 -0.3146  0.6220
11790SOL    HW139826   3.143   6.436   4.587  5.3283  0.6347 -0.5353
11790SOL    HW239827   3.180   6.294   4.549  0.8695 -0.5400 -0.9725
11791SOL     OW39828  10.770  10.948   6.606  0.0020  0.6676  0.6806
11791SOL    HW139829  10.858  10.980   6.624  1.5449 -2.8123 -0.0129
11791SOL    HW239830  10.729  10.940   6.693  2.9135 -3.9825  1.9964
11792SOL     OW39831   4.469   7.807   5.481 -0.6983  0.0914  0.5361
11792SOL    HW139832   4.390   7.858   5.497  0.0988  2.7007 -2.8174
11792SOL    HW239833   4.460   7.776   5.391  2.5631  1.5364 -0.4132
11793SOL     OW39834   5.199   5.282   4.596 -0.3604 -0.2945  0.2916
11793SOL    HW139835   5.267   5.315   4.655 -0.1188  0.4561 -0.3985
11793SOL    HW239836   5.120   5.331   4.621 -0.2501  0.0482 -0.0295
11794SOL     OW39837   0.736   8.130   1.828  0.2191 -0.3294 -0.4009
11794SOL    HW139838   0.692   8.206   1.866 -1.3635 -0.7171 -1.3817
11794SOL    HW239839   0.752   8.072   1.903 -1.9382 -0.6441 -0.1255
11795SOL     OW39840   6.825   1.561   5.509  0.2881  0.2309  0.8829
11795SOL    HW139841   6.839   1.608   5.592  1.8778  1.1386  0.1506
11795SOL    HW239842   6.735   1.585   5.484  0.2435  1.0095  1.6951
11796SOL     OW39843   6.784   3.761   2.505 -0.3170 -0.1058  1.1137
11796SOL    HW139844   6.844   3.793   2.572  0.9179 -2.1519  1.0643
11796SOL    HW239845   6.825   3.786   2.422 -1.3199  1.5088  1.0671
11797SOL     OW39846   3.688   6.736   7.180  0.2298 -0.0952  0.0331
11797SOL    HW139847   3.618   6.698   7.233  1.8444  0.4721  2.7809
11797SOL    HW239848   3.768   6.718   7.230  1.6489  2.2401 -1.2205
11798SOL     OW39849   6.674   6.810   4.716 -0.4370 -0.2179  0.0727
11798SOL    HW139850   6.720   6.752   4.777 -0.9221 -0.4405  0.2377
11798SOL    HW239851   6.731   6.815   4.639 -0.3987 -0.9432  0.0438
11799SOL     OW39852   9.037   9.185   0.000 -0.0578 -0.1107  0.0268
11799SOL    HW139853   8.954   9.200  -0.043 -1.2858  0.0006  2.2651
11799SOL    HW239854   9.101   9.234  -0.052 -1.3061 -0.3940 -1.8628
11800SOL     OW39855   7.402   7.558   8.775  0.0871 -0.2084 -0.2350
11800SOL    HW139856   7.414   7.504   8.697  2.4537 -0.2509  0.0786
11800SOL    HW239857   7.402   7.648   8.742  2.5975 -0.1320 -0.2559
11801SOL     OW39858   0.720   1.177  10.571 -0.0231  0.0260 -0.4735
11801SOL    HW139859   0.646   1.231  10.598 -0.3073 -1.0964  1.1444
11801SOL    HW239860   0.797   1.234  10.582 -0.5436  0.9394 -1.4027
11802SOL     OW39861   2.634   1.475   0.525  0.4760  0.3045  0.8482
11802SOL    HW139862   2.649   1.558   0.479 -0.3155 -0.5132 -0.9764
11802SOL    HW239863   2.549   1.486   0.566 -1.0642 -0.5662 -1.8660
11803SOL     OW39864   5.126   5.662   2.728 -0.1756 -0.3278  0.0656
11803SOL    HW139865   5.113   5.607   2.651 -0.8363 -0.9803  0.6286
11803SOL    HW239866   5.059   5.633   2.790  1.8238 -1.4909  1.8049
11804SOL     OW39867   8.381   9.103   6.359  0.6370  0.4376  0.0046
11804SOL    HW139868   8.419   9.025   6.320 -0.0452  0.6441 -1.0869
11804SOL    HW239869   8.395   9.172   6.294 -0.6937  0.7411  0.0100
11805SOL     OW39870  11.036   4.383   0.098 -0.0239 -0.0819 -0.3450
11805SOL    HW139871  11.014   4.367   0.006  1.7425  1.5143 -1.1159
11805SOL    HW239872  11.131   4.368   0.102  0.1648  1.2960  0.8842
11806SOL     OW39873   2.920   4.132   7.488 -0.0987 -0.0386 -0.0345
11806SOL    HW139874   2.957   4.061   7.540 -1.2498 -1.6565 -1.3207
11806SOL    HW239875   2.900   4.200   7.552 -0.0687 -1.3582  1.4455
11807SOL     OW39876  10.470   4.963   2.595 -0.7722 -0.2719 -0.1081
11807SOL    HW139877  10.538   5.015   2.551 -1.3630  0.6670  0.0581
11807SOL    HW239878  10.513   4.880   2.616  0.6022  0.6223  0.7868
11808SOL     OW39879   1.728   5.895   5.152 -0.3476  0.3096 -0.3192
11808SOL    HW139880   1.762   5.807   5.136  1.9361  1.1112 -0.2272
11808SOL    HW239881   1.675   5.914   5.075  0.2495 -0.6415 -0.9855
11809SOL     OW39882   7.316   4.561   6.617  0.7569  0.5022 -0.3078
11809SOL    HW139883   7.312   4.654   6.594 -0.4420  0.7479  0.7751
11809SOL    HW239884   7.231   4.526   6.589  0.6167  0.0786  0.6142
11810SOL     OW39885   2.753   9.353   6.409  0.0106  0.1823  0.0965
11810SOL    HW139886   2.743   9.263   6.439  0.1073  0.3620  0.6901
11810SOL    HW239887   2.708   9.356   6.324  1.6527 -0.9172 -0.8766
11811SOL     OW39888   4.016   4.704   5.359  0.0116 -0.1457  0.1388
11811SOL    HW139889   3.924   4.730   5.364  0.0894  0.1809 -0.0752
11811SOL    HW239890   4.014   4.609   5.351 -0.3790 -0.0131 -1.6692
11812SOL     OW39891   9.164   8.981  10.572  0.0941 -0.1346 -0.1177
11812SOL    HW139892   9.238   9.041  10.585  0.8866 -1.1486  0.1996
11812SOL    HW239893   9.089   9.028  10.608  0.8064  0.4287  0.6965
11813SOL     OW39894   4.227   9.483   9.025  0.1022 -0.0664 -0.4129
11813SOL    HW139895   4.236   9.425   8.950 -0.4715  1.6740 -1.9201
11813SOL    HW239896   4.278   9.561   9.001  1.2428 -0.0803  1.7176
11814SOL     OW39897   9.367   3.238   7.326  0.0778  0.1526 -0.7671
11814SOL    HW139898   9.456   3.261   7.299  0.2042 -1.2113 -1.5841
11814SOL    HW239899   9.317   3.235   7.245 -0.2096 -1.1873 -0.5660
11815SOL     OW39900   9.282   6.558  10.662  0.2471 -0.6028  0.5570
11815SOL    HW139901   9.224   6.538  10.589  0.2653 -1.3345  0.7321
11815SOL    HW239902   9.290   6.653  10.661 -3.4212 -0.1160  2.4086
11816SOL     OW39903   9.551   4.129   3.674 -0.7391  0.2882  0.0286
11816SOL    HW139904   9.501   4.159   3.598  0.1447 -1.7581 -1.4617
11816SOL    HW239905   9.633   4.095   3.638 -0.0257 -0.2099  1.9661
11817SOL     OW39906   5.984   1.917   9.193 -0.4993 -0.5234  0.0991
11817SOL    HW139907   5.990   1.854   9.121 -0.9330  1.3525 -1.6664
11817SOL    HW239908   5.952   1.866   9.267  2.2751 -3.0822 -0.2530
11818SOL     OW39909  10.404   4.735  10.108  0.7486  0.4263  0.1326
11818SOL    HW139910  10.372   4.698  10.190  1.6644 -1.0496 -0.1300
11818SOL    HW239911  10.414   4.659  10.050  0.4070  1.4012 -1.2521
11819SOL     OW39912   3.171   4.873   6.058  0.0844 -0.4064  0.3970
11819SOL    HW139913   3.142   4.888   6.148  2.0468  0.8301  0.9016
11819SOL    HW239914   3.217   4.789   6.061  4.7411  1.8223  1.9892
11820SOL     OW39915  10.801   5.697   6.381 -0.6261  0.1669  0.0236
11820SOL    HW139916  10.756   5.772   6.421  1.2517  1.7639 -0.7048
11820SOL    HW239917  10.798   5.715   6.287 -1.5124 -1.5192 -0.3070
11821SOL     OW39918   1.864   2.778   9.845  0.4636  0.0496  0.0400
11821SOL    HW139919   1.806   2.725   9.900 -0.6754 -0.3051 -1.4401
11821SOL    HW239920   1.818   2.786   9.761  2.1158  0.5944 -0.8750
11822SOL     OW39921   0.591   0.782   7.100 -0.0543  0.8133 -0.5714
11822SOL    HW139922   0.665   0.791   7.160  0.2541 -2.6115 -0.2020
11822SOL    HW239923   0.516   0.763   7.157 -0.4186  0.5694 -1.1162
11823SOL     OW39924   6.476   0.432   2.423  0.0827 -0.1643 -0.4413
11823SOL    HW139925   6.484   0.481   2.505 -0.1502 -1.0624  0.1336
11823SOL    HW239926   6.468   0.340   2.450  1.2277 -0.6153 -1.5213
11824SOL     OW39927   6.579   6.938   3.734  0.1453  0.4594 -0.0511
11824SOL    HW139928   6.507   6.978   3.783 -1.1364  0.0966 -1.5631
11824SOL    HW239929   6.614   6.872   3.794 -1.9465 -0.5876  0.1259
11825SOL     OW39930   0.481   4.593   4.076 -0.0308  0.1176 -0.1438
11825SOL    HW139931   0.553   4.606   4.137  0.1782 -3.0910  0.4558
11825SOL    HW239932   0.459   4.681   4.047  1.8571  1.5243  2.2375
11826SOL     OW39933   7.519   9.993   7.222  0.1156 -0.3519 -0.0481
11826SOL    HW139934   7.504  10.052   7.149 -0.0591  1.8705  1.6815
11826SOL    HW239935   7.614   9.986   7.229  0.1348 -0.3221 -0.2677
11827SOL     OW39936   1.226   4.011   9.816  0.2409 -0.3062  0.1503
11827SOL    HW139937   1.181   4.040   9.737 -0.6322 -0.2789  0.6341
11827SOL    HW239938   1.171   4.044   9.888  0.0492 -1.8454  0.7355
11828SOL     OW39939  10.117  10.938   3.405 -0.4643  0.3151  0.3671
11828SOL    HW139940  10.194  10.880   3.399 -0.7921 -0.0051 -1.8925
11828SOL    HW239941  10.042  10.879   3.398 -0.9461  0.6690  2.1486
11829SOL     OW39942   0.257   3.367  10.962 -0.0737  0.4773 -0.0237
11829SOL    HW139943   0.270   3.393  11.053  0.0475  0.6093 -0.0783
11829SOL    HW239944   0.162   3.374  10.949 -0.1434  0.0224  0.2222
11830SOL     OW39945   1.475   5.085   0.135  0.0102 -0.3583  0.3067
11830SOL    HW139946   1.498   5.088   0.228 -2.2042 -2.9268  1.0434
11830SOL    HW239947   1.495   4.996   0.108  2.0833  0.7549 -2.2010
11831SOL     OW39948   0.397   5.423   7.397  0.0003  0.1365 -0.4131
11831SOL    HW139949   0.451   5.440   7.320 -0.5662 -0.4275 -0.9537
11831SOL    HW239950   0.373   5.330   7.389  1.0304 -0.3093  1.1532
11832SOL     OW39951   4.115  11.034   9.183  0.7116 -0.1605  0.0315
11832SOL    HW139952   4.181  11.095   9.217  0.8880 -0.6440  0.5811
11832SOL    HW239953   4.068  11.005   9.261  1.3390 -1.5424 -0.0724
11833SOL     OW39954   3.135   1.840   5.422  0.6000 -0.3949  0.2558
11833SOL    HW139955   3.106   1.781   5.352  1.3027  1.3849 -1.6394
11833SOL    HW239956   3.055   1.860   5.471 -0.2016 -0.5526 -0.9340
11834SOL     OW39957   3.994   8.068   6.403 -0.3930 -0.3963  0.5296
11834SOL    HW139958   3.939   8.005   6.450 -0.3686 -0.2839  0.7118
11834SOL    HW239959   3.953   8.076   6.317  1.0009 -2.5452 -0.4195
11835SOL     OW39960   4.586   6.434   7.226 -0.3799  0.3311 -0.0591
11835SOL    HW139961   4.510   6.397   7.271  1.0726 -1.1036  1.3466
11835SOL    HW239962   4.550   6.500   7.167 -2.9259 -1.9448 -1.2054
11836SOL     OW39963   8.114   6.352   8.427 -0.1141  0.6450  0.3722
11836SOL    HW139964   8.113   6.384   8.517 -1.0945  1.5459  0.0658
11836SOL    HW239965   8.033   6.386   8.389 -0.7132 -1.3779 -0.2906
11837SOL     OW39966   4.311   0.865  10.745  0.1332 -0.1523 -0.1553
11837SOL    HW139967   4.275   0.869  10.833 -0.4685 -2.0300 -0.2584
11837SOL    HW239968   4.357   0.948  10.733 -2.0780  1.3219  0.8895
11838SOL     OW39969   1.214   0.961   6.478 -0.1491 -0.2820  0.2285
11838SOL    HW139970   1.201   0.988   6.387 -1.9812  1.6281  0.9492
11838SOL    HW239971   1.129   0.979   6.520  0.9313 -0.1743  2.5152
11839SOL     OW39972   9.320   7.321   0.831 -0.0459  0.0276  0.5739
11839SOL    HW139973   9.405   7.365   0.826  0.9486 -1.9068 -0.4936
11839SOL    HW239974   9.341   7.231   0.856 -1.6542 -0.8115 -0.8889
11840SOL     OW39975   8.923   1.685  10.346  0.5024  1.0544  0.3886
11840SOL    HW139976   8.889   1.602  10.379  0.5752  0.4312 -1.0331
11840SOL    HW239977   9.012   1.691  10.382  1.6586 -0.9915 -1.8494
11841SOL     OW39978   1.183   4.404  10.078  0.1284 -0.2767  0.2529
11841SOL    HW139979   1.206   4.441   9.993 -1.1817 -1.2352 -0.5652
11841SOL    HW239980   1.123   4.468  10.116  1.1117  0.3977  0.7071
11842SOL     OW39981   5.065   0.228   7.327  0.2699  0.3482 -0.5268
11842SOL    HW139982   5.060   0.266   7.240 -1.1251  0.5865 -0.3666
11842SOL    HW239983   4.982   0.253   7.369  0.3314 -0.9077  0.3900
11843SOL     OW39984   8.292   0.133   6.912  0.2936 -0.2819  0.2636
11843SOL    HW139985   8.199   0.147   6.928  0.4084  0.7571  0.1329
11843SOL    HW239986   8.335   0.167   6.990  0.5049 -2.5582  1.2110
11844SOL     OW39987   2.436   0.112   5.288 -0.0185  0.6198 -0.2115
11844SOL    HW139988   2.425   0.021   5.314 -0.3168  0.4417 -0.9471
11844SOL    HW239989   2.524   0.135   5.320  1.6627 -1.0718 -3.2161
11845SOL     OW39990  10.406   2.985   5.532 -0.1719 -0.1758  0.1264
11845SOL    HW139991  10.342   2.981   5.602  0.5701 -0.9647  0.7822
11845SOL    HW239992  10.430   2.894   5.516  1.0797  0.1291  0.1771
11846SOL     OW39993   8.326   2.536   1.655 -0.1671  0.1878 -0.5360
11846SOL    HW139994   8.373   2.466   1.610 -0.8813 -1.2747  0.8772
11846SOL    HW239995   8.281   2.584   1.586 -0.1406 -1.1261 -1.4958
11847SOL     OW39996   6.200   6.407   9.466 -0.1971 -0.1645  0.1315
11847SOL    HW139997   6.143   6.400   9.389  1.1198  0.1479 -0.9234
11847SOL    HW239998   6.237   6.319   9.477  0.0352 -0.0749  0.0689
11848SOL     OW39999   4.035   3.418   7.438  0.6036  0.3716 -0.5083
11848SOL    HW140000   4.101   3.393   7.373 -1.3724  0.0417 -2.5221
11848SOL    HW240001   3.991   3.336   7.459  0.3363  0.7015  0.2559
11849SOL     OW40002  10.138   1.033   7.385  0.0981 -0.5357 -0.2006
11849SOL    HW140003  10.188   0.952   7.397  0.6358 -0.1905 -0.0570
11849SOL    HW240004  10.155   1.084   7.464  0.0777 -0.1207 -0.4567
11850SOL     OW40005   2.666   4.563   8.215  0.1664 -0.0563  0.2664
11850SOL    HW140006   2.736   4.542   8.277 -1.2800  2.4689  3.0214
11850SOL    HW240007   2.589   4.517   8.249 -0.7357  1.6347  0.5958
11851SOL     OW40008   9.465   3.413   8.646 -0.3272  0.1634 -0.4640
11851SOL    HW140009   9.481   3.321   8.626 -2.5013 -0.8699  2.0178
11851SOL    HW240010   9.371   3.424   8.631  0.1609  2.5159 -2.3986
11852SOL     OW40011   8.330   0.622   0.967 -0.3000  0.2776  0.1294
11852SOL    HW140012   8.393   0.554   0.993 -1.5604 -1.0725 -0.1748
11852SOL    HW240013   8.348   0.636   0.874 -0.1069  0.2733  0.1651
11853SOL     OW40014   1.752   1.661   2.105  0.7089 -0.1336 -0.1692
11853SOL    HW140015   1.766   1.735   2.046  0.1073 -0.2108 -0.4209
11853SOL    HW240016   1.662   1.672   2.136  0.6721 -0.6622 -0.0746
11854SOL     OW40017   0.556   0.626   5.901  0.0015 -0.0612  0.0252
11854SOL    HW140018   0.571   0.572   5.824  0.9964  0.4399 -0.1562
11854SOL    HW240019   0.624   0.598   5.963  0.9842  1.4286 -0.3286
11855SOL     OW40020   9.571   8.492   0.539 -1.0113  0.5070  0.4246
11855SOL    HW140021   9.505   8.561   0.542 -1.3992  0.0856  1.7507
11855SOL    HW240022   9.555   8.439   0.616  0.4241 -0.0282  0.3856
11856SOL     OW40023   6.966   9.853   4.178 -0.1176 -0.1194  0.1408
11856SOL    HW140024   7.015   9.911   4.236 -0.8642  0.6638  0.0100
11856SOL    HW240025   6.888   9.903   4.153  0.3807 -0.2428 -1.8940
11857SOL     OW40026   8.711   1.472   6.881  0.6471  0.8641 -0.2700
11857SOL    HW140027   8.629   1.520   6.870 -0.9011 -0.5497  3.5383
11857SOL    HW240028   8.770   1.533   6.923 -0.7154  0.2498  2.8573
11858SOL     OW40029   0.167   1.593  10.111 -0.5620  0.1641  0.3379
11858SOL    HW140030   0.165   1.504  10.145 -1.3244  0.0768  0.0850
11858SOL    HW240031   0.098   1.639  10.161 -1.3911  0.1514 -0.7503
11859SOL     OW40032   3.359   8.730   2.112 -0.0989 -0.3344  0.1220
11859SOL    HW140033   3.449   8.706   2.089  1.0279  3.2967  0.0724
11859SOL    HW240034   3.366   8.767   2.200 -1.9922 -1.8413  0.9769
11860SOL     OW40035  10.780   3.017  10.163 -0.1765  0.7339 -0.4341
11860SOL    HW140036  10.792   3.105  10.128  3.5015  1.1341  1.3340
11860SOL    HW240037  10.826   2.960  10.101 -1.4294  0.1822 -0.8859
11861SOL     OW40038   6.729   5.726   4.935  0.3214 -0.1051 -0.3234
11861SOL    HW140039   6.736   5.739   4.841 -0.1897  1.0194 -0.2223
11861SOL    HW240040   6.804   5.774   4.972 -0.8852  1.6345 -0.0211
11862SOL     OW40041   2.691   7.822  10.430  0.5507  0.3334  0.3238
11862SOL    HW140042   2.634   7.830  10.353  0.9087 -0.3877 -0.0339
11862SOL    HW240043   2.643   7.865  10.500  0.5379  1.6506 -0.4612
11863SOL     OW40044   1.678   0.902   6.082 -0.5497 -0.0833  0.3921
11863SOL    HW140045   1.759   0.871   6.040 -0.8076  0.2223 -0.3464
11863SOL    HW240046   1.656   0.833   6.144 -1.3996 -1.6869 -1.5766
11864SOL     OW40047   7.965   5.230   7.132  0.9905  0.1365  0.2034
11864SOL    HW140048   8.009   5.215   7.049  0.4350 -0.8636  0.0817
11864SOL    HW240049   7.964   5.145   7.175 -0.3415  0.2419  0.4305
11865SOL     OW40050   1.027   5.582   3.553 -0.0811 -0.5938  0.2126
11865SOL    HW140051   1.018   5.594   3.459  0.2844 -1.2846  0.0768
11865SOL    HW240052   1.106   5.528   3.563  0.8507  0.8431  1.0181
11866SOL     OW40053   0.358   6.499   0.928 -0.0189  0.4978  0.6676
11866SOL    HW140054   0.368   6.480   0.835  1.3556  0.9251  0.7135
11866SOL    HW240055   0.345   6.594   0.932 -2.2231  0.2580  0.7922
11867SOL     OW40056   7.627   5.515   4.537 -0.3630 -0.1416  0.1832
11867SOL    HW140057   7.701   5.454   4.542 -0.0838 -0.0294 -1.9004
11867SOL    HW240058   7.556   5.462   4.500 -0.5500  0.4024 -0.2449
11868SOL     OW40059   3.398   5.875   4.472 -0.1564 -0.2808  0.2878
11868SOL    HW140060   3.431   5.817   4.541  2.1618 -0.1077 -0.5847
11868SOL    HW240061   3.346   5.818   4.416  0.0369 -0.9739  0.7960
11869SOL     OW40062   0.347   5.894   0.400  0.3610  0.0704 -0.2033
11869SOL    HW140063   0.440   5.917   0.410  0.6632 -1.1784  0.0044
11869SOL    HW240064   0.322   5.858   0.485  0.4589 -2.1670 -1.0635
11870SOL     OW40065   1.796   2.365  10.115 -0.6670  0.1021  0.1471
11870SOL    HW140066   1.839   2.328  10.192 -2.0458 -0.0189  0.8898
11870SOL    HW240067   1.704   2.342  10.125 -1.0937  1.2455 -0.8568
11871SOL     OW40068   7.024   5.616  10.962 -0.3175 -0.4128 -0.6079
11871SOL    HW140069   7.048   5.526  10.944  1.1619 -0.5146  1.5344
11871SOL    HW240070   7.064   5.636  11.047 -2.1418  1.6718 -0.1274
11872SOL     OW40071   6.730   9.934   9.504 -0.2917  0.0734 -0.4206
11872SOL    HW140072   6.706   9.845   9.530  1.2206 -0.6908 -1.4825
11872SOL    HW240073   6.823   9.941   9.527 -1.2664  2.9058  3.5720
11873SOL     OW40074   3.467   0.643   5.339 -0.0597  0.5976  0.0740
11873SOL    HW140075   3.383   0.685   5.326 -0.5027 -0.6274 -1.3876
11873SOL    HW240076   3.528   0.695   5.286 -0.6543 -0.6440 -1.9485
11874SOL     OW40077   8.550   6.453   0.716 -0.1033 -1.0886 -0.2536
11874SOL    HW140078   8.470   6.495   0.686 -0.0715  0.4402  1.6202
11874SOL    HW240079   8.524   6.364   0.740 -1.4408 -0.3646  1.1116
11875SOL     OW40080   5.426   8.219   8.950 -0.2873  0.0403 -0.2335
11875SOL    HW140081   5.471   8.278   8.890  2.8346 -0.7522  1.1315
11875SOL    HW240082   5.482   8.216   9.028 -2.4326 -1.5811  1.3871
11876SOL     OW40083   2.510   1.793   4.109  0.3225  0.3076 -0.0398
11876SOL    HW140084   2.581   1.746   4.064 -0.4419 -1.1843  0.2768
11876SOL    HW240085   2.437   1.790   4.047 -0.3571 -0.6924  0.7911
11877SOL     OW40086   3.043   0.348   6.715 -0.4922 -0.3817  0.1263
11877SOL    HW140087   3.106   0.330   6.645  1.7446 -0.9225  2.1452
11877SOL    HW240088   2.983   0.273   6.713  1.2268 -1.8348  0.5106
11878SOL     OW40089   7.175   6.186   4.799  0.3942 -0.6180  0.1741
11878SOL    HW140090   7.133   6.108   4.835  0.0393 -0.4031  0.2305
11878SOL    HW240091   7.182   6.168   4.705  0.5848 -0.8425  0.2308
11879SOL     OW40092   7.816   8.688   0.719 -0.0314  0.1751 -0.0700
11879SOL    HW140093   7.752   8.745   0.761 -0.2584  0.9058 -1.3436
11879SOL    HW240094   7.898   8.737   0.719  0.1796 -0.1710  0.2816
11880SOL     OW40095   4.516   7.434   3.954 -0.4250  0.2915  0.0715
11880SOL    HW140096   4.577   7.368   3.923 -1.0579 -0.4068  0.2913
11880SOL    HW240097   4.568   7.488   4.015  0.1276  0.0908 -0.2172
11881SOL     OW40098  10.635   5.234   4.658 -0.0224  0.6391 -0.6671
11881SOL    HW140099  10.696   5.307   4.646  0.4832  0.4675  0.7586
11881SOL    HW240100  10.550   5.276   4.670  0.1601  0.9739 -0.5155
11882SOL     OW40101   1.855   3.973   0.909  0.6637  0.1354  0.3262
11882SOL    HW140102   1.818   4.008   0.990  0.5609 -0.9199  0.7419
11882SOL    HW240103   1.940   4.017   0.900  0.5506  0.4645  0.8483
11883SOL     OW40104   2.337   4.634   4.719 -0.4562  0.4116  0.1208
11883SOL    HW140105   2.368   4.552   4.682 -2.2546 -0.0997 -0.3862
11883SOL    HW240106   2.379   4.702   4.667  0.8355 -0.1791  0.3677
11884SOL     OW40107   2.489   4.547   7.230  0.0612 -0.1844  0.6871
11884SOL    HW140108   2.442   4.504   7.301 -0.0415 -0.9723  0.1650
11884SOL    HW240109   2.562   4.489   7.211  1.1527  0.9316  1.3540
11885SOL     OW40110   5.041   3.295   7.566  0.5700 -0.4774  0.0713
11885SOL    HW140111   5.118   3.240   7.558 -0.7167 -2.5924  1.4075
11885SOL    HW240112   5.023   3.324   7.476  1.2785 -2.2732 -0.6950
11886SOL     OW40113   1.138   5.097   4.482  0.1346  0.0247 -0.3274
11886SOL    HW140114   1.086   5.176   4.495  1.4366  0.8057  0.2886
11886SOL    HW240115   1.213   5.107   4.541  1.1413 -0.9373 -1.3857
11887SOL     OW40116   8.957   1.040   6.887  0.1430  0.0771  0.4535
11887SOL    HW140117   8.889   0.980   6.858  0.0820 -0.5840  1.8937
11887SOL    HW240118   8.910   1.107   6.937  0.2286  1.2815 -1.0063
11888SOL     OW40119   9.144  10.000   0.283  0.0781  0.0927  0.2194
11888SOL    HW140120   9.159  10.030   0.193  0.9412  0.1360  0.3685
11888SOL    HW240121   9.049  10.009   0.296 -0.4509 -2.1453 -1.4738
11889SOL     OW40122   7.056   4.756   2.625 -0.3295 -0.1496 -0.4920
11889SOL    HW140123   7.002   4.723   2.697 -1.6960  3.3360  0.3007
11889SOL    HW240124   6.997   4.813   2.575  1.9570  2.0632 -0.9098
11890SOL     OW40125  10.945   0.901   3.123 -0.2499 -0.1285 -0.4207
11890SOL    HW140126  10.980   0.828   3.071 -0.0385  0.9852 -1.9260
11890SOL    HW240127  10.950   0.976   3.064  1.8118  1.6705  1.8683
11891SOL     OW40128   5.477   8.326   3.471 -0.7373 -0.0467 -0.3559
11891SOL    HW140129   5.533   8.373   3.409  0.4884 -0.8962  0.0812
11891SOL    HW240130   5.517   8.240   3.479 -1.8382 -0.5154  0.3574
11892SOL     OW40131   4.089  10.752   7.182 -0.0440 -0.0144 -0.1655
11892SOL    HW140132   4.175  10.771   7.219  0.1867 -3.1964  1.2292
11892SOL    HW240133   4.104  10.746   7.088  1.0045  0.5026 -0.0443
11893SOL     OW40134   0.113   4.331   2.254 -0.1432  0.9279  0.1743
11893SOL    HW140135   0.059   4.322   2.333 -0.3651 -0.2485 -0.0982
11893SOL    HW240136   0.079   4.264   2.194  0.0044  1.8228 -0.9354
11894SOL     OW40137  10.229   7.509   3.626  0.1053  0.1564 -0.3939
11894SOL    HW140138  10.147   7.470   3.655 -0.6628  1.0308 -1.3260
11894SOL    HW240139  10.204   7.569   3.556  1.3864  1.3949  0.1621
11895SOL     OW40140   9.410   1.229   3.293 -0.2837 -0.1151  0.2299
11895SOL    HW140141   9.415   1.134   3.280 -1.4336 -0.5415  2.4976
11895SOL    HW240142   9.320   1.252   3.270  0.4514  0.7909 -2.0220
11896SOL     OW40143   6.680   9.998   2.432 -0.2172 -0.2735  0.8551
11896SOL    HW140144   6.626   9.981   2.510 -0.5861  1.5191  1.0247
11896SOL    HW240145   6.617  10.002   2.360 -0.0672 -0.1728  0.7308
11897SOL     OW40146   5.278   4.719   3.169  0.0912  0.3590 -0.4253
11897SOL    HW140147   5.210   4.786   3.160 -0.2448  0.0543 -0.1649
11897SOL    HW240148   5.358   4.769   3.187 -0.3618  0.6458  0.8878
11898SOL     OW40149   1.453   0.692   2.796  0.5037  0.3334  0.4535
11898SOL    HW140150   1.385   0.628   2.774  0.4225  0.6121 -0.1176
11898SOL    HW240151   1.509   0.695   2.718  0.6704  0.7475  0.5871
11899SOL     OW40152   3.316   8.144   7.377 -0.3311 -0.6925  0.1273
11899SOL    HW140153   3.310   8.217   7.315 -0.1741 -1.0888 -0.3599
11899SOL    HW240154   3.365   8.180   7.451  1.0757 -0.7146 -0.7468
11900SOL     OW40155   5.162   2.663   8.987 -0.1664  0.4441 -0.3097
11900SOL    HW140156   5.074   2.687   8.955 -0.6801  1.4647  1.7024
11900SOL    HW240157   5.191   2.740   9.036 -0.0038 -1.3777  2.6982
11901SOL     OW40158   9.863   7.236   7.136 -0.2448 -0.0455  0.0088
11901SOL    HW140159   9.873   7.256   7.229  1.8639 -0.4962 -0.0718
11901SOL    HW240160   9.771   7.210   7.127 -0.0611 -1.7840  2.3311
11902SOL     OW40161  10.432  10.103   0.733  0.8912  0.0810  0.1651
11902SOL    HW140162  10.429  10.160   0.810  0.4894  2.3737 -1.4530
11902SOL    HW240163  10.345  10.063   0.730  1.4324 -1.3320  1.7612
11903SOL     OW40164   6.681   7.051   8.021 -0.4748 -0.1761 -0.6444
11903SOL    HW140165   6.758   7.050   8.078 -0.3676 -1.7382 -0.7886
11903SOL    HW240166   6.615   7.097   8.072  0.7502  1.9114 -0.8286
11904SOL     OW40167   4.451   4.402   1.376  0.9897 -0.0548 -0.0077
11904SOL    HW140168   4.440   4.308   1.393 -0.4896 -0.1765 -1.4289
11904SOL    HW240169   4.377   4.444   1.420  0.8511  0.2867 -0.5527
11905SOL     OW40170   2.046   1.566   9.033  0.1980  0.4374  0.0711
11905SOL    HW140171   2.080   1.514   8.961  0.4176  1.6877 -0.7561
11905SOL    HW240172   1.964   1.522   9.058 -0.1095  0.2343 -1.2364
11906SOL     OW40173   1.141   5.324   9.248 -0.4219  0.5580 -0.4440
11906SOL    HW140174   1.154   5.251   9.187 -0.5514  0.2937 -0.1587
11906SOL    HW240175   1.174   5.400   9.201  3.3601 -0.2028  0.6762
11907SOL     OW40176   4.425   4.321   3.211 -0.1986  0.2057 -0.3690
11907SOL    HW140177   4.379   4.255   3.160 -0.0245  0.1231 -0.4207
11907SOL    HW240178   4.398   4.405   3.172 -0.1228  0.1467 -0.5533
11908SOL     OW40179  10.553   5.546   6.414  0.0468  0.5435  0.1692
11908SOL    HW140180  10.570   5.453   6.398 -0.5761  0.6325 -1.1888
11908SOL    HW240181  10.640   5.587   6.415  0.2768  0.0779 -0.1981
11909SOL     OW40182   0.710   5.264  10.640 -0.0844  0.1970 -0.0029
11909SOL    HW140183   0.661   5.189  10.674 -1.2542  0.5369 -0.8578
11909SOL    HW240184   0.679   5.338  10.692  1.8578 -0.0180  1.5811
11910SOL     OW40185   7.116   3.379   7.210 -0.3002  0.3784  0.0799
11910SOL    HW140186   7.177   3.404   7.280 -0.8006 -0.5939  0.8836
11910SOL    HW240187   7.173   3.346   7.141  0.1864  1.0706  0.1350
11911SOL     OW40188  10.723   0.043   5.879  0.3648  0.1298  0.5294
11911SOL    HW140189  10.638   0.084   5.867 -0.6103 -1.7416  0.7204
11911SOL    HW240190  10.754   0.027   5.790  1.5518  2.7049  0.3939
11912SOL     OW40191   0.838   2.473   7.981  0.3046 -0.0695 -0.0995
11912SOL    HW140192   0.786   2.499   7.906  1.9253  1.2146 -0.8593
11912SOL    HW240193   0.822   2.542   8.046 -0.5509 -0.8039  0.4896
11913SOL     OW40194   7.128   0.703   3.872  0.7966  0.1925 -0.0638
11913SOL    HW140195   7.205   0.645   3.873  1.9875  1.6116 -1.8623
11913SOL    HW240196   7.152   0.776   3.929  0.8796  0.7267 -0.7712
11914SOL     OW40197   8.541   9.398   7.980  0.1527 -0.0940 -0.5189
11914SOL    HW140198   8.565   9.337   7.910 -0.2425  0.8951 -1.5506
11914SOL    HW240199   8.445   9.404   7.975 -0.0087 -0.9737  0.9580
11915SOL     OW40200   6.489   4.248   5.145 -0.3299 -0.8393  0.5249
11915SOL    HW140201   6.452   4.276   5.229  2.7286 -0.7924  1.9720
11915SOL    HW240202   6.534   4.166   5.163  2.4747  0.3545 -0.3677
11916SOL     OW40203   4.869   4.715   0.554 -0.6473  0.3223  0.3864
11916SOL    HW140204   4.867   4.622   0.577  0.5872  0.6046  1.8005
11916SOL    HW240205   4.839   4.760   0.633 -1.9101  1.1265 -0.5170
11917SOL     OW40206   0.789  10.317   3.678  0.7119 -0.0891  0.1335
11917SOL    HW140207   0.746  10.285   3.598  0.1283  0.6764  0.1254
11917SOL    HW240208   0.726  10.298   3.748  1.5664 -1.5057  0.5579
11918SOL     OW40209   7.833   8.205   0.133 -0.0127  0.0163  0.1658
11918SOL    HW140210   7.913   8.165   0.100  0.2258 -0.2731  1.0433
11918SOL    HW240211   7.773   8.206   0.059  0.2439 -1.2725 -0.0704
11919SOL     OW40212   5.191   8.521   5.142  0.0537  0.1441  0.7064
11919SOL    HW140213   5.265   8.561   5.188  0.7848 -0.7765  0.3733
11919SOL    HW240214   5.200   8.550   5.052 -1.7855  2.5263  1.1923
11920SOL     OW40215   0.680   1.516   7.420 -0.4971  0.2310  0.6562
11920SOL    HW140216   0.676   1.546   7.329 -0.8906 -1.5741  0.0336
11920SOL    HW240217   0.767   1.478   7.429 -0.8961 -0.7068  0.6429
11921SOL     OW40218   5.697   1.793   9.652  0.0973  0.0855 -0.0908
11921SOL    HW140219   5.755   1.766   9.723 -1.3262  0.0283  1.0903
11921SOL    HW240220   5.704   1.889   9.651 -0.2100  0.1128  0.4155
11922SOL     OW40221  10.886   3.413   8.261 -0.0442  0.0429 -0.3106
11922SOL    HW140222  10.900   3.454   8.347 -3.1523 -0.9487  0.7948
11922SOL    HW240223  10.793   3.427   8.242  0.6290  0.7562 -3.8823
11923SOL     OW40224   0.488   5.098  10.319 -0.1492  0.0042  0.1574
11923SOL    HW140225   0.551   5.124  10.252  0.1406 -1.0538 -0.0027
11923SOL    HW240226   0.540   5.045  10.380 -0.4693  0.7154  1.0697
11924SOL     OW40227   5.678   9.245  10.400  0.1411  0.3725  0.0523
11924SOL    HW140228   5.669   9.322  10.344 -0.1603  0.2044 -0.1362
11924SOL    HW240229   5.743   9.270  10.466 -2.8297  2.3779  2.5830
11925SOL     OW40230  10.869   3.935   0.403  0.6474  0.1496 -0.0067
11925SOL    HW140231  10.824   3.895   0.477  0.7394  2.7459  1.5671
11925SOL    HW240232  10.961   3.909   0.414  0.7715  1.0144  1.2088
11926SOL     OW40233   1.425   5.412   9.741  0.6133  0.1195  0.1939
11926SOL    HW140234   1.348   5.435   9.689  1.2578  0.1434 -0.7785
11926SOL    HW240235   1.482   5.366   9.680  2.5410  2.3845  0.1401
11927SOL     OW40236   8.242   2.870   3.797  0.6942  0.6254 -0.2463
11927SOL    HW140237   8.159   2.911   3.820 -0.1807 -1.4123  0.3891
11927SOL    HW240238   8.270   2.916   3.717 -0.3093  2.2746  0.3062
11928SOL     OW40239   4.339   5.089   2.285 -0.0872 -0.4396 -0.0541
11928SOL    HW140240   4.272   5.062   2.348  1.2198  1.2046  2.1970
11928SOL    HW240241   4.341   5.018   2.221 -0.8918 -2.7390  2.2498
11929SOL     OW40242   4.756   9.686   5.185  0.1866  0.3693 -0.0222
11929SOL    HW140243   4.736   9.738   5.107  0.6855 -1.0896 -1.1754
11929SOL    HW240244   4.671   9.650   5.211 -0.0734  1.3079  0.4650
11930SOL     OW40245   0.078   6.349   6.305 -0.0576  0.2149  0.5590
11930SOL    HW140246   0.130   6.286   6.255 -0.6471 -0.5265  0.8682
11930SOL    HW240247   0.140   6.386   6.368  0.3983  0.2810  0.0809
11931SOL     OW40248   2.607   9.315   5.127 -0.3284 -0.0815 -0.5674
11931SOL    HW140249   2.573   9.290   5.212  3.3397 -0.5375  0.9649
11931SOL    HW240250   2.667   9.388   5.146  0.7720 -0.3499 -2.6830
11932SOL     OW40251   1.547   9.758   3.959  0.1487 -0.1038 -0.2488
11932SOL    HW140252   1.498   9.750   3.877  0.2133  2.5344 -0.6139
11932SOL    HW240253   1.635   9.728   3.938 -0.1817 -0.7556 -0.7447
11933SOL     OW40254   0.297   5.324   8.418 -0.8340  0.6968  0.4690
11933SOL    HW140255   0.306   5.330   8.513  1.9727 -0.6660  0.3623
11933SOL    HW240256   0.376   5.365   8.383 -1.5561  0.6818 -1.2933
11934SOL     OW40257  10.323   1.115   2.115  0.1257 -0.1872  0.1531
11934SOL    HW140258  10.359   1.028   2.135 -0.3882 -0.7035 -1.0556
11934SOL    HW240259  10.254   1.098   2.050  0.8857  1.2549 -1.0935
11935SOL     OW40260   5.695  10.608   8.770 -0.8410  0.2694 -0.0389
11935SOL    HW140261   5.659  10.545   8.707 -0.2365  1.0479 -1.1951
11935SOL    HW240262   5.711  10.687   8.719  0.2544  0.7241  0.9613
11936SOL     OW40263   7.592   1.564   0.589 -0.3909  0.1410  0.0425
11936SOL    HW140264   7.552   1.651   0.585 -1.8322 -0.5063 -0.4414
11936SOL    HW240265   7.522   1.507   0.622  0.7891 -0.7074  1.1722
11937SOL     OW40266   7.788   7.509   6.249  0.2013 -0.6906 -0.1500
11937SOL    HW140267   7.694   7.492   6.249 -0.1995  1.0534  1.6719
11937SOL    HW240268   7.810   7.531   6.159 -2.1130  3.1657  0.0051
11938SOL     OW40269  10.232  10.770   4.989  0.1146 -0.2041 -0.3696
11938SOL    HW140270  10.316  10.726   4.981  0.7613  0.8944  0.1276
11938SOL    HW240271  10.239  10.821   5.070 -0.9102  0.1530 -0.4859
11939SOL     OW40272   3.270  10.812   0.894 -0.2394  0.0881 -0.3539
11939SOL    HW140273   3.253  10.905   0.910  0.6481 -0.1188  2.1077
11939SOL    HW240274   3.342  10.812   0.832 -0.5256  1.0245 -0.7162
11940SOL     OW40275   2.871   7.018   4.294  0.0427 -0.0202 -0.2631
11940SOL    HW140276   2.855   7.107   4.325 -1.9188 -0.9609  1.7577
11940SOL    HW240277   2.786   6.989   4.261  0.9763 -0.7223 -2.1979
11941SOL     OW40278   1.598  10.491   0.012  0.6026  0.1912 -0.0267
11941SOL    HW140279   1.629  10.403   0.036 -1.0661 -0.8208 -1.2763
11941SOL    HW240280   1.622  10.500  -0.080 -0.7826  0.2754 -0.4066
11942SOL     OW40281   6.004   3.839   3.963  0.6895 -0.4317  0.1499
11942SOL    HW140282   6.070   3.903   3.992 -0.6636 -0.4108  3.6535
11942SOL    HW240283   6.045   3.754   3.976  0.8015 -0.3842  0.1104
11943SOL     OW40284   1.838   6.705   8.415 -0.0532 -0.0999  0.1702
11943SOL    HW140285   1.773   6.774   8.400 -0.5946 -0.3340  1.3214
11943SOL    HW240286   1.847   6.700   8.510  1.0960 -0.6038  0.0608
11944SOL     OW40287   6.903   3.750   1.976 -0.5355 -0.0371 -0.1792
11944SOL    HW140288   6.904   3.751   1.881  0.1454  2.1261 -0.1870
11944SOL    HW240289   6.812   3.766   2.000 -0.4879  0.6525 -0.4667
11945SOL     OW40290   8.952  10.796   1.475 -0.6225 -0.2337 -0.0759
11945SOL    HW140291   8.901  10.805   1.394 -1.9204  2.0115  0.9161
11945SOL    HW240292   8.969  10.702   1.482 -1.7809 -0.6557 -2.1608
11946SOL     OW40293   7.852   7.792   1.215  0.0926 -0.1986  0.1038
11946SOL    HW140294   7.810   7.705   1.211  0.7049 -0.5224  0.5884
11946SOL    HW240295   7.924   7.785   1.153 -1.6174  0.9679 -2.1759
11947SOL     OW40296   5.092   3.503   5.782  0.0684 -0.3318  0.3204
11947SOL    HW140297   5.068   3.463   5.865  0.9379  1.0110  1.2673
11947SOL    HW240298   5.052   3.590   5.785 -1.0009 -0.7335 -1.2720
11948SOL     OW40299   4.782   9.486   4.088 -0.1098  0.0138  0.4367
11948SOL    HW140300   4.743   9.547   4.151 -0.4196 -1.0429  1.2901
11948SOL    HW240301   4.747   9.401   4.112 -0.8138 -0.3360 -1.6435
11949SOL     OW40302   3.304   8.136   3.713  0.0770 -0.1521  0.5593
11949SOL    HW140303   3.356   8.141   3.633 -0.5216 -1.1557  0.0832
11949SOL    HW240304   3.247   8.060   3.700 -2.2524  1.4842  0.6230
11950SOL     OW40305  10.897   5.718   9.481  0.6437 -0.3300 -0.3006
11950SOL    HW140306  10.837   5.724   9.408  1.3947 -2.3277 -1.1675
11950SOL    HW240307  10.863   5.779   9.546 -2.2848 -1.3256 -0.7621
11951SOL     OW40308   5.127   0.412   3.039 -0.1210  0.7409  0.4622
11951SOL    HW140309   5.130   0.352   3.113  0.8439  0.0868 -0.0904
11951SOL    HW240310   5.093   0.360   2.967  1.8364  0.4787 -0.3313
11952SOL     OW40311   5.704   5.809   1.464 -0.2388  0.1080 -0.3076
11952SOL    HW140312   5.716   5.739   1.528 -0.4076  0.1224 -0.2585
11952SOL    HW240313   5.671   5.883   1.515 -1.7857 -0.3280 -0.6179
11953SOL     OW40314   2.834   9.764   6.945 -0.3686  0.2483 -0.4005
11953SOL    HW140315   2.783   9.838   6.913  0.3446  0.1331 -1.8871
11953SOL    HW240316   2.827   9.698   6.876 -0.2273 -0.7180  0.4800
11954SOL     OW40317   8.257   3.303   7.125  0.3564 -0.8079 -0.8834
11954SOL    HW140318   8.315   3.377   7.108 -1.3030  1.2272  1.5145
11954SOL    HW240319   8.174   3.328   7.084 -0.7446 -0.3766  1.4286
11955SOL     OW40320   4.252   1.069   4.118 -0.0822  0.1255  0.8176
11955SOL    HW140321   4.296   1.046   4.036  0.3597 -0.7544  1.2885
11955SOL    HW240322   4.180   1.005   4.125 -0.9285  1.0081  0.4859
11956SOL     OW40323   3.435   5.573   5.996 -0.0435 -0.1999 -0.1183
11956SOL    HW140324   3.490   5.513   6.046  1.2119  0.7011 -0.3744
11956SOL    HW240325   3.466   5.660   6.021 -0.7819  0.3091 -0.9319
11957SOL     OW40326   0.743   4.312   4.394  0.0079  0.4502  0.2146
11957SOL    HW140327   0.765   4.377   4.328  1.0808  0.7737  0.8607
11957SOL    HW240328   0.809   4.243   4.382  1.4254  1.3810  2.1248
11958SOL     OW40329   4.420   9.105   5.668  0.1965  0.2565 -0.1780
11958SOL    HW140330   4.408   9.010   5.675  1.1916  0.2578  3.3881
11958SOL    HW240331   4.512   9.119   5.689  0.2693  1.9912 -1.4973
11959SOL     OW40332   2.847  10.321   2.736 -0.4312  0.1043  0.0846
11959SOL    HW140333   2.931  10.367   2.734  0.7080 -1.8707 -0.4605
11959SOL    HW240334   2.783  10.387   2.708  1.0146  1.5013 -0.0728
11960SOL     OW40335  10.247   6.271   5.327 -0.0742 -0.3393  0.1063
11960SOL    HW140336  10.303   6.197   5.302  1.0425  0.3245  0.5723
11960SOL    HW240337  10.292   6.311   5.401 -1.6058 -0.2707  1.0459
11961SOL     OW40338   5.347   2.205   6.595  0.1494  0.4943 -0.3281
11961SOL    HW140339   5.274   2.246   6.642  0.1906  1.0336 -0.7332
11961SOL    HW240340   5.320   2.113   6.585 -0.1323  0.5148  0.1952
11962SOL     OW40341   7.780   0.084   0.912 -0.0902 -0.3150 -0.0598
11962SOL    HW140342   7.845   0.025   0.950  0.8717  0.0351 -1.1294
11962SOL    HW240343   7.696   0.050   0.944  0.6129 -0.3961  1.8857
11963SOL     OW40344   7.095   9.404   0.152 -0.3369  0.1414  0.1779
11963SOL    HW140345   7.142   9.452   0.221 -0.0304  1.7121 -1.0663
11963SOL    HW240346   7.017   9.456   0.135 -0.9340 -0.7795  0.0400
11964SOL     OW40347   3.629   3.285   3.184 -0.9559  0.1144 -0.5732
11964SOL    HW140348   3.695   3.267   3.116  0.5001  0.8328  0.5827
11964SOL    HW240349   3.641   3.215   3.248 -2.1973 -0.4574 -0.9405
11965SOL     OW40350   2.937   4.794   4.125 -0.4104  0.3922 -0.0879
11965SOL    HW140351   2.926   4.700   4.114 -0.2909  0.2899  0.5828
11965SOL    HW240352   2.955   4.827   4.037 -2.6037  0.1078 -0.6855
11966SOL     OW40353   8.439   5.595   5.181  0.3611  0.5867 -0.0173
11966SOL    HW140354   8.368   5.562   5.238 -0.8954  1.5114 -0.9870
11966SOL    HW240355   8.518   5.584   5.234 -0.2931 -1.6656  0.6373
11967SOL     OW40356   4.055   8.608  11.042 -0.4950  0.5044 -0.5900
11967SOL    HW140357   4.080   8.518  11.022  0.2856  0.8995 -1.4731
11967SOL    HW240358   3.960   8.607  11.046 -0.5231 -0.2190 -1.2879
11968SOL     OW40359   3.258   9.163   6.479  0.2570 -0.9943 -0.3243
11968SOL    HW140360   3.324   9.151   6.410  0.5121  0.3562 -0.3482
11968SOL    HW240361   3.233   9.255   6.471 -1.1067 -1.3106  0.1647
11969SOL     OW40362   7.273   8.620   7.382  0.1749 -0.5331 -0.2432
11969SOL    HW140363   7.265   8.565   7.460 -1.6482  1.5496  1.1548
11969SOL    HW240364   7.286   8.708   7.416 -1.4266  0.5599 -2.2208
11970SOL     OW40365   4.979   5.224   3.519  0.0283 -0.4267  0.2212
11970SOL    HW140366   5.012   5.238   3.431 -0.5918 -0.5680 -0.0435
11970SOL    HW240367   5.000   5.304   3.566 -0.1482 -0.1203 -0.2149
11971SOL     OW40368   4.869   0.261   8.896  0.1800  0.3087 -0.7414
11971SOL    HW140369   4.961   0.237   8.883 -0.4716 -1.2859 -2.6959
11971SOL    HW240370   4.837   0.286   8.810 -0.9160  2.2410  0.1361
11972SOL     OW40371   2.305   1.975   0.436  0.1474 -0.0386  0.3998
11972SOL    HW140372   2.241   1.948   0.369  1.6159 -3.5526  0.2071
11972SOL    HW240373   2.272   1.936   0.517  1.4681 -1.0308  0.4846
11973SOL     OW40374   2.710   6.523   4.047 -0.2713 -0.0906  0.3895
11973SOL    HW140375   2.698   6.489   4.136 -1.8449 -0.1378  0.1811
11973SOL    HW240376   2.768   6.459   4.005  3.3235  1.5997  2.2771
11974SOL     OW40377   2.380   4.020   4.170 -0.3237 -0.2831 -0.5294
11974SOL    HW140378   2.332   4.002   4.089  0.0773  0.4141 -0.9289
11974SOL    HW240379   2.356   4.110   4.193  1.8101  0.5856 -1.4793
11975SOL     OW40380   9.205   5.056   0.587  0.0516 -0.5091 -0.3389
11975SOL    HW140381   9.251   4.990   0.640  0.9003  1.8736  2.1229
11975SOL    HW240382   9.274   5.098   0.536 -0.1229 -0.1019 -0.2448
11976SOL     OW40383   3.025   7.808  10.897  0.0571 -0.4062 -0.6765
11976SOL    HW140384   3.023   7.720  10.934 -3.8181 -0.3096 -0.2606
11976SOL    HW240385   2.955   7.807  10.831 -1.6637  2.8813  0.8775
11977SOL     OW40386   4.109   0.292   8.192 -0.3691  0.3321  0.6075
11977SOL    HW140387   4.123   0.385   8.170  1.5686  0.5333  2.3351
11977SOL    HW240388   4.149   0.282   8.278 -0.0535 -2.2566  0.2399
11978SOL     OW40389   2.647   3.999  10.913  0.2071  0.4098  0.2879
11978SOL    HW140390   2.717   4.035  10.967  0.4150  0.4191  0.0187
11978SOL    HW240391   2.594   4.074  10.887 -1.8835  0.0948  3.1845
11979SOL     OW40392   4.100   9.476   9.630 -0.0914  0.4699 -0.1366
11979SOL    HW140393   4.016   9.446   9.594 -0.4157  1.4156 -0.2034
11979SOL    HW240394   4.122   9.553   9.577  0.8841  0.1570 -0.1977
11980SOL     OW40395   7.259   0.757  10.270  0.5635 -0.3555  0.4491
11980SOL    HW140396   7.325   0.786  10.208  1.3568 -0.7816  1.0839
11980SOL    HW240397   7.307   0.708  10.337 -0.5666 -1.9995  0.1241
11981SOL     OW40398   7.220   8.720   5.102  0.7261 -0.1901  0.2872
11981SOL    HW140399   7.160   8.659   5.061  0.7584 -0.4385  0.6044
11981SOL    HW240400   7.299   8.716   5.048 -0.3113  1.8853 -1.5423
11982SOL     OW40401   7.051  10.293  10.452  0.2032  0.0756 -0.3955
11982SOL    HW140402   7.017  10.246  10.376 -2.4373 -1.5214  1.5768
11982SOL    HW240403   6.982  10.356  10.474  0.5532 -0.0187  1.0820
11983SOL     OW40404   1.239   0.355   7.986 -0.0111 -0.1949  0.0342
11983SOL    HW140405   1.312   0.293   7.984  1.5364  1.5293 -0.6469
11983SOL    HW240406   1.168   0.310   7.940  1.8242 -0.6283 -2.6198
11984SOL     OW40407  10.506   0.644   4.936  0.3249  0.3917  0.3703
11984SOL    HW140408  10.598   0.664   4.956  1.1402 -1.6551 -1.1043
11984SOL    HW240409  10.462   0.651   5.021  1.7844  1.5785  1.0886
11985SOL     OW40410   0.386   5.505   2.631 -0.5252 -0.6012  0.1845
11985SOL    HW140411   0.324   5.453   2.682  0.3373 -0.9204  0.9395
11985SOL    HW240412   0.403   5.453   2.553  2.6406 -3.0671  2.2746
11986SOL     OW40413   6.751   4.484   6.344 -0.4943 -0.4177  0.3167
11986SOL    HW140414   6.807   4.407   6.335  0.4725  0.4585 -2.0944
11986SOL    HW240415   6.807   4.551   6.383 -0.6930 -0.3408  0.4737
11987SOL     OW40416   2.745   6.669   1.433 -0.5020 -0.4372 -0.0019
11987SOL    HW140417   2.760   6.717   1.514 -2.1596  0.6459 -0.2937
11987SOL    HW240418   2.805   6.708   1.370  0.2023 -0.7239  0.4840
11988SOL     OW40419   7.871   1.893   3.806  0.1523  0.2594  0.1770
11988SOL    HW140420   7.824   1.855   3.731 -0.0007 -1.6336  1.1869
11988SOL    HW240421   7.956   1.918   3.770  0.3398 -1.2578 -0.5106
11989SOL     OW40422   0.502   1.050  10.362 -0.4341 -0.4025 -0.0235
11989SOL    HW140423   0.566   1.085  10.424 -0.3100  0.0361 -0.3971
11989SOL    HW240424   0.419   1.090  10.388 -0.3479 -0.0694 -0.2568
11990SOL     OW40425  10.972   0.128   0.796 -0.4465 -0.1145  0.4759
11990SOL    HW140426  10.998   0.157   0.883 -1.4474  0.0481  0.7291
11990SOL    HW240427  10.906   0.060   0.812 -1.8392  1.0407 -0.1428
11991SOL     OW40428   5.281  10.704   6.118 -0.4705  0.3524 -0.4351
11991SOL    HW140429   5.325  10.652   6.051 -0.8972 -1.7629  0.8282
11991SOL    HW240430   5.327  10.684   6.199 -1.6077  0.7596  0.3481
11992SOL     OW40431  10.875   4.667   6.742  0.5266 -0.3332 -0.1739
11992SOL    HW140432  10.905   4.724   6.672 -1.5973  1.1405  0.0403
11992SOL    HW240433  10.893   4.715   6.823 -2.7352  0.9348 -0.0541
11993SOL     OW40434   7.078   1.238   3.257  0.2286 -0.6413 -0.1634
11993SOL    HW140435   6.987   1.259   3.236 -0.0193 -0.2096  1.2720
11993SOL    HW240436   7.126   1.318   3.238  0.1841 -0.6085 -0.1368
11994SOL     OW40437  10.150   2.056  11.049 -0.3239  0.0291  0.4271
11994SOL    HW140438  10.205   1.979  11.045  0.2360  0.4445 -2.5505
11994SOL    HW240439  10.098   2.046  11.128  0.3070 -2.9803  0.5411
11995SOL     OW40440   4.813   0.759  10.154 -0.0992 -0.0074  0.6413
11995SOL    HW140441   4.737   0.793  10.107  0.2698  1.2768  0.9089
11995SOL    HW240442   4.879   0.745  10.086  0.1672  1.0788  0.6541
11996SOL     OW40443   8.922   8.516   9.170  0.2228 -0.4053 -0.0316
11996SOL    HW140444   8.953   8.485   9.255  1.2421 -1.0998 -0.6363
11996SOL    HW240445   8.829   8.492   9.168 -0.5998  2.1285  2.0107
11997SOL     OW40446   5.605   5.046   1.943 -0.3723 -0.4825  0.0448
11997SOL    HW140447   5.523   5.096   1.951 -0.3251 -0.6925  2.4373
11997SOL    HW240448   5.578   4.954   1.943 -0.2063 -0.5351 -0.4694
11998SOL     OW40449   9.334   5.786   5.822  0.0639  0.3366  0.5898
11998SOL    HW140450   9.340   5.754   5.731  1.3551  1.9030  0.0823
11998SOL    HW240451   9.425   5.801   5.848 -0.4094  2.3624  1.2232
11999SOL     OW40452   5.426   2.345   9.403  0.3044 -0.5465  0.7042
11999SOL    HW140453   5.371   2.408   9.450 -1.0929 -1.3301  0.1945
11999SOL    HW240454   5.438   2.273   9.464 -0.1063 -0.8247  0.4634
12000SOL     OW40455   2.584   2.562   2.396  0.0293  0.1568  0.1911
12000SOL    HW140456   2.652   2.561   2.464  0.4891  0.0992 -0.2696
12000SOL    HW240457   2.505   2.535   2.442  0.8874 -2.7530  0.1274
12001SOL     OW40458   7.105   8.621   3.956  0.2504  0.3289  0.4172
12001SOL    HW140459   7.021   8.648   3.993 -0.3096 -0.3556 -0.3218
12001SOL    HW240460   7.169   8.640   4.025 -0.4729  1.0492  0.9105
12002SOL     OW40461   4.902   3.436   8.979 -0.2308 -0.0921 -0.3083
12002SOL    HW140462   4.890   3.438   9.074 -1.2038 -0.6510 -0.4038
12002SOL    HW240463   4.997   3.426   8.967 -0.1636 -0.7769  0.6202
12003SOL     OW40464   8.940   9.873   1.673 -0.1197  0.8339 -0.0285
12003SOL    HW140465   9.036   9.873   1.672 -0.0915  2.3875 -2.0126
12003SOL    HW240466   8.916   9.794   1.625  0.2408  1.8708 -2.0005
12004SOL     OW40467   0.247   6.214   7.247  0.5571  0.4527  0.3704
12004SOL    HW140468   0.307   6.260   7.306  0.5487  0.1573  0.6122
12004SOL    HW240469   0.226   6.278   7.180  1.8122  0.3057 -0.1988
12005SOL     OW40470   3.860   8.522   5.208  0.1412  0.1019  0.5836
12005SOL    HW140471   3.914   8.450   5.174 -1.1453 -0.5334 -0.1756
12005SOL    HW240472   3.923   8.587   5.239  1.3371 -1.0686  0.6781
12006SOL     OW40473   7.971   9.341   3.412  0.7804  0.2941  0.3005
12006SOL    HW140474   7.947   9.381   3.329 -2.6505 -1.7303  0.1164
12006SOL    HW240475   8.067   9.339   3.411  1.0787  4.4967 -1.4147
12007SOL     OW40476   1.418   6.869   7.540  0.9755 -0.4231  0.0354
12007SOL    HW140477   1.342   6.926   7.552  1.0894 -0.4481  0.9239
12007SOL    HW240478   1.381   6.781   7.529  0.8485 -0.3399 -0.1984
12008SOL     OW40479   5.666   1.161   2.020 -0.1703  1.0001  0.7861
12008SOL    HW140480   5.601   1.130   2.083 -0.3219 -0.3957 -0.0354
12008SOL    HW240481   5.750   1.130   2.055 -0.1081  1.3799  0.9827
12009SOL     OW40482   7.495   5.145   0.627 -0.4776 -0.3625 -0.5384
12009SOL    HW140483   7.466   5.162   0.716 -1.9277 -2.4064 -0.5408
12009SOL    HW240484   7.430   5.188   0.571  0.7862  1.4750 -0.6817
12010SOL     OW40485   2.005   7.831  10.070  0.2305  0.4143  1.1373
12010SOL    HW140486   2.005   7.736  10.067  0.4870  0.4278  0.6042
12010SOL    HW240487   1.960   7.853  10.151 -1.3537 -0.1364  0.4447
12011SOL     OW40488   3.345   6.706   7.929 -0.2293 -0.4624 -0.2677
12011SOL    HW140489   3.260   6.750   7.940 -0.0817 -0.2818  0.2019
12011SOL    HW240490   3.328   6.615   7.951  0.3977  0.1454  3.4737
12012SOL     OW40491   5.836   2.563   9.982  0.0314 -0.1939 -0.0615
12012SOL    HW140492   5.906   2.603  10.033 -1.3175 -0.4862  2.1171
12012SOL    HW240493   5.846   2.469   9.996 -0.2045 -0.2934 -0.5461
12013SOL     OW40494   2.477   6.798   0.982 -0.5359 -0.3857 -0.3336
12013SOL    HW140495   2.567   6.779   1.010 -0.9660  0.2444  1.7170
12013SOL    HW240496   2.436   6.836   1.060 -2.1804  0.6943 -1.6441
12014SOL     OW40497   9.129   9.069   6.176 -0.2354  0.2992  0.0417
12014SOL    HW140498   9.194   9.134   6.149 -1.5865  0.7644 -2.4166
12014SOL    HW240499   9.045   9.107   6.149 -1.1147 -2.3064 -1.1561
12015SOL     OW40500   9.420   3.125   0.414 -0.1490  0.2027  0.5031
12015SOL    HW140501   9.516   3.122   0.409 -0.2012 -2.2768 -3.1662
12015SOL    HW240502   9.396   3.039   0.449 -0.9567 -0.4133 -1.3980
12016SOL     OW40503   0.247   6.792   0.671 -0.3895  0.0271  0.0972
12016SOL    HW140504   0.165   6.742   0.667 -2.0051  2.4096  1.3816
12016SOL    HW240505   0.243   6.852   0.597 -1.9444  3.0566  2.4369
12017SOL     OW40506   5.899   4.543   5.475  0.1407  1.0180  0.4417
12017SOL    HW140507   5.859   4.591   5.403  0.7221  2.0842  0.8012
12017SOL    HW240508   5.825   4.506   5.523 -0.1975 -1.2934 -1.7015
12018SOL     OW40509   7.944   9.268  10.899  0.1215 -0.1078 -0.3829
12018SOL    HW140510   7.923   9.181  10.935 -1.7323 -0.6149 -2.3904
12018SOL    HW240511   7.973   9.249  10.809  2.2166  1.2197 -0.0238
12019SOL     OW40512   7.743   5.397   0.104 -0.7641 -0.5713  0.3960
12019SOL    HW140513   7.832   5.399   0.139 -0.6922 -1.6424  0.2927
12019SOL    HW240514   7.728   5.306   0.079 -0.9324  0.0655 -2.0985
12020SOL     OW40515   4.631   9.049   2.413  0.1734 -0.2364  0.1904
12020SOL    HW140516   4.618   9.052   2.508 -1.6321  0.1333 -0.0301
12020SOL    HW240517   4.568   8.984   2.383  0.8567 -0.4761 -0.7419
12021SOL     OW40518   4.301   9.343   0.521  0.4166  0.4156  0.0107
12021SOL    HW140519   4.255   9.270   0.561  1.2157 -0.4194 -0.5667
12021SOL    HW240520   4.315   9.316   0.430 -0.1530  1.6972 -0.4821
12022SOL     OW40521   7.844   4.348   6.291  0.5588  0.7473  0.0387
12022SOL    HW140522   7.881   4.315   6.374  1.8193  1.3111 -0.2751
12022SOL    HW240523   7.919   4.354   6.232 -0.5330 -1.1341 -1.6839
12023SOL     OW40524   7.123   6.283   9.104 -0.1190 -0.5657  0.3503
12023SOL    HW140525   7.209   6.274   9.144 -0.1111  0.3485  0.5673
12023SOL    HW240526   7.118   6.211   9.041  0.9527 -0.4125  0.0742
12024SOL     OW40527   2.605   6.123   6.798 -0.2994  0.0315 -0.6173
12024SOL    HW140528   2.696   6.118   6.826  0.1175  1.2683 -1.6398
12024SOL    HW240529   2.602   6.074   6.716 -0.4426  0.3739 -0.8208
12025SOL     OW40530   2.012  10.357   2.250 -0.7080 -0.6849 -0.2960
12025SOL    HW140531   2.019  10.271   2.209 -1.2654 -0.4253 -0.9504
12025SOL    HW240532   2.102  10.380   2.272 -0.8088 -2.9150  3.0838
12026SOL     OW40533   0.942   2.080   3.454  0.1627  0.5764 -0.7463
12026SOL    HW140534   0.964   1.989   3.475  0.5880  0.7672 -0.3660
12026SOL    HW240535   0.877   2.104   3.521  0.2496  0.6392 -0.6850
12027SOL     OW40536   6.019   1.154   0.010  0.7179 -0.1598  0.1740
12027SOL    HW140537   5.933   1.146  -0.031  0.7531  1.9849 -0.4403
12027SOL    HW240538   6.020   1.086   0.078 -1.4606 -0.1972  0.2298
12028SOL     OW40539   3.204  10.764   5.926  0.1171 -0.2539  0.6828
12028SOL    HW140540   3.263  10.769   6.001  0.0951  1.9729  0.6285
12028SOL    HW240541   3.250  10.810   5.856 -0.9946  0.1293  0.1755
12029SOL     OW40542   7.796   9.103   4.056  0.5285 -0.7206  0.2740
12029SOL    HW140543   7.806   9.186   4.104  0.1986  0.8014 -2.1503
12029SOL    HW240544   7.702   9.094   4.044  0.4266 -2.3495  1.8963
12030SOL     OW40545  10.457   0.313   3.906  0.2783  0.1485 -0.1628
12030SOL    HW140546  10.537   0.345   3.862  0.5443 -1.4781 -0.9562
12030SOL    HW240547  10.393   0.383   3.893  0.9976  0.6333 -1.3116
12031SOL     OW40548   1.728   4.184   7.899  0.8269  0.4361 -0.3240
12031SOL    HW140549   1.694   4.113   7.953  1.2240  0.5709  0.1120
12031SOL    HW240550   1.656   4.247   7.895 -0.1616 -0.7430 -2.1518
12032SOL     OW40551   9.103   8.833   7.745  0.4644 -0.3158 -0.3026
12032SOL    HW140552   9.183   8.782   7.753  0.5678 -0.3748 -1.6022
12032SOL    HW240553   9.059   8.798   7.668 -1.2697 -0.8802  0.9008
12033SOL     OW40554   7.005   4.149  11.034 -0.1816 -0.2030  0.2829
12033SOL    HW140555   6.919   4.184  11.057  0.1030  0.8450 -0.1621
12033SOL    HW240556   7.031   4.199  10.957 -0.6059 -2.7743 -1.6828
12034SOL     OW40557   9.774   3.925   8.216 -0.5310 -0.0687  0.0338
12034SOL    HW140558   9.853   3.887   8.179 -1.6778 -2.0003 -0.5706
12034SOL    HW240559   9.793   3.935   8.309  0.9316  0.9462 -0.3462
12035SOL     OW40560  10.112   2.645   1.841  0.9380  0.3945  0.1687
12035SOL    HW140561  10.122   2.551   1.825 -0.4546  0.2737 -0.0792
12035SOL    HW240562  10.019   2.656   1.861  1.4872  1.3515  2.6551
12036SOL     OW40563   3.935  11.021   5.867 -0.4602  0.1844  0.2896
12036SOL    HW140564   3.854  10.986   5.904 -0.5447  0.4002  0.3063
12036SOL    HW240565   3.913  11.046   5.778 -0.4997  0.5574  0.4011
12037SOL     OW40566   2.091   6.903   4.271  0.2720  0.1322  0.0307
12037SOL    HW140567   2.142   6.853   4.208  1.1169  2.4981 -1.3006
12037SOL    HW240568   2.116   6.867   4.357  3.0550  0.1866 -0.6597
12038SOL     OW40569   4.497   3.817   1.849 -0.2006 -0.3169  0.5162
12038SOL    HW140570   4.424   3.868   1.814 -1.4422 -2.5461 -0.3495
12038SOL    HW240571   4.570   3.837   1.791 -1.3351 -1.3476 -1.3932
12039SOL     OW40572   9.789   7.517   0.691 -0.1115 -0.3727 -0.3488
12039SOL    HW140573   9.855   7.452   0.715  0.9225  0.9059  0.3430
12039SOL    HW240574   9.838   7.597   0.677 -1.4179  0.3678 -0.7995
12040SOL     OW40575   0.307   0.065   0.113  0.1445 -0.1669  0.0696
12040SOL    HW140576   0.275   0.102   0.030  0.6929 -0.5289 -0.3066
12040SOL    HW240577   0.263  -0.019   0.120 -0.0538 -0.0505  0.2509
12041SOL     OW40578   3.527   1.090   3.307 -0.5510 -0.2811  0.0869
12041SOL    HW140579   3.465   1.043   3.363 -0.2000  2.0134  2.6554
12041SOL    HW240580   3.473   1.155   3.262 -0.6249 -1.2609 -1.2934
12042SOL     OW40581   9.195   4.589   2.207  0.5903 -0.2705 -0.2069
12042SOL    HW140582   9.251   4.521   2.244  0.2644 -1.1976 -1.3488
12042SOL    HW240583   9.195   4.571   2.113 -0.8792  0.2644 -0.3305
12043SOL     OW40584   1.102   2.760   6.135 -0.1861  0.1498  0.5193
12043SOL    HW140585   1.142   2.701   6.072 -2.0188  2.3961 -3.0425
12043SOL    HW240586   1.037   2.707   6.181 -0.2636 -1.1211 -0.9979
12044SOL     OW40587   4.645   7.580   2.972  0.7681  0.5439  0.3374
12044SOL    HW140588   4.609   7.560   3.058  1.9551  1.7134  1.1308
12044SOL    HW240589   4.739   7.588   2.986  0.9666  0.9080 -1.0403
12045SOL     OW40590   6.453   6.999   4.306  0.0612  0.0452  0.0403
12045SOL    HW140591   6.389   6.963   4.367 -0.8553  1.5849  0.0711
12045SOL    HW240592   6.477   6.926   4.250  0.5596 -1.2863  1.9171
12046SOL     OW40593   6.593   3.643   6.693 -0.4202  0.2998 -0.3922
12046SOL    HW140594   6.547   3.702   6.752 -0.3100 -0.3457  0.3567
12046SOL    HW240595   6.556   3.557   6.711 -1.0472  0.2171 -1.9440
12047SOL     OW40596   3.985   7.385   4.419 -0.4398  0.3025  0.3609
12047SOL    HW140597   3.974   7.365   4.327 -0.5951  2.9314 -0.2817
12047SOL    HW240598   3.897   7.380   4.456 -0.3199 -1.1631  0.5099
12048SOL     OW40599   8.221   5.516   4.712 -0.3697  0.1939 -0.4414
12048SOL    HW140600   8.238   5.600   4.755  0.7769  0.3319 -1.1103
12048SOL    HW240601   8.161   5.537   4.641 -0.1689  0.4407 -0.5413
12049SOL     OW40602   7.802   2.257   3.884  0.7049  0.1042 -0.0424
12049SOL    HW140603   7.753   2.334   3.855 -0.5867 -0.4132  0.6533
12049SOL    HW240604   7.882   2.258   3.832 -0.5028  0.4484 -1.9859
12050SOL     OW40605   2.434  10.552   1.523  0.0280 -0.0329 -0.0735
12050SOL    HW140606   2.352  10.533   1.569  1.0589  0.3263  2.0261
12050SOL    HW240607   2.440  10.648   1.524 -0.2991  0.0362 -1.7303
12051SOL     OW40608   3.248   7.553   7.704 -0.3500 -0.1527  0.1469
12051SOL    HW140609   3.230   7.496   7.779 -0.6615 -1.0672 -0.6067
12051SOL    HW240610   3.337   7.530   7.678 -0.3466 -0.0419  0.0610
12052SOL     OW40611   9.469   8.757   2.204 -0.6564 -0.3844 -0.0503
12052SOL    HW140612   9.417   8.808   2.266 -0.7751 -0.4966 -0.0580
12052SOL    HW240613   9.411   8.687   2.174  0.0695 -1.6193  1.3171
12053SOL     OW40614   9.608   8.481  10.219 -0.9438 -0.1528 -0.0206
12053SOL    HW140615   9.572   8.395  10.194 -0.0053  0.0197 -2.1629
12053SOL    HW240616   9.556   8.507  10.296 -0.5606 -3.0868  1.3751
12054SOL     OW40617   8.026   5.486   5.384 -0.2976 -0.0230  0.0786
12054SOL    HW140618   7.997   5.569   5.422 -2.5489 -1.1843  1.0249
12054SOL    HW240619   7.953   5.459   5.328 -0.6068 -2.4575  1.5524
12055SOL     OW40620   9.403   8.688   0.933 -0.2913 -0.5422  0.1323
12055SOL    HW140621   9.443   8.726   1.012  0.8013 -2.3740  0.5134
12055SOL    HW240622   9.477   8.661   0.879 -1.0318  0.3713 -1.4117
12056SOL     OW40623   1.994   5.644  10.022 -0.3522  0.3733 -0.2491
12056SOL    HW140624   1.933   5.624  10.092 -0.3609  1.1497 -0.0296
12056SOL    HW240625   1.986   5.738  10.009  0.6452  0.4547 -0.3494
12057SOL     OW40626   9.191   9.952  10.606 -0.3148 -0.4554  0.3076
12057SOL    HW140627   9.132   9.877  10.595 -0.7798 -0.4728  2.4857
12057SOL    HW240628   9.279   9.914  10.598 -0.5491 -0.9830  0.1198
12058SOL     OW40629   2.642   7.782   9.665  0.4031  0.1163 -0.4370
12058SOL    HW140630   2.571   7.840   9.640  0.8236  1.3397  1.0658
12058SOL    HW240631   2.693   7.770   9.585 -0.0156  1.3719 -0.9146
12059SOL     OW40632   1.762   0.245   7.163  0.2918 -0.2774 -0.4773
12059SOL    HW140633   1.827   0.243   7.233 -0.2950 -0.7536  0.0690
12059SOL    HW240634   1.714   0.162   7.172 -0.8713  0.3826 -0.3961
12060SOL     OW40635   0.753   5.677   3.940  0.1224 -0.6614  0.4219
12060SOL    HW140636   0.826   5.652   3.997  0.7127 -1.4221 -0.6398
12060SOL    HW240637   0.795   5.718   3.865 -0.6263 -0.0217  0.3369
12061SOL     OW40638   5.994   6.558   8.678 -0.3149 -0.1629  0.2326
12061SOL    HW140639   5.992   6.616   8.754  1.4352  0.3841 -0.0979
12061SOL    HW240640   6.087   6.540   8.664 -0.5777 -0.1547 -1.8344
12062SOL     OW40641   2.763  10.624   2.987  0.3233  1.0321 -0.1775
12062SOL    HW140642   2.763  10.585   3.074 -0.8933  1.7044  0.1501
12062SOL    HW240643   2.794  10.714   3.001  2.5177  0.4239 -0.8292
12063SOL     OW40644   6.508   7.498  10.775 -0.2394  0.1424 -0.1062
12063SOL    HW140645   6.530   7.531  10.862  0.3637 -1.8573  0.5664
12063SOL    HW240646   6.427   7.544  10.751 -0.8468  0.1776  1.8635
12064SOL     OW40647  10.899   7.357   4.235  0.2442  0.3105  0.4391
12064SOL    HW140648  10.825   7.402   4.274  0.1169  1.2612 -0.8544
12064SOL    HW240649  10.905   7.391   4.146  1.3861 -0.7628  0.0632
12065SOL     OW40650   6.911   8.866   3.374  0.2790 -0.0202  0.0619
12065SOL    HW140651   6.928   8.900   3.462  0.8029 -0.1189 -0.0009
12065SOL    HW240652   6.815   8.865   3.367  0.2443  1.8347 -0.0901
12066SOL     OW40653   2.737   9.464   3.580  0.0191 -0.4332  0.0938
12066SOL    HW140654   2.832   9.465   3.566  0.0549 -1.6213  0.1078
12066SOL    HW240655   2.723   9.392   3.641 -0.9323 -0.5723 -0.2729
12067SOL     OW40656   4.233   4.568   4.889 -0.1002 -0.1226  0.3616
12067SOL    HW140657   4.171   4.618   4.836 -0.9135 -1.4289  0.0329
12067SOL    HW240658   4.207   4.477   4.876  1.3552 -0.6394  0.9215
12068SOL     OW40659   4.492   8.087   9.799  0.0694 -0.4999  0.1079
12068SOL    HW140660   4.502   8.043   9.714  1.5303 -1.7779  0.8922
12068SOL    HW240661   4.458   8.019   9.857 -0.8893  0.3559  0.5873
12069SOL     OW40662   7.292   3.093   3.973  0.2345 -0.1578  0.0805
12069SOL    HW140663   7.200   3.070   3.960  0.4951 -0.8842 -0.5604
12069SOL    HW240664   7.292   3.154   4.046 -0.7504 -0.2152  0.1335
12070SOL     OW40665   3.993  10.409   9.109  0.9583 -0.1814 -0.1220
12070SOL    HW140666   3.998  10.423   9.204 -2.3399  2.1176 -0.0909
12070SOL    HW240667   4.013  10.494   9.071  2.2748 -1.0773 -1.5522
12071SOL     OW40668   3.717   7.070   0.506  0.3468 -0.1131 -0.0995
12071SOL    HW140669   3.752   7.004   0.565 -1.3417 -0.4016  0.6564
12071SOL    HW240670   3.645   7.026   0.461  1.8078 -0.0128 -2.7178
12072SOL     OW40671   7.309   1.435   7.647 -0.0910 -0.2923  0.3076
12072SOL    HW140672   7.277   1.476   7.567 -0.8830 -1.2749  0.0956
12072SOL    HW240673   7.238   1.376   7.674 -0.4129  0.9518  2.4608
12073SOL     OW40674  10.694   8.799  10.604 -0.9273 -0.1385 -0.1459
12073SOL    HW140675  10.707   8.894  10.613 -2.4099 -0.0584  1.7821
12073SOL    HW240676  10.686   8.767  10.694  1.6915 -2.4917 -0.6248
12074SOL     OW40677   7.129   9.813   3.955 -0.5166  0.3967 -0.0374
12074SOL    HW140678   7.191   9.885   3.942  0.1064  0.0208  0.7752
12074SOL    HW240679   7.076   9.841   4.030  1.8271 -1.3256  2.4247
12075SOL     OW40680  10.661   2.766  10.771  0.6584 -0.1906 -0.3076
12075SOL    HW140681  10.648   2.853  10.809 -0.3628  0.0575 -1.1559
12075SOL    HW240682  10.576   2.724  10.780  0.6359 -0.4395 -1.4795
12076SOL     OW40683  10.641   6.588  10.546 -0.3961 -0.9067 -0.0751
12076SOL    HW140684  10.717   6.532  10.531  0.1097 -0.2813  0.0992
12076SOL    HW240685  10.620   6.625  10.460  1.5130  1.4279  0.3597
12077SOL     OW40686   6.639   3.109   7.067 -0.5337 -0.2383  0.3155
12077SOL    HW140687   6.725   3.078   7.040  0.1055 -0.0486  1.9935
12077SOL    HW240688   6.590   3.030   7.086  0.4049 -0.3435  2.5612
12078SOL     OW40689   7.452   5.619   3.207 -0.3926 -0.4588 -0.5311
12078SOL    HW140690   7.377   5.643   3.262  0.2487 -0.8626  0.5513
12078SOL    HW240691   7.485   5.538   3.246  2.3001  1.1356  0.7224
12079SOL     OW40692   7.330   4.791   9.649 -0.5081  0.2247  0.3953
12079SOL    HW140693   7.274   4.845   9.705  0.3909 -0.0650  1.6173
12079SOL    HW240694   7.297   4.806   9.561 -3.9635 -1.5720  1.2001
12080SOL     OW40695   2.977   5.229   0.698 -0.0284 -0.3622  0.5022
12080SOL    HW140696   2.916   5.157   0.711 -1.4426  0.4708 -1.0609
12080SOL    HW240697   2.996   5.262   0.786 -1.7337 -0.7562  1.0408
12081SOL     OW40698   2.703   3.554  10.343  0.5554 -0.4207 -0.1940
12081SOL    HW140699   2.763   3.509  10.402  1.1905 -0.6507 -0.9976
12081SOL    HW240700   2.719   3.647  10.357  1.2148 -0.4831 -0.5093
12082SOL     OW40701   4.887   4.739   2.459  0.5016 -0.6472 -0.5024
12082SOL    HW140702   4.943   4.666   2.485 -0.4070 -1.0450  0.4127
12082SOL    HW240703   4.889   4.798   2.534 -0.6362 -0.8842 -0.2685
12083SOL     OW40704   4.617   7.126   3.523 -0.2020  0.4500 -0.2412
12083SOL    HW140705   4.656   7.060   3.464  0.5800  2.0273 -1.5714
12083SOL    HW240706   4.691   7.160   3.573 -0.3313  1.4282 -0.7027
12084SOL     OW40707   9.166   5.586   0.444  0.0204 -0.2687  0.1455
12084SOL    HW140708   9.147   5.589   0.538  0.6852  0.1807  0.2708
12084SOL    HW240709   9.137   5.671   0.411  1.4767  0.3244  0.2917
12085SOL     OW40710   5.349   5.406   4.777 -0.0690  0.0739 -0.6058
12085SOL    HW140711   5.328   5.383   4.867 -0.5923 -0.0149 -0.7508
12085SOL    HW240712   5.416   5.475   4.785 -0.7825  0.7281 -0.1410
12086SOL     OW40713   6.734   5.774   4.564 -0.3757  0.2575 -0.0774
12086SOL    HW140714   6.712   5.776   4.470 -0.8997  2.6286  0.0187
12086SOL    HW240715   6.786   5.854   4.577 -1.3911  0.6489  1.8841
12087SOL     OW40716   2.646   2.577   1.666  0.1951 -0.1706  0.2377
12087SOL    HW140717   2.583   2.515   1.628  1.0177  0.9157 -3.2623
12087SOL    HW240718   2.601   2.661   1.662  1.4186  0.4655 -1.4625
12088SOL     OW40719   4.537   8.303   0.487  0.0869 -0.0335 -0.0259
12088SOL    HW140720   4.528   8.290   0.582  2.0130 -0.3572  0.1510
12088SOL    HW240721   4.630   8.290   0.470 -0.2285  0.0167 -1.9823
12089SOL     OW40722  10.370   8.238   5.838 -0.2143  0.6355 -0.6407
12089SOL    HW140723  10.325   8.294   5.901 -0.4160 -0.7508  0.5107
12089SOL    HW240724  10.433   8.189   5.891  1.7089  1.5144 -1.9939
12090SOL     OW40725   5.901   7.017   8.811  0.2420  0.0804 -0.5958
12090SOL    HW140726   5.832   6.967   8.854  0.8485 -0.6297 -0.4241
12090SOL    HW240727   5.899   7.102   8.855 -0.1583 -0.1173 -0.2171
12091SOL     OW40728   9.060   7.940   8.975 -0.2378 -0.0311  0.0850
12091SOL    HW140729   9.009   8.001   9.028 -0.4487 -0.9765  1.0230
12091SOL    HW240730   9.098   7.993   8.906 -1.3169  0.9518  0.2185
12092SOL     OW40731   3.995   2.912   9.356  0.5121 -0.1808 -0.0917
12092SOL    HW140732   4.014   2.930   9.264  2.0498 -1.4495 -0.0584
12092SOL    HW240733   4.021   2.992   9.402  0.3952  0.2045 -0.6847
12093SOL     OW40734   1.300   9.579   8.748 -0.7594  0.2548  0.0952
12093SOL    HW140735   1.368   9.589   8.814 -1.0457  1.3855  0.2414
12093SOL    HW240736   1.336   9.516   8.686  0.3435  0.6902  0.2710
12094SOL     OW40737   4.858   9.152   2.289 -0.3439  0.0712  0.3621
12094SOL    HW140738   4.896   9.219   2.346 -0.7289 -0.2932  1.0704
12094SOL    HW240739   4.790   9.112   2.342 -1.2127  0.2053 -0.6260
12095SOL     OW40740   1.629   1.035   8.188 -0.1396  0.6433  0.3725
12095SOL    HW140741   1.673   0.953   8.163 -3.0069 -1.3272  1.2307
12095SOL    HW240742   1.600   1.020   8.278  1.7373  3.8418  1.6636
12096SOL     OW40743   1.878   8.016   5.974  0.4140 -0.2953 -0.0978
12096SOL    HW140744   1.904   8.077   6.044  0.1428 -2.0293  1.6099
12096SOL    HW240745   1.784   8.030   5.963  0.6468  0.7443 -0.9406
12097SOL     OW40746   1.043   5.379  10.932 -0.3070  0.3445 -0.1280
12097SOL    HW140747   1.036   5.324  10.854  0.2254 -0.6832  0.5236
12097SOL    HW240748   1.001   5.327  11.001  0.9469  0.3766  0.6892
12098SOL     OW40749   0.760   5.657   3.621  0.0099  0.0245 -0.0576
12098SOL    HW140750   0.835   5.606   3.651 -1.1603 -1.2526  0.8204
12098SOL    HW240751   0.777   5.672   3.528  1.6269  0.2827  0.2582
12099SOL     OW40752   7.533   3.654   2.910  0.1244 -0.2222  0.2895
12099SOL    HW140753   7.560   3.649   3.002 -1.5867  1.3664  0.9445
12099SOL    HW240754   7.448   3.609   2.907 -0.5196  0.9729 -0.1730
12100SOL     OW40755  10.416   2.682   0.442  0.7543  0.4842  0.3828
12100SOL    HW140756  10.427   2.707   0.350 -1.8893  0.2822 -0.0735
12100SOL    HW240757  10.392   2.589   0.438  0.0155  0.6252  1.1985
12101SOL     OW40758   4.641   7.994   4.915  0.0166 -0.7162  0.0829
12101SOL    HW140759   4.605   7.911   4.885  0.4109 -0.5182 -0.9813
12101SOL    HW240760   4.728   7.973   4.947  0.1618 -0.7072 -0.2951
12102SOL     OW40761   0.155   6.304   5.943  0.3215 -0.5541  0.3466
12102SOL    HW140762   0.224   6.286   6.006  0.1949 -0.0906  0.6284
12102SOL    HW240763   0.076   6.265   5.981  0.1555  0.0980  0.7009
12103SOL     OW40764   7.555   4.352   3.435 -0.4902 -0.3735 -0.1504
12103SOL    HW140765   7.649   4.332   3.425 -0.2482  0.2902  0.7342
12103SOL    HW240766   7.524   4.289   3.500 -0.7965 -0.9512 -0.8374
12104SOL     OW40767   6.635   5.567   1.922  0.3057  0.5847  0.0749
12104SOL    HW140768   6.664   5.568   1.830  0.3169  0.8742  0.0814
12104SOL    HW240769   6.660   5.481   1.954  1.3569  0.9024  0.1420
12105SOL     OW40770   1.343   6.585   1.879  0.1127 -0.0920  0.2185
12105SOL    HW140771   1.294   6.607   1.800 -0.4897 -0.2054  0.5509
12105SOL    HW240772   1.433   6.609   1.859 -0.0625  0.0437 -0.4379
12106SOL     OW40773   0.195   7.842   1.930  0.6277  0.1267 -0.3538
12106SOL    HW140774   0.192   7.877   1.841  1.7069 -0.3670 -0.6025
12106SOL    HW240775   0.284   7.860   1.960 -0.1423  1.6242  1.1991
12107SOL     OW40776   4.700   1.481   4.710 -0.2364 -0.3444 -0.6726
12107SOL    HW140777   4.675   1.527   4.630 -2.4770 -5.0111 -3.0882
12107SOL    HW240778   4.792   1.456   4.696 -0.1119  0.2797 -0.9915
12108SOL     OW40779   3.665   5.899   3.083 -0.3386  0.4362 -0.4637
12108SOL    HW140780   3.659   5.817   3.132  0.2517  0.8626  0.3595
12108SOL    HW240781   3.575   5.923   3.064 -0.5326 -0.2040 -0.3586
12109SOL     OW40782   6.169  10.482  11.070 -0.4819  0.5332  0.1556
12109SOL    HW140783   6.198  10.562  11.113  0.8844  0.1618  0.0013
12109SOL    HW240784   6.079  10.499  11.043 -0.4265  1.7685  0.6970
12110SOL     OW40785   9.468   5.113   5.430  0.2994 -0.3133  0.8251
12110SOL    HW140786   9.430   5.155   5.507 -0.3314 -0.3649  0.5394
12110SOL    HW240787   9.558   5.145   5.428  0.0432  0.4304  1.0380
12111SOL     OW40788   2.453   5.045   4.072  0.0098  0.2747 -0.1523
12111SOL    HW140789   2.381   5.108   4.078 -0.3587 -0.1314 -0.1867
12111SOL    HW240790   2.463   5.012   4.161  0.6995  0.9184  0.0120
12112SOL     OW40791   1.021   6.935   8.535  0.0127 -0.3628 -0.4543
12112SOL    HW140792   1.043   6.965   8.447 -2.0012  0.5450 -0.6956
12112SOL    HW240793   1.000   7.015   8.583  0.4206 -0.9083  0.6681
12113SOL     OW40794   8.739   9.409   0.596  0.1128  0.0594  0.1079
12113SOL    HW140795   8.764   9.445   0.511  1.4393 -0.4037  0.2917
12113SOL    HW240796   8.748   9.314   0.585  1.2285  0.0416  1.0364
12114SOL     OW40797   9.395   2.031   5.744  0.0065 -0.3804 -0.2130
12114SOL    HW140798   9.416   2.073   5.661 -1.1738 -0.4088 -0.5388
12114SOL    HW240799   9.301   2.046   5.756  0.4101  0.9815  1.8811
12115SOL     OW40800   9.665   4.642   5.127  0.0637 -0.2399  0.2742
12115SOL    HW140801   9.719   4.702   5.178  1.6046 -0.3437 -1.1450
12115SOL    HW240802   9.575   4.675   5.136  0.8092  2.0164 -0.1008
12116SOL     OW40803   8.785   4.478   6.031  0.4633 -0.3102  0.2860
12116SOL    HW140804   8.843   4.458   5.957 -0.1742  1.5443 -0.7812
12116SOL    HW240805   8.700   4.443   6.005  0.8418 -2.2830  1.4887
12117SOL     OW40806   0.243  10.896   0.959  0.7553 -0.1038  0.3327
12117SOL    HW140807   0.234  10.932   0.870  3.7274 -0.8684 -0.3959
12117SOL    HW240808   0.188  10.952   1.013 -0.2583  1.1098 -1.8153
12118SOL     OW40809   2.257   3.700   9.877  0.6264  0.4044  0.1060
12118SOL    HW140810   2.239   3.614   9.838 -0.2756  0.9217 -0.6660
12118SOL    HW240811   2.309   3.680   9.955  2.0918 -0.7192 -1.0856
12119SOL     OW40812   8.253  10.061   6.412  0.3509 -0.8276 -0.2441
12119SOL    HW140813   8.230  10.096   6.325  0.4946  0.0628  0.0674
12119SOL    HW240814   8.348  10.066   6.415  0.3526 -0.9825 -0.0857
12120SOL     OW40815   2.559  10.706   6.276 -0.3879 -0.3207 -0.5045
12120SOL    HW140816   2.529  10.776   6.333 -1.3826  0.5060 -1.9671
12120SOL    HW240817   2.478  10.665   6.244 -0.0118  0.8524 -3.2233
12121SOL     OW40818   1.243   3.390   5.797  0.1850 -0.1750  0.3098
12121SOL    HW140819   1.319   3.353   5.752 -1.1269 -2.4133 -0.2541
12121SOL    HW240820   1.169   3.370   5.740 -0.9567  1.1636  1.2439
12122SOL     OW40821   6.706   2.098   1.499  0.3758 -0.3519  0.2382
12122SOL    HW140822   6.747   2.171   1.545  0.7829 -0.7206  0.4650
12122SOL    HW240823   6.725   2.022   1.554  0.8762 -0.7964 -0.5483
12123SOL     OW40824   1.133   3.799  10.146  0.0800 -0.1586  0.1964
12123SOL    HW140825   1.141   3.758  10.060 -1.1345  0.1245 -0.0665
12123SOL    HW240826   1.164   3.889  10.132 -0.0862 -0.1217  0.0583
12124SOL     OW40827  10.998   5.503   2.447  0.2705  0.4355  0.0454
12124SOL    HW140828  11.013   5.428   2.391  0.5964  0.8950 -0.4963
12124SOL    HW240829  11.041   5.480   2.530  0.3751  0.0334 -0.1188
12125SOL     OW40830   9.968   4.889   0.094  0.1861  0.1694  0.1381
12125SOL    HW140831   9.967   4.980   0.065 -2.4584  0.3950  0.6565
12125SOL    HW240832   9.933   4.840   0.019 -1.4920  0.0557  0.9414
12126SOL     OW40833   1.570  11.051   3.218 -0.0885  0.1243  0.4711
12126SOL    HW140834   1.590  11.008   3.301  2.8151  0.6399  0.1349
12126SOL    HW240835   1.480  11.024   3.199  0.5251 -3.4015  1.7392
12127SOL     OW40836   4.116   1.862   8.299  0.1924 -0.0336  0.0388
12127SOL    HW140837   4.070   1.916   8.363 -0.7203 -2.5222  1.6362
12127SOL    HW240838   4.061   1.864   8.221 -0.7541 -0.0785  0.6951
12128SOL     OW40839   5.660   3.810   6.599 -0.3518  0.0183 -0.0363
12128SOL    HW140840   5.735   3.765   6.639 -2.1696 -0.6740  2.9339
12128SOL    HW240841   5.610   3.740   6.556  0.5018  0.4348 -1.7739
12129SOL     OW40842   1.242   7.427   0.694  1.4335 -0.0911 -0.0404
12129SOL    HW140843   1.158   7.431   0.648  1.6373  0.3954 -0.3750
12129SOL    HW240844   1.307   7.452   0.629  1.7812  0.0736  0.3614
12130SOL     OW40845   9.057   9.476   5.886 -0.1671  0.4823  0.1263
12130SOL    HW140846   9.021   9.534   5.820 -0.0448  0.4746  0.0544
12130SOL    HW240847   9.034   9.388   5.855  1.7571  0.3423 -1.0302
12131SOL     OW40848   8.284   6.582  10.053 -0.2013 -0.3667 -0.1394
12131SOL    HW140849   8.247   6.663  10.018  0.8971  0.1631 -0.1194
12131SOL    HW240850   8.208   6.534  10.088 -1.1353 -0.2643 -1.9146
12132SOL     OW40851   6.924   7.847   0.577  0.3984 -0.2362 -0.3794
12132SOL    HW140852   6.955   7.936   0.594  1.6592 -0.6855 -0.2353
12132SOL    HW240853   6.847   7.859   0.520 -0.5187  1.0078  1.0441
12133SOL     OW40854   6.357   0.333   1.578  0.1267 -0.5125  0.4246
12133SOL    HW140855   6.343   0.416   1.532 -0.0815 -0.2674  0.9291
12133SOL    HW240856   6.420   0.354   1.646 -0.7886 -0.4945  1.2928
12134SOL     OW40857   2.007  10.513   1.999 -0.3323  0.2674 -0.5043
12134SOL    HW140858   2.017  10.421   2.023 -0.5650  0.3403 -0.1208
12134SOL    HW240859   2.088  10.554   2.032 -0.0045  0.1162 -1.1088
12135SOL     OW40860   2.394  10.912   3.098  0.0719 -0.3286  0.2588
12135SOL    HW140861   2.445  10.905   3.017  0.0269 -1.5318  0.3206
12135SOL    HW240862   2.442  10.860   3.162  0.4086  1.0713  1.1963
12136SOL     OW40863   0.391   4.956   3.622  0.2609  0.1409 -0.6284
12136SOL    HW140864   0.331   4.957   3.696 -0.9263  1.1080 -1.5571
12136SOL    HW240865   0.419   4.864   3.615  1.1630  0.2126  1.5766
12137SOL     OW40866   8.878   7.381   7.170 -1.3090 -0.4721  0.2473
12137SOL    HW140867   8.915   7.336   7.247 -1.7203 -0.1522  0.6375
12137SOL    HW240868   8.813   7.320   7.136 -2.3068  0.0603  1.1413
12138SOL     OW40869   4.414   2.575   5.957  0.1724  0.3264  0.3282
12138SOL    HW140870   4.471   2.503   5.930  0.3731  0.6749 -0.1932
12138SOL    HW240871   4.422   2.640   5.887 -1.1428  0.2310  0.0480
12139SOL     OW40872   5.230   9.975   6.466 -0.4886 -0.6879  0.0617
12139SOL    HW140873   5.310   9.938   6.506 -0.8294 -1.9997 -0.4208
12139SOL    HW240874   5.239  10.069   6.478  1.0477 -0.8244  0.1905
12140SOL     OW40875   4.624   9.184   5.886 -0.3850  0.6217  0.1713
12140SOL    HW140876   4.547   9.175   5.942 -0.1584  2.0100  0.7650
12140SOL    HW240877   4.664   9.266   5.915  1.4639 -0.2035  0.0520
12141SOL     OW40878   9.223   3.065   9.835  0.0522  0.6261 -0.2800
12141SOL    HW140879   9.266   3.069   9.749  1.2905 -0.3083  0.2756
12141SOL    HW240880   9.171   3.146   9.839  0.9760  1.3070 -1.3754
12142SOL     OW40881   3.426   9.471   7.376 -0.0230  0.2695 -0.2228
12142SOL    HW140882   3.438   9.389   7.328  0.1703 -0.3323  0.8048
12142SOL    HW240883   3.352   9.514   7.333 -0.6390 -0.8266 -0.2979
12143SOL     OW40884   8.234   0.251   6.270 -0.2516 -0.3023  0.3825
12143SOL    HW140885   8.304   0.212   6.218 -1.0062  0.2625 -1.1242
12143SOL    HW240886   8.153   0.218   6.229 -0.8739  0.9241  0.5923
12144SOL     OW40887   3.100   4.830   5.276 -0.2250 -0.2947 -0.6517
12144SOL    HW140888   3.051   4.804   5.198  1.4490 -0.7040 -1.6124
12144SOL    HW240889   3.191   4.836   5.246  0.0971  2.1857  0.6365
12145SOL     OW40890   6.699   7.415   4.161 -0.1273  0.1532  0.4824
12145SOL    HW140891   6.628   7.361   4.195 -1.1637  1.5754  0.6630
12145SOL    HW240892   6.667   7.505   4.170  1.6183  0.8228  0.3808
12146SOL     OW40893   5.670   7.085   1.648 -0.5728  0.1969 -0.2562
12146SOL    HW140894   5.674   7.012   1.710 -1.5109  0.0844 -0.3074
12146SOL    HW240895   5.581   7.119   1.657 -0.4122  0.7979 -0.8461
12147SOL     OW40896   9.731   1.589   4.555 -0.2297 -0.3894  0.5458
12147SOL    HW140897   9.714   1.680   4.529  1.4394  0.4692  2.1872
12147SOL    HW240898   9.698   1.583   4.645  0.6682 -1.0552  0.8493
12148SOL     OW40899   4.068   6.502   1.849 -0.0936 -0.8506 -0.4361
12148SOL    HW140900   4.163   6.502   1.840  0.1210  0.7569  1.3053
12148SOL    HW240901   4.042   6.413   1.824  1.5640 -0.6852 -3.1949
12149SOL     OW40902   3.322   4.111  10.103 -0.1465  0.1276 -0.1581
12149SOL    HW140903   3.229   4.093  10.087  0.3495 -2.1672 -0.7516
12149SOL    HW240904   3.368   4.069  10.030  1.5124 -1.2249  1.5675
12150SOL     OW40905  10.840   5.526  10.516 -0.3786 -0.1104  0.2331
12150SOL    HW140906  10.814   5.514  10.608 -0.7031  0.7018  0.2594
12150SOL    HW240907  10.807   5.448  10.471  2.0917 -1.8392  1.2398
12151SOL     OW40908   3.100   4.912   9.168 -0.2677 -0.1046 -0.8268
12151SOL    HW140909   3.108   4.817   9.179  0.6352  0.0829  0.4319
12151SOL    HW240910   3.189   4.942   9.149 -0.4489  0.5406 -0.7078
12152SOL     OW40911   5.812   9.397  10.912  0.0534 -0.2058  0.3822
12152SOL    HW140912   5.794   9.429  10.824  0.2234  0.9910  0.7657
12152SOL    HW240913   5.901   9.428  10.931 -0.0105 -0.3847  1.0018
12153SOL     OW40914   3.640   9.978   7.555 -0.0137  0.1849 -0.5556
12153SOL    HW140915   3.632   9.979   7.460  0.9644 -0.8120 -0.6666
12153SOL    HW240916   3.686  10.059   7.577 -0.6188  0.6229 -0.8832
12154SOL     OW40917   3.859   1.867   7.158  0.1571 -0.1510 -0.4683
12154SOL    HW140918   3.873   1.959   7.134 -1.4107  0.0011 -0.9355
12154SOL    HW240919   3.817   1.871   7.244  1.6115 -0.5152  0.2753
12155SOL     OW40920   7.598   9.921   6.699 -0.3749 -0.8572  0.2811
12155SOL    HW140921   7.618   9.837   6.657  1.1118 -0.7657  0.7436
12155SOL    HW240922   7.573   9.978   6.627  0.6831 -1.1291 -0.3317
12156SOL     OW40923   2.635   3.136   3.764 -0.6020  0.2507  0.1267
12156SOL    HW140924   2.569   3.122   3.833  0.4501  0.3439  1.1946
12156SOL    HW240925   2.711   3.169   3.811  0.5205 -0.7075 -0.9485
12157SOL     OW40926   0.278   8.809   2.918 -0.1747  0.3357 -0.2912
12157SOL    HW140927   0.220   8.739   2.949  0.4312 -0.2083 -0.3602
12157SOL    HW240928   0.220   8.884   2.905 -0.4945  0.6071  2.1387
12158SOL     OW40929   2.764   0.796   9.802  0.0132 -0.4900  0.7820
12158SOL    HW140930   2.774   0.730   9.870  0.9404 -1.7838 -0.5680
12158SOL    HW240931   2.832   0.861   9.821 -0.3807 -0.2953  1.6299
12159SOL     OW40932   2.094   2.621  10.904  0.0302 -0.8244 -0.0676
12159SOL    HW140933   2.045   2.596  10.981 -0.9875  0.2758 -0.3336
12159SOL    HW240934   2.054   2.571  10.832 -1.5774  0.9617 -0.4906
12160SOL     OW40935   4.656   8.629   5.277 -0.1003 -0.3108  0.1752
12160SOL    HW140936   4.732   8.578   5.248 -2.7449 -2.8871 -3.1461
12160SOL    HW240937   4.666   8.714   5.233  1.5078 -0.0455  0.9962
12161SOL     OW40938   2.186   5.989  10.133  0.0683  0.8419  0.1033
12161SOL    HW140939   2.110   5.933  10.144  0.4004  0.3159 -0.2357
12161SOL    HW240940   2.244   5.965  10.205 -0.2557  1.5393  0.6118
12162SOL     OW40941  10.588   7.529   5.048  0.6175  0.1705 -0.0237
12162SOL    HW140942  10.546   7.599   5.097  2.1908  0.6831  0.6734
12162SOL    HW240943  10.530   7.453   5.058 -0.5950  1.0832  0.0638
12163SOL     OW40944   8.263   6.324  10.472 -0.3166  0.2532 -0.0856
12163SOL    HW140945   8.258   6.359  10.383 -1.1393  0.4057  0.0187
12163SOL    HW240946   8.238   6.397  10.529  0.3839  0.2140  0.2985
12164SOL     OW40947   4.307   9.246   3.294 -0.0178 -0.0469 -0.7710
12164SOL    HW140948   4.247   9.179   3.261 -1.2785  0.1033  1.0590
12164SOL    HW240949   4.315   9.226   3.387  2.0156  0.5641 -0.7615
12165SOL     OW40950   5.186   3.561   1.066 -0.1888  0.1190 -0.2339
12165SOL    HW140951   5.199   3.468   1.082 -1.7886 -0.4175 -1.7590
12165SOL    HW240952   5.252   3.584   1.001 -0.6496 -0.2849 -0.8510
12166SOL     OW40953   0.124   4.961   9.035 -0.2971  0.1947  0.0854
12166SOL    HW140954   0.173   4.879   9.033  1.4013  1.1756 -0.8321
12166SOL    HW240955   0.054   4.945   9.099  1.2813 -1.2520  1.5642
12167SOL     OW40956   3.340  10.627   2.077  0.3291 -0.0325 -0.1591
12167SOL    HW140957   3.357  10.719   2.098 -2.6774  0.6401 -0.2830
12167SOL    HW240958   3.330  10.584   2.162 -1.3235  0.4571 -0.0742
12168SOL     OW40959   2.724  10.943   6.237  0.3979 -0.3113 -0.2427
12168SOL    HW140960   2.774  10.905   6.165  1.1330 -0.5674  0.3851
12168SOL    HW240961   2.649  10.885   6.248 -0.6308  0.6309 -1.8545
12169SOL     OW40962   0.309   1.454   5.816  0.0742 -0.2022 -1.1055
12169SOL    HW140963   0.317   1.360   5.830  0.1902  0.0540  0.7567
12169SOL    HW240964   0.305   1.463   5.721  1.2363 -1.9830 -1.3770
12170SOL     OW40965   8.204  10.783   4.880  0.1767  0.6821  0.0999
12170SOL    HW140966   8.197  10.877   4.897  0.8739  0.5526  1.2085
12170SOL    HW240967   8.228  10.745   4.965 -0.9378 -0.6062 -0.1326
12171SOL     OW40968   9.749   6.807  10.125 -0.2119 -0.3118  0.5635
12171SOL    HW140969   9.825   6.791  10.180 -1.0376 -0.7391  1.6122
12171SOL    HW240970   9.707   6.721  10.116 -1.0771  0.0782  0.7747
12172SOL     OW40971   0.916   2.024   1.005 -1.0491 -0.4204 -0.3060
12172SOL    HW140972   0.865   2.072   0.940  0.3022  0.5303 -0.6949
12172SOL    HW240973   0.964   1.958   0.954 -1.7472 -1.2077  0.0375
12173SOL     OW40974   4.884   3.830   7.852 -0.2159  0.0488 -0.0144
12173SOL    HW140975   4.839   3.914   7.864 -0.2195  0.2593 -1.3313
12173SOL    HW240976   4.815   3.770   7.823 -0.5661 -0.8939  2.5548
12174SOL     OW40977  10.570   0.987   2.633 -0.4745 -0.1723  0.2406
12174SOL    HW140978  10.534   0.966   2.719  0.5451 -1.6966  0.3357
12174SOL    HW240979  10.659   0.951   2.635  0.2440  1.4305 -0.7897
12175SOL     OW40980   0.494   6.099   4.389  0.0996  0.1891 -0.3765
12175SOL    HW140981   0.579   6.142   4.402  0.4691 -0.8243  0.7547
12175SOL    HW240982   0.430   6.161   4.426  0.1542  1.5616 -2.4301
12176SOL     OW40983   3.803   3.731   0.631 -0.2615  0.0801 -0.1991
12176SOL    HW140984   3.872   3.694   0.575 -0.2676  0.2888 -0.3452
12176SOL    HW240985   3.778   3.659   0.689 -2.5141 -1.1705 -2.5686
12177SOL     OW40986   6.294   9.441   2.593  0.1714  0.3221 -0.5046
12177SOL    HW140987   6.288   9.514   2.531 -0.8165 -1.8302 -3.1346
12177SOL    HW240988   6.358   9.470   2.658  2.1351  2.3456 -3.1203
12178SOL     OW40989   3.470   1.813   2.589 -0.5134  0.5965  0.0769
12178SOL    HW140990   3.404   1.744   2.580 -0.8843  0.5592  2.3435
12178SOL    HW240991   3.436   1.869   2.659  1.7340  0.6858  1.1932
12179SOL     OW40992   1.179   3.879   7.171  0.0430 -0.1834  0.1345
12179SOL    HW140993   1.126   3.890   7.249  0.2585 -1.3852  0.4636
12179SOL    HW240994   1.147   3.799   7.130  1.0771 -0.5043 -0.0835
12180SOL     OW40995   7.212   4.247   7.723  0.0438  0.2187 -0.3178
12180SOL    HW140996   7.237   4.319   7.780 -1.6657  0.3204  0.3622
12180SOL    HW240997   7.188   4.289   7.640  3.0932  0.0253 -1.4270
12181SOL     OW40998   1.122   0.793   1.884  0.2086  0.2728  0.2873
12181SOL    HW140999   1.124   0.703   1.915 -1.6697  0.8536  2.3946
12181SOL    HW241000   1.085   0.787   1.796 -2.1300 -0.9138  1.2559
12182SOL     OW41001   2.250   9.498   4.585 -0.5826 -0.0007 -0.3106
12182SOL    HW141002   2.177   9.491   4.523 -0.6368  2.8601 -0.6909
12182SOL    HW241003   2.212   9.540   4.662  0.8674  3.1264 -1.1455
12183SOL     OW41004   5.540   7.407   5.969  0.7244 -0.0504 -0.0488
12183SOL    HW141005   5.453   7.416   6.008  0.5028  0.5452 -0.6532
12183SOL    HW241006   5.558   7.313   5.971  0.7582 -0.0386  1.5426
12184SOL     OW41007   7.298   5.806   8.023 -0.4139 -0.2981 -0.0848
12184SOL    HW141008   7.242   5.832   7.950  0.5445  0.7341 -0.4608
12184SOL    HW241009   7.357   5.879   8.036 -0.1411 -0.7338  1.3200
12185SOL     OW41010   1.637   0.784   4.322 -0.4333 -0.9835 -0.3629
12185SOL    HW141011   1.628   0.842   4.398 -2.6337 -1.5057 -0.1474
12185SOL    HW241012   1.672   0.703   4.357  2.1657 -0.0465 -0.5823
12186SOL     OW41013  10.506   3.297   8.782 -0.4483 -0.0069 -0.1364
12186SOL    HW141014  10.559   3.222   8.808  0.2853  0.5520  0.0274
12186SOL    HW241015  10.428   3.292   8.838 -0.9246 -1.2319 -0.8712
12187SOL     OW41016   0.360   8.456   9.485  0.3018  0.1231 -0.3591
12187SOL    HW141017   0.454   8.461   9.501  0.1290 -2.7483  2.2536
12187SOL    HW241018   0.325   8.537   9.523  1.6566  1.5005 -1.8560
12188SOL     OW41019   6.509   8.364   5.144  0.0854 -0.1609  0.5129
12188SOL    HW141020   6.597   8.376   5.181  0.4253  0.1146 -0.3590
12188SOL    HW241021   6.456   8.333   5.218  0.8695 -0.1540  1.0933
12189SOL     OW41022   6.765   8.995  10.311  0.2683 -0.2767  0.8191
12189SOL    HW141023   6.853   8.958  10.322  0.5810  0.3883  0.5937
12189SOL    HW241024   6.722   8.978  10.395  1.5299  1.8139  1.9813
12190SOL     OW41025   7.416   4.095   0.054 -0.3295 -0.3042 -0.1401
12190SOL    HW141026   7.426   4.104   0.149 -0.5978 -2.6156  0.1640
12190SOL    HW241027   7.334   4.047   0.043 -0.6833  0.5754 -1.6049
12191SOL     OW41028  10.392   3.975   1.923  0.1595  0.4162  0.5364
12191SOL    HW141029  10.478   3.946   1.953  0.3303 -1.0058 -1.2076
12191SOL    HW241030  10.330   3.926   1.978  0.4503  0.7180  1.1389
12192SOL     OW41031   2.550   8.223   5.307 -0.3058 -0.0000 -0.1285
12192SOL    HW141032   2.574   8.198   5.218  2.5935 -0.0774  0.5776
12192SOL    HW241033   2.591   8.308   5.320 -0.8160  0.0867  1.0801
12193SOL     OW41034   9.056   8.665   8.434  0.0887  0.0733 -0.3597
12193SOL    HW141035   9.124   8.631   8.492  0.2995 -0.1294 -0.7223
12193SOL    HW241036   9.059   8.608   8.358 -1.6632 -1.0092  0.3276
12194SOL     OW41037   2.263   6.097   2.453 -0.4924  0.2122  0.5284
12194SOL    HW141038   2.337   6.111   2.512  0.9505 -1.1217 -0.8728
12194SOL    HW241039   2.273   6.164   2.386 -0.3755 -0.1398  0.1896
12195SOL     OW41040   9.524   9.955  10.086  0.1191 -0.1027 -0.7069
12195SOL    HW141041   9.565   9.868  10.089 -0.9975 -0.6453 -0.2434
12195SOL    HW241042   9.586  10.013  10.130  0.7275 -0.7343 -0.7122
12196SOL     OW41043   4.988   0.199   5.598 -0.1332  0.0028  0.5014
12196SOL    HW141044   5.004   0.161   5.685  1.6348  0.2591  0.3322
12196SOL    HW241045   5.027   0.137   5.537  1.5129  1.3300  0.1319
12197SOL     OW41046   6.708  10.448  10.924 -0.4631 -0.0183  0.0429
12197SOL    HW141047   6.622  10.455  10.883 -0.5062 -0.5395  0.0440
12197SOL    HW241048   6.739  10.360  10.901  0.5986  0.5886 -1.0209
12198SOL     OW41049   2.701   1.796  10.149 -0.1648 -0.4426  0.4994
12198SOL    HW141050   2.634   1.859  10.123 -1.7150 -2.4629 -0.7219
12198SOL    HW241051   2.705   1.804  10.244 -0.6676  1.1224  0.4186
12199SOL     OW41052   9.793   2.804   5.919  1.0885 -0.0532  0.1644
12199SOL    HW141053   9.813   2.751   5.996  0.9062 -1.1859 -0.5341
12199SOL    HW241054   9.797   2.742   5.846  1.2736  0.9892 -0.7437
12200SOL     OW41055   5.560   4.744   7.892 -0.4188 -0.4175  0.0203
12200SOL    HW141056   5.532   4.752   7.801 -0.5251  0.7537  0.1401
12200SOL    HW241057   5.480   4.760   7.942  0.4267  3.7273  0.3928
12201SOL     OW41058   4.706   9.647  10.073  0.3651 -0.4534 -0.3855
12201SOL    HW141059   4.778   9.704  10.101 -0.2178  0.3202 -0.4198
12201SOL    HW241060   4.743   9.559  10.077  1.4124 -0.0554 -0.7043
12202SOL     OW41061   5.823   2.653   4.662  0.0109 -0.6878 -0.3604
12202SOL    HW141062   5.746   2.694   4.621  0.0477 -0.5990 -0.3399
12202SOL    HW241063   5.889   2.722   4.662 -0.2981 -0.3679  0.7628
12203SOL     OW41064   0.364   3.826  10.028 -0.1159  0.1765 -0.1712
12203SOL    HW141065   0.435   3.881  10.060  0.6266 -0.9910  0.2479
12203SOL    HW241066   0.395   3.792   9.944 -0.4651  0.2010 -0.3116
12204SOL     OW41067   5.999  10.606  10.478 -0.3966 -0.1044  0.5615
12204SOL    HW141068   5.980  10.671  10.546 -1.7129  1.8773 -1.5578
12204SOL    HW241069   6.088  10.624  10.450 -0.7373  0.8306  0.0207
12205SOL     OW41070   4.973   8.011   6.871 -0.2763  0.0665 -0.1518
12205SOL    HW141071   5.009   7.963   6.796  0.3030  0.8534 -0.4001
12205SOL    HW241072   4.888   8.043   6.841  0.6199  1.7481 -1.1037
12206SOL     OW41073   1.469   4.015   3.774 -0.0757  0.2526  0.1441
12206SOL    HW141074   1.480   3.922   3.755  0.4460  0.7291 -2.1579
12206SOL    HW241075   1.380   4.022   3.811 -0.8232 -0.9439 -1.3320
12207SOL     OW41076   4.295   4.394   4.087  0.5714  0.0854  0.1798
12207SOL    HW141077   4.287   4.300   4.104  0.3636  0.5129  2.9065
12207SOL    HW241078   4.389   4.411   4.089  0.6928 -0.1910 -1.4955
12208SOL     OW41079   9.126   5.893   7.687  0.4052  0.1207  0.2722
12208SOL    HW141080   9.058   5.903   7.620  0.4050 -0.2226  0.2172
12208SOL    HW241081   9.193   5.839   7.645 -0.4317 -1.6884  1.1310
12209SOL     OW41082   3.279   8.753   7.854  0.5258  0.2803  0.4573
12209SOL    HW141083   3.192   8.715   7.861  0.5463  0.3801  1.4629
12209SOL    HW241084   3.336   8.679   7.831  0.1917  0.2045 -0.1444
12210SOL     OW41085   8.598   5.963   0.666 -0.3982 -0.0270 -0.0614
12210SOL    HW141086   8.540   5.968   0.590 -0.0535 -1.0037 -0.3993
12210SOL    HW241087   8.675   5.914   0.635  0.7769  1.5102  0.2798
12211SOL     OW41088   4.215   4.941   3.593 -0.2870  0.2072  0.4685
12211SOL    HW141089   4.310   4.926   3.602 -0.5402 -1.1039  1.2845
12211SOL    HW241090   4.179   4.914   3.677 -1.5092 -0.3605 -0.2116
12212SOL     OW41091  10.122   8.651   5.698  0.4016  0.4571  0.5005
12212SOL    HW141092  10.185   8.693   5.640  0.2848 -0.4412 -0.3046
12212SOL    HW241093  10.129   8.558   5.678  0.4006  0.1114  1.9955
12213SOL     OW41094   7.542   8.982   7.327 -0.1215 -0.2572  0.2774
12213SOL    HW141095   7.508   9.058   7.374  1.3469  0.6339 -0.0356
12213SOL    HW241096   7.552   8.915   7.394  0.2769  0.4239  0.9200
12214SOL     OW41097   6.469   2.426   0.702  0.0604  0.0304 -0.2061
12214SOL    HW141098   6.512   2.381   0.774  0.4124  1.6067  0.6334
12214SOL    HW241099   6.376   2.409   0.714  0.0829  0.5754  0.8678
12215SOL     OW41100   3.452   2.031   9.829 -0.0602 -0.2504  0.2514
12215SOL    HW141101   3.455   2.046   9.734  0.2798 -0.2196  0.2663
12215SOL    HW241102   3.507   2.100   9.866 -1.5948  0.8544  0.6071
12216SOL     OW41103   3.744   8.305   4.805 -0.2101  0.2583  0.6916
12216SOL    HW141104   3.684   8.315   4.731  0.2961  0.0221  0.2370
12216SOL    HW241105   3.751   8.392   4.843  0.4930  0.6550 -0.3113
12217SOL     OW41106   5.583   2.463   7.682  0.2152  0.6493 -0.6760
12217SOL    HW141107   5.622   2.545   7.652  0.7767  0.3591 -0.7691
12217SOL    HW241108   5.648   2.396   7.658 -0.0712  0.2261 -0.2847
12218SOL     OW41109   2.463   6.734   5.141 -0.0950  0.6457 -0.5769
12218SOL    HW141110   2.384   6.728   5.086 -2.4373  1.9122  2.3418
12218SOL    HW241111   2.490   6.826   5.134  1.3742  0.1642 -1.7548
12219SOL     OW41112   4.031  11.000   2.998  0.2944  0.8589 -0.1033
12219SOL    HW141113   4.020  10.908   2.975  1.6459  0.6615 -0.0394
12219SOL    HW241114   4.087  10.999   3.075 -0.2086  1.7240  0.2928
12220SOL     OW41115   2.680   2.551  10.244  0.0209 -0.2046  0.6124
12220SOL    HW141116   2.762   2.501  10.251  0.0733 -0.0274  1.2985
12220SOL    HW241117   2.708   2.641  10.229 -0.0677 -0.2606  0.0633
12221SOL     OW41118  10.219   5.722   9.131  0.6926  0.3450  0.9260
12221SOL    HW141119  10.139   5.699   9.179  1.1329  0.0237  1.5232
12221SOL    HW241120  10.229   5.653   9.066  1.9481 -1.1729  2.6339
12222SOL     OW41121   4.947   3.968   7.540 -0.4632  0.4146 -0.0767
12222SOL    HW141122   4.934   3.963   7.446  0.0428  1.1820 -0.1978
12222SOL    HW241123   4.904   3.890   7.575  1.1803 -1.0566 -1.1396
12223SOL     OW41124   2.298   9.451  10.997  0.2179  0.2716  0.2819
12223SOL    HW141125   2.342   9.367  11.007  1.2275  0.7873  0.3008
12223SOL    HW241126   2.367   9.516  11.008 -0.3039  1.0824 -0.9962
12224SOL     OW41127   9.858   0.776   6.636  0.5105  0.0021 -0.0318
12224SOL    HW141128   9.844   0.761   6.542  1.0573 -1.9201  0.1459
12224SOL    HW241129   9.836   0.868   6.649  0.1179  0.2345 -1.9859
12225SOL     OW41130   4.532   3.622   9.849  0.0004 -0.7379  0.2372
12225SOL    HW141131   4.448   3.592   9.815 -0.5567 -2.0150  2.5170
12225SOL    HW241132   4.562   3.687   9.785 -1.8127 -1.5828 -1.5884
12226SOL     OW41133   5.766   3.096  10.398 -0.2138 -0.4889  0.2499
12226SOL    HW141134   5.821   3.168  10.429 -1.0867  0.5142 -0.4626
12226SOL    HW241135   5.814   3.017  10.423  0.9728  0.3368  0.6781
12227SOL     OW41136   0.934   6.181   3.402  0.2855 -0.0431 -0.4631
12227SOL    HW141137   1.019   6.217   3.427 -0.2608  0.7617  0.2896
12227SOL    HW241138   0.901   6.242   3.336 -0.3428  0.5055  0.3260
12228SOL     OW41139   4.873   4.587   2.914 -0.4439  0.4330 -0.6104
12228SOL    HW141140   4.854   4.520   2.849  3.2307 -1.2542 -0.1698
12228SOL    HW241141   4.813   4.568   2.986 -1.2856 -0.6878 -1.5767
12229SOL     OW41142   6.817   7.257   8.786  0.3468  0.3103 -0.1602
12229SOL    HW141143   6.762   7.227   8.714  1.3131 -0.0632 -0.7697
12229SOL    HW241144   6.858   7.337   8.754  1.8642 -0.6028 -0.6024
12230SOL     OW41145   4.508   3.882   9.376 -0.3907  0.2874  0.0607
12230SOL    HW141146   4.509   3.804   9.320  4.0227 -0.8543  1.2713
12230SOL    HW241147   4.550   3.949   9.322  0.2614  0.3407  0.6235
12231SOL     OW41148   9.826   8.001   0.365  0.4041 -0.0348  0.6022
12231SOL    HW141149   9.808   8.092   0.388  0.7967  0.0709  0.4939
12231SOL    HW241150   9.747   7.971   0.320  1.3941  1.1578 -2.1069
12232SOL     OW41151   5.732   2.313   5.235  0.2866  0.5997  0.2776
12232SOL    HW141152   5.642   2.312   5.268  0.0317  1.0347 -0.3953
12232SOL    HW241153   5.782   2.266   5.302 -0.6368 -0.7434  0.0643
12233SOL     OW41154   4.238   1.772   0.323  0.8005 -0.1693 -0.2195
12233SOL    HW141155   4.324   1.745   0.356  1.0273 -0.3894 -0.9668
12233SOL    HW241156   4.257   1.846   0.265  0.7343 -1.4036 -1.9057
12234SOL     OW41157   8.767   9.359   9.350 -0.1090 -0.5636  0.0609
12234SOL    HW141158   8.743   9.315   9.268  4.0856  0.1929 -1.8210
12234SOL    HW241159   8.764   9.452   9.329  1.6022 -0.3746  0.5228
12235SOL     OW41160   9.776   6.872   9.812 -0.1455 -0.2002 -0.8176
12235SOL    HW141161   9.768   6.844   9.903  1.1305 -2.0370 -1.2082
12235SOL    HW241162   9.692   6.849   9.772 -0.3321 -0.3590 -0.3402
12236SOL     OW41163   0.479  11.002  10.122  0.4502 -0.4362  0.8867
12236SOL    HW141164   0.494  11.005  10.028 -0.4621  0.4710  0.7428
12236SOL    HW241165   0.502  10.913  10.148 -0.5230 -1.1075 -0.4320
12237SOL     OW41166   8.387   5.717   8.715 -0.3794 -0.0306  0.6495
12237SOL    HW141167   8.361   5.632   8.751 -1.3325  0.3399  0.8597
12237SOL    HW241168   8.371   5.709   8.621  1.5095 -0.7784  0.3398
12238SOL     OW41169   9.961   3.757   2.538  0.1875  0.1309  0.7432
12238SOL    HW141170   9.959   3.762   2.634 -0.1912  1.5606  0.6875
12238SOL    HW241171   9.870   3.765   2.511  0.0100 -2.5514  0.2905
12239SOL     OW41172  10.794   4.730   1.028 -0.1854  0.1181  0.0281
12239SOL    HW141173  10.777   4.681   1.109 -1.6039 -0.2967 -0.4873
12239SOL    HW241174  10.708   4.743   0.990  0.5144 -0.2448 -1.7496
12240SOL     OW41175   7.700   6.929   9.922 -0.6348  0.2228 -0.7073
12240SOL    HW141176   7.790   6.959   9.929 -0.9915  1.3339 -0.7006
12240SOL    HW241177   7.707   6.836   9.901  0.5041 -0.3874  1.9730
12241SOL     OW41178   2.756   9.371   9.061  0.2168 -0.3506  0.1674
12241SOL    HW141179   2.662   9.384   9.073 -0.3968 -2.3673 -1.8334
12241SOL    HW241180   2.794   9.458   9.070 -1.8399  0.5289  0.9017
12242SOL     OW41181   6.262   3.520   6.141 -0.5577 -0.1063 -0.4034
12242SOL    HW141182   6.291   3.504   6.051 -1.5956 -0.3734 -0.7093
12242SOL    HW241183   6.294   3.608   6.161 -0.9193  0.2503 -1.3012
12243SOL     OW41184   5.236   2.641   3.991 -0.0650  0.5686 -0.0418
12243SOL    HW141185   5.148   2.673   4.011 -0.4364 -1.1458  1.2565
12243SOL    HW241186   5.283   2.646   4.074  0.6386  0.1793 -0.4045
12244SOL     OW41187   2.467   4.409   5.656  0.4415  0.0679 -0.2844
12244SOL    HW141188   2.520   4.488   5.668  0.0065  0.2761  0.3477
12244SOL    HW241189   2.505   4.346   5.717 -0.4425  0.4366  0.6809
12245SOL     OW41190   9.739   6.184   7.634 -0.3441  0.0872  0.5053
12245SOL    HW141191   9.747   6.099   7.679 -1.3767 -0.3976 -0.1989
12245SOL    HW241192   9.764   6.165   7.544  0.6242  0.8142  0.6107
12246SOL     OW41193   6.953   8.455   8.574 -0.8668  0.5314 -0.2317
12246SOL    HW141194   6.949   8.449   8.479  0.0552  0.1654 -0.2482
12246SOL    HW241195   6.954   8.550   8.592 -0.7116  0.5971 -0.5923
12247SOL     OW41196   1.137   7.665   6.362  0.3773 -0.6962  0.1588
12247SOL    HW141197   1.063   7.673   6.302  0.6154  0.2903 -0.0255
12247SOL    HW241198   1.208   7.630   6.307  1.0624  1.6506 -0.6138
12248SOL     OW41199   9.095   5.083   7.506  0.5576  0.0991  0.1982
12248SOL    HW141200   9.137   5.169   7.503  0.0688  0.3333 -0.2416
12248SOL    HW241201   9.019   5.096   7.563 -0.2333  0.3075 -0.8566
12249SOL     OW41202   1.148   3.372   4.477  0.4858  0.7478 -0.4135
12249SOL    HW141203   1.073   3.328   4.436 -0.2968  0.6260  1.1014
12249SOL    HW241204   1.160   3.327   4.560  1.1984  1.8321  0.0957
12250SOL     OW41205   1.586   5.433   5.343  0.3209  0.1711  0.3025
12250SOL    HW141206   1.560   5.474   5.261 -0.8626 -1.6684 -0.2914
12250SOL    HW241207   1.601   5.341   5.321  3.6498  0.3124  1.4351
12251SOL     OW41208   8.230   4.839   8.547  0.0597  0.2739  0.4484
12251SOL    HW141209   8.286   4.916   8.556 -1.6876  1.7005 -0.4008
12251SOL    HW241210   8.290   4.765   8.557  1.8796  1.7208  0.7698
12252SOL     OW41211  10.126   8.348   6.988  0.0083 -0.3122  0.0084
12252SOL    HW141212  10.086   8.386   7.066 -0.3450  0.9600 -0.7749
12252SOL    HW241213  10.220   8.356   7.003 -0.0356 -1.0291  0.7499
12253SOL     OW41214   6.660   0.534   5.189  0.6460 -0.1761 -0.0905
12253SOL    HW141215   6.638   0.457   5.242 -3.6942  0.2517 -0.9568
12253SOL    HW241216   6.692   0.497   5.106  3.3938 -0.8475  1.1385
12254SOL     OW41217   0.005  10.217   2.531 -0.1439 -0.3569  0.2611
12254SOL    HW141218  -0.078  10.228   2.484  0.8058 -0.0848 -1.4486
12254SOL    HW241219   0.032  10.127   2.512  0.8515  0.1369 -0.7936
12255SOL     OW41220   3.364   3.689   2.456  0.2426  0.8394  0.1673
12255SOL    HW141221   3.290   3.733   2.415  0.4661  1.8756  0.8351
12255SOL    HW241222   3.401   3.635   2.387 -0.5504  1.0599 -0.4464
12256SOL     OW41223   0.999   3.167   1.588  0.2742 -0.5302  0.3720
12256SOL    HW141224   1.067   3.234   1.589 -1.0671  0.9235 -0.6916
12256SOL    HW241225   1.047   3.085   1.578  1.8838  0.4165 -0.0712
12257SOL     OW41226   9.354   6.010   8.307  0.2664 -0.2175  0.0861
12257SOL    HW141227   9.399   6.050   8.381 -0.2763 -2.4376  1.7074
12257SOL    HW241228   9.424   5.986   8.246  0.7213  1.5310 -0.1479
12258SOL     OW41229   3.059   4.738  10.364 -0.2033  0.3168 -0.2670
12258SOL    HW141230   3.031   4.712  10.451 -0.5181 -0.2578 -0.5331
12258SOL    HW241231   3.110   4.663  10.332  1.1186  1.0907 -0.0310
12259SOL     OW41232   0.964   5.919   5.693 -0.0595  0.8977  0.3193
12259SOL    HW141233   0.894   5.877   5.643  0.1765 -0.5241  1.1195
12259SOL    HW241234   1.044   5.878   5.661  0.3571  1.9620 -0.0481
12260SOL     OW41235   0.635   9.045   3.865 -0.0106 -0.0791  0.2984
12260SOL    HW141236   0.566   9.057   3.799  0.6769 -0.5042 -0.5299
12260SOL    HW241237   0.708   9.006   3.816  0.2702 -1.0867  1.4689
12261SOL     OW41238   1.833   6.375   3.965  0.3661 -0.0524  0.0356
12261SOL    HW141239   1.852   6.405   4.054  0.0858  0.1800  0.0193
12261SOL    HW241240   1.743   6.403   3.949 -0.4340 -2.1532  0.5391
12262SOL     OW41241   0.316   1.132   8.561  0.3611 -0.3339 -0.5764
12262SOL    HW141242   0.307   1.155   8.653  1.7076 -1.8497 -0.0133
12262SOL    HW241243   0.228   1.105   8.534 -0.0182 -0.0133  0.2975
12263SOL     OW41244   9.774   3.857   8.535  0.0979 -0.3961  0.2334
12263SOL    HW141245   9.784   3.764   8.513 -1.5596 -0.5411 -0.0196
12263SOL    HW241246   9.697   3.860   8.592  0.5239  0.7587  0.7685
12264SOL     OW41247   9.704   4.216  10.297  0.4872 -0.3106  0.1762
12264SOL    HW141248   9.720   4.130  10.335  0.6119 -1.1062 -1.5601
12264SOL    HW241249   9.618   4.241  10.330 -0.1662 -1.7330 -0.3551
12265SOL     OW41250   3.792   4.299   6.099 -0.2820  0.1322  0.3055
12265SOL    HW141251   3.820   4.353   6.173  0.7009  0.1204 -0.0383
12265SOL    HW241252   3.705   4.333   6.076 -0.8367 -0.2169  1.7875
12266SOL     OW41253   1.194   1.293   5.814  0.2798  0.6287  0.0058
12266SOL    HW141254   1.223   1.211   5.775 -2.7227 -0.0623 -1.0303
12266SOL    HW241255   1.163   1.268   5.901  0.2563  0.8600  0.0646
12267SOL     OW41256  10.600   1.781   1.130 -0.1944  0.2946 -0.1212
12267SOL    HW141257  10.564   1.809   1.046  0.3249  1.7502  0.1283
12267SOL    HW241258  10.553   1.832   1.196  1.8775  1.8763  0.2454
12268SOL     OW41259   0.835  10.367   0.572 -0.4201 -0.3029  0.2284
12268SOL    HW141260   0.781  10.289   0.563  0.2077 -0.9663  1.9124
12268SOL    HW241261   0.906  10.356   0.509 -1.9079  0.3539 -1.6694
12269SOL     OW41262   4.621   0.350   7.975  0.2771  0.3222  0.3211
12269SOL    HW141263   4.591   0.266   8.009  2.3901 -0.2018  1.0544
12269SOL    HW241264   4.547   0.383   7.924 -1.1221 -1.2897  1.1956
12270SOL     OW41265  10.731   6.862   2.414 -0.4510  0.3680 -0.1659
12270SOL    HW141266  10.724   6.767   2.422  1.2306  0.2120 -0.2441
12270SOL    HW241267  10.640   6.893   2.416 -1.0745 -1.3036 -1.0276
12271SOL     OW41268   5.311  10.180   2.465 -0.8018 -0.1716 -0.1435
12271SOL    HW141269   5.217  10.196   2.454 -1.0647  0.9595  2.7581
12271SOL    HW241270   5.315  10.112   2.532  0.4487  0.2363  0.2216
12272SOL     OW41271  10.753   3.316  10.428  0.4471  0.1390  0.7078
12272SOL    HW141272  10.730   3.301  10.337  0.3660  0.6334  0.6438
12272SOL    HW241273  10.792   3.404  10.429  0.4585  0.1308  1.1440
12273SOL     OW41274   1.289   3.523   7.671  0.2931 -0.2182  0.1989
12273SOL    HW141275   1.351   3.501   7.741  0.9444  1.9055  0.3594
12273SOL    HW241276   1.310   3.462   7.601  2.0503 -0.1081  0.5637
12274SOL     OW41277   5.880   8.266   7.396 -0.0253 -0.3480  0.2904
12274SOL    HW141278   5.834   8.206   7.456  1.0562 -0.2411  1.2675
12274SOL    HW241279   5.931   8.208   7.339 -0.3809 -0.4169  0.0385
12275SOL     OW41280  10.136   3.282   2.056  0.3371 -0.3896  0.2586
12275SOL    HW141281  10.163   3.272   2.148 -0.0054 -0.5499  0.3450
12275SOL    HW241282  10.044   3.257   2.056  0.3203 -0.3276 -0.1213
12276SOL     OW41283  10.597   4.110   3.226 -0.1762  1.4732  0.1558
12276SOL    HW141284  10.552   4.034   3.189 -0.4027  1.6104  0.1480
12276SOL    HW241285  10.667   4.130   3.163  0.5349  0.6504  0.6550
12277SOL     OW41286   7.277   4.793   4.722  0.0592 -0.0892  0.3334
12277SOL    HW141287   7.311   4.727   4.661  0.4195  0.0863  0.3449
12277SOL    HW241288   7.349   4.855   4.733 -0.7776  1.1647 -0.8649
12278SOL     OW41289   1.860   5.396   6.586  0.0010  0.7169  0.3405
12278SOL    HW141290   1.853   5.491   6.596 -2.0373  0.6728 -0.2397
12278SOL    HW241291   1.784   5.361   6.632  1.1538 -0.7098  1.2184
12279SOL     OW41292   5.634   0.988   9.315 -0.1330 -0.5928 -0.2719
12279SOL    HW141293   5.549   0.976   9.272  0.2560  0.9799 -1.6307
12279SOL    HW241294   5.698   0.958   9.250  0.3733 -3.3309  1.3604
12280SOL     OW41295   4.673   6.788   4.650  0.2521  0.0159  0.0277
12280SOL    HW141296   4.684   6.694   4.667 -1.5863 -0.2776 -0.2199
12280SOL    HW241297   4.582   6.796   4.621 -0.1910  2.1304  1.7805
12281SOL     OW41298   7.283   1.983   8.939  0.2869  0.0890  0.1727
12281SOL    HW141299   7.228   1.935   9.001 -0.2239 -2.1964 -1.9197
12281SOL    HW241300   7.222   2.039   8.891  0.3708  0.2519  0.2512
12282SOL     OW41301   1.661   5.971   7.426 -0.1400 -0.3538  0.7514
12282SOL    HW141302   1.640   5.878   7.412 -0.8746 -0.0738 -0.1457
12282SOL    HW241303   1.615   5.994   7.506  0.0828 -0.7743  1.0041
12283SOL     OW41304   2.922   8.783   3.881 -0.3925 -0.2738  0.6117
12283SOL    HW141305   3.002   8.780   3.827 -1.5031  1.4389 -1.2569
12283SOL    HW241306   2.871   8.707   3.852 -1.0479  0.7143 -0.9699
12284SOL     OW41307   2.998   5.609   1.209  0.0078 -0.0638  0.4397
12284SOL    HW141308   2.948   5.552   1.267  1.0211 -1.7720 -0.2927
12284SOL    HW241309   2.943   5.617   1.131  0.3565 -1.0419  0.0743
12285SOL     OW41310   5.239   2.826   7.086  0.1146  0.0904  0.0562
12285SOL    HW141311   5.171   2.776   7.131 -0.6270 -0.0155 -1.1114
12285SOL    HW241312   5.240   2.789   6.997  3.1728 -1.3566  0.5620
12286SOL     OW41313   9.942   5.967   6.229  0.0295 -0.3785 -0.3795
12286SOL    HW141314   9.993   6.047   6.220 -1.4053  0.5451 -0.6406
12286SOL    HW241315   9.957   5.939   6.320  0.0146  0.5815 -0.0690
12287SOL     OW41316   2.465   1.864   6.096 -0.2810  0.2526 -0.4316
12287SOL    HW141317   2.408   1.933   6.131 -0.2681  0.2515 -0.4085
12287SOL    HW241318   2.407   1.789   6.083 -0.3466  0.3515 -0.7061
12288SOL     OW41319   1.855   0.257   6.401  0.3752  0.0505  0.2324
12288SOL    HW141320   1.901   0.231   6.321  0.6110  0.7154  0.1435
12288SOL    HW241321   1.832   0.348   6.386  3.2654  1.2609  2.1674
12289SOL     OW41322   0.528   0.831   2.987 -0.0195  0.9297 -0.3327
12289SOL    HW141323   0.499   0.831   3.078 -1.0336  0.6170 -0.6454
12289SOL    HW241324   0.464   0.777   2.941  1.7689 -0.9077 -0.8373
12290SOL     OW41325   2.575   1.509   7.780  0.2112  0.0121  0.7660
12290SOL    HW141326   2.633   1.465   7.717  0.5161  1.2707  0.1306
12290SOL    HW241327   2.633   1.566   7.830 -0.4351  1.2414  0.1675
12291SOL     OW41328   8.582   8.246   3.189  0.3532 -0.7101  0.6855
12291SOL    HW141329   8.627   8.315   3.237 -0.0987  0.1712 -0.1195
12291SOL    HW241330   8.489   8.268   3.198  0.2830  1.2567 -2.9969
12292SOL     OW41331   0.814   6.783   3.268 -0.2698 -0.5175 -0.0026
12292SOL    HW141332   0.763   6.756   3.191 -0.8131  2.1681 -0.7084
12292SOL    HW241333   0.748   6.798   3.336  0.0746 -1.4546  0.5619
12293SOL     OW41334   1.399  10.948   3.408  0.6801  1.0347 -0.1956
12293SOL    HW141335   1.332  11.011   3.436 -0.3097 -0.9435  2.3129
12293SOL    HW241336   1.463  10.947   3.479  0.4394 -1.0385  0.0542
12294SOL     OW41337   2.554   8.147   6.878 -0.1427 -0.0800 -0.1300
12294SOL    HW141338   2.468   8.140   6.836 -0.3207  0.7454  0.0834
12294SOL    HW241339   2.614   8.165   6.806 -0.4468  1.3323 -0.0488
12295SOL     OW41340   8.417   7.157   0.623 -0.1053  0.3681  0.3612
12295SOL    HW141341   8.342   7.174   0.679  0.1670  0.3109  0.7460
12295SOL    HW241342   8.407   7.218   0.550  0.1139  1.2066  1.0188
12296SOL     OW41343  10.325   7.243   9.792  0.3957 -0.6096  0.2279
12296SOL    HW141344  10.336   7.151   9.817 -0.5173 -0.9917 -0.7187
12296SOL    HW241345  10.336   7.291   9.874  0.1504 -1.6101  0.8683
12297SOL     OW41346   8.026  10.252  10.486  1.2462 -0.2679  0.1759
12297SOL    HW141347   8.063  10.324  10.537  0.5497  0.2789 -0.0721
12297SOL    HW241348   8.054  10.173  10.532  2.3258  0.1424  0.2480
12298SOL     OW41349   2.301   9.385   8.394 -0.3636  0.3214  0.0297
12298SOL    HW141350   2.369   9.341   8.446 -1.0319 -0.9654 -0.1373
12298SOL    HW241351   2.222   9.379   8.447 -0.6875  0.4302 -0.4278
12299SOL     OW41352  10.133   3.514   8.602  0.8425  0.1703 -0.1785
12299SOL    HW141353  10.226   3.527   8.620  1.0896  1.2746 -1.9811
12299SOL    HW241354  10.131   3.471   8.516 -0.3075  0.6880 -0.4308
12300SOL     OW41355  10.249   8.426   4.714  0.1375 -0.2471  0.4304
12300SOL    HW141356  10.229   8.519   4.705  2.6175  0.2921 -0.1500
12300SOL    HW241357  10.290   8.418   4.800 -1.1115 -1.0520  0.9851
12301SOL     OW41358   5.154   6.332   4.095  0.1992  0.4977  0.1422
12301SOL    HW141359   5.070   6.287   4.079 -0.5759  1.4305  1.3600
12301SOL    HW241360   5.186   6.293   4.177  0.6758  0.5639 -0.0098
12302SOL     OW41361   4.860   4.863   3.491  0.4225  0.8088  0.0817
12302SOL    HW141362   4.940   4.847   3.441 -0.5632 -2.4175 -0.6793
12302SOL    HW241363   4.882   4.835   3.580  0.1302 -0.2722 -0.1715
12303SOL     OW41364   2.381   6.851   0.338  0.1848  0.1229  0.0784
12303SOL    HW141365   2.436   6.890   0.269  1.6863 -0.8827  0.6457
12303SOL    HW241366   2.399   6.757   0.332 -1.6458 -0.2699  0.1936
12304SOL     OW41367   9.501   0.849   4.629  0.3394  0.1128  0.0039
12304SOL    HW141368   9.483   0.905   4.553 -1.0000 -0.0329  0.1884
12304SOL    HW241369   9.455   0.891   4.701 -0.6409 -1.1635  0.1564
12305SOL     OW41370   5.838   8.908   8.260 -0.0600  0.7538 -0.2649
12305SOL    HW141371   5.807   8.944   8.177 -0.0326  0.2910 -0.4759
12305SOL    HW241372   5.758   8.877   8.304  0.0202  0.2141 -0.4961
12306SOL     OW41373   9.376   6.320   5.395 -0.1650  0.1537  0.4302
12306SOL    HW141374   9.348   6.408   5.416 -0.9987 -0.1281  0.5369
12306SOL    HW241375   9.295   6.273   5.374  0.2244 -0.6808  0.7273
12307SOL     OW41376   8.410   0.654   7.634 -0.6179  0.1491 -0.6561
12307SOL    HW141377   8.425   0.735   7.682 -0.4417  0.2368 -0.8572
12307SOL    HW241378   8.495   0.610   7.632 -0.8589 -0.3637  0.0288
12308SOL     OW41379   1.598   1.705   6.089 -0.7776 -0.1750  0.1276
12308SOL    HW141380   1.615   1.611   6.080  0.9115  0.1547 -0.6236
12308SOL    HW241381   1.629   1.727   6.176 -0.0367 -0.1211 -0.1389
12309SOL     OW41382   5.752   8.546   7.504 -0.0166  0.2889  0.3892
12309SOL    HW141383   5.739   8.475   7.566 -0.3141  0.3772  0.4305
12309SOL    HW241384   5.834   8.524   7.459  0.2676  0.2925  0.8948
12310SOL     OW41385   9.878   0.226   0.698 -0.0495  0.1264 -0.2263
12310SOL    HW141386   9.955   0.175   0.722 -0.8219 -0.8584  0.2200
12310SOL    HW241387   9.813   0.161   0.673 -0.9786  0.9119  0.0951
12311SOL     OW41388   5.109   7.266   5.203  0.3858 -0.2393 -0.3628
12311SOL    HW141389   5.033   7.320   5.223  1.0433  0.2276  0.9929
12311SOL    HW241390   5.138   7.296   5.117  0.7985  1.7025  0.4039
12312SOL     OW41391   6.318   1.907   0.508  0.0867  0.0624 -0.1094
12312SOL    HW141392   6.379   1.938   0.441 -0.0710  2.9178  0.9612
12312SOL    HW241393   6.348   1.818   0.528  1.7769  0.1338 -2.0025
12313SOL     OW41394   0.110  10.866   4.605 -0.6905 -0.6129  0.3821
12313SOL    HW141395   0.042  10.799   4.597 -1.6469  0.4002 -0.2748
12313SOL    HW241396   0.111  10.910   4.520  1.1429 -0.9044  0.2079
12314SOL     OW41397   6.243   6.072  10.438 -0.1089  0.1814 -0.4421
12314SOL    HW141398   6.277   5.992  10.397 -2.2297 -0.7958 -0.4416
12314SOL    HW241399   6.244   6.053  10.532  0.5131  0.6425 -0.3511
12315SOL     OW41400   1.663  10.384   7.143  0.7080 -0.8124 -0.3449
12315SOL    HW141401   1.748  10.398   7.185  1.1890 -1.1812 -1.1683
12315SOL    HW241402   1.599  10.408   7.210  1.4589 -0.4866  0.2745
12316SOL     OW41403   2.389   9.688   8.489 -0.2938 -0.0174 -0.2931
12316SOL    HW141404   2.421   9.599   8.505  0.3452  0.4609  1.2541
12316SOL    HW241405   2.295   9.677   8.472  0.2209 -1.2257 -2.8282
12317SOL     OW41406   3.688   7.901   7.624 -0.0934 -0.0069  0.0089
12317SOL    HW141407   3.667   7.838   7.694  0.1357 -1.8402 -1.4799
12317SOL    HW241408   3.622   7.883   7.557  1.4080 -0.3425 -1.4386
12318SOL     OW41409  10.872   6.305   2.880 -0.1891 -0.2106 -0.2515
12318SOL    HW141410  10.784   6.301   2.843  0.0128 -1.2914 -0.6339
12318SOL    HW241411  10.877   6.392   2.921 -1.7657 -0.5110  0.6403
12319SOL     OW41412   6.438   7.569   1.134  0.1066 -0.0887 -0.0036
12319SOL    HW141413   6.506   7.622   1.093 -0.4311 -0.8816 -2.1050
12319SOL    HW241414   6.383   7.631   1.180  0.8173  0.8774 -0.4251
12320SOL     OW41415   6.209   5.572   2.126  0.2047  0.3125  0.0094
12320SOL    HW141416   6.261   5.637   2.078 -0.1153  0.2559 -0.4206
12320SOL    HW241417   6.152   5.625   2.182  0.6030  0.3782  0.3551
12321SOL     OW41418  10.397   3.912   3.314  0.7795  0.1728  0.3823
12321SOL    HW141419  10.465   3.872   3.259  0.8748 -0.2634  0.8132
12321SOL    HW241420  10.446   3.956   3.384  0.6587  0.7038  0.1350
12322SOL     OW41421   2.341  10.565  10.415 -0.4356  1.0379 -0.0420
12322SOL    HW141422   2.323  10.491  10.357  0.4715  0.6093  0.2061
12322SOL    HW241423   2.350  10.640  10.357  0.9172  0.5339 -0.5242
12323SOL     OW41424   8.223   5.160   8.032 -0.0502 -0.1989 -0.1398
12323SOL    HW141425   8.199   5.249   8.056 -1.0868 -0.1193 -1.3455
12323SOL    HW241426   8.210   5.108   8.111  1.8809  0.9173  0.9699
12324SOL     OW41427   0.155   6.731   1.897 -0.2477  0.5278  0.2314
12324SOL    HW141428   0.186   6.751   1.985  1.5640  1.7546 -0.6306
12324SOL    HW241429   0.060   6.742   1.902  0.0627  3.8306  1.3180
12325SOL     OW41430   6.226   5.844   4.690 -0.4059  0.5799 -0.1268
12325SOL    HW141431   6.188   5.791   4.619 -1.0986  0.4361  0.3377
12325SOL    HW241432   6.177   5.818   4.768  1.9142 -0.9993  0.9077
12326SOL     OW41433   4.258   8.852   0.072  0.6410 -0.0026 -0.0412
12326SOL    HW141434   4.186   8.814   0.123  0.0328 -0.4371 -1.1806
12326SOL    HW241435   4.320   8.779   0.062  0.2776 -0.2206 -0.7733
12327SOL     OW41436   3.316   4.570   6.151  0.4249 -0.0312 -0.2809
12327SOL    HW141437   3.393   4.625   6.134  0.6572 -0.4052 -0.4517
12327SOL    HW241438   3.304   4.573   6.246  2.5109 -2.4099  0.1658
12328SOL     OW41439   5.633   7.201   0.815 -0.2742  0.3560  0.3361
12328SOL    HW141440   5.638   7.107   0.797 -0.8172  0.4943 -0.5978
12328SOL    HW241441   5.554   7.230   0.770 -1.2115  0.9217  2.2373
12329SOL     OW41442   4.788  10.417   9.305  0.7805  0.3011 -0.4529
12329SOL    HW141443   4.796  10.500   9.351  1.3325  0.1727 -0.3138
12329SOL    HW241444   4.828  10.353   9.364 -2.4892 -0.6415  0.9687
12330SOL     OW41445  10.997  10.702   0.683  0.0914 -0.5412 -0.4599
12330SOL    HW141446  10.902  10.696   0.690  0.0469  0.4258 -0.0343
12330SOL    HW241447  11.030  10.631   0.737 -0.3880 -1.0836 -0.8679
12331SOL     OW41448  10.129   4.880   0.484 -0.1370 -0.1589 -0.2213
12331SOL    HW141449  10.141   4.818   0.555  2.5011  0.9564  0.4184
12331SOL    HW241450  10.121   4.965   0.527  0.3129  0.3941 -1.1969
12332SOL     OW41451   3.058   0.885   4.259 -0.1514 -0.2604  0.5103
12332SOL    HW141452   3.029   0.968   4.221 -2.5796 -1.4249 -0.4023
12332SOL    HW241453   2.977   0.840   4.282  1.1347 -1.9020  2.1026
12333SOL     OW41454   7.137   0.815   1.207  0.6705 -0.0082 -0.6062
12333SOL    HW141455   7.208   0.785   1.264 -0.5119 -1.8599  0.0039
12333SOL    HW241456   7.069   0.748   1.217 -1.2356  1.7624 -1.0395
12334SOL     OW41457   1.975   9.894   8.146  0.2563  0.4495  0.2728
12334SOL    HW141458   2.046   9.958   8.135  0.4325  0.0419 -1.1049
12334SOL    HW241459   1.939   9.913   8.233  0.2196  2.4964 -0.1572
12335SOL     OW41460   8.527   4.862  10.170  0.0618 -0.2983  0.7469
12335SOL    HW141461   8.615   4.825  10.168  0.3063  0.2761 -0.7511
12335SOL    HW241462   8.535   4.939  10.226  0.5992 -0.0734  0.3749
12336SOL     OW41463   1.490   9.228   5.476 -0.2376  0.5195  0.4899
12336SOL    HW141464   1.446   9.313   5.480  1.8835  1.8127 -1.0534
12336SOL    HW241465   1.549   9.229   5.551 -0.7043  0.0934  0.8648
12337SOL     OW41466   6.706   3.903   5.736  0.0095 -0.0380  0.1942
12337SOL    HW141467   6.652   3.856   5.672 -1.2294 -0.2344  1.3514
12337SOL    HW241468   6.715   3.991   5.700 -1.8524  0.2617  0.3879
12338SOL     OW41469   6.567  10.186   1.478  0.1270  0.1499  0.1711
12338SOL    HW141470   6.511  10.176   1.555 -0.1242 -1.8271 -0.2128
12338SOL    HW241471   6.656  10.186   1.513  0.1593 -3.1418  0.3998
12339SOL     OW41472   1.250   3.997   8.474  0.0489 -0.4692 -0.2079
12339SOL    HW141473   1.302   4.077   8.470  0.7340 -0.9305 -0.5756
12339SOL    HW241474   1.189   4.012   8.547 -1.7082  1.5051 -1.9378
12340SOL     OW41475   9.677   1.180   7.246 -0.5527  0.0765  0.0615
12340SOL    HW141476   9.609   1.183   7.179 -0.0174  2.3471 -0.4785
12340SOL    HW241477   9.681   1.270   7.280  0.7383 -0.4981  1.5565
12341SOL     OW41478   3.766   5.365   8.029 -0.4037  0.1559 -0.5146
12341SOL    HW141479   3.777   5.397   7.939 -1.0310 -0.3727 -0.7902
12341SOL    HW241480   3.850   5.381   8.071  0.7361 -1.8012 -1.8858
12342SOL     OW41481   7.128   1.181  10.960  0.6637  0.1978 -0.1866
12342SOL    HW141482   7.136   1.110  10.896  2.5422 -1.4825  1.7725
12342SOL    HW241483   7.099   1.138  11.040  0.3557  1.9184  0.6694
12343SOL     OW41484   3.848   4.190   9.541 -0.1450  0.3877  0.3872
12343SOL    HW141485   3.801   4.142   9.473 -0.1759  1.6065 -0.4825
12343SOL    HW241486   3.879   4.122   9.601 -1.2574 -0.5971 -0.1177
12344SOL     OW41487   3.446   5.667   7.309  0.0451  0.0736 -0.3333
12344SOL    HW141488   3.422   5.577   7.332  0.8630 -0.5924 -1.9319
12344SOL    HW241489   3.522   5.658   7.251  0.6121  1.8413  0.0525
12345SOL     OW41490   3.424   0.365   2.252  0.9392  0.4870  0.0319
12345SOL    HW141491   3.357   0.412   2.302  1.1112  0.8583 -0.0859
12345SOL    HW241492   3.456   0.428   2.189 -0.8655 -0.6241 -2.1403
12346SOL     OW41493  10.418   9.028   2.972  0.5267 -0.1458  0.2855
12346SOL    HW141494  10.472   8.962   3.015  1.6318  1.1237  0.9045
12346SOL    HW241495  10.359   9.060   3.040  1.0613  0.5968  0.4152
12347SOL     OW41496   4.487   3.010   8.103  0.0176  0.2883 -0.2875
12347SOL    HW141497   4.537   2.948   8.156 -1.4535 -0.7447 -0.0350
12347SOL    HW241498   4.544   3.086   8.094  1.0903 -0.3137  1.0881
12348SOL     OW41499   7.403   5.473   5.620 -0.4531  0.0832 -0.5407
12348SOL    HW141500   7.440   5.488   5.707 -1.5621 -0.5818  0.0696
12348SOL    HW241501   7.328   5.415   5.635 -0.0251 -0.9351 -2.0638
12349SOL     OW41502   3.388   2.995   2.919 -0.0857  0.1411 -0.2213
12349SOL    HW141503   3.382   3.024   2.828 -0.3970 -1.4186 -0.7195
12349SOL    HW241504   3.364   3.073   2.971  2.8669  1.9470 -1.3124
12350SOL     OW41505  10.823   4.417   4.523 -0.3797  0.5959  0.2774
12350SOL    HW141506  10.818   4.332   4.479 -0.4109  0.5896  0.2925
12350SOL    HW241507  10.807   4.481   4.454 -0.4936  0.5830  0.2915
12351SOL     OW41508   5.434   1.039   3.858 -0.1727  0.3763 -0.2152
12351SOL    HW141509   5.352   1.004   3.822  0.4611 -1.4885  0.0486
12351SOL    HW241510   5.414   1.054   3.951  0.4859 -2.8562  0.5890
12352SOL     OW41511   2.601   0.728   6.222 -0.4997  0.3433  0.0954
12352SOL    HW141512   2.539   0.773   6.280 -0.7023  0.1477  0.0305
12352SOL    HW241513   2.645   0.665   6.279 -1.9047 -1.0635 -0.2987
12353SOL     OW41514   6.686   9.520   5.592 -0.2847  0.1551 -0.4499
12353SOL    HW141515   6.693   9.425   5.591 -1.8608  0.0185 -1.6103
12353SOL    HW241516   6.592   9.538   5.598 -0.0029  1.6491  0.0120
12354SOL     OW41517   9.603   2.428   5.963  0.4545  0.0530 -0.0066
12354SOL    HW141518   9.606   2.336   5.936  2.0021  0.2926 -0.8300
12354SOL    HW241519   9.572   2.474   5.885 -3.5291  0.0044  1.3685
12355SOL     OW41520   0.163   6.923   3.580  0.1164 -0.2673  0.7461
12355SOL    HW141521   0.173   6.893   3.670  0.5289 -1.0782  0.4357
12355SOL    HW241522   0.070   6.945   3.573 -0.5240 -2.6582  0.6560
12356SOL     OW41523   2.133   8.074  10.102  0.2864 -0.0157 -0.9233
12356SOL    HW141524   2.130   7.979  10.107  0.9187  0.0047  0.2863
12356SOL    HW241525   2.043   8.101  10.084  0.4109 -0.8990 -3.1310
12357SOL     OW41526   3.584   1.963   8.846 -0.0648 -0.3639  0.4625
12357SOL    HW141527   3.617   2.046   8.881  0.4836  0.0614 -0.9896
12357SOL    HW241528   3.490   1.964   8.865  0.1893 -0.1226  1.8012
12358SOL     OW41529   8.145   6.380   3.021  0.3503  0.4630  0.4492
12358SOL    HW141530   8.096   6.457   3.049  0.6332  0.4347  1.0537
12358SOL    HW241531   8.097   6.306   3.058 -0.7506  0.2311 -1.3612
12359SOL     OW41532   8.500  10.111   8.948  0.0197 -0.3155  0.2664
12359SOL    HW141533   8.521  10.092   9.040 -1.7816 -0.1635  0.7608
12359SOL    HW241534   8.404  10.117   8.947  0.0618  0.5261 -1.4747
12360SOL     OW41535   5.180   6.863   3.168 -0.7309  0.0716  0.1437
12360SOL    HW141536   5.113   6.802   3.137  1.9776 -2.0594 -2.0641
12360SOL    HW241537   5.229   6.814   3.234 -0.4668  1.0945  0.7367
12361SOL     OW41538   8.989   7.750   9.276  1.0557  0.3301 -0.5285
12361SOL    HW141539   8.965   7.690   9.205  0.2531  0.2544 -0.2102
12361SOL    HW241540   8.929   7.824   9.267  0.2972 -0.1088  0.6181
12362SOL     OW41541   1.874   5.854   7.992  0.0381  0.1363  0.5444
12362SOL    HW141542   1.785   5.832   7.966  0.1180  0.2539  0.1725
12362SOL    HW241543   1.929   5.824   7.920  0.3606 -0.4907  1.0455
12363SOL     OW41544   9.449   5.634   1.756  0.4403  0.6712  0.4251
12363SOL    HW141545   9.506   5.711   1.759 -0.3090  1.2073  1.2943
12363SOL    HW241546   9.360   5.670   1.762  0.0184 -0.1756 -0.5245
12364SOL     OW41547   2.056   5.676   2.470  0.1701  0.5950 -0.2219
12364SOL    HW141548   2.091   5.742   2.411 -0.3469  1.5902  0.5611
12364SOL    HW241549   1.961   5.686   2.466  0.0871 -0.0016  0.0282
12365SOL     OW41550   1.860   9.127   8.853 -0.6904 -0.6354  0.1103
12365SOL    HW141551   1.947   9.108   8.886 -0.8160 -0.1896  0.7197
12365SOL    HW241552   1.874   9.195   8.787 -0.3926 -1.8307 -1.0922
12366SOL     OW41553   4.082   7.472   2.437 -0.5817 -0.6782  0.2054
12366SOL    HW141554   4.126   7.489   2.520 -1.3714 -1.0717  0.7213
12366SOL    HW241555   4.007   7.533   2.436  0.2718  0.4132 -0.9336
12367SOL     OW41556   2.103   7.667   9.098 -0.2372  0.4857  0.1478
12367SOL    HW141557   2.155   7.612   9.157 -1.1304 -0.6867 -0.1106
12367SOL    HW241558   2.026   7.614   9.078 -1.4762  2.1018  0.4032
12368SOL     OW41559   3.597   4.194   5.667 -0.3156  0.1418 -0.0204
12368SOL    HW141560   3.547   4.214   5.588 -1.5990  1.7618  1.1308
12368SOL    HW241561   3.641   4.276   5.690 -0.4937 -0.0975  1.2831
12369SOL     OW41562   8.809   0.874   8.898 -0.1789 -0.2942  0.0372
12369SOL    HW141563   8.901   0.872   8.927 -0.9274  1.9769  3.1153
12369SOL    HW241564   8.760   0.896   8.977 -3.2046  0.5809 -1.9258
12370SOL     OW41565   3.913   9.063   5.770  0.0159 -0.0093 -0.3181
12370SOL    HW141566   4.005   9.083   5.755  0.1652  2.1745  2.6314
12370SOL    HW241567   3.915   8.986   5.828  0.0248  0.3301  0.1374
12371SOL     OW41568   8.357   9.629  10.529 -0.5337  0.0916  0.4753
12371SOL    HW141569   8.340   9.605  10.621  0.6006 -0.8568  0.4609
12371SOL    HW241570   8.400   9.714  10.534  2.4756 -1.3292  1.1125
12372SOL     OW41571   9.974   2.965   0.203 -0.0165  0.3519 -0.6993
12372SOL    HW141572  10.063   2.992   0.177  0.3683  0.5992  0.7951
12372SOL    HW241573   9.919   3.039   0.177  0.4897  0.9839 -0.0563
12373SOL     OW41574   6.667   6.285   3.863 -0.2310  0.0892 -0.3268
12373SOL    HW141575   6.584   6.317   3.896 -0.2937 -0.9128  0.5294
12373SOL    HW241576   6.697   6.222   3.928  1.7649  1.2548 -0.0296
12374SOL     OW41577   9.922   5.831   1.316 -0.0141 -0.6995  0.2556
12374SOL    HW141578   9.988   5.772   1.352  2.1513  0.5888 -1.3471
12374SOL    HW241579   9.875   5.778   1.251 -0.7805 -1.6881  1.5645
12375SOL     OW41580  10.198   9.824   7.094  0.3452  0.2355  0.2121
12375SOL    HW141581  10.160   9.883   7.159  0.1772 -0.4591  0.7575
12375SOL    HW241582  10.142   9.746   7.096  0.2553  0.2623 -0.8727
12376SOL     OW41583   5.031   5.427   9.390 -0.1578  0.2734 -0.5348
12376SOL    HW141584   5.088   5.401   9.318  1.5217 -0.4711  0.9845
12376SOL    HW241585   5.071   5.387   9.467 -1.1802  2.0823  1.0018
12377SOL     OW41586   2.160   2.726   4.425  0.4076 -0.0904 -0.3913
12377SOL    HW141587   2.072   2.762   4.438  0.0279 -1.2936  0.4975
12377SOL    HW241588   2.209   2.798   4.386 -0.7711  0.8440 -0.2181
12378SOL     OW41589   4.044   2.233   9.638  0.5252 -0.5998 -0.2148
12378SOL    HW141590   4.042   2.313   9.690  2.0567  0.2755 -1.4390
12378SOL    HW241591   3.955   2.226   9.601  0.9380  1.8130 -1.9029
12379SOL     OW41592   7.622   1.198   1.954 -0.1730 -0.4507 -0.2036
12379SOL    HW141593   7.652   1.290   1.954  1.0984 -0.8250 -1.3549
12379SOL    HW241594   7.642   1.167   2.042 -0.1270  0.2295  0.0369
12380SOL     OW41595  11.010   1.168   9.745 -0.6594 -0.4648  0.2310
12380SOL    HW141596  11.080   1.136   9.688 -1.7663  1.4375 -2.4034
12380SOL    HW241597  10.958   1.090   9.765  0.4206 -1.3872 -0.4210
12381SOL     OW41598   9.957   1.485   8.958  0.2418 -0.5764  0.1582
12381SOL    HW141599   9.974   1.447   8.871 -0.9292 -0.2417 -0.2390
12381SOL    HW241600   9.953   1.410   9.017  0.0203 -0.8926 -0.2567
12382SOL     OW41601   5.242   3.768   5.948  0.1152  0.2186  0.0264
12382SOL    HW141602   5.291   3.727   5.877 -0.6971  0.0547 -0.4514
12382SOL    HW241603   5.284   3.852   5.961 -0.3161  0.6828 -1.3336
12383SOL     OW41604   5.351   1.393   8.168 -0.5288  0.2654  0.2295
12383SOL    HW141605   5.258   1.400   8.146 -0.9132 -3.2620  0.0938
12383SOL    HW241606   5.353   1.390   8.264 -0.6329 -0.2810  0.2157
12384SOL     OW41607   9.236   9.335  10.955 -0.3137 -0.2036  0.0764
12384SOL    HW141608   9.318   9.323  11.001 -0.3395 -0.7407 -0.0058
12384SOL    HW241609   9.195   9.410  10.997 -0.2592 -0.5749  0.8197
12385SOL     OW41610   2.054   1.906   8.542 -0.5299 -0.3472 -0.7135
12385SOL    HW141611   2.060   1.871   8.453 -0.9864  0.3437 -1.0213
12385SOL    HW241612   2.034   1.999   8.530  0.3410 -0.0368  0.0920
12386SOL     OW41613   9.954   1.258   9.137  0.2673  0.5105 -0.3390
12386SOL    HW141614  10.035   1.261   9.188  0.5776  0.0237 -0.7999
12386SOL    HW241615   9.971   1.195   9.067 -0.1956  1.0864 -0.9868
12387SOL     OW41616   2.417  10.559   3.539 -0.0761 -0.6184 -0.1563
12387SOL    HW141617   2.423  10.518   3.625  0.3752 -0.4422 -0.1028
12387SOL    HW241618   2.432  10.652   3.555 -1.7304 -0.3046 -0.1854
12388SOL     OW41619   5.604   6.151   0.835  0.4178  0.6014 -0.3126
12388SOL    HW141620   5.694   6.117   0.837 -0.2798 -1.5491 -1.7444
12388SOL    HW241621   5.572   6.128   0.748 -1.5875  1.1218  0.2515
12389SOL     OW41622   4.447  10.790   9.623  0.7156 -0.0930  0.4822
12389SOL    HW141623   4.511  10.782   9.553 -0.0892 -0.2006 -0.2635
12389SOL    HW241624   4.392  10.863   9.597 -0.8886 -1.4292 -0.0998
12390SOL     OW41625   0.419   4.581   1.482  0.3811  0.2394  0.0119
12390SOL    HW141626   0.477   4.552   1.554  0.6126 -0.5510 -0.4738
12390SOL    HW241627   0.478   4.592   1.408  0.5945  3.6671  0.5441
12391SOL     OW41628   5.253   4.559   3.432 -0.0255  0.2169 -0.0926
12391SOL    HW141629   5.258   4.608   3.350  2.9551  0.4695  0.1362
12391SOL    HW241630   5.190   4.489   3.414 -0.6140  1.1781 -2.0476
12392SOL     OW41631   6.733   1.298   7.604 -0.0990 -0.1528  0.4377
12392SOL    HW141632   6.772   1.331   7.523 -1.0344  1.5287  0.6288
12392SOL    HW241633   6.773   1.351   7.673 -0.9831 -0.0017  0.8451
12393SOL     OW41634   7.525   6.065   4.702 -0.3396  0.3339 -0.6496
12393SOL    HW141635   7.489   6.112   4.777 -2.3133 -0.0172 -1.3079
12393SOL    HW241636   7.458   5.998   4.682 -0.1070  0.7286 -2.9925
12394SOL     OW41637   9.176   9.420   8.373  0.3675  0.0297 -0.1994
12394SOL    HW141638   9.124   9.458   8.303  1.7591 -0.3735 -1.5096
12394SOL    HW241639   9.256   9.390   8.330  1.2084 -0.3702  1.5393
12395SOL     OW41640   2.065   4.290   1.537  0.3097  0.1939 -0.1461
12395SOL    HW141641   2.028   4.318   1.621  0.1111 -0.1308 -0.1228
12395SOL    HW241642   2.152   4.257   1.559 -0.2443 -1.1478  0.1468
12396SOL     OW41643   0.486   1.756  10.722  0.3757 -0.1095  0.2481
12396SOL    HW141644   0.505   1.790  10.810 -1.2029 -0.3508  0.7184
12396SOL    HW241645   0.559   1.699  10.702  1.7955  1.5273  0.5359
12397SOL     OW41646   9.998   2.935   2.530  0.3100  0.0756 -0.7001
12397SOL    HW141647  10.071   2.947   2.590  0.4662  2.2767 -1.2651
12397SOL    HW241648  10.038   2.917   2.445  0.0959 -2.2587 -0.3780
12398SOL     OW41649   4.688   8.266   5.425  0.0617 -0.8729  0.5001
12398SOL    HW141650   4.678   8.172   5.437 -0.2347 -0.9071 -0.0199
12398SOL    HW241651   4.618   8.291   5.365  0.3542 -0.3770  0.3607
12399SOL     OW41652   8.890   8.872   2.492 -0.3605  0.0279 -0.2054
12399SOL    HW141653   8.905   8.801   2.430  0.0721 -0.0475 -0.0219
12399SOL    HW241654   8.865   8.827   2.573 -0.0272  0.0830 -0.0724
12400SOL     OW41655   7.136   0.905   4.280  0.2592 -0.7852 -0.5371
12400SOL    HW141656   7.076   0.978   4.296  0.9342 -0.0720 -1.1397
12400SOL    HW241657   7.086   0.827   4.301 -0.9456 -0.2229 -1.2194
12401SOL     OW41658   1.457  10.000   4.744  0.2634  0.0179 -0.3666
12401SOL    HW141659   1.470   9.906   4.729  1.5736 -0.0387  0.9430
12401SOL    HW241660   1.534  10.028   4.792 -1.8364  0.9443  2.8124
12402SOL     OW41661   8.831   8.123  10.498  0.7476 -0.2171 -0.4164
12402SOL    HW141662   8.832   8.029  10.481  1.0596  0.0818 -2.2865
12402SOL    HW241663   8.791   8.161  10.420  1.8589  1.3069 -0.2824
12403SOL     OW41664   8.429   8.686   9.704 -0.0870 -0.0418 -0.3194
12403SOL    HW141665   8.524   8.688   9.717  0.1666 -2.5863 -1.2302
12403SOL    HW241666   8.393   8.681   9.792  0.7611 -1.0184 -0.0063
12404SOL     OW41667   8.255   6.560   0.162 -0.0204 -0.3353  0.1198
12404SOL    HW141668   8.246   6.655   0.175  0.8562 -0.2042 -0.1705
12404SOL    HW241669   8.174   6.524   0.197 -0.0656  0.4630  0.8817
12405SOL     OW41670   3.468   4.328  10.486 -0.3716 -0.3385 -0.0998
12405SOL    HW141671   3.406   4.256  10.478 -1.8051  0.9384 -0.9351
12405SOL    HW241672   3.429   4.387  10.551  0.0629  0.3554 -0.4475
12406SOL     OW41673   3.379   2.848   5.184  0.3271 -0.2443  0.2081
12406SOL    HW141674   3.383   2.927   5.238  0.9952  1.2159 -1.8584
12406SOL    HW241675   3.467   2.810   5.191  0.2133 -0.4354  0.6487
12407SOL     OW41676   4.319   3.326  10.312  0.0524 -0.4470  0.7012
12407SOL    HW141677   4.347   3.382  10.384  1.0381 -1.5263  1.1869
12407SOL    HW241678   4.397   3.315  10.258 -0.5842  0.0558 -0.3628
12408SOL     OW41679   5.306  10.936   3.745  0.5980  0.0996 -0.4833
12408SOL    HW141680   5.278  10.856   3.789 -0.2615  0.1729 -0.8735
12408SOL    HW241681   5.314  11.000   3.816 -2.6901  0.7597 -0.5421
12409SOL     OW41682   3.935   8.468   6.786 -0.1761  0.1466 -0.8240
12409SOL    HW141683   3.923   8.432   6.699  0.4294  0.7401 -1.1638
12409SOL    HW241684   3.966   8.557   6.772  1.5727 -0.2850 -0.0388
12410SOL     OW41685   9.504  10.387   2.390 -0.2418 -0.1646  0.2847
12410SOL    HW141686   9.431  10.339   2.429 -0.0213 -2.5159 -1.8776
12410SOL    HW241687   9.582  10.342   2.422 -0.0215 -1.2362 -1.5938
12411SOL     OW41688   1.535   4.238   2.546 -0.0940 -0.5095 -0.4177
12411SOL    HW141689   1.565   4.195   2.466  0.7575 -1.5429  0.4047
12411SOL    HW241690   1.549   4.331   2.530  3.4717 -0.8434 -0.2565
12412SOL     OW41691   4.759   0.584   9.938  0.1173 -0.0660 -0.0504
12412SOL    HW141692   4.692   0.652   9.931 -0.3949 -0.5492  0.0405
12412SOL    HW241693   4.716   0.505   9.905  0.0318 -0.7961  1.7259
12413SOL     OW41694   3.214  10.154   1.741 -0.4950  0.1488 -0.1040
12413SOL    HW141695   3.131  10.150   1.693 -0.1756 -1.9652 -0.5790
12413SOL    HW241696   3.277  10.111   1.683  1.0011  1.8477  0.1780
12414SOL     OW41697   4.859   9.142   7.641 -0.4374 -0.2608  0.0858
12414SOL    HW141698   4.834   9.065   7.692  2.1202 -0.0980  1.7826
12414SOL    HW241699   4.932   9.112   7.587  0.3787  0.8362  0.5257
12415SOL     OW41700   0.493  10.187   8.807 -0.0325  0.0915  0.2282
12415SOL    HW141701   0.535  10.119   8.859  0.1391  0.7607  0.9778
12415SOL    HW241702   0.424  10.141   8.759 -1.3138 -0.2712  2.3195
12416SOL     OW41703   5.098   4.722   2.841 -0.2887  0.0355  0.0532
12416SOL    HW141704   5.006   4.699   2.851 -0.4374 -0.2291 -1.5791
12416SOL    HW241705   5.105   4.811   2.873 -1.1216  0.0618  0.1643
12417SOL     OW41706   9.680   8.438   1.055 -0.1592  0.3848  0.2583
12417SOL    HW141707   9.772   8.462   1.057 -0.0821  0.0488  0.8548
12417SOL    HW241708   9.648   8.475   0.973  0.6508 -0.0377 -0.2647
12418SOL     OW41709   7.301   4.954  10.513  0.4585  0.7462  0.4097
12418SOL    HW141710   7.270   4.885  10.455  1.4442  2.0584 -1.7606
12418SOL    HW241711   7.366   5.002  10.462  0.8599  2.4068  2.3564
12419SOL     OW41712   4.164   6.702  10.084  0.4402  0.3062  0.1256
12419SOL    HW141713   4.091   6.691  10.145 -0.0598  1.4079 -0.2362
12419SOL    HW241714   4.173   6.617  10.041 -1.6705  0.5775 -0.9418
12420SOL     OW41715   2.070   4.119   6.944 -0.2620 -0.4174 -0.2292
12420SOL    HW141716   2.002   4.060   6.977 -0.0391  0.0280  1.0766
12420SOL    HW241717   2.130   4.130   7.018  1.5997 -1.3037 -1.5362
12421SOL     OW41718   1.104   8.521   4.731  0.8356  0.2309  0.3181
12421SOL    HW141719   1.031   8.495   4.675  0.2594  0.3332  1.0070
12421SOL    HW241720   1.079   8.608   4.764  1.8144  0.8000 -0.3693
12422SOL     OW41721   2.629   9.871   2.322  0.6764  0.4696 -0.2504
12422SOL    HW141722   2.599   9.962   2.320  0.9473  0.5487 -1.2439
12422SOL    HW241723   2.571   9.825   2.260  2.0396  0.4602 -1.5791
12423SOL     OW41724   1.715  10.133   4.781  0.3892  0.1081  0.3601
12423SOL    HW141725   1.733  10.227   4.779 -1.5289  0.5073  0.1321
12423SOL    HW241726   1.797  10.094   4.811  1.0948  1.8788  0.8801
12424SOL     OW41727  10.844   1.378   4.072  0.8618  0.5909  0.1175
12424SOL    HW141728  10.841   1.293   4.116  0.5977  0.1942 -0.6484
12424SOL    HW241729  10.937   1.400   4.069  0.9944 -0.0234 -0.3360
12425SOL     OW41730   4.506   4.177   4.532 -0.5228 -0.4509  0.1072
12425SOL    HW141731   4.517   4.084   4.551  1.1973 -0.1256  0.9986
12425SOL    HW241732   4.481   4.181   4.440  0.6927 -1.7593 -0.3126
12426SOL     OW41733   3.218   4.875   2.532 -0.2478 -0.0448  0.3292
12426SOL    HW141734   3.256   4.962   2.520 -0.6007  0.2341  1.1550
12426SOL    HW241735   3.128   4.883   2.500 -1.0313  0.5645  2.5351
12427SOL     OW41736   0.185  10.724   0.584 -0.0787 -0.1233 -0.1320
12427SOL    HW141737   0.093  10.710   0.607 -0.2469 -0.9738 -1.2586
12427SOL    HW241738   0.234  10.689   0.658 -0.6459 -0.4899  0.0771
12428SOL     OW41739   5.847   5.673   2.348 -0.3498  0.1902  0.8430
12428SOL    HW141740   5.922   5.706   2.298 -0.9326  1.2529  0.6458
12428SOL    HW241741   5.836   5.583   2.318 -0.7240  0.8125 -1.0066
12429SOL     OW41742   8.062  10.920   8.729  0.3066 -0.3007 -0.0959
12429SOL    HW141743   8.087  10.832   8.705  0.9527 -0.2226  0.2688
12429SOL    HW241744   7.989  10.908   8.791  0.2946 -0.5722 -0.1630
12430SOL     OW41745   3.875   7.596   0.000  1.0659  0.2743 -0.6004
12430SOL    HW141746   3.873   7.529   0.068  0.7669 -0.2590 -1.1271
12430SOL    HW241747   3.943   7.567  -0.061 -0.5117 -0.7168 -1.9749
12431SOL     OW41748   1.689   9.345   4.914 -0.1379 -0.2975  0.7018
12431SOL    HW141749   1.709   9.292   4.837 -0.7906 -0.6215  0.7399
12431SOL    HW241750   1.730   9.298   4.987  1.2142  0.4626  0.4633
12432SOL     OW41751   0.925   3.909   9.442 -0.1649 -0.4849 -0.0502
12432SOL    HW141752   0.964   3.957   9.369 -0.3512 -1.4931 -0.8270
12432SOL    HW241753   0.834   3.940   9.445 -0.0822 -0.2387 -0.0683
12433SOL     OW41754  10.711  10.151   6.968  0.0338  0.5963  0.5868
12433SOL    HW141755  10.789  10.207   6.964 -0.4470  1.3052  0.9188
12433SOL    HW241756  10.742  10.065   6.940  0.9545  0.8476  0.7882
12434SOL     OW41757   8.969   6.723   4.838 -0.2930 -0.4038  0.0628
12434SOL    HW141758   9.001   6.781   4.769  0.8017 -1.1172 -0.0417
12434SOL    HW241759   8.888   6.686   4.802 -0.5818  0.4336 -0.1840
12435SOL     OW41760   1.091   7.640   9.035 -0.2651  0.0755  0.3719
12435SOL    HW141761   1.080   7.593   8.953 -2.0804  0.6827  0.2267
12435SOL    HW241762   1.185   7.656   9.041  0.0187 -0.8488 -1.0772
12436SOL     OW41763   1.203   6.888  10.439 -0.5077 -0.4741  0.0639
12436SOL    HW141764   1.118   6.847  10.422  0.0946 -1.2864 -1.1371
12436SOL    HW241765   1.230   6.852  10.523 -1.1863 -0.5014  0.2771
12437SOL     OW41766   1.892   5.778   9.438  0.0824  0.1874 -0.6172
12437SOL    HW141767   1.908   5.764   9.532  2.8018 -1.0354 -1.1376
12437SOL    HW241768   1.804   5.744   9.423  0.5445 -2.0381  1.0964
12438SOL     OW41769   1.724   1.887   0.674  0.7325  0.0799 -0.0293
12438SOL    HW141770   1.699   1.918   0.587 -0.7097 -2.3198 -0.5345
12438SOL    HW241771   1.789   1.819   0.658  0.1130 -0.7059  0.7194
12439SOL     OW41772   6.840   2.502   7.267  0.3314  0.1040 -0.1854
12439SOL    HW141773   6.877   2.426   7.222 -0.0693  0.0642 -0.4501
12439SOL    HW241774   6.866   2.577   7.214  0.1923  0.0943 -0.2665
12440SOL     OW41775   3.362   7.009   2.596 -0.2845  0.0332  0.1514
12440SOL    HW141776   3.399   6.940   2.651  1.9386  1.5688  0.7012
12440SOL    HW241777   3.364   7.088   2.650 -3.1166  0.5350 -0.3280
12441SOL     OW41778   0.977   6.068   4.469  0.2997  0.1996 -0.3040
12441SOL    HW141779   0.900   6.119   4.445  0.2314 -0.2890 -1.1343
12441SOL    HW241780   1.049   6.108   4.420  0.4628  0.2353 -0.0424
12442SOL     OW41781   6.490   3.493   1.978  0.1528  0.3925 -0.1481
12442SOL    HW141782   6.549   3.456   2.043 -0.5176 -1.0891 -0.3448
12442SOL    HW241783   6.449   3.568   2.022 -0.0014 -0.3519  1.0004
12443SOL     OW41784   9.671  10.762   3.913 -0.2336 -0.0853 -0.2586
12443SOL    HW141785   9.757  10.783   3.877 -0.8578  1.0192 -1.1602
12443SOL    HW241786   9.660  10.824   3.986  1.0385 -2.3275  1.9968
12444SOL     OW41787   0.692   4.978   1.879  0.6237  0.3690  0.6627
12444SOL    HW141788   0.610   4.952   1.837  0.4579 -0.1796  1.3168
12444SOL    HW241789   0.748   4.901   1.873  1.6297  1.1816 -1.0387
12445SOL     OW41790   5.560   1.018   1.320  0.0498  0.5546 -0.8720
12445SOL    HW141791   5.557   0.998   1.226  2.9702  0.1873 -0.9815
12445SOL    HW241792   5.603   1.104   1.324 -2.8169  2.0664  0.0698
12446SOL     OW41793   3.545   9.557   6.653 -0.1847  0.0801 -0.3327
12446SOL    HW141794   3.501   9.546   6.569 -1.6695 -0.6590  0.4912
12446SOL    HW241795   3.518   9.644   6.683 -1.1836 -0.3934  0.1959
12447SOL     OW41796   5.092   9.172   1.813 -0.3481  0.0032 -0.2139
12447SOL    HW141797   5.056   9.188   1.900 -0.5969  0.3372 -0.3783
12447SOL    HW241798   5.186   9.159   1.828 -0.6419 -1.8132  0.3300
12448SOL     OW41799   7.520   9.218   0.727  0.0910 -0.5144 -0.3738
12448SOL    HW141800   7.572   9.248   0.652 -1.0405 -0.0575 -1.0050
12448SOL    HW241801   7.429   9.236   0.702 -0.2411  1.3099  1.8549
12449SOL     OW41802   6.651   2.436   0.993  0.3282 -0.1495 -0.0077
12449SOL    HW141803   6.595   2.363   0.968  0.0234  0.3942 -0.9444
12449SOL    HW241804   6.740   2.401   0.987  0.1515 -0.6801  0.3755
12450SOL     OW41805   1.940   2.684   5.008  0.0354  0.0506  0.7270
12450SOL    HW141806   2.016   2.626   5.012  0.2972  0.1992 -1.0728
12450SOL    HW241807   1.871   2.630   4.969  0.7074  1.2342 -2.4090
12451SOL     OW41808   3.955   9.905   3.742  0.4342  0.5953 -0.4714
12451SOL    HW141809   3.877   9.954   3.719 -0.8268 -0.5544  1.1086
12451SOL    HW241810   3.932   9.860   3.823  1.9301 -1.6307 -1.1951
12452SOL     OW41811   5.793   1.147  10.132  0.5050  0.2184  0.2398
12452SOL    HW141812   5.787   1.057  10.100 -0.7608  0.7334 -1.0883
12452SOL    HW241813   5.792   1.201  10.053 -2.3434  1.5432  1.0533
12453SOL     OW41814   4.722   5.584   8.931 -0.5037  0.3706  0.0234
12453SOL    HW141815   4.770   5.532   8.995  1.7893 -0.4397 -2.2200
12453SOL    HW241816   4.749   5.674   8.949 -1.1286  0.3570  1.1497
12454SOL     OW41817   5.833   1.196   0.389  0.3221 -0.0711 -0.3050
12454SOL    HW141818   5.921   1.216   0.422  0.8879 -0.6104 -1.4468
12454SOL    HW241819   5.775   1.247   0.445  1.3864  0.6389  0.1920
12455SOL     OW41820   7.348  10.449   2.924 -0.3640 -0.2993 -0.6062
12455SOL    HW141821   7.254  10.432   2.935 -1.1794  2.0774 -2.9698
12455SOL    HW241822   7.356  10.485   2.836  2.8909 -0.8582 -0.6642
12456SOL     OW41823   9.073   0.535   3.657 -0.0577 -0.0765 -0.3144
12456SOL    HW141824   9.015   0.593   3.707  1.4449 -0.0898  1.5913
12456SOL    HW241825   9.094   0.464   3.718  0.7192 -0.8728 -1.4777
12457SOL     OW41826   2.000   6.630   8.994 -0.2093 -0.4683  0.1866
12457SOL    HW141827   2.005   6.669   9.081  0.2086 -1.9563  0.8498
12457SOL    HW241828   1.934   6.683   8.948  0.2537  0.9217  1.0765
12458SOL     OW41829   7.727   6.471   6.374 -0.2008 -0.4396 -0.1902
12458SOL    HW141830   7.716   6.553   6.326  2.8164  1.2819  1.7130
12458SOL    HW241831   7.653   6.468   6.435  0.1243  1.4163  0.3581
12459SOL     OW41832   5.304   8.771   9.158  0.0933  0.5858  0.1231
12459SOL    HW141833   5.247   8.710   9.112  1.4038  0.1360 -0.9490
12459SOL    HW241834   5.275   8.767   9.249  0.8169 -2.4709  0.3146
12460SOL     OW41835   2.341  10.913   5.321 -0.2826  0.2102 -0.3370
12460SOL    HW141836   2.264  10.923   5.376 -0.8705 -0.7301 -0.9548
12460SOL    HW241837   2.306  10.896   5.233  0.5416 -2.4359 -0.2568
12461SOL     OW41838  10.703   4.168   8.186  0.6735  0.1874 -0.3395
12461SOL    HW141839  10.702   4.263   8.175  4.1910  0.3645 -0.3600
12461SOL    HW241840  10.703   4.155   8.281  0.1309  0.1722 -0.3363
12462SOL     OW41841   6.656   5.800   4.282  0.3473  0.2074  0.3394
12462SOL    HW141842   6.714   5.876   4.273  0.1793  0.2758 -0.1825
12462SOL    HW241843   6.579   5.822   4.229  1.7898 -1.7703 -2.9060
12463SOL     OW41844  10.379   3.547   4.617 -0.0043  0.0481 -0.0545
12463SOL    HW141845  10.463   3.534   4.662  0.6719  0.6853 -1.0769
12463SOL    HW241846  10.398   3.527   4.525 -1.2003 -0.6345 -0.1743
12464SOL     OW41847   0.815   4.808   6.374  0.1279  0.3313 -0.0756
12464SOL    HW141848   0.777   4.825   6.461  1.0735 -1.0162  0.6456
12464SOL    HW241849   0.898   4.856   6.376 -0.0615  0.6750 -0.4226
12465SOL     OW41850   6.249   4.152   1.311 -0.3266 -0.4135 -0.6918
12465SOL    HW141851   6.232   4.147   1.217 -0.8706  3.2605 -0.9279
12465SOL    HW241852   6.162   4.164   1.350 -0.0746 -1.6279  0.2680
12466SOL     OW41853   0.575   7.836   3.349 -0.4037 -0.5059 -0.3902
12466SOL    HW141854   0.667   7.813   3.339 -0.1876  0.6376 -1.1836
12466SOL    HW241855   0.561   7.908   3.287 -1.4737  0.3052  0.7530
12467SOL     OW41856   1.753  10.646   1.091 -0.2709 -0.0689  0.1433
12467SOL    HW141857   1.719  10.628   1.003 -0.6632  1.1750  0.0258
12467SOL    HW241858   1.809  10.722   1.081  0.7188 -0.6865  0.7653
12468SOL     OW41859   0.883   2.452   5.176 -0.0270 -0.7378  0.3151
12468SOL    HW141860   0.805   2.418   5.219  0.8044 -2.4676  0.5660
12468SOL    HW241861   0.938   2.485   5.247  0.1289 -0.9763  0.3081
12469SOL     OW41862   5.487   4.859   1.439 -0.1639 -0.0737  0.5201
12469SOL    HW141863   5.441   4.890   1.518  0.3338  0.8504  0.4678
12469SOL    HW241864   5.518   4.939   1.397  0.3850 -0.6127 -0.1226
12470SOL     OW41865   9.217  10.199   7.973 -0.7225 -1.2812 -0.1634
12470SOL    HW141866   9.229  10.287   8.009 -1.0914 -1.1400 -0.3858
12470SOL    HW241867   9.210  10.212   7.879 -0.3316 -1.5939 -0.2382
12471SOL     OW41868   5.565   6.859   7.220 -0.5022 -0.6997  0.4850
12471SOL    HW141869   5.471   6.847   7.206 -0.3643 -1.0804 -0.1669
12471SOL    HW241870   5.606   6.792   7.165  0.1420 -0.8871  1.1767
12472SOL     OW41871   1.896   9.777   9.826  0.9428 -0.4372  0.1917
12472SOL    HW141872   1.898   9.822   9.910  0.2063 -1.4150  0.7610
12472SOL    HW241873   1.852   9.694   9.844 -0.8627  0.0540 -1.4839
12473SOL     OW41874   5.615   2.927   9.173 -0.3187 -0.6385  0.1216
12473SOL    HW141875   5.706   2.939   9.147 -0.5833  0.4750 -0.3767
12473SOL    HW241876   5.583   2.857   9.116 -0.6270  1.1250 -2.0329
12474SOL     OW41877   7.868  10.215   2.913 -0.0809  0.5206  0.5415
12474SOL    HW141878   7.787  10.265   2.921 -0.9537 -0.7749  0.1361
12474SOL    HW241879   7.897  10.202   3.003 -1.2299 -0.3955  0.8100
12475SOL     OW41880   3.090  10.382   6.485  0.4626  0.4104  0.1914
12475SOL    HW141881   3.094  10.317   6.415 -1.7509 -2.9206  2.8564
12475SOL    HW241882   3.181  10.396   6.510  1.1186 -0.2327 -1.6370
12476SOL     OW41883  10.734   0.246   4.442 -0.4324  0.2887 -0.1202
12476SOL    HW141884  10.711   0.254   4.350  0.8853  1.0876 -0.4011
12476SOL    HW241885  10.720   0.334   4.478 -1.2552 -0.0948  0.5300
12477SOL     OW41886   9.414   5.835   6.237  0.1572  0.2034  0.5256
12477SOL    HW141887   9.496   5.804   6.198  0.3894  0.8872  0.4585
12477SOL    HW241888   9.441   5.874   6.320  0.0456  1.3502  0.0436
12478SOL     OW41889   5.257   8.227   0.537  0.3512  0.0086 -0.0605
12478SOL    HW141890   5.343   8.266   0.520 -0.2561  1.3719 -0.1408
12478SOL    HW241891   5.199   8.268   0.472  0.0442 -2.6255 -1.5997
12479SOL     OW41892   7.345   2.405   0.073 -0.1496 -0.2939  0.8900
12479SOL    HW141893   7.395   2.394   0.154  0.5908 -1.5558  0.3053
12479SOL    HW241894   7.363   2.325   0.023 -1.7207 -0.1836  0.0825
12480SOL     OW41895   5.572  10.877   0.401  0.2984 -0.3869  0.2625
12480SOL    HW141896   5.521  10.956   0.384 -1.5806 -1.7051 -0.5485
12480SOL    HW241897   5.657  10.909   0.431 -0.8619  1.9104  1.3193
12481SOL     OW41898   0.416  10.444   9.744  0.2857  0.0825  0.2507
12481SOL    HW141899   0.409  10.494   9.663 -1.3743 -2.4223 -1.2610
12481SOL    HW241900   0.359  10.490   9.806 -0.1552  0.7719 -0.6514
12482SOL     OW41901   1.040   1.056   8.184 -0.6124  0.1497 -0.9761
12482SOL    HW141902   1.027   0.983   8.122 -0.0601 -0.7117 -0.1077
12482SOL    HW241903   1.051   1.013   8.269 -1.0582  1.3062 -0.3234
12483SOL     OW41904   5.365  10.430   2.109  0.0205 -0.0713  0.0987
12483SOL    HW141905   5.351  10.444   2.203 -1.9284 -2.2481  0.2224
12483SOL    HW241906   5.380  10.336   2.101  1.4716  0.2600 -1.6790
12484SOL     OW41907   9.908   4.240   6.693 -0.0823  0.0344 -0.5460
12484SOL    HW141908   9.988   4.248   6.747 -1.5566  1.0979  1.6474
12484SOL    HW241909   9.859   4.169   6.733 -1.4615  1.1960 -0.0939
12485SOL     OW41910   6.508   1.310   4.456 -0.2135 -0.2813 -0.5218
12485SOL    HW141911   6.552   1.297   4.372  2.0987 -0.5838  0.6485
12485SOL    HW241912   6.469   1.397   4.450  1.4190  0.4387 -1.3117
12486SOL     OW41913   3.710   3.176   4.777 -0.1321  0.5228  0.1270
12486SOL    HW141914   3.713   3.231   4.855  0.5892  2.5494 -1.2496
12486SOL    HW241915   3.802   3.152   4.762  0.0184  1.8106 -1.1796
12487SOL     OW41916   9.724   2.552   3.279  0.1964 -0.2228 -0.0076
12487SOL    HW141917   9.752   2.617   3.215  2.7900 -1.2151 -0.0099
12487SOL    HW241918   9.770   2.577   3.359 -1.0351 -0.4392  0.7867
12488SOL     OW41919   6.055   0.355   8.287 -0.1773  0.3945  0.4485
12488SOL    HW141920   5.967   0.321   8.268  0.3605 -0.1776 -1.1260
12488SOL    HW241921   6.090   0.380   8.202  1.7010 -0.6591  0.8563
12489SOL     OW41922   4.220   3.829  10.230 -0.1913  0.3732 -0.1178
12489SOL    HW141923   4.299   3.819  10.177 -0.3392  2.9296 -0.9943
12489SOL    HW241924   4.238   3.906  10.284 -1.2125 -0.4083  1.4064
12490SOL     OW41925   7.749  10.733   2.940  0.0592 -0.4061  0.2714
12490SOL    HW141926   7.697  10.785   2.878 -0.5344 -1.0615  0.2084
12490SOL    HW241927   7.764  10.792   3.014  2.7712  1.2381 -1.4020
12491SOL     OW41928   3.830   1.726   0.829  0.1193 -0.6402 -0.0649
12491SOL    HW141929   3.883   1.684   0.762  0.0664 -0.6550 -0.0981
12491SOL    HW241930   3.877   1.806   0.851  0.1983 -0.6959 -0.0320
12492SOL     OW41931   1.089   6.393   5.438 -0.2019  0.7399 -0.4853
12492SOL    HW141932   1.037   6.377   5.517  0.6229  0.7527  0.0844
12492SOL    HW241933   1.170   6.343   5.453  0.2054  1.2138 -1.0555
12493SOL     OW41934   6.645   8.298   6.742  0.3785 -0.2367  0.1884
12493SOL    HW141935   6.663   8.266   6.831 -1.7927 -0.0318  0.7623
12493SOL    HW241936   6.617   8.221   6.693 -0.3060 -0.0277  0.2425
12494SOL     OW41937   3.755   8.183   9.689  0.1417 -0.1186 -0.3540
12494SOL    HW141938   3.692   8.121   9.652  0.4443  0.1755 -1.3952
12494SOL    HW241939   3.841   8.150   9.662  0.3741  0.1612  0.0177
12495SOL     OW41940   6.922   5.019   5.728  0.0532  0.4551 -0.1539
12495SOL    HW141941   6.895   4.939   5.683  1.0938  0.2336 -0.3927
12495SOL    HW241942   6.886   5.010   5.817  0.3380 -0.3650 -0.1200
12496SOL     OW41943  10.883   3.779   1.128 -0.3765  0.2972 -0.2321
12496SOL    HW141944  10.968   3.774   1.084  0.0406  0.8912  0.4604
12496SOL    HW241945  10.851   3.689   1.130 -0.4580  0.2584 -1.7965
12497SOL     OW41946   3.288   5.619   9.926  0.2387  0.6755 -0.1898
12497SOL    HW141947   3.276   5.573  10.009  0.6055 -1.0762 -1.0580
12497SOL    HW241948   3.229   5.694   9.931 -0.3309  0.1637  1.3182
12498SOL     OW41949   4.908   8.334   4.797  0.0627  0.4825 -0.0050
12498SOL    HW141950   4.951   8.319   4.713  0.3794 -0.4345  0.3094
12498SOL    HW241951   4.907   8.429   4.806  1.3055  0.5527 -0.3920
12499SOL     OW41952   7.924   2.603   2.968 -0.1024  0.3307  0.2570
12499SOL    HW141953   7.882   2.689   2.963 -0.7190  0.0449  0.4765
12499SOL    HW241954   7.914   2.566   2.881  0.0337  0.4211  0.2030
12500SOL     OW41955   5.087   6.852   3.563  0.4718  0.1141  0.5981
12500SOL    HW141956   5.081   6.942   3.532  0.3993 -0.4829 -1.2907
12500SOL    HW241957   5.062   6.799   3.487 -0.0053 -1.4859  1.8104
12501SOL     OW41958  10.849  10.598   6.605 -0.2248 -0.0010  0.3517
12501SOL    HW141959  10.792  10.663   6.565 -0.0264  0.0331  0.1194
12501SOL    HW241960  10.890  10.554   6.531 -0.9243 -0.9091  0.4865
12502SOL     OW41961   3.699   0.338   1.408 -0.4334 -0.0674  0.0031
12502SOL    HW141962   3.765   0.360   1.341 -0.2950 -2.0539 -0.5867
12502SOL    HW241963   3.619   0.380   1.377  0.1681  1.0591 -0.1032
12503SOL     OW41964   4.881   2.019   1.657  0.1625  0.1623 -0.4531
12503SOL    HW141965   4.908   2.098   1.610 -0.3891 -0.4676 -1.8686
12503SOL    HW241966   4.872   1.952   1.589 -0.5301 -0.8218  0.5713
12504SOL     OW41967   9.079   5.948   1.083  0.2255 -0.3625  0.2661
12504SOL    HW141968   9.116   6.036   1.073  1.2727 -0.6921  1.0662
12504SOL    HW241969   9.100   5.904   1.001  1.8503 -0.6081  0.7777
12505SOL     OW41970   0.741   6.211   6.022 -0.2583 -0.1413 -0.0340
12505SOL    HW141971   0.765   6.302   6.039  0.8425 -0.3689 -0.3165
12505SOL    HW241972   0.749   6.201   5.927  0.5247 -0.7701  0.0896
12506SOL     OW41973   3.764   6.586   5.327 -0.2999 -0.4699 -0.3344
12506SOL    HW141974   3.779   6.501   5.284 -0.5648 -0.3023 -0.7743
12506SOL    HW241975   3.811   6.580   5.410 -0.0590 -0.9337 -0.4993
12507SOL     OW41976   0.611   8.271   3.055  0.5744  0.3440 -0.1951
12507SOL    HW141977   0.683   8.290   2.996  1.5585 -2.1257  0.0696
12507SOL    HW241978   0.601   8.350   3.108 -0.2575  2.6035 -3.4250
12508SOL     OW41979   2.741   0.750   8.855  0.6470 -0.4334  0.1077
12508SOL    HW141980   2.692   0.810   8.799  0.2825 -0.6245  0.2159
12508SOL    HW241981   2.739   0.790   8.941 -0.0104 -0.8291  0.2847
12509SOL     OW41982   2.285   9.472   9.998  0.0259  0.1311  0.2119
12509SOL    HW141983   2.246   9.413   9.934 -0.8555 -0.3611  1.1824
12509SOL    HW241984   2.212   9.521  10.035  0.5069  0.3676  0.8838
12510SOL     OW41985   9.255   6.316  10.782 -0.1732  0.1583  0.1803
12510SOL    HW141986   9.344   6.282  10.793 -0.1647 -0.1559 -0.8272
12510SOL    HW241987   9.268   6.406  10.753 -0.1929  0.1389  0.1139
12511SOL     OW41988   6.880  10.625   3.400  0.1480  0.5064  0.2085
12511SOL    HW141989   6.879  10.708   3.447 -0.9262  1.6576 -1.7319
12511SOL    HW241990   6.788  10.607   3.381  0.4106 -0.8845  0.1645
12512SOL     OW41991   3.338  10.982   3.394 -0.5429  0.4585  0.5161
12512SOL    HW141992   3.262  10.925   3.408 -0.6153  0.5067  0.3275
12512SOL    HW241993   3.336  11.002   3.300  1.2139 -1.6659 -0.0505
12513SOL     OW41994   2.217   3.141   3.040  0.1988 -0.1388  0.6238
12513SOL    HW141995   2.169   3.088   3.104 -0.0102  1.1464  1.5678
12513SOL    HW241996   2.291   3.176   3.090  0.0534  0.8527  0.1568
12514SOL     OW41997   6.833   3.727  10.231 -0.0831  0.4121 -0.0930
12514SOL    HW141998   6.743   3.751  10.209  0.3333  2.3348  0.1167
12514SOL    HW241999   6.860   3.793  10.295  1.0442 -0.9274  0.8778
12515SOL     OW42000   7.857   6.437   8.359 -0.1167 -0.3782  0.3892
12515SOL    HW142001   7.763   6.421   8.349 -0.1168  0.3726 -1.1082
12515SOL    HW242002   7.871   6.522   8.316  1.5007 -1.2773 -0.9747
12516SOL     OW42003   9.852   4.015   6.844 -0.2975 -0.2244 -0.2055
12516SOL    HW142004   9.785   3.998   6.910  0.3020  0.0086  0.4670
12516SOL    HW242005   9.935   4.005   6.890  0.2514 -3.0278 -1.5768
12517SOL     OW42006   3.392   9.376   8.205  0.0587 -0.1556 -0.6797
12517SOL    HW142007   3.437   9.460   8.202 -0.2661 -0.0020 -1.6429
12517SOL    HW242008   3.461   9.311   8.197  0.5223 -0.0794  1.8939
12518SOL     OW42009   5.605   5.349   8.250  0.0712 -0.0380  0.5107
12518SOL    HW142010   5.616   5.297   8.330  0.0332  0.0334  0.5630
12518SOL    HW242011   5.516   5.385   8.257 -0.1988 -0.6169  0.0911
12519SOL     OW42012   2.153   0.991   0.904  0.2981 -0.3208 -0.1153
12519SOL    HW142013   2.105   1.058   0.856 -1.0640 -0.0559  1.4848
12519SOL    HW242014   2.217   1.040   0.956 -0.3616 -0.2730  0.6772
12520SOL     OW42015   2.962   1.022   5.658  0.4937  0.2465  0.1592
12520SOL    HW142016   3.008   1.101   5.631  0.5191 -0.2291 -1.2310
12520SOL    HW242017   3.020   0.950   5.632 -1.4717 -0.4412 -2.7889
12521SOL     OW42018   6.170  10.456   4.502  0.0188 -0.0182  0.1492
12521SOL    HW142019   6.216  10.514   4.441 -0.1892  0.6259  0.6090
12521SOL    HW242020   6.081  10.490   4.506 -0.1498 -0.4693  0.2983
12522SOL     OW42021   3.102   5.310  10.559  0.0202 -0.3521  0.1907
12522SOL    HW142022   3.184   5.296  10.606  0.2372  0.3110  0.0265
12522SOL    HW242023   3.089   5.230  10.508  1.5783  0.2592 -1.2826
12523SOL     OW42024   5.299   8.894   3.240 -0.0764  0.3168 -0.5245
12523SOL    HW142025   5.336   8.808   3.218 -0.3898  0.4730 -1.7477
12523SOL    HW242026   5.374   8.945   3.271 -0.0169 -0.6049  0.9692
12524SOL     OW42027   0.655   6.988   0.172 -0.5265  0.5960  0.4395
12524SOL    HW142028   0.601   6.973   0.249  0.6996  0.0170  1.2275
12524SOL    HW242029   0.694   6.902   0.153 -0.6638  0.7724 -0.7181
12525SOL     OW42030  10.416   8.321   0.423 -0.0611 -0.2591  0.2182
12525SOL    HW142031  10.349   8.390   0.429  1.0646  0.9248 -0.3005
12525SOL    HW242032  10.367   8.244   0.394 -1.8034 -0.4232  3.1992
12526SOL     OW42033   6.680   6.326   9.994 -0.1319  0.1690  0.3111
12526SOL    HW142034   6.730   6.395  10.037 -1.6651 -0.0789  2.7010
12526SOL    HW242035   6.674   6.256  10.059 -1.6410 -0.7159 -0.7002
12527SOL     OW42036   3.123   2.335   4.088 -0.1738 -0.0685 -0.3163
12527SOL    HW142037   3.185   2.262   4.087  0.0675  0.0276  2.2294
12527SOL    HW242038   3.174   2.409   4.122 -1.4078  0.2364  0.9693
12528SOL     OW42039   5.477   7.173   4.634  0.0881  0.3801 -0.0889
12528SOL    HW142040   5.470   7.103   4.569 -0.2246  2.6408 -2.6893
12528SOL    HW242041   5.408   7.235   4.610  1.3737  2.3562  1.0575
12529SOL     OW42042   5.271   1.701   0.683  0.2360  0.0657  0.2260
12529SOL    HW142043   5.257   1.641   0.756 -0.8336  1.2182  1.0170
12529SOL    HW242044   5.338   1.762   0.715  0.3398  0.1008 -0.0572
12530SOL     OW42045   8.250   2.412   7.160  0.1218 -0.2525 -0.5761
12530SOL    HW142046   8.275   2.320   7.166 -1.0769 -0.5891 -0.4665
12530SOL    HW242047   8.302   2.446   7.086 -1.7022 -1.8423 -2.7250
12531SOL     OW42048   3.577   4.591   5.783  0.0188  0.1892  0.1997
12531SOL    HW142049   3.604   4.546   5.703  1.9719  1.5049  0.0450
12531SOL    HW242050   3.525   4.665   5.752 -0.0336  0.1593  0.2154
12532SOL     OW42051  10.502  11.002   0.063  0.1072  0.0071 -0.3261
12532SOL    HW142052  10.440  11.052   0.010  0.4691  0.0041 -0.7618
12532SOL    HW242053  10.473  11.016   0.153 -0.4229  0.1386 -0.5133
12533SOL     OW42054   8.756  10.945  10.122  0.0809 -0.4224 -0.2790
12533SOL    HW142055   8.781  11.020  10.067  1.5392  1.0598  2.2236
12533SOL    HW242056   8.661  10.948  10.125  0.0061 -0.0155 -1.9514
12534SOL     OW42057   2.111   8.917   1.266 -0.3129 -0.3305  0.3113
12534SOL    HW142058   2.173   8.910   1.339 -0.7772  1.9151  1.0088
12534SOL    HW242059   2.033   8.870   1.296  0.1672 -1.0227  0.4772
12535SOL     OW42060   9.436   3.380   5.725 -0.1204 -0.3685  0.2194
12535SOL    HW142061   9.369   3.372   5.792  1.0858 -0.8547  1.4267
12535SOL    HW242062   9.518   3.359   5.770  0.9101  0.6321 -1.0902
12536SOL     OW42063   0.635   8.480   5.310 -0.1230  0.3654 -0.5846
12536SOL    HW142064   0.578   8.403   5.319 -0.5426  0.7000 -0.3157
12536SOL    HW242065   0.656   8.483   5.216  0.3388 -0.3826 -0.5110
12537SOL     OW42066   5.477   9.369  10.249 -0.3799 -0.3186 -0.1227
12537SOL    HW142067   5.425   9.374  10.328  1.5819 -0.0948  1.2323
12537SOL    HW242068   5.502   9.460  10.231 -0.1135 -0.4591 -0.4808
12538SOL     OW42069   3.809   8.236   4.354 -0.1486  0.0468  0.7334
12538SOL    HW142070   3.803   8.141   4.348 -0.6108  0.1326 -0.2068
12538SOL    HW242071   3.783   8.268   4.268  0.9350  0.9954  0.7322
12539SOL     OW42072   2.445  10.432   0.370  0.1920  0.9295  0.2108
12539SOL    HW142073   2.473  10.401   0.456  0.0035  1.7613  0.5788
12539SOL    HW242074   2.356  10.399   0.360  1.1350 -1.5688 -0.8831
12540SOL     OW42075  10.018   4.343  10.707  0.2059 -0.3541 -0.0208
12540SOL    HW142076  10.024   4.334  10.802  1.4829  0.3741 -0.0221
12540SOL    HW242077  10.033   4.254  10.673  0.7246 -0.4300  0.4119
12541SOL     OW42078   4.561   6.783   2.537  0.4386 -0.0403  0.0755
12541SOL    HW142079   4.534   6.766   2.627  1.4175  0.9516  0.5841
12541SOL    HW242080   4.654   6.805   2.544  0.6335 -0.3647 -1.2388
12542SOL     OW42081   4.006   5.460   8.107  0.7518  0.0120  0.4598
12542SOL    HW142082   4.033   5.534   8.052 -1.4909  0.4398 -0.1587
12542SOL    HW242083   4.069   5.391   8.086  1.2265  0.8519 -1.0677
12543SOL     OW42084   2.309   0.498   2.396  0.6437  0.0243 -0.2312
12543SOL    HW142085   2.279   0.446   2.471 -2.7437 -0.5916 -1.8344
12543SOL    HW242086   2.229   0.519   2.348  2.6326  0.4545 -3.6678
12544SOL     OW42087   1.482   7.154   5.932  0.7183  0.2586  0.6010
12544SOL    HW142088   1.491   7.168   6.026 -2.0889  0.0247  0.9866
12544SOL    HW242089   1.398   7.111   5.922  0.6298  0.8788 -2.0847
12545SOL     OW42090   1.196   4.038   0.177 -0.3203 -0.0760  0.1421
12545SOL    HW142091   1.131   4.040   0.247  0.0315 -0.0764  0.4776
12545SOL    HW242092   1.237   4.125   0.181 -1.3180  0.4828 -1.0570
12546SOL     OW42093   4.036   1.666   2.881  0.1754  0.2026 -0.3892
12546SOL    HW142094   4.019   1.716   2.961 -0.5922  0.3333 -0.6171
12546SOL    HW242095   4.129   1.645   2.884 -0.1031 -0.9582  1.2024
12547SOL     OW42096   6.909  10.702   0.040 -0.1823  0.0289  0.4328
12547SOL    HW142097   6.823  10.742   0.043 -0.3245 -0.2978  0.7674
12547SOL    HW242098   6.935  10.708  -0.052 -0.5930  0.0562  0.3187
12548SOL     OW42099   0.884   5.175   8.638  0.1280  0.8483 -0.1832
12548SOL    HW142100   0.937   5.096   8.641 -0.4485  0.4860  0.7674
12548SOL    HW242101   0.946   5.244   8.613  0.6387  0.1203 -0.9720
12549SOL     OW42102   0.903   2.667   7.385 -0.4236  0.4536 -0.5313
12549SOL    HW142103   0.975   2.615   7.422  0.1072  1.2837 -0.3709
12549SOL    HW242104   0.911   2.753   7.427 -3.3975 -0.2754  1.9360
12550SOL     OW42105   8.513   3.288   3.556  0.0247  0.4873  0.3225
12550SOL    HW142106   8.516   3.338   3.637 -0.8393 -1.6637  1.7558
12550SOL    HW242107   8.510   3.197   3.583  1.0464 -0.4017 -2.1715
12551SOL     OW42108   3.531   4.939   7.876  0.3135  0.5484  0.3881
12551SOL    HW142109   3.478   4.958   7.799  1.0347 -0.6677 -0.4380
12551SOL    HW242110   3.598   5.008   7.878  0.7001  0.2068 -0.4703
12552SOL     OW42111   6.608   1.407   5.387 -0.3061  0.2527  0.0731
12552SOL    HW142112   6.523   1.450   5.378  0.3649  1.9483  1.3485
12552SOL    HW242113   6.604   1.364   5.473 -0.5383 -1.3470 -0.6922
12553SOL     OW42114   6.571   0.088   3.462 -0.3272  0.5527  0.3507
12553SOL    HW142115   6.630   0.094   3.387 -1.0764  1.3451 -0.2085
12553SOL    HW242116   6.617   0.033   3.525  0.8930  0.9492 -0.1558
12554SOL     OW42117   9.261   1.262   4.106 -0.1600  0.3406  0.5325
12554SOL    HW142118   9.278   1.242   4.014 -2.2554 -1.4735  0.4613
12554SOL    HW242119   9.201   1.337   4.104 -0.3255  0.2056  0.4018
12555SOL     OW42120   4.338   5.444   0.053 -0.1472 -0.2730  0.0708
12555SOL    HW142121   4.291   5.369   0.087  2.1148 -0.8798  2.1725
12555SOL    HW242122   4.337   5.433  -0.042 -1.3122 -2.0192  0.2501
12556SOL     OW42123  10.803   5.824   7.141  0.3836  0.0247 -1.3434
12556SOL    HW142124  10.761   5.751   7.186  1.3016 -0.6278 -1.5182
12556SOL    HW242125  10.858   5.865   7.207 -0.3146  0.7318 -1.1781
12557SOL     OW42126   4.945   5.076   7.853 -0.0462 -0.0017  0.1740
12557SOL    HW142127   4.879   5.055   7.787  0.6610  0.7633 -0.8118
12557SOL    HW242128   4.941   5.004   7.916 -1.8895  0.0985  0.2073
12558SOL     OW42129   0.002   5.161   4.642  0.2153 -0.1659 -0.3778
12558SOL    HW142130  -0.065   5.093   4.651 -0.0804 -0.0509 -1.5152
12558SOL    HW242131  -0.019   5.225   4.710 -1.0508  0.0296 -0.9273
12559SOL     OW42132   6.241   1.224   8.218  0.1452  0.3223  0.1591
12559SOL    HW142133   6.181   1.180   8.157  0.5065  0.4143 -0.2688
12559SOL    HW242134   6.205   1.313   8.225 -0.9855 -0.2210  1.5713
12560SOL     OW42135   2.507   5.781   4.048  0.1578 -0.2403  0.2986
12560SOL    HW142136   2.581   5.721   4.041 -1.3513 -2.1587 -0.0479
12560SOL    HW242137   2.451   5.758   3.974 -0.6683  1.3714  0.3838
12561SOL     OW42138   2.816   7.512   1.917  0.2909 -0.3269  0.0761
12561SOL    HW142139   2.730   7.484   1.883 -0.1832 -2.2045  2.5172
12561SOL    HW242140   2.875   7.441   1.892  1.1053  0.7594 -1.2254
12562SOL     OW42141   0.328   0.270   5.464  0.3104  0.0061  0.3393
12562SOL    HW142142   0.254   0.331   5.472 -0.5725 -0.8817 -0.6008
12562SOL    HW242143   0.319   0.211   5.539  0.9748  0.8205  1.0690
12563SOL     OW42144   8.108   0.750   0.845  0.5280 -0.0598 -0.2050
12563SOL    HW142145   8.192   0.719   0.881 -0.0533  0.3935  1.6256
12563SOL    HW242146   8.048   0.677   0.859  0.3466  0.0398 -0.4687
12564SOL     OW42147  10.559   6.150   3.336 -0.9062  0.0891 -0.4682
12564SOL    HW142148  10.485   6.212   3.337 -2.3475 -1.4569  2.5844
12564SOL    HW242149  10.535   6.086   3.269 -1.9414  0.0988 -0.1289
12565SOL     OW42150   3.690   4.065  10.176  0.4247 -0.0324  0.5224
12565SOL    HW142151   3.642   3.982  10.173  1.7886 -0.8367 -0.8419
12565SOL    HW242152   3.772   4.043  10.220  1.3932  0.2242 -1.0995
12566SOL     OW42153   6.150   6.205   4.995  0.0330 -0.1071 -0.3398
12566SOL    HW142154   6.082   6.154   4.951 -0.6982  0.0508  0.5811
12566SOL    HW242155   6.170   6.156   5.075  0.3962  0.2778 -0.1890
12567SOL     OW42156   5.123   8.624   0.215  0.3311 -0.2314 -0.3835
12567SOL    HW142157   5.208   8.661   0.191  0.5191 -1.3610 -1.5318
12567SOL    HW242158   5.072   8.626   0.134 -0.9822  1.0189  0.4392
12568SOL     OW42159   0.972   3.342   5.351  0.0297 -0.0642  0.1968
12568SOL    HW142160   1.005   3.253   5.361  3.4184  1.0003 -0.3447
12568SOL    HW242161   0.962   3.354   5.256  3.3842  1.1776 -0.1602
12569SOL     OW42162   0.613   3.214   9.804 -0.4187 -0.0312  0.1062
12569SOL    HW142163   0.539   3.261   9.767  0.6141  0.9241 -0.8156
12569SOL    HW242164   0.581   3.124   9.816 -1.8611  0.4738  0.2009
12570SOL     OW42165   8.934   6.448   6.058 -0.2658  0.1410 -0.3550
12570SOL    HW142166   8.959   6.359   6.036  2.3400  1.1058 -1.7258
12570SOL    HW242167   8.900   6.443   6.147  3.8973 -1.6679  1.3712
12571SOL     OW42168   1.425   9.596   1.996 -0.6120 -0.7034 -0.0667
12571SOL    HW142169   1.453   9.668   2.051 -1.0703 -0.3354 -0.3046
12571SOL    HW242170   1.329   9.597   2.002 -0.5952 -1.7234  0.4759
12572SOL     OW42171   2.589   3.270   5.277 -0.4212 -0.0284  0.4297
12572SOL    HW142172   2.580   3.293   5.184 -1.5064 -2.6517 -0.2102
12572SOL    HW242173   2.554   3.345   5.324 -2.4766  0.2544 -1.4024
12573SOL     OW42174   7.957   7.655  10.836 -0.8261  0.1110  0.6087
12573SOL    HW142175   7.869   7.619  10.827 -1.1405  1.2275 -1.2777
12573SOL    HW242176   8.008   7.611  10.769 -0.1335  0.0238  1.1865
12574SOL     OW42177   0.087   7.853   6.482  0.0997 -0.5620  0.1290
12574SOL    HW142178   0.103   7.791   6.411 -1.0086 -1.1414  0.3534
12574SOL    HW242179   0.123   7.810   6.560  1.7406  0.2792 -0.1234
12575SOL     OW42180   2.970  10.768  10.802 -0.0380  0.1068 -0.4569
12575SOL    HW142181   2.939  10.796  10.888 -1.0588 -1.3831 -0.3044
12575SOL    HW242182   2.984  10.850  10.754 -1.2437  0.9134  0.5098
12576SOL     OW42183  10.599  10.327   0.215  0.0016  0.0694  0.4863
12576SOL    HW142184  10.679  10.341   0.265  1.5176 -0.5017 -1.6532
12576SOL    HW242185  10.570  10.239   0.241 -0.3963  0.5626  1.8111
12577SOL     OW42186   4.635   2.438   0.554 -0.1164 -0.4625  0.1004
12577SOL    HW142187   4.562   2.451   0.615  0.8179 -0.5960  1.2768
12577SOL    HW242188   4.713   2.453   0.606  0.7429 -1.3785 -0.8756
12578SOL     OW42189   3.946   2.985   2.524  0.0784 -0.6708 -0.0907
12578SOL    HW142190   4.007   2.917   2.495  0.7900  0.4588 -1.3622
12578SOL    HW242191   3.998   3.066   2.522 -1.9087  0.7102 -3.2568
12579SOL     OW42192  10.269   8.300  10.103  0.1168  0.9328  0.8778
12579SOL    HW142193  10.336   8.314  10.170  1.4405  1.9446 -0.5921
12579SOL    HW242194  10.224   8.384  10.096 -1.1299  0.3521  1.6292
12580SOL     OW42195   2.398   8.578   7.350  0.0568 -0.4130 -0.0162
12580SOL    HW142196   2.355   8.493   7.340 -0.4970 -0.2358  0.8350
12580SOL    HW242197   2.482   8.566   7.306  1.1551 -2.2697  2.3905
12581SOL     OW42198   7.648   0.991   9.577 -0.3270  0.4804 -0.0077
12581SOL    HW142199   7.606   0.985   9.491 -0.4295 -1.7028  0.1389
12581SOL    HW242200   7.578   0.974   9.640  0.1055  0.2144  0.4123
12582SOL     OW42201   0.812   6.535   8.009 -0.3074  0.1591 -0.0924
12582SOL    HW142202   0.818   6.447   8.046  0.5585  0.6489  0.9889
12582SOL    HW242203   0.843   6.593   8.079 -1.2277  1.3697 -0.6400
12583SOL     OW42204   8.202   5.710   4.184 -0.1728  0.6199  0.2285
12583SOL    HW142205   8.209   5.693   4.091  0.0885 -1.0534  0.5262
12583SOL    HW242206   8.232   5.800   4.195 -0.3512  0.8835 -1.3066
12584SOL     OW42207   8.925   1.125   7.825  0.0063 -0.2968  0.5188
12584SOL    HW142208   8.835   1.152   7.812  0.0268 -0.6082 -0.3741
12584SOL    HW242209   8.941   1.060   7.756  1.3125  0.7185 -0.1844
12585SOL     OW42210   0.918   1.879   9.560  0.0713  0.0351  0.1131
12585SOL    HW142211   0.914   1.973   9.544 -0.4531 -0.1707 -0.9955
12585SOL    HW242212   0.872   1.839   9.486  3.0941 -1.2832 -1.2209
12586SOL     OW42213   4.310   9.687   2.676 -0.2401 -0.4602  0.4094
12586SOL    HW142214   4.293   9.608   2.727  0.0988 -2.0092 -1.7226
12586SOL    HW242215   4.233   9.695   2.619  1.0412 -1.0090 -1.4650
12587SOL     OW42216   5.240   0.844   1.101 -0.4907 -0.3300 -0.2816
12587SOL    HW142217   5.274   0.782   1.165  0.8963 -0.3081 -0.9653
12587SOL    HW242218   5.285   0.821   1.019 -0.7622  0.8927 -0.7969
12588SOL     OW42219   4.973   0.179  10.965 -0.0113  0.1964  0.2023
12588SOL    HW142220   5.055   0.196  10.919 -0.6696  0.3544 -0.9421
12588SOL    HW242221   4.935   0.266  10.978  0.2225  0.1678  1.1798
12589SOL     OW42222   5.235   0.934   3.738  0.4049 -0.8678  0.1226
12589SOL    HW142223   5.140   0.921   3.731  0.0631  0.9764  0.6909
12589SOL    HW242224   5.273   0.856   3.699 -1.3515 -1.7784  0.1380
12590SOL     OW42225   1.951   3.210   9.156 -0.3185  0.0899 -0.1167
12590SOL    HW142226   1.921   3.238   9.243 -0.5226  0.3387 -0.2629
12590SOL    HW242227   2.046   3.219   9.160 -0.3845  1.0021 -0.2141
12591SOL     OW42228   9.442   3.074   3.658  0.0772 -0.0415 -0.1203
12591SOL    HW142229   9.448   2.979   3.667 -0.4504 -0.0161  0.6331
12591SOL    HW242230   9.440   3.089   3.563 -0.9244 -0.8734 -0.2591
12592SOL     OW42231  11.006   7.551   2.376 -0.0701  0.0216  0.3494
12592SOL    HW142232  10.955   7.587   2.449  0.1628 -0.3393  0.6958
12592SOL    HW242233  10.978   7.460   2.370  0.6315 -0.2221  0.6418
12593SOL     OW42234   9.998   7.699   2.632 -0.0522  0.1736  0.7406
12593SOL    HW142235  10.093   7.699   2.643 -0.0917 -0.7010  1.1548
12593SOL    HW242236   9.981   7.767   2.567  0.9136 -0.1495  0.1397
12594SOL     OW42237   0.898   6.604   1.552 -0.0174 -0.0567  0.3588
12594SOL    HW142238   0.825   6.592   1.491  0.8247 -1.1408 -0.4814
12594SOL    HW242239   0.881   6.688   1.593 -2.9311 -1.2493  1.8610
12595SOL     OW42240   0.425   4.167  10.296 -0.1110 -0.0422  0.2821
12595SOL    HW142241   0.447   4.111  10.370 -0.0573 -0.8346 -0.3087
12595SOL    HW242242   0.501   4.223  10.284  1.4833 -2.3300 -1.3599
12596SOL     OW42243   8.944   9.391   5.532 -1.2305  0.0093  0.4300
12596SOL    HW142244   9.016   9.424   5.586 -3.0332  2.4496  1.4678
12596SOL    HW242245   8.954   9.437   5.449  0.9699 -3.0407 -1.2181
12597SOL     OW42246   9.260   0.400   6.948 -0.7389 -0.1708  0.3798
12597SOL    HW142247   9.192   0.354   6.998 -1.6366  2.3657  1.6979
12597SOL    HW242248   9.217   0.480   6.917  1.1547  0.6569 -0.2802
12598SOL     OW42249  10.202   8.125   3.460  0.2957  0.8703 -0.4684
12598SOL    HW142250  10.116   8.084   3.457 -0.5418  2.3850  0.9589
12598SOL    HW242251  10.191   8.207   3.411  0.8277  1.1925 -0.0615
12599SOL     OW42252   4.272   1.719   2.354  0.2414  0.8123  0.3757
12599SOL    HW142253   4.344   1.658   2.373  0.7213  0.8724 -1.1581
12599SOL    HW242254   4.235   1.738   2.440  1.1495 -0.3318  1.0633
12600SOL     OW42255   6.410   2.374   0.183  0.7725  0.3309  0.2190
12600SOL    HW142256   6.367   2.347   0.265  0.5555  0.7162  0.2320
12600SOL    HW242257   6.397   2.300   0.124 -0.7425  0.8139 -0.0879
12601SOL     OW42258   3.906   7.411   7.446  0.3623  0.4219  0.6172
12601SOL    HW142259   3.865   7.375   7.367  1.0252 -0.9678  0.8588
12601SOL    HW242260   3.920   7.503   7.426 -0.1265  0.2536 -0.6161
12602SOL     OW42261   4.235   9.001   5.303  0.5837  0.0422  0.2323
12602SOL    HW142262   4.182   8.922   5.303 -0.7459  0.8813 -0.6497
12602SOL    HW242263   4.203   9.051   5.379  0.0928  0.5460 -0.2965
12603SOL     OW42264   0.306   7.975   9.989  0.0274  0.3938 -1.0241
12603SOL    HW142265   0.338   7.902  10.042  0.5655  1.6780  0.4840
12603SOL    HW242266   0.317   7.945   9.899  0.6139 -1.2223 -0.4624
12604SOL     OW42267   4.705  10.466   7.310 -0.0826  0.5120 -0.1580
12604SOL    HW142268   4.619  10.481   7.349 -0.1876  1.3791 -0.7144
12604SOL    HW242269   4.727  10.548   7.267  1.4302  0.6106  0.7327
12605SOL     OW42270   9.136   4.395   4.466 -0.1230  0.1568 -0.5015
12605SOL    HW142271   9.128   4.490   4.457  0.4640  0.2280 -0.3151
12605SOL    HW242272   9.075   4.373   4.537  0.5422  0.5528  0.2182
12606SOL     OW42273   8.999   9.301   8.984  0.1124  0.2219  0.2439
12606SOL    HW142274   9.042   9.318   9.067 -0.1101 -1.8201  0.8192
12606SOL    HW242275   9.043   9.224   8.948  0.0453  0.9166 -1.4325
12607SOL     OW42276   7.716   0.720   7.929  0.2153  0.4347 -0.7668
12607SOL    HW142277   7.765   0.779   7.872  0.4904  1.8655  0.8817
12607SOL    HW242278   7.777   0.696   7.999 -0.5234 -0.1900 -0.3152
12608SOL     OW42279   7.341   9.494  10.058  0.3046 -0.5238 -0.0546
12608SOL    HW142280   7.421   9.522  10.101  1.0529 -2.0382 -0.4076
12608SOL    HW242281   7.360   9.406  10.026 -1.6206 -1.0672  0.1653
12609SOL     OW42282   0.414   5.504   1.569  0.0411 -0.4808  0.6513
12609SOL    HW142283   0.496   5.522   1.523 -0.0713 -1.7768 -0.0960
12609SOL    HW242284   0.440   5.494   1.661  0.4958  0.5930  0.6498
12610SOL     OW42285   8.371   3.949   4.359 -0.3840  0.0237  0.5814
12610SOL    HW142286   8.451   3.994   4.332  0.1554 -1.7243 -0.9146
12610SOL    HW242287   8.402   3.876   4.413 -0.6295 -2.3634 -2.2925
12611SOL     OW42288   8.359   7.245   2.880  0.4708 -0.1164  0.0151
12611SOL    HW142289   8.404   7.214   2.802  2.2169 -0.4523  1.1077
12611SOL    HW242290   8.373   7.176   2.945 -1.6943 -0.2536  0.4186
12612SOL     OW42291   5.606   5.664   2.975  0.0475 -0.5921  0.0259
12612SOL    HW142292   5.549   5.604   3.024  0.0375 -0.9830 -0.4549
12612SOL    HW242293   5.608   5.628   2.886  0.0994  0.0863 -0.2528
12613SOL     OW42294  10.331  10.619   5.444 -0.0708  0.2061  0.3584
12613SOL    HW142295  10.419  10.581   5.442 -0.5643 -1.0035 -1.9378
12613SOL    HW242296  10.273  10.543   5.450 -1.0206  0.6218 -2.1181
12614SOL     OW42297   0.521   4.291   1.519 -0.3932 -0.5002 -0.1625
12614SOL    HW142298   0.460   4.276   1.592 -0.2337 -0.7262 -0.0765
12614SOL    HW242299   0.508   4.217   1.461  0.6780 -1.2105  0.4591
12615SOL     OW42300   6.022   9.103  10.056 -0.2107 -0.0453  0.6570
12615SOL    HW142301   6.009   9.086  10.149  2.0672 -0.5868  0.9200
12615SOL    HW242302   6.010   9.197  10.046  4.5502  1.0219  2.5564
12616SOL     OW42303  10.428  10.659   8.962  0.4569 -0.0832 -0.3079
12616SOL    HW142304  10.468  10.625   9.042  0.0016 -2.0053 -0.8513
12616SOL    HW242305  10.337  10.630   8.966 -0.3497  2.2766 -0.1891
12617SOL     OW42306   8.084   2.971   2.494 -0.1534  0.3630 -0.1261
12617SOL    HW142307   8.155   3.020   2.454 -1.1155  1.0295 -1.0468
12617SOL    HW242308   8.044   3.032   2.556 -0.4238  0.2623 -0.1993
12618SOL     OW42309   0.858   2.635   8.204 -0.0997 -0.1057  1.0203
12618SOL    HW142310   0.836   2.720   8.243 -0.1202  0.6734 -0.6066
12618SOL    HW242311   0.922   2.597   8.265 -0.9124  0.5629  2.3449
12619SOL     OW42312   4.842   9.309   7.269  0.0227  0.0114 -0.2675
12619SOL    HW142313   4.892   9.288   7.190  2.9882  0.0794  1.4592
12619SOL    HW242314   4.830   9.224   7.313  0.4976  0.2631  0.3558
12620SOL     OW42315   3.406   4.542   7.538  0.1390 -0.2611 -0.3885
12620SOL    HW142316   3.470   4.474   7.519  0.9887 -0.0348  1.5043
12620SOL    HW242317   3.458   4.620   7.557 -0.7920  0.6443 -1.4052
12621SOL     OW42318   9.193   1.678   5.405 -0.1048 -0.1616 -0.1882
12621SOL    HW142319   9.121   1.726   5.445  2.2463  1.0976  2.9439
12621SOL    HW242320   9.167   1.586   5.410 -1.8878  0.3229 -0.1289
12622SOL     OW42321   6.885   3.417   7.076  0.0135 -0.2666 -0.0369
12622SOL    HW142322   6.894   3.381   6.988 -0.2503 -1.1171  0.2747
12622SOL    HW242323   6.957   3.377   7.126  0.7981  0.9935 -0.0962
12623SOL     OW42324   0.210   0.091   2.395 -0.0128  0.4100 -0.4220
12623SOL    HW142325   0.290   0.051   2.432 -0.3160  0.4876  0.3449
12623SOL    HW242326   0.224   0.185   2.406 -0.0573  0.4397 -0.6219
12624SOL     OW42327   6.024  10.819   4.327 -0.1966  0.1755  0.0766
12624SOL    HW142328   6.061  10.892   4.377 -0.8562  0.9836 -0.5749
12624SOL    HW242329   6.055  10.833   4.237 -2.2938  1.0862 -0.5697
12625SOL     OW42330   7.806   1.135  10.777 -0.0537 -0.2368 -0.3965
12625SOL    HW142331   7.747   1.146  10.852  0.7383 -1.8645  0.5365
12625SOL    HW242332   7.833   1.224  10.754 -1.0145  0.3608  0.6765
12626SOL     OW42333   2.431   5.328   8.852  0.1679 -0.5971  0.4565
12626SOL    HW142334   2.454   5.311   8.760  0.8301 -1.5286  0.7830
12626SOL    HW242335   2.352   5.277   8.866 -1.0455  1.0472 -0.1074
12627SOL     OW42336   4.017   6.359   3.248  0.5402  0.2567  0.6309
12627SOL    HW142337   3.978   6.441   3.277  0.3005 -0.7186  3.3629
12627SOL    HW242338   3.946   6.315   3.201  0.1261  0.8553  0.6791
12628SOL     OW42339   7.794   7.601   5.973  0.9616 -0.1743  0.0172
12628SOL    HW142340   7.700   7.617   5.981  1.1020  1.5525 -1.3332
12628SOL    HW242341   7.826   7.669   5.915  3.4457  0.6984  2.1686
12629SOL     OW42342   5.985  10.254   5.817  0.2424 -0.6479 -0.3635
12629SOL    HW142343   6.026  10.280   5.899  0.1716 -0.5440 -0.3603
12629SOL    HW242344   5.891  10.249   5.838  0.2707 -1.0684 -0.3211
12630SOL     OW42345   0.192   3.419   6.802 -0.2835  0.5965 -0.3996
12630SOL    HW142346   0.163   3.443   6.890 -2.1691  2.3187 -1.3988
12630SOL    HW242347   0.282   3.389   6.813 -1.6882 -3.2826  2.6773
12631SOL     OW42348   1.938  10.886   0.687  0.1514  0.2923  0.2007
12631SOL    HW142349   1.914  10.924   0.771  0.1545  0.9546 -0.0913
12631SOL    HW242350   1.982  10.957   0.640 -0.0875  0.0095 -0.4643
12632SOL     OW42351   9.646   3.061   9.616 -0.6415 -0.1132 -0.2157
12632SOL    HW142352   9.724   3.066   9.672  0.2362 -1.1783 -1.2822
12632SOL    HW242353   9.681   3.043   9.529 -1.9777  1.3593 -1.1098
12633SOL     OW42354   5.804   2.349   8.887  0.3303 -0.1218 -0.0728
12633SOL    HW142355   5.897   2.355   8.910  0.2219  1.5754  0.0700
12633SOL    HW242356   5.799   2.279   8.822  1.2947 -2.0648  1.8056
12634SOL     OW42357   4.750   9.857   0.717  0.3148  0.1381 -0.6527
12634SOL    HW142358   4.811   9.908   0.771 -0.3939  0.4194 -0.1018
12634SOL    HW242359   4.701   9.805   0.780 -1.2719  1.2562 -0.9034
12635SOL     OW42360  10.613   2.977   4.438 -0.1453  0.2843 -0.3120
12635SOL    HW142361  10.556   2.901   4.430  0.3634 -0.0128 -1.2255
12635SOL    HW242362  10.634   3.001   4.348 -1.5355  2.4591 -0.1221
12636SOL     OW42363   9.709   1.760   5.943 -0.6192  0.3991  0.1936
12636SOL    HW142364   9.775   1.700   5.906 -1.8491 -2.0476  1.7082
12636SOL    HW242365   9.720   1.751   6.037 -2.9497  0.0615  0.4853
12637SOL     OW42366   5.065   4.234   9.273 -0.2319 -0.4235 -0.4410
12637SOL    HW142367   5.077   4.314   9.221  0.3228 -1.0848 -1.3659
12637SOL    HW242368   5.104   4.255   9.358 -1.8780  0.9572  0.0201
12638SOL     OW42369   4.740   8.183   8.028 -0.1081 -0.4916 -0.2859
12638SOL    HW142370   4.797   8.247   8.070  0.1003 -0.5314 -0.5033
12638SOL    HW242371   4.757   8.101   8.075 -1.0259 -0.2086  0.5754
12639SOL     OW42372   0.606   0.684   7.823 -0.0230  0.1890 -0.2452
12639SOL    HW142373   0.686   0.734   7.811 -0.5210  1.4919  1.4856
12639SOL    HW242374   0.544   0.746   7.861 -0.8832 -1.5586  1.3584
12640SOL     OW42375   0.815  10.945  10.810 -0.1938  0.3920  0.5148
12640SOL    HW142376   0.820  11.008  10.882 -1.5857  0.5819  0.4737
12640SOL    HW242377   0.748  10.980  10.752 -1.3967 -1.3839  0.7586
12641SOL     OW42378   7.687   1.901   0.347  0.3411 -0.3511  0.1143
12641SOL    HW142379   7.683   1.979   0.402  1.5123  1.0569 -1.7069
12641SOL    HW242380   7.768   1.858   0.374 -0.1057 -0.7666  0.8427
12642SOL     OW42381   3.075   9.367   5.809 -0.0494 -1.2945  0.2124
12642SOL    HW142382   3.094   9.317   5.729  1.6919 -0.9916  0.3903
12642SOL    HW242383   3.149   9.428   5.817 -1.2823  0.1612  0.9064
12643SOL     OW42384   1.981   7.130   6.469 -0.1614  0.4275  0.1268
12643SOL    HW142385   2.071   7.152   6.494 -0.4710  0.3965  1.3382
12643SOL    HW242386   1.989   7.095   6.381  1.0487  0.2445  0.2870
12644SOL     OW42387   8.221   7.432   3.101 -0.2851 -0.0183  0.1377
12644SOL    HW142388   8.237   7.366   3.168 -3.2909  0.0596  1.0800
12644SOL    HW242389   8.222   7.516   3.148 -1.4782  0.1231 -0.0665
12645SOL     OW42390   5.492   4.303   0.501 -0.0680 -0.1592 -0.3390
12645SOL    HW142391   5.556   4.293   0.431 -0.8821  0.4129 -1.1887
12645SOL    HW242392   5.473   4.214   0.530  1.5966 -0.3027  0.3922
12646SOL     OW42393   1.224   6.631   1.635 -0.4734 -0.4482 -0.0537
12646SOL    HW142394   1.191   6.546   1.606 -2.1468  0.3573 -0.6910
12646SOL    HW242395   1.301   6.646   1.580  1.1084 -2.4125  1.4885
12647SOL     OW42396   9.628   2.446  10.439 -0.8290 -0.0385 -0.4964
12647SOL    HW142397   9.600   2.443  10.530  2.6833  1.1462  0.7756
12647SOL    HW242398   9.600   2.533  10.408  0.2741  0.6303  0.3391
12648SOL     OW42399   0.639   9.576   4.066 -0.1774 -0.0376 -0.0482
12648SOL    HW142400   0.585   9.655   4.070  0.3177  0.2636  2.3495
12648SOL    HW242401   0.727   9.606   4.085  0.2139 -1.0196 -0.2650
12649SOL     OW42402   4.717   5.994   0.465 -0.0961 -0.0926 -0.1485
12649SOL    HW142403   4.632   6.035   0.482  0.2941  0.8866 -0.4866
12649SOL    HW242404   4.725   5.927   0.533 -1.4614 -0.7141 -0.5489
12650SOL     OW42405   9.312   8.569   4.128  0.0563 -0.1191 -0.1974
12650SOL    HW142406   9.276   8.601   4.045  0.3848 -1.0659 -0.7149
12650SOL    HW242407   9.274   8.627   4.194 -2.2490 -0.9271 -0.7290
12651SOL     OW42408   6.559   7.740   6.074 -0.1266  0.3292  0.2213
12651SOL    HW142409   6.632   7.680   6.085 -1.0736 -0.7596  0.7922
12651SOL    HW242410   6.486   7.685   6.047 -0.7998  1.3577 -0.1378
12652SOL     OW42411  10.905   8.220  10.086 -0.3311  0.1071 -0.7060
12652SOL    HW142412  10.870   8.144  10.040 -0.7960 -0.0619 -0.0807
12652SOL    HW242413  10.844   8.235  10.158 -0.0429  0.8522 -0.6127
12653SOL     OW42414  10.714   4.412   8.859 -0.3744  0.4596  0.0094
12653SOL    HW142415  10.737   4.385   8.948  1.4400  2.6226  0.2808
12653SOL    HW242416  10.788   4.384   8.806 -0.4933  1.0174 -0.4505
12654SOL     OW42417  10.458   8.433   5.669  0.0251  0.8179 -0.3212
12654SOL    HW142418  10.444   8.369   5.599 -0.8126 -0.2952  0.8047
12654SOL    HW242419  10.449   8.382   5.750 -1.1036  2.4331  0.6440
12655SOL     OW42420  10.662   7.074   9.937  0.3542  0.3913 -0.0913
12655SOL    HW142421  10.690   7.041   9.852  0.5146 -1.2382  0.5635
12655SOL    HW242422  10.572   7.042   9.947  0.9309 -0.9289  1.0798
12656SOL     OW42423   9.472   8.502   8.879  0.1118  0.1659  0.4013
12656SOL    HW142424   9.431   8.589   8.879 -1.2093 -0.4246  0.8536
12656SOL    HW242425   9.431   8.456   8.953  0.9049 -0.7847  0.2687
12657SOL     OW42426   4.323   2.406   5.330 -0.1266  0.8310  0.2793
12657SOL    HW142427   4.304   2.424   5.238  0.4727 -0.2632 -0.0705
12657SOL    HW242428   4.341   2.492   5.368 -0.9795  1.3667 -0.4709
12658SOL     OW42429   4.569   9.670   1.804  0.4908  0.2025 -0.1703
12658SOL    HW142430   4.487   9.643   1.763 -1.1890  1.0179  2.3916
12658SOL    HW242431   4.614   9.722   1.737  0.4412 -2.7504 -2.7022
12659SOL     OW42432   7.570   3.284   8.700 -0.1935 -0.2929  0.3612
12659SOL    HW142433   7.511   3.357   8.716  0.6275  0.1534  1.4385
12659SOL    HW242434   7.650   3.325   8.666 -0.1120 -0.7920 -0.0611
12660SOL     OW42435   4.434   2.778   3.296 -0.2169 -0.5998  0.0996
12660SOL    HW142436   4.348   2.756   3.261 -0.3451 -0.6500  0.4439
12660SOL    HW242437   4.447   2.870   3.272 -0.4368 -0.5464  0.1909
12661SOL     OW42438   5.330  10.600   0.182 -0.0423 -0.7248  0.5433
12661SOL    HW142439   5.364  10.527   0.234 -0.4183  0.2838  2.2810
12661SOL    HW242440   5.406  10.634   0.135 -0.0620 -2.8903 -1.2033
12662SOL     OW42441   3.062   7.231   1.817 -0.0760  0.0737  0.6191
12662SOL    HW142442   3.068   7.138   1.794  0.0341  0.7051 -2.4434
12662SOL    HW242443   3.008   7.233   1.896 -0.0985 -2.5696  0.7729
12663SOL     OW42444   9.372  10.473   5.298  0.3933  0.3281  0.5484
12663SOL    HW142445   9.287  10.490   5.338  0.0878 -0.1833  0.1315
12663SOL    HW242446   9.397  10.387   5.331 -0.7376 -0.9869 -1.7644
12664SOL     OW42447   0.206   0.761   5.399  0.0769  0.2575 -0.4439
12664SOL    HW142448   0.215   0.673   5.362 -1.4543 -0.3783  0.5834
12664SOL    HW242449   0.116   0.787   5.377 -0.5311  0.2861  1.8394
12665SOL     OW42450   7.799  10.100   7.194  0.2047  0.4650 -0.1775
12665SOL    HW142451   7.815  10.135   7.282 -0.6260  0.3288  0.0324
12665SOL    HW242452   7.886  10.094   7.155  0.4637  1.9384  0.0946
12666SOL     OW42453   1.536   5.627   3.533  0.3480  0.3463  0.4561
12666SOL    HW142454   1.610   5.657   3.586  1.1455 -1.3788  0.3587
12666SOL    HW242455   1.574   5.565   3.471 -0.9274  0.6949 -0.7376
12667SOL     OW42456   8.753   6.248   0.562  0.2569  0.1459  0.1665
12667SOL    HW142457   8.770   6.185   0.493  2.4477  1.9831 -1.1122
12667SOL    HW242458   8.814   6.225   0.632  0.9646  0.7434 -0.2464
12668SOL     OW42459   1.927   8.428   3.244 -0.6622  0.3167 -0.3699
12668SOL    HW142460   1.926   8.415   3.339 -0.3215  1.4139 -0.1925
12668SOL    HW242461   1.988   8.501   3.231 -1.4693  0.8481 -1.3300
12669SOL     OW42462   2.595   5.689   7.132 -0.2504 -0.2701 -0.7399
12669SOL    HW142463   2.570   5.761   7.190  0.6734  0.7156 -1.5059
12669SOL    HW242464   2.635   5.732   7.056  0.7489 -1.5980 -1.0206
12670SOL     OW42465   1.668   0.484   0.797  0.4456  0.2116  0.2771
12670SOL    HW142466   1.649   0.419   0.866  0.4661 -1.0844 -0.8932
12670SOL    HW242467   1.706   0.558   0.844 -0.5217 -0.2044  1.7886
12671SOL     OW42468   3.851   3.954   1.561 -0.2231  0.2374  0.0619
12671SOL    HW142469   3.839   4.015   1.634  3.0657 -0.4725  1.4047
12671SOL    HW242470   3.928   3.988   1.514 -0.7081 -0.7530 -1.5177
12672SOL     OW42471   3.546   1.735   3.384  0.3343 -0.1451  0.3818
12672SOL    HW142472   3.451   1.720   3.388  0.2145  0.5766  0.2282
12672SOL    HW242473   3.581   1.654   3.345 -0.3336  0.0177 -0.6067
12673SOL     OW42474   6.383   5.030   2.019  0.4309  0.3848  0.3599
12673SOL    HW142475   6.442   4.954   2.027 -1.5188 -1.3226 -0.5662
12673SOL    HW242476   6.296   4.991   2.005 -0.9977  2.7905  1.9292
12674SOL     OW42477   8.529   0.732   7.376 -0.3029  0.2414  0.4925
12674SOL    HW142478   8.590   0.802   7.400 -0.0836  0.0520  0.4939
12674SOL    HW242479   8.470   0.726   7.451 -0.6517  0.7827  0.2659
12675SOL     OW42480   6.863   3.511   8.262  0.3394  0.1042  0.0761
12675SOL    HW142481   6.871   3.415   8.262  0.8255  0.1346  0.4106
12675SOL    HW242482   6.803   3.531   8.191 -1.4807 -0.5843  1.3629
12676SOL     OW42483   8.871   7.548   0.353 -0.1326  0.0495 -0.3448
12676SOL    HW142484   8.958   7.585   0.372  0.3051 -0.2155 -1.7030
12676SOL    HW242485   8.819   7.623   0.324 -0.9148  0.5244  2.0187
12677SOL     OW42486   3.692   0.953   6.184  0.1078  0.0087  0.0318
12677SOL    HW142487   3.753   0.884   6.209  1.8526  1.5894  0.3181
12677SOL    HW242488   3.663   0.990   6.268  0.0791  0.3700 -0.1379
12678SOL     OW42489   9.799  10.380   0.825  0.4116  0.2345  0.2587
12678SOL    HW142490   9.871  10.316   0.820  0.5336  0.3219  0.7526
12678SOL    HW242491   9.729  10.333   0.872  0.4835  0.4408  0.5797
12679SOL     OW42492  10.998   6.016   6.488 -0.1584  0.1356  0.5645
12679SOL    HW142493  10.935   5.982   6.551 -1.3618  0.0665 -0.6452
12679SOL    HW242494  11.079   6.027   6.538 -0.2904 -2.5298  1.4882
12680SOL     OW42495   9.534   5.241   9.298 -0.3614 -0.3709 -0.2649
12680SOL    HW142496   9.445   5.274   9.288 -0.0025  1.6823  2.1872
12680SOL    HW242497   9.525   5.164   9.354 -0.5851  0.4842  0.9322
12681SOL     OW42498   5.646   2.556   8.634 -0.4798 -0.2042  0.2245
12681SOL    HW142499   5.657   2.506   8.553 -0.7352 -0.8916  0.6032
12681SOL    HW242500   5.686   2.641   8.615  1.5803 -1.1391  0.1621
12682SOL     OW42501   9.737   1.258   8.005 -0.8532 -0.0336  0.1296
12682SOL    HW142502   9.817   1.212   7.979 -1.4759  0.0464 -2.0826
12682SOL    HW242503   9.740   1.341   7.957 -1.4071  0.7654  1.4254
12683SOL     OW42504   1.137  10.930   1.464 -0.6875  0.8835  0.7647
12683SOL    HW142505   1.227  10.914   1.435 -0.9758  1.0805 -0.2520
12683SOL    HW242506   1.126  10.870   1.538 -0.5253 -0.9774 -0.6431
12684SOL     OW42507   3.759   8.960   4.436  0.0832  0.1051 -0.4865
12684SOL    HW142508   3.821   8.926   4.500 -1.9005 -0.8378  1.0307
12684SOL    HW242509   3.784   9.052   4.425  2.5733 -0.5523 -1.0389
12685SOL     OW42510   3.803   7.630   9.704 -0.0945  0.3111 -0.0020
12685SOL    HW142511   3.896   7.626   9.682 -0.1306  0.3888 -0.1724
12685SOL    HW242512   3.800   7.621   9.799 -0.0591 -2.3679 -0.1876
12686SOL     OW42513   9.261   6.557   5.482  0.2953 -0.6885 -0.3900
12686SOL    HW142514   9.228   6.491   5.542 -0.1438 -0.6789 -0.6153
12686SOL    HW242515   9.276   6.634   5.536  1.8547 -1.2849  0.0814
12687SOL     OW42516   6.659   2.056   9.368 -0.3633 -0.3768 -0.1358
12687SOL    HW142517   6.733   1.997   9.350  2.4522  2.3462  1.5180
12687SOL    HW242518   6.630   2.031   9.456 -0.8891 -0.9001 -0.4513
12688SOL     OW42519   9.390   4.039  10.769  0.1304 -0.0645 -0.6220
12688SOL    HW142520   9.310   4.002  10.805  1.0272 -0.4115  1.0906
12688SOL    HW242521   9.460   3.984  10.803  1.2419  1.2380 -0.7014
12689SOL     OW42522   8.671  10.513   4.774  0.5335 -0.6648 -0.4560
12689SOL    HW142523   8.585  10.485   4.806  1.1256 -0.8163  1.1021
12689SOL    HW242524   8.666  10.502   4.679 -1.2975 -0.2957 -0.4539
12690SOL     OW42525   2.234   1.291   4.336 -0.3003 -0.2295 -0.3505
12690SOL    HW142526   2.254   1.211   4.384  0.1109 -0.0720 -0.2499
12690SOL    HW242527   2.311   1.347   4.349 -0.9044  0.4907  0.2085
12691SOL     OW42528   2.864   1.556  10.837  0.1466 -0.4804  0.0250
12691SOL    HW142529   2.943   1.516  10.874 -0.4705 -0.7494  1.0956
12691SOL    HW242530   2.868   1.647  10.863  0.9481 -0.0708 -1.3982
12692SOL     OW42531  10.454   4.720   0.162  0.4699 -0.2446  0.1602
12692SOL    HW142532  10.399   4.678   0.228  1.3274  0.1975  1.1816
12692SOL    HW242533  10.392   4.750   0.095 -0.2121 -2.8840 -0.5239
12693SOL     OW42534   9.300   9.621   4.545  0.5234 -0.3090 -0.6282
12693SOL    HW142535   9.335   9.685   4.483 -1.3529 -0.6921 -2.1516
12693SOL    HW242536   9.336   9.537   4.516  1.5836 -0.2046  0.3157
12694SOL     OW42537   3.769   2.206   8.547  0.3101  0.0144 -0.3222
12694SOL    HW142538   3.780   2.170   8.459  0.4828 -2.8899  0.7567
12694SOL    HW242539   3.675   2.197   8.565  0.1428  1.3204 -0.4509
12695SOL     OW42540   6.392   6.788   4.672 -0.3016 -0.2213  0.8494
12695SOL    HW142541   6.358   6.864   4.720 -0.7931  0.0848  0.0360
12695SOL    HW242542   6.484   6.784   4.696  0.6256  2.6945 -1.6171
12696SOL     OW42543   4.017   5.792   2.124 -0.2354 -0.2410 -0.0638
12696SOL    HW142544   3.974   5.876   2.136 -0.7844 -0.0370 -2.7589
12696SOL    HW242545   4.110   5.814   2.112 -0.3021 -0.0605 -0.2507
12697SOL     OW42546   6.590   7.561   5.358 -0.0478 -0.5728  0.2095
12697SOL    HW142547   6.685   7.546   5.357  0.0100 -0.1948 -0.0351
12697SOL    HW242548   6.556   7.500   5.292  0.1018 -0.2214 -0.1973
12698SOL     OW42549   7.431   1.836   7.915 -0.3136  0.1626 -0.3436
12698SOL    HW142550   7.498   1.831   7.847  1.4919  0.9504  1.3081
12698SOL    HW242551   7.404   1.928   7.915 -0.1180  0.2185  0.1832
12699SOL     OW42552   6.777  10.257   6.009 -0.2455 -0.2971  0.2716
12699SOL    HW142553   6.811  10.186   5.954  1.8630  0.4135  0.5683
12699SOL    HW242554   6.777  10.334   5.951 -0.7272 -0.1372  0.4799
12700SOL     OW42555   1.593   9.760   8.960 -1.0600 -0.0426  0.0834
12700SOL    HW142556   1.504   9.737   8.934 -1.3397  1.0366  0.0748
12700SOL    HW242557   1.585   9.844   9.004  0.0351  0.3617 -0.4627
12701SOL     OW42558   7.607   2.612   2.747  0.0747 -0.1600 -0.1295
12701SOL    HW142559   7.669   2.685   2.753 -1.9050  1.5212  1.2176
12701SOL    HW242560   7.567   2.608   2.834 -1.5866 -1.3030 -0.9073
12702SOL     OW42561   4.375  10.567  10.309  0.6466  0.4063 -0.0907
12702SOL    HW142562   4.284  10.585  10.331  0.8549  0.8669  0.4396
12702SOL    HW242563   4.423  10.584  10.391  1.3065  1.0081 -0.5934
12703SOL     OW42564   3.575   4.856   7.176  0.0271 -0.5015 -0.4977
12703SOL    HW142565   3.567   4.887   7.266 -0.0823 -0.8651 -0.3851
12703SOL    HW242566   3.631   4.779   7.182  2.4452  1.0658 -1.0588
12704SOL     OW42567   7.457   8.882   4.232  0.6558 -0.6277 -0.1645
12704SOL    HW142568   7.397   8.866   4.305  0.1319 -0.3163 -0.5224
12704SOL    HW242569   7.430   8.967   4.197  0.7238 -0.9095 -0.9045
12705SOL     OW42570   7.037  10.997   6.855  0.3378 -0.2378  0.0591
12705SOL    HW142571   7.056  11.042   6.937 -0.2751 -0.6446  0.4266
12705SOL    HW242572   6.995  10.915   6.881  0.7440 -0.6793 -0.6318
12706SOL     OW42573   4.846   8.380   1.480 -0.0303  0.0892 -0.0552
12706SOL    HW142574   4.795   8.356   1.403  0.9273 -0.4683 -0.5377
12706SOL    HW242575   4.884   8.465   1.458  0.9538 -0.4664 -0.5846
12707SOL     OW42576   5.808   4.557   8.946 -0.3421 -0.4190  0.2447
12707SOL    HW142577   5.728   4.604   8.923  0.7048  0.3298 -2.1218
12707SOL    HW242578   5.797   4.471   8.905 -1.2909 -1.5602  2.7035
12708SOL     OW42579   8.075   8.959   9.661 -0.5764 -0.0964 -0.3113
12708SOL    HW142580   8.068   9.040   9.610 -1.0719  0.5868  0.7952
12708SOL    HW242581   8.158   8.920   9.633  0.7982  1.9208  0.7128
12709SOL     OW42582   5.154   0.666   3.830 -0.0032 -0.5722 -0.0184
12709SOL    HW142583   5.191   0.580   3.811 -0.6791 -0.9464  0.3481
12709SOL    HW242584   5.117   0.657   3.918 -0.2740  0.0298 -0.0686
12710SOL     OW42585  10.157   7.749   2.989  0.3999  0.0711 -0.1570
12710SOL    HW142586  10.233   7.789   2.948 -1.1779  1.3054 -2.0608
12710SOL    HW242587  10.157   7.785   3.078  1.8524  0.2630 -0.2100
12711SOL     OW42588   4.608   2.563   1.240 -0.0098  0.4797  0.1489
12711SOL    HW142589   4.682   2.507   1.218  1.1500  2.1642 -0.4910
12711SOL    HW242590   4.553   2.510   1.297  0.6047 -1.5572 -1.0597
12712SOL     OW42591   1.023  10.223   8.015  0.4657  0.2479 -0.1380
12712SOL    HW142592   0.999  10.172   7.937 -0.8593  2.9150 -1.6060
12712SOL    HW242593   1.111  10.255   7.997  0.4266  0.3040 -0.2300
12713SOL     OW42594   2.556   3.964   7.891 -0.3547  0.3630  0.6608
12713SOL    HW142595   2.568   3.972   7.986  1.1411  2.4704  0.3514
12713SOL    HW242596   2.519   4.048   7.864  1.3970  0.6966 -0.8937
12714SOL     OW42597   8.343   0.573   4.653 -0.5900  0.0920 -0.1186
12714SOL    HW142598   8.309   0.653   4.693 -0.0258  0.4484 -0.3409
12714SOL    HW242599   8.420   0.551   4.705  0.7181  1.0955 -1.5434
12715SOL     OW42600   9.978   5.099   7.969 -0.6316  0.0580  0.3904
12715SOL    HW142601   9.925   5.168   7.930 -0.1920  0.3664  0.3294
12715SOL    HW242602  10.069   5.128   7.956 -0.4328 -0.6699  0.0989
12716SOL     OW42603   8.040   4.768   1.248  0.7043 -0.3788 -0.2103
12716SOL    HW142604   8.040   4.779   1.153 -0.5657  0.2317 -0.1559
12716SOL    HW242605   8.133   4.770   1.272  1.1155 -1.6580 -1.5441
12717SOL     OW42606   5.912   1.553   7.269  0.0701  0.2435  0.1400
12717SOL    HW142607   5.828   1.549   7.315 -0.3076 -0.2872 -0.5494
12717SOL    HW242608   5.897   1.615   7.197  0.0797 -0.2639 -0.3127
12718SOL     OW42609   3.344   7.384   0.816  0.2808 -0.3730 -0.3170
12718SOL    HW142610   3.357   7.309   0.875 -0.2940  0.5310  0.9998
12718SOL    HW242611   3.252   7.377   0.790  0.6912 -1.1400 -1.6881
12719SOL     OW42612   2.186   6.990   5.397  0.0755  0.2025  0.2346
12719SOL    HW142613   2.156   6.905   5.364 -0.7520 -0.0786  1.6163
12719SOL    HW242614   2.153   7.053   5.333 -1.9562 -0.2810  0.7007
12720SOL     OW42615   0.620   8.184   6.283  0.5233 -0.0298 -0.5134
12720SOL    HW142616   0.526   8.196   6.296  0.9675  3.9312  0.1891
12720SOL    HW242617   0.645   8.118   6.348 -1.6618 -0.9508 -0.5207
12721SOL     OW42618   3.523   7.528   8.732  0.3204 -0.3167  0.5208
12721SOL    HW142619   3.611   7.564   8.744  0.8389 -1.7214  1.1682
12721SOL    HW242620   3.478   7.548   8.814 -0.3751  1.3881 -0.2236
12722SOL     OW42621   9.720   4.133   8.035  0.1817 -0.1501 -0.1875
12722SOL    HW142622   9.734   4.049   8.078  0.8671  0.0698  0.0198
12722SOL    HW242623   9.807   4.166   8.016 -0.0921  0.2972 -0.7031
12723SOL     OW42624   4.488   7.140   6.616  0.0196  0.2676  0.1920
12723SOL    HW142625   4.549   7.115   6.686 -1.5361  1.0443  1.8969
12723SOL    HW242626   4.544   7.171   6.545  1.7523 -2.2388  0.3263
12724SOL     OW42627  11.022   0.736   8.933 -0.1571  0.2612 -0.6820
12724SOL    HW142628  10.952   0.792   8.899 -0.9327 -0.6167 -0.5971
12724SOL    HW242629  11.070   0.791   8.995 -2.7516  0.0467  1.7381
12725SOL     OW42630  10.657   9.947   1.530  0.1986 -0.4449 -0.0092
12725SOL    HW142631  10.746   9.949   1.566  0.3382  2.4959 -0.2223
12725SOL    HW242632  10.623  10.035   1.547 -1.3349 -0.2936 -3.1055
12726SOL     OW42633   8.821   9.508   0.356 -0.2779  0.1017  0.0743
12726SOL    HW142634   8.843   9.599   0.334 -0.4078  0.4328  1.2717
12726SOL    HW242635   8.764   9.480   0.284  1.0744  0.4125 -1.1560
12727SOL     OW42636   9.752   3.048   4.954 -0.5753 -0.4403 -0.7382
12727SOL    HW142637   9.800   2.993   5.016  0.2994 -0.5731 -1.5244
12727SOL    HW242638   9.690   3.096   5.009 -1.2237 -2.0245  0.0104
12728SOL     OW42639   7.570   4.430   0.421 -0.5393  0.4309  0.3918
12728SOL    HW142640   7.539   4.429   0.331 -0.4456  0.5527  0.3589
12728SOL    HW242641   7.531   4.352   0.460 -0.1746  0.0974  0.1070
12729SOL     OW42642   3.836   0.777   6.862  0.4944 -0.6028  0.3387
12729SOL    HW142643   3.808   0.848   6.805  1.3972  0.8705  1.6411
12729SOL    HW242644   3.926   0.759   6.836  0.6420 -0.4811  0.7569
12730SOL     OW42645   8.124  10.412   9.872 -0.4818 -0.8183 -0.3089
12730SOL    HW142646   8.210  10.400   9.914 -0.5370 -1.1516 -0.2863
12730SOL    HW242647   8.077  10.331   9.892 -0.5970 -0.8780 -0.8147
12731SOL     OW42648   6.850   1.165   6.121 -0.1072 -1.3863 -0.5688
12731SOL    HW142649   6.861   1.102   6.193 -1.0792 -0.0000  0.8713
12731SOL    HW242650   6.917   1.232   6.138 -2.3506  0.6316  1.0334
12732SOL     OW42651   6.418   6.818   7.409 -0.4660  0.1199 -0.0171
12732SOL    HW142652   6.482   6.756   7.444 -1.0597  0.1894  1.2527
12732SOL    HW242653   6.357   6.832   7.481 -3.0332 -1.3712 -1.7464
12733SOL     OW42654   5.937  10.622   8.280 -0.1725  0.3052 -0.0270
12733SOL    HW142655   5.950  10.600   8.373 -0.3914 -0.8629 -0.2576
12733SOL    HW242656   5.919  10.716   8.280  1.0120  0.5495  0.9950
12734SOL     OW42657   7.142   5.698   0.143 -0.0577 -0.0116  0.1413
12734SOL    HW142658   7.089   5.777   0.146  0.0630  0.0333  1.4345
12734SOL    HW242659   7.229   5.725   0.172 -0.2493 -0.7737  1.5249
12735SOL     OW42660   4.853   0.785   7.054 -0.3227 -0.4878 -0.1810
12735SOL    HW142661   4.945   0.767   7.038 -0.5783 -1.4719 -0.6130
12735SOL    HW242662   4.837   0.752   7.142 -0.0889  0.4074  0.2109
12736SOL     OW42663   7.403   2.864   8.098 -0.1428 -0.3461  0.5184
12736SOL    HW142664   7.431   2.781   8.060  1.1849 -1.2707  3.2689
12736SOL    HW242665   7.482   2.918   8.097 -0.6266  0.3685  0.1006
12737SOL     OW42666   4.712   4.741   1.810  0.4239 -0.0720 -0.4720
12737SOL    HW142667   4.668   4.767   1.729 -2.4442 -1.6717  0.3847
12737SOL    HW242668   4.669   4.792   1.878  0.8980 -0.6657  0.2936
12738SOL     OW42669  10.122   1.076   9.445 -0.0553 -0.1115  0.1525
12738SOL    HW142670  10.203   1.075   9.497  0.1589 -0.4627 -0.1870
12738SOL    HW242671  10.147   1.119   9.363 -0.3934  0.4398  0.3277
12739SOL     OW42672   2.921   1.431   4.690 -0.6837 -0.3854 -0.2209
12739SOL    HW142673   2.893   1.512   4.734 -1.1544 -0.5683 -0.1732
12739SOL    HW242674   2.952   1.375   4.761  2.1521  0.6824 -0.4650
12740SOL     OW42675   8.557  10.991   8.851  0.2393 -0.7139 -0.0743
12740SOL    HW142676   8.546  10.979   8.945 -2.6884 -1.8552 -0.4343
12740SOL    HW242677   8.568  11.085   8.840 -3.0276 -0.0229  1.2965
12741SOL     OW42678   1.117   1.227   6.073  0.1380  0.3032 -0.3402
12741SOL    HW142679   1.195   1.184   6.108  1.5230  1.7901 -1.4123
12741SOL    HW242680   1.105   1.304   6.128  0.1577  0.7046 -0.8808
12742SOL     OW42681   0.200   6.939   0.407 -0.1527 -0.1224  0.5003
12742SOL    HW142682   0.116   6.982   0.424 -0.1475 -0.2557  0.8696
12742SOL    HW242683   0.177   6.858   0.361 -0.2368 -0.2046  0.6832
12743SOL     OW42684   8.168   9.689   7.945 -0.2088 -0.4009  0.2139
12743SOL    HW142685   8.196   9.701   7.854 -0.1509  0.2344  0.3116
12743SOL    HW242686   8.230   9.741   7.996 -1.9883  1.6511  0.3742
12744SOL     OW42687   8.135   7.262   5.275  0.1438 -0.1381  0.4428
12744SOL    HW142688   8.069   7.298   5.334  1.2276  0.4112  1.3451
12744SOL    HW242689   8.088   7.195   5.225 -0.9798 -0.0619  1.3576
12745SOL     OW42690   8.359   2.336   9.889 -0.1275  0.2794 -0.3056
12745SOL    HW142691   8.447   2.305   9.866  1.2498  1.1767  3.0613
12745SOL    HW242692   8.320   2.264   9.939  0.7279  1.4922  2.3433
12746SOL     OW42693   6.914   7.782   5.382  0.4140 -0.5530 -0.1747
12746SOL    HW142694   6.849   7.763   5.449  0.5174  0.5146  0.2444
12746SOL    HW242695   6.939   7.873   5.397  2.2470 -1.0116 -0.0956
12747SOL     OW42696  10.025   7.961   3.831  0.0317  0.5352 -0.0248
12747SOL    HW142697  10.107   7.969   3.782  0.2667  2.1408  0.5754
12747SOL    HW242698   9.958   7.946   3.764  0.7169 -0.1130 -0.5734
12748SOL     OW42699   9.070   5.179   0.053  0.1920 -0.0210 -0.3650
12748SOL    HW142700   9.107   5.245   0.113 -1.2352  0.9338 -0.4807
12748SOL    HW242701   9.098   5.207  -0.034 -3.2120  2.6104 -0.8400
12749SOL     OW42702   3.624   3.862   8.505  0.8145 -0.7030 -0.6160
12749SOL    HW142703   3.565   3.937   8.499  0.6986 -0.8222 -1.0037
12749SOL    HW242704   3.712   3.901   8.509  0.7255 -0.5328 -0.2639
12750SOL     OW42705   3.249   9.745   4.201  0.0620  0.9240  0.0601
12750SOL    HW142706   3.326   9.802   4.194 -0.6919  2.6132  3.3569
12750SOL    HW242707   3.193   9.770   4.128  1.6798  1.1946 -1.1407
12751SOL     OW42708   5.097   4.958   7.451 -0.1106 -0.5466 -0.2153
12751SOL    HW142709   5.124   4.908   7.527 -0.3430  0.1989  0.3676
12751SOL    HW242710   5.058   5.038   7.487 -2.1774 -1.1115 -1.0242
12752SOL     OW42711  10.871   4.780  10.794 -0.0922  0.0515 -0.0020
12752SOL    HW142712  10.947   4.743  10.749  1.4438  0.7454  1.8614
12752SOL    HW242713  10.835   4.844  10.733  0.4361 -0.7183 -1.1546
12753SOL     OW42714   2.665  10.687   9.165  0.6367  0.1563 -0.6486
12753SOL    HW142715   2.756  10.660   9.153  0.9322  1.1964 -0.9328
12753SOL    HW242716   2.672  10.771   9.211 -0.1752  0.3437 -0.8601
12754SOL     OW42717   4.170   0.903  10.968  0.7736 -0.0114 -0.0558
12754SOL    HW142718   4.098   0.846  10.996  2.3880 -0.3096  4.0561
12754SOL    HW242719   4.133   0.991  10.968 -0.0657 -0.3580  0.0654
12755SOL     OW42720   2.051   7.281   7.739 -0.4786  0.1334  0.8138
12755SOL    HW142721   2.045   7.263   7.832 -0.5326 -3.5813  0.2380
12755SOL    HW242722   1.977   7.340   7.721 -0.4433  0.9629  3.0435
12756SOL     OW42723   6.218   9.689  10.799 -0.0602  0.4747 -0.0327
12756SOL    HW142724   6.276   9.765  10.800  0.9505 -0.2715  0.7218
12756SOL    HW242725   6.175   9.693  10.714  0.8496  1.2440 -0.4836
12757SOL     OW42726   9.687   1.943   6.649 -1.1233  0.1931  0.3518
12757SOL    HW142727   9.626   2.016   6.642 -4.1206 -2.2314 -2.0357
12757SOL    HW242728   9.683   1.901   6.563  1.6237 -1.9235  1.1201
12758SOL     OW42729   3.176  11.032   3.934 -0.3903  0.2448  0.1021
12758SOL    HW142730   3.217  10.994   3.856 -2.3334  1.4323 -1.5806
12758SOL    HW242731   3.235  11.104   3.959  0.3352 -0.2500 -0.1432
12759SOL     OW42732  10.089   5.731   1.025  0.1199  0.5819  0.2628
12759SOL    HW142733  10.151   5.686   0.968  1.4135  0.7516  1.4795
12759SOL    HW242734  10.050   5.662   1.078  1.3128  0.7317  1.3829
12760SOL     OW42735   2.731   5.053   7.215  0.3313  0.4392 -0.0505
12760SOL    HW142736   2.824   5.038   7.231  0.0266 -1.1991  0.2579
12760SOL    HW242737   2.727   5.080   7.123  0.8435 -2.6338 -1.0809
12761SOL     OW42738   3.399   8.809   4.859  0.1068  0.0344 -0.2137
12761SOL    HW142739   3.308   8.780   4.868  0.7191 -2.9585 -2.1667
12761SOL    HW242740   3.401   8.854   4.774  0.1232  1.8649  0.7151
12762SOL     OW42741   7.088   2.332   7.409 -0.2307  0.0315  0.1892
12762SOL    HW142742   7.154   2.385   7.453  0.2968 -0.9830  0.6549
12762SOL    HW242743   7.025   2.310   7.478 -0.6898  0.4217 -0.1006
12763SOL     OW42744   0.597   4.118   6.420  0.0026  0.0609 -0.0473
12763SOL    HW142745   0.600   4.213   6.426  1.0809 -0.0690  3.5340
12763SOL    HW242746   0.680   4.094   6.377 -0.7317  0.6864 -1.9150
12764SOL     OW42747  10.217  10.929   0.612 -0.0914  0.2163 -0.5669
12764SOL    HW142748  10.163  10.957   0.538  0.2192  1.1353 -0.4524
12764SOL    HW242749  10.153  10.896   0.675 -0.3297 -0.9271 -1.3800
12765SOL     OW42750   2.945   1.584   8.376  0.2575  0.1871 -0.2304
12765SOL    HW142751   2.993   1.560   8.456 -0.5871  0.5194  0.3844
12765SOL    HW242752   2.993   1.540   8.306  1.3413  0.3424  0.3922
12766SOL     OW42753   1.901   0.331  10.790 -0.1669 -0.0123 -0.6390
12766SOL    HW142754   1.844   0.355  10.717 -0.2746 -0.6862 -0.7843
12766SOL    HW242755   1.857   0.366  10.867 -0.1058  0.6131 -0.8771
12767SOL     OW42756   4.547   4.627   5.474  0.1865  0.7243 -0.2912
12767SOL    HW142757   4.457   4.643   5.446  0.0669 -0.0862 -0.4142
12767SOL    HW242758   4.539   4.571   5.552  0.5877 -1.6500 -1.8453
12768SOL     OW42759   1.540   8.790   7.497 -0.3515 -0.1128 -0.7651
12768SOL    HW142760   1.548   8.884   7.481  0.1272  0.4903  2.3590
12768SOL    HW242761   1.446   8.777   7.510 -0.3447  0.0972 -0.4812
12769SOL     OW42762   1.533  10.974   0.493 -0.7699 -0.3012 -0.8648
12769SOL    HW142763   1.456  11.022   0.525 -1.3215 -1.3961 -0.5180
12769SOL    HW242764   1.592  10.970   0.568  0.0854  1.3788 -1.3932
12770SOL     OW42765  11.014   6.101   8.387 -1.2189 -0.3743  0.3634
12770SOL    HW142766  11.051   6.141   8.308 -3.4014  0.3565 -0.3525
12770SOL    HW242767  11.032   6.007   8.378  0.1928 -0.0887 -0.0418
12771SOL     OW42768   8.028   6.664   7.936  0.0577  0.1624  0.0201
12771SOL    HW142769   8.033   6.661   8.032 -1.7274  1.5121  0.2026
12771SOL    HW242770   7.978   6.587   7.912 -1.8547  1.2176  0.4410
12772SOL     OW42771   0.970   6.227   5.239  0.1831  0.0986  0.4671
12772SOL    HW142772   0.998   6.288   5.308 -1.2325 -0.2365  1.3832
12772SOL    HW242773   0.984   6.276   5.157  3.0607  0.0544  0.8188
12773SOL     OW42774  10.132   6.443   5.703 -0.5101 -0.7302  0.5396
12773SOL    HW142775  10.087   6.475   5.624  1.0374  0.6744  0.1611
12773SOL    HW242776  10.120   6.513   5.767 -0.2775 -1.0951  0.9837
12774SOL     OW42777   5.440   5.568   5.789 -0.2610  0.0576  0.4986
12774SOL    HW142778   5.466   5.625   5.716 -0.6219 -0.4472 -0.0325
12774SOL    HW242779   5.504   5.586   5.858 -1.0219  1.9476  0.7638
12775SOL     OW42780   2.620   4.876   7.871  0.2740  0.2236  0.1816
12775SOL    HW142781   2.576   4.840   7.794  3.0703  3.0952 -3.0866
12775SOL    HW242782   2.557   4.938   7.908 -0.6334 -0.2280 -0.5565
12776SOL     OW42783   1.252   4.992   0.850 -0.6043 -0.0501  0.3066
12776SOL    HW142784   1.279   5.070   0.898 -0.6531  0.1080  0.0787
12776SOL    HW242785   1.326   4.931   0.859 -0.7327 -0.1368  0.8313
12777SOL     OW42786   0.117   3.434  10.343  0.0570 -0.3210  0.6010
12777SOL    HW142787   0.152   3.373  10.407 -0.7246  1.1323  2.5361
12777SOL    HW242788   0.131   3.520  10.382  3.5181  1.1047 -3.1654
12778SOL     OW42789   0.063   0.842   8.664  0.2933  0.1112 -0.3748
12778SOL    HW142790   0.029   0.884   8.743  0.7142  0.2266 -0.2567
12778SOL    HW242791  -0.009   0.849   8.601 -0.7281 -1.5482  0.5271
12779SOL     OW42792  10.222   1.732   4.261  0.0972  0.1879  0.0638
12779SOL    HW142793  10.240   1.802   4.198 -0.7403 -0.9225 -1.5130
12779SOL    HW242794  10.130   1.745   4.285  0.5150  0.8232  1.3960
12780SOL     OW42795   4.304   1.642   4.824 -0.2909  0.3136  0.1999
12780SOL    HW142796   4.231   1.620   4.767 -0.9744 -0.0634  1.1878
12780SOL    HW242797   4.338   1.557   4.853  0.9429  0.4683 -0.7288
12781SOL     OW42798   2.721   8.438   4.147  0.2319  0.2965  0.4818
12781SOL    HW142799   2.772   8.399   4.077 -0.9929 -1.1869  0.3740
12781SOL    HW242800   2.784   8.493   4.194  1.5114 -0.1582 -0.6226
12782SOL     OW42801   1.753   0.536   8.722 -0.7052  0.1233  0.1242
12782SOL    HW142802   1.769   0.630   8.713  0.2269 -0.0701 -0.3305
12782SOL    HW242803   1.828   0.495   8.680 -1.6069 -0.8318 -0.6042
12783SOL     OW42804   1.658   5.681   1.532  0.6966  0.4570 -0.5405
12783SOL    HW142805   1.703   5.765   1.521  0.8278  0.5607  0.6594
12783SOL    HW242806   1.701   5.623   1.469  2.5892  0.5415  0.5679
12784SOL     OW42807   3.415   5.783  10.438 -0.1309  0.0772  0.2101
12784SOL    HW142808   3.419   5.689  10.419  2.2589 -0.1666  1.5664
12784SOL    HW242809   3.321   5.801  10.448 -0.6428 -2.2017  0.1225
12785SOL     OW42810   4.548  10.916   2.977  0.1940 -0.0719  0.0459
12785SOL    HW142811   4.547  10.942   2.885 -1.2682  1.0757  0.3476
12785SOL    HW242812   4.640  10.908   2.999  0.5879  0.5508 -1.2653
12786SOL     OW42813  10.173   0.755  10.377 -0.0474  0.3403  0.2904
12786SOL    HW142814  10.125   0.838  10.377  0.1252  0.4528  1.1932
12786SOL    HW242815  10.188   0.736  10.469  0.3030 -0.4780  0.0766
12787SOL     OW42816   8.243   0.810   8.398  0.5791  0.5419  0.1875
12787SOL    HW142817   8.274   0.827   8.487  2.4407 -0.3745 -0.2119
12787SOL    HW242818   8.305   0.856   8.341  0.5872 -0.4474 -0.6558
12788SOL     OW42819   6.053   4.469   7.726 -0.3083  0.5268  0.4582
12788SOL    HW142820   5.985   4.422   7.678  0.3475  1.1302 -1.1504
12788SOL    HW242821   6.055   4.428   7.812 -0.1824 -2.0031 -0.6636
12789SOL     OW42822   0.632  10.289   2.422  0.4766 -0.6655  0.3479
12789SOL    HW142823   0.577  10.290   2.500  2.1131  1.0217  1.5667
12789SOL    HW242824   0.570  10.287   2.349 -1.1698  0.1896  1.6414
12790SOL     OW42825   6.134  10.538   6.958  0.0338 -0.1147 -0.1404
12790SOL    HW142826   6.173  10.623   6.938  0.7793 -0.3546  0.2362
12790SOL    HW242827   6.051  10.559   7.000 -0.6580  0.3980 -1.7321
12791SOL     OW42828   9.080   1.552   6.680 -0.1056 -0.3221  0.1600
12791SOL    HW142829   9.138   1.585   6.749  0.3798 -0.3950 -0.2062
12791SOL    HW242830   9.077   1.458   6.695  0.1134 -0.3559  0.0010
12792SOL     OW42831   1.460   1.466   7.101  0.1199  0.3761 -0.4439
12792SOL    HW142832   1.521   1.436   7.169  0.2426  0.3360 -0.5720
12792SOL    HW242833   1.417   1.543   7.140  0.9933  1.0247 -0.7369
12793SOL     OW42834   8.650   3.599   1.577  0.3104  0.2989 -0.0801
12793SOL    HW142835   8.574   3.657   1.585  0.4366  0.6154 -1.0128
12793SOL    HW242836   8.645   3.565   1.488 -0.6372 -2.3855  0.9017
12794SOL     OW42837   6.156   1.250   6.365  0.0774 -0.2786  0.2197
12794SOL    HW142838   6.080   1.272   6.312 -0.2510 -0.3274  0.6646
12794SOL    HW242839   6.216   1.324   6.353 -1.1014  1.0151  1.8592
12795SOL     OW42840   5.895   6.862  10.557 -0.3266  0.2011 -0.3286
12795SOL    HW142841   5.854   6.776  10.567  1.0090 -0.2054  3.4056
12795SOL    HW242842   5.985   6.842  10.532 -0.4816  0.6732 -1.3045
12796SOL     OW42843   0.988   2.436   9.699 -0.2943 -0.1059  0.2727
12796SOL    HW142844   1.072   2.466   9.733 -0.0798 -0.8638  0.4198
12796SOL    HW242845   0.987   2.469   9.609 -0.3371  0.8626  0.6094
12797SOL     OW42846   3.436  10.928   5.974 -0.6520  0.5211  0.1261
12797SOL    HW142847   3.421  10.954   5.883  2.9065  1.0327 -0.4661
12797SOL    HW242848   3.461  11.008   6.018  0.0406 -0.1331  0.9442
12798SOL     OW42849   1.859   5.091   0.952  0.1899 -0.0582  0.3009
12798SOL    HW142850   1.941   5.087   0.902  1.5083 -1.3128  2.3576
12798SOL    HW242851   1.874   5.160   1.017  0.1416 -1.0771  1.4418
12799SOL     OW42852   0.035   1.532   2.151  0.6762  0.2923  0.3135
12799SOL    HW142853   0.116   1.513   2.103 -1.6820 -3.1239 -2.9219
12799SOL    HW242854   0.005   1.446   2.180 -1.6478  1.4984  1.6874
12800SOL     OW42855   2.172   4.063   9.774  0.1395 -0.0797 -0.1989
12800SOL    HW142856   2.180   4.148   9.817  0.9492  1.0828 -2.5066
12800SOL    HW242857   2.263   4.033   9.763  0.0003 -0.0299 -1.6425
12801SOL     OW42858   8.551   2.192   8.205 -0.7297  0.4140  0.4449
12801SOL    HW142859   8.520   2.277   8.235 -3.8710  0.2243 -1.7373
12801SOL    HW242860   8.505   2.178   8.122  0.7424 -2.8253  0.0182
12802SOL     OW42861  11.052   0.427   0.730  0.2803 -0.0764 -0.7761
12802SOL    HW142862  11.122   0.378   0.773 -0.6681  0.8171  1.9804
12802SOL    HW242863  10.979   0.423   0.791 -0.6159  2.7683 -1.5163
12803SOL     OW42864   8.779   9.089  10.408  0.7364 -0.0326  0.5601
12803SOL    HW142865   8.834   9.134  10.344 -1.7661 -1.0599 -2.6243
12803SOL    HW242866   8.767   9.152  10.479  1.1350  2.4942 -1.4732
12804SOL     OW42867   9.424   7.845   6.722 -0.6326  0.1103  0.2677
12804SOL    HW142868   9.458   7.911   6.781 -1.0553 -0.2790  0.9541
12804SOL    HW242869   9.437   7.762   6.767 -0.8299 -0.2087 -0.2437
12805SOL     OW42870  10.199   8.365   9.711  0.5716  0.0423  0.1490
12805SOL    HW142871  10.244   8.313   9.778  0.1029  0.1316  0.5414
12805SOL    HW242872  10.113   8.386   9.750  0.5322  0.6228 -0.2267
12806SOL     OW42873  10.487   9.375  10.604  0.3107  0.3392  0.2087
12806SOL    HW142874  10.578   9.363  10.578  0.1287  0.2314 -0.4022
12806SOL    HW242875  10.464   9.462  10.571  0.6836  1.0931  1.8406
12807SOL     OW42876   1.038   2.099   9.808 -0.6306 -0.2200 -0.1414
12807SOL    HW142877   1.118   2.090   9.859 -1.6931  0.8407  1.8229
12807SOL    HW242878   0.996   2.177   9.843 -3.8694 -2.2307  0.8822
12808SOL     OW42879   1.768   8.260   8.846  0.2280 -0.0426  0.3399
12808SOL    HW142880   1.750   8.228   8.934  0.5614 -1.1122  0.0277
12808SOL    HW242881   1.723   8.198   8.788  0.2465  0.4878 -0.2538
12809SOL     OW42882   6.779   7.300   3.427  0.0224 -0.0611 -0.5475
12809SOL    HW142883   6.862   7.256   3.413 -0.6645 -1.1354 -1.5141
12809SOL    HW242884   6.790   7.349   3.508  0.7813 -2.1848  0.7038
12810SOL     OW42885  10.789   1.041   3.988 -0.4636  0.0546 -0.4587
12810SOL    HW142886  10.857   0.977   3.963 -1.7627 -1.0491 -1.2999
12810SOL    HW242887  10.810   1.119   3.937 -0.3226 -0.5746 -1.3897
12811SOL     OW42888   8.525   5.594   3.664  0.4751  0.0370 -0.1915
12811SOL    HW142889   8.545   5.601   3.758  1.5088 -1.0355 -0.2985
12811SOL    HW242890   8.596   5.641   3.621 -0.5773  1.4675 -0.4375
12812SOL     OW42891   9.971   2.965   9.814 -0.4256 -0.3770  0.1626
12812SOL    HW142892   9.888   2.963   9.862 -0.3060 -2.9555  0.4152
12812SOL    HW242893  10.037   2.985   9.880 -0.7020  0.5322  0.1791
12813SOL     OW42894   4.342   0.104  10.843  0.2302 -0.1486  0.0266
12813SOL    HW142895   4.271   0.076  10.786  0.5218 -2.1626  0.5652
12813SOL    HW242896   4.403   0.151  10.785  0.2045 -1.5578 -1.1910
12814SOL     OW42897   2.343   2.622   3.756 -0.0675  0.2934 -0.0271
12814SOL    HW142898   2.427   2.580   3.736 -0.2799 -0.2066  0.1031
12814SOL    HW242899   2.300   2.631   3.671  0.2887  0.9262 -0.1423
12815SOL     OW42900   3.795   0.399  10.982 -0.0722  0.0222  0.0228
12815SOL    HW142901   3.708   0.436  10.966  0.1118 -0.3441 -2.1312
12815SOL    HW242902   3.778   0.308  11.006 -0.2923 -0.1113 -0.6106
12816SOL     OW42903   4.486   9.766  10.442  0.3694  0.2571 -0.4405
12816SOL    HW142904   4.445   9.848  10.413  0.7248  0.7227  0.3543
12816SOL    HW242905   4.528   9.787  10.525 -1.8738 -1.3863  1.2404
12817SOL     OW42906   8.937   3.044   4.224 -0.3271 -0.6620 -0.2501
12817SOL    HW142907   8.951   3.137   4.208  2.0776 -0.4014  2.5065
12817SOL    HW242908   8.845   3.037   4.251 -0.6614  0.8161 -0.9142
12818SOL     OW42909   9.288   0.545   3.991  0.1164 -0.3024 -0.5821
12818SOL    HW142910   9.239   0.595   4.056  0.3139  1.1307 -1.4849
12818SOL    HW242911   9.227   0.476   3.962  0.2260 -1.3327  1.4660
12819SOL     OW42912   6.726   6.972   5.263 -0.2515 -0.0552 -0.3010
12819SOL    HW142913   6.683   6.903   5.212  1.7226 -1.5105 -0.0899
12819SOL    HW242914   6.718   7.050   5.208  0.3258 -1.1929 -2.0922
12820SOL     OW42915   8.017   6.554   3.197 -0.1387 -0.6197 -0.3324
12820SOL    HW142916   7.978   6.638   3.172 -0.7839 -1.2325 -1.4628
12820SOL    HW242917   8.102   6.577   3.236 -0.3734  0.5548 -0.4938
12821SOL     OW42918   7.332  10.219   4.841  0.1615 -0.0143  0.0903
12821SOL    HW142919   7.287  10.237   4.758  0.7023  0.5577 -0.0896
12821SOL    HW242920   7.419  10.189   4.814  1.5084  3.2235  0.4340
12822SOL     OW42921   9.545   8.492   1.565 -0.3327 -0.4769  0.0559
12822SOL    HW142922   9.541   8.488   1.470 -1.2269 -1.2896  0.1140
12822SOL    HW242923   9.453   8.492   1.593 -0.0757 -1.5111  0.9493
12823SOL     OW42924  10.209   1.754   7.635 -0.3500 -0.3624  0.2325
12823SOL    HW142925  10.222   1.662   7.659  2.0553 -0.4628 -1.1508
12823SOL    HW242926  10.240   1.803   7.711  1.6634 -0.7298 -0.2800
12824SOL     OW42927   2.944   4.064   6.498  0.2035  0.5104 -0.3536
12824SOL    HW142928   2.907   4.122   6.432  0.2789  1.4553  0.4009
12824SOL    HW242929   2.877   4.060   6.567 -0.4293 -1.4959 -1.0225
12825SOL     OW42930   3.694   7.498   4.560  0.1674 -0.0585  0.0874
12825SOL    HW142931   3.605   7.512   4.529  0.4265 -0.0081 -0.6418
12825SOL    HW242932   3.724   7.584   4.589  0.4084  0.1747 -0.8199
12826SOL     OW42933   5.564   6.149   9.948 -0.0722  0.2053  0.3736
12826SOL    HW142934   5.589   6.237   9.919 -0.0695  0.1560  0.2270
12826SOL    HW242935   5.630   6.091   9.910  0.2349  0.1935  0.9055
12827SOL     OW42936   2.965   4.139   0.631  0.1685 -0.0824  0.4216
12827SOL    HW142937   3.014   4.220   0.647 -1.5057  0.7676  1.5109
12827SOL    HW242938   2.985   4.084   0.707  2.1314 -1.2124 -0.7989
12828SOL     OW42939   4.560   6.769   6.941  0.5654 -0.2804  0.2370
12828SOL    HW142940   4.638   6.735   6.985  1.7130  0.2310 -1.3186
12828SOL    HW242941   4.577   6.757   6.848 -0.4259  1.4748 -0.2256
12829SOL     OW42942   4.553  10.059   5.412 -0.6461 -0.7722 -0.6883
12829SOL    HW142943   4.520   9.974   5.385 -0.2629 -1.6831  1.5622
12829SOL    HW242944   4.602  10.091   5.336 -0.7580 -2.5682 -1.5541
12830SOL     OW42945   9.443   6.043   5.394 -0.2974 -0.4749 -0.0865
12830SOL    HW142946   9.409   6.122   5.352  0.7767  0.7823  1.3450
12830SOL    HW242947   9.419   6.052   5.486  1.6718 -0.7761  0.4955
12831SOL     OW42948   1.316   9.455   5.556 -0.6174  0.3561 -0.3288
12831SOL    HW142949   1.367   9.526   5.518 -0.1006  0.0365 -0.2373
12831SOL    HW242950   1.235   9.497   5.587  0.3618  1.1920  1.1963
12832SOL     OW42951   6.401   7.746   5.388 -0.3722 -0.2875  0.0572
12832SOL    HW142952   6.404   7.796   5.306 -0.6088 -0.8825 -0.3212
12832SOL    HW242953   6.463   7.674   5.375 -1.6000 -1.3254 -0.2469
12833SOL     OW42954   1.603  10.360   2.115  0.0012 -0.6458  0.0273
12833SOL    HW142955   1.574  10.427   2.054 -0.3922 -0.9220 -0.0966
12833SOL    HW242956   1.665  10.404   2.173  0.5942 -0.4558 -0.7479
12834SOL     OW42957   8.985   0.295  10.350  0.2418 -0.3424 -0.1359
12834SOL    HW142958   8.988   0.212  10.301 -1.1424 -0.0752 -0.7237
12834SOL    HW242959   9.075   0.328  10.347  1.0203 -2.2248  0.8591
12835SOL     OW42960   9.830   8.721  10.025 -0.0727 -0.1274  0.0431
12835SOL    HW142961   9.845   8.630  10.049  1.1337  0.2803  0.9398
12835SOL    HW242962   9.737   8.735  10.043 -0.2297 -1.1238  0.0735
12836SOL     OW42963   8.517   0.321   6.470  0.5533 -0.4973 -0.2343
12836SOL    HW142964   8.425   0.298   6.480  0.2344  1.6268  3.0253
12836SOL    HW242965   8.563   0.237   6.475 -1.0768 -1.4477 -0.3712
12837SOL     OW42966   5.128   5.390   9.115  0.1064 -0.2246 -0.4488
12837SOL    HW142967   5.049   5.343   9.089  0.2707 -0.4410 -0.5653
12837SOL    HW242968   5.135   5.462   9.052 -0.6995  0.5760  0.3425
12838SOL     OW42969  10.457   6.726   0.774  0.2263  0.5560 -0.4335
12838SOL    HW142970  10.528   6.695   0.830 -1.0186 -1.3234  0.2000
12838SOL    HW242971  10.501   6.766   0.699  1.9238  1.0789  0.7870
12839SOL     OW42972   6.849   7.447   7.911 -0.1878 -0.4735  0.0139
12839SOL    HW142973   6.806   7.467   7.994 -0.4958  0.9019 -0.4617
12839SOL    HW242974   6.937   7.484   7.919 -1.2785  2.7649 -1.4789
12840SOL     OW42975   2.060   2.786   0.282  0.5463  0.1116 -0.3604
12840SOL    HW142976   1.990   2.830   0.233 -0.1023 -0.5012 -0.0011
12840SOL    HW242977   2.061   2.832   0.366  1.5890  1.0949 -0.8832
12841SOL     OW42978   0.482   4.365   7.125 -0.4200 -0.1578 -0.3356
12841SOL    HW142979   0.451   4.344   7.036 -1.4160 -0.9186  0.1720
12841SOL    HW242980   0.573   4.393   7.112 -0.4606 -0.5148 -1.5703
12842SOL     OW42981   5.529   6.739   6.603 -0.5828  0.3442 -0.1259
12842SOL    HW142982   5.604   6.694   6.564  0.0945  0.0943  1.3846
12842SOL    HW242983   5.544   6.831   6.582  0.2600  0.3176  0.2879
12843SOL     OW42984   4.539   8.353   9.759  0.2498 -0.1539 -0.3782
12843SOL    HW142985   4.546   8.258   9.759 -0.7167 -0.2631  1.3386
12843SOL    HW242986   4.474   8.372   9.691  0.3743 -0.7349 -0.6603
12844SOL     OW42987   2.131  10.097   8.082 -0.0640 -0.1696  0.2942
12844SOL    HW142988   2.135  10.114   7.987  0.7444  1.2646  0.5549
12844SOL    HW242989   2.049  10.137   8.110 -1.1360 -2.0527 -0.0396
12845SOL     OW42990   8.731   7.373   4.365  0.7693  0.2945  0.3974
12845SOL    HW142991   8.640   7.385   4.341  0.2707 -0.0461  1.9659
12845SOL    HW242992   8.735   7.397   4.458  2.3494  0.6368  0.2842
12846SOL     OW42993   3.013  10.099   2.002 -0.5190 -1.0292 -0.1740
12846SOL    HW142994   2.972  10.055   2.077 -0.6630 -1.4564 -0.5018
12846SOL    HW242995   2.951  10.166   1.977 -0.0937 -0.3159  0.6200
12847SOL     OW42996   8.408   3.894   5.723  0.1117 -0.3272 -0.2018
12847SOL    HW142997   8.370   3.837   5.657 -0.9125  1.3238 -1.0732
12847SOL    HW242998   8.482   3.937   5.679  1.6752 -1.8142  0.8128
12848SOL     OW42999   6.053   4.127   8.069  0.4795  0.0245  0.6430
12848SOL    HW143000   5.999   4.116   7.991  1.4625 -0.3075 -0.0093
12848SOL    HW243001   5.992   4.113   8.142 -0.1513 -1.1945 -0.0778
12849SOL     OW43002   2.188   3.523   5.268 -0.6302 -1.1618 -0.0225
12849SOL    HW143003   2.128   3.520   5.342  1.1306  1.8885  1.7172
12849SOL    HW243004   2.272   3.493   5.304  0.5101  1.3705 -0.3848
12850SOL     OW43005   4.704   3.857  10.698  0.7840 -0.1321 -0.2549
12850SOL    HW143006   4.639   3.798  10.737  0.8632 -1.3230 -1.8231
12850SOL    HW243007   4.693   3.846  10.604  2.9162  0.0208 -0.5750
12851SOL     OW43008   8.543   8.106   2.186  0.3530 -0.1948  0.2318
12851SOL    HW143009   8.608   8.039   2.208  0.4221 -0.0270  0.5460
12851SOL    HW243010   8.483   8.107   2.261  0.6190  0.4174  0.4470
12852SOL     OW43011   7.986   1.150   9.299 -0.8883  0.5940  0.0373
12852SOL    HW143012   7.990   1.082   9.232 -1.4788  1.6374 -1.1153
12852SOL    HW243013   8.046   1.217   9.268  2.0865 -0.6095  2.7119
12853SOL     OW43014   1.786   4.526   2.726 -0.3613  0.2060 -0.2126
12853SOL    HW143015   1.701   4.545   2.686  0.0316  0.5390 -0.9076
12853SOL    HW243016   1.777   4.438   2.761 -0.2817 -0.6737 -2.2788
12854SOL     OW43017   9.007   8.353  10.514 -0.4243  0.2732  0.2016
12854SOL    HW143018   8.969   8.265  10.522  0.0740  0.1472  1.5970
12854SOL    HW243019   8.932   8.412  10.510 -0.8372 -0.0135  2.2990
12855SOL     OW43020   6.709   6.616   7.742 -0.1669 -0.0792 -0.4379
12855SOL    HW143021   6.782   6.561   7.713  0.0731  0.9425 -1.9286
12855SOL    HW243022   6.666   6.643   7.660 -0.8864  1.1097  0.3024
12856SOL     OW43023   6.039  11.047   3.449  0.0891  0.7046  0.0266
12856SOL    HW143024   6.008  10.977   3.506 -0.1623  1.3337  0.6839
12856SOL    HW243025   6.125  11.072   3.485 -0.9771  2.5456  1.5074
12857SOL     OW43026  10.744   2.545   5.112  0.8540 -0.0656  0.2960
12857SOL    HW143027  10.667   2.602   5.120  0.3997 -0.5745 -0.4000
12857SOL    HW243028  10.719   2.465   5.157  1.0832 -0.1305  0.3079
12858SOL     OW43029   3.394   6.582   8.654  0.0447  0.6605  0.4348
12858SOL    HW143030   3.359   6.566   8.567 -1.4130 -1.5198  1.3536
12858SOL    HW243031   3.422   6.674   8.652 -3.6152  1.9243 -1.1041
12859SOL     OW43032   7.910   4.081   9.597  0.1735 -0.4420 -0.2817
12859SOL    HW143033   7.823   4.081   9.638  0.3464  1.0828  0.1428
12859SOL    HW243034   7.959   4.013   9.644 -0.5869 -0.8890 -0.1078
12860SOL     OW43035   8.344   9.355   6.132  0.5728  0.5430 -0.1606
12860SOL    HW143036   8.280   9.382   6.066 -0.3732  0.1016  0.5406
12860SOL    HW243037   8.367   9.436   6.178 -0.8936  0.4823  0.7674
12861SOL     OW43038   4.146   0.920   0.242  0.5830 -0.0873  0.1473
12861SOL    HW143039   4.218   0.975   0.274 -1.4380  2.6680  0.3443
12861SOL    HW243040   4.128   0.953   0.154 -0.9449 -0.1287  0.4184
12862SOL     OW43041   0.203   6.070  10.784  0.2143 -0.1378  0.2583
12862SOL    HW143042   0.282   6.116  10.755 -0.4455  1.5368  0.9445
12862SOL    HW243043   0.139   6.140  10.799 -1.3650 -1.4348 -0.1416
12863SOL     OW43044   3.731   4.568   3.577 -0.2792  0.1487  0.0520
12863SOL    HW143045   3.649   4.613   3.554  0.9204  2.4552  0.0538
12863SOL    HW243046   3.766   4.618   3.651  0.9379 -1.0422  0.3107
12864SOL     OW43047   3.193   6.024  10.420  0.7436 -0.0618  0.7246
12864SOL    HW143048   3.153   6.111  10.425  0.8768  0.0154  0.4437
12864SOL    HW243049   3.142   5.971  10.481  0.7252  0.2375  0.9727
12865SOL     OW43050  10.438   4.632   3.191  0.5004 -0.4955  0.2807
12865SOL    HW143051  10.377   4.600   3.124 -2.6725  1.0105  2.1946
12865SOL    HW243052  10.492   4.697   3.146 -1.8887  0.8711 -0.8017
12866SOL     OW43053   9.670   2.415   2.796 -0.8643 -0.3131 -0.0662
12866SOL    HW143054   9.683   2.367   2.878  1.7193  0.7527  0.2278
12866SOL    HW243055   9.640   2.501   2.823 -0.7246 -0.1945 -0.2879
12867SOL     OW43056   9.518   5.656   7.047  0.4486  0.3294 -0.0941
12867SOL    HW143057   9.613   5.648   7.046  0.6274  2.0487 -0.3601
12867SOL    HW243058   9.502   5.750   7.037 -1.2714  0.1286  0.4926
12868SOL     OW43059   8.963   0.866   3.714  0.4076 -0.1033 -0.0114
12868SOL    HW143060   8.943   0.845   3.623  0.5066 -1.6554  0.3073
12868SOL    HW243061   8.905   0.939   3.735 -0.7807 -0.7873 -0.8262
12869SOL     OW43062   9.467   6.804   8.365  0.5536  0.4796  0.5910
12869SOL    HW143063   9.392   6.763   8.408  0.2090  0.3938 -0.0927
12869SOL    HW243064   9.508   6.857   8.435  0.2569 -0.0019  1.1358
12870SOL     OW43065   0.913   5.731   2.108  0.3452  0.5014 -0.2102
12870SOL    HW143066   1.007   5.713   2.102  0.1204 -2.2866  2.4056
12870SOL    HW243067   0.870   5.649   2.086 -1.6620  2.0238 -2.5446
12871SOL     OW43068   9.099   2.107   5.543 -0.4672 -0.2412  0.2592
12871SOL    HW143069   9.036   2.149   5.485 -1.0576 -1.4866 -0.0409
12871SOL    HW243070   9.070   2.016   5.547  0.3092 -0.4498  1.5067
12872SOL     OW43071   3.757   5.044   0.374  0.4288  0.0554 -0.4493
12872SOL    HW143072   3.746   5.138   0.387 -0.9484 -0.0791 -0.5260
12872SOL    HW243073   3.694   5.004   0.433  0.4953 -0.8091 -0.9494
12873SOL     OW43074  10.825   5.933   3.190 -0.2701 -0.3493 -0.7516
12873SOL    HW143075  10.775   5.987   3.129  0.7271  2.2238  0.5676
12873SOL    HW243076  10.913   5.972   3.190  0.2529 -1.3953  0.9841
12874SOL     OW43077   5.760   4.067  10.143  0.5144  0.8439 -0.6864
12874SOL    HW143078   5.842   4.093  10.101  0.7069  0.3248 -0.6417
12874SOL    HW243079   5.701   4.047  10.071  0.1965  1.8876 -0.7297
12875SOL     OW43080  10.746   7.267   7.180 -0.1907  0.1206  1.0107
12875SOL    HW143081  10.725   7.175   7.191 -0.1099  0.1840  1.8062
12875SOL    HW243082  10.730   7.305   7.267  0.7249  0.6547  0.9606
12876SOL     OW43083   2.076   5.121   4.326  0.6756 -0.2399  0.3645
12876SOL    HW143084   2.070   5.071   4.244  3.0708  0.8753 -0.5626
12876SOL    HW243085   2.075   5.054   4.395 -3.7488 -1.1349 -0.2460
12877SOL     OW43086   9.917   0.822   7.627 -0.3687  0.1295 -0.0771
12877SOL    HW143087   9.994   0.829   7.684 -1.4314  0.7136  1.3569
12877SOL    HW243088   9.912   0.906   7.583 -1.3324  0.9039  1.4223
12878SOL     OW43089   6.195   3.233   0.872  0.1178 -0.4093 -0.0688
12878SOL    HW143090   6.184   3.162   0.936 -0.2854 -0.0925  0.2116
12878SOL    HW243091   6.169   3.194   0.789  0.3640 -0.7354  0.0034
12879SOL     OW43092   1.614   6.592   5.070 -0.0064  0.1849 -0.0565
12879SOL    HW143093   1.629   6.541   5.150 -0.8620  0.6361  0.4142
12879SOL    HW243094   1.545   6.654   5.095  0.9797  1.5523 -0.6056
12880SOL     OW43095   0.045   8.687   7.532 -0.2760 -0.7552  0.1926
12880SOL    HW143096  -0.036   8.658   7.574 -0.1535  0.3636  1.2561
12880SOL    HW243097   0.021   8.767   7.485  0.1427 -0.5748  0.2797
12881SOL     OW43098   8.391   6.367   5.174  0.1230  0.0097  0.6057
12881SOL    HW143099   8.296   6.376   5.172  0.0906 -0.3048  0.6694
12881SOL    HW243100   8.421   6.442   5.226  0.0222  0.9180 -0.6039
12882SOL     OW43101   8.799   2.667   7.902 -0.2768 -0.7016 -0.3979
12882SOL    HW143102   8.722   2.719   7.927 -1.0172 -1.8731 -0.1916
12882SOL    HW243103   8.797   2.591   7.960 -0.4383 -2.0555 -2.1178
12883SOL     OW43104   3.271   6.480   0.739  0.3847 -0.4775 -0.5964
12883SOL    HW143105   3.341   6.417   0.757  1.1133 -0.3715 -2.7532
12883SOL    HW243106   3.198   6.427   0.708 -0.1576 -0.5009  0.6782
12884SOL     OW43107   2.783   3.724   2.781 -0.2658  0.5146  0.1829
12884SOL    HW143108   2.704   3.726   2.727  1.3437  0.3985 -2.3480
12884SOL    HW243109   2.808   3.816   2.789  0.0940  0.4543 -0.2247
12885SOL     OW43110   5.123   8.956   2.087 -0.1051  0.2813 -0.1524
12885SOL    HW143111   5.189   8.958   2.156  0.8830 -1.6516 -0.9654
12885SOL    HW243112   5.075   9.038   2.097  0.8435  0.6335  1.9892
12886SOL     OW43113   4.344   7.508   5.288 -0.6187  0.0085 -0.3809
12886SOL    HW143114   4.300   7.463   5.216 -1.6018  0.5729 -0.1434
12886SOL    HW243115   4.276   7.559   5.331 -0.4314 -1.4497  1.8937
12887SOL     OW43116   6.438  10.621  10.147 -0.0349  0.1459  0.0487
12887SOL    HW143117   6.531  10.627  10.125 -0.1392  1.3896 -0.1528
12887SOL    HW243118   6.412  10.533  10.122  0.9282  0.0293 -0.5631
12888SOL     OW43119   1.691   3.681   9.556 -0.2909  0.4392  0.3765
12888SOL    HW143120   1.678   3.599   9.603 -0.2844  0.0364 -0.3274
12888SOL    HW243121   1.607   3.726   9.561 -0.7478 -0.3073 -0.5886
12889SOL     OW43122   8.073   5.882   4.392 -0.7379  0.1782 -0.2434
12889SOL    HW143123   7.999   5.849   4.342 -0.6641 -0.1168 -0.1617
12889SOL    HW243124   8.105   5.806   4.441 -0.4498  0.3266 -0.1950
12890SOL     OW43125   9.055   5.234   4.084  0.3689 -0.4110  0.0847
12890SOL    HW143126   9.007   5.160   4.048  2.4074 -1.9659  0.3397
12890SOL    HW243127   9.079   5.287   4.007 -0.1544 -0.6073 -0.2173
12891SOL     OW43128  10.585   8.952   7.459  0.2002  0.0490 -0.1861
12891SOL    HW143129  10.542   8.909   7.385  1.1191 -1.3456  0.0538
12891SOL    HW243130  10.525   9.022   7.485 -1.5765 -1.3993 -0.2719
12892SOL     OW43131   2.143   7.824   5.690 -0.0758  0.3486  0.2876
12892SOL    HW143132   2.052   7.840   5.716  0.4672  2.0121  1.3288
12892SOL    HW243133   2.192   7.832   5.772  1.1268  0.4041 -0.4230
12893SOL     OW43134   0.867   3.569   6.185  0.1714 -0.0602 -0.2686
12893SOL    HW143135   0.799   3.575   6.253  0.7754  1.9221  0.2323
12893SOL    HW243136   0.819   3.556   6.104 -1.0337  2.8341 -0.1461
12894SOL     OW43137   8.534   6.307  10.372  0.3263 -0.8174 -0.0043
12894SOL    HW143138   8.448   6.317  10.412  1.1205  0.6324  1.4801
12894SOL    HW243139   8.544   6.385  10.317  1.0430 -0.5061  0.5546
12895SOL     OW43140   5.369   5.185   7.620  0.5010  0.1562 -0.5667
12895SOL    HW143141   5.416   5.141   7.549 -0.2277 -1.0710 -0.3277
12895SOL    HW243142   5.424   5.172   7.697 -0.6193 -2.1750 -0.0705
12896SOL     OW43143   3.611  10.139   9.302  0.5758  0.5541 -0.3383
12896SOL    HW143144   3.564  10.065   9.264 -1.1085  0.3995  1.8636
12896SOL    HW243145   3.702  10.127   9.272  0.0535 -1.4881 -1.3191
12897SOL     OW43146  10.680   9.572   4.011 -0.0599  0.0233  0.2768
12897SOL    HW143147  10.585   9.564   4.016 -0.0904  0.3363  0.2102
12897SOL    HW243148  10.711   9.483   3.995 -0.1500 -0.5725  2.9563
12898SOL     OW43149   7.735   5.611   8.912  0.2034  0.0167 -0.2499
12898SOL    HW143150   7.817   5.594   8.958  0.1377  0.2983 -0.0213
12898SOL    HW243151   7.689   5.527   8.913  1.2208 -0.5993 -1.9131
12899SOL     OW43152  10.594   4.844   1.507  0.4740 -0.5365  0.3760
12899SOL    HW143153  10.612   4.817   1.597 -0.4451  0.4753  0.8810
12899SOL    HW243154  10.506   4.810   1.489  0.2773  0.0509  0.1930
12900SOL     OW43155  10.628   4.119   4.940 -0.2070  0.1585  0.8472
12900SOL    HW143156  10.539   4.143   4.916 -0.9675 -0.6059  2.6845
12900SOL    HW243157  10.644   4.165   5.022  1.4758  1.0310  0.0750
12901SOL     OW43158   9.362   4.858   0.779  0.1870 -0.1164 -0.5533
12901SOL    HW143159   9.281   4.816   0.808  1.1324 -1.0485  0.8903
12901SOL    HW243160   9.427   4.788   0.781  1.4603  1.0480  0.2693
12902SOL     OW43161   6.998   9.859  10.743 -0.5522 -0.3430  0.1705
12902SOL    HW143162   7.000   9.765  10.759 -0.0623 -0.3107  0.3353
12902SOL    HW243163   7.087   9.889  10.764  0.4401 -0.4156 -3.2112
12903SOL     OW43164   6.793   8.812   7.482  0.0989 -0.5560 -0.0936
12903SOL    HW143165   6.830   8.838   7.398  2.9185 -0.4454  1.0383
12903SOL    HW243166   6.815   8.719   7.490 -0.9397 -0.7866  0.1477
12904SOL     OW43167   2.248  10.567   5.149  0.5864  0.1166  0.6824
12904SOL    HW143168   2.162  10.556   5.190 -0.3304  0.4089 -1.0918
12904SOL    HW243169   2.241  10.647   5.098  1.5631 -0.4092 -0.3321
12905SOL     OW43170   2.999   7.302   0.920 -0.7005 -0.3358  0.7086
12905SOL    HW143171   2.963   7.243   0.986  0.4984 -0.8580  0.9252
12905SOL    HW243172   3.005   7.386   0.964 -0.4621 -0.5418  1.0769
12906SOL     OW43173   0.491   6.923   0.439  0.1536  0.2605  0.2605
12906SOL    HW143174   0.520   6.897   0.527  0.4243  1.5091  0.5761
12906SOL    HW243175   0.397   6.910   0.440 -0.0523  1.5739  1.2598
12907SOL     OW43176   9.050   7.995   7.324 -0.1637 -0.3934  0.1488
12907SOL    HW143177   9.013   7.936   7.389 -1.7077 -1.3453 -1.5065
12907SOL    HW243178   9.122   7.946   7.285  0.4221 -0.0252  0.7406
12908SOL     OW43179   9.606  10.546   9.158  0.2055 -1.1363 -0.1053
12908SOL    HW143180   9.686  10.517   9.113  0.2275 -1.4888  0.1573
12908SOL    HW243181   9.622  10.638   9.178 -0.0815 -0.7672 -1.4291
12909SOL     OW43182   6.920  10.788   8.343  0.4598 -0.1644  1.0074
12909SOL    HW143183   7.008  10.805   8.377 -0.1991 -0.1898  2.8342
12909SOL    HW243184   6.861  10.828   8.407 -0.8822  1.3100 -0.9908
12910SOL     OW43185   9.488   9.964   6.128 -0.6260  0.2193 -0.4047
12910SOL    HW143186   9.508   9.940   6.218  0.7217  0.2530 -0.6656
12910SOL    HW243187   9.501  10.058   6.125 -0.8834  0.2483 -0.5765
12911SOL     OW43188   9.140  10.232   1.648 -0.4152  0.2040  0.1921
12911SOL    HW143189   9.200  10.305   1.633 -1.8665  1.0094 -2.4584
12911SOL    HW243190   9.146  10.180   1.568 -0.3179 -1.9675  1.5410
12912SOL     OW43191   5.583   3.303  10.581  0.2429 -0.5622  0.5507
12912SOL    HW143192   5.604   3.349  10.499  0.0153  0.3378  0.9848
12912SOL    HW243193   5.542   3.222  10.553  2.5994 -1.5616 -0.2996
12913SOL     OW43194   6.598   6.506   6.427 -0.0295 -0.0941 -0.8008
12913SOL    HW143195   6.641   6.541   6.349 -0.6412 -0.4812 -1.3311
12913SOL    HW243196   6.663   6.514   6.497 -0.8340  4.3818 -0.2128
12914SOL     OW43197   8.608   1.205   9.607 -0.6029 -0.5471  0.0713
12914SOL    HW143198   8.653   1.188   9.525  2.4165  0.2528  1.4268
12914SOL    HW243199   8.609   1.121   9.653  0.7453 -0.2797  0.5936
12915SOL     OW43200   3.616   2.101   5.874 -0.1026  1.0530 -0.6914
12915SOL    HW143201   3.565   2.109   5.954 -0.0988 -0.6728 -0.4737
12915SOL    HW243202   3.622   2.007   5.859  1.3486  1.2848 -1.7889
12916SOL     OW43203   7.000   8.570   5.007 -0.2667  0.0466 -0.1689
12916SOL    HW143204   6.944   8.499   4.975 -1.1490  1.0980 -1.0098
12916SOL    HW243205   6.986   8.642   4.945  1.3652  0.6385  0.0850
12917SOL     OW43206   2.211   5.711   8.237  0.0996 -0.2650 -0.1398
12917SOL    HW143207   2.207   5.797   8.279  0.2842 -1.4145  2.4535
12917SOL    HW243208   2.121   5.690   8.214  0.2306  1.2115 -2.2532
12918SOL     OW43209   3.689   0.793   1.880 -0.5296 -0.1066  0.0985
12918SOL    HW143210   3.674   0.872   1.828 -0.8650  1.8713  2.9960
12918SOL    HW243211   3.627   0.800   1.953  0.0024 -2.6618  0.8965
12919SOL     OW43212   8.467   6.532  10.239  0.7202 -0.0858 -0.3016
12919SOL    HW143213   8.514   6.616  10.244  0.1077  0.2929 -0.8340
12919SOL    HW243214   8.401   6.545  10.172 -0.8232 -0.2752  1.1153
12920SOL     OW43215   5.025   8.622   4.719  0.4393  0.2328 -0.5448
12920SOL    HW143216   5.011   8.695   4.658  0.2613  1.0114  0.3956
12920SOL    HW243217   4.948   8.624   4.776  1.0217  0.0755  0.2551
12921SOL     OW43218   6.793   0.402  10.511 -0.5429 -0.1056  0.3856
12921SOL    HW143219   6.764   0.442  10.592 -0.2787  2.5252 -0.7289
12921SOL    HW243220   6.889   0.397  10.520 -0.4725  0.5963  0.0878
12922SOL     OW43221   7.455   7.716   9.524  0.0835 -0.1964  0.0017
12922SOL    HW143222   7.510   7.658   9.471 -2.4429 -1.7426 -1.1158
12922SOL    HW243223   7.429   7.663   9.599 -0.3521  0.2754  0.1932
12923SOL     OW43224   1.012   9.325   4.322  0.2508 -0.2181  0.5407
12923SOL    HW143225   0.969   9.353   4.402 -2.4010  1.2880 -1.2414
12923SOL    HW243226   1.046   9.406   4.283 -0.4881 -0.5661 -0.8986
12924SOL     OW43227   4.938  10.361   7.184 -0.3189  0.3275 -0.2253
12924SOL    HW143228   4.939  10.352   7.089 -0.2968 -1.1808 -0.1068
12924SOL    HW243229   4.848  10.385   7.205 -0.3088  0.7291 -0.6266
12925SOL     OW43230   1.689   9.166   1.872 -0.6077 -0.1611 -0.1722
12925SOL    HW143231   1.677   9.182   1.965 -2.4049 -2.7398  0.1235
12925SOL    HW243232   1.600   9.162   1.836 -0.0178 -1.0969 -1.6399
12926SOL     OW43233   8.621   5.321   3.550 -0.4093 -0.3303  0.5053
12926SOL    HW143234   8.539   5.273   3.556  0.2508 -1.5150  0.3952
12926SOL    HW243235   8.596   5.410   3.526 -1.7072 -0.4524  1.3609
12927SOL     OW43236   2.473   4.842   9.518 -0.2761 -0.1031 -0.8546
12927SOL    HW143237   2.380   4.836   9.496 -0.3948  2.3890 -1.3942
12927SOL    HW243238   2.500   4.927   9.482  1.2576  1.0431  2.6044
12928SOL     OW43239   9.891   4.889   7.530  0.7696 -0.1295  0.3065
12928SOL    HW143240   9.796   4.891   7.524  0.5736 -2.1038  1.5177
12928SOL    HW243241   9.912   4.950   7.601  0.1667 -1.1278  1.3972
12929SOL     OW43242   2.075   9.511   0.931  0.3304  0.1429 -0.2793
12929SOL    HW143243   2.119   9.441   0.882  1.2615  0.5071  0.0289
12929SOL    HW243244   2.031   9.465   1.002 -1.1661 -0.4157 -1.5004
12930SOL     OW43245   2.246   6.514   1.790  0.2556 -0.2122 -0.2702
12930SOL    HW143246   2.217   6.487   1.703  0.3937 -2.0303  0.1970
12930SOL    HW243247   2.178   6.481   1.849  0.1025  1.1027  0.3149
12931SOL     OW43248   3.802   3.678   6.882 -0.5885 -0.7407 -0.2753
12931SOL    HW143249   3.869   3.745   6.894 -0.6648 -0.6585 -0.3053
12931SOL    HW243250   3.720   3.724   6.899 -0.9625  0.1024 -3.5812
12932SOL     OW43251   4.726   4.225  10.475 -0.4763 -0.1775 -0.1977
12932SOL    HW143252   4.691   4.206  10.562  0.0103 -0.0017  0.0370
12932SOL    HW243253   4.759   4.314  10.482  3.3256 -1.4911  0.6708
12933SOL     OW43254   9.865   3.899   3.318 -0.4545 -0.2084 -0.3107
12933SOL    HW143255   9.957   3.924   3.324 -0.6616  0.2959  1.0919
12933SOL    HW243256   9.841   3.919   3.228  0.8274 -0.4340 -0.7214
12934SOL     OW43257   8.364   5.411   8.522 -0.4526 -0.0587 -0.2811
12934SOL    HW143258   8.360   5.502   8.493  0.4806  0.0802 -0.0173
12934SOL    HW243259   8.273   5.381   8.520 -0.7411  0.8001 -0.6042
12935SOL     OW43260   7.251   8.085   5.991 -0.2172  0.1069 -0.4235
12935SOL    HW143261   7.249   7.990   5.979 -0.7980  0.0745 -0.1363
12935SOL    HW243262   7.276   8.097   6.083  0.2663  0.2459 -0.5694
12936SOL     OW43263   7.258   5.245   9.739 -0.3653  0.2384 -0.4106
12936SOL    HW143264   7.343   5.234   9.782 -0.3982  1.6531  0.0830
12936SOL    HW243265   7.263   5.332   9.699 -1.4194  0.1572 -0.7431
12937SOL     OW43266   2.352  10.451   4.767 -0.6053  0.2771  0.4030
12937SOL    HW143267   2.321  10.408   4.688  1.0173  0.2303 -0.2409
12937SOL    HW243268   2.319  10.541   4.760 -1.6635 -0.0942  0.3989
12938SOL     OW43269   6.930   9.071   4.788  0.3724  0.3852  0.1761
12938SOL    HW143270   6.979   9.027   4.857 -0.5304  1.7023  1.7136
12938SOL    HW243271   6.926   9.163   4.816  0.7839  1.1652 -2.1022
12939SOL     OW43272   0.980   2.965   5.936 -0.1524  0.3670  0.2812
12939SOL    HW143273   1.045   2.903   5.969  0.2094  0.3724 -0.4125
12939SOL    HW243274   1.005   3.049   5.976 -0.3971  0.1577  0.8896
12940SOL     OW43275  10.436   2.205   7.752  0.2858 -0.0627 -0.6058
12940SOL    HW143276  10.508   2.142   7.760  1.5834  1.2369 -1.4000
12940SOL    HW243277  10.455   2.271   7.818 -0.1316  0.3258 -0.8708
12941SOL     OW43278   5.490   2.640   0.804 -0.4379 -0.0796  0.2155
12941SOL    HW143279   5.481   2.692   0.884 -1.2205 -0.6735  0.5198
12941SOL    HW243280   5.401   2.614   0.781  0.0394 -2.5254  0.9004
12942SOL     OW43281   3.933  10.887   7.767 -0.0476 -0.1592  0.1200
12942SOL    HW143282   3.862  10.841   7.723  1.2432 -0.5164 -1.7339
12942SOL    HW243283   3.901  10.976   7.778 -1.3704 -0.7054  0.7915
12943SOL     OW43284   3.168   8.997   1.073 -0.1266  0.2622  1.0912
12943SOL    HW143285   3.137   9.053   1.002 -2.3193 -0.8509  1.0860
12943SOL    HW243286   3.140   9.042   1.153  0.9910  0.7496  1.2290
12944SOL     OW43287   1.958   0.367   4.229  0.0422 -0.1175  0.3574
12944SOL    HW143288   1.992   0.385   4.317 -1.8687 -2.2689  1.6512
12944SOL    HW243289   2.005   0.428   4.173  3.6880 -0.7833  2.3480
12945SOL     OW43290   5.143   9.045   6.568 -0.2904  0.0758 -0.4416
12945SOL    HW143291   5.159   9.131   6.607 -1.8672 -0.1201  0.7962
12945SOL    HW243292   5.054   9.051   6.533  0.1702 -0.5766 -1.7877
12946SOL     OW43293   7.655   6.057   5.635 -0.0282  0.0253 -0.0315
12946SOL    HW143294   7.628   5.968   5.612  0.7180 -0.4650  0.8936
12946SOL    HW243295   7.710   6.046   5.713 -0.3771  1.3527  0.4314
12947SOL     OW43296   8.814   1.705   0.857  0.2865 -0.3720 -0.2990
12947SOL    HW143297   8.872   1.630   0.840  3.3493  1.6571  0.2813
12947SOL    HW243298   8.872   1.772   0.893 -2.6813  1.6093  1.1874
12948SOL     OW43299   5.714   1.298   4.242  0.4678  0.3819 -0.4185
12948SOL    HW143300   5.732   1.222   4.187  2.0546 -1.1145  1.9675
12948SOL    HW243301   5.621   1.290   4.264  0.2796 -0.0508 -1.3186
12949SOL     OW43302   8.504   0.559  10.751 -0.5360 -0.3022  0.3435
12949SOL    HW143303   8.556   0.479  10.750 -1.7043 -1.0873  0.7318
12949SOL    HW243304   8.538   0.611  10.678  0.4961 -0.9742  0.3282
12950SOL     OW43305   0.363   3.535   8.787 -0.6477  0.6007 -0.4687
12950SOL    HW143306   0.391   3.577   8.868 -0.9422  1.0345 -0.5862
12950SOL    HW243307   0.398   3.446   8.792  0.0657  0.8836 -0.2530
12951SOL     OW43308   8.333   2.458   9.023  0.2585  0.1871  0.3216
12951SOL    HW143309   8.382   2.458   8.940  0.2118  0.0896  0.2940
12951SOL    HW243310   8.260   2.518   9.007 -0.4085 -0.7133 -0.0944
12952SOL     OW43311   9.584   9.887   4.983  0.0316  0.5087  0.1855
12952SOL    HW143312   9.566   9.823   4.914 -1.3310  0.5772  0.4584
12952SOL    HW243313   9.515   9.952   4.974 -0.8471 -0.0464  2.2964
12953SOL     OW43314  10.913   5.580   2.036  0.6923  0.9986  0.4714
12953SOL    HW143315  10.981   5.540   2.090  1.9283  0.3519 -1.4620
12953SOL    HW243316  10.838   5.521   2.045  1.6423 -0.3978 -0.2848
12954SOL     OW43317   0.893   6.649   9.516  0.6136  0.0496  0.3520
12954SOL    HW143318   0.894   6.660   9.420 -0.5463 -0.8187  0.2168
12954SOL    HW243319   0.936   6.565   9.530 -0.6838 -0.6330  0.4317
12955SOL     OW43320   8.781   4.985   9.316  0.5198  0.2436  0.0654
12955SOL    HW143321   8.689   4.998   9.337 -0.2203 -1.3380 -1.9310
12955SOL    HW243322   8.804   5.059   9.260  0.3390  0.3706  0.1556
12956SOL     OW43323   8.644  10.248   6.831 -0.4526 -0.2788  0.1639
12956SOL    HW143324   8.650  10.153   6.821 -0.7026 -0.1496 -1.5637
12956SOL    HW243325   8.590  10.277   6.757  2.1301  1.5037 -1.1976
12957SOL     OW43326   9.927   9.800   5.753 -0.4024  0.4022  0.3578
12957SOL    HW143327   9.847   9.835   5.714 -0.6329  0.2938  0.7192
12957SOL    HW243328   9.994   9.866   5.733 -0.7632  0.9051  0.7622
12958SOL     OW43329   1.143   0.850   9.919 -0.2999  0.3596  0.4497
12958SOL    HW143330   1.193   0.851   9.837 -1.4111 -0.5473 -0.2748
12958SOL    HW243331   1.058   0.814   9.894 -1.0061  1.0251  1.8229
12959SOL     OW43332   0.958   6.346   6.323  0.3259  0.1330 -0.0864
12959SOL    HW143333   0.971   6.265   6.371  1.5608 -1.2094 -2.5037
12959SOL    HW243334   1.046   6.383   6.314  0.1834  0.1760 -1.5210
12960SOL     OW43335   1.162  10.196   9.810 -0.6313  0.3737 -0.5227
12960SOL    HW143336   1.120  10.112   9.790 -1.3469  1.2706 -3.3332
12960SOL    HW243337   1.090  10.258   9.813 -0.0766  0.9791  1.2210
12961SOL     OW43338   9.670   0.650   1.564 -0.4932  0.0264 -0.1185
12961SOL    HW143339   9.656   0.576   1.623  0.0732 -0.4594 -0.5727
12961SOL    HW243340   9.643   0.727   1.614  1.8858 -0.1178  1.5765
12962SOL     OW43341   8.517   7.174   6.311  0.1661  0.4207  0.1915
12962SOL    HW143342   8.546   7.105   6.370 -0.2375  0.7723  0.8110
12962SOL    HW243343   8.585   7.241   6.316 -0.1076  0.6748  0.6622
12963SOL     OW43344   8.511   7.411   2.364  0.1157 -0.0810 -0.2947
12963SOL    HW143345   8.577   7.479   2.349  0.2136 -0.0133  0.3773
12963SOL    HW243346   8.517   7.355   2.288  0.0748  0.6380 -0.8386
12964SOL     OW43347   8.124   7.968   2.482  0.4615 -0.1741 -0.1018
12964SOL    HW143348   8.080   8.018   2.413  0.5572 -0.8901 -0.6879
12964SOL    HW243349   8.080   7.995   2.563  0.7944  1.1803 -0.3439
12965SOL     OW43350   5.749   9.253   6.491  0.1449  0.2210 -0.4087
12965SOL    HW143351   5.794   9.337   6.489 -0.6643  0.6800  0.2097
12965SOL    HW243352   5.819   9.189   6.510  0.8135  0.6983 -1.2097
12966SOL     OW43353   3.808   9.154   4.181  0.0926  0.3241 -0.5349
12966SOL    HW143354   3.903   9.150   4.173  0.2787  1.7496  0.5019
12966SOL    HW243355   3.792   9.183   4.271 -1.4025 -1.7010 -0.0708
12967SOL     OW43356   8.930   4.594   2.918  0.1931 -0.1895 -0.3300
12967SOL    HW143357   8.855   4.634   2.875  0.2337 -1.3334 -1.5165
12967SOL    HW243358   8.960   4.660   2.980 -1.7023  0.3388  0.0834
12968SOL     OW43359   7.334  10.533   8.762  0.3564  0.1550 -1.1191
12968SOL    HW143360   7.295  10.549   8.676  0.6458 -2.0423 -1.7277
12968SOL    HW243361   7.424  10.566   8.754  0.4622 -0.2588 -1.7779
12969SOL     OW43362   0.214   2.765   3.117  0.4734 -0.0779 -0.1279
12969SOL    HW143363   0.136   2.812   3.147  0.2313 -0.1419 -0.6347
12969SOL    HW243364   0.184   2.675   3.106  0.4582  0.0139 -0.8909
12970SOL     OW43365   2.049  10.924   6.128  0.7861  0.0541 -0.0905
12970SOL    HW143366   2.093  10.991   6.182  2.6054 -0.5489 -0.7479
12970SOL    HW243367   2.049  10.846   6.183  1.4829 -0.2191 -0.4726
12971SOL     OW43368   3.815   5.281   3.149 -0.1340  0.1842  0.1994
12971SOL    HW143369   3.852   5.193   3.152  0.4482  0.4365  0.5430
12971SOL    HW243370   3.762   5.282   3.069 -0.4863 -0.6072  0.4147
12972SOL     OW43371   9.198   7.147   3.023 -0.4597 -0.4016 -0.2916
12972SOL    HW143372   9.136   7.160   2.951  0.9141 -0.4778 -1.5529
12972SOL    HW243373   9.261   7.218   3.013 -0.1291 -0.5399  0.7275
12973SOL     OW43374   4.392   1.784   5.506 -0.0986 -0.5313  0.1966
12973SOL    HW143375   4.458   1.808   5.442  1.5432 -1.5432  1.4427
12973SOL    HW243376   4.409   1.692   5.526 -0.1974 -0.1221  2.4331
12974SOL     OW43377  10.669   2.908   6.251 -0.0367  0.2885 -0.2519
12974SOL    HW143378  10.600   2.878   6.193 -0.4512  0.0397  0.3611
12974SOL    HW243379  10.670   2.844   6.323 -0.2985  1.1943  0.5840
12975SOL     OW43380   7.814   7.341   5.917  0.4491  0.3944  0.1357
12975SOL    HW143381   7.840   7.341   5.825  0.0647 -0.3995  0.0165
12975SOL    HW243382   7.829   7.431   5.947  1.2185  0.4893 -0.5142
12976SOL     OW43383   5.992   0.861   5.957 -0.1772 -0.0122 -0.1097
12976SOL    HW143384   5.898   0.842   5.949  0.3665 -2.5383 -1.5348
12976SOL    HW243385   6.013   0.838   6.048 -1.0465  1.3082  0.4502
12977SOL     OW43386  10.998   9.119  10.466  0.0910 -0.1445 -0.2337
12977SOL    HW143387  10.918   9.078  10.501  0.7699 -0.6751  0.7553
12977SOL    HW243388  11.065   9.099  10.532  0.5243  2.3492  0.1538
12978SOL     OW43389   2.524   6.014   5.468 -0.0107  0.4081  0.1849
12978SOL    HW143390   2.527   5.960   5.390 -0.1142 -0.1208  0.5437
12978SOL    HW243391   2.590   5.977   5.526 -0.2545  0.5106  0.5313
12979SOL     OW43392   2.540   6.404   0.884  0.3299 -0.1736  0.2190
12979SOL    HW143393   2.505   6.315   0.879  1.5848 -0.8779  2.3414
12979SOL    HW243394   2.585   6.407   0.969  0.2906  2.5155  0.2352
12980SOL     OW43395  10.968   5.650   8.667 -0.3724  0.0351 -0.1026
12980SOL    HW143396  11.056   5.615   8.653 -0.1408  0.4322  0.3416
12980SOL    HW243397  10.914   5.606   8.601 -0.5736 -2.8575  1.8230
12981SOL     OW43398   8.301   9.630   4.844 -0.0358  0.1311 -0.1118
12981SOL    HW143399   8.290   9.660   4.935 -0.3690  0.5150 -0.2771
12981SOL    HW243400   8.269   9.540   4.846  1.4223 -0.3945  0.4942
12982SOL     OW43401   7.221   2.503   5.935  0.0619  0.0510  0.0584
12982SOL    HW143402   7.185   2.592   5.928 -1.1076 -0.4307 -0.3182
12982SOL    HW243403   7.315   2.515   5.924 -0.0484  1.2720  0.2460
12983SOL     OW43404   0.760   9.725   1.068 -0.6562  0.1363  0.0074
12983SOL    HW143405   0.700   9.757   1.135  1.0980  3.3128  0.3124
12983SOL    HW243406   0.722   9.754   0.985  0.4621  2.4792  0.2236
12984SOL     OW43407   6.129   5.262  10.454 -0.7256 -0.4675 -0.0991
12984SOL    HW143408   6.164   5.209  10.526  0.5958 -0.4502 -0.6887
12984SOL    HW243409   6.037   5.274  10.475 -0.1935  0.2722  2.0518
12985SOL     OW43410   9.099  10.737   8.181 -0.7700  0.2206  0.0533
12985SOL    HW143411   9.011  10.722   8.216 -0.3448 -0.9770  0.6726
12985SOL    HW243412   9.127  10.650   8.152  0.8846  0.2134  1.5145
12986SOL     OW43413   9.893   5.157   5.833  0.3684 -0.7441  0.0630
12986SOL    HW143414   9.946   5.202   5.768 -0.2206 -1.3257 -0.8482
12986SOL    HW243415   9.909   5.064   5.817 -0.6943 -0.9234 -0.0454
12987SOL     OW43416   7.865   9.252   9.807 -0.5494  0.4978 -0.6424
12987SOL    HW143417   7.951   9.250   9.765  0.6586 -1.3603  1.6947
12987SOL    HW243418   7.812   9.191   9.757  0.2375 -0.1730 -0.6679
12988SOL     OW43419   0.964   4.341   2.778  0.0199 -0.1910  0.6756
12988SOL    HW143420   0.935   4.372   2.692  0.2694 -0.4297  0.5021
12988SOL    HW243421   0.885   4.343   2.832  0.1650  1.4879  0.9022
12989SOL     OW43422   9.183   5.349   5.475  0.3288 -0.1849  0.2258
12989SOL    HW143423   9.173   5.257   5.451  0.1147 -0.4945  1.4289
12989SOL    HW243424   9.113   5.394   5.429  0.9343 -0.4943 -1.0195
12990SOL     OW43425   3.200   4.324   5.340  0.2098  0.8995  0.4216
12990SOL    HW143426   3.142   4.394   5.310 -1.6040 -0.6172  0.1677
12990SOL    HW243427   3.168   4.246   5.294 -0.4028 -0.8696  3.6057
12991SOL     OW43428   9.494   0.376  10.270 -0.6485  0.3082  0.0816
12991SOL    HW143429   9.493   0.411  10.359 -1.8930 -1.0009  0.6301
12991SOL    HW243430   9.556   0.303  10.273 -1.3743 -0.3312  0.1659
12992SOL     OW43431   7.933   5.489   7.405 -0.3203 -0.5735 -0.2449
12992SOL    HW143432   8.015   5.440   7.406 -1.6309 -3.0483 -1.7924
12992SOL    HW243433   7.948   5.564   7.462  3.8691  0.5965 -2.4872
12993SOL     OW43434  10.254   8.318   8.702 -0.3433 -0.4271 -0.4647
12993SOL    HW143435  10.183   8.305   8.638 -2.1715  0.7353  1.2167
12993SOL    HW243436  10.214   8.370   8.772  1.8269 -0.8763  1.2141
12994SOL     OW43437  10.851   6.262   6.621  0.2009  0.1586  0.0003
12994SOL    HW143438  10.794   6.186   6.609 -0.3844  0.6453 -0.3324
12994SOL    HW243439  10.860   6.271   6.716  2.2077 -1.7381  0.0948
12995SOL     OW43440   0.992   5.560   2.893  0.4034  0.1531  0.0052
12995SOL    HW143441   0.902   5.530   2.899  0.8918 -1.7053 -0.9862
12995SOL    HW243442   1.029   5.544   2.980  0.5451 -2.0234 -0.3814
12996SOL     OW43443   0.867   2.519   8.987  0.0451  0.1393  0.3940
12996SOL    HW143444   0.790   2.571   9.011  0.5382  1.2178 -0.2718
12996SOL    HW243445   0.916   2.510   9.070 -0.8717 -0.7169  0.8554
12997SOL     OW43446   8.850   6.749   9.501 -0.0736 -0.4964  0.2289
12997SOL    HW143447   8.769   6.732   9.452 -0.1024 -0.0527  0.1230
12997SOL    HW243448   8.869   6.665   9.544 -1.4299 -0.1919  1.5154
12998SOL     OW43449  10.246   6.968   9.191  0.6362 -0.1780  0.1332
12998SOL    HW143450  10.197   7.050   9.197 -1.3735 -1.3647  0.7461
12998SOL    HW243451  10.283   6.969   9.103 -2.3013 -0.1759 -1.1895
12999SOL     OW43452   2.508   2.590  10.659  0.3647  0.0903 -0.3936
12999SOL    HW143453   2.455   2.599  10.738 -0.6728  1.0086 -1.1571
12999SOL    HW243454   2.494   2.672  10.611  3.5084  0.9469 -0.0623
13000SOL     OW43455   5.440   4.325   3.678 -0.1644 -0.1197 -0.0674
13000SOL    HW143456   5.473   4.414   3.668 -2.6388  1.0663  1.3099
13000SOL    HW243457   5.450   4.305   3.771 -1.4467 -0.4510  0.0262
13001SOL     OW43458   2.499   3.683   9.404  0.2740 -0.0592 -0.0341
13001SOL    HW143459   2.528   3.752   9.463  0.2267  0.2284 -0.3427
13001SOL    HW243460   2.521   3.715   9.317  0.6193 -0.6099 -0.1593
13002SOL     OW43461   8.154  10.904   9.432  0.3179  0.0011  0.3626
13002SOL    HW143462   8.079  10.913   9.491 -1.7289 -2.6986 -1.6074
13002SOL    HW243463   8.198  10.824   9.461  0.7606  0.0102 -0.2644
13003SOL     OW43464   8.575   8.481   1.254 -1.0188  0.4049  0.3363
13003SOL    HW143465   8.552   8.479   1.161 -0.4918  0.0066  0.2054
13003SOL    HW243466   8.496   8.511   1.298 -1.5747 -0.2967 -0.1526
13004SOL     OW43467   4.063   5.542   5.821 -0.4763  0.5230 -0.2425
13004SOL    HW143468   4.034   5.569   5.733 -0.5032 -0.1628 -0.4507
13004SOL    HW243469   4.093   5.452   5.809 -0.7638  0.3218  0.5148
13005SOL     OW43470   9.318   6.008   2.446  0.4397 -0.8253 -0.2209
13005SOL    HW143471   9.375   5.980   2.374 -0.8909 -0.9577 -1.2646
13005SOL    HW243472   9.378   6.039   2.513  1.7149  0.1313 -1.7330
13006SOL     OW43473   6.285   3.342   2.451 -0.6727  0.1815  0.6372
13006SOL    HW143474   6.350   3.346   2.522 -0.9006 -0.1864  0.8702
13006SOL    HW243475   6.298   3.423   2.403  0.5720 -0.2843  0.1397
13007SOL     OW43476  10.683   6.083   7.060  0.3676 -0.3747  0.2945
13007SOL    HW143477  10.612   6.070   6.997 -0.2841  1.2502  0.6269
13007SOL    HW243478  10.697   5.997   7.099  0.4492 -1.3197 -1.6755
13008SOL     OW43479   0.966   7.295   7.159  0.3290  0.1727 -0.1979
13008SOL    HW143480   0.908   7.251   7.097 -1.5196  2.3810 -0.1724
13008SOL    HW243481   0.960   7.387   7.136 -0.4664  1.1277  3.1799
13009SOL     OW43482   5.509   6.039   7.947 -0.0475  0.4913  0.3432
13009SOL    HW143483   5.566   5.968   7.918 -1.9321 -1.0433  0.1438
13009SOL    HW243484   5.548   6.118   7.909  2.0898 -0.4175  0.5278
13010SOL     OW43485   1.730   9.233   6.450  0.1857 -0.0412 -0.5684
13010SOL    HW143486   1.746   9.327   6.441 -0.6563  0.1563 -0.0707
13010SOL    HW243487   1.635   9.223   6.442  0.0373 -0.5905  1.3363
13011SOL     OW43488   3.286   2.916   1.721  0.3495  0.1167 -0.0412
13011SOL    HW143489   3.253   2.853   1.786  0.1081  0.4418  0.1552
13011SOL    HW243490   3.261   2.878   1.637 -1.5586  0.8890  0.1219
13012SOL     OW43491   7.207   9.354   9.226  0.1848 -0.3409  0.0115
13012SOL    HW143492   7.168   9.440   9.237  1.2947  0.9345 -4.0822
13012SOL    HW243493   7.269   9.347   9.299 -0.1527  2.1943  0.6566
13013SOL     OW43494   1.882  10.072   2.407 -0.0432  0.2610 -0.1256
13013SOL    HW143495   1.953  10.056   2.345 -0.4896  1.7438 -1.0908
13013SOL    HW243496   1.925  10.110   2.483  0.3179  0.1190 -0.2548
13014SOL     OW43497   2.486   8.621   3.567 -0.1462 -0.0431  0.3461
13014SOL    HW143498   2.517   8.534   3.542 -0.6659 -0.1430  0.0387
13014SOL    HW243499   2.423   8.604   3.638  0.6067  0.1692  1.0851
13015SOL     OW43500   0.805   7.089   4.688 -0.1931  0.0611 -0.1375
13015SOL    HW143501   0.775   7.002   4.664 -1.2624 -0.4616  2.7238
13015SOL    HW243502   0.776   7.101   4.779 -0.4376  3.5712 -0.5428
13016SOL     OW43503   3.873   1.111   8.064 -0.5383  0.5565  0.1005
13016SOL    HW143504   3.948   1.095   8.120 -1.6393 -1.5056  1.1001
13016SOL    HW243505   3.882   1.048   7.992 -0.2457  1.7414 -0.9422
13017SOL     OW43506   4.609   5.401   3.055 -0.5174  0.6056 -0.1847
13017SOL    HW143507   4.647   5.464   3.116 -0.0181 -2.5927  3.1556
13017SOL    HW243508   4.544   5.354   3.107 -1.2763 -1.2563 -2.6311
13018SOL     OW43509   0.994   5.949   1.831  0.3065  0.2628 -0.0130
13018SOL    HW143510   1.005   5.916   1.742 -0.6060 -0.4210  0.1090
13018SOL    HW243511   1.058   5.901   1.883 -0.0611 -0.3278 -0.0862
13019SOL     OW43512   0.448   6.102   7.999 -0.0770  0.1617 -0.6997
13019SOL    HW143513   0.479   6.040   8.065 -0.8037  0.8793  0.3587
13019SOL    HW243514   0.407   6.172   8.050  0.2925  1.2734 -1.8814
13020SOL     OW43515   0.368   0.192   4.255  0.3290 -0.0338 -0.4470
13020SOL    HW143516   0.444   0.134   4.253  0.5004  0.1989 -1.0469
13020SOL    HW243517   0.363   0.227   4.166 -1.3131 -1.1307 -0.8344
13021SOL     OW43518   7.579   6.346   9.808 -0.1468 -0.3081  0.0656
13021SOL    HW143519   7.607   6.266   9.852  1.0632 -0.8528 -1.5829
13021SOL    HW243520   7.495   6.367   9.847  0.2582 -1.4677  1.6784
13022SOL     OW43521   5.022   2.823   4.090 -0.0928  0.0742 -0.3072
13022SOL    HW143522   4.946   2.791   4.139  0.4898 -1.4043 -0.3077
13022SOL    HW243523   5.097   2.796   4.143  0.4967 -0.4106 -1.3563
13023SOL     OW43524  10.186   5.691   2.405  0.0001 -0.0554 -0.7897
13023SOL    HW143525  10.223   5.722   2.322 -0.0292  0.1469 -0.7272
13023SOL    HW243526  10.096   5.723   2.405  0.1469  0.3699 -0.4590
13024SOL     OW43527   0.361   3.660   9.042  0.7338  0.0627  0.4902
13024SOL    HW143528   0.428   3.693   9.101  0.3096  2.0376 -0.0617
13024SOL    HW243529   0.336   3.735   8.988 -1.3103 -0.8032  0.1025
13025SOL     OW43530   9.236   8.059   2.972  0.0131 -0.0789  0.7369
13025SOL    HW143531   9.301   7.997   3.004 -0.0933 -1.5576 -1.6396
13025SOL    HW243532   9.287   8.127   2.928  0.0380  0.2826  1.3153
13026SOL     OW43533   5.655   5.450  10.285  0.1326  0.1611 -0.7466
13026SOL    HW143534   5.574   5.453  10.234 -0.5910 -1.0216  0.2569
13026SOL    HW243535   5.658   5.533  10.331  0.0378  0.6345 -1.5662
13027SOL     OW43536   7.157   3.506   1.518  0.3620 -0.0275  0.0432
13027SOL    HW143537   7.216   3.561   1.467 -0.2468  0.2765 -0.3435
13027SOL    HW243538   7.113   3.451   1.453  1.1061 -1.1245  0.4380
13028SOL     OW43539   5.109   8.974   9.016 -0.4393  0.0355 -0.0485
13028SOL    HW143540   5.093   8.884   9.040  0.0087 -0.1557 -0.4289
13028SOL    HW243541   5.040   8.996   8.954  0.2122 -0.4882 -0.9893
13029SOL     OW43542   1.086   9.343   4.755  0.7545 -0.3272 -0.0236
13029SOL    HW143543   1.010   9.285   4.750  0.1395  0.4210  0.5186
13029SOL    HW243544   1.124   9.326   4.841 -0.4652  1.3181  0.8865
13030SOL     OW43545   0.933   8.826   1.832  0.4931  0.5714  0.1584
13030SOL    HW143546   1.008   8.766   1.833 -0.1562 -0.2523  0.2802
13030SOL    HW243547   0.946   8.881   1.910  1.6807  1.3669 -0.5592
13031SOL     OW43548   0.912   5.586   0.191  0.4498 -0.2746  0.3015
13031SOL    HW143549   0.917   5.518   0.258 -0.1445  0.6350  1.2876
13031SOL    HW243550   0.997   5.583   0.148  1.0652 -0.4716  1.4866
13032SOL     OW43551   9.116   4.814   8.474  0.4303  0.2392  0.0565
13032SOL    HW143552   9.116   4.909   8.486  1.1650  0.1838  0.5443
13032SOL    HW243553   9.032   4.785   8.511  0.6474  0.5898  0.8449
13033SOL     OW43554  10.881   3.504   6.540 -0.2487  0.4459 -0.0872
13033SOL    HW143555  10.805   3.452   6.513  0.5728 -0.7036 -0.3143
13033SOL    HW243556  10.849   3.593   6.547 -2.0278 -0.2707  1.5265
13034SOL     OW43557   6.699   7.859   0.792 -0.5377  0.0615 -0.0768
13034SOL    HW143558   6.777   7.823   0.835 -1.6241  0.0502  2.0302
13034SOL    HW243559   6.724   7.948   0.768  0.0138  0.1836  0.9013
13035SOL     OW43560   3.228   1.230   6.856  0.4302 -0.0455  0.1716
13035SOL    HW143561   3.191   1.278   6.930  3.0858 -1.5236  2.6595
13035SOL    HW243562   3.300   1.286   6.826 -0.4070  0.3762 -1.1883
13036SOL     OW43563   7.874  10.633   8.271 -0.0328  0.8301  0.7964
13036SOL    HW143564   7.917  10.547   8.278 -0.4755  0.2746 -1.9619
13036SOL    HW243565   7.946  10.696   8.277  0.4806  0.2083  1.4650
13037SOL     OW43566   2.947   7.487  10.420 -0.0642 -0.4969 -0.0181
13037SOL    HW143567   2.946   7.542  10.342  0.5336 -0.0636  0.2685
13037SOL    HW243568   3.026   7.433  10.410 -1.4864 -2.4909 -1.0816
13038SOL     OW43569   8.176   6.224   0.421 -0.1132  0.4343 -0.3939
13038SOL    HW143570   8.131   6.286   0.365  0.2839 -0.3280 -1.5969
13038SOL    HW243571   8.172   6.141   0.374 -0.5226 -0.4481  1.1060
13039SOL     OW43572   2.231   4.433   0.626 -0.2939 -0.1998  0.1286
13039SOL    HW143573   2.271   4.346   0.637 -1.0551 -0.4171  1.3331
13039SOL    HW243574   2.168   4.440   0.697  0.5223  1.7892  0.7365
13040SOL     OW43575   9.688   5.233   4.612 -0.2637  0.7806 -0.3162
13040SOL    HW143576   9.769   5.192   4.580 -0.6480  1.2659 -2.0076
13040SOL    HW243577   9.651   5.277   4.535 -1.7375  1.2384  0.6090
13041SOL     OW43578   7.744   5.656   7.727 -0.2914  0.0626 -0.3194
13041SOL    HW143579   7.727   5.622   7.639  0.3894  0.5598 -0.6559
13041SOL    HW243580   7.840   5.663   7.731 -0.2151 -1.2745  0.9657
13042SOL     OW43581   8.560   1.985  10.099  0.5485  0.2040 -0.1637
13042SOL    HW143582   8.599   2.047  10.161  0.9265  0.7130 -0.8956
13042SOL    HW243583   8.603   2.005  10.016  0.4506 -0.8451 -0.4717
13043SOL     OW43584   4.114   1.065   4.766  0.5686  0.9040 -0.0138
13043SOL    HW143585   4.163   0.989   4.736  1.8790  1.8930 -0.4881
13043SOL    HW243586   4.178   1.118   4.814  0.4748  3.0399 -2.0429
13044SOL     OW43587  10.381   1.514   8.703 -0.5424 -0.0539 -0.2455
13044SOL    HW143588  10.360   1.456   8.776  2.1977 -0.4084  0.3638
13044SOL    HW243589  10.406   1.455   8.632  1.8954  0.2929  0.2580
13045SOL     OW43590  10.973   4.269   9.522 -0.7269 -0.6217  0.2363
13045SOL    HW143591  10.985   4.290   9.615  4.0371 -2.0686  0.2189
13045SOL    HW243592  10.958   4.174   9.522  0.8302 -0.8905 -0.4572
13046SOL     OW43593   2.794  10.225   1.002  0.0194 -0.1901  0.0117
13046SOL    HW143594   2.816  10.304   1.051  2.8292  0.1002 -1.5686
13046SOL    HW243595   2.699  10.233   0.987  0.0994  2.5859  0.3622
13047SOL     OW43596   1.989  10.505   5.857 -0.4135  0.1797  0.0384
13047SOL    HW143597   2.059  10.483   5.919 -0.1653  0.7810 -0.0210
13047SOL    HW243598   1.909  10.499   5.909 -0.3173 -0.4927  0.1115
13048SOL     OW43599   0.261   4.824   1.535  0.8602 -0.3232 -0.0485
13048SOL    HW143600   0.192   4.802   1.597  0.6479 -0.5053 -0.3436
13048SOL    HW243601   0.313   4.743   1.527  0.8753 -0.3067 -0.1212
13049SOL     OW43602  10.570   8.304  10.782  0.0367  0.0781 -0.0907
13049SOL    HW143603  10.511   8.284  10.855  0.3426 -1.0938 -0.1354
13049SOL    HW243604  10.572   8.223  10.731  0.4183  0.6407 -0.9916
13050SOL     OW43605   2.267   5.258   1.623 -0.3988  0.1884  0.0689
13050SOL    HW143606   2.190   5.315   1.626 -1.4007 -0.9207 -2.2500
13050SOL    HW243607   2.231   5.169   1.621  1.0721 -0.4951  1.5398
13051SOL     OW43608   6.535   6.445   1.873  0.3119  0.2632 -0.3704
13051SOL    HW143609   6.603   6.501   1.836 -2.1020  3.2531 -0.6227
13051SOL    HW243610   6.503   6.493   1.949 -1.1988 -1.2760  0.0264
13052SOL     OW43611   7.590   3.868   7.984 -0.5650  0.1189 -0.3537
13052SOL    HW143612   7.547   3.923   7.919  1.5599 -0.4091 -2.3071
13052SOL    HW243613   7.629   3.929   8.046 -0.8077  0.6929 -0.7625
13053SOL     OW43614   4.030   5.916   5.169  0.0010  0.6379  0.4290
13053SOL    HW143615   4.115   5.919   5.126 -0.4560  1.6190 -0.4310
13053SOL    HW243616   3.982   5.846   5.123  0.6953 -0.6952  1.6456
13054SOL     OW43617   8.596  10.126   9.954 -0.5677  0.0876  0.0910
13054SOL    HW143618   8.597  10.031   9.959 -2.0958 -0.0366 -1.2499
13054SOL    HW243619   8.651  10.154  10.028  0.4304 -1.8105  0.1362
13055SOL     OW43620   8.274   1.210   6.296  0.2665 -0.1417 -0.4982
13055SOL    HW143621   8.362   1.229   6.331 -0.4186  0.8606  0.7880
13055SOL    HW243622   8.245   1.133   6.345 -0.1681  0.4675  0.2295
13056SOL     OW43623   3.949   8.009   1.586 -0.0308  0.2350  0.2352
13056SOL    HW143624   3.944   7.916   1.610  1.4819  0.4293  1.5323
13056SOL    HW243625   3.877   8.050   1.633 -0.6072 -0.2591 -0.2090
13057SOL     OW43626   9.232   7.917   5.649  0.1420  0.3325  0.5161
13057SOL    HW143627   9.269   7.927   5.737 -1.7167  0.7708  1.3016
13057SOL    HW243628   9.260   7.829   5.622  3.7645  1.4968 -0.0369
13058SOL     OW43629  11.040   8.571   8.376 -0.3373  0.1319 -0.4204
13058SOL    HW143630  11.035   8.528   8.291  0.3895 -1.4650  0.2878
13058SOL    HW243631  11.124   8.542   8.413  0.2502  2.2734  0.0957
13059SOL     OW43632   3.752   0.138  11.060  0.3730  0.0768 -0.4086
13059SOL    HW143633   3.808   0.071  11.100 -0.9518 -0.4709  0.6174
13059SOL    HW243634   3.666   0.123  11.099 -0.4257  1.0854 -1.7099
13060SOL     OW43635   4.991   7.895   7.556 -0.1142  0.6883  0.1070
13060SOL    HW143636   4.971   7.861   7.469  1.0913 -0.0385  0.0864
13060SOL    HW243637   4.917   7.869   7.610 -1.0233  1.4254 -0.7568
13061SOL     OW43638   4.487   8.422   7.238  0.7642 -0.5125  0.2915
13061SOL    HW143639   4.445   8.480   7.302  0.4448  1.0180 -1.2365
13061SOL    HW243640   4.443   8.338   7.251 -2.5897  0.8665 -0.8591
13062SOL     OW43641  10.640   0.385   4.206 -0.0740 -0.1654 -0.3078
13062SOL    HW143642  10.645   0.308   4.149  0.4302 -0.5567  0.2548
13062SOL    HW243643  10.547   0.397   4.223 -0.1859 -0.3751 -0.7696
13063SOL     OW43644   5.690  11.023   0.022  0.3668  0.6342 -0.2678
13063SOL    HW143645   5.710  11.059   0.109  1.6037  1.0605 -0.7040
13063SOL    HW243646   5.745  10.945   0.015 -3.0220 -2.1249  1.0693
13064SOL     OW43647   1.958   8.811   4.126 -0.0597  0.2462  0.1368
13064SOL    HW143648   1.971   8.781   4.036  1.0483 -0.3459  0.4753
13064SOL    HW243649   1.876   8.769   4.152 -1.5243  2.0910 -1.2462
13065SOL     OW43650  10.736   1.274   3.839  0.5693  0.3860 -0.0764
13065SOL    HW143651  10.790   1.335   3.890  0.5861  1.2196 -1.0510
13065SOL    HW243652  10.676   1.330   3.790  0.8003 -0.3550 -1.2543
13066SOL     OW43653   6.089   0.388   1.807  0.2425 -0.6073 -0.4985
13066SOL    HW143654   6.183   0.378   1.823  0.2509  0.8270  0.5827
13066SOL    HW243655   6.083   0.441   1.728  0.3725 -0.2769 -0.2915
13067SOL     OW43656   0.300   6.153   3.580 -0.1084 -0.2494 -0.3779
13067SOL    HW143657   0.390   6.186   3.574 -0.3761  0.3450 -1.2262
13067SOL    HW243658   0.281   6.119   3.492 -1.1673  0.8241 -0.5834
13068SOL     OW43659   7.483   5.926   6.787  0.3074  0.1092 -0.5665
13068SOL    HW143660   7.510   5.873   6.712 -0.3162  0.0258 -0.7420
13068SOL    HW243661   7.392   5.949   6.768 -0.8360 -2.2499  1.4400
13069SOL     OW43662   7.548   4.394   7.997  0.4190 -0.3244 -0.5003
13069SOL    HW143663   7.606   4.319   8.000 -0.5891 -1.1834 -1.4577
13069SOL    HW243664   7.527   4.413   8.088  1.7717 -0.3082 -0.1751
13070SOL     OW43665   6.412  11.071   3.843 -0.2047  0.5195  0.2081
13070SOL    HW143666   6.482  11.136   3.849 -1.5085  2.1052 -0.5406
13070SOL    HW243667   6.357  11.088   3.920 -1.8874  2.0881 -1.2133
13071SOL     OW43668   1.840  11.003   5.088 -0.3013  0.4925  0.1423
13071SOL    HW143669   1.822  10.915   5.121  1.5614  0.1353  0.2727
13071SOL    HW243670   1.935  11.014   5.096 -0.1644  1.5956 -2.0963
13072SOL     OW43671   0.872   8.624  10.517 -0.0145  0.0273  0.3821
13072SOL    HW143672   0.951   8.667  10.484 -0.0520  1.6067  2.2232
13072SOL    HW243673   0.876   8.536  10.479  0.7722  1.1486 -2.3936
13073SOL     OW43674   9.352   3.914   3.952 -0.0866  0.3308  0.2734
13073SOL    HW143675   9.390   3.976   4.014 -0.7826 -0.5175  1.6156
13073SOL    HW243676   9.277   3.876   3.999 -0.2004 -0.8810 -0.8140
13074SOL     OW43677   9.601   8.612   3.564 -0.8200 -0.0838 -0.2959
13074SOL    HW143678   9.600   8.683   3.500 -0.7129  0.3916  0.2265
13074SOL    HW243679   9.630   8.535   3.514 -0.2663  0.3882 -0.7040
13075SOL     OW43680  10.901   9.721   8.038 -0.6995 -0.5197 -0.0084
13075SOL    HW143681  10.982   9.723   7.987 -1.4712  0.6836 -1.2701
13075SOL    HW243682  10.914   9.651   8.102  1.9307  0.6283  0.8387
13076SOL     OW43683   6.435   2.718  10.772 -0.2629 -0.3697  0.3186
13076SOL    HW143684   6.434   2.777  10.847 -1.7445  2.2702 -1.5607
13076SOL    HW243685   6.351   2.672  10.776 -1.1826  1.1191 -0.5596
13077SOL     OW43686   8.922   1.395   5.101  0.0796  0.5742 -0.0317
13077SOL    HW143687   8.835   1.355   5.095  0.3980 -0.1668  0.1752
13077SOL    HW243688   8.905   1.489   5.095 -0.5857  0.3974 -2.0037
13078SOL     OW43689   1.272   1.781   7.226 -0.3823 -0.3743  0.4688
13078SOL    HW143690   1.282   1.790   7.321 -0.6539  0.8846  0.4033
13078SOL    HW243691   1.228   1.697   7.213  1.6197 -1.6227  1.3177
13079SOL     OW43692   8.122   6.374   8.861 -0.1251 -0.0594 -0.2938
13079SOL    HW143693   8.028   6.365   8.850  0.0420 -1.9325 -0.4889
13079SOL    HW243694   8.147   6.445   8.802 -1.6144  1.6612  1.0243
13080SOL     OW43695   2.724   0.552   4.192  0.1112 -0.5034  0.1135
13080SOL    HW143696   2.748   0.569   4.101 -1.6979 -0.8716 -0.4771
13080SOL    HW243697   2.736   0.637   4.235  3.9641 -0.9794  0.3595
13081SOL     OW43698   2.644   0.198   1.495 -0.0596  0.0983 -0.1304
13081SOL    HW143699   2.648   0.130   1.428  0.0359  0.8993 -0.9534
13081SOL    HW243700   2.667   0.279   1.449 -0.7968  0.7977  0.6865
13082SOL     OW43701   4.045   8.903   8.924 -0.3169  0.0875 -0.4103
13082SOL    HW143702   3.986   8.828   8.916  1.1137 -0.9795 -1.6413
13082SOL    HW243703   4.133   8.865   8.919  0.4576  1.8948 -1.7980
13083SOL     OW43704   3.399   5.810   7.817 -0.4349  0.1759  0.1376
13083SOL    HW143705   3.458   5.742   7.786 -0.5289  0.0251  0.2917
13083SOL    HW243706   3.409   5.810   7.912  0.8975  1.5674  0.0488
13084SOL     OW43707   8.961   9.046   3.526  0.3904 -0.1119 -0.6839
13084SOL    HW143708   8.916   9.128   3.501  1.0188 -0.2606 -2.4745
13084SOL    HW243709   9.048   9.054   3.486  0.9136 -1.1069  0.2323
13085SOL     OW43710   8.811   1.252   2.821  0.2830 -0.7007 -0.1152
13085SOL    HW143711   8.775   1.287   2.739 -1.2817 -1.7226  0.0951
13085SOL    HW243712   8.883   1.195   2.793 -0.2134 -1.0116 -0.7801
13086SOL     OW43713  10.041   7.413   0.939  0.5049  0.1729 -0.0444
13086SOL    HW143714  10.017   7.344   0.877  1.7447  0.4205 -0.8317
13086SOL    HW243715  10.131   7.436   0.916  0.7209  0.8421  1.3311
13087SOL     OW43716   6.935   4.382  10.454 -0.3413  0.6214 -0.0223
13087SOL    HW143717   7.003   4.329  10.412  0.0998 -1.4093  2.9730
13087SOL    HW243718   6.888   4.422  10.381  3.1222  1.0219 -2.2950
13088SOL     OW43719   9.589   9.340   5.879 -0.2356  0.1337  0.2973
13088SOL    HW143720   9.520   9.315   5.818  0.4815 -1.1066 -0.0370
13088SOL    HW243721   9.610   9.259   5.926  1.6071  0.2654 -0.2361
13089SOL     OW43722   4.685   5.603   7.144  0.0711 -0.6253 -0.5515
13089SOL    HW143723   4.741   5.581   7.219  0.0645  1.6348  0.1860
13089SOL    HW243724   4.745   5.606   7.070  1.1433  2.2349  0.3111
13090SOL     OW43725   4.246   4.865   9.569  0.8285  0.2222 -0.1318
13090SOL    HW143726   4.190   4.791   9.591 -0.5330  0.9925 -0.8518
13090SOL    HW243727   4.328   4.826   9.539 -0.0609 -1.0169 -1.0288
13091SOL     OW43728   0.424   0.980   4.654  0.0302 -0.1059 -0.1255
13091SOL    HW143729   0.418   0.921   4.579 -1.2175 -3.2085  2.2026
13091SOL    HW243730   0.508   1.026   4.641  1.6113 -3.0926 -1.6597
13092SOL     OW43731   9.535   3.251   7.692  0.4412 -0.8374  0.4524
13092SOL    HW143732   9.526   3.157   7.682 -0.1453 -1.0390  2.4185
13092SOL    HW243733   9.611   3.261   7.751  2.6123  0.1092 -2.2860
13093SOL     OW43734  10.683   7.491   0.264 -0.4844  1.1004 -0.1628
13093SOL    HW143735  10.686   7.457   0.354  0.2650 -0.6765 -0.8149
13093SOL    HW243736  10.590   7.492   0.242 -0.6953  1.7364  0.6696
13094SOL     OW43737   6.778   0.401   2.548 -0.2526  0.0285  0.4076
13094SOL    HW143738   6.820   0.343   2.611 -0.8315 -0.9547 -0.0876
13094SOL    HW243739   6.694   0.425   2.589 -0.6875 -0.7171 -0.0286
13095SOL     OW43740   4.833   6.124   0.963 -0.1287 -0.4935  0.1326
13095SOL    HW143741   4.917   6.080   0.976 -0.1442 -0.5381  0.0810
13095SOL    HW243742   4.780   6.096   1.038  0.6245  1.2940  1.4185
13096SOL     OW43743   9.629   2.658  10.682 -0.3740  0.4197  0.3277
13096SOL    HW143744   9.695   2.630  10.745 -0.0878  0.7560  0.1868
13096SOL    HW243745   9.619   2.752  10.698 -1.3055  0.2516  0.7867
13097SOL     OW43746   7.347   9.912   7.959 -0.2758 -0.3498  0.3294
13097SOL    HW143747   7.285   9.966   7.910 -1.2194  1.6964  3.4574
13097SOL    HW243748   7.305   9.826   7.964  0.0071 -0.7593 -2.4986
13098SOL     OW43749   0.974   5.026   5.175  0.7475  0.0816 -0.3188
13098SOL    HW143750   0.931   4.999   5.094  1.4562 -2.2522  0.0222
13098SOL    HW243751   1.064   5.045   5.150  1.0142 -0.8201 -0.0632
13099SOL     OW43752   5.700   8.299   2.367  0.0407 -0.1910 -0.8154
13099SOL    HW143753   5.686   8.394   2.364 -0.7148 -0.3055 -1.4244
13099SOL    HW243754   5.612   8.262   2.361  0.1173 -0.9322  1.6686
13100SOL     OW43755   5.223   2.088   8.309  0.1770 -0.5087  0.1152
13100SOL    HW143756   5.270   2.171   8.319 -0.2059 -0.2971  0.2238
13100SOL    HW243757   5.146   2.098   8.366 -0.4883 -0.4666 -0.7751
13101SOL     OW43758   5.223   9.836   4.358  0.6260  0.5303 -0.2301
13101SOL    HW143759   5.251   9.890   4.431  1.0276  1.1369 -0.8257
13101SOL    HW243760   5.295   9.774   4.345  0.4396  0.2519  0.0513
13102SOL     OW43761   0.851   1.538   2.056  0.2566 -0.4845 -0.5809
13102SOL    HW143762   0.929   1.566   2.008  3.0719 -2.0337  2.6294
13102SOL    HW243763   0.841   1.445   2.033 -0.5846 -0.3346 -0.8514
13103SOL     OW43764   8.528   6.137   9.727  0.2209  0.6427 -0.1930
13103SOL    HW143765   8.609   6.123   9.776  0.1604 -0.8687 -0.4757
13103SOL    HW243766   8.554   6.191   9.653  1.0776 -0.2044 -0.5266
13104SOL     OW43767   7.409   0.707   8.189  0.5078  0.3014  0.1927
13104SOL    HW143768   7.440   0.646   8.256 -1.6183 -0.3206  0.6723
13104SOL    HW243769   7.434   0.793   8.223 -0.7157  0.0212  1.9552
13105SOL     OW43770   6.344   8.058   5.366 -0.0958  0.2920 -0.2470
13105SOL    HW143771   6.341   8.152   5.346  0.1841  0.1701 -0.8781
13105SOL    HW243772   6.432   8.044   5.403 -0.9267  0.6923  2.0482
13106SOL     OW43773   2.550   0.578   9.658  0.0743  0.5058  0.3352
13106SOL    HW143774   2.556   0.649   9.723 -0.7401  1.3985 -0.5337
13106SOL    HW243775   2.469   0.532   9.682  0.4431  0.0415  0.7124
13107SOL     OW43776  10.632   3.176   5.551 -0.3152 -0.6402 -0.3962
13107SOL    HW143777  10.588   3.260   5.560  1.2513  0.0820  0.9802
13107SOL    HW243778  10.560   3.112   5.543 -1.5506  0.6798 -0.2619
13108SOL     OW43779  10.235   5.451  10.585  0.1208 -0.0874 -0.2846
13108SOL    HW143780  10.294   5.421  10.516  0.2447 -1.2258  0.2843
13108SOL    HW243781  10.263   5.541  10.604 -0.3461  0.4855 -2.1382
13109SOL     OW43782   2.097  11.044   5.146 -0.0344 -0.2672 -0.0666
13109SOL    HW143783   2.101  11.139   5.137 -0.6268 -0.2776 -0.4572
13109SOL    HW243784   2.081  11.030   5.239 -1.3500  0.0657 -0.2253
13110SOL     OW43785   7.544   4.345   2.128  0.1643  0.2093  0.2435
13110SOL    HW143786   7.501   4.286   2.190  0.3487 -0.0674  0.1091
13110SOL    HW243787   7.472   4.385   2.079 -0.0095  0.7486  0.9107
13111SOL     OW43788   7.280  10.981   3.814 -0.8220 -0.0286 -0.0921
13111SOL    HW143789   7.308  11.070   3.793 -0.9171  0.1584  0.5545
13111SOL    HW243790   7.218  10.992   3.886  0.3884 -0.7431  1.0905
13112SOL     OW43791   4.564   8.696  10.626 -0.0508  0.0343  0.0087
13112SOL    HW143792   4.625   8.768  10.642 -0.4524  0.3323  0.2284
13112SOL    HW243793   4.495   8.735  10.573 -1.4813  0.4446  2.0594
13113SOL     OW43794   4.135   4.209   6.407  0.0300 -0.6872 -0.5124
13113SOL    HW143795   4.181   4.287   6.375 -0.9964 -0.0936 -0.5762
13113SOL    HW243796   4.119   4.227   6.499  0.1275 -0.9946 -0.4352
13114SOL     OW43797   6.155   8.935   9.360  0.2816 -0.5579 -0.3306
13114SOL    HW143798   6.060   8.934   9.354  0.1885  0.7511  0.6190
13114SOL    HW243799   6.179   8.846   9.386 -0.5657 -1.2605 -1.8531
13115SOL     OW43800   8.549  11.002   7.687  0.1131  0.2923 -0.2460
13115SOL    HW143801   8.471  10.998   7.632  1.0805 -1.4460 -1.5847
13115SOL    HW243802   8.615  11.046   7.634  0.6213 -0.0228  0.1105
13116SOL     OW43803   7.838   8.847   9.578 -0.4054  0.6536 -0.0405
13116SOL    HW143804   7.925   8.864   9.616 -0.4796 -1.6525  1.3298
13116SOL    HW243805   7.803   8.775   9.630 -3.2900  1.6827 -0.3973
13117SOL     OW43806   2.948   5.092   0.314  1.1230 -0.0268 -0.1515
13117SOL    HW143807   3.016   5.028   0.294  2.6250  1.0716  1.2737
13117SOL    HW243808   2.893   5.049   0.380 -0.2287 -1.2762 -1.9624
13118SOL     OW43809   9.924   6.440   8.071 -0.2495 -0.5419 -0.1706
13118SOL    HW143810   9.839   6.483   8.066 -1.1839 -2.2395  0.2786
13118SOL    HW243811   9.987   6.512   8.082 -1.5252  0.7929 -1.1623
13119SOL     OW43812   7.307   0.734   7.541  0.0448  0.7305 -0.2465
13119SOL    HW143813   7.386   0.761   7.587 -0.0868 -1.5577  1.5009
13119SOL    HW243814   7.333   0.727   7.449  1.8452  0.1337  0.2809
13120SOL     OW43815   5.892   5.914   3.468  0.1265  0.0498 -0.1747
13120SOL    HW143816   5.807   5.870   3.465 -0.4230  1.1240 -1.1944
13120SOL    HW243817   5.912   5.934   3.376  0.4532  1.7112  0.2259
13121SOL     OW43818   7.470   5.562   2.561 -0.3648 -0.3703  0.4776
13121SOL    HW143819   7.436   5.579   2.648  2.1637 -2.3276  2.0032
13121SOL    HW243820   7.518   5.643   2.538  0.0153 -0.2893  1.4992
13122SOL     OW43821   1.776   8.428   2.852 -0.6975  0.0863  0.5950
13122SOL    HW143822   1.718   8.451   2.779 -0.9059 -0.1789  0.6741
13122SOL    HW243823   1.844   8.495   2.851 -0.5740 -0.0437  0.0206
13123SOL     OW43824   5.287   1.877  10.396 -0.0222 -0.1168 -0.4389
13123SOL    HW143825   5.298   1.834  10.482  0.6203  0.5896 -0.1663
13123SOL    HW243826   5.374   1.909  10.374 -0.6883  2.0355 -0.1070
13124SOL     OW43827  10.985   7.950   0.576 -0.7025 -0.0291  0.4879
13124SOL    HW143828  11.068   7.933   0.531 -0.6418 -2.8389  1.4050
13124SOL    HW243829  11.010   7.996   0.656 -0.4240  1.8403 -0.6304
13125SOL     OW43830   7.863   8.085   1.170  0.8883  0.0220  0.4482
13125SOL    HW143831   7.958   8.095   1.168  0.8098  0.6841 -0.2792
13125SOL    HW243832   7.849   7.994   1.198  1.6983  0.4026  2.2334
13126SOL     OW43833   7.117   4.341   2.285  0.0578 -0.0729 -0.1334
13126SOL    HW143834   7.087   4.377   2.202 -0.0709  0.6514  0.2176
13126SOL    HW243835   7.068   4.390   2.351  1.3047  0.4451  0.4241
13127SOL     OW43836   0.492   3.555   1.380  0.2969 -0.2455 -0.0731
13127SOL    HW143837   0.511   3.649   1.382  1.1621 -0.2357 -3.3500
13127SOL    HW243838   0.575   3.515   1.354 -0.6183 -1.6557 -0.9150
13128SOL     OW43839  10.020   2.373   1.965 -0.2569  0.1119  0.1159
13128SOL    HW143840  10.044   2.415   2.048  0.4108 -1.6738  0.8900
13128SOL    HW243841  10.037   2.280   1.980 -0.1986 -0.2729 -2.0159
13129SOL     OW43842   8.039   7.509   8.421  0.1702  0.0915  0.3017
13129SOL    HW143843   8.050   7.432   8.365 -0.8296  0.4676 -0.4633
13129SOL    HW243844   7.948   7.537   8.405  0.5660  1.5338  0.4202
13130SOL     OW43845   9.393   1.731   7.732 -0.9983 -0.2293  0.4846
13130SOL    HW143846   9.445   1.690   7.663 -1.5365 -0.2079  0.0602
13130SOL    HW243847   9.359   1.658   7.784 -0.0472 -0.2261  1.1495
13131SOL     OW43848   3.922   4.711   1.596  0.4850 -0.6239  0.1722
13131SOL    HW143849   3.981   4.686   1.525  2.0605  0.1929  1.1177
13131SOL    HW243850   3.902   4.803   1.579 -0.1015 -0.7520  0.1484
13132SOL     OW43851   0.189   5.597   8.648  0.0694  0.0807 -0.2022
13132SOL    HW143852   0.269   5.547   8.630  1.5218  1.4418  2.0574
13132SOL    HW243853   0.145   5.548   8.717 -2.0584 -1.5563 -2.5103
13133SOL     OW43854   2.607   0.625   7.190 -0.1756  0.2550  0.4254
13133SOL    HW143855   2.623   0.618   7.096  0.1599  1.0123  0.4189
13133SOL    HW243856   2.527   0.575   7.204  0.2340 -0.5679 -0.1249
13134SOL     OW43857   5.924   6.425   3.366 -0.4764  0.0306 -0.3499
13134SOL    HW143858   5.862   6.435   3.438 -0.2060  0.9984 -0.2384
13134SOL    HW243859   5.871   6.435   3.287 -0.5119  0.5587 -0.2599
13135SOL     OW43860   4.059   1.847   6.565  0.2558 -0.2760 -0.5817
13135SOL    HW143861   4.126   1.876   6.627  1.0427 -1.2635 -0.9490
13135SOL    HW243862   4.106   1.833   6.483 -0.7814  1.0685 -1.4623
13136SOL     OW43863   3.255   3.604   6.751  0.3657 -0.0643  0.0052
13136SOL    HW143864   3.199   3.565   6.684  1.3746  0.1225 -0.9756
13136SOL    HW243865   3.337   3.554   6.745  0.7567  0.5077  0.5225
13137SOL     OW43866   8.842  10.602   7.239  0.0078  0.3227  0.3000
13137SOL    HW143867   8.802  10.644   7.163  1.8993  1.7892  0.0153
13137SOL    HW243868   8.804  10.648   7.314 -0.3993  0.2517  0.1390
13138SOL     OW43869   7.621   9.120   2.172 -0.0999 -0.2175 -0.1048
13138SOL    HW143870   7.628   9.042   2.228 -0.2856  0.6772  1.1926
13138SOL    HW243871   7.536   9.110   2.129  0.2009 -1.0950 -0.5331
13139SOL     OW43872   8.745   9.171   7.777  0.4033  0.5718  0.0752
13139SOL    HW143873   8.658   9.209   7.765  0.4434  0.9764  1.0146
13139SOL    HW243874   8.734   9.109   7.850  0.5828 -0.4338 -0.7258
13140SOL     OW43875   4.394   9.640   9.910  0.3458 -0.1625  0.1196
13140SOL    HW143876   4.332   9.666   9.842 -1.0168  0.4316  1.5274
13140SOL    HW243877   4.437   9.722   9.936 -0.3426 -0.0787  1.0811
13141SOL     OW43878   2.313   8.204   2.422  0.3526  0.1508  0.1598
13141SOL    HW143879   2.399   8.210   2.380  0.6873 -0.5168  0.7231
13141SOL    HW243880   2.267   8.137   2.372  1.0584 -1.2632  1.3335
13142SOL     OW43881   3.907   8.307   3.247  0.5853 -0.2274  0.5921
13142SOL    HW143882   3.885   8.240   3.182  0.4505  1.3394 -1.0683
13142SOL    HW243883   3.921   8.259   3.328  0.8088 -2.2837 -0.6098
13143SOL     OW43884   9.123   6.577   5.932 -0.1738  0.3288 -0.1237
13143SOL    HW143885   9.045   6.540   5.973  0.2753 -0.9484 -0.3512
13143SOL    HW243886   9.124   6.669   5.959 -0.6533 -0.1237  1.5491
13144SOL     OW43887   4.378   5.138   0.979 -0.6334  0.2112 -0.1021
13144SOL    HW143888   4.473   5.133   0.988 -0.4864  0.4712 -1.3181
13144SOL    HW243889   4.345   5.058   1.020  0.1475 -0.1274 -0.1294
13145SOL     OW43890   1.294   0.533   0.446 -0.2239 -0.1980 -0.1607
13145SOL    HW143891   1.276   0.524   0.539 -1.8970 -1.0766 -0.5395
13145SOL    HW243892   1.361   0.602   0.441 -0.7111  0.4480  1.6105
13146SOL     OW43893   9.971   2.114   7.307 -0.0381 -0.0029  0.8625
13146SOL    HW143894   9.968   2.025   7.343 -1.1213  0.0827  1.0396
13146SOL    HW243895  10.001   2.169   7.380  2.3207 -0.4102  0.2761
13147SOL     OW43896   8.599   3.385   1.729  0.3571 -0.2375  0.4966
13147SOL    HW143897   8.616   3.471   1.691  0.0235 -0.9546 -1.4207
13147SOL    HW243898   8.628   3.323   1.662  0.3019 -1.6313  1.6951
13148SOL     OW43899   4.998   4.087   8.108 -0.5298 -0.8761  0.0444
13148SOL    HW143900   5.011   4.066   8.201 -0.4611 -1.4570 -0.0940
13148SOL    HW243901   5.000   4.002   8.064 -0.9413 -0.6351 -0.4449
13149SOL     OW43902   3.479   3.983   4.795 -0.0807  0.0322  0.6289
13149SOL    HW143903   3.505   3.912   4.736  1.2888  0.9021  0.1337
13149SOL    HW243904   3.426   4.041   4.741 -0.3394 -0.0850  0.7547
13150SOL     OW43905   6.630   8.972   8.372 -0.1239  0.2689 -0.0641
13150SOL    HW143906   6.544   8.951   8.336 -0.1708 -0.0425  0.2341
13150SOL    HW243907   6.690   8.967   8.297 -0.2112 -0.4452 -0.0867
13151SOL     OW43908   1.689   5.429   8.308  0.2428 -0.2773 -0.1194
13151SOL    HW143909   1.689   5.518   8.343  0.5006  0.2267 -1.3331
13151SOL    HW243910   1.703   5.373   8.384 -1.9685  0.5511  0.9957
13152SOL     OW43911   8.947   4.502   9.402  0.7511  0.3643 -0.1634
13152SOL    HW143912   8.969   4.438   9.470  1.5087  0.9729  0.1771
13152SOL    HW243913   8.934   4.584   9.450 -0.8173  0.3622 -0.5243
13153SOL     OW43914   5.206   3.162   6.931 -0.0670  0.0263 -0.0429
13153SOL    HW143915   5.130   3.215   6.909  0.1482 -0.0453 -1.0101
13153SOL    HW243916   5.195   3.082   6.880  1.0564  0.3606 -0.8585
13154SOL     OW43917   3.503   0.039   5.281  0.0794 -0.8525  0.3798
13154SOL    HW143918   3.524  -0.026   5.214  1.4791 -0.7601  0.7001
13154SOL    HW243919   3.542   0.004   5.361 -0.6172 -0.4314  0.9114
13155SOL     OW43920   5.529   3.407   5.372 -0.2065  0.1916  0.3362
13155SOL    HW143921   5.551   3.329   5.322  0.1128  0.8859 -0.6240
13155SOL    HW243922   5.462   3.377   5.434 -1.2097 -0.5128 -1.0421
13156SOL     OW43923   6.267   5.147   5.458  0.3616 -0.0755 -0.2359
13156SOL    HW143924   6.295   5.219   5.515 -0.5625 -0.9116  1.3429
13156SOL    HW243925   6.208   5.095   5.512  0.3567 -1.5820 -1.6047
13157SOL     OW43926   8.962  10.940   8.678 -0.1103 -0.5122 -0.6172
13157SOL    HW143927   8.941  11.033   8.675 -1.8363 -0.8332  0.2824
13157SOL    HW243928   8.999  10.920   8.592  2.5786  1.4687 -0.0328
13158SOL     OW43929   0.195   4.455   6.399 -0.3073  0.3064  0.2577
13158SOL    HW143930   0.257   4.526   6.381 -0.6907  0.2179 -1.6448
13158SOL    HW243931   0.237   4.404   6.468  0.0764  2.2404  1.5249
13159SOL     OW43932   1.834   2.743   2.956 -0.4126  0.0841 -0.2911
13159SOL    HW143933   1.897   2.754   3.028  0.2167 -1.2778 -0.6003
13159SOL    HW243934   1.831   2.829   2.914 -0.6526  0.8615  1.2424
13160SOL     OW43935   2.664   5.378  10.622  0.6997 -0.0311  0.0124
13160SOL    HW143936   2.715   5.298  10.626  1.4920  0.5033  1.2811
13160SOL    HW243937   2.617   5.381  10.705 -0.7156 -0.0506 -0.7588
13161SOL     OW43938   6.658   6.421   4.720  0.5846  0.2806  0.0545
13161SOL    HW143939   6.602   6.454   4.650  1.6192  1.2983 -0.3245
13161SOL    HW243940   6.648   6.326   4.717 -0.1203  0.3730 -0.8331
13162SOL     OW43941   6.509  10.948   9.827  0.1274  0.3434  0.2216
13162SOL    HW143942   6.546  10.901   9.751  3.8672  1.7147  0.9548
13162SOL    HW243943   6.497  10.880   9.893 -0.6736 -0.4646 -0.7023
13163SOL     OW43944   4.899   7.464   5.234 -0.3243  0.2955 -0.1087
13163SOL    HW143945   4.807   7.472   5.208 -0.2217  1.9540 -0.1090
13163SOL    HW243946   4.928   7.555   5.246  2.2737  0.1370 -3.4495
13164SOL     OW43947   1.646   4.578   9.577  0.6956 -0.0208  0.6050
13164SOL    HW143948   1.625   4.659   9.622 -0.7242 -0.7790  1.3608
13164SOL    HW243949   1.632   4.510   9.642  2.5935 -0.8593  0.2228
13165SOL     OW43950   3.050  10.474   3.841 -0.5734 -0.0471 -0.3437
13165SOL    HW143951   3.013  10.518   3.765  2.4445  1.2979 -1.1900
13165SOL    HW243952   3.060  10.544   3.906  2.1302  0.1325 -0.8579
13166SOL     OW43953   3.578   5.795   4.038  0.2589 -0.2002 -0.0469
13166SOL    HW143954   3.585   5.700   4.048  1.7961 -0.1006  0.0796
13166SOL    HW243955   3.654   5.819   3.986 -0.9023  0.8106 -1.3571
13167SOL     OW43956   6.457   5.106   6.556  0.0416  0.1190 -0.0907
13167SOL    HW143957   6.414   5.112   6.641  0.0656 -0.6308 -0.0179
13167SOL    HW243958   6.492   5.193   6.541 -1.4747  0.7512 -0.1441
13168SOL     OW43959   7.561   8.643   5.796  0.1591 -0.1761  0.2745
13168SOL    HW143960   7.525   8.695   5.724  0.9810 -0.2035 -0.1600
13168SOL    HW243961   7.616   8.578   5.754  0.3673 -0.4160  0.9094
13169SOL     OW43962   6.751   9.844   7.461  0.2336 -0.3170  0.8653
13169SOL    HW143963   6.699   9.924   7.468  0.0278 -0.2804 -0.7449
13169SOL    HW243964   6.699   9.777   7.505  1.4757  0.8140  4.4800
13170SOL     OW43965   3.888   1.992   5.593 -0.3709  0.1872 -0.0631
13170SOL    HW143966   3.958   1.996   5.528 -0.2966  1.3227  0.0646
13170SOL    HW243967   3.933   1.989   5.677 -0.4520 -2.1367 -0.0489
13171SOL     OW43968   6.083   6.220   1.630  0.3869 -0.0986 -0.5522
13171SOL    HW143969   6.140   6.264   1.693  0.2182  0.1117 -0.5412
13171SOL    HW243970   6.141   6.188   1.562  0.5845 -0.4473 -0.2174
13172SOL     OW43971   9.201   8.138   2.205  0.2113  0.5178  0.1591
13172SOL    HW143972   9.292   8.150   2.234  0.3031  0.0831  0.0682
13172SOL    HW243973   9.170   8.063   2.256  0.8011 -1.1161 -1.7715
13173SOL     OW43974   8.852   2.343   6.821  0.3276  0.3034 -0.2240
13173SOL    HW143975   8.773   2.384   6.788 -1.2093 -2.2376  0.0784
13173SOL    HW243976   8.822   2.285   6.891  2.3237 -1.3647 -0.6492
13174SOL     OW43977   7.327   1.817  10.355  0.6313 -0.9900 -0.4872
13174SOL    HW143978   7.395   1.845  10.294 -1.3203  1.3635 -1.7607
13174SOL    HW243979   7.301   1.730  10.324  1.1764 -0.7504 -1.6796
13175SOL     OW43980  10.674   6.592   9.931  0.2365  0.2934 -0.2854
13175SOL    HW143981  10.647   6.510   9.888 -1.8283 -0.1918  1.7026
13175SOL    HW243982  10.610   6.657   9.901  0.4915  0.6237 -0.1208
13176SOL     OW43983   8.303   8.674  10.559 -0.4955  0.2353  0.5372
13176SOL    HW143984   8.344   8.706  10.639 -2.1081  1.0043  1.0996
13176SOL    HW243985   8.234   8.739  10.540 -2.2761 -1.6005  0.3635
13177SOL     OW43986   7.617   8.619   4.697 -0.2292 -0.3240 -0.3175
13177SOL    HW143987   7.575   8.533   4.706  0.1412 -0.5607 -0.7361
13177SOL    HW243988   7.710   8.601   4.712  0.5486 -0.8537 -4.5123
13178SOL     OW43989  10.083   0.322   9.420  0.1485  0.3427  0.5038
13178SOL    HW143990  10.163   0.363   9.452  0.3931  0.8314 -0.6900
13178SOL    HW243991  10.100   0.306   9.328 -0.9279 -0.0713  0.3668
13179SOL     OW43992   6.625   8.732   1.454 -0.1753 -0.0850 -0.5608
13179SOL    HW143993   6.719   8.727   1.473  0.0481 -1.4495 -1.8761
13179SOL    HW243994   6.598   8.642   1.441 -1.2990  0.4096 -1.9261
13180SOL     OW43995   6.037   6.992   1.175  0.0568  0.3271  0.5011
13180SOL    HW143996   6.070   7.026   1.092 -2.2265  3.0161  0.5367
13180SOL    HW243997   5.942   6.991   1.164 -0.2577 -0.2624  2.7305
13181SOL     OW43998   1.316   2.229   2.995  0.6664  0.5886 -0.6797
13181SOL    HW143999   1.357   2.314   3.009  0.9529  0.3211  0.1331
13181SOL    HW244000   1.264   2.241   2.915 -0.5337  1.9875  0.2560
13182SOL     OW44001   4.955   7.707   9.302 -0.1176 -0.1058 -0.0932
13182SOL    HW144002   4.926   7.680   9.389  3.3778  0.7963  1.5325
13182SOL    HW244003   4.930   7.635   9.245 -0.9317 -1.5828  1.9988
13183SOL     OW44004   5.576   6.715   3.029  0.1779  0.6010  0.6473
13183SOL    HW144005   5.611   6.763   3.104  3.1595  0.1197 -0.3075
13183SOL    HW244006   5.576   6.778   2.957 -1.0183  0.5985  0.6322
13184SOL     OW44007  10.943   3.036   2.168  0.4195  0.0130  0.1577
13184SOL    HW144008  10.920   3.094   2.095 -0.2658 -0.8453 -0.3235
13184SOL    HW244009  10.944   3.094   2.244  0.4332  0.7867 -0.4133
13185SOL     OW44010   5.421  10.798   6.853  0.3027 -0.0591 -0.0900
13185SOL    HW144011   5.401  10.705   6.863 -0.6875  0.0285 -1.0784
13185SOL    HW244012   5.384  10.821   6.768  2.1930  0.8006 -0.7374
13186SOL     OW44013   3.523   2.183   6.173  0.5467 -0.5471 -0.2107
13186SOL    HW144014   3.481   2.135   6.244  2.4705  1.2644  2.3258
13186SOL    HW244015   3.483   2.270   6.176  0.4698 -0.5132 -1.5637
13187SOL     OW44016   1.372   0.023   7.669  0.1610 -0.5811 -0.6424
13187SOL    HW144017   1.393  -0.070   7.665 -1.0630 -0.8893 -0.3032
13187SOL    HW244018   1.393   0.049   7.759  1.0390 -0.3735 -0.8918
13188SOL     OW44019   9.292   5.048  10.711 -0.2896 -0.3617 -0.0882
13188SOL    HW144020   9.310   5.141  10.725  0.9284 -0.4607 -0.9139
13188SOL    HW244021   9.254   5.044  10.623  0.4894 -0.7317 -0.4183
13189SOL     OW44022   4.745   9.317   6.903  0.5001 -0.6796  0.3676
13189SOL    HW144023   4.840   9.329   6.912  0.5703  0.8970 -1.6451
13189SOL    HW244024   4.735   9.252   6.833  0.0620 -1.8951  1.5268
13190SOL     OW44025  10.710   0.955   0.296 -0.0500 -0.8184 -0.3732
13190SOL    HW144026  10.625   1.000   0.305  0.3174 -0.2950  0.5528
13190SOL    HW244027  10.715   0.934   0.203  0.1166  1.8134 -1.0644
13191SOL     OW44028   7.326   7.538   2.075 -0.1860 -0.2802 -0.0502
13191SOL    HW144029   7.351   7.602   2.009  1.6074 -2.2746 -1.4351
13191SOL    HW244030   7.395   7.543   2.141 -0.3243 -0.4267  0.1063
13192SOL     OW44031  10.761   3.173   6.614  0.2718  0.0295  0.4825
13192SOL    HW144032  10.822   3.187   6.541  1.3184  0.9792  1.4909
13192SOL    HW244033  10.674   3.181   6.575  0.7651 -1.1368 -0.9572
13193SOL     OW44034   4.972   6.651   2.586  0.3334 -0.1272 -0.0734
13193SOL    HW144035   4.901   6.610   2.537  0.5693 -1.1443  0.3906
13193SOL    HW244036   5.019   6.577   2.626  1.3082  0.5578  0.0877
13194SOL     OW44037   7.016   1.438   0.458  0.5244  0.5236  0.0468
13194SOL    HW144038   7.098   1.394   0.434  0.2025 -0.2742  0.3779
13194SOL    HW244039   7.037   1.531   0.454  1.1836  0.3569 -0.8198
13195SOL     OW44040   3.079   9.665   9.117  1.4434 -0.3331 -0.2779
13195SOL    HW144041   3.056   9.757   9.103 -0.3867 -0.9252 -1.5922
13195SOL    HW244042   3.081   9.655   9.213 -1.4497  0.4536 -0.0209
13196SOL     OW44043   0.069   2.211   8.383 -0.5880 -0.3074 -0.2431
13196SOL    HW144044   0.064   2.180   8.474  1.3606 -1.4616 -0.4678
13196SOL    HW244045   0.116   2.294   8.389 -1.3705  0.1417 -0.1287
13197SOL     OW44046   2.675   1.300   4.690  0.0680 -0.5060  0.0416
13197SOL    HW144047   2.641   1.274   4.605  0.2266 -0.4641 -0.0344
13197SOL    HW244048   2.759   1.341   4.671  0.0768 -0.4429  0.2129
13198SOL     OW44049  10.939  10.918   6.293 -0.0075  0.5385 -0.0542
13198SOL    HW144050  10.992  10.875   6.226 -0.8657 -1.1477  0.2939
13198SOL    HW244051  10.987  10.904   6.374 -0.9619 -1.1136  0.2842
13199SOL     OW44052   8.725   3.414   6.861 -0.3404 -0.0766 -0.5211
13199SOL    HW144053   8.645   3.466   6.873  0.7153  1.0392  2.5978
13199SOL    HW244054   8.795   3.479   6.852  0.4446 -1.0369 -1.5949
13200SOL     OW44055   8.206   5.195   4.085 -0.2675 -0.4164 -0.1320
13200SOL    HW144056   8.151   5.120   4.059 -0.5726 -0.2862  0.1368
13200SOL    HW244057   8.162   5.271   4.048 -0.4069 -0.2857  0.2958
13201SOL     OW44058   7.078   3.232   1.667 -0.5379 -0.5896 -0.1737
13201SOL    HW144059   7.126   3.315   1.663  0.2264 -1.0002  0.2954
13201SOL    HW244060   7.032   3.235   1.751  1.6318 -1.7609  1.1457
13202SOL     OW44061   7.088   4.756   8.186 -0.3973  0.0904  0.9455
13202SOL    HW144062   7.105   4.724   8.097  1.1921  0.6313  1.0184
13202SOL    HW244063   7.150   4.707   8.241 -1.4206 -0.3026  1.7901
13203SOL     OW44064   9.321   9.570   1.587  0.3429  0.0274  0.7510
13203SOL    HW144065   9.376   9.551   1.510  0.6889 -0.3233  1.0794
13203SOL    HW244066   9.253   9.503   1.585  0.8001 -0.4565  1.1762
13204SOL     OW44067   4.860   5.233   1.622  0.2455 -0.6055 -0.0202
13204SOL    HW144068   4.832   5.179   1.696  0.2460 -0.8669 -0.2072
13204SOL    HW244069   4.954   5.215   1.613 -0.0159 -1.6499 -0.9441
13205SOL     OW44070   7.753   7.810   6.764 -0.4142 -0.4774  0.2881
13205SOL    HW144071   7.756   7.714   6.770 -3.0935 -0.5723  1.2947
13205SOL    HW244072   7.825   7.840   6.819 -0.3049 -1.8919  0.9559
13206SOL     OW44073   0.134   8.759   5.794  0.3865  0.3911  0.4435
13206SOL    HW144074   0.075   8.792   5.862 -0.9213  0.8620 -0.8536
13206SOL    HW244075   0.126   8.663   5.800  0.5113  0.4180  1.1278
13207SOL     OW44076   1.051  10.651   6.183  0.3537 -0.0894  0.6682
13207SOL    HW144077   1.029  10.668   6.091 -2.8228  1.2534  1.5234
13207SOL    HW244078   0.975  10.604   6.217 -0.4216  2.8685  3.4665
13208SOL     OW44079   0.058   5.866  10.889 -0.2305 -0.6641  0.3257
13208SOL    HW144080   0.002   5.936  10.854 -2.0278 -2.0964  0.2107
13208SOL    HW244081   0.146   5.904  10.888 -0.8233  0.8766 -1.6856
13209SOL     OW44082   9.052   8.561   3.446 -0.2454 -0.1289 -0.1156
13209SOL    HW144083   9.017   8.601   3.367  0.6906  0.0306 -0.4635
13209SOL    HW244084   8.978   8.559   3.507 -0.8462  0.1922 -0.8208
13210SOL     OW44085  10.615   1.214   1.060 -0.0909  0.0377 -0.2413
13210SOL    HW144086  10.587   1.162   0.985  1.7394 -1.6244  0.1604
13210SOL    HW244087  10.551   1.194   1.129 -0.3881 -0.3104 -0.6206
13211SOL     OW44088   2.530  10.014   9.475  0.4568  0.0909 -0.6797
13211SOL    HW144089   2.436  10.004   9.491  0.6727 -1.5217 -0.2512
13211SOL    HW244090   2.559  10.078   9.540  0.2858 -2.1687  1.7775
13212SOL     OW44091   6.095   0.351   7.089  0.2790 -0.0633 -0.3840
13212SOL    HW144092   6.110   0.311   7.004  2.0126 -0.8404  0.2497
13212SOL    HW244093   6.128   0.440   7.080  0.2372 -0.0689 -0.5886
13213SOL     OW44094   2.532   3.216   0.648  0.0968 -0.3007  0.0218
13213SOL    HW144095   2.501   3.125   0.654  0.2730 -0.2687  1.9506
13213SOL    HW244096   2.623   3.212   0.676  0.8197  0.1741 -2.0631
13214SOL     OW44097   3.348   0.458   8.799 -0.0582  0.1446 -0.0417
13214SOL    HW144098   3.431   0.499   8.773  0.4269 -1.1523 -0.6247
13214SOL    HW244099   3.343   0.379   8.746 -2.7708  1.2869 -1.7268
13215SOL     OW44100   1.775   7.761   5.396  0.2660 -0.0635  0.8211
13215SOL    HW144101   1.855   7.806   5.422 -0.2624  0.8733  0.8999
13215SOL    HW244102   1.736   7.817   5.329 -0.7792 -0.0035  1.4383
13216SOL     OW44103   5.922   4.610   5.084  0.1289  0.6206  0.2880
13216SOL    HW144104   5.863   4.612   5.159  0.1286  0.3235  0.2945
13216SOL    HW244105   5.996   4.664   5.111 -1.6587  3.9969 -0.9997
13217SOL     OW44106   7.375   1.621   3.350  0.1160  0.0422  0.2236
13217SOL    HW144107   7.450   1.630   3.409  1.0239 -0.2247 -0.8711
13217SOL    HW244108   7.355   1.527   3.352  0.5938 -0.0812 -0.4110
13218SOL     OW44109   7.453   7.231   5.815  0.0376 -0.4026  0.3852
13218SOL    HW144110   7.451   7.141   5.784  1.1489  0.0865 -1.2249
13218SOL    HW244111   7.458   7.284   5.735 -0.7961  1.1048  1.2883
13219SOL     OW44112  10.826   9.840   6.307  0.1895  0.1082 -0.1445
13219SOL    HW144113  10.804   9.831   6.400 -0.5023 -0.9673 -0.3973
13219SOL    HW244114  10.874   9.923   6.302  0.1434  0.2365  1.1521
13220SOL     OW44115   9.007   6.199   5.711  0.2568 -0.3903  0.4492
13220SOL    HW144116   8.984   6.180   5.620 -0.8983 -2.1096  1.0574
13220SOL    HW244117   9.062   6.278   5.705 -1.9017  1.1326 -1.5189
13221SOL     OW44118   5.283   3.697   2.752 -0.0025 -0.4673  0.0095
13221SOL    HW144119   5.314   3.717   2.663  0.7370 -0.6541  0.2151
13221SOL    HW244120   5.199   3.742   2.759  1.1622  1.7955  0.1588
13222SOL     OW44121   5.396   8.832  10.230  0.3476  0.0527  0.3707
13222SOL    HW144122   5.351   8.856  10.311  0.7179  2.1281  0.0253
13222SOL    HW244123   5.487   8.857  10.245  1.0254 -2.2260  0.3285
13223SOL     OW44124   7.177   1.735   1.893  0.2156 -0.0711  0.3944
13223SOL    HW144125   7.136   1.649   1.903  0.1086 -0.0021  0.5523
13223SOL    HW244126   7.260   1.728   1.940  0.5858 -0.3460 -0.2890
13224SOL     OW44127   6.082   4.695   7.966 -0.1391  0.1136  0.5611
13224SOL    HW144128   5.988   4.709   7.959 -0.1822 -0.5188 -0.3403
13224SOL    HW244129   6.111   4.677   7.876  0.8828  0.5257  0.7830
13225SOL     OW44130   0.141   0.710   5.033 -0.0092  0.0684 -0.3715
13225SOL    HW144131   0.227   0.750   5.020 -0.6251  1.1803 -1.2631
13225SOL    HW244132   0.151   0.656   5.111  1.5610 -0.0298 -0.5951
13226SOL     OW44133   9.520   2.918   1.177  0.1318  0.2686  0.2467
13226SOL    HW144134   9.437   2.901   1.132  0.3626  0.7467 -0.3776
13226SOL    HW244135   9.584   2.929   1.106  0.6223  0.4383  0.7093
13227SOL     OW44136   7.466   3.341   6.615 -0.1799  0.0784 -0.3116
13227SOL    HW144137   7.498   3.331   6.705  2.5837  1.7604 -0.9900
13227SOL    HW244138   7.452   3.435   6.605 -1.7917 -0.2194 -1.2946
13228SOL     OW44139   6.862   7.914   1.828 -0.5288 -0.3836  0.5584
13228SOL    HW144140   6.935   7.975   1.841 -2.1495  1.6858  0.3888
13228SOL    HW244141   6.854   7.906   1.733 -0.1411 -1.1553  0.5761
13229SOL     OW44142   0.243   4.491   4.338  0.5448  0.0217  0.0385
13229SOL    HW144143   0.238   4.499   4.242 -0.6435  0.0353  0.0846
13229SOL    HW244144   0.312   4.427   4.353 -0.3431 -1.1970 -0.8989
13230SOL     OW44145   3.702   7.706   4.863  0.4688  0.4424 -0.4497
13230SOL    HW144146   3.727   7.614   4.850 -1.5101 -0.3034  0.6226
13230SOL    HW244147   3.729   7.750   4.783  0.8265 -1.2163 -1.2880
13231SOL     OW44148   0.485  10.406   0.753 -0.1178  0.2201  0.0931
13231SOL    HW144149   0.427  10.407   0.829 -1.0195  0.4274 -0.5784
13231SOL    HW244150   0.427  10.393   0.678  0.7829 -0.2880 -0.5445
13232SOL     OW44151   7.153  10.283   0.364 -0.5294  0.2140 -0.3297
13232SOL    HW144152   7.135  10.327   0.447 -1.6614 -0.2338 -0.3237
13232SOL    HW244153   7.221  10.218   0.385 -1.0272 -0.1070  0.3126
13233SOL     OW44154   1.711   1.562   3.868 -0.5750 -0.0961 -0.0094
13233SOL    HW144155   1.739   1.542   3.779 -3.1088 -0.0726 -0.9051
13233SOL    HW244156   1.730   1.655   3.879  0.5117 -0.2876 -0.2001
13234SOL     OW44157   0.768   8.106   4.465  1.0931 -0.2919 -0.2947
13234SOL    HW144158   0.828   8.083   4.394  0.5157 -0.3379 -0.7735
13234SOL    HW244159   0.738   8.021   4.498  1.0668 -0.2624 -0.2429
13235SOL     OW44160   4.673   5.577   2.875  0.2637 -0.3795  0.6116
13235SOL    HW144161   4.612   5.648   2.896 -0.1807 -0.7255  0.5113
13235SOL    HW244162   4.645   5.504   2.930  1.3387 -0.1826  1.4543
13236SOL     OW44163   2.757   0.324   8.058  0.5393 -0.1219  1.1107
13236SOL    HW144164   2.810   0.320   8.138  0.6772 -2.1194  0.9899
13236SOL    HW244165   2.741   0.232   8.036 -0.5158  0.4017 -0.4987
13237SOL     OW44166   5.253   9.725  10.345  0.6859  0.4186 -0.0094
13237SOL    HW144167   5.340   9.725  10.306  0.5811  0.2707 -0.2406
13237SOL    HW244168   5.219   9.637  10.328  0.4011  0.5494 -0.1144
13238SOL     OW44169   9.811   5.420   4.102 -0.2164 -0.3334 -0.1710
13238SOL    HW144170   9.723   5.432   4.064  0.4098  0.6525 -1.3868
13238SOL    HW244171   9.809   5.469   4.184 -0.4544  0.7262 -0.7846
13239SOL     OW44172   2.591   1.308   7.173 -0.5478  0.0180 -0.7594
13239SOL    HW144173   2.584   1.369   7.246 -0.6972 -0.8817 -0.0035
13239SOL    HW244174   2.671   1.258   7.191 -1.7215 -1.7074 -0.0034
13240SOL     OW44175   5.774   0.130   4.841  0.5280 -0.2221 -0.3989
13240SOL    HW144176   5.812   0.125   4.754 -0.0089  0.0233 -0.6532
13240SOL    HW244177   5.781   0.041   4.876  1.4128 -0.1570 -0.3995
13241SOL     OW44178   2.073   4.589   5.915  0.5275 -0.3123  0.6188
13241SOL    HW144179   2.129   4.664   5.894 -0.7322  0.1939 -1.1122
13241SOL    HW244180   2.109   4.516   5.865 -0.4840  0.0864 -0.7402
13242SOL     OW44181   3.006  10.076   8.740  0.5770 -0.0516 -0.3171
13242SOL    HW144182   2.978  10.050   8.828  0.0488 -0.5490 -0.6295
13242SOL    HW244183   2.950  10.150   8.717  0.3817 -0.2307 -0.4257
13243SOL     OW44184   6.151   6.036   9.245 -0.2228 -0.0504  0.6035
13243SOL    HW144185   6.057   6.040   9.261 -0.1917  0.9504  0.5631
13243SOL    HW244186   6.175   6.125   9.220  0.2102 -0.9135 -2.4335
13244SOL     OW44187   0.753   7.060  10.780  0.5602  0.1271 -0.0380
13244SOL    HW144188   0.747   7.142  10.731 -0.0932 -0.3798 -0.8306
13244SOL    HW244189   0.679   7.063  10.841  0.2391 -0.0940 -0.4153
13245SOL     OW44190   7.557   1.564   9.746 -0.3162  0.4539 -0.0992
13245SOL    HW144191   7.617   1.506   9.793 -0.3562 -0.6782 -1.3781
13245SOL    HW244192   7.559   1.533   9.655 -2.0383  1.0599 -0.3923
13246SOL     OW44193   6.076   8.406   2.399  0.1371  0.2203  0.3453
13246SOL    HW144194   6.151   8.356   2.430 -1.6191 -2.0875  1.1849
13246SOL    HW244195   6.107   8.450   2.320  1.6885 -2.8166 -0.8984
13247SOL     OW44196   4.932   3.937  10.457  0.1737  0.7578 -0.3015
13247SOL    HW144197   4.950   3.880  10.531 -0.6089  0.8239 -0.0499
13247SOL    HW244198   4.836   3.939  10.451  0.1877  2.0998 -0.2663
13248SOL     OW44199   8.172   5.840   6.029 -0.6605 -0.4081 -0.1553
13248SOL    HW144200   8.087   5.800   6.008 -0.6772 -0.6565  0.3901
13248SOL    HW244201   8.236   5.773   6.005 -0.6490 -0.4650  0.0381
13249SOL     OW44202   2.631   3.211   1.377 -0.0115  0.1378  0.1508
13249SOL    HW144203   2.602   3.169   1.296  1.8875  0.1679 -0.6022
13249SOL    HW244204   2.679   3.142   1.423  0.7009  0.6881  0.2456
13250SOL     OW44205   4.434   9.115   0.128  0.3294 -0.1113 -0.9509
13250SOL    HW144206   4.369   9.047   0.109 -0.2151  0.1547 -0.0661
13250SOL    HW244207   4.383   9.191   0.155  0.9977  0.1311 -0.3302
13251SOL     OW44208   9.677   2.860   6.586  0.9496  0.2944 -0.3120
13251SOL    HW144209   9.642   2.806   6.657  0.0553  2.0138  0.6152
13251SOL    HW244210   9.768   2.830   6.576  0.5715 -1.1686  0.3374
13252SOL     OW44211   1.411   8.759   3.760  0.4657 -0.1684  0.2395
13252SOL    HW144212   1.349   8.699   3.718  0.4709  0.4619 -0.6986
13252SOL    HW244213   1.359   8.805   3.826 -0.9110  2.4052 -2.4017
13253SOL     OW44214  10.684   1.016   1.421  0.7608 -0.0241  0.7505
13253SOL    HW144215  10.691   1.104   1.384 -1.2247 -0.4449 -0.7803
13253SOL    HW244216  10.631   1.027   1.500  1.1823  0.2409  1.0038
13254SOL     OW44217   3.362  10.313   6.602  0.7295  0.3150 -0.2424
13254SOL    HW144218   3.394  10.306   6.692 -0.0136 -0.5336 -0.0380
13254SOL    HW244219   3.421  10.258   6.551  3.0222  3.0688 -0.8254
13255SOL     OW44220   6.033   6.244   8.540  0.5066  0.1438 -0.1219
13255SOL    HW144221   6.089   6.169   8.523 -0.5840 -1.1964  1.8286
13255SOL    HW244222   6.089   6.306   8.586  0.4680 -1.1913  1.8390
13256SOL     OW44223   6.220  10.008   3.341  0.1231 -0.1579 -0.0335
13256SOL    HW144224   6.144  10.024   3.397 -0.8267 -0.5292 -1.1472
13256SOL    HW244225   6.237  10.092   3.298  0.7380  0.0813  0.6690
13257SOL     OW44226   3.641   8.999   5.196 -0.3389 -0.1824  0.3892
13257SOL    HW144227   3.720   8.945   5.202  0.2759  0.5055 -0.9599
13257SOL    HW244228   3.571   8.944   5.231  0.5431 -1.2332  0.5554
13258SOL     OW44229   6.152   3.773  10.613 -0.6319 -0.0029  0.0083
13258SOL    HW144230   6.185   3.819  10.535  0.2002  0.3815  0.5744
13258SOL    HW244231   6.160   3.680  10.590 -1.1760  0.1117 -0.6761
13259SOL     OW44232   4.343   4.639   2.857 -0.3378  0.5122 -0.4796
13259SOL    HW144233   4.414   4.580   2.883 -0.1181  0.8349 -0.3358
13259SOL    HW244234   4.386   4.708   2.807 -0.6644  0.2802 -1.0867
13260SOL     OW44235   6.960   6.805   6.242  0.1439 -0.3340 -0.2665
13260SOL    HW144236   6.884   6.785   6.297 -0.2392 -1.6916 -1.2518
13260SOL    HW244237   7.035   6.792   6.300 -0.3111 -0.3009  0.3386
13261SOL     OW44238   2.595   8.633   1.200  0.2401 -0.2124  0.3373
13261SOL    HW144239   2.673   8.577   1.202  0.4943  0.1123 -0.1664
13261SOL    HW244240   2.618   8.708   1.255  0.7288  0.4299 -0.6957
13262SOL     OW44241   4.556   6.733   1.821  0.3983 -0.1775 -0.4727
13262SOL    HW144242   4.602   6.764   1.898  3.6489  1.2388 -2.7327
13262SOL    HW244243   4.485   6.796   1.808  0.3164  0.0314  0.8675
13263SOL     OW44244   8.575   2.463   2.401  0.0051  0.1297 -0.2707
13263SOL    HW144245   8.594   2.426   2.315  0.0151  0.6689 -0.5094
13263SOL    HW244246   8.479   2.464   2.405 -0.0219 -1.9373  0.6439
13264SOL     OW44247   7.300   0.905   6.363  0.1517  0.0117  0.5595
13264SOL    HW144248   7.262   0.986   6.398  0.6841  0.0224  1.1323
13264SOL    HW244249   7.310   0.921   6.270  0.0667  0.5355  0.6380
13265SOL     OW44250   9.417   2.830   1.419  0.1975  0.0798 -0.2053
13265SOL    HW144251   9.466   2.886   1.360 -1.9700  0.8601 -1.3665
13265SOL    HW244252   9.327   2.837   1.389 -1.1105  0.8520  3.4638
13266SOL     OW44253  11.028   7.359   4.469  0.0980 -0.9712 -0.5679
13266SOL    HW144254  10.997   7.400   4.388 -2.5540  0.2651  0.9478
13266SOL    HW244255  11.078   7.283   4.440 -0.7026 -0.5310 -3.3487
13267SOL     OW44256   7.861   6.883   7.932  0.3323  0.3747 -0.2341
13267SOL    HW144257   7.910   6.965   7.945 -1.2469  1.4289 -0.5931
13267SOL    HW244258   7.918   6.815   7.966  1.4304  1.7078  0.7039
13268SOL     OW44259   6.727   1.297   5.158  0.5406 -0.4775  0.0976
13268SOL    HW144260   6.803   1.351   5.177 -0.6785  1.2686  0.2483
13268SOL    HW244261   6.674   1.300   5.237  0.7835 -2.5950  0.4091
13269SOL     OW44262   7.564   1.901   2.207  0.3257 -0.0445 -0.5336
13269SOL    HW144263   7.601   1.875   2.292  0.2900  1.0905 -0.1659
13269SOL    HW244264   7.503   1.971   2.228  0.1437  0.0856 -1.4837
13270SOL     OW44265   9.440   0.112   6.087 -0.5490 -0.2316  0.2518
13270SOL    HW144266   9.392   0.190   6.060 -0.0147 -0.0529 -0.2234
13270SOL    HW244267   9.499   0.143   6.155 -1.7465 -0.6407  1.5064
13271SOL     OW44268   6.586   1.000   2.701 -0.1979  0.0074 -0.0569
13271SOL    HW144269   6.596   0.983   2.795  1.3108  1.0862  0.0101
13271SOL    HW244270   6.492   1.013   2.689 -0.2906  0.9953  1.5214
13272SOL     OW44271   8.643   0.771   0.753  0.4449  0.4424 -0.1803
13272SOL    HW144272   8.709   0.707   0.726  0.6785  1.2369 -1.5652
13272SOL    HW244273   8.684   0.856   0.738  0.4061  0.9887  2.2631
13273SOL     OW44274   8.092   1.408   8.960  0.4468  0.0798  0.5177
13273SOL    HW144275   8.089   1.487   8.907 -0.1936 -0.6676 -0.5931
13273SOL    HW244276   8.014   1.412   9.015  0.1321 -0.0464  0.0773
13274SOL     OW44277   1.883   7.301  10.648 -0.1041 -0.8260  0.1193
13274SOL    HW144278   1.879   7.214  10.608  0.3919 -1.0501  0.5487
13274SOL    HW244279   1.839   7.291  10.732  1.2653 -1.0419  0.8315
13275SOL     OW44280   7.942   7.966   6.931  0.0419  0.5716  0.4871
13275SOL    HW144281   8.027   7.999   6.959 -0.1819  1.3713  0.2522
13275SOL    HW244282   7.908   7.920   7.007  0.7893  0.0296  0.5007
13276SOL     OW44283   9.139   1.582   3.025  0.2568  0.0123 -0.0197
13276SOL    HW144284   9.082   1.648   3.065  0.0811  0.3506 -0.8099
13276SOL    HW244285   9.098   1.563   2.940  1.2643  0.1843 -0.5545
13277SOL     OW44286   0.169   3.509  10.089  0.2079 -1.0011 -0.2218
13277SOL    HW144287   0.144   3.487  10.179  1.4019 -0.0489  0.3697
13277SOL    HW244288   0.265   3.515  10.092  0.1633  0.5711 -1.1889
13278SOL     OW44289   9.800  11.010   0.618 -0.1432  0.4778 -0.1101
13278SOL    HW144290   9.722  10.956   0.626 -0.8834  1.4677 -0.4073
13278SOL    HW244291   9.850  10.969   0.548 -1.1103  0.6636 -0.9307
13279SOL     OW44292   1.697   3.337   9.588  0.4376 -0.6434  0.0991
13279SOL    HW144293   1.691   3.360   9.495  2.2532  0.3477  0.1952
13279SOL    HW244294   1.611   3.360   9.624 -0.3253 -1.1405 -1.3305
13280SOL     OW44295   4.203   0.972  10.086 -0.0501  0.3845  0.1597
13280SOL    HW144296   4.123   1.023  10.072  0.5667  1.3705  0.1588
13280SOL    HW244297   4.175   0.898  10.140 -1.0543  0.4590 -0.2437
13281SOL     OW44298   8.529   0.950   6.962  0.2779  0.6504  0.6345
13281SOL    HW144299   8.562   0.886   7.025  1.2999 -0.6922 -1.1670
13281SOL    HW244300   8.578   1.030   6.982  1.2485 -0.0054  0.9908
13282SOL     OW44301  10.055   0.877   8.775  0.2104  0.3743  0.1932
13282SOL    HW144302  10.149   0.888   8.757  0.0230  0.8217 -0.6171
13282SOL    HW244303  10.013   0.940   8.716 -0.5294  1.2736  1.6344
13283SOL     OW44304   9.765   3.807   2.192  0.4382 -0.3182 -0.6696
13283SOL    HW144305   9.706   3.805   2.116 -0.9308 -1.4089  0.3483
13283SOL    HW244306   9.785   3.715   2.209  3.4110  0.0540 -1.6251
13284SOL     OW44307   9.420   6.621   9.251 -0.0890  0.3375  0.0756
13284SOL    HW144308   9.402   6.690   9.315 -2.3296 -0.8598  0.8639
13284SOL    HW244309   9.389   6.656   9.168  0.7359  1.0498  0.0562
13285SOL     OW44310   7.022   5.135   3.224 -0.0711 -0.1640 -0.1784
13285SOL    HW144311   6.942   5.103   3.265  0.6437 -1.8138  0.0115
13285SOL    HW244312   7.036   5.222   3.263 -1.3640 -0.1598  0.3195
13286SOL     OW44313   2.551  10.962   7.123 -0.1935  0.0452  0.0877
13286SOL    HW144314   2.604  10.959   7.202  0.0124 -1.1558 -0.0754
13286SOL    HW244315   2.536  11.055   7.107  2.1445  0.4576 -0.0373
13287SOL     OW44316   5.937  10.728   2.750  0.2332 -0.0436 -0.3286
13287SOL    HW144317   5.960  10.691   2.835  2.3294 -0.9673 -1.2379
13287SOL    HW244318   6.017  10.721   2.697 -2.2121 -4.6206 -4.2034
13288SOL     OW44319   3.144  10.360   2.075  0.1124  0.2286  0.1302
13288SOL    HW144320   3.189  10.429   2.123 -0.8449 -0.2811  1.8339
13288SOL    HW244321   3.053  10.364   2.106  0.0091 -1.7281  0.2169
13289SOL     OW44322   7.695   6.167   1.929  0.1967  0.1697 -0.0473
13289SOL    HW144323   7.748   6.238   1.965  0.3065  0.4272 -0.7016
13289SOL    HW244324   7.627   6.211   1.877 -0.1177 -0.1839  0.0591
13290SOL     OW44325   4.484   2.060   0.700 -0.4522  0.0742 -0.2045
13290SOL    HW144326   4.550   2.027   0.638 -0.2900  0.4199 -0.2190
13290SOL    HW244327   4.521   2.142   0.732 -0.1963 -0.4597  0.9151
13291SOL     OW44328   3.839   6.143   9.034  0.1526 -0.1486  0.3800
13291SOL    HW144329   3.776   6.181   9.095 -0.2299  0.4341 -0.3498
13291SOL    HW244330   3.918   6.195   9.044 -0.0571  0.2356  0.0681
13292SOL     OW44331   1.302   2.897   1.676 -0.1317 -0.6274 -1.0983
13292SOL    HW144332   1.323   2.987   1.649  3.0718 -1.5501 -2.2072
13292SOL    HW244333   1.227   2.872   1.622 -0.5728  1.0936 -1.3446
13293SOL     OW44334  10.132   9.627   5.590 -0.3858 -0.3972 -0.0295
13293SOL    HW144335  10.074   9.691   5.631  1.3427  0.1058  1.7880
13293SOL    HW244336  10.078   9.584   5.524 -2.2778  1.2726  0.3485
13294SOL     OW44337   7.585   4.741   8.977  0.6048 -0.3812 -0.4110
13294SOL    HW144338   7.594   4.784   9.062  3.2936  1.8416 -1.6470
13294SOL    HW244339   7.660   4.682   8.972  0.4068 -0.5829 -1.1986
13295SOL     OW44340   9.658  10.826   9.270  0.4926  0.0376  0.0856
13295SOL    HW144341   9.685  10.830   9.178 -0.8410 -1.5867 -0.4213
13295SOL    HW244342   9.580  10.882   9.274 -0.4028 -1.1637 -0.1652
13296SOL     OW44343   6.606   1.877   2.936  0.1144 -0.1961 -0.5331
13296SOL    HW144344   6.513   1.855   2.929  0.0485  0.0516 -0.4528
13296SOL    HW244345   6.607   1.973   2.941  0.3470 -0.2245 -0.0563
13297SOL     OW44346   4.937   4.410   0.968 -0.0057 -0.5035 -0.0174
13297SOL    HW144347   4.916   4.339   0.908 -0.1117  0.0188 -0.6049
13297SOL    HW244348   4.948   4.367   1.053 -0.5476 -1.1547 -0.2719
13298SOL     OW44349   6.572   1.797   4.382  0.5534 -0.2722 -0.0825
13298SOL    HW144350   6.520   1.726   4.418 -2.3995  1.5177 -0.5110
13298SOL    HW244351   6.641   1.754   4.333  0.5572 -2.7761  1.9186
13299SOL     OW44352   9.199  10.440   3.483  0.3110  0.2985 -0.3611
13299SOL    HW144353   9.239  10.357   3.457  0.4762  0.1127  0.4374
13299SOL    HW244354   9.106  10.429   3.463  0.1563 -0.4892  0.6687
13300SOL     OW44355  10.412   7.322   2.200  0.0379 -0.4284  0.0300
13300SOL    HW144356  10.331   7.367   2.224 -0.2190 -1.4285  1.1537
13300SOL    HW244357  10.477   7.351   2.264  0.0129 -1.1747  0.4167
13301SOL     OW44358  10.720   0.525   7.091  0.1647  0.1208  0.1926
13301SOL    HW144359  10.775   0.562   7.161  0.5789  1.1980 -0.6690
13301SOL    HW244360  10.666   0.599   7.063 -1.4005 -0.7995  0.6782
13302SOL     OW44361   3.639   3.073   3.986 -0.0676  0.5481 -0.6460
13302SOL    HW144362   3.608   3.143   3.928  1.0244  1.3245 -0.3271
13302SOL    HW244363   3.734   3.084   3.987  0.3210 -1.9819 -1.9055
13303SOL     OW44364   6.614  10.708   6.052  0.0537  0.0761 -0.0316
13303SOL    HW144365   6.586  10.638   6.112  0.8487  0.6710  1.0585
13303SOL    HW244366   6.563  10.692   5.973 -0.2150 -1.3972  0.3947
13304SOL     OW44367   0.876   4.080   2.564 -0.1368  0.0177  0.3247
13304SOL    HW144368   0.837   3.994   2.547 -0.2415  0.1927 -0.3053
13304SOL    HW244369   0.824   4.116   2.636  0.2738 -0.6866  0.9950
13305SOL     OW44370   2.232   4.834   9.073 -0.4858  0.7265 -0.2660
13305SOL    HW144371   2.279   4.869   8.998  3.2593 -0.9996  1.0218
13305SOL    HW244372   2.167   4.774   9.035 -0.2390  1.5679 -2.1071
13306SOL     OW44373   5.046   9.471  10.263  0.3490 -0.2545  0.1603
13306SOL    HW144374   4.964   9.505  10.299 -0.6250 -0.2548 -1.8757
13306SOL    HW244375   5.095   9.440  10.339 -0.6114  1.6674  1.6665
13307SOL     OW44376   5.362   3.356   5.898  0.1889 -0.0710  0.5847
13307SOL    HW144377   5.384   3.365   5.805 -0.9047 -2.5116  0.0031
13307SOL    HW244378   5.273   3.322   5.898 -0.1947  0.7879  2.5932
13308SOL     OW44379   9.380   6.749   0.046 -0.3650 -1.0858  0.6084
13308SOL    HW144380   9.394   6.788   0.133  1.1713 -2.1635  0.8855
13308SOL    HW244381   9.309   6.686   0.059 -1.2945 -0.0520  0.6765
13309SOL     OW44382   3.789   2.846   9.563 -0.1222 -0.0947 -0.1286
13309SOL    HW144383   3.851   2.838   9.636 -0.4764 -0.5498  0.1305
13309SOL    HW244384   3.833   2.902   9.500  0.6013 -0.5067 -0.0002
13310SOL     OW44385   8.996   5.863  10.806  0.0827  0.0392  0.7247
13310SOL    HW144386   8.927   5.800  10.829  0.4941 -0.4781  0.5773
13310SOL    HW244387   9.077   5.811  10.809  0.8180  1.1787  3.3855
13311SOL     OW44388   8.762   7.333   2.939 -0.5328 -0.4195 -0.1412
13311SOL    HW144389   8.854   7.358   2.941 -0.8029  0.6037  1.1752
13311SOL    HW244390   8.763   7.239   2.955  0.2579 -0.2391  1.0463
13312SOL     OW44391   8.043   7.961   5.936  0.4941  0.2732 -0.1380
13312SOL    HW144392   8.048   8.031   6.001 -2.2398  2.1300 -1.7290
13312SOL    HW244393   8.024   8.006   5.854 -1.4089 -2.2860 -1.2305
13313SOL     OW44394   0.302   2.057   0.377  0.0811  0.0363 -0.0584
13313SOL    HW144395   0.342   2.045   0.464  0.2523  3.1765  0.4271
13313SOL    HW244396   0.353   2.127   0.337 -1.7796  0.6511 -1.5075
13314SOL     OW44397   9.446   9.292  10.152  0.1866 -0.2833  0.0950
13314SOL    HW144398   9.524   9.322  10.105  1.2467  0.1689  2.0314
13314SOL    HW244399   9.373   9.329  10.104  1.2967  1.7893 -0.0831
13315SOL     OW44400   5.638   4.278   9.834 -0.1393  0.2291 -0.2440
13315SOL    HW144401   5.639   4.184   9.851 -1.1754 -0.1031 -1.8745
13315SOL    HW244402   5.653   4.317   9.920  0.0132 -1.4176  0.5177
13316SOL     OW44403   6.887   3.723   6.759  0.1867 -0.2139  0.2091
13316SOL    HW144404   6.797   3.734   6.790  0.0483 -1.1774  0.1818
13316SOL    HW244405   6.879   3.679   6.674  0.6179  1.3306 -0.6765
13317SOL     OW44406  10.684   6.488  10.189 -0.2498  0.1362 -0.6115
13317SOL    HW144407  10.664   6.546  10.116 -0.1792  1.7124  0.5789
13317SOL    HW244408  10.761   6.526  10.230 -1.4006  0.4334  1.4289
13318SOL     OW44409   2.316   2.855   3.427  0.0810  0.2974  0.5296
13318SOL    HW144410   2.305   2.927   3.364 -0.5534  1.0335  1.4459
13318SOL    HW244411   2.349   2.898   3.506  0.3898 -0.5398  0.8585
13319SOL     OW44412   6.214   6.507   0.045 -0.2055  0.5147  0.1246
13319SOL    HW144413   6.306   6.532   0.052 -0.5897  2.1008 -0.0959
13319SOL    HW244414   6.169   6.564   0.108 -1.0681 -0.0835  0.0675
13320SOL     OW44415   1.004   5.760   9.706 -0.0008  0.0728  0.3478
13320SOL    HW144416   0.991   5.747   9.612 -1.4947 -0.2592  0.5907
13320SOL    HW244417   0.964   5.684   9.747 -0.1009  0.6287  1.3026
13321SOL     OW44418   9.734   0.103   3.772  0.0953 -0.8953 -0.3107
13321SOL    HW144419   9.743   0.031   3.709  0.6148 -1.4068  0.3278
13321SOL    HW244420   9.824   0.119   3.802 -0.2724 -1.4746  1.1764
13322SOL     OW44421   0.439   0.340   1.679  0.5760  0.3679  0.4488
13322SOL    HW144422   0.494   0.375   1.609  1.2772 -1.8807 -0.1788
13322SOL    HW244423   0.374   0.286   1.634  0.7484 -0.7407  1.4747
13323SOL     OW44424   0.229   7.958   1.704  0.3798 -0.1714 -0.0315
13323SOL    HW144425   0.280   8.038   1.696 -1.4888  1.1385  0.3654
13323SOL    HW244426   0.178   7.954   1.623 -0.3261 -0.3755  0.4161
13324SOL     OW44427   9.099   5.933   5.362  0.4391 -0.5951 -0.2600
13324SOL    HW144428   9.152   5.858   5.389  0.8392 -0.9282 -1.8665
13324SOL    HW244429   9.009   5.898   5.357  0.7542 -1.2565 -1.9059
13325SOL     OW44430   0.549   2.133   3.450 -0.2366  0.0895  0.3659
13325SOL    HW144431   0.617   2.137   3.517  2.7534 -0.1812 -2.4281
13325SOL    HW244432   0.596   2.118   3.368 -3.6225  0.7679 -1.9244
13326SOL     OW44433   8.033   4.426  10.225 -0.2180  0.2030  0.2978
13326SOL    HW144434   8.086   4.418  10.305  1.4140 -1.9719 -0.8739
13326SOL    HW244435   7.964   4.361  10.237  0.2165 -0.3535 -0.1607
13327SOL     OW44436   3.192   7.645   5.768 -0.2267 -0.5187 -0.5291
13327SOL    HW144437   3.104   7.682   5.756 -0.8753 -1.6408  0.4701
13327SOL    HW244438   3.193   7.568   5.712  0.7020  0.3171 -1.7134
13328SOL     OW44439   9.917  10.698   5.485 -0.0891  0.2779 -0.1363
13328SOL    HW144440  10.009  10.721   5.498  0.6715 -0.9378 -2.6748
13328SOL    HW244441   9.880  10.695   5.573  1.5567  3.5059  0.8332
13329SOL     OW44442  10.869   8.325   7.781  0.1716  0.7029 -0.1458
13329SOL    HW144443  10.789   8.311   7.731  0.3522  0.5646 -0.4045
13329SOL    HW244444  10.867   8.260   7.851  0.3610  0.2702 -0.5349
13330SOL     OW44445  10.422   9.835   4.733  0.3882  0.6071 -0.1425
13330SOL    HW144446  10.403   9.755   4.783  0.2534  0.7366  0.0132
13330SOL    HW244447  10.395   9.814   4.644  2.3660 -0.2927 -0.5874
13331SOL     OW44448   4.130  10.709  10.378 -0.2981  0.1881  0.2302
13331SOL    HW144449   4.137  10.785  10.321  1.1150  0.5535  0.8539
13331SOL    HW244450   4.150  10.743  10.466  1.6240 -1.1133  0.3370
13332SOL     OW44451   6.335   8.403   8.203 -0.0760  0.4679  0.2619
13332SOL    HW144452   6.285   8.358   8.272  0.7407 -0.5330  0.2275
13332SOL    HW244453   6.426   8.396   8.232  0.1943  0.7658 -0.5141
13333SOL     OW44454   1.783   4.062   5.289 -0.4342  0.6345 -0.6612
13333SOL    HW144455   1.826   4.016   5.361 -3.9857 -1.0415  0.6413
13333SOL    HW244456   1.815   4.152   5.296  1.0912  0.0117  1.5298
13334SOL     OW44457   8.156   3.172   9.746  0.1475 -0.6619  0.4396
13334SOL    HW144458   8.147   3.237   9.815 -3.0607 -1.1375  0.6372
13334SOL    HW244459   8.229   3.117   9.774  0.3769  0.4926  2.2821
13335SOL     OW44460   2.177   6.386   6.161  0.2316 -0.3759  0.0945
13335SOL    HW144461   2.252   6.443   6.142  0.6292 -0.5961  0.9424
13335SOL    HW244462   2.104   6.445   6.172  0.2186 -0.1700 -0.9775
13336SOL     OW44463   8.570   8.428   2.385  0.0207 -0.6347 -0.8236
13336SOL    HW144464   8.572   8.487   2.461  0.9249 -0.4049 -1.0158
13336SOL    HW244465   8.639   8.364   2.403  0.4144 -0.4273 -1.5621
13337SOL     OW44466  10.178   7.529   2.064  0.6634  0.4277 -0.4853
13337SOL    HW144467  10.144   7.587   1.995  0.4350 -0.4655 -1.1382
13337SOL    HW244468  10.186   7.586   2.141  0.4810  1.3356 -1.1188
13338SOL     OW44469   5.618   2.142   8.357  0.0881 -0.2149  0.1591
13338SOL    HW144470   5.712   2.159   8.357  0.6552 -2.8088 -1.6356
13338SOL    HW244471   5.602   2.097   8.441  0.4926 -0.0619  0.3217
13339SOL     OW44472   6.248   4.012   6.727  0.4398 -0.3383 -0.2041
13339SOL    HW144473   6.233   3.919   6.745  1.5563 -0.4374  0.2716
13339SOL    HW244474   6.204   4.028   6.643  0.1545 -1.2716 -0.2373
13340SOL     OW44475   2.218   5.115   6.446 -0.4974 -0.4093 -0.1159
13340SOL    HW144476   2.241   5.118   6.353  0.4048  3.0706  0.0824
13340SOL    HW244477   2.301   5.097   6.490 -0.7516 -1.1036  0.0922
13341SOL     OW44478   4.487  10.415   1.671  0.4820 -0.1808  0.2039
13341SOL    HW144479   4.495  10.475   1.596  0.9165  0.1933  0.5449
13341SOL    HW244480   4.502  10.471   1.747 -1.4717 -0.2386  0.6795
13342SOL     OW44481   0.777   2.186   8.370 -0.9449 -0.0055 -0.2996
13342SOL    HW144482   0.857   2.160   8.415 -0.7265  1.0300 -0.0545
13342SOL    HW244483   0.738   2.104   8.341 -0.9217 -0.6992  1.4962
13343SOL     OW44484   6.312   4.064   8.639 -0.0965  0.0894  0.0877
13343SOL    HW144485   6.327   3.984   8.588 -1.0901  1.3219 -2.3098
13343SOL    HW244486   6.392   4.115   8.627  0.2917 -0.2571  1.1095
13344SOL     OW44487   4.667  10.621   2.942 -0.3617  0.3491  0.6458
13344SOL    HW144488   4.691  10.563   3.015 -0.2906 -0.6443 -0.1525
13344SOL    HW244489   4.577  10.647   2.962 -0.9682 -1.2878  0.2694
13345SOL     OW44490   3.848  10.634   5.389  0.2601 -0.2296  0.7067
13345SOL    HW144491   3.768  10.685   5.386  0.4390  0.0156 -0.1695
13345SOL    HW244492   3.821  10.545   5.366  0.2753 -0.0942  0.1542
13346SOL     OW44493   9.481   1.450   4.986  0.5155 -0.7988  0.3997
13346SOL    HW144494   9.436   1.498   5.054  1.6292  1.8288 -0.5880
13346SOL    HW244495   9.416   1.440   4.916 -1.1217 -4.8403  2.2079
13347SOL     OW44496   9.666  10.145   1.490 -0.5030  0.0333  0.2929
13347SOL    HW144497   9.635  10.223   1.446 -0.2076  0.8133  1.4131
13347SOL    HW244498   9.615  10.141   1.571 -0.3885 -0.8350  0.3342
13348SOL     OW44499   1.256  10.223   0.261 -0.5295  0.0779 -0.0333
13348SOL    HW144500   1.338  10.177   0.241  0.1730  1.6631 -0.9556
13348SOL    HW244501   1.284  10.306   0.299 -1.6466  1.1301 -1.4096
13349SOL     OW44502   2.931   3.199   3.927 -0.8025  0.5630 -0.3528
13349SOL    HW144503   2.866   3.145   3.971 -1.1845  0.4812 -1.0018
13349SOL    HW244504   2.992   3.136   3.887 -0.3032  0.6389  0.2758
13350SOL     OW44505   2.187   7.487  10.556  0.2586  0.1619 -0.5838
13350SOL    HW144506   2.114   7.457  10.611  0.3185 -1.1029 -1.1556
13350SOL    HW244507   2.195   7.580  10.576 -1.6606  0.3907 -0.6564
13351SOL     OW44508   2.813   8.522   0.851 -0.0570 -0.0678  0.0597
13351SOL    HW144509   2.803   8.450   0.913 -0.1635 -0.7837 -0.7695
13351SOL    HW244510   2.907   8.535   0.843 -0.0389  1.4282  1.9192
13352SOL     OW44511   1.217   5.689   8.243 -0.2244 -0.0697 -0.3680
13352SOL    HW144512   1.290   5.693   8.304 -0.9869 -1.0556  0.6578
13352SOL    HW244513   1.188   5.598   8.246 -0.3823 -0.1129 -2.1087
13353SOL     OW44514  10.832   1.341   4.739 -0.3769 -0.2336  0.3547
13353SOL    HW144515  10.824   1.254   4.778 -1.3990  0.1195  0.9567
13353SOL    HW244516  10.784   1.335   4.656 -0.8364 -0.1132  0.6126
13354SOL     OW44517   0.568   8.565   2.079 -0.0069 -0.1950  0.3178
13354SOL    HW144518   0.472   8.567   2.078 -0.1017 -0.7199  2.5240
13354SOL    HW244519   0.593   8.657   2.089 -0.3013 -0.0876  0.0737
13355SOL     OW44520   9.850   0.191   2.469  0.2176  0.5874  0.0708
13355SOL    HW144521   9.877   0.243   2.545  3.2965  2.5811 -2.1854
13355SOL    HW244522   9.833   0.256   2.401  0.3242 -1.2467 -1.7742
13356SOL     OW44523   1.852   3.680   1.413  0.5844  0.2755 -0.9619
13356SOL    HW144524   1.819   3.657   1.325  1.7065  2.9796 -2.2053
13356SOL    HW244525   1.798   3.755   1.439  0.4671 -0.3169  0.5674
13357SOL     OW44526   0.551   5.725   2.987  0.0501  0.3437 -0.3188
13357SOL    HW144527   0.580   5.688   2.904  0.1917 -0.4055  0.0526
13357SOL    HW244528   0.624   5.779   3.016  0.4956 -0.3538 -0.1091
13358SOL     OW44529   1.075   0.616   0.314  0.0440  0.1416  0.5981
13358SOL    HW144530   1.151   0.587   0.364 -0.6906 -0.3939  1.4258
13358SOL    HW244531   1.001   0.569   0.352 -0.5818 -0.0867 -0.8325
13359SOL     OW44532  10.879   3.518   2.978  0.6796 -0.4709  1.0808
13359SOL    HW144533  10.824   3.472   2.915  2.6192 -1.0449 -0.2722
13359SOL    HW244534  10.836   3.502   3.063 -3.4585  2.4394 -0.1512
13360SOL     OW44535   7.104  10.473   3.534 -0.1677  0.0705 -0.5827
13360SOL    HW144536   7.135  10.526   3.607 -1.5251 -0.3699  0.3483
13360SOL    HW244537   7.098  10.535   3.461 -2.7492  1.5362  0.7437
13361SOL     OW44538   9.008   7.440   8.552 -0.4249  0.1315 -0.6658
13361SOL    HW144539   9.079   7.481   8.602  0.1702 -0.0442 -1.3445
13361SOL    HW244540   9.053   7.378   8.494 -1.3297 -1.8544  0.6693
13362SOL     OW44541   3.101   7.972   2.393  0.0973  0.2676  0.3808
13362SOL    HW144542   3.161   8.037   2.356  0.7749 -0.3761  0.3192
13362SOL    HW244543   3.123   7.969   2.486 -0.6131  0.8324  0.5786
13363SOL     OW44544   6.626   3.271   2.360  0.3064  0.0093 -0.4282
13363SOL    HW144545   6.681   3.222   2.422 -0.1181 -0.9408 -0.7907
13363SOL    HW244546   6.660   3.360   2.364  2.5424 -0.7225 -1.3672
13364SOL     OW44547   1.056   9.040   7.352 -0.4490  0.8846  0.3369
13364SOL    HW144548   0.968   9.006   7.371 -0.6318  0.3777 -1.2976
13364SOL    HW244549   1.114   8.965   7.363 -0.5163  0.6684 -0.7533
13365SOL     OW44550   7.152   8.119   9.501 -0.1532  0.0590  0.3513
13365SOL    HW144551   7.230   8.068   9.480 -1.1855 -0.5538 -2.4309
13365SOL    HW244552   7.183   8.210   9.504  0.8718 -0.2846  0.6315
13366SOL     OW44553   1.883   3.901   0.587 -0.5570 -0.1855 -0.0273
13366SOL    HW144554   1.820   3.831   0.604  1.4420 -2.1159 -0.0909
13366SOL    HW244555   1.915   3.926   0.674  0.0550 -0.6823 -0.1006
13367SOL     OW44556   2.556   4.072   4.633 -0.4011 -0.5682 -0.0725
13367SOL    HW144557   2.585   3.995   4.583  1.0789 -0.1422  0.0878
13367SOL    HW244558   2.461   4.074   4.620 -0.0733 -0.2083 -3.2948
13368SOL     OW44559   3.379   6.875   4.036 -0.4193  0.5602  0.1647
13368SOL    HW144560   3.424   6.914   4.111  0.0116  0.5545 -0.0840
13368SOL    HW244561   3.298   6.925   4.029 -0.5449  0.4437  0.7379
13369SOL     OW44562  10.237   6.114  10.347  0.5021 -0.4798  0.1973
13369SOL    HW144563  10.197   6.170  10.282 -2.1357 -0.2799  1.8724
13369SOL    HW244564  10.205   6.026  10.327 -1.0745 -0.2894  1.6732
13370SOL     OW44565   3.826   7.359   6.908  0.0116  0.2129 -0.2121
13370SOL    HW144566   3.904   7.310   6.881 -0.1221 -0.5744  0.7803
13370SOL    HW244567   3.764   7.292   6.937 -1.3710  0.7610 -1.7108
13371SOL     OW44568   0.006   5.280   6.662 -0.5392  0.3510  0.4266
13371SOL    HW144569  -0.038   5.350   6.613  0.8118  0.2575 -0.9829
13371SOL    HW244570   0.073   5.325   6.713 -2.0116  0.4591  2.3563
13372SOL     OW44571   2.275   0.221   9.412 -0.2021  0.1579 -0.9186
13372SOL    HW144572   2.263   0.126   9.416  0.2822  0.1285  1.1607
13372SOL    HW244573   2.283   0.248   9.504 -2.0497  2.4649 -1.3413
13373SOL     OW44574   8.801   9.378   7.264 -0.6203  0.0687  0.0945
13373SOL    HW144575   8.803   9.291   7.304 -1.0031  0.6499  1.4379
13373SOL    HW244576   8.818   9.362   7.171 -1.5990 -1.5276  0.1466
13374SOL     OW44577   8.531   5.943   1.403  0.1158  0.1042  0.5003
13374SOL    HW144578   8.447   5.978   1.373  1.0795  1.5412 -0.6821
13374SOL    HW244579   8.592   5.964   1.333  1.3355 -1.5617  1.0143
13375SOL     OW44580   1.821   2.750   6.881 -0.0418  0.3638 -0.1912
13375SOL    HW144581   1.892   2.718   6.825  1.1707  2.6411 -0.0956
13375SOL    HW244582   1.810   2.841   6.855  0.5875  1.5469  3.1673
13376SOL     OW44583   7.912   8.926   2.570  0.0392  0.0263 -0.5703
13376SOL    HW144584   7.878   8.865   2.504  1.3150 -0.4463 -0.8108
13376SOL    HW244585   7.841   8.934   2.634 -0.7901 -0.3725 -1.4190
13377SOL     OW44586   6.286   6.029   6.708 -0.0249  0.0025 -0.3146
13377SOL    HW144587   6.320   6.118   6.716 -0.8779  0.3613 -0.5614
13377SOL    HW244588   6.211   6.037   6.648 -0.3719 -0.8076 -0.0056
13378SOL     OW44589   8.873   3.554   5.385  0.0307 -0.2277  0.3913
13378SOL    HW144590   8.879   3.460   5.367 -1.5080 -0.2381 -0.1876
13378SOL    HW244591   8.962   3.579   5.410  0.5972 -1.7124 -0.0346
13379SOL     OW44592   3.667  10.858   7.684  0.1521 -0.3932  0.0147
13379SOL    HW144593   3.642  10.947   7.659 -1.5168 -0.2546  1.9561
13379SOL    HW244594   3.647  10.806   7.606 -3.6064  0.2044  0.3882
13380SOL     OW44595   4.309   6.000   6.276  0.0279 -0.0255 -0.7027
13380SOL    HW144596   4.317   6.040   6.362  2.5246 -0.6194 -0.5841
13380SOL    HW244597   4.332   5.908   6.290 -1.7700 -0.6675 -1.6373
13381SOL     OW44598   6.856   6.237   8.669  0.0179 -0.2746 -0.1067
13381SOL    HW144599   6.949   6.218   8.662  0.7946  0.9606  4.0241
13381SOL    HW244600   6.842   6.312   8.611  1.8157  0.1317 -0.0658
13382SOL     OW44601   3.838  10.475   5.097  0.5675  0.5938 -0.3341
13382SOL    HW144602   3.765  10.515   5.050 -0.0276  1.5075  1.2753
13382SOL    HW244603   3.915  10.498   5.045 -0.1701  0.4797 -1.5162
13383SOL     OW44604   9.796   4.653   1.386 -0.1027 -0.6313 -0.5832
13383SOL    HW144605   9.816   4.719   1.321  0.2001 -0.1241  0.0123
13383SOL    HW244606   9.881   4.623   1.418 -0.2457 -0.4989 -0.0614
13384SOL     OW44607   0.064   2.512   2.636  0.6632 -0.2490 -0.7850
13384SOL    HW144608   0.080   2.458   2.713 -0.0547 -0.5198 -0.8224
13384SOL    HW244609   0.109   2.466   2.565  0.7390 -0.3618 -0.6657
13385SOL     OW44610  10.619   9.931   2.870  0.3953  0.1811  0.0045
13385SOL    HW144611  10.670   9.851   2.854 -0.4679 -0.0995 -1.6121
13385SOL    HW244612  10.529   9.901   2.883  0.1037  0.8625 -0.3507
13386SOL     OW44613   3.541   0.098   6.001  0.5829  0.0552  0.9782
13386SOL    HW144614   3.583   0.181   5.977 -1.9181  1.0687 -0.4287
13386SOL    HW244615   3.484   0.121   6.075 -0.0228 -0.4161  0.6691
13387SOL     OW44616   7.944   5.922   8.522 -0.1359 -0.1183  0.4359
13387SOL    HW144617   7.849   5.921   8.513 -0.1454  0.6937  0.3271
13387SOL    HW244618   7.961   5.976   8.599  0.2554  0.3927  0.0015
13388SOL     OW44619   8.679   0.636   2.322 -0.2380  0.3324  0.2831
13388SOL    HW144620   8.622   0.622   2.246  0.0684  1.0485 -0.0910
13388SOL    HW244621   8.734   0.711   2.297  0.8167 -0.2882  0.6611
13389SOL     OW44622   7.565   4.848   4.353 -0.2925  0.0555 -0.2613
13389SOL    HW144623   7.519   4.874   4.273  1.1131  0.9478 -0.8326
13389SOL    HW244624   7.624   4.778   4.326 -2.1619 -2.0368  0.7408
13390SOL     OW44625   7.200   4.544  10.383 -0.2937 -0.0566 -0.1053
13390SOL    HW144626   7.203   4.634  10.350  1.8097  0.6079  1.6859
13390SOL    HW244627   7.130   4.544  10.448 -0.1377  0.3464  0.0638
13391SOL     OW44628   2.120   9.484   0.560  0.5184 -0.0715 -0.7856
13391SOL    HW144629   2.104   9.438   0.642 -0.7248 -0.5368 -1.2681
13391SOL    HW244630   2.188   9.433   0.516  1.1333  0.1366 -0.0917
13392SOL     OW44631  10.721   1.657   9.802 -0.0338 -0.4339 -0.1715
13392SOL    HW144632  10.681   1.742   9.786  0.3847  0.0910  1.4485
13392SOL    HW244633  10.782   1.645   9.729 -0.5283  0.3703 -0.7353
13393SOL     OW44634   0.867   4.019   7.066 -0.4293  0.3029  0.0956
13393SOL    HW144635   0.877   4.021   7.162  0.0930  1.2969  0.0280
13393SOL    HW244636   0.954   4.039   7.033 -0.2711 -1.3676 -0.6283
13394SOL     OW44637   4.382   1.748   7.559  0.3118  0.2740  0.5682
13394SOL    HW144638   4.458   1.749   7.617  2.0602 -0.7651 -1.5469
13394SOL    HW244639   4.330   1.674   7.589  1.0299 -0.0705  0.9971
13395SOL     OW44640   6.317   0.035   4.691 -0.0820  0.1591  0.0899
13395SOL    HW144641   6.250   0.073   4.748 -0.9516 -0.7572 -0.2914
13395SOL    HW244642   6.359   0.110   4.649 -0.4789  0.7702  0.7669
13396SOL     OW44643   1.236   1.760   8.403 -0.0666 -0.1538 -0.2894
13396SOL    HW144644   1.258   1.818   8.477  1.2216 -0.2136 -0.6032
13396SOL    HW244645   1.216   1.676   8.444  0.1299 -0.0490  0.0298
13397SOL     OW44646   7.650   6.691   4.360  0.4472  0.2769 -0.4951
13397SOL    HW144647   7.724   6.748   4.341 -0.6795  1.9919  0.0626
13397SOL    HW244648   7.673   6.648   4.443  0.9647  0.5188 -0.5117
13398SOL     OW44649   9.392   7.782   5.860  0.0314  0.1048 -0.7456
13398SOL    HW144650   9.314   7.744   5.900 -0.0488  2.0764  1.1552
13398SOL    HW244651   9.465   7.738   5.905 -0.0161  0.1298 -0.6441
13399SOL     OW44652   6.378   5.636   7.716  0.5098 -0.2801  0.7690
13399SOL    HW144653   6.457   5.582   7.722  1.9728  1.5132 -0.9156
13399SOL    HW244654   6.356   5.636   7.622  0.1345  1.3954  0.8212
13400SOL     OW44655   2.047   4.465   2.807 -0.1999 -0.2850  0.1459
13400SOL    HW144656   2.041   4.492   2.899 -0.4849  2.9755 -0.6995
13400SOL    HW244657   1.974   4.509   2.764  0.5351 -0.8886 -1.8252
13401SOL     OW44658   2.486   2.362   7.216 -0.3569 -0.8014  0.7094
13401SOL    HW144659   2.498   2.457   7.215  1.2123 -0.9350 -1.8832
13401SOL    HW244660   2.568   2.328   7.252 -1.2060 -1.2174  2.3594
13402SOL     OW44661   4.009   5.242   8.460 -0.0999 -0.2975  0.1903
13402SOL    HW144662   4.016   5.322   8.511  0.3014 -0.0699 -0.2214
13402SOL    HW244663   3.917   5.215   8.471 -0.6068  0.9422 -0.7531
13403SOL     OW44664   3.867   3.299   3.393 -0.4267 -0.0568  0.5058
13403SOL    HW144665   3.925   3.255   3.456 -1.2284  0.2068  1.4545
13403SOL    HW244666   3.895   3.266   3.308 -0.4222 -1.7477  1.1224
13404SOL     OW44667   1.192   5.655   2.086  0.7304  0.6554  0.0628
13404SOL    HW144668   1.222   5.618   2.169 -0.8658  0.5957  0.6564
13404SOL    HW244669   1.203   5.584   2.023  0.1323  0.0159  0.6522
13405SOL     OW44670   8.595  10.842   2.064 -0.4386 -0.6406 -0.4964
13405SOL    HW144671   8.518  10.800   2.026  0.1970 -1.6406 -0.7409
13405SOL    HW244672   8.602  10.806   2.152 -0.2237 -0.5972 -0.4944
13406SOL     OW44673   0.792   5.767   0.357 -0.4768  0.0855  0.5404
13406SOL    HW144674   0.811   5.716   0.278 -2.6560  0.9553 -0.6440
13406SOL    HW244675   0.848   5.728   0.424 -0.4557 -2.4337 -0.7891
13407SOL     OW44676   9.378   4.019   9.417  0.1702  0.6474  0.2677
13407SOL    HW144677   9.324   3.943   9.398  0.1851  0.1377  2.1026
13407SOL    HW244678   9.468   3.992   9.397  0.0449  0.5944 -0.2212
13408SOL     OW44679   7.542   3.545   4.708  0.0781  0.3158  0.6866
13408SOL    HW144680   7.609   3.520   4.644  0.1402  1.2458  0.3722
13408SOL    HW244681   7.574   3.510   4.791 -0.0960 -1.0786  0.1936
13409SOL     OW44682   8.655  10.502   2.380  0.0567 -0.4741 -0.2860
13409SOL    HW144683   8.593  10.443   2.422 -0.9298 -0.3358 -1.5127
13409SOL    HW244684   8.692  10.451   2.308  1.3242 -0.5231  0.3705
13410SOL     OW44685   3.523   7.877   4.965 -0.2690  0.0175 -0.3942
13410SOL    HW144686   3.579   7.824   4.908 -1.8254 -0.1670 -1.8135
13410SOL    HW244687   3.533   7.837   5.051  3.2380  1.1507 -0.1094
13411SOL     OW44688   0.139  10.268   7.707  0.2200  0.5531 -0.0544
13411SOL    HW144689   0.068  10.315   7.751  0.1306  0.4432 -0.0818
13411SOL    HW244690   0.219  10.310   7.739  0.1014  2.3777 -1.9221
13412SOL     OW44691   0.576   6.496   4.332 -0.1054  0.6347  0.0349
13412SOL    HW144692   0.580   6.405   4.363  2.4674  0.9936  0.9926
13412SOL    HW244693   0.524   6.541   4.399 -0.6183  0.0564  0.0405
13413SOL     OW44694   7.713   3.159   5.304  0.3176 -0.0802  0.0004
13413SOL    HW144695   7.769   3.129   5.232 -1.4262 -2.2908 -0.5309
13413SOL    HW244696   7.768   3.153   5.382  1.3507 -0.4846 -0.7452
13414SOL     OW44697   6.195   8.923   7.639 -0.1488  0.2398  0.0200
13414SOL    HW144698   6.105   8.954   7.647  0.0853  1.1832 -0.8013
13414SOL    HW244699   6.210   8.870   7.717 -1.6444 -0.5127 -0.1751
13415SOL     OW44700   6.967   9.568   9.576 -0.0590 -0.1138  0.2763
13415SOL    HW144701   6.892   9.539   9.524  1.7382 -2.4608 -1.2205
13415SOL    HW244702   6.979   9.500   9.642 -0.0836  0.9814  1.4420
13416SOL     OW44703   5.593   2.515   0.122  0.3208 -0.3284  0.0361
13416SOL    HW144704   5.631   2.487   0.039 -1.0195  0.0524 -0.7236
13416SOL    HW244705   5.651   2.477   0.189  3.0549  1.6015 -1.0278
13417SOL     OW44706   0.759   8.593   3.971 -0.0084 -0.1136  0.4482
13417SOL    HW144707   0.688   8.534   3.945 -0.5970  0.8954 -0.3076
13417SOL    HW244708   0.741   8.614   4.063  0.0843 -0.9280  0.6561
13418SOL     OW44709   6.053   3.606   4.337 -0.6224 -0.2138  0.5987
13418SOL    HW144710   6.127   3.656   4.303 -0.5048 -0.1806  0.8986
13418SOL    HW244711   5.980   3.628   4.280 -0.4124 -0.2040  0.3355
13419SOL     OW44712   9.932   7.704   9.757 -0.3645 -0.2840 -0.0978
13419SOL    HW144713   9.931   7.633   9.693 -0.4430  0.2084 -0.6553
13419SOL    HW244714   9.900   7.664   9.838  0.2178 -1.0353 -0.2294
13420SOL     OW44715   4.735  10.553   5.765  0.2923  0.1722  0.4364
13420SOL    HW144716   4.766  10.470   5.802  0.7075 -0.0071 -0.2894
13420SOL    HW244717   4.696  10.528   5.681 -0.0035  0.6604  0.4270
13421SOL     OW44718  10.713   4.421   3.854  0.3710 -0.0240 -0.2409
13421SOL    HW144719  10.655   4.416   3.930 -1.2055  0.2780 -1.3739
13421SOL    HW244720  10.726   4.514   3.839  1.4534 -0.0940  0.2119
13422SOL     OW44721   8.928   5.234   6.831  0.1886 -0.4627 -0.1593
13422SOL    HW144722   8.920   5.288   6.910  0.1101  1.4603 -1.4098
13422SOL    HW244723   8.840   5.235   6.793  0.9104  1.4762 -1.9765
13423SOL     OW44724   9.357   4.394  10.975  0.1391  0.3573  0.1135
13423SOL    HW144725   9.372   4.468  11.034 -0.2702  0.4967  0.0433
13423SOL    HW244726   9.404   4.322  11.016  1.0808  0.8081 -0.1526
13424SOL     OW44727   2.301   7.723   3.329 -0.0125 -0.2313 -0.2663
13424SOL    HW144728   2.273   7.631   3.328 -0.7524 -0.0260  0.1480
13424SOL    HW244729   2.311   7.747   3.237  0.6699 -0.8614 -0.3635
13425SOL     OW44730   3.763   1.423   6.718  0.8443  0.2784  0.4281
13425SOL    HW144731   3.774   1.435   6.813 -0.5671 -0.0586  0.6566
13425SOL    HW244732   3.786   1.509   6.681 -1.7827  1.5229  1.3998
13426SOL     OW44733   4.965   1.536   7.182 -0.3410  0.6932  0.4741
13426SOL    HW144734   4.916   1.496   7.254 -0.5659 -0.3259 -0.2211
13426SOL    HW244735   4.908   1.527   7.106  1.2291 -1.3704 -0.5717
13427SOL     OW44736   9.969   2.319   0.147  0.2696  0.7516  0.3485
13427SOL    HW144737  10.026   2.344   0.075 -1.4672  0.9032 -1.0642
13427SOL    HW244738   9.954   2.225   0.135 -0.9748  1.0036 -0.2535
13428SOL     OW44739   1.750   3.914  10.750 -0.5297 -0.2374 -0.3485
13428SOL    HW144740   1.822   3.950  10.699 -1.1852 -0.5461 -1.5314
13428SOL    HW244741   1.671   3.945  10.705 -1.2140  1.5383  1.8834
13429SOL     OW44742   2.801  10.121   3.588 -0.2455  0.4925  0.0956
13429SOL    HW144743   2.813  10.214   3.574  1.2612  0.4333  0.8056
13429SOL    HW244744   2.866  10.079   3.532 -0.1880 -0.0835  0.5807
13430SOL     OW44745   3.797   0.448   4.986 -0.2689 -0.0653 -0.1733
13430SOL    HW144746   3.811   0.410   5.073  1.4588 -1.5912 -1.0425
13430SOL    HW244747   3.822   0.540   4.996  2.3515 -0.7423  0.4709
13431SOL     OW44748   8.381   4.643   9.136  0.3515 -0.2437 -0.1512
13431SOL    HW144749   8.472   4.615   9.139  0.3684 -0.5617 -2.1167
13431SOL    HW244750   8.332   4.561   9.127 -0.1963 -0.1152  1.4012
13432SOL     OW44751   8.828   1.794   8.238 -0.4855 -0.2759  0.1541
13432SOL    HW144752   8.753   1.851   8.258 -1.9842 -1.0720 -2.6110
13432SOL    HW244753   8.893   1.854   8.201 -0.6613  0.0983  0.4311
13433SOL     OW44754   3.975   2.240   4.697 -0.1695  0.6605  0.1108
13433SOL    HW144755   3.917   2.295   4.645  1.9711  1.6726 -1.3506
13433SOL    HW244756   3.993   2.164   4.641 -1.8847 -0.8818  1.5117
13434SOL     OW44757   4.214   2.298   3.470 -0.0794 -0.3134 -0.0159
13434SOL    HW144758   4.123   2.271   3.461  0.3240 -1.1835 -2.1471
13434SOL    HW244759   4.213   2.393   3.456 -0.9635  0.2052  3.0028
13435SOL     OW44760   4.600   0.956   6.716  0.3364  0.1179  0.4027
13435SOL    HW144761   4.567   0.873   6.752 -1.2035  0.2109 -0.6969
13435SOL    HW244762   4.564   1.023   6.775 -0.5020  0.1400 -0.1149
13436SOL     OW44763   9.824   3.632   0.622 -0.2485 -0.3813 -0.1933
13436SOL    HW144764   9.799   3.720   0.647  0.0796 -0.1379 -0.7197
13436SOL    HW244765   9.809   3.627   0.528 -1.3572 -1.2607  0.0053
13437SOL     OW44766   9.830   5.748   7.971 -0.1709 -0.3295 -0.5984
13437SOL    HW144767   9.858   5.839   7.959  0.6463 -0.6313 -1.0762
13437SOL    HW244768   9.886   5.714   8.041  0.3983 -0.8101 -1.2645
13438SOL     OW44769   1.433   8.825   6.636  0.0113 -0.2265  0.0134
13438SOL    HW144770   1.357   8.862   6.681  0.5712  1.1564 -0.1474
13438SOL    HW244771   1.413   8.836   6.543  0.6924  0.7584 -0.0233
13439SOL     OW44772   7.936   4.845   9.674  0.0037 -0.0229  0.0620
13439SOL    HW144773   7.912   4.752   9.676 -2.0387  0.4205 -0.5885
13439SOL    HW244774   7.969   4.863   9.761 -1.6261 -0.9170  0.9273
13440SOL     OW44775  10.703   7.942   2.175  0.0282 -0.4761  0.3305
13440SOL    HW144776  10.783   7.905   2.212  0.6792  0.8527  0.2928
13440SOL    HW244777  10.699   7.908   2.086  0.0181 -1.3253  0.6436
13441SOL     OW44778   0.885   8.890  10.256 -0.4955  0.1836  0.0057
13441SOL    HW144779   0.853   8.975  10.224 -0.8659  0.0957  0.1383
13441SOL    HW244780   0.922   8.909  10.342  0.3307  0.3867 -0.3847
13442SOL     OW44781  10.108   3.388   6.876 -0.1566 -0.1015 -0.4670
13442SOL    HW144782  10.013   3.396   6.888 -0.1579 -0.1141 -0.4716
13442SOL    HW244783  10.134   3.467   6.829 -0.5185 -1.1754 -2.5927
13443SOL     OW44784   3.849   3.623  10.341  0.0517  0.4553  0.5176
13443SOL    HW144785   3.771   3.576  10.370  0.8293 -1.5958 -0.4779
13443SOL    HW244786   3.922   3.563  10.359  1.1288  1.3422 -0.6467
13444SOL     OW44787   1.328  10.540   8.787 -0.4580 -0.2585  0.2773
13444SOL    HW144788   1.334  10.634   8.807 -2.5394 -0.2398  1.1714
13444SOL    HW244789   1.417  10.514   8.765  0.4397  1.6334  1.3791
13445SOL     OW44790   7.815   5.798  10.063  0.2202 -0.4365 -0.5535
13445SOL    HW144791   7.903   5.828  10.085 -0.2173  0.2225  0.3901
13445SOL    HW244792   7.816   5.785   9.969  0.8092  1.3651 -0.8290
13446SOL     OW44793   2.436   8.311   4.039  0.2659 -0.3434 -0.5998
13446SOL    HW144794   2.449   8.258   4.119 -1.9005 -1.2901 -0.8022
13446SOL    HW244795   2.436   8.401   4.070  1.3199 -0.5811  0.1708
13447SOL     OW44796   0.712   4.841   7.509 -0.2421  0.0198  0.5317
13447SOL    HW144797   0.763   4.914   7.544 -0.0137  0.5672 -0.8565
13447SOL    HW244798   0.767   4.764   7.524  0.1068  0.3275  0.8402
13448SOL     OW44799  10.779  11.072   3.519 -0.0417  0.3147  0.4991
13448SOL    HW144800  10.698  11.096   3.565 -0.4999 -0.2852  0.0162
13448SOL    HW244801  10.816  11.000   3.571  0.8763  1.4184  1.4493
13449SOL     OW44802   3.511   9.590   6.042 -0.2758  0.6479 -0.4490
13449SOL    HW144803   3.503   9.621   6.132 -0.4252 -0.4534 -0.0712
13449SOL    HW244804   3.423   9.597   6.006 -0.7274 -1.0405  0.2279
13450SOL     OW44805   0.351   6.920   8.063  0.1304  0.5269 -0.9510
13450SOL    HW144806   0.274   6.878   8.024 -0.2552  1.2186 -0.9506
13450SOL    HW244807   0.357   6.883   8.151  0.1679  0.0117 -1.1656
13451SOL     OW44808   1.454   3.300   7.563  0.4280 -0.5374 -0.1713
13451SOL    HW144809   1.463   3.363   7.491 -0.7531  0.7531  0.7490
13451SOL    HW244810   1.537   3.306   7.610  0.3569  0.3036 -0.1317
13452SOL     OW44811   5.714   3.800   8.287 -0.7638 -0.2199 -0.1488
13452SOL    HW144812   5.693   3.830   8.198 -0.6397  1.0524  0.2375
13452SOL    HW244813   5.777   3.730   8.274  0.1402  0.7183 -1.0383
13453SOL     OW44814   4.491   0.673  10.587  0.2604  0.4741 -0.5632
13453SOL    HW144815   4.426   0.617  10.545  0.7470  0.2570 -1.0378
13453SOL    HW244816   4.440   0.745  10.624 -0.3169 -0.0159 -0.3775
13454SOL     OW44817   4.077   4.624   6.779  0.3862  0.3680 -0.1982
13454SOL    HW144818   4.043   4.688   6.842 -0.2897  0.4045 -0.5935
13454SOL    HW244819   4.145   4.577   6.827 -1.7604 -1.2810  1.3730
13455SOL     OW44820   7.050   0.821   8.823 -0.2579 -0.1257  0.5896
13455SOL    HW144821   7.111   0.826   8.896 -1.3246 -0.3253  1.5177
13455SOL    HW244822   7.080   0.888   8.761  0.2759  0.4882  1.4958
13456SOL     OW44823   5.103  10.668   4.723 -0.1671 -0.1047 -0.0136
13456SOL    HW144824   5.158  10.737   4.760 -1.0184 -0.5501  2.2635
13456SOL    HW244825   5.013  10.694   4.744 -0.5678 -1.3825 -0.0385
13457SOL     OW44826   2.251   1.654   0.610  0.2866 -0.1954 -0.5912
13457SOL    HW144827   2.313   1.581   0.604  1.8162  0.9035  0.6964
13457SOL    HW244828   2.262   1.687   0.699 -2.7880 -0.4183 -0.0460
13458SOL     OW44829   9.845  10.772  10.948  0.0105 -0.4481  0.2665
13458SOL    HW144830   9.897  10.693  10.961  2.8179  1.3346  0.5088
13458SOL    HW244831   9.836  10.810  11.035 -1.1860 -0.3621  0.1263
13459SOL     OW44832   3.542   4.911   2.322 -0.4411  0.4607  0.0336
13459SOL    HW144833   3.631   4.882   2.300  0.0238  0.7417  1.4467
13459SOL    HW244834   3.487   4.835   2.302 -0.0656  0.6263 -1.8609
13460SOL     OW44835   6.022   6.633   5.058 -0.4617 -0.3072 -0.5591
13460SOL    HW144836   6.060   6.716   5.087  1.4521 -0.8386 -1.3437
13460SOL    HW244837   6.032   6.574   5.132 -1.7512  0.1059 -0.0284
13461SOL     OW44838   0.091   6.991   4.471 -0.2627 -0.2563 -0.1929
13461SOL    HW144839   0.040   7.002   4.551 -0.0627  0.6675 -0.1911
13461SOL    HW244840   0.065   6.904   4.438 -2.5381  0.5489 -0.7014
13462SOL     OW44841   1.042   8.320   1.162 -0.2834 -0.2074  0.1114
13462SOL    HW144842   1.063   8.320   1.255  1.5325  0.5936 -0.2571
13462SOL    HW244843   1.008   8.232   1.145  1.3418 -1.0946  1.1462
13463SOL     OW44844   6.169   2.690   6.188  0.1949  0.3365 -0.1373
13463SOL    HW144845   6.108   2.643   6.245  0.2413 -0.1776 -0.5017
13463SOL    HW244846   6.140   2.781   6.192 -0.0478  0.2408  0.3856
13464SOL     OW44847   3.905   6.736   2.883  0.7381  0.1626  0.0929
13464SOL    HW144848   3.993   6.772   2.876  1.6591 -1.7425  1.2340
13464SOL    HW244849   3.850   6.813   2.901  2.8039  1.0459  3.9258
13465SOL     OW44850   1.243   3.439   8.775 -0.4044 -0.0959  0.7208
13465SOL    HW144851   1.155   3.477   8.768 -0.2941  0.1826  0.8370
13465SOL    HW244852   1.284   3.485   8.848 -0.2917 -0.4904  0.9049
13466SOL     OW44853   9.748   9.576   3.548  0.3157 -0.2903  0.6839
13466SOL    HW144854   9.680   9.522   3.509  0.5900  0.8599 -1.5498
13466SOL    HW244855   9.787   9.520   3.615 -0.3239 -2.3668 -0.5711
13467SOL     OW44856  10.459  10.964   6.244 -0.8016  0.6805 -0.1107
13467SOL    HW144857  10.529  11.021   6.277 -0.3703 -0.3487  0.7975
13467SOL    HW244858  10.384  10.984   6.300 -1.3330  1.9499 -1.2298
13468SOL     OW44859   6.904   5.803   6.568 -0.1128  0.1329 -0.3960
13468SOL    HW144860   6.973   5.810   6.635  0.0039 -0.5342 -0.4411
13468SOL    HW244861   6.822   5.802   6.617 -0.0770  0.6364 -0.3244
13469SOL     OW44862   1.695   7.493   3.745  0.9679 -0.2854  0.4127
13469SOL    HW144863   1.624   7.555   3.763  1.3716  0.7221 -1.2554
13469SOL    HW244864   1.679   7.420   3.805 -1.0085  0.2802  0.6475
13470SOL     OW44865   8.410   9.547   2.587 -0.1051 -0.7095 -0.0671
13470SOL    HW144866   8.464   9.614   2.545  0.7375 -0.6516  1.0701
13470SOL    HW244867   8.335   9.537   2.528  0.7038 -0.1674 -1.2342
13471SOL     OW44868   8.131   1.706   6.224  0.3272  0.2676 -0.1136
13471SOL    HW144869   8.221   1.737   6.240  1.3214 -2.7489  1.0037
13471SOL    HW244870   8.143   1.615   6.195 -2.3921 -0.3518  0.4942
13472SOL     OW44871   5.842  10.217   8.777 -0.1346 -0.3604 -0.1395
13472SOL    HW144872   5.775  10.230   8.844 -1.9836 -0.8197 -1.7782
13472SOL    HW244873   5.831  10.126   8.749 -0.8188  0.3277 -2.3849
13473SOL     OW44874   6.820  10.272   9.691  0.1052 -0.8903 -0.8080
13473SOL    HW144875   6.829  10.186   9.733 -0.5240 -0.8186 -0.5181
13473SOL    HW244876   6.731  10.273   9.658 -0.1098 -0.0869 -0.2256
13474SOL     OW44877   7.049   7.413  10.836  0.2205  0.1880 -0.0651
13474SOL    HW144878   7.007   7.499  10.836 -0.8325 -0.3089 -0.5965
13474SOL    HW244879   7.001   7.363  10.902 -0.6983 -0.6860 -1.3532
13475SOL     OW44880   1.630   0.722   1.014  0.3662  0.0679  0.0594
13475SOL    HW144881   1.626   0.817   1.007  1.2782  0.0959 -0.1808
13475SOL    HW244882   1.542   0.696   1.043  0.6218  1.1293  1.9059
13476SOL     OW44883   8.560   4.005   9.570 -0.1153 -0.3442 -0.0800
13476SOL    HW144884   8.494   3.959   9.518  1.0247 -1.0737 -0.9364
13476SOL    HW244885   8.546   3.976   9.659 -1.1144 -0.2760 -0.2052
13477SOL     OW44886   9.874   1.514   3.161  0.1525 -0.1470  0.9291
13477SOL    HW144887   9.799   1.457   3.182 -1.3289  1.5263  0.4586
13477SOL    HW244888   9.889   1.499   3.067  0.3915 -0.4448  1.0123
13478SOL     OW44889   7.408   7.416   4.735 -0.0548 -0.7559 -0.5172
13478SOL    HW144890   7.320   7.381   4.719 -0.1718 -0.4441 -0.5690
13478SOL    HW244891   7.422   7.480   4.665 -0.4655  0.4238  0.4307
13479SOL     OW44892   4.289  10.242   6.683 -0.9658  0.2867  0.1718
13479SOL    HW144893   4.370  10.284   6.712 -1.3631  1.1648  0.0476
13479SOL    HW244894   4.312  10.150   6.670  0.3045  0.7337 -0.9811
13480SOL     OW44895   0.442   0.688   6.174 -0.2094  0.3536 -0.5793
13480SOL    HW144896   0.490   0.665   6.095  1.5282  0.4634  0.3991
13480SOL    HW244897   0.366   0.738   6.143 -0.9666 -1.7556 -2.3262
13481SOL     OW44898  10.914   2.466  10.856  0.4379 -0.1048  0.3377
13481SOL    HW144899  10.857   2.503  10.923  0.1307 -0.8307  0.4937
13481SOL    HW244900  10.969   2.404  10.904  0.1802 -0.6659 -0.0852
13482SOL     OW44901   6.770   5.501   4.580 -0.8548 -0.4305  0.7108
13482SOL    HW144902   6.727   5.478   4.662 -1.4922 -1.4924  0.0967
13482SOL    HW244903   6.763   5.597   4.576 -0.9628 -0.3797  1.8019
13483SOL     OW44904   0.007   1.802   1.894  0.0308 -0.2183 -0.4821
13483SOL    HW144905  -0.038   1.833   1.973  0.9183  1.4465 -0.5973
13483SOL    HW244906  -0.015   1.708   1.890 -1.3232 -0.0016  0.8460
13484SOL     OW44907   9.394  10.177   3.156 -0.4327  0.1399  0.2342
13484SOL    HW144908   9.313  10.156   3.202 -0.0443 -0.5413  0.6375
13484SOL    HW244909   9.399  10.112   3.085 -1.1662  1.3540 -0.9777
13485SOL     OW44910   7.917   1.396   3.698 -0.0335 -0.1475  0.0525
13485SOL    HW144911   7.936   1.305   3.673  1.9164  0.1024  0.4672
13485SOL    HW244912   7.826   1.394   3.727 -0.2321 -1.8343 -0.5710
13486SOL     OW44913   3.226   7.106   6.150  0.6309 -0.1119 -0.6289
13486SOL    HW144914   3.185   7.023   6.123 -2.2081  0.5812  1.1012
13486SOL    HW244915   3.191   7.170   6.088  0.7984  0.1803 -0.4207
13487SOL     OW44916   3.482   2.339  10.473 -0.1319 -0.3877  0.4528
13487SOL    HW144917   3.459   2.267  10.531 -1.6656  1.2542  2.0280
13487SOL    HW244918   3.409   2.344  10.411  0.2313 -0.5053  0.0086
13488SOL     OW44919   4.744   5.049   4.084 -0.0140  1.0404 -0.3820
13488SOL    HW144920   4.760   5.068   4.177 -0.9304 -3.1604  0.8641
13488SOL    HW244921   4.778   4.960   4.072 -0.3921  1.2323 -3.9971
13489SOL     OW44922   2.202   6.196   2.061 -0.2209 -0.1213  0.2531
13489SOL    HW144923   2.235   6.245   2.137  0.0473  0.7490 -0.4095
13489SOL    HW244924   2.281   6.161   2.019 -0.3320 -0.2065  0.1162
13490SOL     OW44925   1.474   7.939   7.524  0.2391  0.3412 -0.2053
13490SOL    HW144926   1.532   7.891   7.466 -0.1227 -1.4952  0.8677
13490SOL    HW244927   1.386   7.914   7.495  0.0540 -0.0823  0.6752
13491SOL     OW44928   7.427   2.968   5.478 -0.4570 -0.0368 -0.1964
13491SOL    HW144929   7.375   2.933   5.406 -1.6766  1.1914  0.0333
13491SOL    HW244930   7.515   2.934   5.463 -0.9836 -0.9281 -1.4755
13492SOL     OW44931   6.213   3.734   7.564  0.3458 -0.6569 -0.1619
13492SOL    HW144932   6.273   3.679   7.615  1.6346  0.7033 -0.1476
13492SOL    HW244933   6.155   3.773   7.629  1.1619  0.0650  0.1586
13493SOL     OW44934   3.908   7.229   6.374  0.0547 -0.2159 -0.3804
13493SOL    HW144935   3.976   7.285   6.410 -2.1287  1.8134  0.8670
13493SOL    HW244936   3.854   7.205   6.449 -2.0442  0.3891 -1.6063
13494SOL     OW44937   0.741   5.305   7.251 -0.2924 -0.4322 -0.1198
13494SOL    HW144938   0.787   5.222   7.242 -0.2575 -0.4583  0.2639
13494SOL    HW244939   0.662   5.283   7.301 -0.5356 -0.3230 -0.4561
13495SOL     OW44940  10.113   3.745   2.289 -0.3789 -0.2107 -0.5879
13495SOL    HW144941  10.160   3.823   2.320  2.0721 -2.2449  1.3259
13495SOL    HW244942  10.055   3.722   2.361  0.8541 -1.5623  0.0198
13496SOL     OW44943   3.692   2.860   0.058 -0.3648  0.3756  0.5392
13496SOL    HW144944   3.712   2.914  -0.019 -0.3969  2.3101  1.8353
13496SOL    HW244945   3.609   2.894   0.090 -1.0114 -1.2810  0.7208
13497SOL     OW44946   1.069   2.009   6.634 -0.5111 -0.2932  0.7029
13497SOL    HW144947   1.152   1.986   6.677  0.4268  2.1306  0.3312
13497SOL    HW244948   1.007   2.017   6.706 -0.2918 -1.4741  1.0507
13498SOL     OW44949   5.970  10.553   8.532 -0.5052 -0.4536 -0.5671
13498SOL    HW144950   5.954  10.618   8.601  1.1997 -1.7440  1.1630
13498SOL    HW244951   5.993  10.473   8.580 -0.1306 -1.6589 -2.6443
13499SOL     OW44952   2.891   2.854   9.359 -0.5035 -0.8797 -0.5763
13499SOL    HW144953   2.877   2.760   9.361  0.9831 -1.1303  1.1967
13499SOL    HW244954   2.936   2.873   9.442 -0.5175  1.3431 -1.0181
13500SOL     OW44955   0.323   5.377   2.873 -0.0236  0.0474 -0.0550
13500SOL    HW144956   0.395   5.316   2.858 -0.7855 -1.1164  0.8514
13500SOL    HW244957   0.354   5.436   2.941  0.2189 -0.1726  0.0245
13501SOL     OW44958   6.197   6.312   1.053  0.4619 -0.2955 -0.4476
13501SOL    HW144959   6.148   6.395   1.060  0.3394 -0.4019 -0.0416
13501SOL    HW244960   6.266   6.331   0.990  3.0358  1.3846  2.6184
13502SOL     OW44961   8.727  10.861   4.246 -0.4539  0.0717  0.1430
13502SOL    HW144962   8.665  10.931   4.226 -2.3586 -1.5260  0.1868
13502SOL    HW244963   8.754  10.828   4.160  0.4910  0.8412  0.1209
13503SOL     OW44964   3.951   9.705   8.592  0.3811  0.2020  0.0488
13503SOL    HW144965   4.002   9.766   8.538 -0.5180  0.6548 -0.3003
13503SOL    HW244966   3.933   9.753   8.672  1.2794 -0.2925  0.5703
13504SOL     OW44967   0.325   5.211   5.971 -0.2311 -0.3015  0.6220
13504SOL    HW144968   0.384   5.194   6.044  0.4968 -0.8286 -0.0609
13504SOL    HW244969   0.255   5.263   6.008  0.8268  0.6221  1.4050
13505SOL     OW44970  10.149   5.498   7.230  0.0102 -0.2380  0.1226
13505SOL    HW144971  10.099   5.493   7.312  1.8081 -1.2925  1.2268
13505SOL    HW244972  10.093   5.457   7.165 -1.4270  0.5361  0.8353
13506SOL     OW44973   4.256   7.726   0.589  0.1293 -0.2066 -0.2725
13506SOL    HW144974   4.265   7.821   0.593 -0.9757 -0.1109  1.9916
13506SOL    HW244975   4.339   7.692   0.622 -0.3045  0.1076  1.2629
13507SOL     OW44976   7.066   5.750  10.605  0.1206 -0.5957 -0.5849
13507SOL    HW144977   7.143   5.711  10.647  0.0488  0.0797  0.1970
13507SOL    HW244978   7.092   5.760  10.513  0.9034 -0.5584 -0.3731
13508SOL     OW44979   3.702   4.199   7.134 -0.3277 -0.3968  0.2288
13508SOL    HW144980   3.622   4.203   7.082  0.1643 -0.1892 -0.5191
13508SOL    HW244981   3.683   4.133   7.201 -1.4175  0.2435  0.5767
13509SOL     OW44982   6.690   7.106   2.775  0.3241  0.2097 -0.0103
13509SOL    HW144983   6.677   7.024   2.728  0.6552 -0.0358  0.3203
13509SOL    HW244984   6.608   7.120   2.822 -0.0555  0.5184 -0.7435
13510SOL     OW44985   4.658   6.824   3.760 -0.0334  0.6271  0.6648
13510SOL    HW144986   4.604   6.820   3.840 -0.8036 -0.6413  0.1183
13510SOL    HW244987   4.601   6.788   3.692  0.6000  1.7403 -0.4786
13511SOL     OW44988   9.159  10.042  10.325 -0.2995  0.0897  0.0361
13511SOL    HW144989   9.158  10.052  10.420  0.1429  0.7918 -0.0320
13511SOL    HW244990   9.069  10.016  10.303  0.0983 -2.3049  0.8599
13512SOL     OW44991   5.219  10.165   0.174 -0.0292  0.0380 -0.2811
13512SOL    HW144992   5.267  10.176   0.256 -1.0075 -2.7777  0.7837
13512SOL    HW244993   5.249  10.082   0.139 -0.7800  0.4484 -1.9952
13513SOL     OW44994   4.466   5.168   0.407 -0.0603  0.7970  0.4188
13513SOL    HW144995   4.375   5.156   0.379  0.1352  1.0713 -0.3535
13513SOL    HW244996   4.480   5.098   0.472 -0.5377  0.1708 -0.1356
13514SOL     OW44997  10.436   3.530   5.860 -0.3866  0.1859 -0.3303
13514SOL    HW144998  10.383   3.477   5.919 -0.8238  0.2263 -0.6735
13514SOL    HW244999  10.522   3.535   5.901  0.4426 -2.7822 -1.4106
13515SOL     OW45000   8.843   0.682   6.671  0.3677  0.2891 -0.6118
13515SOL    HW145001   8.800   0.744   6.612 -1.6572 -1.7082 -1.3989
13515SOL    HW245002   8.904   0.633   6.615  0.4877  0.2318 -0.4340
13516SOL     OW45003   3.252   3.443   5.753  0.6930  0.0758  0.7526
13516SOL    HW145004   3.277   3.377   5.818  0.9778  0.5523  1.1345
13516SOL    HW245005   3.331   3.497   5.742  1.3082 -1.1438 -1.4403
13517SOL     OW45006   7.298   4.014   0.837 -0.2805  0.3297 -0.4610
13517SOL    HW145007   7.294   3.919   0.834 -0.2556  0.2983  0.4182
13517SOL    HW245008   7.350   4.038   0.760  1.7243 -0.4938  0.5481
13518SOL     OW45009   5.936  10.096   0.601  0.5844  0.3165 -0.0845
13518SOL    HW145010   6.027  10.065   0.598  0.2120 -1.0984  1.3395
13518SOL    HW245011   5.891  10.045   0.534  0.2474 -1.4070  1.3628
13519SOL     OW45012   0.042   6.708   3.994  0.0844  0.3331 -0.3195
13519SOL    HW145013   0.107   6.639   3.983 -2.0775 -1.9212  0.1248
13519SOL    HW245014  -0.010   6.706   3.914 -0.9044  0.4129  0.3019
13520SOL     OW45015   8.345   9.629   6.767 -0.4408 -0.2617  0.6578
13520SOL    HW145016   8.366   9.677   6.688 -0.3591 -0.2469  0.6890
13520SOL    HW245017   8.249   9.633   6.772 -0.5516 -1.4036 -0.1591
13521SOL     OW45018   6.811   6.861   1.203 -0.2458  0.5815 -0.0354
13521SOL    HW145019   6.739   6.848   1.264  2.1085  1.6340  3.2351
13521SOL    HW245020   6.785   6.937   1.150 -2.0222  0.1536  0.1780
13522SOL     OW45021   5.060   3.434   7.780  0.0412 -0.1201  0.1982
13522SOL    HW145022   5.049   3.398   7.692 -2.2254  0.9383 -0.0283
13522SOL    HW245023   5.087   3.525   7.765  0.6862 -0.2303  0.6458
13523SOL     OW45024   1.230   7.278   8.225  0.4199 -0.0571  0.3743
13523SOL    HW145025   1.271   7.307   8.307  1.9466 -2.4510  0.5727
13523SOL    HW245026   1.201   7.358   8.182  0.2382  1.3310  2.9057
13524SOL     OW45027   3.397   2.517   0.797 -0.4154 -0.3714 -0.7857
13524SOL    HW145028   3.442   2.504   0.880 -2.9028  0.9436  0.9039
13524SOL    HW245029   3.466   2.543   0.736  1.3914 -0.6756  1.0264
13525SOL     OW45030   2.186   1.212   9.594 -0.3134  0.1204  0.1035
13525SOL    HW145031   2.267   1.217   9.542 -0.8446 -0.5329 -0.8171
13525SOL    HW245032   2.195   1.130   9.644 -1.2848 -1.0701 -1.5775
13526SOL     OW45033   3.622  11.016   4.585  0.0827  0.2020  0.8061
13526SOL    HW145034   3.527  11.025   4.586  0.0945  0.3758  1.4240
13526SOL    HW245035   3.640  10.946   4.649  0.4687  1.5777  2.2789
13527SOL     OW45036   0.116   3.627   2.730 -0.0885  0.5349  0.0768
13527SOL    HW145037   0.176   3.553   2.732 -0.0339  0.5777  0.0102
13527SOL    HW245038   0.101   3.649   2.822 -1.3131 -0.5444  0.1604
13528SOL     OW45039   4.605  10.138   3.816  0.5530 -0.0746 -0.6880
13528SOL    HW145040   4.603  10.190   3.896  1.9215  1.2215 -1.4421
13528SOL    HW245041   4.513  10.131   3.790  0.0125 -1.0521  1.2766
13529SOL     OW45042   8.059   0.005   4.269 -0.2896  0.0574  0.6892
13529SOL    HW145043   8.018  -0.081   4.277 -0.3386  0.1316  1.3386
13529SOL    HW245044   7.988   0.067   4.287 -0.4300  0.2642 -0.5182
13530SOL     OW45045   7.666   8.773   7.527  0.3761 -0.7068 -0.5499
13530SOL    HW145046   7.716   8.823   7.463 -1.1731  0.3653 -1.0034
13530SOL    HW245047   7.705   8.795   7.612 -0.5997  1.8355 -0.6630
13531SOL     OW45048   1.756   1.710   0.306 -1.1213 -0.0552  0.0574
13531SOL    HW145049   1.820   1.765   0.350 -0.3168 -0.4116 -0.6179
13531SOL    HW245050   1.672   1.734   0.344 -0.5817  0.4248  0.9652
13532SOL     OW45051   1.772   4.823   8.638 -0.1121  0.6732  0.5557
13532SOL    HW145052   1.867   4.826   8.651 -0.0190  0.0041  0.0103
13532SOL    HW245053   1.756   4.881   8.563 -0.1599  0.9126  0.7464
13533SOL     OW45054   2.523   9.019   4.320 -0.0075 -0.4411 -0.0927
13533SOL    HW145055   2.554   9.003   4.231  0.6751 -1.0207  0.2393
13533SOL    HW245056   2.483   8.936   4.346 -1.1684  0.0561 -0.2314
13534SOL     OW45057   8.346  10.495   6.730  0.3911  0.3239 -0.3766
13534SOL    HW145058   8.356  10.407   6.693  1.0972 -0.1327  0.8517
13534SOL    HW245059   8.279  10.485   6.798  0.2706  0.8046 -0.4170
13535SOL     OW45060   9.913   5.931   3.860 -0.2299  0.4601 -0.6127
13535SOL    HW145061   9.995   5.940   3.907 -1.1884  0.8592  1.0635
13535SOL    HW245062   9.868   5.858   3.903 -1.3730  1.2007 -0.5046
13536SOL     OW45063  11.003   2.298   5.199  0.1324 -0.3108 -0.1543
13536SOL    HW145064  11.028   2.390   5.196  1.6784 -0.5557  2.6491
13536SOL    HW245065  10.908   2.299   5.188  0.0854  1.6172  0.0571
13537SOL     OW45066   0.508   8.520   6.353  0.8451 -0.4696  0.5433
13537SOL    HW145067   0.564   8.540   6.278  1.0928  0.3961  0.9466
13537SOL    HW245068   0.478   8.431   6.337 -1.2830  0.5501 -1.9932
13538SOL     OW45069   4.520   1.917   8.919 -0.1465  0.3777  0.2360
13538SOL    HW145070   4.428   1.942   8.915 -0.4260 -0.7507 -1.5974
13538SOL    HW245071   4.557   1.973   8.987 -2.2411  0.6315  1.2664
13539SOL     OW45072   6.482   1.955   0.296  0.0311 -0.0008 -0.3128
13539SOL    HW145073   6.408   1.907   0.261  0.7740 -3.0178  1.8455
13539SOL    HW245074   6.549   1.949   0.228 -0.1189 -1.5496 -0.3587
13540SOL     OW45075   1.855   2.319   3.824  0.2032 -0.3683  0.6338
13540SOL    HW145076   1.914   2.276   3.761 -0.8684 -0.8864 -0.0475
13540SOL    HW245077   1.843   2.407   3.789 -0.7150 -0.7807 -0.1540
13541SOL     OW45078   7.955   9.592  10.704 -0.4282  0.0712 -0.5262
13541SOL    HW145079   8.048   9.571  10.705 -0.3557  0.4046 -0.1609
13541SOL    HW245080   7.951   9.685  10.686 -0.5780  0.5550  1.6931
13542SOL     OW45081   5.346   7.378   9.689  0.1604  0.3003 -0.5887
13542SOL    HW145082   5.373   7.286   9.693  3.0918  1.0046 -1.2988
13542SOL    HW245083   5.338   7.405   9.781  0.5206 -0.3555 -0.3581
13543SOL     OW45084   0.628   8.668   3.500  0.1180 -0.1508  0.5014
13543SOL    HW145085   0.671   8.742   3.457 -0.8184  0.3299  0.3509
13543SOL    HW245086   0.672   8.591   3.467 -0.2609  0.2334 -0.9677
13544SOL     OW45087   5.859   3.796   0.148 -0.6918  0.5175 -0.2383
13544SOL    HW145088   5.904   3.724   0.193  1.3462  2.1779  0.5271
13544SOL    HW245089   5.894   3.793   0.059 -0.7388  0.4444 -0.2541
13545SOL     OW45090   1.350   0.042   2.354  0.3369 -0.1283  0.0849
13545SOL    HW145091   1.381   0.021   2.442 -0.6337  1.3272  0.8129
13545SOL    HW245092   1.428   0.068   2.306  0.8085 -0.5083  0.6360
13546SOL     OW45093   5.269   1.094   1.704  0.4066  0.0598  0.2329
13546SOL    HW145094   5.284   1.052   1.620 -2.8995 -0.8197 -0.0913
13546SOL    HW245095   5.318   1.041   1.767  0.7565 -0.9246 -0.8429
13547SOL     OW45096   5.603   0.057   8.438  0.2152  0.2148 -0.7163
13547SOL    HW145097   5.628   0.149   8.434  0.6341  0.1560  0.2381
13547SOL    HW245098   5.535   0.053   8.505  2.3000 -0.5620  1.5395
13548SOL     OW45099   1.085   7.596   1.147  0.2467 -0.0122  0.7842
13548SOL    HW145100   1.167   7.575   1.193  1.3476  0.6753 -0.7733
13548SOL    HW245101   1.029   7.520   1.162  1.4257 -0.8094  1.3078
13549SOL     OW45102   2.281   7.170   7.294 -0.3755 -0.0315  0.1125
13549SOL    HW145103   2.204   7.223   7.316  0.3222  1.6959 -1.3356
13549SOL    HW245104   2.339   7.180   7.370 -0.7074  0.3628  0.3197
13550SOL     OW45105   8.850   9.914   0.006 -0.1305  0.3561  0.2515
13550SOL    HW145106   8.781   9.975  -0.018  1.7924  2.0167 -1.4391
13550SOL    HW245107   8.924   9.969   0.031  1.2798 -1.3009 -0.0650
13551SOL     OW45108   5.041   4.399   5.746  0.2058 -0.3970 -0.0370
13551SOL    HW145109   5.064   4.456   5.819  0.8772  0.5449 -0.9633
13551SOL    HW245110   4.984   4.452   5.691  0.1373 -0.9168 -0.4730
13552SOL     OW45111   3.083   3.632   3.887  0.0183 -0.5417  0.0866
13552SOL    HW145112   3.019   3.563   3.907 -1.4175  0.3669 -1.0811
13552SOL    HW245113   3.084   3.686   3.966 -0.9821 -0.3598 -0.0017
13553SOL     OW45114   0.125   8.836   6.160 -0.6484  0.0677  0.0136
13553SOL    HW145115   0.199   8.791   6.118 -0.6943 -0.5913  0.6229
13553SOL    HW245116   0.165   8.903   6.215 -0.5749  0.7263 -0.8157
13554SOL     OW45117   3.453   2.970   4.829 -0.1621 -0.3080  0.3360
13554SOL    HW145118   3.467   2.877   4.811 -1.5730 -1.2157  3.3553
13554SOL    HW245119   3.542   3.004   4.843  0.2634 -1.6064  0.9554
13555SOL     OW45120   2.847   9.082   6.401  0.0906  0.3252  0.3865
13555SOL    HW145121   2.810   9.026   6.332  0.3452  0.4943  0.1119
13555SOL    HW245122   2.905   9.023   6.449 -1.3061 -0.2196  1.4678
13556SOL     OW45123   7.349  10.860   8.197 -0.0417  0.1034 -0.0446
13556SOL    HW145124   7.313  10.857   8.109 -1.0883  1.5589  0.2813
13556SOL    HW245125   7.412  10.932   8.195 -1.9756  1.9553  0.9711
13557SOL     OW45126   0.853   5.593   2.556 -0.4378  0.1496  0.3152
13557SOL    HW145127   0.858   5.529   2.485 -1.8376  1.5353 -1.0982
13557SOL    HW245128   0.928   5.573   2.611  1.1613 -0.4794 -1.9685
13558SOL     OW45129   0.520   9.699   9.347  0.3657  0.2682  0.1906
13558SOL    HW145130   0.448   9.750   9.384 -0.3495 -0.5140 -0.1212
13558SOL    HW245131   0.525   9.620   9.401  1.0783  0.3697  0.2905
13559SOL     OW45132   9.436   7.373   7.271 -0.2082  0.2405  0.7600
13559SOL    HW145133   9.393   7.458   7.278 -0.8408  0.4406 -3.1395
13559SOL    HW245134   9.368   7.309   7.292 -1.7365  0.6485 -2.3776
13560SOL     OW45135   7.397   3.118   4.343  0.2625 -0.9467  0.4572
13560SOL    HW145136   7.473   3.121   4.401  0.7661 -2.6582 -0.0522
13560SOL    HW245137   7.401   3.031   4.302 -0.2708  0.0355 -1.8573
13561SOL     OW45138   4.720   8.149   2.448  0.1632  0.4852 -0.0025
13561SOL    HW145139   4.672   8.081   2.496 -0.7744  1.6863  0.8410
13561SOL    HW245140   4.662   8.225   2.450  1.4124  1.4899 -0.4145
13562SOL     OW45141   4.994   5.825   8.780  0.2099  0.2273 -0.1182
13562SOL    HW145142   5.013   5.807   8.687  0.2552 -0.4573  0.0231
13562SOL    HW245143   5.030   5.913   8.794  0.6353  0.1426 -0.6270
13563SOL     OW45144   0.378   0.738   7.245 -0.4878  0.0937  0.1133
13563SOL    HW145145   0.359   0.828   7.272  0.1175 -0.2232  1.7325
13563SOL    HW245146   0.333   0.683   7.309 -0.6490 -0.7631 -0.7123
13564SOL     OW45147   4.951   0.770   0.080  0.1158  0.3467 -0.2744
13564SOL    HW145148   4.873   0.786   0.133 -0.9688  0.2207 -1.7441
13564SOL    HW245149   4.932   0.689   0.033 -0.7291  2.3216 -3.7067
13565SOL     OW45150   2.906   2.808   2.382 -0.0344  0.3876 -0.5858
13565SOL    HW145151   2.827   2.825   2.432  1.5161 -0.4291  2.3927
13565SOL    HW245152   2.879   2.815   2.291 -3.7355 -0.7852  0.2409
13566SOL     OW45153   7.254   6.952   1.801  0.1512  0.3686 -0.0565
13566SOL    HW145154   7.313   6.966   1.875 -0.1425  0.3067  0.1935
13566SOL    HW245155   7.309   6.912   1.734  0.0795 -1.0598  0.7009
13567SOL     OW45156   9.728   4.873   0.692 -0.5643 -0.1423 -0.0577
13567SOL    HW145157   9.777   4.791   0.687 -0.0307  0.1999 -0.4667
13567SOL    HW245158   9.719   4.890   0.786  1.2173  0.4479  0.0367
13568SOL     OW45159   5.185   3.236   5.281 -0.2169  0.0769 -0.1627
13568SOL    HW145160   5.179   3.331   5.271 -0.7540 -0.0060 -0.7077
13568SOL    HW245161   5.244   3.208   5.211 -0.9291 -0.0972 -0.7124
13569SOL     OW45162   4.112   7.299   4.757 -0.2353  0.1195  0.3316
13569SOL    HW145163   4.126   7.291   4.663  1.1395  1.4411  0.3859
13569SOL    HW245164   4.154   7.222   4.795  1.1995  0.7155 -0.0027
13570SOL     OW45165   1.309   2.850   0.671 -0.1751 -0.2933  0.0800
13570SOL    HW145166   1.368   2.853   0.596  1.3480  0.2684  1.2426
13570SOL    HW245167   1.236   2.794   0.643 -0.0435  0.5493 -2.0544
13571SOL     OW45168   6.891   0.394   3.864  0.3038 -0.0608  0.1115
13571SOL    HW145169   6.898   0.448   3.943 -0.5102  0.4985 -0.1915
13571SOL    HW245170   6.819   0.334   3.883 -2.0301  2.0769 -1.3158
13572SOL     OW45171   2.267   5.502   2.339  0.0387  0.3518 -0.2231
13572SOL    HW145172   2.290   5.565   2.271 -3.8843 -0.7537 -2.9162
13572SOL    HW245173   2.215   5.552   2.402  0.6293  0.6431  0.0405
13573SOL     OW45174   9.716   9.786   5.968 -0.0382  0.0770 -0.4250
13573SOL    HW145175   9.660   9.834   5.908  1.3771 -0.0370 -1.9037
13573SOL    HW245176   9.656   9.731   6.018 -1.5453  2.2338  0.2876
13574SOL     OW45177   3.211   7.931   1.085 -0.5042  0.6952 -0.2783
13574SOL    HW145178   3.212   7.913   1.179 -0.6042  0.2526 -0.3601
13574SOL    HW245179   3.168   8.016   1.077 -2.0377 -0.0260 -0.0480
13575SOL     OW45180   9.206   4.124   9.693  0.5339  0.1951  0.2644
13575SOL    HW145181   9.299   4.126   9.669  0.5687  1.6100  0.4405
13575SOL    HW245182   9.161   4.094   9.614  1.1443 -0.7171  0.2464
13576SOL     OW45183   5.278  10.779   9.725 -0.1476 -0.2115  0.2294
13576SOL    HW145184   5.278  10.852   9.662  0.1595 -0.2769  0.1554
13576SOL    HW245185   5.364  10.783   9.767  0.2232 -1.0840 -0.4168
13577SOL     OW45186   9.102   4.361   3.947  0.3554  0.2370  0.1598
13577SOL    HW145187   9.087   4.307   4.025 -0.0439  0.1779  0.0389
13577SOL    HW245188   9.174   4.419   3.973  0.8225 -0.3800  0.2725
13578SOL     OW45189   4.233   2.852   4.545  0.3496 -0.3274 -0.6162
13578SOL    HW145190   4.300   2.916   4.522 -0.9878  1.0971 -0.7773
13578SOL    HW245191   4.277   2.789   4.601  1.8617  0.4214 -0.9223
13579SOL     OW45192   8.033   4.894   5.235  0.1604 -0.4966 -0.3365
13579SOL    HW145193   8.107   4.956   5.234 -0.5676  0.4137  0.3444
13579SOL    HW245194   8.020   4.871   5.144  0.2977  0.5564 -0.6366
13580SOL     OW45195   9.089   4.305   6.265  0.3859  0.1045  0.3241
13580SOL    HW145196   9.035   4.384   6.260  2.6514  2.0493  3.3512
13580SOL    HW245197   9.060   4.261   6.345  1.8889  0.1412  0.9242
13581SOL     OW45198  10.556   8.623   8.194 -0.5340  0.3399 -0.3865
13581SOL    HW145199  10.465   8.645   8.211 -0.7376 -0.1081 -0.8575
13581SOL    HW245200  10.552   8.544   8.140  0.1039  1.1019 -1.5866
13582SOL     OW45201   1.599   1.068   8.537  0.4055 -0.2226 -0.6143
13582SOL    HW145202   1.640   1.153   8.555  0.2074  0.0466 -1.3626
13582SOL    HW245203   1.667   1.004   8.557  0.0383 -0.0038  1.5160
13583SOL     OW45204   2.367   1.946   8.737  0.6332 -0.0134  0.3860
13583SOL    HW145205   2.310   2.022   8.723  0.4714  0.0186  1.1246
13583SOL    HW245206   2.348   1.920   8.828  0.3815 -1.1900  0.0095
13584SOL     OW45207   8.651   9.934   7.010  0.1129  0.2438 -0.1561
13584SOL    HW145208   8.580   9.919   7.072  0.9141 -0.2633  0.6639
13584SOL    HW245209   8.638   9.868   6.941 -0.1116  0.0501  0.0723
13585SOL     OW45210   2.556   2.849   1.642 -0.2150  0.0342  0.2546
13585SOL    HW145211   2.475   2.866   1.594 -0.4085  1.4952  1.0376
13585SOL    HW245212   2.625   2.874   1.582 -0.3148 -1.2552 -0.4326
13586SOL     OW45213   4.509   1.852   5.856 -0.0601 -0.3641 -0.4154
13586SOL    HW145214   4.460   1.770   5.867  2.1906 -1.9432 -1.4309
13586SOL    HW245215   4.558   1.839   5.775  3.3610  0.3602  1.3693
13587SOL     OW45216   9.904   6.371   1.396 -0.5055 -0.0367  0.1180
13587SOL    HW145217   9.894   6.460   1.431  0.1678 -0.4694  1.4642
13587SOL    HW245218   9.984   6.338   1.437 -1.4855 -1.7501  0.7295
13588SOL     OW45219   9.170   6.919   7.757 -0.4793  0.0210  0.6249
13588SOL    HW145220   9.146   6.884   7.842 -1.3826 -1.9063 -0.3765
13588SOL    HW245221   9.265   6.931   7.762 -0.5076 -0.1804  1.8370
13589SOL     OW45222   1.336   2.371   4.798  0.0080 -0.1047 -0.0625
13589SOL    HW145223   1.309   2.350   4.888 -1.4947  4.1798  0.6894
13589SOL    HW245224   1.302   2.298   4.746 -1.8943 -1.1732  2.4479
13590SOL     OW45225   1.461   7.430   6.934  0.2377 -0.3630  0.0434
13590SOL    HW145226   1.501   7.513   6.961 -0.0138  0.1593 -1.1227
13590SOL    HW245227   1.368   7.440   6.955  0.1685 -0.2531 -0.3109
13591SOL     OW45228   2.691   1.800   6.257  0.7660 -0.4385 -0.6154
13591SOL    HW145229   2.698   1.851   6.338 -0.4604  1.2684 -1.5316
13591SOL    HW245230   2.611   1.831   6.215  1.9642 -0.3972 -3.0694
13592SOL     OW45231   0.605   3.242   4.580  0.6039  0.0185  0.0070
13592SOL    HW145232   0.633   3.151   4.571  0.5895 -0.2691  2.2841
13592SOL    HW245233   0.510   3.238   4.586  0.6442  0.1197  0.7360
13593SOL     OW45234  10.521   4.812   5.477  0.5040 -0.1159  0.2111
13593SOL    HW145235  10.572   4.766   5.409 -0.0745  0.8639 -0.9188
13593SOL    HW245236  10.587   4.838   5.541  0.9160 -2.0504  0.6404
13594SOL     OW45237   8.989  10.985   5.265 -0.1673  0.5320  0.3396
13594SOL    HW145238   8.971  10.962   5.356 -0.2723  1.2503  0.5079
13594SOL    HW245239   9.084  10.977   5.257 -0.3577 -1.7494 -0.1285
13595SOL     OW45240  10.004  10.424   3.276  0.5960  0.4061  0.3299
13595SOL    HW145241   9.994  10.494   3.211 -1.8357 -0.1837 -0.0127
13595SOL    HW245242   9.919  10.381   3.279  1.0918 -0.5827  2.8114
13596SOL     OW45243   8.504  10.934   2.696  0.0854 -0.1430  0.1059
13596SOL    HW145244   8.447  10.937   2.619  0.9239  0.6190 -0.5023
13596SOL    HW245245   8.492  10.846   2.731  0.3507 -0.8107 -1.4029
13597SOL     OW45246   5.334   9.354   3.572 -0.4024  0.3738 -0.0185
13597SOL    HW145247   5.345   9.355   3.667  0.1684 -1.5660 -0.0249
13597SOL    HW245248   5.246   9.316   3.559  0.8171 -2.6443 -0.2469
13598SOL     OW45249   4.224   5.008   5.858 -0.3032 -0.2566 -0.1205
13598SOL    HW145250   4.303   5.034   5.904 -2.3038  1.4670  2.6859
13598SOL    HW245251   4.203   4.922   5.894 -0.6679  0.1056  0.5478
13599SOL     OW45252   3.801   8.129   0.521 -0.1845  0.4409 -0.4330
13599SOL    HW145253   3.731   8.063   0.521  0.0851  0.1521 -0.7921
13599SOL    HW245254   3.754   8.213   0.516 -0.5118  0.2509 -0.6585
13600SOL     OW45255   1.161   9.886   4.114 -0.3050 -0.6777 -0.1044
13600SOL    HW145256   1.148   9.794   4.090  2.1397 -1.3856  1.0024
13600SOL    HW245257   1.175   9.884   4.208 -2.8292  1.2229  0.4177
13601SOL     OW45258   7.739   9.526   0.529 -0.0160 -0.2868  0.3252
13601SOL    HW145259   7.749   9.538   0.624  0.1153  0.9859  0.1612
13601SOL    HW245260   7.782   9.442   0.511  0.8332 -0.0701  1.2450
13602SOL     OW45261   7.870   2.547   7.835 -0.2692  0.2658  0.1905
13602SOL    HW145262   7.854   2.454   7.821  1.1833  0.2340 -1.7403
13602SOL    HW245263   7.946   2.550   7.893 -0.7300  0.2587  0.7949
13603SOL     OW45264  10.380   8.887   2.567  0.4211 -0.1690  0.1951
13603SOL    HW145265  10.349   8.943   2.638 -1.3919 -1.1986  0.2865
13603SOL    HW245266  10.428   8.946   2.509 -1.3762  1.5011  0.3058
13604SOL     OW45267   5.531   5.189   6.756 -0.1835  0.1990 -0.2787
13604SOL    HW145268   5.596   5.227   6.697 -0.0157  0.1156 -0.1453
13604SOL    HW245269   5.557   5.217   6.843  0.0680 -0.4070 -0.1551
13605SOL     OW45270   9.083   4.575   9.188  0.7091  0.2272  0.5270
13605SOL    HW145271   9.159   4.621   9.224 -0.6463  2.2788  0.9203
13605SOL    HW245272   9.037   4.542   9.265  1.1397 -0.9926  0.2903
13606SOL     OW45273   6.402   7.519   9.150 -0.0185  0.2635  0.4049
13606SOL    HW145274   6.357   7.601   9.131 -1.2757 -0.5968 -0.5610
13606SOL    HW245275   6.495   7.542   9.154 -0.3162  1.6623 -0.2489
13607SOL     OW45276   8.391   3.823   9.462  0.0312  0.2649 -0.6369
13607SOL    HW145277   8.420   3.748   9.409 -1.7245 -0.2767 -0.9166
13607SOL    HW245278   8.344   3.784   9.536  0.6159  1.0644  0.1749
13608SOL     OW45279   1.354   8.165   7.958 -0.5292 -0.1269 -0.2423
13608SOL    HW145280   1.280   8.179   7.899  0.2284 -0.2091 -1.2323
13608SOL    HW245281   1.430   8.163   7.901  0.7445  3.8216  1.0495
13609SOL     OW45282  10.165   5.708   9.712  0.5812 -0.4726 -0.2353
13609SOL    HW145283  10.146   5.643   9.644 -0.3785 -1.3793  0.8640
13609SOL    HW245284  10.157   5.659   9.794 -2.0523  1.4201  0.7608
13610SOL     OW45285   5.160   0.139   1.225  0.0626 -0.1072 -0.1326
13610SOL    HW145286   5.124   0.161   1.311  0.3668 -2.0616  0.5388
13610SOL    HW245287   5.245   0.183   1.222  0.0644 -0.0624  0.5883
13611SOL     OW45288   3.328   1.814   1.887 -0.1546  0.4764 -0.0434
13611SOL    HW145289   3.419   1.823   1.916  0.4241 -1.7895 -0.9118
13611SOL    HW245290   3.285   1.766   1.957 -0.7484  1.5892  0.3884
13612SOL     OW45291   1.482   1.444   5.583 -0.1413  0.4530  0.3328
13612SOL    HW145292   1.516   1.359   5.556 -1.5521  0.6124 -2.2366
13612SOL    HW245293   1.507   1.504   5.512 -4.3846  0.8464 -1.0999
13613SOL     OW45294  10.766   6.044   5.529 -0.2317 -0.2194 -0.1154
13613SOL    HW145295  10.708   6.079   5.462  0.5217  3.1522  0.8393
13613SOL    HW245296  10.780   6.116   5.590  4.0534 -1.1609  0.3307
13614SOL     OW45297   2.955   4.237   2.756 -0.4652 -0.5706  0.1784
13614SOL    HW145298   3.026   4.301   2.762 -0.4207 -0.7081  1.2733
13614SOL    HW245299   2.981   4.179   2.685  0.5615 -0.6778  0.6322
13615SOL     OW45300   2.120  10.055   2.268  0.4911  0.3448  0.4410
13615SOL    HW145301   2.187  10.009   2.217  0.0144  0.4944 -0.3440
13615SOL    HW245302   2.142  10.038   2.359  1.3273  0.0105  0.1781
13616SOL     OW45303   0.243   5.824   3.683  0.7591  0.1440  0.0669
13616SOL    HW145304   0.332   5.829   3.718  0.7261  0.7402  0.0839
13616SOL    HW245305   0.197   5.765   3.742  1.1658 -0.2392  0.0054
13617SOL     OW45306   8.215   3.086   7.541 -0.0722  0.5920  0.4878
13617SOL    HW145307   8.152   3.051   7.605  0.1345 -1.8100 -0.5250
13617SOL    HW245308   8.160   3.129   7.476 -0.4766  0.7271  0.9058
13618SOL     OW45309   8.238   7.401   2.476  0.4251 -0.3782 -0.3065
13618SOL    HW145310   8.329   7.400   2.446  0.4412  1.3643 -0.4100
13618SOL    HW245311   8.222   7.492   2.501 -1.7046 -0.3225 -1.5899
13619SOL     OW45312   7.131   0.750   1.997 -0.2377 -0.3189  0.1924
13619SOL    HW145313   7.107   0.659   1.980 -0.5454 -0.1372 -0.4017
13619SOL    HW245314   7.096   0.769   2.084 -0.6873 -0.5942  0.0725
13620SOL     OW45315   7.240   5.184   2.031  0.7851  0.0699  0.1880
13620SOL    HW145316   7.174   5.162   1.965 -0.2366 -0.1071  1.2417
13620SOL    HW245317   7.190   5.218   2.105  1.9917  1.3755  0.4541
13621SOL     OW45318  10.894   5.511   6.894 -0.1677  0.4015  0.0962
13621SOL    HW145319  10.884   5.582   6.831 -0.9525 -0.4784 -0.8257
13621SOL    HW245320  10.817   5.518   6.950  0.5543  1.2110  1.0006
13622SOL     OW45321   4.471  10.766   6.214 -0.2037 -0.1054  0.0194
13622SOL    HW145322   4.424  10.686   6.238  0.0906 -0.0888  0.6963
13622SOL    HW245323   4.533  10.739   6.146 -0.4709 -0.3402 -0.1315
13623SOL     OW45324   5.346   2.019   9.251 -0.2508  0.2948 -0.3265
13623SOL    HW145325   5.304   2.085   9.307 -0.5420 -2.2201  2.6995
13623SOL    HW245326   5.439   2.039   9.257 -0.3449  0.5792  0.3648
13624SOL     OW45327   1.791   8.289   4.812  0.0839  0.1885  0.5386
13624SOL    HW145328   1.885   8.279   4.827  0.7524  0.8025 -2.6299
13624SOL    HW245329   1.775   8.383   4.822  0.5835  0.6452 -2.2052
13625SOL     OW45330   6.927  10.765   4.181 -0.2473  0.0020 -0.4567
13625SOL    HW145331   6.957  10.674   4.177  1.7770  0.6406 -1.0942
13625SOL    HW245332   6.887  10.773   4.268  0.3137 -1.2885 -0.0502
13626SOL     OW45333   5.632  10.704  10.984  0.6734 -0.0096  0.4298
13626SOL    HW145334   5.618  10.642  11.055  0.0023 -1.9063 -1.2530
13626SOL    HW245335   5.716  10.679  10.946  0.5096  0.2288 -0.1084
13627SOL     OW45336   5.542   3.718   7.789  0.2241 -0.2436  0.1546
13627SOL    HW145337   5.497   3.639   7.759  0.8126 -0.5673  0.0968
13627SOL    HW245338   5.578   3.693   7.874  0.3309 -0.0094  0.1774
13628SOL     OW45339   4.380   4.125   8.263 -0.0756  0.0868  0.0062
13628SOL    HW145340   4.391   4.030   8.267  3.8024  0.2202 -2.3540
13628SOL    HW245341   4.438   4.159   8.332 -0.4803  0.7758  0.0171
13629SOL     OW45342   7.697   3.499   5.939  0.0098  0.2991 -0.4458
13629SOL    HW145343   7.648   3.420   5.964 -0.4494  0.9850  0.9650
13629SOL    HW245344   7.704   3.494   5.844  2.7732 -3.0719 -0.2781
13630SOL     OW45345  10.145   9.237   2.455  0.5698 -0.4543 -0.0478
13630SOL    HW145346  10.160   9.163   2.513  0.7218 -0.1773  0.2674
13630SOL    HW245347  10.214   9.300   2.477  1.9023 -1.1645 -1.9087
13631SOL     OW45348   3.528   6.487   5.909  0.6418 -0.1855 -0.6467
13631SOL    HW145349   3.504   6.443   5.827  0.8229 -1.6176  0.0431
13631SOL    HW245350   3.444   6.513   5.947  0.4887 -0.5123 -0.7556
13632SOL     OW45351   6.499   5.367   8.380 -0.6732  0.5393  0.4980
13632SOL    HW145352   6.562   5.427   8.339 -0.6919 -0.3670 -0.9296
13632SOL    HW245353   6.424   5.366   8.320 -0.1525 -1.8360 -0.2408
13633SOL     OW45354   1.408   4.121   9.351  0.3908  0.3938  0.0795
13633SOL    HW145355   1.361   4.047   9.313  1.4830  0.1439 -0.8175
13633SOL    HW245356   1.393   4.193   9.290  0.6246  0.4930  0.1390
13634SOL     OW45357  10.163   3.977   6.702  0.2267  0.0435  0.0114
13634SOL    HW145358  10.151   4.052   6.759  0.1902  1.5957 -1.9195
13634SOL    HW245359  10.227   4.007   6.636 -0.5412 -1.2497 -1.3904
13635SOL     OW45360   1.433   8.126   5.730 -0.1149 -0.1762 -0.4252
13635SOL    HW145361   1.441   8.176   5.649  0.2898 -0.4854 -0.5790
13635SOL    HW245362   1.380   8.050   5.705 -3.1069  1.4889  0.4143
13636SOL     OW45363   6.557   9.364   9.008  0.2806  0.0865  0.2935
13636SOL    HW145364   6.552   9.273   8.979 -0.5123 -0.0243  0.7568
13636SOL    HW245365   6.649   9.387   8.997  0.0160  0.1939 -2.7510
13637SOL     OW45366   3.186   4.772   6.339  0.6141 -0.7369 -0.1097
13637SOL    HW145367   3.097   4.761   6.304  0.7896 -0.1799 -0.7569
13637SOL    HW245368   3.179   4.745   6.430  0.0653 -1.9041 -0.4782
13638SOL     OW45369   8.840   5.963   8.496 -0.3556 -0.1454 -0.0719
13638SOL    HW145370   8.816   5.896   8.432 -0.4330  0.3865 -0.6051
13638SOL    HW245371   8.756   5.995   8.530 -0.3317 -0.0624 -0.0890
13639SOL     OW45372   5.883   2.264   6.397  0.5638 -0.4440  0.1696
13639SOL    HW145373   5.801   2.226   6.431  0.7334 -1.0362 -0.0750
13639SOL    HW245374   5.941   2.266   6.472  0.2539  0.1847  0.3980
13640SOL     OW45375   7.021   7.599   1.568 -0.4969 -0.0315 -0.0932
13640SOL    HW145376   6.950   7.574   1.627 -1.2008  1.0170 -0.4578
13640SOL    HW245377   7.012   7.541   1.493 -0.6392 -0.2580  0.0978
13641SOL     OW45378  10.059   3.285   2.939 -0.2438 -0.0023 -0.0699
13641SOL    HW145379  10.136   3.238   2.972  0.6323  1.5280  0.1625
13641SOL    HW245380  10.082   3.377   2.947 -1.7911  0.4815 -0.7959
13642SOL     OW45381   3.842   3.155   8.342 -0.7143  0.0171 -0.2629
13642SOL    HW145382   3.887   3.137   8.424  1.3696 -1.0973 -1.5609
13642SOL    HW245383   3.847   3.250   8.332  1.0279 -0.0286 -0.1323
13643SOL     OW45384   0.669   6.736   8.598  0.0614 -0.3535 -0.1719
13643SOL    HW145385   0.739   6.713   8.659  0.8250  1.0337 -0.4688
13643SOL    HW245386   0.593   6.687   8.628  0.6589 -0.3978  1.3542
13644SOL     OW45387   3.959   3.874   6.552  0.2875  0.9420 -0.0176
13644SOL    HW145388   3.895   3.807   6.579  2.6535 -1.6097 -0.2665
13644SOL    HW245389   3.947   3.880   6.457  0.2640  0.6203 -0.0378
13645SOL     OW45390   4.606   7.376   1.387 -0.0701  1.1872 -0.3927
13645SOL    HW145391   4.697   7.350   1.402 -0.4069 -0.7025 -1.2947
13645SOL    HW245392   4.569   7.381   1.475  0.6133  0.7664 -0.0636
13646SOL     OW45393   7.118  10.726   1.809 -0.9306 -0.3499 -0.1470
13646SOL    HW145394   7.213  10.732   1.807 -0.8036 -1.3212  1.2168
13646SOL    HW245395   7.101  10.638   1.843 -2.3265 -0.5408 -1.2613
13647SOL     OW45396   4.151   6.688   7.880  0.4620  0.3345  0.7490
13647SOL    HW145397   4.189   6.727   7.802 -1.5419  0.2998 -0.3097
13647SOL    HW245398   4.097   6.616   7.847  0.2814 -0.2533  2.2475
13648SOL     OW45399   5.308   0.578   8.738  0.2988  0.4546 -0.5658
13648SOL    HW145400   5.265   0.595   8.822 -0.0869  0.3109 -0.7304
13648SOL    HW245401   5.384   0.637   8.738 -0.3068  1.2642 -0.5867
13649SOL     OW45402   5.287   2.335   2.406  0.6726 -0.3333  0.0408
13649SOL    HW145403   5.227   2.274   2.363  0.4714 -1.3212  1.6355
13649SOL    HW245404   5.331   2.380   2.334 -1.5726  0.0641 -1.1885
13650SOL     OW45405   6.493   2.190   0.882  0.0121 -0.3342  0.0073
13650SOL    HW145406   6.433   2.134   0.834 -0.4337 -1.4664  1.7848
13650SOL    HW245407   6.576   2.143   0.882 -0.0892 -0.5231  0.6372
13651SOL     OW45408   2.619   2.811   3.016 -0.3573 -0.1699 -0.6333
13651SOL    HW145409   2.596   2.847   2.930  0.0344 -0.9257 -1.0646
13651SOL    HW245410   2.580   2.723   3.017  1.1509 -0.8789 -0.7732
13652SOL     OW45411   1.935   0.795   4.198  0.2163 -0.0380 -0.6145
13652SOL    HW145412   1.847   0.825   4.221  0.7728  1.4934 -0.4108
13652SOL    HW245413   1.950   0.721   4.256  0.6045  2.1692  2.3148
13653SOL     OW45414   8.392   1.835   4.717 -0.4904 -0.1997  0.0069
13653SOL    HW145415   8.316   1.880   4.754 -0.6802 -0.1983 -0.3842
13653SOL    HW245416   8.357   1.786   4.642 -0.2679 -0.8968  0.3459
13654SOL     OW45417   2.179   5.472   6.392  0.0545 -1.2273 -0.1114
13654SOL    HW145418   2.237   5.546   6.371 -0.2585 -0.5385  1.3269
13654SOL    HW245419   2.194   5.456   6.485  0.9081 -3.7040 -0.5837
13655SOL     OW45420   1.340   2.319   5.075  0.8802 -0.3533  0.0632
13655SOL    HW145421   1.262   2.272   5.050  0.4085  0.5326 -0.1699
13655SOL    HW245422   1.413   2.266   5.041  0.4363 -1.5752  0.9380
13656SOL     OW45423   7.908   7.684   6.437  0.5897  0.6853 -0.7182
13656SOL    HW145424   7.919   7.658   6.345 -1.1246 -0.2866 -0.7054
13656SOL    HW245425   7.886   7.602   6.482  1.5410  1.1368  0.5961
13657SOL     OW45426  10.890   8.981   1.735  0.1195  0.2528  0.4932
13657SOL    HW145427  10.908   8.974   1.641 -0.9509  0.7587  0.2353
13657SOL    HW245428  10.923   9.067   1.760 -2.9954  1.8285 -0.2941
13658SOL     OW45429   5.936   7.670   2.727 -0.0937  0.5063 -0.3391
13658SOL    HW145430   5.908   7.751   2.771 -0.3366  0.9097 -1.2010
13658SOL    HW245431   6.012   7.697   2.675  0.2008  0.0362 -0.1517
13659SOL     OW45432   5.797   5.892   7.553 -0.4399 -0.2960  0.1922
13659SOL    HW145433   5.832   5.803   7.553 -2.0818 -0.9796  0.4587
13659SOL    HW245434   5.758   5.903   7.467  0.7996  0.6351 -0.2797
13660SOL     OW45435   7.908   4.399  10.819 -0.1130 -0.4764 -0.3248
13660SOL    HW145436   7.846   4.464  10.853 -0.5841 -0.1999 -1.6530
13660SOL    HW245437   7.937   4.435  10.736  4.3775  1.0069  1.6030
13661SOL     OW45438   6.065   1.748   8.985  0.5177 -0.3404 -0.5181
13661SOL    HW145439   6.043   1.670   8.934 -0.9435  1.1884 -2.3666
13661SOL    HW245440   6.145   1.724   9.032 -0.0267 -3.0078 -0.8028
13662SOL     OW45441   3.941   1.175   5.511  0.0628  0.0734 -0.2598
13662SOL    HW145442   3.934   1.270   5.518  0.1944  0.2605 -2.0666
13662SOL    HW245443   4.030   1.159   5.481  0.9486 -0.8587  2.5576
13663SOL     OW45444   9.781   7.324  10.707  0.0828  0.0103  0.3697
13663SOL    HW145445   9.751   7.373  10.783 -1.1031  0.3718 -0.3059
13663SOL    HW245446   9.846   7.263  10.742 -0.0142  0.5612  1.5667
13664SOL     OW45447   2.708   1.272   0.080  0.1065  0.1758 -0.2099
13664SOL    HW145448   2.657   1.221   0.142 -1.3512 -0.1653 -1.6426
13664SOL    HW245449   2.669   1.359   0.082  1.1211  0.6346  0.5388
13665SOL     OW45450   6.184   5.654   2.754  0.0654  0.4258  0.6529
13665SOL    HW145451   6.103   5.608   2.734  0.1817  0.5285 -0.0917
13665SOL    HW245452   6.167   5.697   2.838 -0.9725  1.1863  0.0784
13666SOL     OW45453   5.568   6.242   4.543 -0.4098  0.0132  0.1595
13666SOL    HW145454   5.562   6.255   4.638 -0.6578  0.4796  0.0830
13666SOL    HW245455   5.628   6.311   4.514 -0.0708 -0.3403  0.0206
13667SOL     OW45456   7.197   2.962   6.244  0.0532  0.0126 -0.0219
13667SOL    HW145457   7.177   3.018   6.168 -0.8124  2.2898  1.7518
13667SOL    HW245458   7.253   3.017   6.299 -0.4486 -1.0648  1.6158
13668SOL     OW45459   6.088   2.576  10.554 -0.1229 -0.8345 -0.3882
13668SOL    HW145460   6.135   2.646  10.508  1.7592 -2.1175 -0.5174
13668SOL    HW245461   6.006   2.567  10.506  0.6844 -0.4125 -1.9234
13669SOL     OW45462   2.214   4.276   3.517 -0.2081  0.1947 -0.1523
13669SOL    HW145463   2.197   4.216   3.589 -2.3022  1.2251  0.2797
13669SOL    HW245464   2.287   4.330   3.546  0.5173 -0.9433  0.1832
13670SOL     OW45465   6.574   2.090   7.779  0.1996 -0.0031 -0.0216
13670SOL    HW145466   6.593   2.122   7.691  0.1297  0.2029  0.0352
13670SOL    HW245467   6.659   2.090   7.824  0.2965 -0.4887 -0.2100
13671SOL     OW45468   9.645   8.169   0.094 -0.0958 -0.3737  0.0618
13671SOL    HW145469   9.652   8.250   0.144  3.8896 -0.7586  0.4450
13671SOL    HW245470   9.551   8.159   0.077 -1.0772  2.5183  2.8528
13672SOL     OW45471   3.542   1.227   2.013  0.0308 -0.2923 -0.0079
13672SOL    HW145472   3.447   1.227   2.023  0.0804 -0.4845  0.5159
13672SOL    HW245473   3.574   1.188   2.095  0.4649 -2.8674 -1.3061
13673SOL     OW45474   5.129   8.797   5.117 -0.0569 -0.4336  0.6811
13673SOL    HW145475   5.106   8.760   5.203  3.0231  1.1628  2.3596
13673SOL    HW245476   5.140   8.891   5.135  2.2966 -0.3222 -1.0656
13674SOL     OW45477   6.739   6.833   3.113  0.0321 -0.0362 -0.1395
13674SOL    HW145478   6.779   6.832   3.026  0.7400  1.2778  0.1518
13674SOL    HW245479   6.774   6.911   3.155 -1.8725  0.4827  0.5985
13675SOL     OW45480   3.357   6.358   3.638 -0.2226 -0.1975  0.2634
13675SOL    HW145481   3.425   6.303   3.600 -1.3663 -0.9615 -0.7365
13675SOL    HW245482   3.275   6.315   3.616 -1.2748  2.5094 -1.7010
13676SOL     OW45483   5.567   3.483   7.335  0.1740 -0.0440 -0.2330
13676SOL    HW145484   5.539   3.491   7.244  1.4399  0.9155 -0.5688
13676SOL    HW245485   5.486   3.468   7.384 -0.3535 -2.2987 -1.6703
13677SOL     OW45486   1.386   8.760  10.030 -0.0923 -0.0536 -0.5050
13677SOL    HW145487   1.335   8.764  10.111  2.2473  1.4166  1.0303
13677SOL    HW245488   1.333   8.806   9.965 -2.0350 -1.2966  0.1365
13678SOL     OW45489   7.535   9.047   5.135 -0.3723 -0.4642  0.5172
13678SOL    HW145490   7.440   9.043   5.133 -0.4084  0.2658 -1.1368
13678SOL    HW245491   7.555   9.136   5.164 -0.3615  1.1635 -3.8116
13679SOL     OW45492   3.763   3.252   2.944  0.2752  0.1565  0.0264
13679SOL    HW145493   3.824   3.297   2.885  0.9995 -1.8384 -0.8586
13679SOL    HW245494   3.677   3.266   2.904  0.7461 -1.1415 -1.5820
13680SOL     OW45495   7.675   2.766   8.322 -0.2374  0.4421  0.4444
13680SOL    HW145496   7.726   2.762   8.241 -0.8841  4.1320 -0.3224
13680SOL    HW245497   7.717   2.703   8.380  1.7231 -0.6222 -1.9403
13681SOL     OW45498   4.344   4.126  10.837 -0.2767 -0.0561  0.8875
13681SOL    HW145499   4.258   4.098  10.806 -0.2192  1.6321 -0.9851
13681SOL    HW245500   4.337   4.122  10.933 -2.1702 -0.6833  0.7641
13682SOL     OW45501   9.540   8.041  10.842  0.5473  0.5690 -0.3813
13682SOL    HW145502   9.525   8.133  10.818 -3.1187 -0.1594 -1.4211
13682SOL    HW245503   9.481   8.025  10.915  1.2875 -0.9504 -0.0732
13683SOL     OW45504   6.251   9.956  10.235  0.2714 -0.4291 -0.0762
13683SOL    HW145505   6.263   9.992  10.147 -0.5303 -0.2899 -0.1416
13683SOL    HW245506   6.281  10.025  10.294  3.3386 -1.5015 -0.2297
13684SOL     OW45507   4.588   8.679   6.000 -0.7984 -0.5665  0.4243
13684SOL    HW145508   4.640   8.757   6.022 -2.0239 -0.2321  2.3018
13684SOL    HW245509   4.626   8.649   5.917 -1.3431  2.9827 -1.3216
13685SOL     OW45510   3.101   5.070   3.288 -0.1584  0.2273  0.3247
13685SOL    HW145511   3.075   5.056   3.197  1.2895 -1.7293  0.1373
13685SOL    HW245512   3.105   4.982   3.325 -1.4886  1.0275  2.5555
13686SOL     OW45513   8.473   0.893   7.756  0.0779 -0.1705 -0.4532
13686SOL    HW145514   8.427   0.975   7.770 -0.6904 -1.0721  3.5859
13686SOL    HW245515   8.564   0.918   7.743 -0.2273  1.3783  0.1972
13687SOL     OW45516   0.287   0.633   5.953  0.2719  0.3899  0.5755
13687SOL    HW145517   0.369   0.651   5.907 -0.7136 -0.2522 -1.5626
13687SOL    HW245518   0.291   0.540   5.974  0.1087  0.3716  0.5273
13688SOL     OW45519   8.544  10.445   0.403 -0.2510 -0.0131 -0.7751
13688SOL    HW145520   8.638  10.443   0.417 -0.4957  0.6979  1.2628
13688SOL    HW245521   8.521  10.538   0.402 -0.8065 -0.1155 -2.5875
13689SOL     OW45522   8.533   7.952   8.701  0.4577 -0.0806  0.0470
13689SOL    HW145523   8.470   7.881   8.701 -0.5841  0.8020 -1.0514
13689SOL    HW245524   8.519   7.996   8.785  1.1017 -1.1215  0.7279
13690SOL     OW45525   9.349   6.226   4.548  0.2618  0.0117 -0.1373
13690SOL    HW145526   9.437   6.253   4.576  0.5526 -2.0099  1.1605
13690SOL    HW245527   9.365   6.160   4.480 -0.1838 -0.8443  0.5605
13691SOL     OW45528   9.063   5.612   7.836  0.4562  0.6613 -0.6096
13691SOL    HW145529   9.044   5.533   7.784  1.1363  0.6132 -0.8067
13691SOL    HW245530   9.159   5.612   7.844  0.5931  2.1341 -1.6993
13692SOL     OW45531   6.846   7.749   4.088  0.3573 -0.5488 -0.0775
13692SOL    HW145532   6.762   7.718   4.122  0.2807 -0.7661 -0.4738
13692SOL    HW245533   6.827   7.778   3.999  0.3988  0.7301  0.3014
13693SOL     OW45534   1.687   6.307   2.475  0.0446  0.1211  0.0841
13693SOL    HW145535   1.714   6.215   2.476  1.3500  0.4889  1.0448
13693SOL    HW245536   1.706   6.338   2.564 -0.9978  1.1639 -0.0277
13694SOL     OW45537   0.376   5.236   4.952  0.7213 -0.1220  0.0006
13694SOL    HW145538   0.359   5.179   4.877  1.7510 -0.0766 -0.2905
13694SOL    HW245539   0.347   5.323   4.924 -1.3058 -0.5603  0.6220
13695SOL     OW45540   5.711   1.060   7.913  0.3533  0.3112  0.4694
13695SOL    HW145541   5.692   1.154   7.913  1.4228  0.5312  0.3177
13695SOL    HW245542   5.664   1.028   7.836 -2.8085  0.0914  2.3068
13696SOL     OW45543   6.297  10.337   5.747  0.6306 -0.4531  0.1230
13696SOL    HW145544   6.365  10.271   5.732 -0.6639 -1.8336  0.0701
13696SOL    HW245545   6.247  10.304   5.822 -0.4868  0.0808 -0.3596
13697SOL     OW45546   6.689   6.941   2.052 -0.3316 -0.1330  0.3707
13697SOL    HW145547   6.688   6.850   2.082  2.2161  0.4952  2.8178
13697SOL    HW245548   6.695   6.993   2.132 -1.1215  2.1826 -0.9790
13698SOL     OW45549   6.203   2.228   5.593  0.5289 -0.2272  0.2616
13698SOL    HW145550   6.232   2.168   5.524 -0.5285 -2.1498  1.4233
13698SOL    HW245551   6.251   2.200   5.671  1.0058  1.3307  0.5647
13699SOL     OW45552   2.292   3.164   5.127  0.2797 -0.5509 -0.5559
13699SOL    HW145553   2.243   3.228   5.074 -0.8768 -0.2709  0.7939
13699SOL    HW245554   2.333   3.216   5.196  1.2580 -0.9921 -0.7836
13700SOL     OW45555   2.175   7.090   0.172  0.2912  0.8300  0.6038
13700SOL    HW145556   2.236   7.157   0.203  2.4475 -0.2366 -1.0025
13700SOL    HW245557   2.144   7.047   0.252  1.0046  1.9562  1.5232
13701SOL     OW45558   7.492   6.478   6.838 -0.4943  0.2362 -0.0833
13701SOL    HW145559   7.525   6.439   6.919 -0.9069 -0.1016 -0.0781
13701SOL    HW245560   7.485   6.571   6.858 -0.6965  0.1409  0.3072
13702SOL     OW45561   3.390   3.492   0.335  0.2189  0.4730  0.0648
13702SOL    HW145562   3.334   3.559   0.294  0.6096  0.3833 -0.6418
13702SOL    HW245563   3.336   3.455   0.405  0.0254  1.5878  0.5226
13703SOL     OW45564   4.721   0.237   5.773  0.0096 -0.8308 -0.4952
13703SOL    HW145565   4.756   0.156   5.735 -0.8963 -0.5802 -1.8975
13703SOL    HW245566   4.633   0.245   5.736  0.5783  1.5092 -1.4882
13704SOL     OW45567   1.736   3.456   5.448 -0.2965  0.3162 -0.0368
13704SOL    HW145568   1.662   3.504   5.410 -0.5841  0.4651  0.6975
13704SOL    HW245569   1.708   3.365   5.448 -0.3150  0.3220 -0.1397
13705SOL     OW45570   6.644   8.547   7.265 -0.4585 -0.1370  0.5315
13705SOL    HW145571   6.581   8.611   7.298 -0.1932 -0.3252  1.4289
13705SOL    HW245572   6.666   8.578   7.177  0.6175  1.6942  1.4018
13706SOL     OW45573   7.184   6.500   3.356  0.4922 -0.0172  0.7248
13706SOL    HW145574   7.138   6.477   3.436 -1.3437  0.4045 -0.1692
13706SOL    HW245575   7.237   6.576   3.380 -0.8884  0.8007  1.2971
13707SOL     OW45576   3.433   3.363   7.972  0.1781 -0.0353  0.5376
13707SOL    HW145577   3.515   3.368   8.021 -0.6050 -1.7825  2.1232
13707SOL    HW245578   3.460   3.337   7.884  1.5268  2.2990  0.1576
13708SOL     OW45579   0.563  10.275   2.926 -0.8397  0.0488 -0.0579
13708SOL    HW145580   0.487  10.286   2.868 -0.7051  0.3917 -0.1760
13708SOL    HW245581   0.620  10.215   2.878 -1.0483 -0.2392  0.0471
13709SOL     OW45582   1.142   2.356   9.467  0.5944  0.5534 -0.5739
13709SOL    HW145583   1.176   2.422   9.407 -0.1524  0.8182 -0.7162
13709SOL    HW245584   1.219   2.306   9.494  0.9509  0.4638 -1.7154
13710SOL     OW45585   8.980   7.718   0.670 -0.2976  0.2235 -0.2466
13710SOL    HW145586   9.008   7.665   0.596 -0.1041  2.7246 -2.1167
13710SOL    HW245587   9.043   7.791   0.672 -1.0391  0.8711  1.6072
13711SOL     OW45588  10.952   9.005   6.550  0.7172  0.1207 -0.4038
13711SOL    HW145589  10.958   9.054   6.632  1.6510  1.5673 -1.2978
13711SOL    HW245590  10.923   8.918   6.576  1.7239  0.3238  1.5496
13712SOL     OW45591   4.008   2.437   1.587 -0.3430 -0.1387  0.0465
13712SOL    HW145592   3.965   2.380   1.651 -1.4951 -0.5062 -1.0117
13712SOL    HW245593   3.974   2.408   1.502 -1.8520  2.7676 -0.4780
13713SOL     OW45594   7.205   0.557   8.095  0.0677  0.0293 -0.3318
13713SOL    HW145595   7.133   0.568   8.158  0.5309 -2.0443  0.6501
13713SOL    HW245596   7.279   0.601   8.136  0.1428 -0.5663  0.1917
13714SOL     OW45597   1.245   2.203   9.996 -0.2325 -0.1395 -0.0072
13714SOL    HW145598   1.185   2.271  10.026 -0.5853 -0.8944  1.0629
13714SOL    HW245599   1.332   2.237  10.017 -0.3461  0.3840 -0.3544
13715SOL     OW45600   5.123   8.947   3.493  0.3826  0.0911  0.3133
13715SOL    HW145601   5.107   9.041   3.504 -2.6692 -0.3255  0.3159
13715SOL    HW245602   5.184   8.925   3.564  2.3368  2.2633 -0.5785
13716SOL     OW45603   2.472   5.315   7.871  0.1525 -0.4259 -0.1202
13716SOL    HW145604   2.455   5.233   7.917 -1.3047 -0.4497 -0.6671
13716SOL    HW245605   2.458   5.294   7.779  2.3890 -0.2096 -0.5859
13717SOL     OW45606   9.492   8.420   2.640 -0.0664 -0.1403  0.3926
13717SOL    HW145607   9.584   8.420   2.615 -0.3411  0.8900 -0.7294
13717SOL    HW245608   9.444   8.407   2.558 -0.9483  1.2283  0.6553
13718SOL     OW45609   2.161   9.084   4.853  0.2967  0.0081  0.3456
13718SOL    HW145610   2.096   9.127   4.908 -0.6432  0.2742 -0.9160
13718SOL    HW245611   2.236   9.143   4.854 -0.6204  1.2580 -0.5883
13719SOL     OW45612   8.553   3.339   4.098  0.6841 -0.4971 -0.0367
13719SOL    HW145613   8.510   3.347   4.183  0.0150  0.4226 -0.4533
13719SOL    HW245614   8.553   3.427   4.062 -0.2176 -1.0828 -1.5543
13720SOL     OW45615  10.204   4.701   0.270 -0.1171 -0.3335 -0.5492
13720SOL    HW145616  10.157   4.741   0.343  0.2968  1.4629 -1.2224
13720SOL    HW245617  10.179   4.609   0.273  0.4102 -0.4615  2.2610
13721SOL     OW45618   7.454   7.216   3.987 -0.2868  0.2290 -0.2344
13721SOL    HW145619   7.493   7.189   4.071 -0.3686  0.1643 -0.2177
13721SOL    HW245620   7.449   7.312   3.993 -0.7361  0.1921  0.0310
13722SOL     OW45621   7.268  10.894   0.708 -0.5369  0.5949 -0.1803
13722SOL    HW145622   7.332  10.857   0.768 -2.1903  0.1325  1.3923
13722SOL    HW245623   7.255  10.827   0.641 -0.7110 -0.0741  0.5205
13723SOL     OW45624   4.345   1.202  10.951 -0.0958  0.4977  0.3428
13723SOL    HW145625   4.436   1.175  10.947 -0.5491 -1.0055 -2.3928
13723SOL    HW245626   4.341   1.283  10.900 -0.4960 -0.2981 -0.9358
13724SOL     OW45627   7.440   9.779   2.228  0.1588  0.4805 -0.2608
13724SOL    HW145628   7.459   9.780   2.322 -0.7647  0.6436 -0.0713
13724SOL    HW245629   7.440   9.686   2.205 -0.9651  0.3486  0.1964
13725SOL     OW45630   1.400   1.799   5.526  0.2851  0.0435 -0.0875
13725SOL    HW145631   1.458   1.754   5.587 -0.2554 -0.3295  0.1652
13725SOL    HW245632   1.369   1.876   5.574  0.4369  0.1449 -0.1552
13726SOL     OW45633   5.769   6.575   4.991  1.0130 -0.4410 -0.7420
13726SOL    HW145634   5.792   6.607   4.904 -0.4809  1.9013 -0.3487
13726SOL    HW245635   5.834   6.615   5.049  0.2209  0.4675 -0.4585
13727SOL     OW45636  10.881   7.552   7.616 -0.2598 -0.4071  0.1667
13727SOL    HW145637  10.960   7.569   7.565  0.2389  2.1478  1.6572
13727SOL    HW245638  10.899   7.470   7.662  1.0367 -0.4718 -0.4220
13728SOL     OW45639   2.596   9.830   9.169 -0.5124 -0.2711 -0.5320
13728SOL    HW145640   2.578   9.791   9.255  1.4190 -1.8086 -0.7546
13728SOL    HW245641   2.613   9.922   9.188  1.3369 -0.8682  0.9964
13729SOL     OW45642   4.246   0.557   4.292  0.3211 -0.1010 -0.2961
13729SOL    HW145643   4.159   0.577   4.327  0.6362  0.9798 -0.1012
13729SOL    HW245644   4.263   0.626   4.227  0.7765 -0.6617 -0.7921
13730SOL     OW45645   7.314   7.154   3.669  0.1889 -0.0655  0.3335
13730SOL    HW145646   7.310   7.228   3.608  1.3630 -0.2439  0.0109
13730SOL    HW245647   7.249   7.092   3.635 -0.0245  0.3534 -0.0360
13731SOL     OW45648  11.000   8.777   0.648  0.2623  0.1915  0.4301
13731SOL    HW145649  10.975   8.849   0.591  0.7230 -1.1227 -1.5436
13731SOL    HW245650  10.918   8.748   0.688  0.1014  1.8700  1.3850
13732SOL     OW45651   8.280   1.193   5.975  0.1507 -0.3665 -0.3403
13732SOL    HW145652   8.214   1.168   6.039  1.6630 -0.9172  1.0584
13732SOL    HW245653   8.237   1.180   5.890 -0.7098 -3.1757  0.4216
13733SOL     OW45654   6.473   7.925   3.059  0.3082 -0.2185  0.0176
13733SOL    HW145655   6.436   7.924   3.147  1.4297  0.5145  0.5145
13733SOL    HW245656   6.453   8.012   3.025  3.1298  0.9441  1.0282
13734SOL     OW45657   9.500   3.242   3.904 -0.2842  0.3753  0.0183
13734SOL    HW145658   9.578   3.297   3.904  1.0509 -1.4440 -0.7609
13734SOL    HW245659   9.495   3.206   3.816 -0.2550 -1.8961  0.8963
13735SOL     OW45660   9.816   1.350   4.132 -0.4986 -0.2698 -0.1570
13735SOL    HW145661   9.894   1.403   4.118  0.0688 -0.5670  1.5822
13735SOL    HW245662   9.743   1.410   4.116  0.1096  0.5534  0.0750
13736SOL     OW45663   7.422   9.102   4.100  0.2061 -0.4690  0.4556
13736SOL    HW145664   7.440   9.152   4.021 -1.2024 -2.1376 -1.0397
13736SOL    HW245665   7.335   9.132   4.128  0.3991 -0.3805  0.9681
13737SOL     OW45666   0.938   4.456   0.165  0.0142 -0.4164  0.0557
13737SOL    HW145667   0.929   4.378   0.111 -0.9102  0.3894 -1.0013
13737SOL    HW245668   0.960   4.526   0.103  0.2791  0.2717  0.9034
13738SOL     OW45669   2.840   2.560   2.716 -0.7780 -0.0775 -0.2697
13738SOL    HW145670   2.843   2.466   2.735 -0.3025 -0.0248 -0.0740
13738SOL    HW245671   2.930   2.583   2.694 -1.0238  0.1916 -1.0284
13739SOL     OW45672   4.761   1.772   8.082  0.2826 -0.1673 -0.1262
13739SOL    HW145673   4.854   1.767   8.104  0.3468 -1.4783 -0.6258
13739SOL    HW245674   4.719   1.716   8.147  0.0019 -0.6814 -0.7453
13740SOL     OW45675  10.106   1.418  10.141 -0.3382  0.6538  0.0086
13740SOL    HW145676  10.140   1.426  10.052  1.8797  1.5008  0.8740
13740SOL    HW245677  10.011   1.407  10.129 -0.1620  1.1786 -2.4158
13741SOL     OW45678   5.340   7.134   7.081  0.2910  0.0913  0.5312
13741SOL    HW145679   5.436   7.133   7.086  0.3082  0.2998  0.2495
13741SOL    HW245680   5.315   7.042   7.094  0.3479  0.3992  3.7973
13742SOL     OW45681   5.518   6.878   5.947 -0.1108  0.1476 -0.2646
13742SOL    HW145682   5.566   6.814   6.000 -0.7754 -0.4109 -0.3254
13742SOL    HW245683   5.519   6.841   5.859 -0.3587  0.2993 -0.3299
13743SOL     OW45684   7.298   6.001  10.398 -0.6585 -0.2973  0.3444
13743SOL    HW145685   7.267   6.048  10.322 -1.1584  0.1844  0.8363
13743SOL    HW245686   7.362   6.059  10.439 -1.0935 -0.1370  0.8150
13744SOL     OW45687   0.604   0.233   8.820 -0.0143 -0.3059 -0.8506
13744SOL    HW145688   0.554   0.208   8.742  0.1286 -0.4757 -0.8886
13744SOL    HW245689   0.544   0.288   8.871 -0.3395 -0.7388 -0.7577
13745SOL     OW45690   4.973   7.239   9.552 -0.2106  0.4764 -0.5931
13745SOL    HW145691   5.036   7.177   9.516 -1.3313 -2.3998  2.0217
13745SOL    HW245692   5.027   7.306   9.595  1.0447 -0.2585 -0.9684
13746SOL     OW45693   4.454   4.357   7.482 -0.2283 -0.1296  0.2179
13746SOL    HW145694   4.518   4.428   7.490  0.4873 -0.6115 -1.0604
13746SOL    HW245695   4.487   4.288   7.540 -1.8831  1.1637  2.9517
13747SOL     OW45696   2.339   8.442   1.540 -0.5947 -0.1927  0.6054
13747SOL    HW145697   2.352   8.530   1.505 -1.0733  0.2821  1.5909
13747SOL    HW245698   2.318   8.389   1.463 -0.4378  0.5764  0.0216
13748SOL     OW45699   0.886   5.029   7.658  0.6736  0.2293 -0.0122
13748SOL    HW145700   0.977   5.014   7.683  0.6657  0.8517  0.4321
13748SOL    HW245701   0.835   4.991   7.729  0.6682  3.2762  1.8295
13749SOL     OW45702   1.723   4.282   6.772 -0.1298  0.5456  0.1083
13749SOL    HW145703   1.742   4.346   6.841 -1.4246  1.2033 -0.1234
13749SOL    HW245704   1.628   4.271   6.775  0.0691 -1.5736  0.3113
13750SOL     OW45705   9.122   8.334   5.840 -0.0520 -0.4769 -0.4377
13750SOL    HW145706   9.107   8.422   5.804 -2.6013 -0.9300 -0.6676
13750SOL    HW245707   9.197   8.301   5.792  1.0228  1.5800 -0.3030
13751SOL     OW45708   0.177   4.628   6.653 -0.2081 -0.2331 -0.3430
13751SOL    HW145709   0.108   4.641   6.587  0.5303  1.2232 -0.8735
13751SOL    HW245710   0.145   4.555   6.707 -2.3775  0.6449 -0.3168
13752SOL     OW45711  10.541   8.962   9.308  0.0512 -0.2722  0.0803
13752SOL    HW145712  10.624   8.953   9.262  0.3837 -1.6500  0.8638
13752SOL    HW245713  10.549   9.043   9.358  1.0142 -0.4987  0.3027
13753SOL     OW45714   6.417  10.114  10.423  1.0516  0.0007  0.2973
13753SOL    HW145715   6.402  10.182  10.358  0.0049 -0.8051 -0.3364
13753SOL    HW245716   6.365  10.142  10.499 -0.8165 -0.9281 -0.5838
13754SOL     OW45717   7.094   6.023   8.066 -0.8979  0.1032 -0.1426
13754SOL    HW145718   7.187   6.012   8.086 -1.2331 -0.4039  1.2174
13754SOL    HW245719   7.051   6.025   8.151 -2.1848 -0.0312 -0.7629
13755SOL     OW45720   7.982   8.733   9.295  0.2187  0.0817  0.9123
13755SOL    HW145721   7.956   8.695   9.379 -0.8790 -1.0408  0.0931
13755SOL    HW245722   8.073   8.704   9.282 -0.2237 -1.3306  0.8452
13756SOL     OW45723   9.731   5.176   0.701 -0.3640  0.0045  0.1452
13756SOL    HW145724   9.718   5.100   0.645 -0.6358 -0.1509  0.4131
13756SOL    HW245725   9.787   5.145   0.772 -0.6843 -0.0172  0.3916
13757SOL     OW45726   0.907   1.699   4.780  0.2939 -0.2815 -0.2498
13757SOL    HW145727   0.848   1.767   4.815  0.9902  0.6731 -0.8640
13757SOL    HW245728   0.985   1.704   4.835  0.1319 -0.9851  0.0518
13758SOL     OW45729   1.928   1.025   3.717 -0.3980 -0.1338  0.2997
13758SOL    HW145730   1.862   1.029   3.786 -1.7421  0.0463 -0.9686
13758SOL    HW245731   1.950   0.932   3.710 -1.0089 -0.2744  0.2581
13759SOL     OW45732   5.036   4.427   0.130 -0.0416 -0.0185  0.4728
13759SOL    HW145733   4.956   4.478   0.140 -0.3096 -0.6156  1.4402
13759SOL    HW245734   5.103   4.479   0.173 -0.2388 -0.2933  1.1203
13760SOL     OW45735   7.934   5.503   2.909 -0.2787  0.6290 -0.8404
13760SOL    HW145736   7.926   5.509   3.005 -2.8980  0.2745 -0.9760
13760SOL    HW245737   7.863   5.556   2.875 -0.2474 -0.3534 -2.5791
13761SOL     OW45738  10.211   7.072   4.423  0.5231  0.4986  0.0118
13761SOL    HW145739  10.279   7.062   4.490  0.9304  2.9517  0.0601
13761SOL    HW245740  10.210   6.988   4.377  2.5841 -0.0973  0.9302
13762SOL     OW45741   3.185   4.228   2.050 -0.0345 -0.6157  0.6100
13762SOL    HW145742   3.183   4.317   2.085  0.4722 -0.7142  0.8979
13762SOL    HW245743   3.136   4.176   2.114 -0.6222 -0.4903  0.2705
13763SOL     OW45744   6.395   1.685   2.985  0.3075  0.1942  0.9639
13763SOL    HW145745   6.400   1.677   3.080 -1.4475  1.6274  1.2357
13763SOL    HW245746   6.326   1.625   2.959  1.4581 -0.9400  0.4357
13764SOL     OW45747   8.576   0.727   8.802 -0.4637 -0.1775  0.0897
13764SOL    HW145748   8.527   0.778   8.738 -0.0174 -0.2824 -0.3415
13764SOL    HW245749   8.664   0.765   8.801  0.1795 -1.5745 -0.9933
13765SOL     OW45750   1.581   7.426   8.448 -0.0109  0.2639 -0.1366
13765SOL    HW145751   1.662   7.462   8.483  0.2729 -1.0465  0.6186
13765SOL    HW245752   1.541   7.379   8.521 -2.1263  1.9320 -0.1317
13766SOL     OW45753   6.371   4.889   9.168  0.0087  0.2312 -0.1131
13766SOL    HW145754   6.406   4.864   9.083  2.2410  0.3541  0.6862
13766SOL    HW245755   6.433   4.852   9.231 -1.3088  0.5570  1.4352
13767SOL     OW45756   8.894   9.615   3.393 -0.3855 -0.4781 -0.0807
13767SOL    HW145757   8.870   9.626   3.485  0.1225 -0.5649  0.0618
13767SOL    HW245758   8.827   9.663   3.345 -0.5568 -0.2937  0.3422
13768SOL     OW45759   4.373   1.189  10.059  0.6862 -0.0581  0.0633
13768SOL    HW145760   4.447   1.130  10.074  0.8757  0.2764  0.4647
13768SOL    HW245761   4.296   1.135  10.072  0.8579 -0.4348 -0.4540
13769SOL     OW45762   1.177   4.320   9.736 -0.2949  0.0615 -0.4315
13769SOL    HW145763   1.253   4.272   9.767 -0.0104 -0.3993 -1.7852
13769SOL    HW245764   1.214   4.395   9.689 -0.7015  0.2112 -0.5163
13770SOL     OW45765   6.139   0.157   4.847 -0.1154 -0.3345  0.5019
13770SOL    HW145766   6.114   0.250   4.844  0.1548 -0.2737  0.0853
13770SOL    HW245767   6.099   0.125   4.928  0.1753  0.2621  0.9001
13771SOL     OW45768   2.847   9.175   5.789 -0.6858 -0.0119 -0.6356
13771SOL    HW145769   2.849   9.168   5.693 -0.6524  0.9262 -0.7183
13771SOL    HW245770   2.896   9.255   5.808  0.8914 -1.1564  0.3026
13772SOL     OW45771   7.891   0.555  10.882  0.1808  0.7764 -0.7053
13772SOL    HW145772   7.879   0.622  10.815  2.3102 -0.4962 -2.4620
13772SOL    HW245773   7.982   0.564  10.910  0.0320 -0.3290  0.2401
13773SOL     OW45774   8.141   0.032   7.802  0.1300 -0.2274 -0.6691
13773SOL    HW145775   8.224   0.078   7.815 -1.6103  2.8112  0.9411
13773SOL    HW245776   8.109   0.065   7.718 -0.6370  0.7379 -0.0135
13774SOL     OW45777   1.369   5.609   5.458  0.4370  0.0875  0.4379
13774SOL    HW145778   1.454   5.567   5.444  0.6670  0.2017  1.4129
13774SOL    HW245779   1.317   5.586   5.381  0.7344 -1.5486  0.7033
13775SOL     OW45780   6.357   5.644   3.119 -0.7815 -0.8312  0.7240
13775SOL    HW145781   6.429   5.662   3.180 -0.6479 -0.2712  0.4090
13775SOL    HW245782   6.317   5.729   3.104 -0.3817 -0.8352 -0.5027
13776SOL     OW45783   2.485   5.757   3.269 -0.4073 -0.3662  0.8399
13776SOL    HW145784   2.449   5.845   3.256  1.0185  0.2906  1.1734
13776SOL    HW245785   2.408   5.700   3.270 -1.3311  0.8206  0.2346
13777SOL     OW45786   3.749   2.186   5.471 -0.1525 -0.6244 -0.4870
13777SOL    HW145787   3.815   2.152   5.411  0.6679  0.2608 -0.1093
13777SOL    HW245788   3.760   2.135   5.551  0.0346 -0.5238 -0.4481
13778SOL     OW45789   1.112   9.393   7.955  0.2388 -0.0353  0.2845
13778SOL    HW145790   1.149   9.366   8.039  0.0675  1.4012  0.8450
13778SOL    HW245791   1.078   9.481   7.971  0.7296  0.5062 -1.4539
13779SOL     OW45792   6.144   6.857   6.719  0.1873 -0.6859 -0.1762
13779SOL    HW145793   6.144   6.800   6.796  1.8187 -1.4368 -0.7009
13779SOL    HW245794   6.233   6.854   6.686  0.0749  1.3538 -0.8533
13780SOL     OW45795   6.017   7.245   9.601  0.4900  0.4855 -0.1419
13780SOL    HW145796   6.096   7.192   9.601 -0.8474 -1.7146  2.1808
13780SOL    HW245797   5.956   7.198   9.544  0.1199  0.9169 -0.1066
13781SOL     OW45798   2.293   5.034   6.180  0.1259  0.3659 -0.2678
13781SOL    HW145799   2.319   5.102   6.117 -0.3662  2.2075  1.4091
13781SOL    HW245800   2.218   4.991   6.139 -1.6492  3.0360 -0.1063
13782SOL     OW45801   0.765   4.248   5.850  0.0633 -0.3138  0.5427
13782SOL    HW145802   0.751   4.237   5.756 -0.3892  0.8944  0.4561
13782SOL    HW245803   0.683   4.286   5.882  0.5318  0.0912  1.2792
13783SOL     OW45804   8.669   9.055   4.029  0.2722 -0.2662 -0.3123
13783SOL    HW145805   8.662   9.079   3.937  1.3225 -2.8226 -1.1523
13783SOL    HW245806   8.754   9.088   4.057 -0.4017  1.2606  0.0492
13784SOL     OW45807   4.275   8.176   2.847  0.0701  0.6470  0.2588
13784SOL    HW145808   4.276   8.272   2.857  0.9121  0.4859  2.1995
13784SOL    HW245809   4.244   8.143   2.931 -0.8085 -0.7964 -0.5951
13785SOL     OW45810   4.269   1.115   3.658  0.5073 -0.4621 -0.1922
13785SOL    HW145811   4.230   1.112   3.570 -0.8545  1.4761  0.2966
13785SOL    HW245812   4.364   1.113   3.642  0.2930  0.1900 -1.7220
13786SOL     OW45813   1.223   0.051   3.456  0.1711  0.0063 -0.1423
13786SOL    HW145814   1.253   0.140   3.478  0.7166 -0.4753  1.1598
13786SOL    HW245815   1.167   0.026   3.530 -1.2359 -0.1754 -1.2287
13787SOL     OW45816   4.077   3.841   1.028 -0.6899 -0.1473 -0.0711
13787SOL    HW145817   4.139   3.910   1.052 -1.0047  0.7528 -1.7143
13787SOL    HW245818   4.002   3.888   0.990 -1.4881 -1.3308 -0.0121
13788SOL     OW45819   9.064   5.661   6.444 -0.1608 -0.0766  0.0768
13788SOL    HW145820   9.060   5.590   6.381 -1.9550  0.0733 -0.0390
13788SOL    HW245821   8.990   5.645   6.503  1.4557 -0.2417  2.2123
13789SOL     OW45822   7.159  10.705   1.051 -0.1561  0.4991 -0.1822
13789SOL    HW145823   7.105  10.756   0.991  1.0034 -0.3069 -2.0013
13789SOL    HW245824   7.096  10.660   1.108 -1.2944  1.1430 -0.8857
13790SOL     OW45825  10.862   0.469   5.079 -0.5313 -0.1765 -0.1878
13790SOL    HW145826  10.869   0.392   5.135  1.0878  0.4902  0.6209
13790SOL    HW245827  10.860   0.543   5.140 -0.1038  0.5087 -0.9753
13791SOL     OW45828   2.094   3.467   7.406 -0.4581 -0.2984  0.3759
13791SOL    HW145829   2.017   3.470   7.348  0.1181 -0.6054 -0.4233
13791SOL    HW245830   2.090   3.549   7.455 -0.7481  0.1576 -0.3848
13792SOL     OW45831   8.340   7.287   3.574 -0.0665  0.4934 -0.2239
13792SOL    HW145832   8.431   7.296   3.602 -0.5779 -0.2036  1.8104
13792SOL    HW245833   8.299   7.370   3.598 -0.5507 -0.1773  1.3926
13793SOL     OW45834   2.691   0.489   8.779 -0.5555 -0.6969 -0.2753
13793SOL    HW145835   2.617   0.501   8.838 -0.0926 -0.3278  0.2448
13793SOL    HW245836   2.749   0.563   8.798  0.6370 -1.7425  0.3790
13794SOL     OW45837   1.399   2.024   9.367  0.2312  0.3737  0.3371
13794SOL    HW145838   1.329   2.057   9.311 -0.5484 -1.2117  0.3319
13794SOL    HW245839   1.354   1.983   9.440  1.1176 -1.0667  0.1189
13795SOL     OW45840   1.090  10.830  10.752 -0.3486 -0.0544  0.2936
13795SOL    HW145841   1.003  10.859  10.780 -0.0608  0.8473  0.2956
13795SOL    HW245842   1.073  10.750  10.702 -1.0053 -0.9063  1.7845
13796SOL     OW45843   8.178   2.990   2.836  0.0148 -0.1403 -0.2517
13796SOL    HW145844   8.138   3.045   2.769 -0.3790  2.1391  1.7088
13796SOL    HW245845   8.270   2.987   2.812 -0.2171  0.0818 -1.2302
13797SOL     OW45846   0.056   0.289   5.529  0.4660 -0.0196 -0.6630
13797SOL    HW145847   0.000   0.222   5.491  0.5572  0.3550 -1.4813
13797SOL    HW245848   0.126   0.240   5.573 -0.1385 -0.4745 -0.1974
13798SOL     OW45849   4.201  10.926   8.705  0.3620  0.3965  0.1863
13798SOL    HW145850   4.271  10.979   8.743  0.7933 -0.5150  0.6811
13798SOL    HW245851   4.138  10.915   8.775  0.5432 -0.2122  0.2573
13799SOL     OW45852   5.689   0.056   0.939 -0.4605 -0.0249  0.5629
13799SOL    HW145853   5.627   0.048   0.867  0.0568  0.3298  0.0701
13799SOL    HW245854   5.646   0.013   1.013 -1.7852  1.2336  0.5507
13800SOL     OW45855   3.184  10.552   5.605  0.2226  0.5347  0.7517
13800SOL    HW145856   3.199  10.540   5.698  1.8665 -0.2672  0.4147
13800SOL    HW245857   3.090  10.537   5.593  0.1014  0.0684  2.1834
13801SOL     OW45858   0.578   3.389   0.453  0.4263 -0.7441  0.2312
13801SOL    HW145859   0.573   3.481   0.480  0.0629 -0.3880 -0.9745
13801SOL    HW245860   0.664   3.381   0.412 -1.1156  0.2520 -3.5931
13802SOL     OW45861   2.083   5.776   2.884  0.0471  0.5163  0.6522
13802SOL    HW145862   2.099   5.700   2.828  1.6910 -1.6908  3.8146
13802SOL    HW245863   2.053   5.844   2.824  0.2729 -2.0334 -2.6340
13803SOL     OW45864   3.195   1.292   7.305 -0.0522 -0.3028 -0.6513
13803SOL    HW145865   3.270   1.330   7.352 -1.0003 -1.3299  1.8877
13803SOL    HW245866   3.221   1.201   7.287  0.2049  0.0127 -1.9902
13804SOL     OW45867   3.949   5.780   5.899  0.3585 -0.4555  0.1436
13804SOL    HW145868   3.959   5.687   5.918 -2.0034 -0.6604  0.6787
13804SOL    HW245869   3.975   5.824   5.980  1.4493 -0.6177 -0.1012
13805SOL     OW45870   9.312   9.542  10.031 -0.2289 -0.0454 -0.2219
13805SOL    HW145871   9.374   9.547   9.958  2.4142  0.1965  1.8721
13805SOL    HW245872   9.306   9.632  10.064 -0.3224 -0.3682  0.6696
13806SOL     OW45873   9.601   2.714   0.634 -0.2751 -0.6937  0.4271
13806SOL    HW145874   9.535   2.783   0.640 -0.4761 -0.8388 -0.0290
13806SOL    HW245875   9.684   2.760   0.624 -0.1013 -0.4679  2.4475
13807SOL     OW45876  10.703   0.087   3.830 -0.4166  0.1309 -0.0945
13807SOL    HW145877  10.638   0.052   3.768 -1.6598  1.9529  0.0788
13807SOL    HW245878  10.723   0.174   3.796 -0.2363  0.7155  1.4357
13808SOL     OW45879   4.547   0.358   0.654  0.6022 -0.3955 -0.3907
13808SOL    HW145880   4.493   0.425   0.611 -2.5193 -2.7309 -0.4568
13808SOL    HW245881   4.564   0.394   0.741  0.2752  1.0689 -0.8974
13809SOL     OW45882  10.507  10.582   1.127  0.0625 -0.5785 -0.6952
13809SOL    HW145883  10.421  10.598   1.165  0.4997 -0.2209  0.1661
13809SOL    HW245884  10.490  10.570   1.034 -0.5215  3.5527 -1.3113
13810SOL     OW45885   7.182   4.500   5.903  0.3362  0.2182  0.3646
13810SOL    HW145886   7.230   4.577   5.871  0.8839 -0.1215  0.3499
13810SOL    HW245887   7.210   4.429   5.845 -0.3145  0.0415  0.2572
13811SOL     OW45888   6.642   8.743   6.038  0.6509 -0.2756 -0.4252
13811SOL    HW145889   6.621   8.686   6.112  1.5113 -0.4001 -0.2614
13811SOL    HW245890   6.728   8.713   6.008  0.8028  0.4810 -0.7810
13812SOL     OW45891   2.828   7.880   4.689  0.0450 -0.3046 -0.2774
13812SOL    HW145892   2.880   7.837   4.621  2.1299 -0.4880  1.3163
13812SOL    HW245893   2.864   7.968   4.695 -1.2486  0.2610 -0.5231
13813SOL     OW45894   4.277   4.826   9.218 -0.7239  0.4000  0.1361
13813SOL    HW145895   4.361   4.800   9.179  0.1465  1.7202  1.0650
13813SOL    HW245896   4.230   4.743   9.230  0.2191 -0.3138 -0.8785
13814SOL     OW45897   1.413   5.570   7.032  0.2836  0.1434 -0.2700
13814SOL    HW145898   1.363   5.504   6.984 -1.4516  1.5543 -0.5019
13814SOL    HW245899   1.504   5.551   7.011 -0.1259 -2.3575 -0.0528
13815SOL     OW45900   9.983   6.283   4.449 -0.2160  0.2501  0.0652
13815SOL    HW145901   9.914   6.338   4.412  0.1978  0.3028 -0.6386
13815SOL    HW245902   9.961   6.278   4.543 -2.5830 -1.7594 -0.5029
13816SOL     OW45903   1.059   8.061   1.257 -0.0084  0.0273  0.1862
13816SOL    HW145904   1.011   7.978   1.251  0.5720 -0.4960  1.9290
13816SOL    HW245905   1.138   8.046   1.205 -0.6237  0.0751 -0.7964
13817SOL     OW45906   6.984   8.345   7.345  0.1388  0.2367  0.1129
13817SOL    HW145907   7.040   8.395   7.286  1.1209 -1.7039 -0.6988
13817SOL    HW245908   7.040   8.275   7.378 -1.5757 -1.3004 -0.0819
13818SOL     OW45909   4.944   6.231   7.982 -0.1263 -0.1050  0.8278
13818SOL    HW145910   4.884   6.181   8.037 -0.7493 -0.3573 -0.0735
13818SOL    HW245911   5.031   6.202   8.009 -0.4390 -0.5153  1.4018
13819SOL     OW45912   3.210   1.760   8.893  0.0759  0.7722  0.1111
13819SOL    HW145913   3.189   1.706   8.970  0.4343  0.4628 -0.0075
13819SOL    HW245914   3.132   1.754   8.838  0.2274  0.1291 -0.0388
13820SOL     OW45915   5.596   0.730   9.682  0.2574 -0.2378  0.5658
13820SOL    HW145916   5.600   0.818   9.646  0.5244 -0.0818  0.9707
13820SOL    HW245917   5.565   0.742   9.772 -0.7906 -0.6582  0.2773
13821SOL     OW45918   8.299   2.769   7.832  0.2885  0.3912  0.0359
13821SOL    HW145919   8.247   2.764   7.752 -0.4733  1.4118  0.4436
13821SOL    HW245920   8.322   2.862   7.840  2.9670 -0.1272 -0.5996
13822SOL     OW45921   0.547   7.060  11.004 -0.1865 -0.0835  0.4065
13822SOL    HW145922   0.580   7.049  11.093  0.7005 -0.9142 -0.0138
13822SOL    HW245923   0.483   7.131  11.011  0.2124  0.1757  1.6132
13823SOL     OW45924   0.845   3.816   3.436  0.4041  0.0163  0.1185
13823SOL    HW145925   0.859   3.833   3.343 -0.0738  1.0888  0.2145
13823SOL    HW245926   0.756   3.849   3.453  0.5601  0.0169  0.9895
13824SOL     OW45927   0.930   9.630   9.593 -0.4422  0.0012 -0.3188
13824SOL    HW145928   0.895   9.610   9.680 -0.0077  1.1779  0.1535
13824SOL    HW245929   0.896   9.717   9.573 -1.0101 -0.4857 -1.6016
13825SOL     OW45930   6.402   4.507  10.181  0.0563  0.2105  0.4840
13825SOL    HW145931   6.390   4.528  10.088 -0.3879  0.8870  0.6815
13825SOL    HW245932   6.494   4.486  10.189  0.2946  1.0362  0.0472
13826SOL     OW45933   4.546   2.490  10.899  0.2578  0.1986  0.5544
13826SOL    HW145934   4.565   2.484  10.806  1.2510 -0.0634  0.7650
13826SOL    HW245935   4.503   2.575  10.910 -2.0132 -0.7314 -0.4772
13827SOL     OW45936  10.456   5.889   4.819  0.2712 -0.5823  0.0888
13827SOL    HW145937  10.420   5.965   4.866 -0.1976  0.8558 -2.4010
13827SOL    HW245938  10.549   5.890   4.841  0.0103 -0.2218  1.2759
13828SOL     OW45939   6.780   9.107   2.847  0.1774 -0.6731 -0.0745
13828SOL    HW145940   6.822   9.041   2.902  1.4653  1.3643  1.5253
13828SOL    HW245941   6.851   9.164   2.820 -0.8553 -0.0971 -1.6953
13829SOL     OW45942  10.617   7.320   4.712  0.4960 -1.0887  0.8313
13829SOL    HW145943  10.631   7.239   4.663 -1.4243  0.1664 -2.0705
13829SOL    HW245944  10.677   7.383   4.672  0.6316 -0.6102  1.7682
13830SOL     OW45945   0.294   6.303  10.171 -0.3208 -0.0988  0.3558
13830SOL    HW145946   0.352   6.313  10.246 -0.1897  0.2354  0.2108
13830SOL    HW245947   0.322   6.221  10.129  1.6374  1.2438 -1.0921
13831SOL     OW45948   9.892   8.138  10.504 -0.2318 -0.1780 -0.0576
13831SOL    HW145949   9.904   8.056  10.552 -0.6819 -0.2044  0.0157
13831SOL    HW245950   9.980   8.174  10.496  0.4214 -2.0635 -2.6534
13832SOL     OW45951   5.364   1.033   6.566  0.1674 -0.6187  0.5627
13832SOL    HW145952   5.377   1.066   6.477 -0.8513  0.6544  0.8470
13832SOL    HW245953   5.319   0.949   6.555  2.0063 -1.5738 -0.1571
13833SOL     OW45954   3.469   1.285   2.623 -0.1400  0.2219 -0.3479
13833SOL    HW145955   3.410   1.269   2.550 -0.7009  0.0170  0.1464
13833SOL    HW245956   3.555   1.298   2.582 -0.4942  0.3584 -1.0540
13834SOL     OW45957   3.708   1.363   2.515  0.6682 -0.5684  0.2844
13834SOL    HW145958   3.785   1.410   2.548 -0.3241  0.5515  1.1293
13834SOL    HW245959   3.665   1.426   2.457  0.1686 -1.0172  0.1596
13835SOL     OW45960   9.709   5.480   2.545 -0.3122 -0.0304  0.6127
13835SOL    HW145961   9.748   5.393   2.538 -1.9097 -0.7465  0.2088
13835SOL    HW245962   9.655   5.477   2.624 -3.2531 -0.6902 -1.2396
13836SOL     OW45963   2.564   6.560   1.240  0.3727  0.1924 -0.2135
13836SOL    HW145964   2.610   6.610   1.307  0.8906 -0.3102 -0.1802
13836SOL    HW245965   2.613   6.478   1.234 -0.3778 -0.2560 -0.3549
13837SOL     OW45966   5.977   9.875   6.856  0.1517  0.4044 -0.3439
13837SOL    HW145967   5.986   9.914   6.769 -0.1910  0.9335 -0.1426
13837SOL    HW245968   6.056   9.900   6.903  1.2198 -1.4192 -1.0878
13838SOL     OW45969   3.812   8.156   3.044  0.1622 -0.0727 -0.3789
13838SOL    HW145970   3.845   8.072   3.077  0.8863  0.0589 -0.7577
13838SOL    HW245971   3.788   8.138   2.953 -0.8885 -0.1824 -0.0932
13839SOL     OW45972   8.373   8.992   4.098  0.4632 -0.0337  0.0000
13839SOL    HW145973   8.409   9.074   4.063  2.5887  0.8154  3.6226
13839SOL    HW245974   8.293   9.019   4.144 -0.0002 -0.3842 -0.5926
13840SOL     OW45975   9.668   1.109   9.718  0.7659 -0.8888 -0.1705
13840SOL    HW145976   9.608   1.142   9.785  2.1349  1.0593  0.1732
13840SOL    HW245977   9.707   1.031   9.758 -0.5478 -1.4238  0.1105
13841SOL     OW45978   2.867   6.074   6.855 -0.1245 -0.1229 -0.0493
13841SOL    HW145979   2.864   5.987   6.895 -2.3276  0.1839  0.5979
13841SOL    HW245980   2.958   6.101   6.864  0.1579 -1.4481  1.7640
13842SOL     OW45981   7.764   8.576   3.283 -0.1320 -0.1682 -0.3860
13842SOL    HW145982   7.820   8.637   3.332  2.4660 -1.5950 -1.4129
13842SOL    HW245983   7.693   8.556   3.343  1.9942 -0.5120  2.2018
13843SOL     OW45984   6.567   6.976   8.776  0.0467 -0.0044  0.1146
13843SOL    HW145985   6.590   7.041   8.710 -0.7925 -0.2185 -0.4113
13843SOL    HW245986   6.517   6.909   8.727  0.6325 -0.8852  0.6962
13844SOL     OW45987  10.759  10.710   2.981 -0.3964 -0.0728  0.1123
13844SOL    HW145988  10.844  10.667   2.969 -0.4526  0.2579 -1.9595
13844SOL    HW245989  10.696  10.638   2.983 -0.0208 -0.4351  3.2465
13845SOL     OW45990   5.781   5.515  10.825 -0.0120 -0.0811  0.4246
13845SOL    HW145991   5.775   5.602  10.863 -1.6208 -1.1789  2.9589
13845SOL    HW245992   5.825   5.462  10.892  0.5996 -1.3211 -0.8912
13846SOL     OW45993  10.439   3.674   4.944 -0.0962 -0.1420 -0.1264
13846SOL    HW145994  10.447   3.723   5.026  1.0379  1.1724 -0.9792
13846SOL    HW245995  10.345   3.675   4.924 -0.1989  0.8947  0.3503
13847SOL     OW45996   8.766   6.568  10.873  0.2234  0.7648 -0.6874
13847SOL    HW145997   8.832   6.633  10.895 -0.7188  0.6747  3.2710
13847SOL    HW245998   8.813   6.484  10.877  0.1320  0.7555  1.4156
13848SOL     OW45999   8.378   9.007   5.058 -0.2068  0.0327 -1.1003
13848SOL    HW146000   8.293   9.049   5.063  0.0889  0.5650 -0.4216
13848SOL    HW246001   8.423   9.033   5.138  0.8491  0.3296 -1.7726
13849SOL     OW46002   8.239   7.970   7.532  0.3044 -0.2648  0.3576
13849SOL    HW146003   8.274   8.045   7.580  0.6719 -0.9473  1.2020
13849SOL    HW246004   8.160   8.003   7.490  0.0482  0.4135  1.3276
13850SOL     OW46005   1.403   9.966   9.706  0.1591  0.5319 -0.0969
13850SOL    HW146006   1.308   9.951   9.708  0.4461 -1.8231 -0.5569
13850SOL    HW246007   1.436   9.914   9.780  1.1041  1.2855  0.0215
13851SOL     OW46008   3.490   6.549   5.475 -0.3636 -0.5459  0.1045
13851SOL    HW146009   3.578   6.572   5.447 -0.3813  0.6442  0.9565
13851SOL    HW246010   3.435   6.568   5.399 -0.2411  1.3825  0.4557
13852SOL     OW46011   6.404   0.374   8.628  0.0747  0.2979  0.2760
13852SOL    HW146012   6.312   0.398   8.636  0.3682  1.0669  1.6804
13852SOL    HW246013   6.420   0.316   8.702  0.5872 -0.3807 -0.3408
13853SOL     OW46014   2.551   0.793   1.909 -0.2295  0.2866 -0.0880
13853SOL    HW146015   2.496   0.871   1.921  0.5875  1.1614 -1.6204
13853SOL    HW246016   2.572   0.793   1.816  0.7050 -1.1695  0.0882
13854SOL     OW46017   7.033   0.526   4.539 -0.4766 -0.0467  0.1264
13854SOL    HW146018   7.014   0.551   4.630 -2.0799 -0.5250 -0.0412
13854SOL    HW246019   7.052   0.608   4.495 -0.3671  0.2649  0.7393
13855SOL     OW46020   1.993  10.481   9.093  0.1438 -1.0279 -0.0955
13855SOL    HW146021   2.018  10.424   9.166 -1.5813 -1.3045  0.3133
13855SOL    HW246022   2.077  10.510   9.056  1.0839 -0.8090  2.0375
13856SOL     OW46023   3.986   4.320   1.520  0.1533 -0.1220  0.0992
13856SOL    HW146024   3.908   4.340   1.468 -0.4823 -1.9391  0.2503
13856SOL    HW246025   4.025   4.245   1.476  0.4392 -0.7674  1.3859
13857SOL     OW46026   7.774   6.318   4.757  0.2141  0.2332 -0.1623
13857SOL    HW146027   7.723   6.398   4.750  1.0680  0.7754 -0.2999
13857SOL    HW246028   7.740   6.261   4.688  0.6418  1.0647 -1.0776
13858SOL     OW46029   2.801   5.147   6.098  0.1488  0.1612 -0.4583
13858SOL    HW146030   2.806   5.239   6.124 -2.0867  0.2444 -0.2052
13858SOL    HW246031   2.766   5.150   6.008  2.1698 -0.3888 -1.3226
13859SOL     OW46032   5.313   5.429   3.547  0.0090 -0.2255 -0.2906
13859SOL    HW146033   5.316   5.523   3.529  1.3164 -0.0804  0.5076
13859SOL    HW246034   5.319   5.424   3.643  0.8922 -1.1439 -0.3861
13860SOL     OW46035   2.938   9.026   9.495  0.5337 -0.1908  0.3883
13860SOL    HW146036   3.007   9.056   9.555  2.2549 -1.1633 -1.0045
13860SOL    HW246037   2.928   9.098   9.432  0.9243 -0.4148  0.0691
13861SOL     OW46038   1.887   8.228  11.069  0.2764  0.1347  0.0140
13861SOL    HW146039   1.983   8.231  11.065  0.2279  0.8017 -1.3360
13861SOL    HW246040   1.862   8.320  11.078 -0.2509 -0.0013 -0.0799
13862SOL     OW46041   9.187   1.781   0.222  0.3700  0.1965  0.0493
13862SOL    HW146042   9.239   1.751   0.296 -0.6513  0.7706  1.0289
13862SOL    HW246043   9.165   1.701   0.174  1.6697 -0.1021 -0.0785
13863SOL     OW46044   8.440   4.470   2.517 -0.3203 -0.1547 -0.0110
13863SOL    HW146045   8.415   4.541   2.577 -1.1424  1.1833 -1.8544
13863SOL    HW246046   8.360   4.448   2.471  0.2953 -1.1672 -0.6332
13864SOL     OW46047   5.338   2.770   2.672 -0.1156  0.0014  0.2254
13864SOL    HW146048   5.369   2.825   2.743  2.0972  0.7554 -1.2011
13864SOL    HW246049   5.243   2.784   2.670 -0.1460  0.4878  2.5180
13865SOL     OW46050   0.588   4.146   0.961 -0.2163  0.2894 -0.0465
13865SOL    HW146051   0.583   4.075   0.896 -1.6268 -0.3682  0.7484
13865SOL    HW246052   0.582   4.226   0.909  1.7804 -0.1156 -0.9999
13866SOL     OW46053   3.473   2.426   1.887  0.2418  0.5409  0.1155
13866SOL    HW146054   3.504   2.471   1.809  0.6154  0.2450  0.0896
13866SOL    HW246055   3.550   2.420   1.944 -0.1061  1.0564  0.6545
13867SOL     OW46056  10.005   8.787  10.261  0.6978  0.4964  0.6080
13867SOL    HW146057   9.922   8.810  10.219  0.2773  0.2596  1.2993
13867SOL    HW246058   9.993   8.811  10.353  1.9859  1.9729  0.4281
13868SOL     OW46059  10.504   4.451   5.415  0.2485  0.4328  0.0690
13868SOL    HW146060  10.579   4.398   5.440  1.1455  0.9488 -1.3825
13868SOL    HW246061  10.533   4.541   5.427 -0.8476  0.6350  1.3799
13869SOL     OW46062   4.508  10.169   8.604 -0.4194  0.2210  0.2027
13869SOL    HW146063   4.417  10.166   8.573 -0.1846 -0.2103 -0.4485
13869SOL    HW246064   4.537  10.078   8.603  0.6218  0.5329 -1.4318
13870SOL     OW46065  10.553   1.566   5.874  0.2086 -0.0264 -0.2424
13870SOL    HW146066  10.529   1.566   5.967 -0.6509 -2.4559 -0.3795
13870SOL    HW246067  10.640   1.525   5.871  0.0465 -0.3571 -0.5314
13871SOL     OW46068   6.954   8.304   6.206 -0.2948 -0.0543  0.5348
13871SOL    HW146069   6.889   8.235   6.219 -0.2604 -0.0175  0.9312
13871SOL    HW246070   6.971   8.337   6.295 -1.5445  1.5794  0.2375
13872SOL     OW46071   2.627   5.999   3.433 -0.5091 -0.5117  0.0491
13872SOL    HW146072   2.563   6.016   3.365  1.8435  0.9161 -1.9726
13872SOL    HW246073   2.648   5.906   3.425 -0.4358 -0.4124 -1.0715
13873SOL     OW46074   7.789   2.341   5.812  0.1558  0.3894  0.0791
13873SOL    HW146075   7.797   2.404   5.741  0.4587 -0.8247 -1.0065
13873SOL    HW246076   7.782   2.256   5.769  2.4081 -0.6232  1.4783
13874SOL     OW46077   6.732   8.398   9.355  0.2676 -0.0516  0.9306
13874SOL    HW146078   6.673   8.470   9.335  1.4735  1.3868  2.2495
13874SOL    HW246079   6.818   8.429   9.327  0.9171 -0.6762  2.1448
13875SOL     OW46080   9.653   0.768   7.867  0.0463 -0.8782  0.0805
13875SOL    HW146081   9.744   0.798   7.873 -0.3461  0.4595 -0.3664
13875SOL    HW246082   9.627   0.753   7.958 -0.4018  2.3590  0.6215
13876SOL     OW46083  10.416   0.573   4.377 -0.1179  0.2115  0.3004
13876SOL    HW146084  10.389   0.595   4.467 -1.2404 -2.2026  0.6432
13876SOL    HW246085  10.415   0.657   4.331 -2.4084  1.1485  1.8407
13877SOL     OW46086   3.603   0.174  10.144  0.2190  0.1249  0.1214
13877SOL    HW146087   3.694   0.203  10.144  0.2994 -0.0386 -1.4948
13877SOL    HW246088   3.553   0.251  10.115  0.0024 -0.1825 -0.3375
13878SOL     OW46089   1.736   0.718   2.962  0.3804 -0.4409 -0.5168
13878SOL    HW146090   1.672   0.724   2.892 -1.0573  0.4207  0.8064
13878SOL    HW246091   1.728   0.801   3.010  1.8721 -0.6720  0.1970
13879SOL     OW46092   7.312   2.383  10.535 -0.4174  0.2237  0.0681
13879SOL    HW146093   7.293   2.467  10.494  0.5116 -1.1226 -3.5916
13879SOL    HW246094   7.229   2.353  10.570 -1.4634  1.3545 -1.3414
13880SOL     OW46095   9.627   5.162   2.022 -0.8814 -0.0013 -0.2358
13880SOL    HW146096   9.708   5.165   1.972 -0.3616  2.0851  0.6120
13880SOL    HW246097   9.566   5.113   1.967  0.8177 -1.2587 -1.0654
13881SOL     OW46098  10.045   9.843   8.720  0.5323  0.1259  0.6246
13881SOL    HW146099   9.983   9.815   8.652 -0.2652 -0.2600  1.4787
13881SOL    HW246100  10.105   9.903   8.676  0.9706 -1.2721 -0.7817
13882SOL     OW46101   0.055   1.779   6.166  0.0610  0.4737  0.0932
13882SOL    HW146102   0.093   1.722   6.099 -0.1264 -1.0088  1.1994
13882SOL    HW246103  -0.008   1.833   6.118 -0.9641 -1.3884 -0.7834
13883SOL     OW46104   3.171   7.289  10.415 -0.1482 -0.4924 -0.5330
13883SOL    HW146105   3.140   7.268  10.503 -0.8144 -1.3080 -0.9470
13883SOL    HW246106   3.265   7.304  10.426 -0.2957 -0.1728  0.3795
13884SOL     OW46107   8.600   1.290   8.345 -0.1432  0.2553 -0.0221
13884SOL    HW146108   8.591   1.348   8.269  0.2977  0.1470 -0.1630
13884SOL    HW246109   8.618   1.349   8.418 -0.5295  0.3579 -0.0099
13885SOL     OW46110   0.256   8.255   5.200  0.7064 -0.5840 -0.0453
13885SOL    HW146111   0.262   8.333   5.145  0.0229  0.9418  1.8785
13885SOL    HW246112   0.162   8.244   5.215  0.8415 -1.3292  0.2767
13886SOL     OW46113   1.111   6.877   1.568 -0.1222 -0.5040 -0.5771
13886SOL    HW146114   1.030   6.889   1.618  0.2000 -0.7343  0.0000
13886SOL    HW246115   1.139   6.788   1.588  0.6256 -0.2065 -0.2523
13887SOL     OW46116   8.743   3.498   6.190 -0.6206 -0.0140 -0.8141
13887SOL    HW146117   8.771   3.424   6.244 -0.5067 -0.6339 -1.7073
13887SOL    HW246118   8.817   3.559   6.194 -0.0111 -0.6957 -1.4245
13888SOL     OW46119   5.356   9.626   7.716 -0.1049 -0.4944  0.1494
13888SOL    HW146120   5.417   9.553   7.705 -0.7496 -0.8936 -0.9634
13888SOL    HW246121   5.397   9.682   7.782  0.1589 -2.0998  1.3916
13889SOL     OW46122   6.509   1.838   6.999  0.5738 -0.3371  0.1521
13889SOL    HW146123   6.435   1.864   7.053  1.3936 -0.5816  1.4535
13889SOL    HW246124   6.571   1.911   7.008 -0.6118  1.2861 -3.3085
13890SOL     OW46125   0.513  10.781   5.689  0.6152  0.1059  0.2721
13890SOL    HW146126   0.571  10.810   5.759  0.4999  1.7616 -0.2873
13890SOL    HW246127   0.548  10.696   5.663  1.3169 -0.0400  1.5812
13891SOL     OW46128   7.911   8.362   0.888  0.6998 -0.1043  0.2523
13891SOL    HW146129   7.993   8.367   0.937  2.2350  3.5980 -2.1955
13891SOL    HW246130   7.856   8.430   0.928  0.9185  1.0305 -1.2976
13892SOL     OW46131  11.027   5.442  10.964 -0.1927  0.0218  0.5962
13892SOL    HW146132  10.995   5.532  10.971  0.8282  0.3401  1.4273
13892SOL    HW246133  11.110   5.442  11.013  1.4473 -0.5914 -1.9793
13893SOL     OW46134   6.645   4.480   4.586  0.3281 -0.0701  0.3087
13893SOL    HW146135   6.636   4.393   4.625  2.1683 -0.6862 -0.5174
13893SOL    HW246136   6.740   4.496   4.587  0.4103  0.2164 -3.1474
13894SOL     OW46137   5.808  10.287   1.362 -0.1096  0.7416 -0.1263
13894SOL    HW146138   5.802  10.333   1.278 -2.5713 -1.1333 -1.1130
13894SOL    HW246139   5.845  10.202   1.339 -1.0445  0.1182  0.6112
13895SOL     OW46140   2.339   2.223   2.244  0.3127 -0.0192 -0.0236
13895SOL    HW146141   2.393   2.231   2.322 -0.7387 -2.6655  1.0651
13895SOL    HW246142   2.373   2.146   2.199 -1.9944 -1.3077  0.3025
13896SOL     OW46143   9.207   5.824   6.897  0.6125  0.4048 -0.1728
13896SOL    HW146144   9.139   5.879   6.937  0.9330  0.1724  0.7147
13896SOL    HW246145   9.164   5.740   6.883  0.8988  0.0210  1.0844
13897SOL     OW46146   7.365  10.987   2.699  0.1546  0.0305  0.0535
13897SOL    HW146147   7.280  10.991   2.743 -0.1198 -0.4529 -0.4312
13897SOL    HW246148   7.397  11.077   2.701 -1.0666  0.5266 -1.1368
13898SOL     OW46149   0.413  10.463   5.559 -0.4688  0.0111  0.1465
13898SOL    HW146150   0.448  10.409   5.488 -1.2611  0.3485 -0.5047
13898SOL    HW246151   0.425  10.553   5.529  0.3989  0.2051  1.0177
13899SOL     OW46152   7.530   9.788  10.138 -0.3121  0.2888 -0.1307
13899SOL    HW146153   7.586   9.730  10.189 -1.1331 -2.0151 -1.6823
13899SOL    HW246154   7.541   9.758  10.048 -0.8408  2.5542 -1.0266
13900SOL     OW46155   0.406  10.958   6.193  0.3836  0.9083  0.8325
13900SOL    HW146156   0.391  10.913   6.276 -0.4281 -0.7348 -0.1592
13900SOL    HW246157   0.458  10.897   6.141  2.5924  2.7059  0.7693
13901SOL     OW46158   7.907   3.074   5.145  0.7777 -0.1757  0.2246
13901SOL    HW146159   7.947   3.149   5.101 -0.0856  1.1860  1.6448
13901SOL    HW246160   7.906   3.005   5.078  3.0894  0.5258 -0.6148
13902SOL     OW46161   7.754   9.346   5.654  0.4523 -0.1203  0.3465
13902SOL    HW146162   7.847   9.372   5.653  0.9687 -1.8298  0.0338
13902SOL    HW246163   7.756   9.250   5.648 -1.2959 -0.3691  2.3851
13903SOL     OW46164   1.616   0.857  11.020  0.4279 -0.7366 -0.2085
13903SOL    HW146165   1.601   0.918  11.093 -1.6178 -0.4712 -0.7731
13903SOL    HW246166   1.681   0.901  10.965 -0.1375  0.4079  0.0071
13904SOL     OW46167   0.074   2.204   9.502  0.0383  0.2118  0.4580
13904SOL    HW146168   0.032   2.231   9.584 -0.3406 -0.7182  0.5853
13904SOL    HW246169   0.020   2.243   9.433 -0.9931 -0.8764  0.6224
13905SOL     OW46170   5.992   3.103   0.202 -0.0062 -0.4396 -0.2790
13905SOL    HW146171   5.938   3.036   0.162  0.7624  0.2072 -2.5186
13905SOL    HW246172   5.952   3.186   0.175  0.4987  0.0304  0.3757
13906SOL     OW46173  10.522   3.790   3.708 -0.3474 -0.6874 -0.0288
13906SOL    HW146174  10.454   3.792   3.775  0.5658 -0.9466  0.9467
13906SOL    HW246175  10.475   3.778   3.626 -1.5137 -0.2117  0.5430
13907SOL     OW46176   2.738   2.361   7.363  0.4990 -0.5020 -0.0130
13907SOL    HW146177   2.715   2.449   7.332  0.9683 -0.0781  0.8148
13907SOL    HW246178   2.802   2.376   7.433  1.6280 -1.5727 -0.7891
13908SOL     OW46179   7.676   6.038   8.018  0.5291 -0.1081  0.0396
13908SOL    HW146180   7.632   6.117   7.984  2.3176  0.8027 -0.2811
13908SOL    HW246181   7.626   5.965   7.980  0.2708  0.8746 -1.6380
13909SOL     OW46182   4.924   5.763   0.906 -0.2011 -1.1260 -0.4362
13909SOL    HW146183   4.982   5.690   0.930 -0.1951 -1.2602 -0.8593
13909SOL    HW246184   4.972   5.841   0.932 -0.9679 -1.3056  1.7326
13910SOL     OW46185   1.997   7.769   6.814  0.5570  0.0762 -0.2578
13910SOL    HW146186   1.993   7.832   6.885  0.4657 -0.8207  0.5547
13910SOL    HW246187   1.911   7.727   6.813  0.6890 -0.1953 -0.6284
13911SOL     OW46188  11.067   3.086   5.407 -0.3973 -0.6275 -0.3952
13911SOL    HW146189  11.027   3.111   5.323 -1.1608 -1.7618 -0.3896
13911SOL    HW246190  11.157   3.063   5.385  0.2001  1.5794 -0.4744
13912SOL     OW46191   6.064  10.263   0.852  0.0008  0.0069 -0.4529
13912SOL    HW146192   6.141  10.296   0.806  0.8660 -1.5810 -0.2114
13912SOL    HW246193   5.996  10.259   0.784  0.4019  0.5441 -0.8907
13913SOL     OW46194   2.015   2.999   3.583 -0.0605 -0.3208 -0.3407
13913SOL    HW146195   1.989   2.920   3.629 -0.2238  0.1248  0.3430
13913SOL    HW246196   1.933   3.047   3.569  0.2143  0.4908  0.7050
13914SOL     OW46197   0.653   1.635   7.902 -0.2811  0.6303  0.1189
13914SOL    HW146198   0.635   1.624   7.809  0.2439 -0.8520  0.1633
13914SOL    HW246199   0.662   1.546   7.935  3.4444  1.1337  0.8152
13915SOL     OW46200   8.808   5.969  10.399  0.2992  0.2279  0.3405
13915SOL    HW146201   8.900   5.989  10.416  0.5389  1.2920 -1.9241
13915SOL    HW246202   8.797   5.880  10.433  2.1530  0.0726  0.6549
13916SOL     OW46203   7.652   4.807   1.846  0.2176  0.3511  0.1410
13916SOL    HW146204   7.689   4.883   1.801  0.3503  0.6816  0.7868
13916SOL    HW246205   7.692   4.732   1.803 -0.0806  0.6362 -0.6477
13917SOL     OW46206   0.598   4.662   8.711  0.0541 -0.5333  0.6273
13917SOL    HW146207   0.680   4.661   8.761  0.4587  1.1225  0.0395
13917SOL    HW246208   0.600   4.744   8.663 -0.9900 -1.4344 -1.0334
13918SOL     OW46209   7.906   9.766   0.199 -0.3603 -0.5934  0.0554
13918SOL    HW146210   7.869   9.818   0.127  1.4748  1.0056  0.1697
13918SOL    HW246211   7.843   9.696   0.213 -2.8719  1.4212 -0.3376
13919SOL     OW46212   6.268   9.534   1.580 -0.2613  0.2338  0.7021
13919SOL    HW146213   6.223   9.503   1.502 -0.5109  0.3220  0.8123
13919SOL    HW246214   6.297   9.622   1.558  0.1261  0.0676  0.5228
13920SOL     OW46215   6.404   0.762   6.109 -0.3040  0.6069 -0.3449
13920SOL    HW146216   6.356   0.692   6.065 -1.2821  1.4135 -0.5916
13920SOL    HW246217   6.427   0.824   6.039  0.3967  0.6267 -0.1057
13921SOL     OW46218  10.051   5.873   0.472  0.3807  0.0722  0.2623
13921SOL    HW146219  10.125   5.893   0.530  0.4341  0.4849  0.0564
13921SOL    HW246220  10.090   5.822   0.401  0.7612  1.5422 -0.6237
13922SOL     OW46221   8.193   0.315   9.850  0.5275 -0.2497  0.2772
13922SOL    HW146222   8.231   0.342   9.934 -1.6105 -2.3914  2.0748
13922SOL    HW246223   8.102   0.344   9.855  0.8060  1.3814 -2.2710
13923SOL     OW46224   5.642   3.694   6.936 -0.1195  0.6385  0.2781
13923SOL    HW146225   5.722   3.745   6.930  0.0973  0.2903  0.1485
13923SOL    HW246226   5.579   3.753   6.977  1.0210  0.0061  3.2319
13924SOL     OW46227   1.890   2.844   1.698  0.1068  0.0335  0.0540
13924SOL    HW146228   1.814   2.841   1.640 -1.0493  1.6340  1.3978
13924SOL    HW246229   1.914   2.936   1.701  2.4010 -0.4861 -0.6474
13925SOL     OW46230   9.729   1.943   9.846  0.1707  0.1255  0.0474
13925SOL    HW146231   9.795   1.894   9.798 -0.6237  0.4505 -1.4608
13925SOL    HW246232   9.679   1.876   9.893  0.8191 -0.2256  0.2517
13926SOL     OW46233   3.536   5.524   1.263 -0.2312 -0.1643 -0.2826
13926SOL    HW146234   3.543   5.614   1.293 -0.4081 -0.1215 -0.3687
13926SOL    HW246235   3.556   5.527   1.170 -1.8938  0.0505 -0.6652
13927SOL     OW46236   3.939   0.908   1.950 -0.0019 -0.4653 -0.3196
13927SOL    HW146237   3.904   0.840   1.892 -0.1446 -0.0238 -0.7586
13927SOL    HW246238   3.865   0.967   1.965 -0.0747 -0.7984  0.6471
13928SOL     OW46239   5.361   6.103   2.862 -0.2129 -0.3299 -0.6509
13928SOL    HW146240   5.377   6.195   2.882  0.8942 -0.6390  0.0066
13928SOL    HW246241   5.270   6.088   2.887 -0.1402  0.3768  0.0701
13929SOL     OW46242  10.453   0.455   3.102  0.4490 -0.0406  0.2275
13929SOL    HW146243  10.427   0.450   3.010  0.9483  1.0094  0.0209
13929SOL    HW246244  10.370   0.445   3.150  0.0554  0.3460 -0.3546
13930SOL     OW46245   7.648   5.563   3.800  0.5787  0.1321 -0.1109
13930SOL    HW146246   7.564   5.603   3.824  0.9584  0.6251  0.4410
13930SOL    HW246247   7.634   5.469   3.810  0.2147  0.2364  0.3915
13931SOL     OW46248   5.152   5.874   5.928 -0.1207  1.0416  0.5746
13931SOL    HW146249   5.136   5.831   6.012  2.1999 -2.0551 -0.3883
13931SOL    HW246250   5.245   5.894   5.929  1.2224 -3.5010 -2.8721
13932SOL     OW46251   2.753   2.801  10.154  0.1877  0.1429 -0.5077
13932SOL    HW146252   2.733   2.885  10.196  1.5758  0.2380  0.0076
13932SOL    HW246253   2.746   2.819  10.061 -0.0709  0.6936 -0.3888
13933SOL     OW46254   6.738   9.555   9.397  0.5260  0.7801  0.6614
13933SOL    HW146255   6.691   9.471   9.393 -0.2277  1.2031  0.3786
13933SOL    HW246256   6.749   9.580   9.305  0.8655  0.9265  0.7434
13934SOL     OW46257   8.424   3.174   4.405 -0.2314 -0.0528  0.2849
13934SOL    HW146258   8.332   3.165   4.378  0.0958  0.0739 -0.9680
13934SOL    HW246259   8.438   3.269   4.409 -0.1045 -0.0692  0.2441
13935SOL     OW46260   6.714   0.932   0.056  0.4335 -0.2178  0.2956
13935SOL    HW146261   6.640   0.959   0.111  0.4768 -0.5013  0.5006
13935SOL    HW246262   6.674   0.881  -0.014  0.2248  1.3959 -0.7994
13936SOL     OW46263   0.927   9.465   5.817  0.0850 -0.0601  0.0474
13936SOL    HW146264   0.863   9.513   5.870  0.6914  1.7713 -0.8255
13936SOL    HW246265   1.012   9.488   5.855  0.3927 -0.5060 -0.3556
13937SOL     OW46266   5.136   6.701   7.028 -0.3385  0.3567  0.4523
13937SOL    HW146267   5.127   6.773   6.966 -1.9671  0.0962  0.3600
13937SOL    HW246268   5.129   6.622   6.975 -1.4121  0.1326  0.9168
13938SOL     OW46269   7.644  10.964   2.510 -0.1985  0.0328 -0.2227
13938SOL    HW146270   7.732  10.942   2.479  0.1298 -0.4061  0.9502
13938SOL    HW246271   7.651  11.055   2.540 -0.6410  0.6211 -1.8217
13939SOL     OW46272   1.445   5.259   3.737 -0.8338 -0.2406 -0.2171
13939SOL    HW146273   1.353   5.237   3.752 -0.8366  0.3757  0.7814
13939SOL    HW246274   1.444   5.352   3.714 -0.2539  0.6454  2.8723
13940SOL     OW46275   2.364   9.503   5.721 -0.5425  0.0102 -0.0808
13940SOL    HW146276   2.345   9.494   5.814 -0.9411  0.9943 -0.0513
13940SOL    HW246277   2.431   9.437   5.703  0.0094  0.2408  1.0557
13941SOL     OW46278   4.030   2.246   0.245  0.6331 -0.1004 -0.0753
13941SOL    HW146279   3.953   2.225   0.193  1.0823 -1.2431 -0.3250
13941SOL    HW246280   3.996   2.291   0.323 -0.0791  1.2692 -1.1470
13942SOL     OW46281   6.185   9.261   6.353  0.0664  0.3374 -0.0011
13942SOL    HW146282   6.207   9.266   6.260 -0.1729  4.5280 -0.0276
13942SOL    HW246283   6.234   9.185   6.385  1.5632 -0.2045 -3.1863
13943SOL     OW46284   4.046   6.564   7.543 -0.3277 -0.0023  0.4658
13943SOL    HW146285   4.061   6.480   7.499  0.4417  0.3642  0.0038
13943SOL    HW246286   4.089   6.628   7.486 -1.2008  0.7461  0.6459
13944SOL     OW46287   0.730   0.747   4.429  0.3018 -0.0144  0.1604
13944SOL    HW146288   0.648   0.794   4.430 -0.6181 -1.5422  0.2707
13944SOL    HW246289   0.743   0.719   4.520  2.0666  2.0090  0.5989
13945SOL     OW46290   7.808   1.032   2.800  0.0945  0.0325  0.3402
13945SOL    HW146291   7.741   0.966   2.814  1.0531 -1.2851 -1.0179
13945SOL    HW246292   7.798   1.058   2.709 -0.9870  2.6629  1.1039
13946SOL     OW46293   9.255   6.300   7.011 -0.1026  0.1152  0.1098
13946SOL    HW146294   9.177   6.253   7.041  0.9999 -1.8894 -0.0182
13946SOL    HW246295   9.278   6.259   6.928  2.2766 -0.8241  1.1436
13947SOL     OW46296   6.575  10.749   8.174  0.2334  0.5344  0.9476
13947SOL    HW146297   6.511  10.683   8.145  0.6841 -0.5660  2.3455
13947SOL    HW246298   6.531  10.833   8.159 -0.9059 -0.1221  0.4074
13948SOL     OW46299   8.805   6.654   7.862  0.3356 -0.1304  0.2167
13948SOL    HW146300   8.742   6.602   7.811  1.0497  2.0731 -3.2509
13948SOL    HW246301   8.755   6.730   7.891  0.8564  0.5784 -0.7036
13949SOL     OW46302   9.475   7.578   8.211 -0.4122 -0.4318 -0.2408
13949SOL    HW146303   9.516   7.664   8.199 -2.4570  0.6900  0.4739
13949SOL    HW246304   9.423   7.586   8.291 -1.5338 -1.9876 -0.7629
13950SOL     OW46305   0.775   6.991   7.932 -0.7063 -0.1550  0.0353
13950SOL    HW146306   0.816   6.909   7.958  2.5677  1.6728  1.1281
13950SOL    HW246307   0.724   7.018   8.009 -3.1003 -1.7828 -0.8636
13951SOL     OW46308  11.006   0.053   6.696  0.0136  0.2146  0.9255
13951SOL    HW146309  11.067   0.035   6.768  0.5239  0.9573  0.6938
13951SOL    HW246310  10.966   0.136   6.720 -1.2825 -0.4905  1.3070
13952SOL     OW46311   9.238   7.228   7.418  0.2059 -0.5354  0.3423
13952SOL    HW146312   9.214   7.143   7.380  1.9066 -1.9346  2.1616
13952SOL    HW246313   9.212   7.222   7.510  0.8076  0.7016  0.6199
13953SOL     OW46314   8.487   7.436  10.312 -0.2513  0.3550 -0.7422
13953SOL    HW146315   8.410   7.470  10.266 -1.3372 -2.0199 -0.8201
13953SOL    HW246316   8.462   7.437  10.404  0.2606  1.0587 -0.6033
13954SOL     OW46317   5.788   3.972   9.196 -0.2226 -0.2087 -0.2579
13954SOL    HW146318   5.697   3.950   9.211 -0.2463 -0.0046 -0.0998
13954SOL    HW246319   5.834   3.887   9.197 -0.4829 -0.3684 -0.8936
13955SOL     OW46320   9.953   5.972   1.565  0.0494  0.2202 -0.8530
13955SOL    HW146321  10.008   5.950   1.490 -0.5528 -1.3081 -0.8807
13955SOL    HW246322   9.881   6.023   1.528  0.5826  0.8471 -1.0510
13956SOL     OW46323   8.219   8.837   0.585  0.0853  0.3517 -0.1313
13956SOL    HW146324   8.265   8.921   0.580 -0.5484  0.6977 -0.1744
13956SOL    HW246325   8.136   8.852   0.539 -0.1220 -0.2390  0.0423
13957SOL     OW46326   4.722   0.066   6.248  0.2291 -0.1632 -0.3595
13957SOL    HW146327   4.741   0.027   6.162  0.8569 -0.4383 -0.1000
13957SOL    HW246328   4.734   0.160   6.234 -1.3957 -0.0265 -1.0152
13958SOL     OW46329   1.938   9.222   1.769 -0.2859 -0.3081 -0.0748
13958SOL    HW146330   1.848   9.206   1.798  0.3463 -1.2267  1.5422
13958SOL    HW246331   1.957   9.149   1.711 -0.7892  0.2492 -0.9551
13959SOL     OW46332   5.500   0.748   9.106 -0.0093  0.1628  0.5914
13959SOL    HW146333   5.416   0.720   9.142 -0.5724 -0.9102 -1.4113
13959SOL    HW246334   5.518   0.685   9.036  1.7085  1.2908 -0.0424
13960SOL     OW46335   6.651   8.253   4.625  0.3888 -0.3438 -0.0684
13960SOL    HW146336   6.638   8.304   4.705 -0.3627  0.4242 -0.6606
13960SOL    HW246337   6.680   8.168   4.656 -2.1693 -0.8753  1.2042
13961SOL     OW46338   8.984   1.531   0.749  0.3979  0.1447 -0.5143
13961SOL    HW146339   9.052   1.466   0.770  0.3882  0.2965 -0.0030
13961SOL    HW246340   9.033   1.611   0.729  0.3635  0.2871 -0.0251
13962SOL     OW46341   9.121   3.656   0.220 -0.6308 -0.4060 -0.0054
13962SOL    HW146342   9.077   3.584   0.174 -0.4945 -0.4113 -0.1287
13962SOL    HW246343   9.055   3.724   0.228 -0.2543  0.1658 -1.4857
13963SOL     OW46344   7.848   6.807   8.969  0.0220 -1.2974 -0.2072
13963SOL    HW146345   7.754   6.814   8.956  0.4082 -0.5832 -3.1219
13963SOL    HW246346   7.865   6.857   9.049 -1.8770 -0.0474 -0.5280
13964SOL     OW46347  10.404   6.229   4.783 -0.0379  0.0121  0.2069
13964SOL    HW146348  10.342   6.176   4.832 -0.3493  0.2435  0.0703
13964SOL    HW246349  10.365   6.317   4.782 -1.0000 -0.3687 -2.0422
13965SOL     OW46350   1.974  10.744   2.324 -0.1129 -0.1337  0.1788
13965SOL    HW146351   1.912  10.740   2.396 -1.1320 -1.3088 -0.7170
13965SOL    HW246352   2.031  10.668   2.337 -1.4962 -1.4992 -1.2308
13966SOL     OW46353   7.387   5.628   6.339 -0.0280  0.4903 -0.0665
13966SOL    HW146354   7.294   5.649   6.350 -0.3984 -1.2252  0.3417
13966SOL    HW246355   7.404   5.562   6.406  1.7997  1.6334  0.6478
13967SOL     OW46356   4.168   3.396   9.955 -0.1235  0.0235  0.2595
13967SOL    HW146357   4.186   3.308   9.989  0.6885  0.2282  0.3830
13967SOL    HW246358   4.091   3.425  10.004 -0.8459 -0.8972 -0.3071
13968SOL     OW46359   5.004   3.573   5.351 -0.2227  0.7313  0.0543
13968SOL    HW146360   4.961   3.502   5.398 -0.6971  1.4626  0.7427
13968SOL    HW246361   4.932   3.625   5.315  0.0769 -0.6676 -2.9140
13969SOL     OW46362   0.072   3.531   3.245 -0.5298 -0.9667 -0.2096
13969SOL    HW146363   0.089   3.576   3.162  2.3804 -0.5107  0.5130
13969SOL    HW246364   0.076   3.438   3.224  0.3562 -0.8549 -0.5794
13970SOL     OW46365   8.383   1.949   3.081  0.0927  0.0461  0.4983
13970SOL    HW146366   8.443   1.941   3.155 -0.4917  0.1133  0.9884
13970SOL    HW246367   8.382   1.863   3.040 -0.8759 -0.4985  1.5991
13971SOL     OW46368   4.497   1.136   9.382 -0.3780 -0.4742 -0.7805
13971SOL    HW146369   4.414   1.097   9.408 -1.0736  1.0867 -0.5501
13971SOL    HW246370   4.530   1.178   9.461 -1.7762  3.0307 -1.8734
13972SOL     OW46371   3.471   6.328   4.730  0.5153 -0.5762  0.6240
13972SOL    HW146372   3.424   6.245   4.731 -0.8250  0.0869 -1.4348
13972SOL    HW246373   3.502   6.337   4.640  0.3323  1.3020  0.7011
13973SOL     OW46374   4.823   3.375   6.634 -0.1910 -0.5229 -0.8070
13973SOL    HW146375   4.748   3.317   6.623  0.0320 -1.1754  0.8246
13973SOL    HW246376   4.797   3.436   6.703  0.1610  0.3680 -1.4284
13974SOL     OW46377   2.287  10.729   4.744  0.0916 -0.5744  0.4172
13974SOL    HW146378   2.216  10.738   4.680  0.7624 -1.9710 -0.5703
13974SOL    HW246379   2.316  10.819   4.759 -0.4241 -0.1677 -0.8634
13975SOL     OW46380   2.258   1.597   7.483  0.4152  0.4044  0.6435
13975SOL    HW146381   2.227   1.555   7.563  0.8135 -1.0192  0.0709
13975SOL    HW246382   2.210   1.554   7.412  0.4673  1.2733  0.0560
13976SOL     OW46383   1.236   5.378   3.537 -0.1590  0.0742 -0.0073
13976SOL    HW146384   1.237   5.284   3.555  0.3326  0.2670  1.0993
13976SOL    HW246385   1.237   5.384   3.442  4.2695 -1.0950 -0.2653
13977SOL     OW46386   8.426   8.693   6.399  0.1525 -0.8607 -0.7976
13977SOL    HW146387   8.351   8.749   6.379 -0.7612 -1.3561  0.9818
13977SOL    HW246388   8.503   8.747   6.381 -0.6351 -0.0557 -1.8608
13978SOL     OW46389   5.333   1.702   7.928 -0.0756  0.2678 -0.2383
13978SOL    HW146390   5.308   1.699   8.020 -1.4714  0.2587 -0.6049
13978SOL    HW246391   5.310   1.616   7.893 -1.9867  1.1085 -1.1771
13979SOL     OW46392  10.651   4.694   3.804 -0.3930  0.3549 -0.3233
13979SOL    HW146393  10.618   4.766   3.857  1.0534 -0.5754  2.0261
13979SOL    HW246394  10.746   4.698   3.814 -0.2641 -1.9677  0.0838
13980SOL     OW46395   8.716   1.526   4.521  0.0324 -0.2541 -0.7155
13980SOL    HW146396   8.759   1.516   4.436 -1.8532  2.5725 -2.1512
13980SOL    HW246397   8.749   1.609   4.555 -0.6436 -0.4280  0.4187
13981SOL     OW46398   2.204  10.819   5.019  0.3936 -0.4859  0.0348
13981SOL    HW146399   2.164  10.901   5.048 -0.1630 -0.2512 -1.3135
13981SOL    HW246400   2.158  10.797   4.938  0.9173 -1.8455  0.0752
13982SOL     OW46401   5.881   5.627   8.197  0.4551  0.2662  0.3165
13982SOL    HW146402   5.822   5.627   8.122  0.5287 -1.5902  0.1978
13982SOL    HW246403   5.968   5.637   8.160  0.5362 -1.1546  0.0692
13983SOL     OW46404   1.194   6.452   8.980  0.1473 -0.4440  0.0113
13983SOL    HW146405   1.274   6.457   9.032  0.7424  1.4840 -1.0055
13983SOL    HW246406   1.223   6.462   8.889 -1.0349 -2.0976 -0.6013
13984SOL     OW46407   4.710   6.478   6.004  0.0419 -0.0784  0.6864
13984SOL    HW146408   4.712   6.407   6.068  1.4744 -0.6277  0.0703
13984SOL    HW246409   4.802   6.500   5.989 -0.1783 -0.4090 -1.6224
13985SOL     OW46410   7.389  10.870   6.065 -0.3023 -0.4343  0.1953
13985SOL    HW146411   7.329  10.939   6.036  0.9635  0.4928 -0.3571
13985SOL    HW246412   7.430  10.839   5.984 -0.6895 -1.7037  0.4695
13986SOL     OW46413   3.521  10.059   2.501  0.1364  0.5442  0.0444
13986SOL    HW146414   3.525   9.964   2.511 -0.7428  0.4922  0.0355
13986SOL    HW246415   3.502  10.073   2.408 -0.4262  0.6939  0.1762
13987SOL     OW46416   1.333   3.573  10.584  0.4228 -0.0990 -0.2544
13987SOL    HW146417   1.418   3.586  10.543  0.5707  1.0325  0.3675
13987SOL    HW246418   1.305   3.661  10.609  0.8031 -0.7749  2.9373
13988SOL     OW46419   2.253   6.414   3.841  0.1551  0.0437 -0.9395
13988SOL    HW146420   2.330   6.434   3.788  0.0532  0.7124 -0.8426
13988SOL    HW246421   2.201   6.494   3.838  0.2756  0.1892  0.3954
13989SOL     OW46422   4.087   4.403   4.487 -0.1821 -0.2308 -0.2538
13989SOL    HW146423   4.072   4.313   4.457 -0.1390  0.1953 -1.5788
13989SOL    HW246424   4.143   4.392   4.564 -0.1678 -1.3407 -0.3954
13990SOL     OW46425   0.512   1.371  10.550  0.2904 -0.4272  0.2681
13990SOL    HW146426   0.427   1.355  10.591 -0.2163  0.6399 -0.3325
13990SOL    HW246427   0.562   1.419  10.617 -0.2525  0.5986 -0.0401
13991SOL     OW46428   8.964   0.583   8.837  0.0329 -0.3404 -0.1533
13991SOL    HW146429   8.985   0.605   8.928 -1.1312  1.1584 -0.2153
13991SOL    HW246430   8.872   0.557   8.839  0.4579 -1.9409 -0.6573
13992SOL     OW46431  10.353   7.544   8.287 -0.1258 -0.0521  0.3741
13992SOL    HW146432  10.342   7.580   8.198 -1.0037  1.5516  1.0780
13992SOL    HW246433  10.276   7.489   8.300 -0.9591  1.1526  0.7540
13993SOL     OW46434   8.779   8.428   3.264  0.1224 -0.2579  0.7062
13993SOL    HW146435   8.832   8.379   3.327  4.3233  0.7929 -1.6419
13993SOL    HW246436   8.757   8.509   3.310  1.4163 -0.3214  1.4991
13994SOL     OW46437   1.032   2.048   2.055 -0.5788  0.1409 -0.1709
13994SOL    HW146438   1.017   2.124   2.112  2.9061 -0.6215  2.0627
13994SOL    HW246439   1.023   1.972   2.113  2.1284 -0.7206 -0.7612
13995SOL     OW46440   5.682   1.417   9.863 -0.6383 -0.4223 -0.0347
13995SOL    HW146441   5.687   1.396   9.770 -0.8158 -1.0062  0.0873
13995SOL    HW246442   5.667   1.333   9.907  1.1872 -0.4257  0.6748
13996SOL     OW46443   1.011   8.070   3.420  0.1242 -0.2211  0.1707
13996SOL    HW146444   1.084   8.117   3.382 -0.6142  0.1781 -0.8038
13996SOL    HW246445   0.943   8.072   3.352 -0.3536 -1.6434  0.5701
13997SOL     OW46446   2.289   9.237   9.876 -0.5662 -0.3947 -0.0865
13997SOL    HW146447   2.340   9.264   9.799  1.1236 -2.0464  0.3865
13997SOL    HW246448   2.243   9.158   9.848 -1.4275  0.0391  0.0673
13998SOL     OW46449   6.872   9.844   7.212  0.8147  0.5872 -0.2580
13998SOL    HW146450   6.815   9.806   7.145  1.7559 -0.0547 -0.7005
13998SOL    HW246451   6.817   9.847   7.291  0.7268 -1.7454 -0.1846
13999SOL     OW46452   8.615   9.686   0.543  0.8095 -0.1637  0.3649
13999SOL    HW146453   8.586   9.615   0.486 -1.1369 -0.6101  1.8032
13999SOL    HW246454   8.658   9.641   0.616 -0.7227  0.0519  1.4455
14000SOL     OW46455   3.084   8.469   3.348  0.1824  0.6134 -0.5364
14000SOL    HW146456   3.084   8.565   3.356 -0.1348  0.5241  0.7369
14000SOL    HW246457   3.063   8.453   3.256 -0.4801  1.7712 -0.6111
14001SOL     OW46458   6.973   5.373   0.762 -0.0032 -0.3274 -0.3961
14001SOL    HW146459   6.928   5.457   0.748  1.7333  0.2577 -3.2224
14001SOL    HW246460   6.904   5.307   0.753 -1.2106  0.6866  0.8519
14002SOL     OW46461   5.978   1.710   0.745  0.3724  0.2303 -0.6665
14002SOL    HW146462   5.910   1.739   0.684  0.9559  0.5714 -1.1646
14002SOL    HW246463   5.966   1.615   0.750  0.6149  0.1280 -1.6989
14003SOL     OW46464   3.525   4.521   4.093 -0.2138  0.4944  0.5301
14003SOL    HW146465   3.538   4.616   4.102 -0.0879  0.4859  0.4365
14003SOL    HW246466   3.431   4.509   4.097 -0.1798  0.4911  1.9655
14004SOL     OW46467   5.060   0.059   8.080  0.2296  0.3974  0.1401
14004SOL    HW146468   5.136   0.116   8.093 -0.5824  1.3483  0.8688
14004SOL    HW246469   5.008   0.070   8.160  0.2092 -1.6503  0.4659
14005SOL     OW46470   3.602   9.489   3.274 -0.7503  0.3369 -0.1994
14005SOL    HW146471   3.630   9.397   3.279 -0.0119  0.5862  0.4448
14005SOL    HW246472   3.565   9.497   3.186  1.1264 -0.0706 -1.0823
14006SOL     OW46473   2.782   8.566   3.751 -0.6981 -0.3482 -0.6704
14006SOL    HW146474   2.719   8.498   3.776  0.1828 -1.5274 -1.5305
14006SOL    HW246475   2.828   8.529   3.675  0.5760  0.7534 -0.4663
14007SOL     OW46476   6.610   2.133   3.221  0.3776 -0.0727 -0.6584
14007SOL    HW146477   6.668   2.165   3.290 -1.1095  1.0491  0.1403
14007SOL    HW246478   6.668   2.105   3.151  1.8790  0.5461  0.2951
14008SOL     OW46479   4.390   1.661   8.843 -0.2232  0.0460  0.1021
14008SOL    HW146480   4.404   1.746   8.800 -1.0197 -0.1503 -0.5692
14008SOL    HW246481   4.386   1.681   8.936 -1.1753  0.8565 -0.1015
14009SOL     OW46482   1.894   9.766   2.813 -0.1007 -0.2493  0.4795
14009SOL    HW146483   1.952   9.820   2.867 -0.5840 -0.3158  1.0873
14009SOL    HW246484   1.826   9.736   2.874 -1.1914  0.4336 -0.3692
14010SOL     OW46485   2.738   5.026   5.765  0.0052  0.7048 -0.0706
14010SOL    HW146486   2.809   5.006   5.826 -0.3004  1.1418  0.4455
14010SOL    HW246487   2.739   4.954   5.702  2.7877  2.1357 -1.8652
14011SOL     OW46488   8.762   9.613   9.256  0.5775 -0.0427  0.2259
14011SOL    HW146489   8.841   9.661   9.231  1.1025 -0.5775  0.7932
14011SOL    HW246490   8.729   9.577   9.174  0.1758  1.2650 -0.2008
14012SOL     OW46491   7.010   0.533   2.857 -0.0360  0.1782  0.2897
14012SOL    HW146492   7.078   0.474   2.826 -0.8203  0.4698 -2.2520
14012SOL    HW246493   6.929   0.481   2.855 -0.5776  1.0071 -1.0828
14013SOL     OW46494   5.619   7.307   6.531 -0.2889  0.0755 -0.2877
14013SOL    HW146495   5.587   7.220   6.510 -2.3220  0.8458 -0.6344
14013SOL    HW246496   5.577   7.365   6.467  0.6026  1.3778  0.2423
14014SOL     OW46497   6.361   5.124  10.994  0.0541 -0.0952  0.2176
14014SOL    HW146498   6.329   5.210  10.969 -0.1655  0.1087  1.1391
14014SOL    HW246499   6.307   5.062  10.944  0.2647  0.2952 -0.4999
14015SOL     OW46500   7.344   3.440   8.340 -0.3690 -0.1788 -0.0850
14015SOL    HW146501   7.291   3.426   8.262  0.7143 -0.9778 -0.7119
14015SOL    HW246502   7.292   3.499   8.395 -0.9024  0.8573 -1.6481
14016SOL     OW46503   9.035   6.690  10.824 -0.3684  0.0244  0.0682
14016SOL    HW146504   9.062   6.605  10.858 -1.1794  0.3592  1.6457
14016SOL    HW246505   9.100   6.752  10.857  1.2566 -0.1348 -2.5407
14017SOL     OW46506   7.171   2.894   0.291 -0.2876 -0.1543  0.2487
14017SOL    HW146507   7.237   2.838   0.332  0.5035  0.4378 -0.1956
14017SOL    HW246508   7.102   2.833   0.263 -0.2045 -0.7133  1.2133
14018SOL     OW46509   5.926   0.404   4.560 -0.2421 -0.1070 -0.0616
14018SOL    HW146510   5.970   0.413   4.645 -0.2421 -1.0355  0.0408
14018SOL    HW246511   5.892   0.492   4.542  1.6524  0.6528 -0.1602
14019SOL     OW46512   3.655  10.880   5.159  0.2389  0.2057  0.0928
14019SOL    HW146513   3.640  10.805   5.100 -0.5349  0.4432 -0.0202
14019SOL    HW246514   3.743  10.911   5.135  0.1695 -0.0578 -0.5378
14020SOL     OW46515   3.918  11.068   6.174 -0.3827 -0.1659  0.1489
14020SOL    HW146516   4.001  11.101   6.209 -0.6120  1.3509 -0.6487
14020SOL    HW246517   3.940  10.982   6.139  1.0674  0.5191 -0.7412
14021SOL     OW46518   1.758   3.400   6.637 -0.2707  0.5080 -0.4413
14021SOL    HW146519   1.728   3.363   6.554  3.2962 -1.4857 -1.0561
14021SOL    HW246520   1.766   3.325   6.695 -0.3663  1.5347  0.9532
14022SOL     OW46521   8.531   7.816   0.082 -0.5010  0.2723  0.1546
14022SOL    HW146522   8.570   7.863   0.155 -1.3770 -1.6481  1.9618
14022SOL    HW246523   8.472   7.879   0.042 -0.4267  1.2169  1.4777
14023SOL     OW46524   5.758   2.865   4.916  0.0950  0.3071 -0.3455
14023SOL    HW146525   5.789   2.907   4.836 -0.2845  2.0980  0.3995
14023SOL    HW246526   5.781   2.925   4.986 -0.0278 -0.9852  0.8635
14024SOL     OW46527   8.853   4.100   8.557 -0.2548  0.2284  0.0671
14024SOL    HW146528   8.781   4.094   8.494  1.1645  0.7441 -1.6613
14024SOL    HW246529   8.896   4.014   8.553 -0.2202  0.2274  0.4232
14025SOL     OW46530   1.802   5.155  10.183  0.1186 -0.1993  0.4132
14025SOL    HW146531   1.857   5.113  10.248  1.2649  1.5714  0.6662
14025SOL    HW246532   1.863   5.201  10.125 -0.9930  0.3080 -0.4195
14026SOL     OW46533   5.686   0.635  10.859 -0.5015 -0.2933  0.1231
14026SOL    HW146534   5.720   0.695  10.793 -0.8384  0.5166  0.6656
14026SOL    HW246535   5.679   0.551  10.814 -1.4361  0.3965 -1.0906
14027SOL     OW46536   4.598   4.410  10.806  0.0444  0.1472  0.0329
14027SOL    HW146537   4.511   4.399  10.768  0.2963  0.0587 -0.5193
14027SOL    HW246538   4.600   4.349  10.880  0.0739 -0.7514 -0.6961
14028SOL     OW46539   6.901   2.884   3.476 -0.1819  0.2420  0.3111
14028SOL    HW146540   6.979   2.847   3.435 -0.5324  0.4122 -0.5540
14028SOL    HW246541   6.886   2.830   3.553  0.8479  0.2825  0.5542
14029SOL     OW46542   1.484   9.728   4.223  0.4372  0.2632  0.4781
14029SOL    HW146543   1.510   9.736   4.131  0.3888 -0.6173  0.3794
14029SOL    HW246544   1.396   9.691   4.219  0.4823  0.1120  0.8803
14030SOL     OW46545   3.502   2.547   1.385 -0.4146 -0.3817  0.2305
14030SOL    HW146546   3.470   2.459   1.365  0.5409 -0.3470 -1.6177
14030SOL    HW246547   3.598   2.537   1.389 -0.2075  0.7760 -1.1885
14031SOL     OW46548   5.693   1.316   9.612 -0.2458  0.3294 -0.2366
14031SOL    HW146549   5.643   1.267   9.547 -0.6370 -0.3064  0.5297
14031SOL    HW246550   5.784   1.308   9.584 -0.4788  0.9090 -1.2539
14032SOL     OW46551   7.845   3.384   7.386 -0.7654  0.4780 -0.1056
14032SOL    HW146552   7.928   3.339   7.372 -1.3860 -0.0690 -2.4874
14032SOL    HW246553   7.832   3.382   7.481  1.7226  0.2427  0.2888
14033SOL     OW46554   6.878   3.614   5.623 -0.4843 -0.7969  0.2076
14033SOL    HW146555   6.843   3.554   5.557 -1.0136  0.7298 -0.9577
14033SOL    HW246556   6.811   3.681   5.632  0.7205  0.4290  0.3602
14034SOL     OW46557   9.819  10.926   1.327 -0.1327  0.5876 -0.2084
14034SOL    HW146558   9.846  10.891   1.242 -2.0991  1.3618 -1.2187
14034SOL    HW246559   9.854  11.016   1.327  1.3848  0.0274  0.6062
14035SOL     OW46560  10.929   9.466   1.522 -0.1568  0.1367  0.1344
14035SOL    HW146561  10.999   9.406   1.496 -0.3323 -0.1682  0.3579
14035SOL    HW246562  10.925   9.460   1.617  0.5917  1.3776  0.2719
14036SOL     OW46563   5.326   6.125   1.163 -0.0831 -0.4563  0.0020
14036SOL    HW146564   5.237   6.146   1.192 -0.2160 -0.6306 -0.2782
14036SOL    HW246565   5.368   6.086   1.240  0.4180  1.5241  0.8051
14037SOL     OW46566   4.151   8.798   2.720 -0.0834 -0.3734 -0.0260
14037SOL    HW146567   4.189   8.718   2.685  0.1106 -0.0864 -0.4775
14037SOL    HW246568   4.189   8.869   2.668 -1.5315 -0.1007 -0.7656
14038SOL     OW46569   7.777   0.765   2.457  0.7180  0.6807 -0.0126
14038SOL    HW146570   7.865   0.803   2.451  0.9230  0.4033  1.0809
14038SOL    HW246571   7.746   0.789   2.544  0.4175 -0.7146  0.2844
14039SOL     OW46572   1.194   0.482   2.048 -0.7973 -0.2923 -0.1227
14039SOL    HW146573   1.215   0.468   2.140 -1.7837 -0.3466  0.1005
14039SOL    HW246574   1.110   0.439   2.035 -0.6213 -0.3805 -1.0797
14040SOL     OW46575   2.037   2.189   8.525 -0.0099  0.6683 -0.1449
14040SOL    HW146576   2.025   2.257   8.459  0.9846  1.7210  0.7109
14040SOL    HW246577   1.969   2.208   8.590  0.8037  1.4057  0.5170
14041SOL     OW46578  10.522   3.071   8.192  0.1257 -0.4284  0.2726
14041SOL    HW146579  10.476   3.100   8.271 -1.4683 -0.5259 -0.5810
14041SOL    HW246580  10.517   3.146   8.132 -2.9149 -1.8669 -1.4831
14042SOL     OW46581   8.597   2.009   7.233  0.4085 -0.0802 -0.4519
14042SOL    HW146582   8.650   2.061   7.293 -1.9048 -0.0389  1.6966
14042SOL    HW246583   8.660   1.975   7.169  2.7629  1.0864  1.1103
14043SOL     OW46584   3.973   7.721   1.596  0.0338  0.4317  0.9805
14043SOL    HW146585   4.064   7.748   1.585  0.0709  0.7299  1.8878
14043SOL    HW246586   3.974   7.666   1.675 -0.9365  2.4446  2.4897
14044SOL     OW46587   1.201   5.620   1.764  0.5339 -0.1422  0.1770
14044SOL    HW146588   1.203   5.531   1.800  0.0708 -0.1255  0.2508
14044SOL    HW246589   1.290   5.653   1.775  1.1258 -1.1669 -1.3065
14045SOL     OW46590   4.065   2.477   7.126 -0.1386 -0.0802  0.7495
14045SOL    HW146591   4.090   2.392   7.089 -0.7013  0.1314 -0.1429
14045SOL    HW246592   3.994   2.457   7.187 -1.2978 -0.0928 -0.5769
14046SOL     OW46593   9.067   5.015   7.259  0.3523 -0.0936 -0.1027
14046SOL    HW146594   9.048   5.104   7.230 -2.4848 -0.8693 -0.9435
14046SOL    HW246595   9.070   5.021   7.355 -1.7804  0.6498 -0.0335
14047SOL     OW46596   1.392   6.150  11.030 -0.3837 -0.1292  0.1361
14047SOL    HW146597   1.313   6.098  11.044 -0.2653 -0.4294 -0.2862
14047SOL    HW246598   1.378   6.229  11.082 -1.1912  0.0566 -0.3366
14048SOL     OW46599   7.778   6.907   8.492 -0.1036 -0.3777 -0.1878
14048SOL    HW146600   7.696   6.866   8.520 -0.8345  1.6135  0.7641
14048SOL    HW246601   7.797   6.971   8.560  0.0062  2.1370 -2.4129
14049SOL     OW46602  10.835   3.022   5.900  0.0452  0.4116 -0.2226
14049SOL    HW146603  10.825   2.927   5.909  2.4032  0.1047 -0.2176
14049SOL    HW246604  10.854   3.035   5.807  0.3331  0.8266 -0.1056
14050SOL     OW46605   7.667   6.680   9.179 -0.2141  0.6237  0.4104
14050SOL    HW146606   7.719   6.602   9.161 -1.0916  0.2152 -0.4380
14050SOL    HW246607   7.730   6.744   9.212  0.5490 -0.3728  0.9196
14051SOL     OW46608  10.845   4.013   1.319 -0.0180  0.3591 -0.4450
14051SOL    HW146609  10.879   4.043   1.235  1.7708 -0.5957 -0.0968
14051SOL    HW246610  10.859   3.919   1.319  1.0251  0.4603  1.3206
14052SOL     OW46611   5.248   8.638   5.523  0.2495 -0.6283  0.0508
14052SOL    HW146612   5.266   8.547   5.499  1.0877  0.0843 -2.4011
14052SOL    HW246613   5.156   8.639   5.547  0.0281 -1.9945 -0.6351
14053SOL     OW46614   5.665   6.366   8.961 -0.8356 -0.2464  0.3201
14053SOL    HW146615   5.741   6.411   8.996 -0.9271  0.5128 -0.4299
14053SOL    HW246616   5.590   6.417   8.992 -0.8843  0.9837 -1.6651
14054SOL     OW46617   7.353   9.909   8.478 -0.4410  0.2625 -0.4881
14054SOL    HW146618   7.424   9.966   8.508 -0.8221  0.2647  0.4292
14054SOL    HW246619   7.321   9.951   8.398  0.3210  0.4744 -0.6924
14055SOL     OW46620   7.972   3.088   5.512 -0.0014  0.3151 -0.1803
14055SOL    HW146621   8.054   3.044   5.537 -0.5385 -1.9088 -2.0802
14055SOL    HW246622   8.001   3.167   5.466  1.0035  0.9487  1.4363
14056SOL     OW46623   2.021   9.130   3.310  0.4396  0.0059 -0.1365
14056SOL    HW146624   2.041   9.091   3.395  0.4243 -1.2214 -0.6691
14056SOL    HW246625   2.078   9.207   3.304  0.8972 -0.2581  0.7145
14057SOL     OW46626   2.635   0.968   5.539  0.4845 -0.1481 -0.2327
14057SOL    HW146627   2.701   0.958   5.607  0.1594 -0.9676 -0.0196
14057SOL    HW246628   2.554   0.938   5.581  0.0318  0.5457 -0.5862
14058SOL     OW46629   8.989   9.152  10.084  0.3904  0.0218  0.3990
14058SOL    HW146630   9.069   9.170  10.135  0.3130 -0.8685  0.8624
14058SOL    HW246631   8.983   9.057  10.083 -1.0534  0.0905  0.9619
14059SOL     OW46632   6.142   0.010   5.343 -0.4659  0.0908  0.1440
14059SOL    HW146633   6.129   0.083   5.405 -1.3963 -0.3228  0.4414
14059SOL    HW246634   6.106   0.042   5.260  0.1146  0.3657 -0.0123
14060SOL     OW46635   6.329   3.036   9.983 -0.0956  0.4502 -0.6287
14060SOL    HW146636   6.263   3.070  10.044  0.7225  0.5954  0.1957
14060SOL    HW246637   6.280   2.980   9.923 -0.7867 -0.4671  0.7474
14061SOL     OW46638   7.561   0.655   3.230 -0.0476  0.1364 -0.0314
14061SOL    HW146639   7.515   0.739   3.228 -0.5497 -0.1250  0.0981
14061SOL    HW246640   7.635   0.665   3.170 -0.4614  0.4683 -0.4919
14062SOL     OW46641   8.081   4.875   1.815  0.6348 -0.1780  0.5635
14062SOL    HW146642   8.152   4.880   1.879  3.1947 -0.3100 -2.0761
14062SOL    HW246643   8.077   4.783   1.791 -0.3915 -0.1485  0.5979
14063SOL     OW46644   7.990   7.119   7.896  0.0047  0.3577  0.3343
14063SOL    HW146645   8.033   7.205   7.897 -1.2455  1.0119 -0.2933
14063SOL    HW246646   8.029   7.074   7.821  1.1051  0.1151  1.0222
14064SOL     OW46647   2.348   0.060   1.986 -0.6006  0.2979 -0.1249
14064SOL    HW146648   2.279   0.073   1.920 -0.2218  1.9993 -0.2317
14064SOL    HW246649   2.315   0.104   2.064  0.8797  2.3970 -0.5765
14065SOL     OW46650   8.602   3.231  10.581  0.0551  0.8698 -0.4213
14065SOL    HW146651   8.631   3.203  10.494 -0.8680  0.3719 -0.5795
14065SOL    HW246652   8.644   3.316  10.594  0.7902  0.6094 -1.0455
14066SOL     OW46653  10.328   1.357   8.931  0.2737 -0.0317 -0.1759
14066SOL    HW146654  10.282   1.274   8.945  0.3762  0.2663  2.4431
14066SOL    HW246655  10.414   1.343   8.971  0.8739  0.8451 -1.1252
14067SOL     OW46656   0.401   6.822  10.958  0.4681  0.5058  0.4586
14067SOL    HW146657   0.448   6.904  10.970 -0.4941  0.9612  1.2879
14067SOL    HW246658   0.375   6.823  10.866 -0.3456  1.6143  0.6692
14068SOL     OW46659   7.409   6.980   9.357 -0.1867 -0.0371 -0.0015
14068SOL    HW146660   7.465   7.020   9.290  1.0651 -1.8030 -0.0899
14068SOL    HW246661   7.465   6.971   9.433 -0.9167 -0.1580  0.5309
14069SOL     OW46662  10.580   8.551   3.872  0.4316 -0.3555 -0.3765
14069SOL    HW146663  10.529   8.495   3.813  0.2961 -2.0435  1.2437
14069SOL    HW246664  10.517   8.615   3.905  0.1461 -0.3799 -0.8612
14070SOL     OW46665   3.739   5.226   4.891 -0.0045 -0.3706  0.4026
14070SOL    HW146666   3.671   5.260   4.832  1.1026 -1.3733 -1.5627
14070SOL    HW246667   3.728   5.131   4.888  0.8033 -0.4874  0.8857
14071SOL     OW46668  10.651   9.045   5.947 -0.0874 -0.2179 -0.3639
14071SOL    HW146669  10.587   9.105   5.985 -0.2890 -0.1914 -0.7340
14071SOL    HW246670  10.714   9.029   6.017 -2.8476 -3.8426  1.6637
14072SOL     OW46671   5.986   4.729   1.601  0.3186  0.5821 -0.2875
14072SOL    HW146672   6.029   4.738   1.516  0.0298 -3.2181 -1.0058
14072SOL    HW246673   6.040   4.667   1.649 -0.7568  0.9324  1.4661
14073SOL     OW46674   0.338   9.321   4.023 -0.3031 -0.0324  0.4298
14073SOL    HW146675   0.308   9.377   3.951 -0.5730 -1.6155 -0.7444
14073SOL    HW246676   0.433   9.333   4.025 -0.4979  1.6795  1.2906
14074SOL     OW46677   7.065   8.462   5.749 -0.2745 -0.3532  0.3978
14074SOL    HW146678   7.010   8.387   5.773 -0.4332 -0.6244 -0.7258
14074SOL    HW246679   7.085   8.505   5.832 -1.8698 -0.4612  0.8808
14075SOL     OW46680   8.199   6.102   6.779 -0.3099  0.4584  0.1687
14075SOL    HW146681   8.262   6.138   6.716 -0.2197  0.1012  0.0554
14075SOL    HW246682   8.129   6.066   6.724 -1.4411  2.3013  0.2955
14076SOL     OW46683   3.583   8.886   6.052  0.7524  0.2163  0.5729
14076SOL    HW146684   3.510   8.825   6.036 -0.1820  1.9294 -2.7058
14076SOL    HW246685   3.660   8.840   6.016  0.4894  0.0515  0.2129
14077SOL     OW46686   0.653   9.327   1.365  0.3009  0.0034  0.2480
14077SOL    HW146687   0.731   9.353   1.317  0.8053 -1.6397  0.1005
14077SOL    HW246688   0.617   9.255   1.314 -3.2805  2.7688 -1.5566
14078SOL     OW46689   8.612   7.877   1.844  0.0160 -0.6499 -0.4462
14078SOL    HW146690   8.619   7.855   1.751  0.1198 -0.0176 -0.5901
14078SOL    HW246691   8.525   7.916   1.853  0.2260 -0.1856 -0.3918
14079SOL     OW46692   1.332   8.536   4.113  0.1570 -0.1905 -0.4881
14079SOL    HW146693   1.342   8.443   4.092 -0.7078 -1.1061  2.5232
14079SOL    HW246694   1.413   8.559   4.158 -0.2202  0.0707  0.0704
14080SOL     OW46695   6.174   1.275   4.851 -1.0104 -0.3238  0.1907
14080SOL    HW146696   6.176   1.214   4.778 -0.2768  1.4176 -1.3280
14080SOL    HW246697   6.212   1.356   4.816  0.2069  0.3166  2.7506
14081SOL     OW46698   6.292   9.237   5.516 -0.6052  0.6492  0.3109
14081SOL    HW146699   6.253   9.214   5.431  0.8620  0.6573 -0.3953
14081SOL    HW246700   6.337   9.157   5.543  0.1082  1.0690  0.3902
14082SOL     OW46701   1.558   0.975   3.248  0.0890  0.3232  0.1511
14082SOL    HW146702   1.625   0.971   3.179 -0.3255  1.9421 -0.4053
14082SOL    HW246703   1.536   1.068   3.254  1.1159  0.4723  3.4672
14083SOL     OW46704   8.635   2.903   4.060 -0.0249  1.0312  0.4821
14083SOL    HW146705   8.642   2.997   4.045 -3.6292  1.1033 -2.1346
14083SOL    HW246706   8.546   2.891   4.094 -1.0927 -1.5871 -2.7198
14084SOL     OW46707   3.851   5.627  10.736  0.0307 -0.9390  0.3955
14084SOL    HW146708   3.761   5.661  10.741 -0.1164 -1.1623 -0.5996
14084SOL    HW246709   3.895   5.666  10.812 -0.1007  1.6113 -0.7416
14085SOL     OW46710   7.926   5.442   9.550 -0.6694  0.1740 -0.4179
14085SOL    HW146711   8.016   5.426   9.522 -0.2510  0.2658  0.8074
14085SOL    HW246712   7.905   5.528   9.516  0.3856  0.9689  0.8480
14086SOL     OW46713   2.985   4.929  10.666 -0.4128  0.0388 -0.1142
14086SOL    HW146714   3.005   4.978  10.587  1.0708  0.3682  0.4316
14086SOL    HW246715   2.965   4.840  10.636 -0.8873  0.4145 -0.9218
14087SOL     OW46716   5.843   2.629   4.071  0.0812  0.2649 -0.3099
14087SOL    HW146717   5.785   2.655   4.000 -0.0276 -0.0398 -0.3356
14087SOL    HW246718   5.829   2.534   4.080  0.2728  0.2600 -0.0456
14088SOL     OW46719   3.877   6.345   5.267  0.3696  0.0489  0.5283
14088SOL    HW146720   3.955   6.345   5.212 -0.2740 -0.9718 -0.4298
14088SOL    HW246721   3.901   6.290   5.342 -0.1997 -2.3772 -0.9834
14089SOL     OW46722   4.201   1.242   2.757  0.8544  0.1515 -0.3420
14089SOL    HW146723   4.121   1.205   2.718  0.2380  2.4626 -1.4205
14089SOL    HW246724   4.176   1.265   2.846  0.4899  0.2979 -0.4802
14090SOL     OW46725   6.106  10.594   9.516 -0.1739  0.2720 -0.0820
14090SOL    HW146726   6.077  10.625   9.602 -2.3450  1.9129 -1.3105
14090SOL    HW246727   6.195  10.626   9.508  0.4894 -0.8557  1.9513
14091SOL     OW46728   2.771   3.687   4.045 -0.0469 -0.6131 -0.3498
14091SOL    HW146729   2.845   3.742   4.020  0.0240 -0.7228 -0.3822
14091SOL    HW246730   2.795   3.599   4.015  0.1417 -0.7904  0.2995
14092SOL     OW46731   7.058  10.604   9.521  0.1416  0.3203 -0.0224
14092SOL    HW146732   7.143  10.647   9.531 -0.1483  1.2964 -1.4019
14092SOL    HW246733   7.043  10.603   9.427 -1.7219  0.8977  0.2267
14093SOL     OW46734   7.289   0.930   4.896  0.6420 -0.0181 -0.4206
14093SOL    HW146735   7.296   0.950   4.989  0.6102 -0.7009 -0.2719
14093SOL    HW246736   7.196   0.941   4.876  0.6444  0.0974 -0.3709
14094SOL     OW46737   5.082   7.464   2.055 -0.0376  0.5409  0.2510
14094SOL    HW146738   5.153   7.528   2.048 -0.5198  1.0329 -0.1905
14094SOL    HW246739   5.023   7.500   2.121  0.3556 -0.1115  0.9892
14095SOL     OW46740   5.316   9.859   5.445 -0.6348 -0.0369  0.1952
14095SOL    HW146741   5.327   9.856   5.540  0.9834  1.2154  0.0948
14095SOL    HW246742   5.287   9.949   5.428 -1.3161 -0.3797 -0.4567
14096SOL     OW46743   3.561   2.855   8.477  0.0387 -0.1938  0.4991
14096SOL    HW146744   3.489   2.895   8.527 -0.7891 -0.9187 -0.0838
14096SOL    HW246745   3.554   2.895   8.390 -0.3734 -1.0718  0.1128
14097SOL     OW46746   4.545   8.017   2.936 -0.5377  0.1007  0.2510
14097SOL    HW146747   4.534   7.982   3.025  0.0226 -2.2166 -0.5243
14097SOL    HW246748   4.627   8.066   2.940 -0.7930  0.4870  1.1150
14098SOL     OW46749   9.940   7.891   6.826  0.0009  0.2573  0.1967
14098SOL    HW146750   9.857   7.936   6.838 -0.2743 -0.4464  1.0608
14098SOL    HW246751   9.917   7.798   6.819  0.7345  0.0088  0.8685
14099SOL     OW46752   2.995   0.725   5.879 -0.3675  0.2526  0.8580
14099SOL    HW146753   3.085   0.758   5.880  0.3015 -1.5003  1.4017
14099SOL    HW246754   2.982   0.694   5.790 -0.0399 -0.4817  1.0590
14100SOL     OW46755   8.281   7.247   0.118 -0.1564 -0.5448 -0.5288
14100SOL    HW146756   8.209   7.191   0.148 -0.2599 -0.3972 -0.5037
14100SOL    HW246757   8.348   7.237   0.185  0.3719 -1.7028 -1.1892
14101SOL     OW46758   7.899   9.914   4.808 -0.3129  0.8695  0.2347
14101SOL    HW146759   7.826   9.943   4.753 -0.3926  1.0568  0.4342
14101SOL    HW246760   7.867   9.833   4.848 -0.0369  0.4280 -0.4326
14102SOL     OW46761   0.959  10.256   3.969  0.1366  0.0288  0.0076
14102SOL    HW146762   0.916  10.326   3.920 -0.0126 -1.2938 -1.8717
14102SOL    HW246763   0.889  10.215   4.019  0.1710  0.9838  0.8757
14103SOL     OW46764   5.930   3.610   0.361 -0.0140 -0.3084 -0.0367
14103SOL    HW146765   5.938   3.525   0.317 -0.4667  0.0978 -0.9353
14103SOL    HW246766   6.021   3.637   0.378  0.1653 -0.5856 -0.5233
14104SOL     OW46767   9.052   3.914   2.718 -0.5788  0.6416 -0.5884
14104SOL    HW146768   8.959   3.891   2.716 -0.4922  0.3256 -1.9952
14104SOL    HW246769   9.091   3.861   2.648  0.5656  1.1614 -0.3596
14105SOL     OW46770   5.212   8.561   3.051  0.3427  0.2301 -0.0884
14105SOL    HW146771   5.258   8.555   3.134  0.2048  0.6091  0.0197
14105SOL    HW246772   5.273   8.526   2.987  1.4700  2.2065 -0.1929
14106SOL     OW46773   1.312   7.286  10.428 -0.3343  0.7456  0.2392
14106SOL    HW146774   1.376   7.271  10.498  0.0266  0.6278 -0.1116
14106SOL    HW246775   1.334   7.373  10.394 -0.9277  1.0851  0.7048
14107SOL     OW46776   2.332   0.623   1.997  0.5914  0.6763  0.2603
14107SOL    HW146777   2.418   0.665   1.992 -0.0979  2.3038  1.2958
14107SOL    HW246778   2.272   0.684   1.955 -0.1716 -0.1444  0.1125
14108SOL     OW46779   2.479   9.427   9.060 -0.5915 -0.1696  0.5354
14108SOL    HW146780   2.438   9.513   9.046 -1.0739 -0.4364  0.2763
14108SOL    HW246781   2.419   9.382   9.120 -0.5993 -0.5128  0.2669
14109SOL     OW46782   7.285   9.168   5.253  0.8075 -0.4030 -0.0199
14109SOL    HW146783   7.276   9.081   5.293  3.1994 -0.5047  0.4347
14109SOL    HW246784   7.296   9.227   5.327 -0.2975  0.2569 -0.3546
14110SOL     OW46785   4.779   7.738   7.692 -0.4980  0.5210  0.1652
14110SOL    HW146786   4.690   7.768   7.712 -0.1535 -0.1844  3.1591
14110SOL    HW246787   4.827   7.748   7.774  1.9309 -0.1487 -1.0824
14111SOL     OW46788   5.906   5.373   6.237  0.3450 -0.0505  0.7707
14111SOL    HW146789   5.839   5.385   6.169  0.1402 -0.2932  0.9241
14111SOL    HW246790   5.922   5.278   6.237  1.4902  0.1293 -0.0159
14112SOL     OW46791   4.898   4.800   4.031  0.3746 -0.4320  0.5113
14112SOL    HW146792   4.875   4.715   4.069  2.0843 -1.2749 -0.2119
14112SOL    HW246793   4.987   4.816   4.063 -0.3832  1.7671  1.7135
14113SOL     OW46794   6.847   4.274   1.089  1.5468 -0.3570  0.0036
14113SOL    HW146795   6.941   4.292   1.089  1.5095  0.0344  1.8471
14113SOL    HW246796   6.840   4.185   1.125  1.1812 -0.1896  0.3480
14114SOL     OW46797   0.217   5.140   2.531  0.0178  0.3029 -0.8632
14114SOL    HW146798   0.157   5.194   2.583  1.0760  0.9013 -0.2218
14114SOL    HW246799   0.217   5.055   2.576  0.2482  0.5424 -0.4028
14115SOL     OW46800   2.720   4.204   9.629 -0.0442  0.5253  0.3608
14115SOL    HW146801   2.662   4.222   9.703 -1.5712  1.1125 -0.9118
14115SOL    HW246802   2.692   4.118   9.597  2.6466 -1.2264  2.2209
14116SOL     OW46803   6.946   5.205   5.556  0.5934 -0.9347  0.5819
14116SOL    HW146804   6.931   5.180   5.464 -1.0630  0.9968  0.2344
14116SOL    HW246805   6.924   5.127   5.606 -0.5853 -1.3992 -0.5892
14117SOL     OW46806   6.056   2.159   7.541  0.4045 -0.5637 -0.2123
14117SOL    HW146807   6.016   2.245   7.528  1.0087 -0.4473 -1.4276
14117SOL    HW246808   6.144   2.179   7.573  0.1077 -0.7758  0.7635
14118SOL     OW46809   4.138   3.471   1.137 -0.0676  0.4039 -0.4304
14118SOL    HW146810   4.141   3.513   1.051  1.5003 -0.7217 -0.9796
14118SOL    HW246811   4.185   3.531   1.195  1.0932  0.0295 -0.9433
14119SOL     OW46812   6.684   8.615   0.864 -0.5061  0.1654  0.4119
14119SOL    HW146813   6.770   8.585   0.891 -0.4656 -0.4172 -0.3427
14119SOL    HW246814   6.673   8.699   0.909  0.4574  0.2599  0.4902
14120SOL     OW46815   0.868   5.519   0.856  0.1470  0.5191 -0.2376
14120SOL    HW146816   0.958   5.511   0.888  0.0785  0.7760  0.0238
14120SOL    HW246817   0.815   5.527   0.935 -0.2847 -1.1693 -0.3104
14121SOL     OW46818   7.570   1.853   4.478  0.0035  0.0936 -0.5219
14121SOL    HW146819   7.537   1.927   4.428  1.3604 -1.1409 -3.4585
14121SOL    HW246820   7.538   1.776   4.431  0.3000 -1.1939  1.2788
14122SOL     OW46821   1.045   5.229   7.382  0.0688  0.1284 -0.4467
14122SOL    HW146822   1.027   5.164   7.314 -0.0318 -0.0794 -0.2249
14122SOL    HW246823   0.979   5.212   7.449 -0.0078  0.5137 -0.4248
14123SOL     OW46824   4.123   5.298   2.655  0.5732  0.3712 -0.3506
14123SOL    HW146825   4.207   5.337   2.633  1.5385 -0.7267  1.1858
14123SOL    HW246826   4.141   5.204   2.663 -0.6322  0.1981  0.7036
14124SOL     OW46827   3.974   2.793  10.108  0.1953 -0.2413 -1.2294
14124SOL    HW146828   3.961   2.740  10.030  0.0180  0.1846 -1.4968
14124SOL    HW246829   4.055   2.842  10.091  0.3872 -0.4590 -0.9634
14125SOL     OW46830   8.193   9.949   5.093 -0.4447  0.4299 -0.0591
14125SOL    HW146831   8.255  10.012   5.129 -1.8374  1.5955  0.4211
14125SOL    HW246832   8.168   9.986   5.008  0.0241 -0.3881 -0.5637
14126SOL     OW46833   1.556  11.006   5.014  0.5090  0.1392 -0.5966
14126SOL    HW146834   1.572  10.948   4.940 -1.3999 -0.0586 -0.8900
14126SOL    HW246835   1.486  10.964   5.063  0.4866  1.2013  0.3152
14127SOL     OW46836   9.639   8.045   7.477 -0.1833  0.1858  0.2086
14127SOL    HW146837   9.674   8.061   7.565 -0.4306  2.0383  0.0171
14127SOL    HW246838   9.668   7.956   7.455  0.3551 -0.1031  1.9267
14128SOL     OW46839   6.152  10.922   5.668  0.1485 -0.1512 -0.1030
14128SOL    HW146840   6.221  10.890   5.610  0.2552  1.0224 -0.6655
14128SOL    HW246841   6.198  10.973   5.734 -0.1728  1.0557 -0.7641
14129SOL     OW46842  10.788   9.922  10.189  0.0255  0.0460 -0.0460
14129SOL    HW146843  10.766   9.932  10.281  0.3434  1.7577 -0.1246
14129SOL    HW246844  10.708   9.946  10.142 -0.2864 -1.2829 -0.2344
14130SOL     OW46845   5.946   5.716   1.782  0.0461  0.4199 -0.2543
14130SOL    HW146846   6.032   5.678   1.764  0.3155  0.0525  1.6036
14130SOL    HW246847   5.933   5.780   1.713  2.1825  1.0783 -0.1209
14131SOL     OW46848   4.489   4.809   2.701 -0.3590 -0.4191 -0.4122
14131SOL    HW146849   4.487   4.868   2.776  0.9106 -1.2202  0.2836
14131SOL    HW246850   4.496   4.867   2.625  0.8403  0.3468  0.2520
14132SOL     OW46851   3.619   4.917   0.577 -0.4649 -0.1142  0.2326
14132SOL    HW146852   3.551   4.934   0.643 -1.0587 -1.5997  0.0571
14132SOL    HW246853   3.599   4.829   0.545 -0.0949  0.5038 -1.8382
14133SOL     OW46854   7.914   0.247   9.320 -0.1853  0.2386  0.7018
14133SOL    HW146855   7.972   0.265   9.246 -0.5808 -2.3399 -0.3160
14133SOL    HW246856   7.974   0.232   9.394  0.2321  1.9717  0.7670
14134SOL     OW46857   1.356   2.664   4.758  0.0179  0.3531  0.1973
14134SOL    HW146858   1.326   2.754   4.774  3.3316  1.4949  1.0110
14134SOL    HW246859   1.443   2.662   4.798  0.5671 -2.8866 -0.9169
14135SOL     OW46860   9.347   6.121   6.764 -0.9879  0.4873  0.3058
14135SOL    HW146861   9.346   6.186   6.693  0.2567 -0.5546 -0.7067
14135SOL    HW246862   9.341   6.036   6.719 -0.3820 -0.1937  1.4691
14136SOL     OW46863   0.765  10.339   7.429  0.7932 -0.7973  0.7213
14136SOL    HW146864   0.717  10.416   7.398  2.4348  1.2810  2.9705
14136SOL    HW246865   0.812  10.308   7.351  2.3740  2.3114  0.2743
14137SOL     OW46866   2.294   0.526  11.058 -0.9531  0.0356 -1.0484
14137SOL    HW146867   2.222   0.558  11.112 -1.4212  0.8662 -2.1202
14137SOL    HW246868   2.310   0.597  10.995  1.8342  0.5540  0.1069
14138SOL     OW46869   8.170   5.678   1.347 -0.1320 -0.4857 -0.0294
14138SOL    HW146870   8.113   5.706   1.276  0.7293 -0.6128 -0.7749
14138SOL    HW246871   8.162   5.583   1.348  0.0489 -0.4999 -0.1042
14139SOL     OW46872   6.083   1.676   0.073  1.0161 -0.0718  0.0263
14139SOL    HW146873   6.036   1.738   0.017  1.4304 -0.4542 -0.7652
14139SOL    HW246874   6.035   1.593   0.063  0.0954  0.2356  1.5594
14140SOL     OW46875   8.536   8.915   5.418 -0.0269  0.1639 -0.5920
14140SOL    HW146876   8.487   8.834   5.431 -0.9853  0.9025  0.6590
14140SOL    HW246877   8.627   8.889   5.425 -0.3323 -0.5470  1.8256
14141SOL     OW46878   4.320   9.272   4.090 -0.5216 -0.4306 -0.2204
14141SOL    HW146879   4.382   9.206   4.059 -0.3667  0.5995 -2.3728
14141SOL    HW246880   4.375   9.344   4.120 -0.6776 -0.3415 -0.1449
14142SOL     OW46881   8.283   7.816   3.554 -0.2928 -0.6993 -0.1193
14142SOL    HW146882   8.320   7.753   3.492 -0.0929 -1.7044  0.9878
14142SOL    HW246883   8.355   7.834   3.616 -1.3995 -2.2335  1.7217
14143SOL     OW46884   1.739   0.658   9.989 -0.2118 -0.5993  0.0085
14143SOL    HW146885   1.809   0.612   9.943 -0.6268 -1.0073 -0.2227
14143SOL    HW246886   1.770   0.748   9.995 -0.5725 -0.3031 -1.9460
14144SOL     OW46887   8.239   3.163   9.016  0.5437  0.2603 -0.5653
14144SOL    HW146888   8.333   3.174   9.002  0.3215  0.1750 -2.3332
14144SOL    HW246889   8.202   3.163   8.928 -0.9416 -1.2938  0.0178
14145SOL     OW46890  10.902   6.716   9.850  0.6281 -0.5347 -0.5975
14145SOL    HW146891  10.990   6.696   9.882  0.1501 -0.2676  0.9776
14145SOL    HW246892  10.846   6.651   9.894  0.0944 -1.1185 -2.0759
14146SOL     OW46893   2.116   1.053  10.108 -0.2323  0.3506  0.0036
14146SOL    HW146894   2.063   0.980  10.079  1.3692 -1.3043  1.0484
14146SOL    HW246895   2.192   1.053  10.049  0.6474  0.0086  1.1000
14147SOL     OW46896   7.432  11.069   6.367 -0.1976  0.0735 -0.4025
14147SOL    HW146897   7.378  11.137   6.327 -2.0702 -1.0950 -0.0055
14147SOL    HW246898   7.468  11.021   6.293  0.1173  0.7237 -0.6807
14148SOL     OW46899   9.523   2.439   7.760 -0.3348  0.2360  0.2673
14148SOL    HW146900   9.615   2.455   7.783  0.6163  1.8757 -3.7455
14148SOL    HW246901   9.480   2.523   7.775 -0.7439  0.0041  0.4008
14149SOL     OW46902   7.497   9.564   1.277  0.3771 -0.0958 -0.0119
14149SOL    HW146903   7.569   9.596   1.331  0.3655  0.1999 -0.1641
14149SOL    HW246904   7.420   9.610   1.310  0.7280  1.9795 -1.8108
14150SOL     OW46905   9.793  10.699   6.431  0.1361  0.2239 -0.5709
14150SOL    HW146906   9.724  10.766   6.434 -0.2638 -0.1170 -1.5412
14150SOL    HW246907   9.794  10.671   6.339  2.7016  1.4031 -0.9727
14151SOL     OW46908  10.271  10.492  11.015  0.3417  0.5761 -0.5404
14151SOL    HW146909  10.295  10.443  10.936 -0.2694  0.8037 -0.8713
14151SOL    HW246910  10.350  10.541  11.037  0.9012 -0.3962 -0.3187
14152SOL     OW46911   9.851   9.181   0.733 -0.0044 -0.0616 -0.1551
14152SOL    HW146912   9.935   9.192   0.778 -0.0518 -0.8774  0.1396
14152SOL    HW246913   9.865   9.107   0.674  0.0374  0.9430 -1.4614
14153SOL     OW46914   9.200   9.206   7.525  0.2683  0.4048 -0.1520
14153SOL    HW146915   9.226   9.284   7.575  1.4717 -0.1824  0.1801
14153SOL    HW246916   9.124   9.172   7.572 -1.1400  2.1101 -1.0823
14154SOL     OW46917   0.389   1.680   6.056  0.2373  0.3006 -0.5240
14154SOL    HW146918   0.305   1.636   6.055 -0.1507  0.9267 -2.8541
14154SOL    HW246919   0.368   1.772   6.068  0.4345  0.6100 -2.2953
14155SOL     OW46920   0.348   7.024   3.119  0.1064  0.5664  0.2463
14155SOL    HW146921   0.340   6.958   3.188 -0.4596 -1.7791 -1.9189
14155SOL    HW246922   0.442   7.036   3.108  0.2480 -0.7627 -0.0962
14156SOL     OW46923   2.149   5.266   5.540  0.0726 -0.2905 -0.2083
14156SOL    HW146924   2.067   5.311   5.520 -0.0522 -0.0065  0.8636
14156SOL    HW246925   2.195   5.326   5.598  1.4870 -0.0179 -1.5494
14157SOL     OW46926  10.264  10.567   1.691  0.1284  0.1115  0.6810
14157SOL    HW146927  10.331  10.632   1.713  0.2997  0.1773 -0.0012
14157SOL    HW246928  10.183  10.603   1.725  0.7251 -1.0466  3.7025
14158SOL     OW46929   8.784   9.569   6.532  0.2297 -0.1604  0.5198
14158SOL    HW146930   8.849   9.520   6.482  1.3868  0.5919  1.2373
14158SOL    HW246931   8.817   9.567   6.622  0.0367  1.4695  0.6598
14159SOL     OW46932   8.021   6.865   2.651  0.7882  0.3970 -0.3432
14159SOL    HW146933   8.047   6.939   2.596 -0.7399 -0.2390 -2.0490
14159SOL    HW246934   7.927   6.877   2.664  0.9071 -0.1231  1.1773
14160SOL     OW46935   2.876   9.980   2.221  0.2635  0.0583 -0.4845
14160SOL    HW146936   2.923   9.935   2.291 -0.2711 -0.9455 -0.7529
14160SOL    HW246937   2.789   9.941   2.222  0.4276 -0.4125 -2.0908
14161SOL     OW46938   0.367   6.965   5.253 -0.2303 -0.1420 -0.1668
14161SOL    HW146939   0.326   7.039   5.298 -2.1426 -1.6421  0.7612
14161SOL    HW246940   0.420   7.004   5.184 -0.3625  2.1038  0.9327
14162SOL     OW46941   1.482   4.997   8.964  0.2654  0.1983  0.3606
14162SOL    HW146942   1.549   5.065   8.955  1.2343 -0.9476 -2.0153
14162SOL    HW246943   1.521   4.931   9.020 -0.3269  1.1263  1.9256
14163SOL     OW46944   5.884   2.615   9.717  0.1728 -0.3735  0.2738
14163SOL    HW146945   5.976   2.600   9.697 -0.3195 -2.8893 -0.5323
14163SOL    HW246946   5.877   2.599   9.811  0.4916 -0.7261  0.2424
14164SOL     OW46947   6.561   4.591   4.881 -0.1725 -0.3131  0.2101
14164SOL    HW146948   6.604   4.580   4.966 -2.6850 -2.3295  1.3418
14164SOL    HW246949   6.471   4.563   4.895 -1.1638  0.9145 -2.7515
14165SOL     OW46950   2.659   0.874   8.248  0.1312 -0.1996 -0.0658
14165SOL    HW146951   2.741   0.869   8.199  0.4268  0.8432  0.2946
14165SOL    HW246952   2.669   0.810   8.318 -0.4520 -1.9830 -1.5571
14166SOL     OW46953   6.774   3.908   2.842 -0.4214  0.1332  0.3320
14166SOL    HW146954   6.723   3.842   2.889 -2.1546  1.0333 -0.1859
14166SOL    HW246955   6.717   3.985   2.841  0.4759  0.8166 -1.3373
14167SOL     OW46956   0.593   4.814   6.604 -0.5829  0.0677  0.5386
14167SOL    HW146957   0.506   4.853   6.599 -1.0868 -1.0841  0.1102
14167SOL    HW246958   0.581   4.734   6.654  0.1892 -0.2048  0.3068
14168SOL     OW46959   3.592   4.317   0.453  0.2813 -0.2651  0.3636
14168SOL    HW146960   3.584   4.222   0.458 -0.5217 -0.2015  0.4083
14168SOL    HW246961   3.502   4.349   0.462  0.5442  0.4970  0.3375
14169SOL     OW46962   2.272   9.182   0.610 -0.5459  0.4549 -0.2884
14169SOL    HW146963   2.351   9.232   0.629  1.4599 -2.7902  0.4875
14169SOL    HW246964   2.270   9.176   0.514 -0.2150  1.0226 -0.3388
14170SOL     OW46965   8.704   2.794   6.529  0.0640 -0.0213 -0.2834
14170SOL    HW146966   8.672   2.734   6.461  0.9818  0.5129 -1.2162
14170SOL    HW246967   8.763   2.741   6.582 -1.7112 -0.8166  0.9966
14171SOL     OW46968   0.308   5.171   9.689 -0.0165 -0.2681  0.1731
14171SOL    HW146969   0.270   5.139   9.608 -0.2144 -1.0955  0.5769
14171SOL    HW246970   0.402   5.157   9.679  0.0327  0.2575 -0.1689
14172SOL     OW46971   6.483   1.712   6.756  0.4487  0.1457 -0.1828
14172SOL    HW146972   6.499   1.767   6.833  1.6495  0.3213 -0.5327
14172SOL    HW246973   6.567   1.710   6.710  1.2056 -3.7668  0.9522
14173SOL     OW46974   1.614   1.352   0.894  0.7417  0.0340  0.1004
14173SOL    HW146975   1.607   1.434   0.844  1.9832  1.4366  2.0643
14173SOL    HW246976   1.544   1.358   0.959  0.6849 -0.6052  0.1038
14174SOL     OW46977   5.353   8.607   2.519  0.0921 -0.3248  0.1589
14174SOL    HW146978   5.334   8.543   2.450  0.3877  0.7366 -0.9329
14174SOL    HW246979   5.385   8.684   2.472  0.4223  0.3765  1.5014
14175SOL     OW46980  10.293   4.678   5.650 -0.7773  0.5572 -0.4160
14175SOL    HW146981  10.231   4.716   5.587 -0.3800  0.2613 -0.9962
14175SOL    HW246982  10.374   4.727   5.637 -0.1615 -0.6721 -1.4071
14176SOL     OW46983   5.227  10.894   8.642  0.2941  0.5390  0.0423
14176SOL    HW146984   5.176  10.960   8.596  0.9693  0.2627 -1.1392
14176SOL    HW246985   5.251  10.936   8.725  0.8808  1.8622 -0.7745
14177SOL     OW46986   9.238   6.249   8.917  0.5428  0.8141 -0.3575
14177SOL    HW146987   9.173   6.179   8.907  0.3386  0.8874  0.4477
14177SOL    HW246988   9.199   6.325   8.873 -0.6647  1.3389  1.5315
14178SOL     OW46989   8.407   0.465   6.207 -0.1291  0.2323 -0.2571
14178SOL    HW146990   8.482   0.420   6.168  0.8617  1.9916 -0.4931
14178SOL    HW246991   8.344   0.395   6.226  1.8347 -1.3941  0.5822
14179SOL     OW46992   9.182   5.313   1.524 -0.1847 -0.5508  0.6480
14179SOL    HW146993   9.130   5.394   1.523  0.9560  0.2458 -1.6451
14179SOL    HW246994   9.225   5.314   1.609 -1.3787  0.4432  1.2857
14180SOL     OW46995   4.636   4.903   2.030 -0.1431 -0.0342 -0.5323
14180SOL    HW146996   4.664   4.986   1.992 -1.9738  0.4580 -0.9127
14180SOL    HW246997   4.661   4.909   2.122 -2.7716  2.2814  0.1920
14181SOL     OW46998   7.420   1.324   9.200 -0.1826  0.2274  0.2552
14181SOL    HW146999   7.478   1.399   9.189  1.9043 -1.2536  0.4864
14181SOL    HW247000   7.428   1.275   9.118  1.5007 -1.6562  1.4627
14182SOL     OW47001   5.926   8.635   4.808  0.3885  0.7669 -0.0991
14182SOL    HW147002   6.009   8.681   4.800  1.6702 -1.3804  0.0404
14182SOL    HW247003   5.914   8.592   4.723 -0.2723  0.5951  0.0734
14183SOL     OW47004   5.243   4.682   1.897 -0.0154  0.1769  0.0380
14183SOL    HW147005   5.153   4.692   1.927  0.1986 -0.7569  1.0544
14183SOL    HW247006   5.294   4.736   1.958  0.4225 -1.7270  1.4403
14184SOL     OW47007   9.432   9.315   7.771  0.2332 -0.7966 -0.2474
14184SOL    HW147008   9.351   9.365   7.780 -0.2795 -1.9645  2.8224
14184SOL    HW247009   9.496   9.363   7.823  0.7343 -1.3377 -0.3472
14185SOL     OW47010   5.378   6.857   7.857 -0.1858  0.3773  0.3125
14185SOL    HW147011   5.329   6.813   7.787  0.3458 -2.0208  1.3266
14185SOL    HW247012   5.470   6.845   7.833 -0.0128  0.1456  1.0552
14186SOL     OW47013   3.020   6.011   4.053  0.4358 -0.3819  0.7390
14186SOL    HW147014   3.095   5.988   4.107 -0.1139 -0.1077  1.6484
14186SOL    HW247015   2.963   6.061   4.112 -2.0199 -3.3499  1.1302
14187SOL     OW47016   6.407   8.284   4.447  0.1600 -0.1786 -0.9884
14187SOL    HW147017   6.391   8.316   4.536  0.2393 -2.3532 -0.1378
14187SOL    HW247018   6.500   8.261   4.446 -0.1929 -1.7180 -1.0665
14188SOL     OW47019   5.342   9.012   2.271  0.5761 -0.0439 -0.2580
14188SOL    HW147020   5.372   9.033   2.360  0.0166  1.5205 -0.4072
14188SOL    HW247021   5.383   9.077   2.216  1.0806 -1.1309 -1.2063
14189SOL     OW47022   3.122   5.289   9.919 -0.3550 -0.1161 -0.4987
14189SOL    HW147023   3.027   5.297   9.930 -0.2154  0.1394  0.5940
14189SOL    HW247024   3.132   5.226   9.847 -1.3529  0.5744 -1.2790
14190SOL     OW47025   0.936   1.593   7.344 -0.2505 -0.3972 -0.5690
14190SOL    HW147026   0.980   1.594   7.259 -0.2700 -2.9352 -0.6834
14190SOL    HW247027   0.866   1.657   7.335  1.1852  1.1277 -1.6019
14191SOL     OW47028   4.002   4.208   2.138  0.3038 -0.5242 -0.0427
14191SOL    HW147029   3.957   4.124   2.150  1.6320 -1.1797  0.5464
14191SOL    HW247030   3.932   4.269   2.114 -1.6230 -0.5915  4.4649
14192SOL     OW47031  10.426   3.922   7.609 -0.9334 -0.3239 -0.6773
14192SOL    HW147032  10.386   3.836   7.617 -1.6360  0.0509 -0.0002
14192SOL    HW247033  10.501   3.909   7.551 -0.4464 -1.5813  0.1944
14193SOL     OW47034   0.580   4.817   7.270  0.2053 -0.6560  0.0084
14193SOL    HW147035   0.652   4.790   7.213  1.5610  0.5721  1.0805
14193SOL    HW247036   0.620   4.834   7.355 -1.3246  0.1356  0.6246
14194SOL     OW47037   5.603  10.237   2.475 -0.8218  0.1989 -1.0826
14194SOL    HW147038   5.671  10.176   2.448 -1.1283 -0.2152 -0.9220
14194SOL    HW247039   5.523  10.204   2.434 -1.3613 -0.6131  0.5519
14195SOL     OW47040   7.741  10.425   2.742  0.0467  0.0014 -0.0189
14195SOL    HW147041   7.666  10.370   2.764  0.8009 -1.1364 -0.1983
14195SOL    HW247042   7.739  10.495   2.808 -1.8010  0.6509 -0.7070
14196SOL     OW47043   4.451   9.948   2.442  0.0529 -0.4389 -0.2474
14196SOL    HW147044   4.525  10.005   2.421 -0.0360 -0.4144 -0.4942
14196SOL    HW247045   4.492   9.863   2.463  0.3896  0.2580  2.3841
14197SOL     OW47046   0.037   6.465   9.338  0.0966  0.3176  0.1405
14197SOL    HW147047  -0.015   6.389   9.366  1.7364 -0.7871  0.3020
14197SOL    HW247048  -0.028   6.525   9.302 -1.4733 -0.3723  1.6602
14198SOL     OW47049   0.309   3.897   7.976  0.0926 -0.7177  0.3780
14198SOL    HW147050   0.322   3.827   7.912  0.3190 -1.0641  0.8022
14198SOL    HW247051   0.329   3.857   8.060  1.1276  0.1078  0.5370
14199SOL     OW47052   8.308   5.684   1.070 -0.1677  0.4598 -0.2867
14199SOL    HW147053   8.222   5.721   1.088 -0.6602 -0.4304 -0.7806
14199SOL    HW247054   8.345   5.668   1.157 -0.2826  1.3094 -0.0699
14200SOL     OW47055   9.977   9.806   1.665  0.2516 -0.0513 -0.6380
14200SOL    HW147056  10.000   9.884   1.717 -0.9625 -0.7905  1.0922
14200SOL    HW247057   9.923   9.841   1.594 -0.9210  0.6510  0.5432
14201SOL     OW47058   9.831   2.089   5.106  0.0910 -0.1713 -0.2741
14201SOL    HW147059   9.761   2.039   5.147  1.8515 -1.7509  0.9325
14201SOL    HW247060   9.889   2.024   5.068  1.5173  1.0223 -0.2405
14202SOL     OW47061  10.545   2.930   4.973  0.6879 -0.0866  0.6633
14202SOL    HW147062  10.595   2.858   4.935  0.6689  0.3892 -0.3041
14202SOL    HW247063  10.465   2.888   5.006  1.4405 -0.7567  1.6796
14203SOL     OW47064   6.563   7.729   9.664 -0.0788 -0.2182 -0.0726
14203SOL    HW147065   6.596   7.692   9.583 -0.0222 -1.7783  0.6133
14203SOL    HW247066   6.507   7.802   9.637  1.4510  0.5147 -1.3834
14204SOL     OW47067   5.022   1.750   1.342 -0.8509 -0.9158  0.1591
14204SOL    HW147068   5.070   1.756   1.425  0.1986  1.7858 -0.5342
14204SOL    HW247069   4.952   1.814   1.351 -1.0351 -0.9718 -0.8301
14205SOL     OW47070   3.932   6.779   8.946  0.0610  0.4804  0.1430
14205SOL    HW147071   3.842   6.775   8.912 -0.2370 -1.0163  0.9755
14205SOL    HW247072   3.977   6.840   8.889 -0.7062 -1.0138 -2.2134
14206SOL     OW47073   5.443   5.334   5.609 -0.1739 -0.3612  0.5977
14206SOL    HW147074   5.424   5.397   5.678  1.1767 -0.7816  1.3895
14206SOL    HW247075   5.508   5.377   5.554 -2.1893  0.4862 -1.2264
14207SOL     OW47076   9.751   1.581   0.360 -0.3314  0.2344 -0.1636
14207SOL    HW147077   9.843   1.585   0.387 -0.0620 -2.6930 -0.3230
14207SOL    HW247078   9.724   1.673   0.353  1.8126  1.1851  2.3376
14208SOL     OW47079   7.262   8.293   4.916  0.0272  0.1985 -0.3479
14208SOL    HW147080   7.346   8.265   4.880 -0.3229 -1.2559 -0.0626
14208SOL    HW247081   7.213   8.212   4.929 -1.1580  0.9778  0.1539
14209SOL     OW47082   0.773  10.392   2.631 -0.1140 -0.0002 -0.0641
14209SOL    HW147083   0.721  10.409   2.553 -1.7478 -0.9551  0.7589
14209SOL    HW247084   0.806  10.303   2.619 -2.8664 -1.3711  1.5573
14210SOL     OW47085  10.901   2.111   7.059  0.0514 -0.1275 -0.3135
14210SOL    HW147086  10.924   2.019   7.047 -3.2409 -0.9701 -1.3199
14210SOL    HW247087  10.874   2.141   6.972 -1.9922  0.7638  0.5579
14211SOL     OW47088   2.442   0.150   5.012  0.0974  0.7749  0.1891
14211SOL    HW147089   2.442   0.129   5.105 -2.0029 -1.7924 -0.2850
14211SOL    HW247090   2.375   0.093   4.974  1.3828  1.1835 -3.0281
14212SOL     OW47091  11.020  10.783   7.698 -0.6063  0.3342  0.0961
14212SOL    HW147092  11.049  10.708   7.646 -2.0054 -1.1911  1.4313
14212SOL    HW247093  11.054  10.767   7.785 -0.2539  1.6916  0.2375
14213SOL     OW47094   3.146   6.960   7.707 -0.1309  0.3641 -0.2512
14213SOL    HW147095   3.226   7.013   7.698 -0.6004  1.1762  0.1978
14213SOL    HW247096   3.160   6.885   7.649  1.3645 -0.0161  0.5599
14214SOL     OW47097   0.624   7.191   6.170  0.3779  0.4440 -0.0185
14214SOL    HW147098   0.544   7.244   6.177 -0.1945 -0.4941  0.8764
14214SOL    HW247099   0.600   7.121   6.109  0.7053  0.4901 -0.1986
14215SOL     OW47100   1.684   3.825   2.276 -0.3697  0.0613 -0.0065
14215SOL    HW147101   1.693   3.753   2.213 -1.3823  0.3121 -0.4544
14215SOL    HW247102   1.592   3.823   2.302  0.2250 -0.7116  2.3218
14216SOL     OW47103   9.512   8.779   6.514 -0.0364 -0.1049  0.3193
14216SOL    HW147104   9.437   8.742   6.560 -0.0572 -1.0504 -0.4426
14216SOL    HW247105   9.580   8.786   6.582 -1.0989  1.7287  1.2432
14217SOL     OW47106   0.007   1.074   6.092  0.5694  0.1463 -0.0126
14217SOL    HW147107   0.010   1.069   6.187  1.2282  0.6188  0.0053
14217SOL    HW247108   0.054   0.996   6.062  2.2016  1.0426  0.0989
14218SOL     OW47109   8.006   4.171   4.745 -0.4558  0.1262  0.0815
14218SOL    HW147110   8.085   4.124   4.717  0.2714  0.2317  1.8423
14218SOL    HW247111   7.989   4.233   4.675  0.9490 -0.0001 -0.3973
14219SOL     OW47112   3.512   9.627   8.151  0.4749 -0.4673 -0.3121
14219SOL    HW147113   3.451   9.693   8.185  0.3642 -0.4223 -0.5991
14219SOL    HW247114   3.547   9.665   8.071 -0.6496 -1.3412 -1.2470
14220SOL     OW47115   2.425   1.113   7.112 -0.4621  0.0954 -0.5992
14220SOL    HW147116   2.498   1.171   7.136  0.3767 -1.1702  0.0258
14220SOL    HW247117   2.465   1.026   7.104 -2.3601 -1.3282  2.9521
14221SOL     OW47118   7.116   3.518   5.801 -0.1625  0.0140  0.1339
14221SOL    HW147119   7.199   3.554   5.771 -0.8827  0.1960 -1.8070
14221SOL    HW247120   7.051   3.554   5.740 -1.1655 -3.2596 -0.9283
14222SOL     OW47121  10.382   2.500   4.514  0.0050  0.0620  0.2097
14222SOL    HW147122  10.403   2.408   4.524  2.0499  0.4527  0.0469
14222SOL    HW247123  10.300   2.512   4.561 -0.2114 -1.7941  0.3649
14223SOL     OW47124   4.399   5.605   4.507 -0.2881 -0.2884  0.0712
14223SOL    HW147125   4.369   5.562   4.587 -0.6992  0.0208  0.0893
14223SOL    HW247126   4.447   5.682   4.538 -0.8231  0.0707  0.0166
14224SOL     OW47127   8.782   2.288  10.041 -0.8188  0.0311  0.0302
14224SOL    HW147128   8.816   2.242  10.118 -0.0965 -0.4200 -0.5508
14224SOL    HW247129   8.851   2.350  10.017 -1.6727  1.2887  0.6486
14225SOL     OW47130   2.884  10.083   9.981 -0.5968  0.4635  0.2597
14225SOL    HW147131   2.833  10.003   9.983  1.4774 -0.9612 -0.6509
14225SOL    HW247132   2.877  10.115   9.891 -0.0114  0.3296  0.1625
14226SOL     OW47133   1.953   9.985   4.866  0.0229  0.5278  0.4249
14226SOL    HW147134   2.038   9.977   4.909 -0.2381 -2.0316  0.6494
14226SOL    HW247135   1.942   9.902   4.819 -1.7811  1.3223 -0.6756
14227SOL     OW47136   3.248   0.644   6.465 -0.3145  0.4069 -0.3835
14227SOL    HW147137   3.200   0.562   6.469 -0.7306  0.6715  0.2573
14227SOL    HW247138   3.185   0.710   6.493 -0.3545  1.1285 -2.0429
14228SOL     OW47139   3.130  10.745   2.430  0.1007 -0.2805  0.0881
14228SOL    HW147140   3.139  10.813   2.362  1.4233 -0.3176  0.1906
14228SOL    HW247141   3.198  10.766   2.494 -0.8865 -0.4689  1.2296
14229SOL     OW47142   4.359   6.922   7.044  0.0503 -0.2338  0.1355
14229SOL    HW147143   4.440   6.885   7.007  0.0905 -2.0060  1.8022
14229SOL    HW247144   4.289   6.869   7.006 -0.1777  0.0969  0.0886
14230SOL     OW47145   3.465   3.236   2.115  0.0907 -0.1147  0.3395
14230SOL    HW147146   3.522   3.187   2.175 -1.0252  0.0858  1.5985
14230SOL    HW247147   3.379   3.197   2.126 -0.6385  1.5203  0.6884
14231SOL     OW47148   8.469   7.956   0.418 -0.5475 -0.2653 -0.5404
14231SOL    HW147149   8.469   7.860   0.418 -1.9803 -0.2894 -1.5981
14231SOL    HW247150   8.377   7.980   0.408  0.0474  1.2047 -3.2509
14232SOL     OW47151   9.589   7.458   3.383 -0.0718 -0.1192  0.3994
14232SOL    HW147152   9.642   7.469   3.304 -0.7475 -1.5870 -0.3121
14232SOL    HW247153   9.652   7.466   3.455  0.7054  0.4360 -0.3140
14233SOL     OW47154   2.278   2.973   9.002  0.3984 -0.7143 -0.8879
14233SOL    HW147155   2.374   2.972   8.999  0.4229 -0.1901 -0.3915
14233SOL    HW247156   2.257   2.956   9.094  0.0935  2.2937 -0.3124
14234SOL     OW47157   1.614   4.295   4.486 -0.2813  0.4676  0.1970
14234SOL    HW147158   1.644   4.245   4.410  0.0770 -0.0545  0.6726
14234SOL    HW247159   1.684   4.358   4.502  0.5183 -0.6348  1.1995
14235SOL     OW47160   1.288   2.679   6.325 -0.2641 -0.1439 -0.1679
14235SOL    HW147161   1.334   2.762   6.339  0.8302 -0.7612  0.0200
14235SOL    HW247162   1.196   2.700   6.339  0.2477  0.3834  3.2447
14236SOL     OW47163   6.721   1.302   2.814 -0.1073 -0.5400  0.3810
14236SOL    HW147164   6.662   1.235   2.778 -2.0392  0.1795  2.0392
14236SOL    HW247165   6.669   1.382   2.812  1.7083  0.6715 -0.3189
14237SOL     OW47166   1.243  10.141   3.751  0.0603 -0.1025 -0.3341
14237SOL    HW147167   1.235  10.047   3.768 -2.1483  0.3914  2.1052
14237SOL    HW247168   1.196  10.154   3.669 -2.5915 -0.7937  0.9660
14238SOL     OW47169   0.077   2.544   8.673 -0.4628 -0.3041 -0.2733
14238SOL    HW147170   0.121   2.515   8.593 -0.9168  0.4398 -0.7989
14238SOL    HW247171   0.058   2.463   8.720  1.4945 -0.6551 -0.0028
14239SOL     OW47172   4.850   7.553   5.574  0.0689 -0.0588  0.0985
14239SOL    HW147173   4.772   7.578   5.623 -1.4872 -1.3861 -1.5675
14239SOL    HW247174   4.859   7.621   5.507 -1.1239 -1.1394 -1.2079
14240SOL     OW47175   6.147   0.193   8.882  0.0974 -0.5319  0.2226
14240SOL    HW147176   6.062   0.150   8.870 -0.9076  1.5902 -0.8363
14240SOL    HW247177   6.126   0.275   8.926  1.7349 -0.3409  0.7143
14241SOL     OW47178   8.330   5.018   1.224 -0.1126 -0.3801 -0.0560
14241SOL    HW147179   8.298   4.954   1.160 -0.6909  1.9010 -2.2350
14241SOL    HW247180   8.418   4.986   1.247 -0.4705 -2.0742 -0.8427
14242SOL     OW47181   8.441   6.111   3.216  0.2669 -0.7349 -0.2469
14242SOL    HW147182   8.416   6.104   3.124  1.4676 -3.3665 -0.4756
14242SOL    HW247183   8.480   6.026   3.237  2.9580  0.8218  1.8062
14243SOL     OW47184   5.557   2.259   5.985 -0.1753  0.7895 -0.5034
14243SOL    HW147185   5.617   2.328   6.012  3.6997 -1.5267 -2.2568
14243SOL    HW247186   5.577   2.186   6.043 -0.7990 -0.2610 -1.5746
14244SOL     OW47187   5.768   2.855   5.353 -0.3598  0.1810 -0.0842
14244SOL    HW147188   5.826   2.925   5.380 -1.7311  0.1435  3.4453
14244SOL    HW247189   5.816   2.775   5.372 -0.1081  0.1256 -0.9014
14245SOL     OW47190   7.224   6.085  10.144 -0.4063  0.2597 -0.6078
14245SOL    HW147191   7.209   6.043  10.059  3.0336 -0.9143 -0.7922
14245SOL    HW247192   7.242   6.176  10.122 -0.5922  0.2051 -1.0082
14246SOL     OW47193   2.939  10.746   9.187  0.0134 -0.4316 -0.3257
14246SOL    HW147194   2.991  10.770   9.111 -0.3977  1.2585 -0.1224
14246SOL    HW247195   2.990  10.778   9.262 -1.4754  1.7899 -0.1527
14247SOL     OW47196   6.650   1.693   3.728  0.0732  0.3466  0.3444
14247SOL    HW147197   6.743   1.718   3.723  0.2626 -0.5143 -1.9853
14247SOL    HW247198   6.651   1.609   3.774  0.4850  0.2436  0.1602
14248SOL     OW47199   0.619   5.652   7.501 -0.2773 -0.4472 -0.2695
14248SOL    HW147200   0.553   5.587   7.526  0.3505 -0.3924  1.7007
14248SOL    HW247201   0.702   5.614   7.531  0.2195  0.8261  0.0275
14249SOL     OW47202   0.454  10.690   8.599 -0.2644 -0.0921 -0.2726
14249SOL    HW147203   0.459  10.595   8.601  1.8607 -0.0464 -0.7264
14249SOL    HW247204   0.464  10.716   8.690 -0.6282 -0.2940 -0.1733
14250SOL     OW47205   7.482   0.648   6.059 -0.0114  0.7666 -0.0002
14250SOL    HW147206   7.421   0.709   6.017  0.3730 -1.2297 -3.8039
14250SOL    HW247207   7.568   0.680   6.034  0.6567  2.1882  3.4098
14251SOL     OW47208   4.576  10.894   3.430 -0.1472 -0.5684  0.1027
14251SOL    HW147209   4.496  10.943   3.411  0.6263  0.0919 -1.6560
14251SOL    HW247210   4.550  10.802   3.423 -0.9803 -0.3803  0.6148
14252SOL     OW47211   3.859   5.581   6.625  0.2004  0.3635 -0.1004
14252SOL    HW147212   3.954   5.589   6.611  0.0953 -1.2644 -2.2227
14252SOL    HW247213   3.831   5.516   6.561 -1.9760 -1.1341  2.2196
14253SOL     OW47214   0.412   4.893   3.322  0.0123 -0.2317  0.0460
14253SOL    HW147215   0.465   4.862   3.396  0.7344  3.1933  1.1301
14253SOL    HW247216   0.476   4.932   3.262 -0.9422  0.5970 -0.4547
14254SOL     OW47217   4.438   9.746   0.706 -0.2958 -0.0482  0.1396
14254SOL    HW147218   4.520   9.716   0.746 -0.1243 -0.6345 -0.6183
14254SOL    HW247219   4.385   9.666   0.697 -1.5059  0.5214  1.8467
14255SOL     OW47220   2.651   2.818   7.055  0.6078 -0.1589  0.2877
14255SOL    HW147221   2.680   2.872   6.982  1.6025  0.1931  0.9100
14255SOL    HW247222   2.601   2.748   7.015 -0.4136  1.0200 -0.5732
14256SOL     OW47223  10.488   6.705   2.203  0.1120 -0.1910 -0.3293
14256SOL    HW147224  10.550   6.639   2.234 -0.2155 -0.4461 -0.2123
14256SOL    HW247225  10.407   6.686   2.251  0.4124  1.1622  0.7682
14257SOL     OW47226   9.130   1.371   7.546  0.1488 -0.3935  0.0718
14257SOL    HW147227   9.223   1.382   7.526  0.0612  0.5630  0.1204
14257SOL    HW247228   9.098   1.313   7.478  0.3660  0.9253 -1.2139
14258SOL     OW47229   3.802   7.876   0.014 -0.1778  0.5529  0.1441
14258SOL    HW147230   3.852   7.796   0.025  0.0138  0.6119 -0.3014
14258SOL    HW247231   3.862   7.937  -0.028 -0.4739  0.7744  0.0353
14259SOL     OW47232   1.104   5.917  10.293 -0.2153  0.0235 -0.2046
14259SOL    HW147233   1.019   5.961  10.297 -0.8738 -0.4557 -4.4446
14259SOL    HW247234   1.088   5.830  10.329 -1.7427 -0.2364 -1.3885
14260SOL     OW47235   6.701   7.683   9.161  0.6477  0.2825 -0.9605
14260SOL    HW147236   6.759   7.622   9.116 -0.6433 -1.7304 -0.0221
14260SOL    HW247237   6.668   7.740   9.092  1.2935 -0.5734 -2.0015
14261SOL     OW47238   4.323   3.614   8.120 -0.1290 -0.2168  0.3696
14261SOL    HW147239   4.335   3.519   8.121  0.5102 -0.2286 -2.3803
14261SOL    HW247240   4.407   3.649   8.092 -1.5123  0.7961 -2.9739
14262SOL     OW47241   0.222   9.093   7.396  0.2187 -0.1339  0.4420
14262SOL    HW147242   0.290   9.149   7.433  2.3347 -2.6597  0.6445
14262SOL    HW247243   0.268   9.036   7.335 -1.8957 -1.3089 -0.1607
14263SOL     OW47244   0.273   5.043   1.924 -0.0362 -0.1152  0.4806
14263SOL    HW147245   0.197   5.063   1.870 -0.6738  1.1506  1.7710
14263SOL    HW247246   0.330   5.120   1.914  2.8582 -2.4063 -3.2093
14264SOL     OW47247   3.587   2.512   1.663 -0.7840 -0.5615 -0.4507
14264SOL    HW147248   3.653   2.559   1.716 -2.1443 -1.5146  2.2812
14264SOL    HW247249   3.550   2.580   1.607 -1.6766  1.4594  2.3299
14265SOL     OW47250   5.729   7.579  10.247  0.3376 -0.0513  0.4954
14265SOL    HW147251   5.643   7.545  10.223  0.2131  1.1957 -1.0506
14265SOL    HW247252   5.770   7.509  10.296 -0.8973 -1.3653 -0.2695
14266SOL     OW47253   4.487   2.515   7.360  0.4810 -0.7056 -0.3385
14266SOL    HW147254   4.491   2.534   7.266 -1.2671 -0.6298 -0.4313
14266SOL    HW247255   4.533   2.588   7.401  1.2243 -0.7129 -1.1341
14267SOL     OW47256   1.769   1.219   4.136 -0.0582  0.3335  0.0783
14267SOL    HW147257   1.694   1.188   4.186  0.2890 -1.1596 -0.2747
14267SOL    HW247258   1.750   1.195   4.045  0.6567  0.2889 -0.0688
14268SOL     OW47259   1.724   3.872   4.646  0.0419 -0.4418  0.2307
14268SOL    HW147260   1.752   3.807   4.711 -0.8098 -0.1568  0.9093
14268SOL    HW247261   1.772   3.850   4.567  1.3981 -0.5770  1.0574
14269SOL     OW47262   6.038   4.104   7.502  0.1651 -0.4369 -0.1905
14269SOL    HW147263   5.985   4.029   7.475  0.6178 -0.2895 -1.5568
14269SOL    HW247264   6.086   4.073   7.579 -1.3877 -0.7796  0.6678
14270SOL     OW47265   3.249   8.460   4.574  0.1661 -0.0687 -0.1845
14270SOL    HW147266   3.284   8.525   4.512 -0.1438 -0.8674 -1.2371
14270SOL    HW247267   3.262   8.499   4.660 -0.7117  1.7365 -0.8156
14271SOL     OW47268   4.946   1.624   0.670 -0.6134 -0.3267 -0.6793
14271SOL    HW147269   4.892   1.559   0.625 -0.2350 -0.4381 -0.9805
14271SOL    HW247270   5.008   1.654   0.603 -1.8620  1.6109 -1.0400
14272SOL     OW47271   1.549   8.609   5.856 -0.3653 -0.3603 -0.3589
14272SOL    HW147272   1.505   8.650   5.931 -0.1666  0.7904 -0.8550
14272SOL    HW247273   1.640   8.599   5.883 -0.2465  0.2621 -0.5305
14273SOL     OW47274   0.726   8.541   8.041 -0.4003  0.1607 -0.3037
14273SOL    HW147275   0.643   8.497   8.024  0.2458 -1.2195 -0.0020
14273SOL    HW247276   0.766   8.550   7.954  0.5602 -2.1583 -0.1765
14274SOL     OW47277   3.289   4.375   0.896  0.7048 -0.1917 -0.2809
14274SOL    HW147278   3.255   4.287   0.906  0.0873 -0.0851 -1.2920
14274SOL    HW247279   3.272   4.418   0.980  2.6492 -1.5393  0.8787
14275SOL     OW47280   7.463   4.162  10.883  0.2724  0.0870  0.1134
14275SOL    HW147281   7.452   4.147  10.977  1.4140  0.6284  0.3505
14275SOL    HW247282   7.549   4.125  10.863 -0.1737 -0.4745 -0.8336
14276SOL     OW47283  10.791   2.632  11.037  0.7229  0.3367 -0.2921
14276SOL    HW147284  10.731   2.610  11.108  0.2154 -1.5597 -1.2390
14276SOL    HW247285  10.758   2.715  11.002 -0.6776 -0.1044 -0.0757
14277SOL     OW47286   2.521   2.594   6.451 -0.1122  0.3739  0.2866
14277SOL    HW147287   2.535   2.685   6.428  0.1720  0.3853  0.5013
14277SOL    HW247288   2.473   2.597   6.534 -0.2565  0.3276  0.2063
14278SOL     OW47289  10.099   8.458   0.146  0.3541 -0.4047 -0.0169
14278SOL    HW147290  10.115   8.509   0.066 -0.3543 -0.1398  0.0065
14278SOL    HW247291  10.034   8.393   0.120  0.8302 -0.9263  0.1027
14279SOL     OW47292   6.426   7.972   9.646 -0.0353 -0.1438  0.4181
14279SOL    HW147293   6.500   8.031   9.661  0.8430 -1.2941  0.6527
14279SOL    HW247294   6.381   7.968   9.730 -0.0026  0.0355  0.4463
14280SOL     OW47295   6.720   9.995   0.810  0.1648  0.1938  0.2712
14280SOL    HW147296   6.669  10.075   0.818  0.3632  0.4862 -1.1984
14280SOL    HW247297   6.654   9.925   0.809 -0.2402  0.5552 -1.4139
14281SOL     OW47298   0.821   7.239  10.573  0.7044 -0.4418 -0.4549
14281SOL    HW147299   0.912   7.214  10.557  0.3843 -0.5788 -2.3468
14281SOL    HW247300   0.781   7.238  10.486 -0.9430  0.2804  0.2582
14282SOL     OW47301   3.626   1.493   9.907 -0.1959  0.1677 -0.1510
14282SOL    HW147302   3.623   1.567   9.846  0.7699 -0.4663 -0.9898
14282SOL    HW247303   3.716   1.460   9.900 -0.4710 -0.7686  0.6046
14283SOL     OW47304   0.079   2.310   1.758  0.3265  0.2717 -0.6493
14283SOL    HW147305   0.172   2.333   1.749  0.1800  1.1510  0.0020
14283SOL    HW247306   0.077   2.244   1.828  0.3236  1.2793  0.3228
14284SOL     OW47307   0.896   9.948   4.806  0.1759  0.5678 -0.4565
14284SOL    HW147308   0.920  10.024   4.859 -0.1566  2.0389 -2.3228
14284SOL    HW247309   0.962   9.945   4.737  0.6539 -1.3631  0.0205
14285SOL     OW47310   9.179   3.936   8.417 -0.0749  0.2446 -0.0507
14285SOL    HW147311   9.227   3.954   8.498 -0.9618 -1.2628  0.8605
14285SOL    HW247312   9.089   3.921   8.445 -0.3581 -0.5392 -1.2932
14286SOL     OW47313   9.336   4.196  10.171 -0.3750  0.4305  0.0169
14286SOL    HW147314   9.379   4.238  10.246  0.0007 -0.4479  0.3031
14286SOL    HW247315   9.246   4.227  10.175 -0.3879  0.2947  0.9100
14287SOL     OW47316   4.929   8.561   0.015  0.3021 -0.4973  0.4881
14287SOL    HW147317   4.952   8.520  -0.068 -0.4679 -1.2412  0.6249
14287SOL    HW247318   4.845   8.521   0.039  0.6017 -0.4286  1.7080
14288SOL     OW47319   5.111   4.546  10.402 -0.0609  0.2196 -0.3626
14288SOL    HW147320   5.155   4.630  10.389 -1.2744  0.5378 -3.2544
14288SOL    HW247321   5.031   4.553  10.350 -1.4347 -1.8657  1.3127
14289SOL     OW47322   2.521   4.946   2.876 -0.4896 -0.3203  0.0069
14289SOL    HW147323   2.493   4.870   2.926  0.6732 -1.1924 -0.6027
14289SOL    HW247324   2.563   5.003   2.940 -0.4545 -0.6786  0.3074
14290SOL     OW47325   5.465   6.137   5.121  0.4600  0.0763  0.4958
14290SOL    HW147326   5.416   6.214   5.149  0.1202  0.3088 -0.7045
14290SOL    HW247327   5.431   6.116   5.034  1.0307 -1.0190  0.5108
14291SOL     OW47328   4.748   4.682   5.303 -0.2144  0.2449  0.3082
14291SOL    HW147329   4.706   4.705   5.220  1.9718  3.4181 -0.1134
14291SOL    HW247330   4.680   4.699   5.369 -1.0884  0.5024 -0.6307
14292SOL     OW47331   4.713   9.621   8.836  0.1237 -0.1430  0.0673
14292SOL    HW147332   4.657   9.543   8.832 -1.1634  0.6394  1.5049
14292SOL    HW247333   4.658   9.692   8.803  0.9952  0.3010 -0.4532
14293SOL     OW47334   8.931   0.627   2.197  1.0549  0.2872 -0.5567
14293SOL    HW147335   8.971   0.683   2.263  1.8991 -0.9193 -0.0140
14293SOL    HW247336   8.875   0.567   2.246  0.3605  0.4736 -1.1051
14294SOL     OW47337   7.017  10.292   4.379 -0.1345 -0.1068 -0.7303
14294SOL    HW147338   6.928  10.321   4.359 -0.2100 -0.5734 -1.1065
14294SOL    HW247339   7.072  10.341   4.318 -0.1688 -0.0967 -0.7528
14295SOL     OW47340   0.941   0.818   1.663 -0.0908 -0.2662 -0.0735
14295SOL    HW147341   0.925   0.756   1.591 -0.0814 -0.6084  0.2164
14295SOL    HW247342   1.004   0.880   1.627  1.2240 -1.4172  0.1800
14296SOL     OW47343   9.330   0.017   0.015  0.4123 -0.0484 -0.6846
14296SOL    HW147344   9.304  -0.055   0.072  2.1323 -1.9193 -2.1252
14296SOL    HW247345   9.251   0.038  -0.035 -0.0281 -1.1875 -0.4932
14297SOL     OW47346   7.782   2.743   2.157 -0.0257 -0.2790 -0.0755
14297SOL    HW147347   7.714   2.809   2.145 -1.7080 -2.0775 -0.8741
14297SOL    HW247348   7.833   2.775   2.232 -0.2303  2.3262 -0.9556
14298SOL     OW47349   2.191  10.566   2.474  0.1021 -0.2835 -0.2735
14298SOL    HW147350   2.216  10.477   2.498 -0.3419 -0.9582 -2.1453
14298SOL    HW247351   2.273  10.616   2.474  0.4862 -0.9096 -0.1167
14299SOL     OW47352   4.796   8.269  10.156  0.0008 -0.1203 -0.0112
14299SOL    HW147353   4.777   8.352  10.200  0.0953  0.0552 -0.3000
14299SOL    HW247354   4.791   8.289  10.063  1.4460 -0.0982 -0.1115
14300SOL     OW47355   1.490   1.128   7.062 -0.3656 -0.2039  0.4299
14300SOL    HW147356   1.562   1.069   7.084 -0.9654 -1.0431  0.2407
14300SOL    HW247357   1.519   1.214   7.090 -0.0796 -0.8346  2.1847
14301SOL     OW47358   2.313   4.166   0.700  0.0855  0.1010 -0.0756
14301SOL    HW147359   2.231   4.165   0.750  0.7781  0.7478  1.1153
14301SOL    HW247360   2.349   4.078   0.712  0.0539  0.1304  0.2551
14302SOL     OW47361   3.654   7.875   1.648  0.5013  0.9763 -0.2241
14302SOL    HW147362   3.636   7.850   1.558  2.1732  1.6276 -0.7667
14302SOL    HW247363   3.655   7.970   1.648 -0.2809  1.0069  0.6742
14303SOL     OW47364   9.757   3.056   3.728 -0.0657 -0.7586 -0.6936
14303SOL    HW147365   9.816   3.013   3.667 -0.6073 -0.5312 -1.3978
14303SOL    HW247366   9.670   3.025   3.703 -0.3487 -0.1821 -0.4384
14304SOL     OW47367   1.486   7.075   1.087  0.0768  0.2297 -0.0270
14304SOL    HW147368   1.542   7.099   1.014 -0.0922 -2.1986 -1.0420
14304SOL    HW247369   1.401   7.057   1.047 -0.0265 -1.1007  0.7233
14305SOL     OW47370   0.866   9.692   6.021  0.7552  0.2178  0.1047
14305SOL    HW147371   0.787   9.701   6.074  0.2315 -0.3556 -0.5632
14305SOL    HW247372   0.843   9.730   5.936  1.4208  0.6684  0.1128
14306SOL     OW47373   7.431   7.594   4.534  0.3815  0.6073 -0.2999
14306SOL    HW147374   7.372   7.583   4.460 -0.2023  0.8501  0.1232
14306SOL    HW247375   7.414   7.683   4.566 -0.0093  0.2000  0.6637
14307SOL     OW47376   6.131   7.317   5.266  0.1133 -0.1745  0.1626
14307SOL    HW147377   6.151   7.410   5.268  0.7746 -0.2817 -0.6073
14307SOL    HW247378   6.163   7.288   5.180  0.5910 -1.2474  0.6804
14308SOL     OW47379   4.266   9.244   8.538 -0.0742 -0.3058  0.1745
14308SOL    HW147380   4.174   9.217   8.535  0.0868 -0.8874 -2.7482
14308SOL    HW247381   4.272   9.318   8.478  1.5354 -0.9851 -0.5849
14309SOL     OW47382   5.255   1.478   7.795  0.0120  0.3552  0.6897
14309SOL    HW147383   5.202   1.401   7.813  0.8951 -0.2705  0.7073
14309SOL    HW247384   5.297   1.459   7.711  2.0681 -0.2496  1.7922
14310SOL     OW47385   9.337   2.186   5.247  0.4622 -0.6243 -0.4554
14310SOL    HW147386   9.337   2.116   5.182 -0.5373 -0.0711 -1.0687
14310SOL    HW247387   9.393   2.153   5.317  2.3971 -0.8205 -2.0216
14311SOL     OW47388   0.069   3.352   9.033  0.1028 -0.0154 -0.1026
14311SOL    HW147389   0.010   3.407   8.981  0.3848 -0.1517 -0.5764
14311SOL    HW247390   0.098   3.409   9.104 -1.2960 -0.2163  0.6620
14312SOL     OW47391   0.535   0.023   5.103  0.2914 -0.0490 -0.0388
14312SOL    HW147392   0.568  -0.043   5.163 -0.2322  0.1122  0.4347
14312SOL    HW247393   0.518  -0.024   5.022  1.3987 -0.1878 -0.2070
14313SOL     OW47394   9.546   7.974   0.314 -0.1280 -0.4965  0.0949
14313SOL    HW147395   9.558   8.033   0.240 -1.0438 -1.2283 -0.6694
14313SOL    HW247396   9.495   8.025   0.377 -0.1253 -0.1690 -0.1637
14314SOL     OW47397   8.758   1.749   0.323 -0.2726  0.0209 -0.3389
14314SOL    HW147398   8.711   1.667   0.310  1.3131 -1.1898  1.0846
14314SOL    HW247399   8.762   1.761   0.417  1.6511  0.3914 -0.4140
14315SOL     OW47400   0.425   0.481   0.762  0.0787  0.0034  0.6061
14315SOL    HW147401   0.348   0.429   0.783 -0.5974  1.0870  0.8907
14315SOL    HW247402   0.485   0.419   0.719 -0.7901 -0.9340  0.7039
14316SOL     OW47403   6.159   0.207   2.210  0.3926 -0.4389 -1.1431
14316SOL    HW147404   6.131   0.144   2.143 -0.0063  0.3457 -1.7300
14316SOL    HW247405   6.252   0.221   2.191  0.3948 -0.5752 -1.2397
14317SOL     OW47406   1.905   9.093   4.517 -0.3552  0.4717  0.6354
14317SOL    HW147407   1.993   9.057   4.528 -0.8493 -0.1750  3.0844
14317SOL    HW247408   1.857   9.025   4.471 -0.1035 -0.1137  1.2166
14318SOL     OW47409   3.998   1.944   0.855  0.4931 -0.4227  0.3151
14318SOL    HW147410   4.081   1.926   0.810  1.1797  0.7265  1.0564
14318SOL    HW247411   4.024   1.987   0.936 -0.8953  1.8101 -0.3348
14319SOL     OW47412   8.605   7.383   8.288 -0.5283  0.1734  0.6027
14319SOL    HW147413   8.591   7.470   8.325 -0.3751 -0.4734  2.3180
14319SOL    HW247414   8.576   7.323   8.357 -0.3667 -1.1395 -0.4208
14320SOL     OW47415   6.275   5.912   3.094 -0.0588  0.2494 -0.2003
14320SOL    HW147416   6.243   5.997   3.125 -1.5953 -0.4932  0.3746
14320SOL    HW247417   6.215   5.888   3.024  0.0748 -0.5593 -0.0447
14321SOL     OW47418   7.238   7.222   2.758  0.0584  0.4744  0.3579
14321SOL    HW147419   7.151   7.258   2.776 -0.7379 -0.9381 -0.4401
14321SOL    HW247420   7.232   7.130   2.784  1.7200  0.6363  1.4500
14322SOL     OW47421   5.957   5.274  10.974 -0.6628  0.2919 -0.1599
14322SOL    HW147422   5.924   5.352  11.020 -0.4175 -0.0793  0.6640
14322SOL    HW247423   6.049   5.294  10.956 -0.9688  0.7853 -1.2759
14323SOL     OW47424   9.217   4.182   7.665  0.6057  0.4890  0.5247
14323SOL    HW147425   9.225   4.088   7.652 -0.2639  0.3935  0.6385
14323SOL    HW247426   9.182   4.192   7.753 -0.1561  0.8771  0.1894
14324SOL     OW47427   0.826   6.275   9.646  0.3253 -0.0195 -0.2510
14324SOL    HW147428   0.808   6.325   9.726  1.4764  0.4206 -0.2490
14324SOL    HW247429   0.815   6.184   9.672  1.5402  0.0697  0.6594
14325SOL     OW47430   4.633   3.012   9.273  0.0015  0.2194  0.3402
14325SOL    HW147431   4.589   3.062   9.205 -1.6790 -0.8533  0.5459
14325SOL    HW247432   4.700   3.070   9.308  0.4354  1.0297 -1.7393
14326SOL     OW47433  10.694   0.385   3.781 -0.2551 -0.4499  0.2045
14326SOL    HW147434  10.753   0.435   3.838 -1.0829  0.8377 -0.0155
14326SOL    HW247435  10.724   0.404   3.692 -1.3099  0.6909  0.0604
14327SOL     OW47436   7.241   6.048   3.142  0.2351  0.4882  0.5571
14327SOL    HW147437   7.210   6.106   3.212 -0.7433 -0.0820  0.6166
14327SOL    HW247438   7.321   6.009   3.177  0.2686  0.9143  0.9785
14328SOL     OW47439   8.038   1.273   2.120  0.0160  0.2372 -0.4487
14328SOL    HW147440   8.079   1.356   2.095  1.2920 -0.3698 -0.4362
14328SOL    HW247441   7.989   1.246   2.043 -0.1911  0.8650 -0.5427
14329SOL     OW47442  10.694   9.244   9.294  0.1180 -0.4562 -0.0194
14329SOL    HW147443  10.739   9.315   9.248 -2.2458 -0.2592 -2.2468
14329SOL    HW247444  10.654   9.286   9.369 -0.0906  0.2913 -0.5375
14330SOL     OW47445   1.552   9.046   7.441 -0.0678  0.6114  0.3492
14330SOL    HW147446   1.468   9.082   7.469 -0.7155  1.2985 -2.1940
14330SOL    HW247447   1.618   9.107   7.474 -0.7227  1.1333  0.7012
14331SOL     OW47448   7.648   2.709   3.629 -0.3206  0.1814 -0.0817
14331SOL    HW147449   7.740   2.684   3.633 -0.3028  0.1096 -0.8292
14331SOL    HW247450   7.646   2.801   3.655  0.0417  0.3587 -0.6695
14332SOL     OW47451   2.895   2.402   7.568  0.0757 -0.1955 -0.4195
14332SOL    HW147452   2.881   2.494   7.591  1.0236  0.4364 -2.1748
14332SOL    HW247453   2.949   2.367   7.639  0.1133  0.7527  0.0272
14333SOL     OW47454   1.788   1.102   7.493  0.5785 -0.0539 -0.0639
14333SOL    HW147455   1.881   1.088   7.477  1.0884 -0.0310  2.4564
14333SOL    HW247456   1.780   1.196   7.508  0.1715 -0.0783 -0.1150
14334SOL     OW47457   7.028   7.044   9.592 -0.6578 -0.5563  0.3212
14334SOL    HW147458   7.070   7.009   9.514  0.6706 -1.0182  1.2038
14334SOL    HW247459   6.959   6.982   9.612 -1.1825 -0.2976 -0.6173
14335SOL     OW47460   6.352   8.857   9.127  0.4326  0.6446 -0.2480
14335SOL    HW147461   6.330   8.834   9.217  1.0971  1.9645  0.2744
14335SOL    HW247462   6.418   8.926   9.135  2.0830 -0.6422 -1.7284
14336SOL     OW47463   3.888  10.524   8.430  0.0518  0.1862 -0.1075
14336SOL    HW147464   3.864  10.613   8.456  0.2304  0.2707 -0.2358
14336SOL    HW247465   3.927  10.534   8.343 -0.1300 -0.0431 -0.2146
14337SOL     OW47466   2.820   5.132   5.410  0.1896 -0.3238  0.0297
14337SOL    HW147467   2.869   5.128   5.328  0.7727  2.4860  0.1569
14337SOL    HW247468   2.886   5.150   5.477 -0.6405  0.4691  0.6529
14338SOL     OW47469   4.936   7.039   1.782  0.3077  0.2836 -0.3336
14338SOL    HW147470   4.866   7.045   1.846 -0.2530  3.0261 -1.0626
14338SOL    HW247471   4.985   7.121   1.793  1.7120 -0.3223 -1.7192
14339SOL     OW47472  11.023   0.894   4.574 -0.0294  0.1498  0.3157
14339SOL    HW147473  11.078   0.965   4.606  2.2128 -1.0469 -0.6568
14339SOL    HW247474  11.032   0.898   4.479  0.4502 -1.5947  0.2519
14340SOL     OW47475   3.023   3.527   2.721 -0.1801  0.3196  0.3871
14340SOL    HW147476   3.016   3.464   2.650 -1.6249  0.7038  0.1557
14340SOL    HW247477   3.035   3.612   2.678 -2.6744  0.7901  0.4514
14341SOL     OW47478   7.754   1.390   3.376  0.7278 -0.3652 -0.5155
14341SOL    HW147479   7.660   1.375   3.362  0.4456 -0.4805  1.2673
14341SOL    HW247480   7.793   1.303   3.372  0.3181 -0.6887  1.4688
14342SOL     OW47481   7.015   5.700   4.456 -0.5081 -0.3849 -0.1767
14342SOL    HW147482   7.020   5.634   4.386 -2.0687 -1.1387  0.3793
14342SOL    HW247483   7.010   5.783   4.409  0.5570 -0.7110 -0.9100
14343SOL     OW47484   3.921   8.588   5.555  0.1556  0.5381  0.0755
14343SOL    HW147485   3.979   8.542   5.616 -1.4992 -1.6926  0.0896
14343SOL    HW247486   3.978   8.612   5.482  0.9146 -3.4073 -0.9018
14344SOL     OW47487   8.573   4.397   8.677 -0.3487  0.0992  0.1192
14344SOL    HW147488   8.655   4.430   8.639 -0.3150 -0.8078 -0.6254
14344SOL    HW247489   8.596   4.376   8.768  0.3991 -0.6847 -0.2394
14345SOL     OW47490   5.875   0.848   3.864  0.4208 -0.3557 -0.5352
14345SOL    HW147491   5.936   0.830   3.936 -1.2774  0.1924  1.1198
14345SOL    HW247492   5.816   0.773   3.864  0.1153 -0.1160 -1.0425
14346SOL     OW47493   1.161   5.101   8.735 -0.0370  0.6236 -0.5509
14346SOL    HW147494   1.121   5.042   8.800 -2.5492 -0.5024 -2.8978
14346SOL    HW247495   1.243   5.058   8.710 -0.0010  0.0768  0.4628
14347SOL     OW47496  11.008   8.492   9.399 -0.1902  0.7075  0.9558
14347SOL    HW147497  11.047   8.492   9.487  2.9023  0.8048 -0.2701
14347SOL    HW247498  11.010   8.400   9.372  0.1691  0.8401  0.5096
14348SOL     OW47499   2.933   0.685   2.696 -0.5574 -0.0506  0.6444
14348SOL    HW147500   2.932   0.593   2.672  0.6892  0.3889 -1.3457
14348SOL    HW247501   3.016   0.697   2.742 -0.2347  0.2601 -0.0027
14349SOL     OW47502   9.121   8.618   6.573  0.0828 -0.7381  0.5310
14349SOL    HW147503   9.123   8.557   6.500  0.2350 -0.1702  0.0511
14349SOL    HW247504   9.030   8.620   6.601 -0.1045 -0.4425 -0.0890
14350SOL     OW47505   7.107   9.604  11.036  0.3195  0.3278  0.0816
14350SOL    HW147506   7.115   9.611  10.941 -2.2500 -2.2630 -0.4619
14350SOL    HW247507   7.146   9.520  11.057 -0.3595  0.2580  1.1286
14351SOL     OW47508   1.381   2.141   3.355  0.4392 -0.3210  0.2805
14351SOL    HW147509   1.416   2.071   3.410 -0.6934  0.1261  1.6402
14351SOL    HW247510   1.303   2.104   3.315  1.4062 -0.7308 -1.2988
14352SOL     OW47511   4.512   4.737   6.667  0.1826  0.3503  0.1650
14352SOL    HW147512   4.579   4.783   6.719 -0.0353  2.7467 -1.4874
14352SOL    HW247513   4.430   4.778   6.693 -0.1165  0.4059 -0.8519
14353SOL     OW47514   1.671   3.802   0.844  0.3738 -0.1126  0.0915
14353SOL    HW147515   1.623   3.810   0.761 -0.2540 -0.7712  0.3747
14353SOL    HW247516   1.740   3.868   0.838 -1.6495  2.1746  0.4251
14354SOL     OW47517   8.160   2.160   0.707  0.0494 -0.0304  0.5989
14354SOL    HW147518   8.234   2.220   0.717  1.5587 -1.9955  1.7694
14354SOL    HW247519   8.117   2.160   0.792  0.2458 -0.8223  0.7042
14355SOL     OW47520   8.241   0.418   9.404 -0.3793 -0.0441 -0.1658
14355SOL    HW147521   8.266   0.438   9.314  0.5818 -1.3275 -0.2048
14355SOL    HW247522   8.322   0.393   9.447 -0.7473  0.9441  1.2019
14356SOL     OW47523   5.798   0.058   9.870 -0.4633 -0.1466  0.0073
14356SOL    HW147524   5.802  -0.036   9.849  0.8900  0.1079 -0.9433
14356SOL    HW247525   5.764   0.099   9.790  0.1491  0.3132 -0.0176
14357SOL     OW47526  10.525   1.399   5.518 -0.2882  0.0026 -0.2501
14357SOL    HW147527  10.466   1.374   5.590  0.1576 -0.2620  0.0292
14357SOL    HW247528  10.469   1.400   5.441 -0.6139 -0.4955 -0.0304
14358SOL     OW47529  10.748   3.221   8.986 -0.1331  0.2357 -0.3323
14358SOL    HW147530  10.811   3.249   9.052  0.0951  1.1888 -0.9335
14358SOL    HW247531  10.664   3.254   9.017 -0.1589 -0.0536 -0.0947
14359SOL     OW47532   8.861   2.432   0.371 -0.0923  0.1500 -0.4781
14359SOL    HW147533   8.944   2.407   0.329  0.2981  1.0964 -0.3062
14359SOL    HW247534   8.886   2.453   0.461 -0.5329  0.3562 -0.4036
14360SOL     OW47535   1.781  10.427   2.422 -0.2466 -0.1518  0.1366
14360SOL    HW147536   1.841  10.388   2.358 -2.1581 -1.7704 -0.7563
14360SOL    HW247537   1.838  10.450   2.496  1.4078 -2.3793 -0.3140
14361SOL     OW47538   7.984   3.647   9.863 -0.2313 -0.1007 -0.1101
14361SOL    HW147539   8.004   3.733   9.826  1.0133  0.1784  1.1299
14361SOL    HW247540   8.021   3.649   9.951  1.2441 -2.4181 -0.5670
14362SOL     OW47541   7.918   0.787   4.803  0.2086 -0.4218  0.6328
14362SOL    HW147542   7.920   0.692   4.791 -0.4032 -0.4626  0.8199
14362SOL    HW247543   8.006   0.809   4.834  2.6979 -0.0745 -5.3091
14363SOL     OW47544   5.078   2.091   8.948  0.4003 -0.1770 -0.0031
14363SOL    HW147545   5.156   2.065   8.997  0.4638  1.1820  0.6617
14363SOL    HW247546   5.099   2.177   8.913 -0.3745 -0.2997 -0.8130
14364SOL     OW47547   2.809   0.216   7.059  0.5550 -0.1878 -0.3513
14364SOL    HW147548   2.721   0.230   7.095  0.7332  5.0374 -1.1919
14364SOL    HW247549   2.860   0.183   7.133 -1.3402  0.2123  1.2303
14365SOL     OW47550   4.095   0.137   9.447  0.2819  0.0304 -0.2091
14365SOL    HW147551   4.032   0.089   9.501 -0.3484 -0.1840 -1.1234
14365SOL    HW247552   4.079   0.229   9.469  0.0764 -0.0569  0.0181
14366SOL     OW47553   7.545   6.135   7.358  0.3432  0.2772  0.0482
14366SOL    HW147554   7.635   6.104   7.353  0.1709 -0.1871 -0.2869
14366SOL    HW247555   7.509   6.093   7.436 -0.2213 -1.3121 -1.0042
14367SOL     OW47556   0.114   5.939   6.013  0.4208 -0.4632 -0.1838
14367SOL    HW147557   0.132   6.032   6.021  0.3463 -0.5027  0.4619
14367SOL    HW247558   0.043   5.922   6.075  0.4289 -0.9470 -0.2986
14368SOL     OW47559   3.695   0.671   0.440  0.7540 -0.5867 -0.1128
14368SOL    HW147560   3.743   0.588   0.434 -1.3747 -1.9181  0.2359
14368SOL    HW247561   3.748   0.733   0.390  2.5298 -2.0814 -0.2049
14369SOL     OW47562   6.971   9.642   1.789  0.8756  0.4752  0.7842
14369SOL    HW147563   6.964   9.724   1.838 -2.9649  0.5831  0.3410
14369SOL    HW247564   6.944   9.575   1.852  1.4105 -0.1358  0.3761
14370SOL     OW47565   3.667   6.449   9.888 -0.2813  0.6743  0.4786
14370SOL    HW147566   3.760   6.435   9.908 -0.8164 -2.3625  1.2550
14370SOL    HW247567   3.661   6.441   9.793  0.2277  0.7276  0.4396
14371SOL     OW47568   5.994   0.805   6.247  0.3262 -0.2706  0.1913
14371SOL    HW147569   5.946   0.722   6.251  0.1863 -0.1306  2.2472
14371SOL    HW247570   6.081   0.783   6.282  0.5342  0.3051  0.0408
14372SOL     OW47571   3.689   3.369   4.112 -0.1897 -0.3132 -0.1846
14372SOL    HW147572   3.750   3.299   4.087 -0.4174 -0.4833 -0.2627
14372SOL    HW247573   3.602   3.330   4.102 -0.3037 -0.1807  0.2539
14373SOL     OW47574   7.625   5.152   9.590  0.4168 -0.3277 -0.2469
14373SOL    HW147575   7.574   5.232   9.603 -2.3363 -2.2614  2.4026
14373SOL    HW247576   7.703   5.165   9.643 -1.0397 -0.1225  1.9944
14374SOL     OW47577   2.863   2.264   5.079  0.3338  0.0241  1.0165
14374SOL    HW147578   2.779   2.227   5.105  0.2209 -0.7539 -0.4037
14374SOL    HW247579   2.844   2.357   5.062 -0.0624  0.0241  1.4332
14375SOL     OW47580   2.516   6.177   7.488  0.3620 -0.6566  0.1702
14375SOL    HW147581   2.584   6.187   7.554 -0.8711  0.6011  1.3101
14375SOL    HW247582   2.448   6.126   7.531 -1.2576  1.7072  0.5897
14376SOL     OW47583   2.224   3.343   7.184  0.6752 -0.3411 -0.1825
14376SOL    HW147584   2.225   3.329   7.279  2.2744 -1.4045 -0.3228
14376SOL    HW247585   2.158   3.410   7.171  0.9058  0.3387  1.7702
14377SOL     OW47586   3.061  10.305   1.430 -0.0669  1.0577  0.0246
14377SOL    HW147587   3.014  10.321   1.348 -0.0019  1.0314 -0.0178
14377SOL    HW247588   3.153  10.322   1.409  0.1091 -0.1182 -0.2211
14378SOL     OW47589   6.251   2.802   4.900  0.5557 -0.8156  0.3412
14378SOL    HW147590   6.295   2.724   4.933 -0.9791 -0.4642  3.5871
14378SOL    HW247591   6.315   2.872   4.909  0.5996 -0.9803  1.4262
14379SOL     OW47592   1.855   3.320   3.662  0.0020  0.3120 -0.4241
14379SOL    HW147593   1.791   3.255   3.690  0.5286  0.5911  1.5230
14379SOL    HW247594   1.891   3.284   3.580  0.8198 -2.2554  0.9549
14380SOL     OW47595  10.804  10.129   4.802 -0.4049  0.1584 -0.2484
14380SOL    HW147596  10.710  10.114   4.791 -0.2958  0.0241 -1.1244
14380SOL    HW247597  10.844  10.074   4.735  0.3304 -0.1874  0.4633
14381SOL     OW47598   4.447   2.375   1.665  0.3549 -0.7949 -0.1198
14381SOL    HW147599   4.358   2.369   1.701  0.8142  1.1950  1.5000
14381SOL    HW247600   4.488   2.292   1.691 -0.6059 -1.1508  0.3272
14382SOL     OW47601   6.206   3.969   6.007  0.2342 -0.1862 -0.4917
14382SOL    HW147602   6.120   4.010   6.022  0.4558 -0.3269  1.3809
14382SOL    HW247603   6.266   4.044   5.997  0.6446  0.0876  2.9661
14383SOL     OW47604  10.225   7.621   1.415  0.3354 -0.1755 -0.3535
14383SOL    HW147605  10.262   7.665   1.491 -1.1073  1.8555 -0.7310
14383SOL    HW247606  10.149   7.575   1.448 -0.3416  0.7770 -0.5344
14384SOL     OW47607   7.038  10.617   1.454 -0.1956  0.2251  0.9119
14384SOL    HW147608   7.027  10.711   1.466  2.1386  0.4199  1.9918
14384SOL    HW247609   6.972  10.578   1.512 -0.5444  1.1720  1.1809
14385SOL     OW47610   1.317  10.767   5.979 -0.4885 -0.0889 -0.1292
14385SOL    HW147611   1.297  10.835   6.044  1.2772 -1.1235  1.6313
14385SOL    HW247612   1.396  10.798   5.935  0.1502 -0.8184  0.4730
14386SOL     OW47613   4.756   7.410   6.734  0.0155 -0.0902  0.1864
14386SOL    HW147614   4.846   7.381   6.720 -0.2430 -1.4520  1.0537
14386SOL    HW247615   4.718   7.343   6.791 -1.4086  0.7078  0.2399
14387SOL     OW47616   9.994   1.863   5.056 -0.2715 -0.2197 -0.0626
14387SOL    HW147617   9.962   1.785   5.010  0.1225 -0.5663  0.2439
14387SOL    HW247618   9.977   1.845   5.148 -1.0476  0.4681 -0.0494
14388SOL     OW47619   2.825   6.643   8.987  0.1612  0.0850  0.4841
14388SOL    HW147620   2.918   6.666   8.984  0.0799  0.3534 -1.7163
14388SOL    HW247621   2.801   6.628   8.895 -1.8981 -0.2996  1.0301
14389SOL     OW47622   7.695   7.879   6.498 -0.3932 -0.4014  0.7830
14389SOL    HW147623   7.765   7.818   6.476  0.6073  1.4360 -1.6038
14389SOL    HW247624   7.694   7.880   6.594 -0.2258 -3.7666  0.9420
14390SOL     OW47625   8.995   2.220   3.529  0.5985  0.0002 -0.1066
14390SOL    HW147626   9.061   2.257   3.471  1.0424 -0.3145  0.1862
14390SOL    HW247627   9.043   2.200   3.609 -0.2000  1.3264  0.7355
14391SOL     OW47628  10.755   3.303   5.813 -1.0097  0.5055 -0.0738
14391SOL    HW147629  10.784   3.221   5.852 -0.1984  1.2503  0.9396
14391SOL    HW247630  10.696   3.277   5.743  0.0812 -0.9794 -0.4793
14392SOL     OW47631   2.791  10.808   6.011  0.3747 -0.2443 -0.3368
14392SOL    HW147632   2.845  10.735   5.979  0.5837 -1.0520  1.6950
14392SOL    HW247633   2.706  10.794   5.969  1.3210  0.2724 -2.5268
14393SOL     OW47634   1.265   5.390  10.591  0.3139 -0.8737 -0.4285
14393SOL    HW147635   1.339   5.417  10.537  0.2981 -0.5919 -0.3105
14393SOL    HW247636   1.189   5.395  10.533  0.2162 -0.0551 -0.2358
14394SOL     OW47637   1.823   9.191   5.111  0.5139 -0.6177  0.1308
14394SOL    HW147638   1.781   9.110   5.079  1.8156 -1.0602 -0.5554
14394SOL    HW247639   1.826   9.180   5.206  1.3618 -1.7508 -0.0030
14395SOL     OW47640   2.583   6.782   9.014  0.2190 -0.0490 -0.6064
14395SOL    HW147641   2.666   6.735   9.021 -0.1903 -0.7157 -0.1457
14395SOL    HW247642   2.603   6.872   9.041  0.7171 -0.2890 -0.1827
14396SOL     OW47643   6.081  10.975   7.420  0.5349 -0.3991  0.0082
14396SOL    HW147644   6.096  11.054   7.472  2.9214 -0.8686  0.1590
14396SOL    HW247645   5.987  10.974   7.405  0.2452  1.6908  1.2259
14397SOL     OW47646   5.451   3.172   7.231  0.3530 -0.3311 -0.1290
14397SOL    HW147647   5.490   3.252   7.267  1.5968 -0.6250 -0.7805
14397SOL    HW247648   5.493   3.161   7.146  0.0459 -1.5795 -0.1348
14398SOL     OW47649   3.701  10.092   4.501  0.2289 -0.2345 -0.2113
14398SOL    HW147650   3.646  10.013   4.499  0.3810 -0.3639  0.3589
14398SOL    HW247651   3.728  10.100   4.593  1.2390 -0.2323 -0.4874
14399SOL     OW47652   9.617   4.663  10.668 -0.0011  0.1223  0.0474
14399SOL    HW147653   9.567   4.721  10.726  0.1695  0.4333 -0.1125
14399SOL    HW247654   9.573   4.670  10.584  0.7420  0.9664 -0.2817
14400SOL     OW47655   1.598   2.469   7.347  0.0065  0.1040  0.6537
14400SOL    HW147656   1.577   2.376   7.336  0.2000  0.1471 -0.1714
14400SOL    HW247657   1.572   2.510   7.264  1.5860  0.4717  0.2920
14401SOL     OW47658   2.154  10.821   4.293  0.3368  0.8434  0.6279
14401SOL    HW147659   2.060  10.808   4.280  0.5073  1.2769 -1.3151
14401SOL    HW247660   2.194  10.741   4.258  0.7782  1.6481 -0.7925
14402SOL     OW47661   9.077   2.699   1.616 -0.2793  0.0403  0.2008
14402SOL    HW147662   9.148   2.679   1.556 -0.5141  0.9021 -0.3890
14402SOL    HW247663   9.012   2.745   1.562 -1.3124 -0.7677  0.7056
14403SOL     OW47664   4.753   6.197   7.299  0.0576 -0.4746  0.0938
14403SOL    HW147665   4.744   6.292   7.295  1.8700 -0.2383  0.6990
14403SOL    HW247666   4.755   6.169   7.208 -0.6076  0.0547 -0.0870
14404SOL     OW47667   3.109   8.145   0.907 -0.0342 -0.3342  0.0247
14404SOL    HW147668   3.036   8.090   0.936  0.3337 -0.4119  0.8406
14404SOL    HW247669   3.115   8.213   0.974  0.2576  0.0265 -0.3643
14405SOL     OW47670   8.122   5.938  10.675 -0.0468 -0.0831 -0.1036
14405SOL    HW147671   8.092   5.859  10.719  1.5278 -0.6031  0.1138
14405SOL    HW247672   8.060   6.006  10.702 -1.8486 -1.3510 -0.8593
14406SOL     OW47673   8.943  10.813   4.612  0.7127 -0.7513  0.1683
14406SOL    HW147674   8.926  10.896   4.657  1.4944  0.2130 -1.2337
14406SOL    HW247675   8.883  10.814   4.537  1.6617 -0.7837 -0.6191
14407SOL     OW47676   9.126   7.433   0.694  0.2766  0.8620 -0.1030
14407SOL    HW147677   9.171   7.433   0.779 -0.3728 -0.9123  0.2774
14407SOL    HW247678   9.033   7.438   0.717 -0.1521 -2.9706 -0.4644
14408SOL     OW47679  10.123   6.954   9.886 -0.3271 -0.0260 -0.0685
14408SOL    HW147680  10.052   6.924   9.831 -0.6576 -2.5674  1.5671
14408SOL    HW247681  10.080   7.002   9.957  0.0052  2.1758 -1.2699
14409SOL     OW47682   9.604   2.445   9.980  0.1379  0.0486  0.1718
14409SOL    HW147683   9.556   2.525  10.001  0.5653 -0.0231  1.5626
14409SOL    HW247684   9.589   2.431   9.887  1.3301  2.6241 -0.5130
14410SOL     OW47685   4.212   6.364   6.628  0.9602  0.0030 -0.0643
14410SOL    HW147686   4.144   6.381   6.693 -1.0356 -1.6358 -1.5716
14410SOL    HW247687   4.218   6.446   6.578  2.8273  1.4332  2.2977
14411SOL     OW47688   0.738   1.810   3.457  0.2504  0.0058 -0.3575
14411SOL    HW147689   0.829   1.807   3.485  0.3462  1.4545 -0.3998
14411SOL    HW247690   0.690   1.835   3.537 -0.3463 -2.3286  0.0720
14412SOL     OW47691   8.594   0.513   6.716 -0.0494 -0.0319 -0.4073
14412SOL    HW147692   8.682   0.535   6.685  1.3694 -0.5855  2.7757
14412SOL    HW247693   8.592   0.418   6.717  0.2454 -0.0569  1.6837
14413SOL     OW47694  10.693   8.324   3.695  0.2222  0.4682 -0.9608
14413SOL    HW147695  10.682   8.230   3.708  0.1356  0.6240  0.1723
14413SOL    HW247696  10.679   8.362   3.782  0.3245  1.5208 -1.3933
14414SOL     OW47697   5.982   9.489   3.927  0.9754  0.3133 -0.0643
14414SOL    HW147698   5.927   9.532   3.992 -0.0186 -0.3854 -0.4254
14414SOL    HW247699   5.985   9.550   3.853  0.7224  0.3772 -0.0216
14415SOL     OW47700   9.126   3.204   0.079  1.0974  0.4643 -0.3472
14415SOL    HW147701   9.105   3.281   0.026 -0.2580 -0.1191 -0.6743
14415SOL    HW247702   9.052   3.194   0.138 -0.2750 -2.3812 -2.3749
14416SOL     OW47703   0.337   0.977   0.339 -0.1817  0.2372  0.0055
14416SOL    HW147704   0.303   1.052   0.387 -1.4533 -1.1858  1.4357
14416SOL    HW247705   0.299   0.985   0.251 -0.3301  1.2263  0.1473
14417SOL     OW47706   2.806   7.961  10.058  0.5809 -0.0606  0.1004
14417SOL    HW147707   2.786   8.034  10.000 -1.3941  0.6146  1.4988
14417SOL    HW247708   2.730   7.955  10.116  1.6222 -1.8898  1.3972
14418SOL     OW47709   4.672   6.262   4.528  0.1392  0.2711 -1.0580
14418SOL    HW147710   4.581   6.286   4.547  0.3149  0.6256 -0.6356
14418SOL    HW247711   4.706   6.231   4.612  0.0805 -0.9604 -1.4677
14419SOL     OW47712   2.628   8.688   5.113  0.0929  0.0725 -0.1623
14419SOL    HW147713   2.637   8.760   5.050 -2.9693  1.4296  0.7770
14419SOL    HW247714   2.660   8.611   5.066 -0.7576  1.2644 -2.8967
14420SOL     OW47715   2.234   1.784   3.311  0.6452 -0.3961 -0.1147
14420SOL    HW147716   2.174   1.840   3.263  0.0314 -0.3814  0.6587
14420SOL    HW247717   2.321   1.818   3.289  0.3909 -0.3798 -1.1849
14421SOL     OW47718   4.415   8.527   3.071  0.6277  0.0394  0.0426
14421SOL    HW147719   4.451   8.476   3.144 -1.7687 -1.0429  0.5475
14421SOL    HW247720   4.370   8.600   3.112 -0.6330 -0.5050 -0.3337
14422SOL     OW47721   0.177   0.301   2.105  0.3777  0.4342 -0.2071
14422SOL    HW147722   0.264   0.265   2.121 -0.4734 -1.7831 -0.1926
14422SOL    HW247723   0.191   0.368   2.038  2.0679  0.0241 -0.3175
14423SOL     OW47724   8.989   4.965   0.431 -0.0698 -0.6046  0.0961
14423SOL    HW147725   9.037   4.992   0.510  1.0864 -1.3118 -0.3482
14423SOL    HW247726   8.902   4.943   0.463  0.0614  0.1327  1.0155
14424SOL     OW47727   0.643   1.621   7.174  0.2775  0.1890 -0.1265
14424SOL    HW147728   0.721   1.589   7.128  0.4668  0.3849  0.0590
14424SOL    HW247729   0.639   1.714   7.152 -0.6312 -0.0750 -1.1909
14425SOL     OW47730   8.491  10.364   3.549  0.2081  0.2042  0.2585
14425SOL    HW147731   8.484  10.385   3.642  2.3400  1.3478  0.2299
14425SOL    HW247732   8.519  10.447   3.508  0.5336 -0.5866 -1.1963
14426SOL     OW47733   2.645   5.065   0.136  0.6179 -0.2628  0.5221
14426SOL    HW147734   2.697   5.025   0.206 -0.5286 -1.4871  0.7033
14426SOL    HW247735   2.571   5.105   0.181  0.3386 -0.2868  0.0906
14427SOL     OW47736   5.120   3.393   4.537  0.5559 -0.3349  0.1000
14427SOL    HW147737   5.176   3.414   4.611  0.5374 -1.3875  0.4383
14427SOL    HW247738   5.059   3.466   4.531  1.1285  0.1882  0.5579
14428SOL     OW47739   6.235   0.601   2.566 -0.1826 -0.1231  0.8140
14428SOL    HW147740   6.323   0.638   2.558  0.3684 -1.4748  0.2693
14428SOL    HW247741   6.189   0.630   2.488 -1.1917  2.8910  2.3649
14429SOL     OW47742   9.826   7.085   7.454 -0.0867 -0.4685 -0.3496
14429SOL    HW147743   9.827   7.038   7.370 -0.2526  0.7191 -1.0420
14429SOL    HW247744   9.742   7.131   7.455  0.6997  1.0435 -0.4343
14430SOL     OW47745   2.035   4.704   1.496 -0.3218 -0.3486 -0.0046
14430SOL    HW147746   2.011   4.728   1.406  0.8892  2.6134  0.3353
14430SOL    HW247747   2.103   4.639   1.486 -0.3105 -0.1751 -1.2426
14431SOL     OW47748   0.634   6.591   1.376  0.5068  0.2551  0.5567
14431SOL    HW147749   0.676   6.505   1.371 -1.7993 -0.8885 -0.7258
14431SOL    HW247750   0.587   6.600   1.293  0.0966  2.4705  0.9571
14432SOL     OW47751   0.892   0.289   8.881  0.8978 -0.4263  0.2417
14432SOL    HW147752   0.819   0.291   8.944  0.2280 -1.9350 -0.4503
14432SOL    HW247753   0.853   0.256   8.800  2.0309  0.2740 -0.6126
14433SOL     OW47754   1.633   3.877   3.428 -0.6979 -0.6574 -0.7182
14433SOL    HW147755   1.683   3.958   3.428 -0.1621 -0.9769  0.1880
14433SOL    HW247756   1.557   3.895   3.372 -0.5058  0.4036 -0.6434
14434SOL     OW47757   5.809   3.932   5.428 -0.4406 -0.2986  0.3942
14434SOL    HW147758   5.896   3.897   5.446 -0.4025 -0.5941 -0.3244
14434SOL    HW247759   5.798   4.003   5.491  0.9846  0.8211 -0.5530
14435SOL     OW47760   4.232  10.997   2.353  0.0203 -0.3558  0.0327
14435SOL    HW147761   4.202  10.933   2.289  1.4084  0.6667 -1.7720
14435SOL    HW247762   4.327  11.000   2.340 -0.0978  3.1135 -1.1455
14436SOL     OW47763   9.016   4.136   8.274 -0.2243  0.0464  0.0970
14436SOL    HW147764   9.072   4.082   8.329  0.8037  1.6515  0.6909
14436SOL    HW247765   8.947   4.167   8.332 -0.5558 -0.2401 -0.1344
14437SOL     OW47766   1.666   7.722   8.259 -0.6444 -0.1780 -0.5397
14437SOL    HW147767   1.633   7.748   8.345 -0.6048  0.4926 -0.7179
14437SOL    HW247768   1.600   7.662   8.225 -1.5039  0.8315 -0.7231
14438SOL     OW47769   6.866   9.905   5.671 -0.2960  0.0860  0.1541
14438SOL    HW147770   6.899   9.892   5.582  0.6453 -0.2391  0.5271
14438SOL    HW247771   6.879   9.820   5.713 -0.6900  0.2491  0.6091
14439SOL     OW47772   3.439   3.245  10.605  0.0458  0.1307 -0.4139
14439SOL    HW147773   3.466   3.232  10.696 -1.0690 -1.7318 -0.2889
14439SOL    HW247774   3.488   3.322  10.576  2.2157 -0.6186  1.0210
14440SOL     OW47775   8.884   0.419   7.881 -0.1685 -0.3041  0.3658
14440SOL    HW147776   8.967   0.438   7.924  0.4701  0.7142 -1.2334
14440SOL    HW247777   8.903   0.348   7.820  0.0508  1.1241 -1.3364
14441SOL     OW47778   7.880   1.757   5.642  0.6108  0.0322  0.4811
14441SOL    HW147779   7.872   1.828   5.706 -0.8069 -0.0413  0.4090
14441SOL    HW247780   7.873   1.800   5.557 -1.6688 -0.2972  0.4439
14442SOL     OW47781   8.993   1.806   8.676 -0.2045  0.4990  0.4654
14442SOL    HW147782   8.907   1.846   8.693 -0.2711  0.8768 -0.6890
14442SOL    HW247783   9.053   1.881   8.668 -0.1540  0.3403 -0.7816
14443SOL     OW47784   7.831  10.393   5.346  0.4824  0.3509 -0.2466
14443SOL    HW147785   7.879  10.471   5.375  0.3241  0.8728 -1.3444
14443SOL    HW247786   7.868  10.321   5.398  0.1994  1.2345  1.2542
14444SOL     OW47787  10.379   2.229   0.877  0.2692  0.1042 -0.4448
14444SOL    HW147788  10.335   2.186   0.805 -0.8735  0.0131  0.2940
14444SOL    HW247789  10.463   2.258   0.840 -0.3203  0.1122 -1.8088
14445SOL     OW47790   2.985   4.229   6.095  0.0499 -0.3701 -0.4527
14445SOL    HW147791   3.041   4.266   6.164 -0.0064  0.5316 -0.8730
14445SOL    HW247792   2.909   4.196   6.142 -0.1966  0.6413 -0.1111
14446SOL     OW47793   1.320   4.488   2.800 -0.2476 -0.5097  0.3479
14446SOL    HW147794   1.379   4.499   2.874 -1.2681  0.1983  1.0745
14446SOL    HW247795   1.378   4.465   2.727  1.0213  0.9816  0.8370
14447SOL     OW47796  10.941   8.770   1.320  0.0493  0.7656 -0.1987
14447SOL    HW147797  11.019   8.804   1.363 -0.5193 -0.2285  1.7494
14447SOL    HW247798  10.968   8.755   1.229  2.3526 -0.1612  0.5622
14448SOL     OW47799   9.296   8.933   1.211 -0.0925  0.3647  0.3616
14448SOL    HW147800   9.387   8.949   1.185 -0.4306  2.8152  0.4508
14448SOL    HW247801   9.278   8.844   1.181  2.0853  0.0920 -0.3349
14449SOL     OW47802   6.921   7.195   0.461 -0.1651 -0.9291 -0.9599
14449SOL    HW147803   6.993   7.213   0.401 -0.4379  0.5408 -0.8685
14449SOL    HW247804   6.959   7.208   0.548 -0.0661 -1.9882 -0.8269
14450SOL     OW47805   1.973  10.068   4.153 -0.2056  0.0831 -0.0026
14450SOL    HW147806   1.971  10.159   4.183 -0.2645 -0.0439  0.3902
14450SOL    HW247807   1.888  10.055   4.111 -1.0758 -0.3830  1.7801
14451SOL     OW47808  10.685   7.278   8.557 -0.0271 -0.1139 -0.0730
14451SOL    HW147809  10.754   7.306   8.617 -1.3602  0.8492  1.0932
14451SOL    HW247810  10.620   7.348   8.563 -1.2371 -1.1370 -0.9111
14452SOL     OW47811   4.794   0.529   6.776 -0.0582 -0.0667  0.0877
14452SOL    HW147812   4.767   0.438   6.775  0.5801 -0.2602 -0.4327
14452SOL    HW247813   4.823   0.547   6.687 -1.6873  1.1220 -0.2492
14453SOL     OW47814   9.877  10.583   7.542  0.0795  0.2759  0.1332
14453SOL    HW147815   9.854  10.503   7.590  0.4595 -0.1521 -0.3767
14453SOL    HW247816   9.836  10.653   7.591  0.5141 -0.1438  1.1235
14454SOL     OW47817   3.345   7.147   4.208  0.3808 -0.0413  0.9759
14454SOL    HW147818   3.259   7.109   4.192  0.1939  0.4907  0.7118
14454SOL    HW247819   3.327   7.234   4.245  0.8035 -0.0617  1.2446
14455SOL     OW47820  10.804   4.149   6.107 -0.0588  0.2706 -0.5139
14455SOL    HW147821  10.720   4.109   6.083 -0.6834  0.8154  0.6882
14455SOL    HW247822  10.817   4.219   6.043  0.2602 -0.7997 -1.6535
14456SOL     OW47823   0.979   8.724   0.143  0.2152 -0.5895  0.0596
14456SOL    HW147824   0.993   8.803   0.195  0.0368 -0.2667 -0.3794
14456SOL    HW247825   0.905   8.745   0.086 -1.0369 -1.7171  1.2031
14457SOL     OW47826  10.512   6.311  10.720 -0.7596  0.4577  0.9167
14457SOL    HW147827  10.531   6.227  10.680 -1.1612  0.2892  1.0796
14457SOL    HW247828  10.556   6.375  10.664 -1.4036  0.2350  0.1307
14458SOL     OW47829   6.849   4.224   7.107  0.1050  0.1323 -0.1504
14458SOL    HW147830   6.880   4.277   7.181 -1.2292  0.2260  0.3613
14458SOL    HW247831   6.820   4.142   7.147  1.6330 -0.8215 -0.8760
14459SOL     OW47832   2.637   7.361   0.349  0.2143 -0.1791  0.5252
14459SOL    HW147833   2.656   7.374   0.256 -0.2636 -1.7206  0.1706
14459SOL    HW247834   2.547   7.328   0.350 -0.0394  0.5134  1.6027
14460SOL     OW47835   3.478   6.414   3.870 -0.3509  0.1189 -0.0283
14460SOL    HW147836   3.568   6.388   3.853 -0.3202 -1.6790  2.4150
14460SOL    HW247837   3.432   6.397   3.788  1.2154 -0.4052 -0.8356
14461SOL     OW47838  10.244   2.306   5.476 -0.6048  0.1311 -0.7953
14461SOL    HW147839  10.232   2.214   5.453  2.6312 -0.3399 -1.0078
14461SOL    HW247840  10.188   2.354   5.414 -2.4175 -1.6227 -0.6195
14462SOL     OW47841   5.211   2.184   9.616  0.3900 -0.3501 -0.0362
14462SOL    HW147842   5.158   2.176   9.695 -0.4803  1.6078 -0.3512
14462SOL    HW247843   5.275   2.251   9.637  0.8613 -0.6090 -0.6271
14463SOL     OW47844   4.275   7.550   8.619  0.4025 -0.0383  0.6034
14463SOL    HW147845   4.274   7.535   8.525 -1.3795 -2.0103  0.8540
14463SOL    HW247846   4.335   7.623   8.631  2.6168 -1.2913 -1.8149
14464SOL     OW47847   1.562   0.038   3.720 -0.0762 -0.0152  0.4233
14464SOL    HW147848   1.482   0.090   3.723 -0.2097 -0.0695 -1.2501
14464SOL    HW247849   1.622   0.089   3.666  0.3748 -0.8248  0.1364
14465SOL     OW47850   6.500   0.801   1.562  0.1192 -0.5361  0.5304
14465SOL    HW147851   6.548   0.791   1.644  2.1938  1.2483 -0.3884
14465SOL    HW247852   6.424   0.855   1.586  1.2006  0.7622  1.1386
14466SOL     OW47853   8.133   6.073   6.460 -0.2767  0.3222  0.2544
14466SOL    HW147854   8.161   6.061   6.370 -2.7942  1.5973 -0.7934
14466SOL    HW247855   8.148   6.166   6.478 -1.0498  0.3754  0.6645
14467SOL     OW47856   8.770   9.926   3.077 -0.1669  0.2374  0.4401
14467SOL    HW147857   8.751   9.851   3.020  0.2696  1.6677 -1.6857
14467SOL    HW247858   8.850   9.901   3.122 -1.5338 -1.7198  1.9794
14468SOL     OW47859   9.371   1.547   0.908  0.3215  0.9124 -0.3379
14468SOL    HW147860   9.371   1.574   0.999  2.2756 -0.0481 -0.0015
14468SOL    HW247861   9.397   1.626   0.859  2.6113  0.6412  0.3074
14469SOL     OW47862   2.696   0.287  10.606 -0.1023  0.5025 -0.9106
14469SOL    HW147863   2.789   0.268  10.614 -0.0123  0.5763 -1.7937
14469SOL    HW247864   2.670   0.252  10.521 -1.1034 -0.3775 -0.2857
14470SOL     OW47865   1.529   6.483   4.074 -0.3229  0.2851 -0.0982
14470SOL    HW147866   1.471   6.418   4.035 -0.3774 -0.6887  1.5285
14470SOL    HW247867   1.471   6.544   4.118 -0.1687 -1.1544  2.2444
14471SOL     OW47868   2.665   6.203   3.619 -0.0591 -0.1060 -0.4532
14471SOL    HW147869   2.577   6.184   3.652 -0.3217  0.3771 -0.8795
14471SOL    HW247870   2.694   6.120   3.580 -0.7129 -0.0051 -1.1824
14472SOL     OW47871   3.792   5.672   7.900 -0.0344  0.1977  0.3412
14472SOL    HW147872   3.736   5.687   7.976 -1.2495 -1.6510 -0.1217
14472SOL    HW247873   3.732   5.669   7.825  0.8753 -0.1250 -0.3973
14473SOL     OW47874   5.828   9.934   2.722  0.0223  0.1882 -0.2391
14473SOL    HW147875   5.835   9.979   2.806  1.3627 -0.7923  0.2081
14473SOL    HW247876   5.911   9.889   2.712  0.3392  1.1485 -2.6327
14474SOL     OW47877   7.941   6.235   4.058 -0.4534  0.1630  0.4532
14474SOL    HW147878   7.867   6.175   4.046 -1.7421  1.5006  1.3991
14474SOL    HW247879   7.901   6.318   4.083  1.2815  1.4404 -0.7605
14475SOL     OW47880  10.728   8.521   9.330  0.1426 -0.3619  0.0239
14475SOL    HW147881  10.819   8.494   9.324 -0.3065 -1.6449 -1.8571
14475SOL    HW247882  10.696   8.520   9.240 -0.9756  2.9523  0.2076
14476SOL     OW47883   4.056  10.704   7.949 -0.2750  0.1486 -0.1122
14476SOL    HW147884   4.015  10.781   7.909  0.8248  0.8576  0.0846
14476SOL    HW247885   4.058  10.639   7.879 -0.5876  0.5270 -0.4803
14477SOL     OW47886   4.025   0.768   4.864  0.7904  0.4007 -0.1765
14477SOL    HW147887   4.003   0.850   4.821 -0.3301 -0.2065 -0.8067
14477SOL    HW247888   4.009   0.701   4.797 -0.3017 -0.5142  0.9576
14478SOL     OW47889   2.657   6.627   2.004  0.6555  0.3319 -0.1955
14478SOL    HW147890   2.728   6.566   1.986 -0.1863 -0.6729 -0.1969
14478SOL    HW247891   2.699   6.700   2.050  1.5790 -0.5503  0.4078
14479SOL     OW47892  10.369   4.690   1.426  0.6213  0.1060  0.1481
14479SOL    HW147893  10.352   4.642   1.507  0.0456  0.7986  0.4638
14479SOL    HW247894  10.395   4.624   1.362  1.0677 -0.4504  0.8981
14480SOL     OW47895   5.856   0.031   6.383 -0.5923 -0.3783 -0.0299
14480SOL    HW147896   5.849  -0.034   6.313 -1.6916 -0.8866  0.5244
14480SOL    HW247897   5.785   0.093   6.366  0.0270  0.3089 -0.1665
14481SOL     OW47898   1.222   4.046   3.440 -0.5087 -0.3154 -0.0874
14481SOL    HW147899   1.256   4.123   3.485 -2.0449 -1.0649  2.5858
14481SOL    HW247900   1.163   4.082   3.373 -1.8230  0.8764  1.6325
14482SOL     OW47901   1.940   3.056   7.599  0.0493 -0.8267  0.3598
14482SOL    HW147902   1.920   3.130   7.542 -1.7873 -1.2296  0.4291
14482SOL    HW247903   1.994   3.093   7.669 -1.9942  0.8099  1.1740
14483SOL     OW47904  10.233  10.009   3.970 -0.2611 -0.1265 -0.2266
14483SOL    HW147905  10.192  10.095   3.966  0.4611  0.2308 -0.0577
14483SOL    HW247906  10.324  10.024   3.946 -0.0586 -0.7906  0.0911
14484SOL     OW47907   1.679   5.966  10.287 -0.1728 -0.0577  0.3044
14484SOL    HW147908   1.623   5.934  10.358 -1.4551 -0.1524 -0.7218
14484SOL    HW247909   1.729   5.889  10.259  0.7009  0.0851  1.3956
14485SOL     OW47910   2.969   1.489   0.458 -0.5405 -0.4035 -0.2627
14485SOL    HW147911   2.972   1.583   0.440  1.1144 -0.5926 -1.1850
14485SOL    HW247912   2.959   1.448   0.373  0.2194 -1.1077 -0.0232
14486SOL     OW47913   9.342   5.028   7.187 -0.2915  0.1129  0.0923
14486SOL    HW147914   9.247   5.014   7.180 -0.3014 -0.0894  0.5620
14486SOL    HW247915   9.356   5.114   7.148 -0.8204  0.6067  0.9441
14487SOL     OW47916   8.438  10.450   8.654 -0.2178 -0.6955 -0.0244
14487SOL    HW147917   8.486  10.389   8.600 -0.0994  0.9960 -1.9474
14487SOL    HW247918   8.505  10.495   8.706 -0.3169 -2.1999  1.4719
14488SOL     OW47919   1.609   6.344  10.882  0.0579  0.3271 -0.0036
14488SOL    HW147920   1.659   6.404  10.937  0.5737 -0.5011  0.4516
14488SOL    HW247921   1.555   6.401  10.828  0.6006  1.2027  0.3497
14489SOL     OW47922  10.353   0.620   7.845  0.1834 -0.1473 -0.9615
14489SOL    HW147923  10.313   0.704   7.870 -3.2879 -1.8896  0.0307
14489SOL    HW247924  10.445   0.629   7.869 -0.4141  2.7682  0.7389
14490SOL     OW47925   1.755   3.870   7.323  0.2621  0.2160 -0.0780
14490SOL    HW147926   1.842   3.836   7.341  0.2138 -0.1800 -0.5755
14490SOL    HW247927   1.700   3.834   7.393  0.0699 -1.3389 -0.9778
14491SOL     OW47928   5.124   9.051   2.976  0.1973 -0.1861 -0.2295
14491SOL    HW147929   5.140   9.097   2.894  1.8846  0.1944  0.2704
14491SOL    HW247930   5.151   8.960   2.957 -1.4825 -0.6114 -0.7069
14492SOL     OW47931   7.699  10.714   9.132 -0.7044  0.2361 -0.0363
14492SOL    HW147932   7.619  10.759   9.105 -0.2299  0.5545 -0.9348
14492SOL    HW247933   7.755  10.784   9.167 -0.7864  0.0255  0.5234
14493SOL     OW47934   0.644   2.997   2.893 -0.2257  0.7759 -0.3703
14493SOL    HW147935   0.649   3.045   2.810 -0.5801  0.5814 -0.5035
14493SOL    HW247936   0.551   2.981   2.907 -0.1842  0.9875  0.1716
14494SOL     OW47937   2.820   6.330   3.362  0.1755 -0.3053  0.2337
14494SOL    HW147938   2.743   6.277   3.344 -1.7257  2.6048 -0.8567
14494SOL    HW247939   2.801   6.373   3.445  1.1328 -0.3733  0.5050
14495SOL     OW47940   3.452  10.304   6.859 -0.3325  0.0877 -0.1552
14495SOL    HW147941   3.486  10.389   6.885  0.6451 -0.2476 -0.3116
14495SOL    HW247942   3.494  10.242   6.918  0.9867 -0.5555 -1.7230
14496SOL     OW47943   5.743   5.004  10.995  0.2244 -0.5388 -0.1056
14496SOL    HW147944   5.839   5.008  10.998  0.2217 -0.6076  0.0929
14496SOL    HW247945   5.720   4.940  11.062 -0.0891  1.2224  1.5379
14497SOL     OW47946   5.406   6.957   0.074 -0.1994  0.9676  0.1680
14497SOL    HW147947   5.336   6.962   0.009 -0.8704  0.5387  0.8533
14497SOL    HW247948   5.456   6.879   0.049  0.6629  1.8137 -0.9118
14498SOL     OW47949   5.826  10.738   9.926  0.5165  0.2116 -0.5290
14498SOL    HW147950   5.748  10.705   9.970  0.3450  0.1557 -0.8676
14498SOL    HW247951   5.889  10.754   9.996  0.1523  0.3908 -0.2401
14499SOL     OW47952   4.736   2.629   6.787 -0.1892 -0.1555 -0.1993
14499SOL    HW147953   4.641   2.619   6.792 -0.3073  1.3037  0.9853
14499SOL    HW247954   4.750   2.721   6.766  0.9703  0.1233  1.5649
14500SOL     OW47955   9.515  11.002   4.257  0.3616  0.3090  0.2601
14500SOL    HW147956   9.591  10.973   4.308  0.3792  0.7468  0.4899
14500SOL    HW247957   9.535  11.093   4.234  0.1050  0.2862 -0.0572
14501SOL     OW47958   7.414   5.559   5.221 -0.2740  0.6118 -0.2099
14501SOL    HW147959   7.365   5.535   5.142 -0.4936  2.0827 -0.5642
14501SOL    HW247960   7.453   5.644   5.199 -0.4602  1.1260  1.3095
14502SOL     OW47961   8.806   0.718   4.494  0.2665 -0.0797  0.0379
14502SOL    HW147962   8.753   0.640   4.475 -0.5484  0.5342 -0.2793
14502SOL    HW247963   8.754   0.767   4.558 -2.1041  3.0198 -3.8070
14503SOL     OW47964  10.891   7.731  10.506  0.0375  0.0005 -0.6754
14503SOL    HW147965  10.904   7.808  10.562 -0.3541  0.1756 -0.8200
14503SOL    HW247966  10.970   7.679  10.519 -1.1686 -1.3169  2.1280
14504SOL     OW47967   6.551   9.225   2.020 -0.1193 -0.3565  0.2040
14504SOL    HW147968   6.628   9.233   1.965 -0.4143  1.1044 -0.0405
14504SOL    HW247969   6.573   9.155   2.082  0.8894 -0.8227 -0.6478
14505SOL     OW47970   1.256   9.161   4.484 -0.2019 -0.3739  0.3799
14505SOL    HW147971   1.164   9.149   4.508 -0.8549  2.9620  0.0684
14505SOL    HW247972   1.260   9.133   4.393 -0.4967 -2.0309  0.8476
14506SOL     OW47973   7.008   6.881   3.887 -0.2747  0.6689 -0.1105
14506SOL    HW147974   7.024   6.824   3.962  1.0071  1.4744  0.2507
14506SOL    HW247975   7.075   6.949   3.893 -0.0336  0.6589 -2.0780
14507SOL     OW47976   5.061   2.432   7.872 -1.0393 -0.3761 -0.4643
14507SOL    HW147977   5.098   2.437   7.784 -1.3275  1.9887 -0.5330
14507SOL    HW247978   5.123   2.380   7.922  0.4311  0.3418 -1.4741
14508SOL     OW47979   7.999   0.139   3.598 -0.0094  0.0714  0.5326
14508SOL    HW147980   8.077   0.164   3.548 -0.6669  1.2841  0.0820
14508SOL    HW247981   7.935   0.206   3.578 -1.8262 -1.8803 -0.5798
14509SOL     OW47982  10.953   5.764   8.930 -0.1745 -0.3271  0.6165
14509SOL    HW147983  10.882   5.717   8.973 -0.4653 -1.6175 -1.1609
14509SOL    HW247984  10.964   5.720   8.846 -0.4696  2.7640 -1.2083
14510SOL     OW47985   4.839   5.829   8.991  0.7092 -0.1629  0.0556
14510SOL    HW147986   4.770   5.893   8.973  0.2869 -0.6726 -0.1778
14510SOL    HW247987   4.888   5.823   8.909 -0.9832 -2.2041 -0.9308
14511SOL     OW47988   9.390   8.225   6.462 -0.2957  0.5241  0.4714
14511SOL    HW147989   9.431   8.302   6.501  0.6959  0.7248 -0.8814
14511SOL    HW247990   9.296   8.241   6.468 -0.1877  0.5836  2.6317
14512SOL     OW47991   5.374   0.947   8.966 -0.0948 -0.0731  0.1367
14512SOL    HW147992   5.415   0.877   9.016 -0.0272 -1.1153 -1.3298
14512SOL    HW247993   5.401   1.027   9.011  1.1285 -0.8852  0.9090
14513SOL     OW47994   1.713   8.297   5.807 -0.1868  0.1037 -0.6488
14513SOL    HW147995   1.668   8.220   5.773 -0.4470  0.0311 -0.1429
14513SOL    HW247996   1.762   8.331   5.732 -0.2816 -0.3972 -0.9418
14514SOL     OW47997   0.418   4.712   2.234  0.5282  0.1301  0.4350
14514SOL    HW147998   0.435   4.622   2.262 -3.0988 -1.0708 -0.6777
14514SOL    HW247999   0.463   4.766   2.299  2.4881 -2.4307  1.3856
14515SOL     OW48000  10.888   6.238   6.340 -0.3047  0.1190 -0.2876
14515SOL    HW148001  10.908   6.200   6.426  0.1168  0.8203 -0.0703
14515SOL    HW248002  10.973   6.267   6.306 -0.5575  0.4300 -0.6584
14516SOL     OW48003   0.269   7.159   7.931 -0.6936  0.2938  0.1104
14516SOL    HW148004   0.307   7.082   7.973 -0.4127  1.3126  1.8236
14516SOL    HW248005   0.344   7.217   7.917 -1.1792  1.0681  0.6936
14517SOL     OW48006   5.043   6.656   9.884 -0.2784  0.7648  0.6056
14517SOL    HW148007   4.980   6.637   9.814 -1.8351 -2.3110  2.6159
14517SOL    HW248008   5.102   6.722   9.847 -0.5378 -1.1894 -3.8414
14518SOL     OW48009   7.459   6.726   6.926  0.1673 -0.0602 -0.0634
14518SOL    HW148010   7.527   6.773   6.974 -1.1145  1.4527  0.3775
14518SOL    HW248011   7.389   6.713   6.991 -0.4157 -0.5773 -0.7738
14519SOL     OW48012   8.678   8.692   9.458 -0.4574  0.0877  0.2532
14519SOL    HW148013   8.650   8.610   9.497 -3.5860  0.1343 -1.5326
14519SOL    HW248014   8.763   8.710   9.498 -1.1704 -2.2606  3.2205
14520SOL     OW48015   1.018   3.994   0.372 -0.1433 -0.3432 -0.2530
14520SOL    HW148016   1.035   3.903   0.397 -2.8895 -1.1882 -1.1165
14520SOL    HW248017   0.935   3.991   0.325 -0.7673  2.7618  0.4242
14521SOL     OW48018   6.056   2.720   2.427 -0.2762 -0.9363  0.2362
14521SOL    HW148019   6.142   2.681   2.445  1.0342  1.7545  0.4203
14521SOL    HW248020   6.007   2.708   2.508  0.4195 -1.3410  0.6104
14522SOL     OW48021   9.450   3.073   8.875 -0.2810  0.3237 -0.2577
14522SOL    HW148022   9.393   3.057   8.950 -0.1861  1.9308  0.2005
14522SOL    HW248023   9.454   2.990   8.829 -0.5784 -0.6260  1.3657
14523SOL     OW48024   9.166   7.112   2.527  0.1058 -0.9596 -0.1977
14523SOL    HW148025   9.103   7.047   2.498 -0.5722  0.4673 -2.0999
14523SOL    HW248026   9.245   7.093   2.477  0.1127 -0.7121 -0.2824
14524SOL     OW48027   6.025   1.041   0.948  0.1500 -0.0667  0.4916
14524SOL    HW148028   6.060   1.121   0.987 -1.9061  0.7791  0.7038
14524SOL    HW248029   5.936   1.034   0.982 -0.1355 -1.8120 -0.4788
14525SOL     OW48030   8.832  10.968   5.785  0.0327 -0.3588 -0.1002
14525SOL    HW148031   8.783  11.006   5.858  0.8072  1.1411 -0.3048
14525SOL    HW248032   8.804  11.019   5.708  0.4091 -0.8348 -0.5610
14526SOL     OW48033   9.078   6.969   6.427 -0.1949 -0.1583  0.0651
14526SOL    HW148034   9.152   6.926   6.470 -0.6688 -0.9859  0.0715
14526SOL    HW248035   9.115   7.049   6.391  1.2892 -1.6451 -1.9942
14527SOL     OW48036   4.686   7.744   1.571 -0.0502  0.3656  0.4468
14527SOL    HW148037   4.613   7.787   1.616  1.3828 -0.0447  3.3627
14527SOL    HW248038   4.762   7.799   1.591  0.8513 -0.4224 -0.6798
14528SOL     OW48039   2.907   7.844   3.695  0.2238  0.0737  0.3814
14528SOL    HW148040   2.933   7.753   3.676 -0.2887 -0.5713  2.5030
14528SOL    HW248041   2.817   7.850   3.663  0.2449 -0.1855  0.2692
14529SOL     OW48042   7.050   8.592   6.245 -0.2188 -0.2362 -0.3644
14529SOL    HW148043   7.057   8.517   6.303 -0.8767 -0.8788 -1.0795
14529SOL    HW248044   7.101   8.661   6.287  0.9884 -1.2917 -0.0413
14530SOL     OW48045   0.106   2.615   6.449  0.0872  0.7473  0.5465
14530SOL    HW148046   0.145   2.561   6.518 -0.1887  0.8449  0.7798
14530SOL    HW248047   0.024   2.646   6.486 -0.5495 -0.0290 -0.2016
14531SOL     OW48048   6.304   2.044   0.765 -1.0545  0.2601  0.1681
14531SOL    HW148049   6.224   2.093   0.745 -1.5669 -0.6678 -0.1090
14531SOL    HW248050   6.320   1.992   0.687  0.9622  1.8866 -0.5990
14532SOL     OW48051   1.208   7.521   6.971 -0.9935  0.4150 -0.0628
14532SOL    HW148052   1.116   7.516   6.995 -1.5897  1.9742 -1.7508
14532SOL    HW248053   1.232   7.613   6.987  0.1433  0.1311 -0.0483
14533SOL     OW48054  11.039   9.907   6.640  0.7293  0.8116  0.3157
14533SOL    HW148055  11.039   9.969   6.568 -1.8159 -1.7113 -2.1178
14533SOL    HW248056  11.076   9.827   6.602  0.3024 -0.3083  2.1418
14534SOL     OW48057  10.034   8.608   6.225 -0.2284 -0.6412  0.1733
14534SOL    HW148058  10.051   8.689   6.178 -2.0410 -0.6891 -0.6905
14534SOL    HW248059  10.096   8.607   6.298  0.0539  1.3308 -0.0102
14535SOL     OW48060   0.514   9.768   1.242 -0.2527 -0.5155  0.8280
14535SOL    HW148061   0.537   9.807   1.326 -1.9822 -1.4827  1.8133
14535SOL    HW248062   0.430   9.725   1.258 -1.2230  0.2658 -1.7202
14536SOL     OW48063   9.553   0.420   6.875 -0.0366 -0.2181  0.4891
14536SOL    HW148064   9.460   0.419   6.897 -0.3053 -1.2051 -0.6298
14536SOL    HW248065   9.570   0.510   6.848 -0.6131  0.0121  0.8633
14537SOL     OW48066   5.168   2.110   0.550  0.0452  0.1659  0.5090
14537SOL    HW148067   5.100   2.104   0.483  0.2391  1.1654  0.2016
14537SOL    HW248068   5.249   2.092   0.502  0.0583 -0.5172  0.7722
14538SOL     OW48069   1.223  10.372   1.805  0.0163  0.1988 -0.0456
14538SOL    HW148070   1.185  10.405   1.887  0.6652 -1.7034  1.0932
14538SOL    HW248071   1.169  10.411   1.736 -0.6594  1.7259  1.2713
14539SOL     OW48072   8.735   4.121   9.856  0.1659  0.0566  0.6561
14539SOL    HW148073   8.785   4.063   9.798 -0.5057  0.2246 -0.1225
14539SOL    HW248074   8.761   4.096   9.944  0.7275 -0.6613  0.2983
14540SOL     OW48075   6.230  10.806   8.380 -0.1069  0.2778 -0.1599
14540SOL    HW148076   6.216  10.863   8.304  1.3740  0.1569 -0.5630
14540SOL    HW248077   6.280  10.732   8.345 -0.0973 -0.1735  0.7796
14541SOL     OW48078  10.472   4.701   9.392 -0.5325  0.3987 -0.2763
14541SOL    HW148079  10.383   4.665   9.393 -0.4634  0.2285  0.2030
14541SOL    HW248080  10.464   4.783   9.343 -1.0326  0.5825  0.1043
14542SOL     OW48081  10.941   8.109   1.180 -0.3068  0.2582  0.0208
14542SOL    HW148082  10.905   8.053   1.249 -0.2511 -0.3931 -0.4759
14542SOL    HW248083  11.035   8.103   1.191 -0.3142  1.1327  0.6572
14543SOL     OW48084   5.236   0.320   4.333 -0.0203  0.0470  0.5305
14543SOL    HW148085   5.159   0.363   4.296  0.7252 -0.5003 -1.8576
14543SOL    HW248086   5.274   0.385   4.393 -0.0837  1.9815 -1.3803
14544SOL     OW48087   6.221   5.888   7.303  0.5576 -0.0521 -0.2119
14544SOL    HW148088   6.286   5.879   7.232  2.4518  3.1728  0.8720
14544SOL    HW248089   6.255   5.834   7.374  0.1097 -1.1406 -0.8000
14545SOL     OW48090  10.171   7.998  10.798 -0.2170  0.0588 -0.1152
14545SOL    HW148091  10.133   7.912  10.782 -0.1193 -0.0982  0.4844
14545SOL    HW248092  10.191   8.032  10.711 -2.4232  0.4715 -0.5199
14546SOL     OW48093   7.612   8.243   1.101 -0.2787 -0.1845  0.1241
14546SOL    HW148094   7.614   8.318   1.161  0.4304  1.6810 -2.0812
14546SOL    HW248095   7.684   8.187   1.130  0.0524  0.6661  0.9966
14547SOL     OW48096  10.868   6.209   6.897 -0.6046  0.0839 -0.5844
14547SOL    HW148097  10.941   6.151   6.921 -0.4053  0.3590 -0.5153
14547SOL    HW248098  10.792   6.172   6.941 -0.4656 -0.0893 -0.4894
14548SOL     OW48099   0.530   3.718   9.231  0.2876  0.3351  0.1427
14548SOL    HW148100   0.590   3.644   9.223 -0.6395 -0.2668 -1.9055
14548SOL    HW248101   0.488   3.705   9.316 -0.4702 -2.0339 -0.5254
14549SOL     OW48102  10.165   8.516   6.751 -0.5332 -0.2150  0.5590
14549SOL    HW148103  10.200   8.604   6.769 -0.7714  0.3069 -1.3203
14549SOL    HW248104  10.114   8.495   6.829 -1.7087  1.9900  0.4795
14550SOL     OW48105   0.082   7.762  10.214  0.3567 -0.1424 -0.3893
14550SOL    HW148106   0.079   7.722  10.302  0.4138 -0.8982 -0.7227
14550SOL    HW248107   0.165   7.733  10.177 -0.0653 -0.5798 -1.0285
14551SOL     OW48108   1.601  10.480   6.890 -0.0681 -0.3774 -0.0403
14551SOL    HW148109   1.645  10.466   6.974 -0.6718 -2.1443  0.0239
14551SOL    HW248110   1.628  10.568   6.863  0.7182 -0.0595  1.6429
14552SOL     OW48111   3.003   1.461   0.115  0.1143  0.3219  0.4249
14552SOL    HW148112   2.979   1.410   0.038  1.3588 -0.4453  0.5085
14552SOL    HW248113   2.944   1.536   0.115 -0.3953 -0.0659 -0.8470
14553SOL     OW48114   5.274   7.764   1.840 -0.1753  0.1217 -0.0540
14553SOL    HW148115   5.303   7.704   1.771  1.0547  1.3010 -0.5891
14553SOL    HW248116   5.280   7.851   1.801 -0.3973  0.7360  1.2300
14554SOL     OW48117   0.492   8.920   1.915  0.2577  0.1224 -0.5159
14554SOL    HW148118   0.472   8.936   2.007  1.2575 -0.2355 -0.2195
14554SOL    HW248119   0.453   8.993   1.868  0.1219  0.5396  0.2372
14555SOL     OW48120   7.907  10.202   8.293 -0.0809  0.0506  0.2862
14555SOL    HW148121   7.870  10.142   8.357 -0.7504  0.4371  0.2682
14555SOL    HW248122   7.837  10.217   8.230  0.2080  0.5369  0.0717
14556SOL     OW48123   3.109   2.494   5.233 -0.4155  0.0909 -0.1321
14556SOL    HW148124   3.084   2.425   5.172 -0.5764 -1.4244  1.5377
14556SOL    HW248125   3.204   2.483   5.244 -0.7845 -1.6403  2.0563
14557SOL     OW48126   3.461   9.500   7.671 -0.9102 -0.3586 -0.0041
14557SOL    HW148127   3.540   9.552   7.683 -1.9399  0.8400  2.0124
14557SOL    HW248128   3.433   9.519   7.581  1.6965 -1.8143 -1.2422
14558SOL     OW48129   4.141   9.106   3.160  0.6537 -0.0176 -0.2839
14558SOL    HW148130   4.188   9.049   3.099 -0.7001 -0.4617 -0.9517
14558SOL    HW248131   4.107   9.177   3.105 -0.7613 -0.5348 -0.1307
14559SOL     OW48132  10.333   0.234   2.299  0.0874  0.0159 -0.2837
14559SOL    HW148133  10.264   0.245   2.364  0.4491  0.4448  0.0305
14559SOL    HW248134  10.300   0.277   2.220  0.1688  0.5996 -0.0056
14560SOL     OW48135   7.192   4.183   9.130 -0.2589  0.3602  0.4180
14560SOL    HW148136   7.116   4.241   9.117  0.6235  1.7281  1.0730
14560SOL    HW248137   7.262   4.242   9.158  0.5390 -1.1080  1.6823
14561SOL     OW48138   0.495   9.923   5.915 -0.4831 -0.4348  0.8686
14561SOL    HW148139   0.509   9.975   5.994  1.8450 -0.7298  0.7253
14561SOL    HW248140   0.529   9.977   5.844  2.1429 -2.0786  0.7331
14562SOL     OW48141   3.899   8.635   1.357  0.2157 -0.0535  0.1705
14562SOL    HW148142   3.995   8.636   1.362  0.1793  0.3293  0.9651
14562SOL    HW248143   3.878   8.550   1.317  0.9483  0.6779 -1.9212
14563SOL     OW48144  10.288   8.087   1.691 -0.1073 -0.1868 -0.5824
14563SOL    HW148145  10.319   8.056   1.606 -0.2395 -0.6188 -0.4716
14563SOL    HW248146  10.366   8.122   1.733 -0.2549  1.2241 -1.3900
14564SOL     OW48147   7.795   9.316   8.940  0.9155  0.0736 -0.0397
14564SOL    HW148148   7.833   9.395   8.979 -1.5144  1.3661 -0.0443
14564SOL    HW248149   7.723   9.293   9.000  1.0880 -1.6789 -0.4708
14565SOL     OW48150  10.970   1.350   1.642 -1.4880 -0.3528 -0.1094
14565SOL    HW148151  11.058   1.314   1.644 -1.4244 -0.1558  0.5825
14565SOL    HW248152  10.967   1.402   1.562 -1.2096 -0.9358 -0.5064
14566SOL     OW48153   9.923   4.889   3.327 -0.1005  0.1163 -0.2008
14566SOL    HW148154   9.972   4.903   3.408  0.1111  0.8435 -0.4573
14566SOL    HW248155   9.901   4.795   3.330  0.9327 -0.1337  0.1121
14567SOL     OW48156   6.403   6.417   9.214 -0.3649  0.5585  0.5854
14567SOL    HW148157   6.404   6.397   9.307 -1.1186  0.7621  0.6377
14567SOL    HW248158   6.367   6.338   9.173  3.5906 -1.2294  0.0288
14568SOL     OW48159   1.271   5.127   2.054  0.0278 -0.3637  0.0193
14568SOL    HW148160   1.326   5.088   2.122 -1.0739 -3.1407 -0.5484
14568SOL    HW248161   1.191   5.153   2.100  1.2689  2.7669  0.6590
14569SOL     OW48162   9.349   7.711  10.356 -0.2704  0.4246 -0.3891
14569SOL    HW148163   9.410   7.663  10.412 -0.5779 -1.3746 -1.5137
14569SOL    HW248164   9.363   7.803  10.379  0.4335 -0.1614  1.7720
14570SOL     OW48165   8.688   8.547   3.016 -0.4162  0.3060 -0.0460
14570SOL    HW148166   8.752   8.608   2.978 -0.1458  0.7124  1.0293
14570SOL    HW248167   8.740   8.482   3.062 -0.7111 -0.7427 -1.1507
14571SOL     OW48168   3.788   6.280   7.096 -0.5814  0.5115 -0.2156
14571SOL    HW148169   3.762   6.279   7.188  1.0182 -0.8707  0.2623
14571SOL    HW248170   3.770   6.370   7.068 -0.3288  1.2169  1.6835
14572SOL     OW48171   2.939   1.297   9.775 -0.3093  0.2118 -0.3167
14572SOL    HW148172   2.949   1.209   9.737  1.1681  0.3862 -0.3869
14572SOL    HW248173   2.872   1.339   9.720  0.7726 -0.0248 -1.8781
14573SOL     OW48174   0.022  10.670   3.587  0.0721 -0.3924 -0.4941
14573SOL    HW148175   0.067  10.587   3.607 -0.1249 -0.7639 -1.5302
14573SOL    HW248176   0.093  10.730   3.562  0.4062  0.2959  1.8460
14574SOL     OW48177   5.035   9.780   8.206  0.2434  0.8830  0.4823
14574SOL    HW148178   5.059   9.698   8.163  1.5874  0.9877  0.9796
14574SOL    HW248179   4.961   9.813   8.156  0.1087 -0.2945 -0.1335
14575SOL     OW48180   7.084   5.034  10.997  0.0996  0.6144  0.0994
14575SOL    HW148181   7.155   4.995  10.947 -0.2260 -0.0716  0.1703
14575SOL    HW248182   7.052   4.964  11.054  1.0571  1.6228  1.9473
14576SOL     OW48183   8.177   8.181   9.159 -0.0657 -0.1365  0.2195
14576SOL    HW148184   8.252   8.133   9.123  0.6534  0.7431  0.5051
14576SOL    HW248185   8.110   8.115   9.173  0.2649 -0.7817 -1.0704
14577SOL     OW48186  10.303   7.443   5.817  0.0218 -0.1705  0.2382
14577SOL    HW148187  10.383   7.484   5.850  0.5214 -0.6470 -0.3539
14577SOL    HW248188  10.333   7.362   5.776 -0.7758 -0.3801  0.0532
14578SOL     OW48189   7.242   7.989  10.815  0.0709  0.2402 -0.2389
14578SOL    HW148190   7.326   8.035  10.822  1.4710 -2.2331  0.8314
14578SOL    HW248191   7.251   7.935  10.736 -0.2502 -0.4873  0.2121
14579SOL     OW48192   5.282   6.302   5.288 -0.7841 -0.3495 -0.2452
14579SOL    HW148193   5.227   6.337   5.218  1.8201  2.6065 -1.0212
14579SOL    HW248194   5.264   6.358   5.364 -0.1985 -0.5777  0.0690
14580SOL     OW48195   7.520   0.402   1.113 -0.1962 -0.4993 -0.3273
14580SOL    HW148196   7.426   0.409   1.128 -0.3280  0.2565 -1.3960
14580SOL    HW248197   7.528   0.361   1.027  0.4364  0.0349 -0.5344
14581SOL     OW48198   5.873   6.085   0.901 -0.1550 -0.5895 -0.2612
14581SOL    HW148199   5.829   6.001   0.916 -0.7306  0.0760  2.3072
14581SOL    HW248200   5.963   6.061   0.879  0.3330 -1.9691  2.7069
14582SOL     OW48201   7.756   5.622   8.533 -0.6649  0.3996 -0.5999
14582SOL    HW148202   7.695   5.695   8.525 -0.1048  0.8887 -0.4302
14582SOL    HW248203   7.719   5.568   8.604 -1.0145  0.5763 -0.6456
14583SOL     OW48204   7.572   5.343   4.851  0.2089  0.1030  0.1474
14583SOL    HW148205   7.539   5.431   4.836  0.1784  0.4913  2.2326
14583SOL    HW248206   7.667   5.351   4.842  0.2075  0.3526  0.3493
14584SOL     OW48207   5.272   4.082   4.351 -0.4556  0.0505  0.0078
14584SOL    HW148208   5.281   3.997   4.395  0.6732  0.3314  0.3580
14584SOL    HW248209   5.223   4.063   4.271 -1.9893 -0.5827  1.0570
14585SOL     OW48210   3.239   4.470   1.185 -0.0716  0.1463 -0.3127
14585SOL    HW148211   3.146   4.477   1.207  0.5229  1.4261  2.1839
14585SOL    HW248212   3.253   4.377   1.172 -1.0630 -0.6273  2.9897
14586SOL     OW48213   8.785   4.437   6.440  0.0792  0.4697 -0.1635
14586SOL    HW148214   8.860   4.491   6.414 -0.4913  1.9352  1.1286
14586SOL    HW248215   8.770   4.459   6.532  1.0547 -3.3368  1.1001
14587SOL     OW48216   8.575   2.639   1.470 -0.0729  0.6389 -0.0028
14587SOL    HW148217   8.660   2.597   1.460  0.1339  1.2248 -0.8050
14587SOL    HW248218   8.513   2.567   1.475  0.5062  0.1900  1.1081
14588SOL     OW48219  10.413   8.377   4.165 -0.3222 -0.1820 -0.0593
14588SOL    HW148220  10.430   8.470   4.154 -0.3213  0.0369  1.5819
14588SOL    HW248221  10.320   8.371   4.183 -0.3785 -0.5443 -0.4366
14589SOL     OW48222   1.266   2.368   2.382 -0.0579 -0.1905  0.2427
14589SOL    HW148223   1.178   2.406   2.382 -1.3431 -2.9794  0.5097
14589SOL    HW248224   1.317   2.428   2.327 -2.4538  0.7637 -1.1082
14590SOL     OW48225   8.703   7.172   9.597  0.2971 -0.0363  0.0920
14590SOL    HW148226   8.772   7.109   9.576  0.3978 -0.1905  0.8515
14590SOL    HW248227   8.696   7.168   9.693  0.5128  1.3132  0.1861
14591SOL     OW48228   1.214   8.597   3.640  0.2879 -0.5265 -0.0754
14591SOL    HW148229   1.126   8.634   3.641  1.3077  2.1724  1.5499
14591SOL    HW248230   1.205   8.512   3.684 -1.7634 -1.2168 -1.6906
14592SOL     OW48231   8.436   2.021   4.288 -0.6040  0.1705 -0.0678
14592SOL    HW148232   8.528   2.039   4.305  0.0518 -2.8469  0.0936
14592SOL    HW248233   8.425   2.043   4.195 -0.1214  1.7643  0.2104
14593SOL     OW48234   4.783  11.071   4.187  0.5104  0.3047 -0.8213
14593SOL    HW148235   4.811  10.985   4.218  0.4912  0.5472 -0.1038
14593SOL    HW248236   4.689  11.074   4.207  1.0999  1.8383  2.5985
14594SOL     OW48237   1.735  10.953   3.922  0.1242  0.1873  0.0300
14594SOL    HW148238   1.672  10.996   3.864 -1.3827 -2.0500 -0.1000
14594SOL    HW248239   1.779  10.888   3.867 -0.8315 -1.4853  1.1573
14595SOL     OW48240   5.366   0.738   2.392  0.2287  0.2756 -0.1245
14595SOL    HW148241   5.444   0.683   2.388 -0.8917 -1.5618  1.3066
14595SOL    HW248242   5.360   0.765   2.484 -1.3858 -0.5747  0.0694
14596SOL     OW48243   9.052   5.851   8.610 -0.2022 -0.1523  0.0957
14596SOL    HW148244   9.063   5.833   8.517 -1.5836 -0.1061 -0.0883
14596SOL    HW248245   8.969   5.897   8.617 -1.4004 -2.3089  1.5644
14597SOL     OW48246   6.136  10.007   0.304  0.1951 -0.4196 -0.1458
14597SOL    HW148247   6.164  10.093   0.274 -0.3852 -0.0280  0.4149
14597SOL    HW248248   6.200   9.983   0.371  0.7209 -0.7076 -0.7450
14598SOL     OW48249   0.571   4.119   8.843  0.2828 -0.2770  0.4709
14598SOL    HW148250   0.529   4.182   8.783 -1.6395 -1.8047  0.0833
14598SOL    HW248251   0.499   4.063   8.871  2.2306 -4.1624 -1.5237
14599SOL     OW48252   2.552   1.159   1.739  0.0785  0.1734 -0.3528
14599SOL    HW148253   2.567   1.111   1.657  0.9247 -0.3167  0.0771
14599SOL    HW248254   2.607   1.114   1.804 -0.6212  0.5218  0.5011
14600SOL     OW48255   0.546   7.447   9.001 -0.1909 -0.3942 -0.1376
14600SOL    HW148256   0.500   7.435   9.084  0.2231 -0.1315  0.1371
14600SOL    HW248257   0.484   7.495   8.946  0.0042  0.6189  0.4810
14601SOL     OW48258  10.445   9.299   7.905  0.2053 -0.0127 -0.0173
14601SOL    HW148259  10.394   9.307   7.825  0.5526 -0.7613 -0.3223
14601SOL    HW248260  10.516   9.239   7.882  0.7133  0.3270  0.6477
14602SOL     OW48261   6.218   2.479   1.773  0.3640 -0.0483 -0.1493
14602SOL    HW148262   6.285   2.522   1.719  0.6313  1.3051  1.1823
14602SOL    HW248263   6.159   2.550   1.798  0.2606 -0.6244  1.3359
14603SOL     OW48264   8.492   2.956   1.813  0.0887 -0.6929  0.1185
14603SOL    HW148265   8.549   3.027   1.842  0.6764 -0.0644 -2.3454
14603SOL    HW248266   8.407   2.975   1.854  0.3625  1.1742 -0.0847
14604SOL     OW48267  11.059   7.928   8.720  0.0835  0.3384 -0.1142
14604SOL    HW148268  11.110   7.913   8.641 -0.8193  1.0932 -0.8561
14604SOL    HW248269  10.994   7.859   8.722  0.6215 -0.1671  0.4225
14605SOL     OW48270   8.493   5.050   9.645  0.3388 -0.6348  0.4056
14605SOL    HW148271   8.465   5.127   9.594 -1.4450  0.3529  2.6725
14605SOL    HW248272   8.587   5.044   9.629  0.3736  1.4754 -0.5818
14606SOL     OW48273   6.510   4.789   8.473 -0.0695 -0.6067  0.2669
14606SOL    HW148274   6.432   4.808   8.525 -1.2754  0.3756 -1.7859
14606SOL    HW248275   6.486   4.812   8.384  2.2420 -1.2889 -0.6107
14607SOL     OW48276   1.832   3.423   7.914  0.5326 -0.0796 -0.0844
14607SOL    HW148277   1.848   3.349   7.972  0.6860  0.4186  0.5127
14607SOL    HW248278   1.865   3.499   7.961 -0.3582  0.4862 -0.3398
14608SOL     OW48279   0.505   9.207   6.819 -0.5690  0.5836  0.2478
14608SOL    HW148280   0.450   9.191   6.742 -0.3522 -0.2104  0.2425
14608SOL    HW248281   0.478   9.140   6.882  1.6358 -1.0672 -0.4306
14609SOL     OW48282   1.988   1.927  10.226 -0.7956 -0.2190 -0.2695
14609SOL    HW148283   2.024   1.866  10.162 -2.3110 -0.6283 -0.7772
14609SOL    HW248284   1.964   2.005  10.174  0.6219  0.6233  0.2847
14610SOL     OW48285  10.930   4.731   8.872 -0.0317  0.0416  0.3388
14610SOL    HW148286  10.840   4.709   8.893 -0.3372  1.6718  0.9408
14610SOL    HW248287  10.931   4.827   8.868  1.6124  0.0528  0.0867
14611SOL     OW48288   1.263   5.165   9.057  0.5287  0.0544  0.2369
14611SOL    HW148289   1.346   5.126   9.028 -0.6936 -2.5857  0.0461
14611SOL    HW248290   1.197   5.099   9.036 -2.1093  3.1761 -2.2692
14612SOL     OW48291   0.976   4.093   1.281 -0.3511  0.6785 -0.1900
14612SOL    HW148292   0.929   4.070   1.361 -1.0091 -0.2743 -0.8196
14612SOL    HW248293   1.063   4.120   1.311 -0.4421 -0.0734  0.8150
14613SOL     OW48294  10.996   8.453   8.876  0.3127 -0.0666 -0.2518
14613SOL    HW148295  10.919   8.473   8.931  0.7735  0.0683  0.3553
14613SOL    HW248296  11.001   8.357   8.877  1.8421 -0.0353  2.1379
14614SOL     OW48297   7.654   5.731   9.361  0.5210  0.3162 -0.3531
14614SOL    HW148298   7.745   5.712   9.380 -0.0432 -0.8658  1.3441
14614SOL    HW248299   7.609   5.727   9.446 -1.0054  1.5185 -1.0428
14615SOL     OW48300   6.474   0.814   1.145 -0.4858  0.0623 -0.5363
14615SOL    HW148301   6.508   0.902   1.161  1.9471 -0.9665  0.5050
14615SOL    HW248302   6.380   0.822   1.160 -0.2269  2.3023  0.3610
14616SOL     OW48303   2.390   4.075  10.799  1.2481 -0.3040  0.1177
14616SOL    HW148304   2.415   4.097  10.710 -1.2170 -1.0380 -0.8329
14616SOL    HW248305   2.364   4.158  10.838 -1.6053 -0.4321 -1.2727
14617SOL     OW48306   7.527   4.169   1.816  0.0550  0.4437  0.0612
14617SOL    HW148307   7.620   4.193   1.811 -0.3039  2.1228  0.7361
14617SOL    HW248308   7.524   4.102   1.884  0.8501 -0.1317 -0.4484
14618SOL     OW48309  10.570   3.708   9.662 -0.1576 -0.8131  0.4572
14618SOL    HW148310  10.623   3.712   9.583 -1.5385  2.0640 -0.4578
14618SOL    HW248311  10.622   3.752   9.729 -0.6878  0.5841 -0.0220
14619SOL     OW48312   4.084   5.267   7.858 -0.0828  0.4176 -0.7033
14619SOL    HW148313   4.061   5.175   7.843 -1.4654  0.6968 -0.4110
14619SOL    HW248314   4.158   5.263   7.920 -0.0247 -0.4886 -0.8146
14620SOL     OW48315   4.748   2.129   5.758 -0.2004  0.0447 -0.1740
14620SOL    HW148316   4.673   2.142   5.816 -0.6957 -1.0136 -0.5501
14620SOL    HW248317   4.805   2.204   5.775 -1.5414  1.1214 -0.2011
14621SOL     OW48318  10.570  10.605   3.623  0.5502 -0.2166  0.3343
14621SOL    HW148319  10.570  10.678   3.561  0.5519  0.3518  0.9931
14621SOL    HW248320  10.662  10.580   3.630  0.4464 -0.8807 -0.5777
14622SOL     OW48321   1.685   6.852   8.675  0.1330 -0.8275 -0.2823
14622SOL    HW148322   1.690   6.881   8.583  0.8187 -1.0514 -0.3217
14622SOL    HW248323   1.599   6.812   8.683 -0.1169 -0.3829 -0.7055
14623SOL     OW48324   9.159   6.243   1.599  0.1523  0.1495 -0.0204
14623SOL    HW148325   9.111   6.294   1.533 -2.3778 -0.5533  1.1504
14623SOL    HW248326   9.195   6.308   1.659  0.6967  0.6970 -0.9185
14624SOL     OW48327   8.839   0.537   5.877 -0.2289 -0.1554 -0.1120
14624SOL    HW148328   8.825   0.445   5.901 -0.3420 -0.0853  0.0955
14624SOL    HW248329   8.811   0.586   5.955 -1.2723  0.1106 -0.6453
14625SOL     OW48330   7.119   9.613   3.409 -0.3919  0.2941  0.1838
14625SOL    HW148331   7.192   9.602   3.349 -0.3589 -4.0944  0.6583
14625SOL    HW248332   7.160   9.638   3.492  0.0842  1.4892 -0.3849
14626SOL     OW48333   7.467   5.354   1.961 -0.2904  0.9045  0.3066
14626SOL    HW148334   7.544   5.340   2.016  1.0941  0.5346 -1.6143
14626SOL    HW248335   7.397   5.308   2.005  1.0096 -0.2647  1.2197
14627SOL     OW48336   6.184  10.785  10.853 -0.4976  0.3869 -0.2176
14627SOL    HW148337   6.258  10.724  10.851  0.6800  1.7538 -2.1473
14627SOL    HW248338   6.147  10.774  10.941 -0.2832 -2.9345 -0.3906
14628SOL     OW48339   3.903  10.528  10.070  0.2080  1.1535  1.0516
14628SOL    HW148340   3.990  10.554  10.039 -0.4064  1.8518 -0.1917
14628SOL    HW248341   3.849  10.606  10.058 -0.8217  0.4378  0.8544
14629SOL     OW48342   7.510   0.464   1.753 -0.0240  0.1648 -0.2534
14629SOL    HW148343   7.603   0.453   1.773 -0.0535 -0.5545 -0.4967
14629SOL    HW248344   7.498   0.559   1.745  0.5878  0.2907  0.2506
14630SOL     OW48345   7.022   6.216   5.118  0.1834 -0.0422  0.3470
14630SOL    HW148346   6.969   6.163   5.178 -1.6838  1.2260 -0.0942
14630SOL    HW248347   7.014   6.172   5.034  0.1628 -0.0739  0.3655
14631SOL     OW48348   5.983   2.541   2.234  0.1654 -0.0049  0.1645
14631SOL    HW148349   5.978   2.462   2.287 -0.2406  0.7557  1.2858
14631SOL    HW248350   5.997   2.612   2.297 -1.5554  1.0868 -0.6011
14632SOL     OW48351   1.409   2.046  10.769 -0.0476  0.2812  0.5846
14632SOL    HW148352   1.494   2.090  10.778  0.3368 -0.4136  0.4680
14632SOL    HW248353   1.427   1.972  10.711  0.2308 -2.2181  3.5939
14633SOL     OW48354   1.755   9.126   1.315 -0.3229  0.1181  0.1085
14633SOL    HW148355   1.715   9.194   1.370  0.6482  0.7032  0.1236
14633SOL    HW248356   1.681   9.081   1.275 -0.9852  1.7034 -0.5178
14634SOL     OW48357   1.851   8.216   3.724  0.4042  0.3881 -0.4026
14634SOL    HW148358   1.773   8.208   3.669  1.4621 -1.5854 -1.7227
14634SOL    HW248359   1.827   8.170   3.805 -0.5377  1.7651  0.1424
14635SOL     OW48360   2.008   7.742   7.668 -0.0673 -0.3638  0.5324
14635SOL    HW148361   1.912   7.740   7.670 -0.1601  1.4176 -0.4424
14635SOL    HW248362   2.030   7.725   7.576  0.5639 -0.7459  0.7470
14636SOL     OW48363   4.261   2.873   9.640  0.2461 -0.2760  0.2776
14636SOL    HW148364   4.337   2.907   9.593  0.3411  0.2035  0.7581
14636SOL    HW248365   4.186   2.915   9.598  0.1306 -1.7824 -1.0770
14637SOL     OW48366   9.524  10.194   9.133  0.6758  0.3457 -0.0235
14637SOL    HW148367   9.570  10.163   9.055 -0.3838 -0.5445 -0.3228
14637SOL    HW248368   9.503  10.286   9.115  0.5797  0.1867 -0.7242
14638SOL     OW48369  10.691   0.129   4.105 -0.0413  0.2671 -0.3948
14638SOL    HW148370  10.678   0.108   4.013  0.5446 -2.6908  0.0857
14638SOL    HW248371  10.785   0.141   4.114  0.0681 -0.7762  0.0065
14639SOL     OW48372   5.147  10.001  10.836 -0.7284 -0.2792 -0.3185
14639SOL    HW148373   5.161   9.966  10.748  2.0225  0.8695 -0.4110
14639SOL    HW248374   5.101  10.084  10.821 -2.6139 -1.2694 -0.4166
14640SOL     OW48375   2.200   8.043  10.922  0.2945  0.1896 -0.1218
14640SOL    HW148376   2.217   8.002  11.007 -0.2681  1.4322  0.6041
14640SOL    HW248377   2.188   7.969  10.863 -1.4435 -0.7344  1.3031
14641SOL     OW48378   9.270   0.564   2.664 -0.0241 -0.4543 -0.2827
14641SOL    HW148379   9.214   0.488   2.683 -0.9555 -0.2895 -2.1026
14641SOL    HW248380   9.236   0.633   2.720  0.2696 -1.1308  0.7639
14642SOL     OW48381  10.734   9.327  10.501  0.2808  0.7933  0.5871
14642SOL    HW148382  10.777   9.277  10.432 -1.0683  0.7488 -0.2611
14642SOL    HW248383  10.803   9.343  10.566  1.3576  0.0671 -0.3412
14643SOL     OW48384   6.951   8.829   0.876  0.2262 -0.5136  0.0249
14643SOL    HW148385   7.021   8.851   0.815 -0.5460  0.8672 -0.4125
14643SOL    HW248386   6.884   8.897   0.862 -0.4559 -0.8028  1.6095
14644SOL     OW48387   7.806   6.096   7.716 -0.2563  0.0223 -0.1749
14644SOL    HW148388   7.833   6.012   7.751 -2.5944 -0.2841  1.1007
14644SOL    HW248389   7.714   6.084   7.692 -0.4742  2.0318 -0.5815
14645SOL     OW48390   0.393   1.269   8.290 -0.1085 -0.1139 -0.4611
14645SOL    HW148391   0.382   1.257   8.384 -0.3475 -2.5788 -0.7474
14645SOL    HW248392   0.356   1.356   8.272  2.8021  1.8874  2.1455
14646SOL     OW48393   5.313   3.031   5.067  0.0996  0.0796 -0.6281
14646SOL    HW148394   5.288   2.944   5.098  0.6341 -0.3272 -1.3057
14646SOL    HW248395   5.245   3.053   5.002  0.1579  0.0129 -0.7124
14647SOL     OW48396   0.974   5.851   4.269  0.3879 -0.1278 -0.3808
14647SOL    HW148397   0.933   5.929   4.305  0.8193 -0.1298  0.1239
14647SOL    HW248398   1.039   5.883   4.207  1.0329 -0.0443  0.3109
14648SOL     OW48399  10.665  10.598  11.023  0.1853  0.2543  0.1103
14648SOL    HW148400  10.739  10.599  11.085 -1.1172  0.9429  1.7372
14648SOL    HW248401  10.602  10.661  11.060 -0.7573  0.5177 -1.8234
14649SOL     OW48402   1.032   3.080   6.268 -0.4585 -0.3736 -0.1473
14649SOL    HW148403   1.040   3.061   6.174 -0.7714 -1.7694  0.0743
14649SOL    HW248404   1.004   3.171   6.272 -1.4386 -0.5703 -1.4638
14650SOL     OW48405   3.219   5.436   2.147 -0.6495 -0.8538 -0.4859
14650SOL    HW148406   3.172   5.519   2.136  1.0393  0.4662  1.3706
14650SOL    HW248407   3.296   5.445   2.090  1.3012  0.4467  2.0904
14651SOL     OW48408   8.703   0.919   6.751  0.2957  0.1340  0.5066
14651SOL    HW148409   8.639   0.947   6.816  0.4581  1.7436  0.0165
14651SOL    HW248410   8.651   0.892   6.676  0.1525  0.1323  0.6064
14652SOL     OW48411   8.510   4.408   6.654 -0.1977  0.2071  0.2717
14652SOL    HW148412   8.518   4.492   6.608  0.4829 -0.4898 -0.9284
14652SOL    HW248413   8.593   4.399   6.700  0.0368 -0.1513 -0.2145
14653SOL     OW48414   9.047   2.456   6.514 -0.1825 -0.4781  0.1788
14653SOL    HW148415   9.131   2.497   6.493 -0.1613 -1.1910 -1.2916
14653SOL    HW248416   9.069   2.365   6.533 -0.6947 -0.9364 -1.2747
14654SOL     OW48417   7.811   5.264  10.744 -0.5263  0.1147  0.3220
14654SOL    HW148418   7.780   5.243  10.656 -0.9463  0.6683  0.3343
14654SOL    HW248419   7.770   5.348  10.765 -0.5381 -0.0744  1.1017
14655SOL     OW48420   0.254   3.063   7.622 -1.0346 -0.0617  0.4594
14655SOL    HW148421   0.310   3.005   7.673 -1.6364  0.1765  1.4191
14655SOL    HW248422   0.303   3.080   7.542  0.1913  0.0291  1.2092
14656SOL     OW48423   2.881   4.700   7.432  0.0096 -0.2674  0.4211
14656SOL    HW148424   2.969   4.662   7.424 -0.0310 -0.5370  1.1273
14656SOL    HW248425   2.837   4.677   7.350  0.3860 -0.7137  0.3380
14657SOL     OW48426   4.685   6.406   4.893 -0.3656  1.4508 -0.1376
14657SOL    HW148427   4.765   6.408   4.840 -1.7084  0.6390 -2.3466
14657SOL    HW248428   4.685   6.490   4.940  2.3385  0.9580  0.8848
14658SOL     OW48429   4.454   8.127   1.474 -0.5888  0.2880  0.9385
14658SOL    HW148430   4.373   8.151   1.430 -0.1299 -0.9661 -0.6753
14658SOL    HW248431   4.471   8.037   1.447 -0.0453 -0.4400  3.3883
14659SOL     OW48432   6.559   8.588   9.310  0.0461 -0.3151  0.1283
14659SOL    HW148433   6.598   8.649   9.248 -1.2572 -0.2411 -0.6755
14659SOL    HW248434   6.475   8.628   9.334 -0.5806 -1.4896  0.0287
14660SOL     OW48435   9.161  10.037   6.404  0.3246 -0.5252 -0.6109
14660SOL    HW148436   9.107  10.083   6.340 -0.5876  0.2248  0.6303
14660SOL    HW248437   9.243  10.086   6.407 -0.5283  0.9235  0.4870
14661SOL     OW48438  11.018   1.052   2.462 -0.3380  0.1221  0.2967
14661SOL    HW148439  11.092   1.104   2.430 -0.7077 -0.3480 -1.3814
14661SOL    HW248440  11.001   1.087   2.550 -1.5498  3.9820 -1.2510
14662SOL     OW48441   3.122   2.984   3.859 -0.1807  0.3326 -0.2106
14662SOL    HW148442   3.081   2.899   3.842 -0.8209  0.2652  1.5126
14662SOL    HW248443   3.188   2.966   3.926 -0.2787  1.1724  0.1256
14663SOL     OW48444   9.558   5.646   4.109 -0.0758  0.0812 -0.7081
14663SOL    HW148445   9.617   5.627   4.182  1.4425  0.4994 -1.7759
14663SOL    HW248446   9.529   5.560   4.079  3.0383 -0.4747 -2.5414
14664SOL     OW48447   8.306   3.816   0.821  0.1597  0.2866  0.6589
14664SOL    HW148448   8.317   3.875   0.896  3.1139  0.0793  0.5376
14664SOL    HW248449   8.363   3.853   0.754  0.4415 -1.5386 -0.1519
14665SOL     OW48450   2.581  10.380   4.922  0.3767 -0.2529 -0.6088
14665SOL    HW148451   2.598  10.471   4.947  3.0695 -0.8984  0.2305
14665SOL    HW248452   2.488  10.378   4.901 -0.2328  2.2480  1.3668
14666SOL     OW48453   9.280   1.653   1.782  0.5254 -0.2322  0.1632
14666SOL    HW148454   9.268   1.582   1.844 -1.5049  0.2007  0.3545
14666SOL    HW248455   9.284   1.611   1.697  1.7836 -0.7211  0.4484
14667SOL     OW48456   4.435   4.649  10.673  0.5066  0.3947  0.0100
14667SOL    HW148457   4.389   4.691  10.745  0.9221  0.7192  0.0856
14667SOL    HW248458   4.425   4.555  10.689 -0.2096  0.4563 -0.0263
14668SOL     OW48459   4.643   6.436   9.434 -0.2500  0.5799  0.1227
14668SOL    HW148460   4.586   6.486   9.492 -1.4612  1.0409 -1.3881
14668SOL    HW248461   4.705   6.392   9.493 -0.1967  2.5062  1.6001
14669SOL     OW48462  10.674   2.387  10.053 -0.4273 -0.1786 -0.0501
14669SOL    HW148463  10.736   2.327  10.095  0.2908 -1.7846 -3.1509
14669SOL    HW248464  10.725   2.430   9.984 -2.0742  0.6590 -0.8088
14670SOL     OW48465  10.296   9.020   3.362  0.8706  0.3221 -0.2354
14670SOL    HW148466  10.295   8.924   3.365  1.6915  0.2602 -1.2938
14670SOL    HW248467  10.356   9.046   3.431  0.3841  0.0916  0.2794
14671SOL     OW48468   9.125   5.688   1.443 -0.4180 -0.2026 -0.1004
14671SOL    HW148469   9.219   5.684   1.456 -0.1862 -1.1303 -1.7837
14671SOL    HW248470   9.106   5.617   1.381 -1.8721  1.3731 -1.5754
14672SOL     OW48471   3.035  10.975   1.585 -0.2466  0.5283  0.0758
14672SOL    HW148472   3.069  10.888   1.604  0.9980  0.6307 -1.4391
14672SOL    HW248473   3.108  11.034   1.604 -0.9200  1.2093  0.6295
14673SOL     OW48474   3.003   4.754   7.067  0.5031 -0.6007 -0.0253
14673SOL    HW148475   2.916   4.749   7.107  0.7973  0.4657  0.8060
14673SOL    HW248476   3.040   4.667   7.078  0.2639 -0.5471  1.3553
14674SOL     OW48477   4.000   9.125   8.567 -0.9422 -0.3181  0.4702
14674SOL    HW148478   3.922   9.128   8.624 -0.9671 -0.3992  0.4402
14674SOL    HW248479   3.978   9.061   8.500 -1.3574  0.5961 -0.2839
14675SOL     OW48480  10.512   5.261  11.055  0.5974 -0.3298  0.4875
14675SOL    HW148481  10.429   5.221  11.029  0.3805 -1.3619  2.5628
14675SOL    HW248482  10.573   5.188  11.065  0.8704  0.0750  1.9863
14676SOL     OW48483   1.875   5.575   2.227 -0.3284 -0.3099 -0.0523
14676SOL    HW148484   1.860   5.482   2.244 -0.1120 -0.1320  1.2079
14676SOL    HW248485   1.799   5.620   2.265 -1.1435 -0.0463 -1.9136
14677SOL     OW48486   2.108   6.951   0.435 -0.4400  0.1678  0.6537
14677SOL    HW148487   2.071   6.863   0.439 -0.2346 -0.1920 -2.6897
14677SOL    HW248488   2.203   6.938   0.442 -0.3010 -0.1165 -1.1786
14678SOL     OW48489   6.237   0.582   6.013 -0.1917  0.4880 -0.0645
14678SOL    HW148490   6.276   0.497   6.033 -0.0339  0.7241  0.6421
14678SOL    HW248491   6.143   0.567   6.023 -0.2854  0.0177 -1.4012
14679SOL     OW48492   1.984   4.826   1.256  0.2128 -0.3825 -0.2283
14679SOL    HW148493   2.016   4.916   1.260  1.7188 -0.9103  0.2030
14679SOL    HW248494   1.978   4.807   1.163 -3.7589  1.3359 -0.5280
14680SOL     OW48495   9.392   1.047   1.921  0.3611 -0.3418 -0.0414
14680SOL    HW148496   9.371   0.978   1.984 -1.9448  1.1071  0.9057
14680SOL    HW248497   9.482   1.073   1.943 -0.3276  0.0697  2.6786
14681SOL     OW48498  10.442   4.160  10.695  0.0760  0.5042 -0.2318
14681SOL    HW148499  10.423   4.250  10.722 -1.0053  0.3529 -0.4516
14681SOL    HW248500  10.362   4.112  10.715  0.1431 -0.1169 -1.3834
14682SOL     OW48501   9.929   6.135   5.559  0.1870 -0.4308  0.0871
14682SOL    HW148502   9.923   6.198   5.487  0.2303  0.7281  1.0599
14682SOL    HW248503  10.002   6.077   5.534  0.0949 -0.1577 -0.8635
14683SOL     OW48504   2.183   8.431  10.065  0.2548 -0.3070 -0.3076
14683SOL    HW148505   2.103   8.378  10.063 -1.5690  2.2613 -0.3455
14683SOL    HW248506   2.253   8.369  10.045 -1.9162 -2.3360 -2.2592
14684SOL     OW48507   7.359   6.160   0.282 -0.3514 -0.2053 -0.1867
14684SOL    HW148508   7.294   6.142   0.350 -0.9659 -0.1070 -0.7413
14684SOL    HW248509   7.339   6.249   0.252 -0.4149 -0.4370 -0.8523
14685SOL     OW48510   2.650   7.928   9.225  0.0815 -0.0131 -0.7856
14685SOL    HW148511   2.717   7.940   9.158  0.4386  0.1325 -0.4067
14685SOL    HW248512   2.604   8.012   9.228 -0.8809 -0.4810 -1.8557
14686SOL     OW48513  10.496   8.187   3.978  0.9290  0.4116 -0.6289
14686SOL    HW148514  10.498   8.241   4.057 -2.2030  0.8957 -0.7726
14686SOL    HW248515  10.426   8.123   3.994  2.2843 -1.4926 -1.8411
14687SOL     OW48516   4.871   4.522   6.580  0.3154  0.4469 -0.2919
14687SOL    HW148517   4.946   4.548   6.634  0.9334  0.5032 -1.1709
14687SOL    HW248518   4.873   4.427   6.581 -0.6372  0.4152  1.0990
14688SOL     OW48519   2.728   3.748   3.479 -0.0931 -0.6729  0.2153
14688SOL    HW148520   2.655   3.811   3.477  1.0727  0.7633  0.7549
14688SOL    HW248521   2.726   3.707   3.393 -0.2293  0.9465 -0.6003
14689SOL     OW48522   5.531   8.374   8.077 -0.6647  0.0690  0.0795
14689SOL    HW148523   5.547   8.419   7.994  2.5447 -0.1727  0.4578
14689SOL    HW248524   5.539   8.441   8.144  0.9311 -0.4221  0.4231
14690SOL     OW48525   4.953   8.355   0.775  0.1675  0.3512 -0.5462
14690SOL    HW148526   4.872   8.406   0.771 -0.1095 -0.0714 -0.4669
14690SOL    HW248527   4.995   8.382   0.857 -0.4841 -0.2777  0.0115
14691SOL     OW48528   4.260   0.834   9.243 -0.0695 -0.3155  0.0378
14691SOL    HW148529   4.230   0.881   9.321 -1.3253 -0.5877 -0.2430
14691SOL    HW248530   4.189   0.771   9.225  0.2752 -0.3781 -1.2066
14692SOL     OW48531   4.283  11.037   4.636 -0.0292 -0.2534  0.1189
14692SOL    HW148532   4.360  11.038   4.692  0.5385 -1.1763 -0.6050
14692SOL    HW248533   4.247  10.948   4.647 -1.0467  0.1867  0.5063
14693SOL     OW48534   1.025   7.046   9.408  0.2636 -0.6277 -0.0370
14693SOL    HW148535   1.000   6.967   9.359 -1.4904  0.2962 -0.7036
14693SOL    HW248536   1.077   7.097   9.346 -0.2721 -0.3718 -0.2823
14694SOL     OW48537   6.269   4.443   8.782 -1.0261 -0.4211 -0.2276
14694SOL    HW148538   6.204   4.417   8.716 -1.0511  0.3113 -0.4957
14694SOL    HW248539   6.322   4.364   8.795 -1.4491 -0.7753 -0.6187
14695SOL     OW48540   4.185   3.790   7.447 -0.5076  0.5408  0.4445
14695SOL    HW148541   4.244   3.716   7.458 -0.3358  0.6462  0.2320
14695SOL    HW248542   4.100   3.758   7.477 -0.7573 -0.1918 -0.9607
14696SOL     OW48543   5.812   8.633   9.339 -0.2465  0.0796  0.7546
14696SOL    HW148544   5.897   8.641   9.295  1.4978  1.6791  4.0742
14696SOL    HW248545   5.814   8.545   9.378 -0.0992  0.1375  0.8764
14697SOL     OW48546  10.323   1.526   7.780 -0.0489 -0.2815 -0.7987
14697SOL    HW148547  10.379   1.553   7.853 -0.0033 -2.0441 -0.1403
14697SOL    HW248548  10.357   1.441   7.753 -1.2998 -0.5654 -1.5758
14698SOL     OW48549  10.536   1.120   5.489 -0.9694  0.2593  0.4779
14698SOL    HW148550  10.622   1.116   5.448 -0.9843  1.3013  0.3117
14698SOL    HW248551  10.525   1.212   5.514 -2.8467  0.6229 -1.3497
14699SOL     OW48552   5.744   0.483   8.512  0.4344 -0.4626 -0.4350
14699SOL    HW148553   5.822   0.488   8.566  1.1285 -1.6407 -1.2952
14699SOL    HW248554   5.736   0.570   8.472 -0.8764  0.9411  2.5077
14700SOL     OW48555   5.690   5.186   3.700 -0.5074  0.7874 -0.0597
14700SOL    HW148556   5.610   5.158   3.746 -0.0741  0.2456  0.3963
14700SOL    HW248557   5.755   5.120   3.726  0.0529  1.1607 -0.5158
14701SOL     OW48558   3.625   4.057   3.297 -0.0368  0.2151 -0.0652
14701SOL    HW148559   3.600   4.088   3.209 -1.2022  0.8585  0.4620
14701SOL    HW248560   3.605   4.131   3.354  0.2286 -0.3776  0.8060
14702SOL     OW48561  10.676   2.518   9.517  0.6040 -0.3915  0.1862
14702SOL    HW148562  10.642   2.545   9.432  1.5567  1.5720  0.3833
14702SOL    HW248563  10.598   2.504   9.571  0.0431  0.2754 -0.4494
14703SOL     OW48564   3.443   9.848   7.711 -0.1933  0.4945 -0.2333
14703SOL    HW148565   3.502   9.777   7.736 -2.3611 -0.9753  1.0541
14703SOL    HW248566   3.498   9.909   7.663  2.9985  0.5264  3.0156
14704SOL     OW48567   5.121   0.551   8.539 -0.8691 -0.6734  0.6119
14704SOL    HW148568   5.172   0.554   8.620 -1.9627 -0.8809  1.3201
14704SOL    HW248569   5.094   0.642   8.524 -1.2280 -0.7435  0.8400
14705SOL     OW48570   9.380   5.854   6.699  0.4866  0.0900 -0.1009
14705SOL    HW148571   9.319   5.844   6.772 -0.4799  2.0918 -0.5686
14705SOL    HW248572   9.368   5.774   6.647 -1.2370  0.1057  0.2067
14706SOL     OW48573   7.956   0.915   5.367  0.1330  0.0171  0.0141
14706SOL    HW148574   7.915   1.001   5.379  0.6727  0.4021 -0.8164
14706SOL    HW248575   7.897   0.854   5.412 -0.6034  0.7342  0.0482
14707SOL     OW48576   5.695   3.488   4.325  0.2934  0.6386 -0.1005
14707SOL    HW148577   5.752   3.493   4.248  0.5003 -0.4796 -0.0414
14707SOL    HW248578   5.642   3.568   4.321 -0.2507  0.2466 -1.8397
14708SOL     OW48579  10.713   9.060  10.349  0.0667  0.2598  0.6611
14708SOL    HW148580  10.729   8.993  10.283  0.5000  0.7326  0.2815
14708SOL    HW248581  10.674   9.133  10.301 -1.6408 -0.1865  1.2728
14709SOL     OW48582   0.508   8.344   8.022  0.6915 -0.0447  0.7150
14709SOL    HW148583   0.421   8.384   8.031  0.9269  0.6588 -0.0672
14709SOL    HW248584   0.493   8.264   7.972  0.6450  0.6980 -0.4986
14710SOL     OW48585   7.774   4.536   3.766  0.1278  0.3515  0.3408
14710SOL    HW148586   7.863   4.554   3.796  0.6016  1.5319 -1.5856
14710SOL    HW248587   7.782   4.527   3.671 -1.9738  1.7114 -0.0324
14711SOL     OW48588   6.728   7.286  10.163  0.5680  0.4757 -0.5991
14711SOL    HW148589   6.819   7.309  10.185  0.3190 -0.7806  2.1031
14711SOL    HW248590   6.731   7.193  10.145 -0.1848  0.4340 -0.5183
14712SOL     OW48591   8.976  10.612  10.679 -0.4633 -0.0976 -0.3814
14712SOL    HW148592   8.995  10.628  10.587 -1.1686 -0.9987 -0.6915
14712SOL    HW248593   8.880  10.612  10.685 -0.4817  2.4481  0.8094
14713SOL     OW48594   4.650  10.307   7.819 -0.2198  0.2215  0.4442
14713SOL    HW148595   4.571  10.307   7.873 -1.3864 -0.4563 -1.1932
14713SOL    HW248596   4.633  10.373   7.752  0.5790  0.0255  0.0389
14714SOL     OW48597   8.316   5.154   2.130 -0.8800 -0.1411  0.1292
14714SOL    HW148598   8.310   5.125   2.221 -0.6006  0.0787  0.2177
14714SOL    HW248599   8.282   5.080   2.080 -0.7852 -0.3707  0.3963
14715SOL     OW48600   7.945   1.770   0.353  0.2413  0.2309  0.2583
14715SOL    HW148601   7.984   1.682   0.359  3.4658  1.5526  0.9502
14715SOL    HW248602   8.013   1.823   0.311 -1.1558  2.6182  0.8501
14716SOL     OW48603  10.387   8.680   8.900 -0.3984  0.2336  0.4665
14716SOL    HW148604  10.364   8.726   8.980  0.1354 -0.2981  0.9277
14716SOL    HW248605  10.443   8.741   8.852  0.5590 -0.0301  1.2165
14717SOL     OW48606   0.532   4.800  10.783 -0.1635  0.4213  0.0126
14717SOL    HW148607   0.454   4.842  10.747  0.1054  0.0740 -1.0230
14717SOL    HW248608   0.568   4.864  10.844  0.3317  1.8074 -1.6350
14718SOL     OW48609   1.251   7.073   1.976  0.2767 -0.2187  0.3362
14718SOL    HW148610   1.264   6.986   2.013  1.4951 -0.5066 -0.7196
14718SOL    HW248611   1.332   7.120   1.995 -0.5343  0.8743  1.3042
14719SOL     OW48612   2.945   1.578   6.368  0.3509 -0.0241 -0.0911
14719SOL    HW148613   2.968   1.495   6.408  0.6961 -0.1504 -0.5384
14719SOL    HW248614   2.905   1.629   6.439  0.1899 -0.5439  0.1976
14720SOL     OW48615   1.451   8.935   4.137  0.0813  0.1664  0.4218
14720SOL    HW148616   1.509   8.971   4.070  0.9239 -0.6203  0.7093
14720SOL    HW248617   1.364   8.968   4.113  0.3135 -0.3359 -1.2392
14721SOL     OW48618   6.303   7.797   2.825  0.3992  0.6573  0.6566
14721SOL    HW148619   6.351   7.867   2.871  0.7204  1.4358 -0.8053
14721SOL    HW248620   6.368   7.758   2.767  0.7488 -2.1723  2.7128
14722SOL     OW48621   2.179   8.008   8.839  0.3475  0.2026  0.9647
14722SOL    HW148622   2.217   7.968   8.917 -0.5154 -0.4998  1.0461
14722SOL    HW248623   2.208   8.099   8.842  0.7110  0.0690  1.8503
14723SOL     OW48624   2.718   6.067   0.950 -0.6107  0.1810 -0.3864
14723SOL    HW148625   2.800   6.027   0.977 -1.8228 -0.5820  2.5740
14723SOL    HW248626   2.708   6.143   1.006 -2.0637  0.0710 -0.4415
14724SOL     OW48627   7.351   6.656   5.694  0.1564  0.2240  0.0269
14724SOL    HW148628   7.295   6.601   5.749  0.0260  0.3491  0.0186
14724SOL    HW248629   7.439   6.620   5.707 -0.0836 -0.7069 -0.8505
14725SOL     OW48630   1.543   2.311   0.367  0.3754  0.3104  0.0626
14725SOL    HW148631   1.489   2.387   0.345 -0.6220 -0.5432 -0.4987
14725SOL    HW248632   1.577   2.330   0.454  1.0590  1.8996 -0.5039
14726SOL     OW48633  10.269   5.476   6.387  0.1654  0.0513 -0.1325
14726SOL    HW148634  10.325   5.443   6.458 -0.2811 -1.4610 -0.4439
14726SOL    HW248635  10.330   5.496   6.316  0.3186 -2.0999 -0.6608
14727SOL     OW48636   6.009   1.497   6.055  0.3163  0.0456 -0.1090
14727SOL    HW148637   5.982   1.435   6.122  1.2053 -1.0117 -0.6812
14727SOL    HW248638   5.929   1.544   6.031  0.2070  1.4520  2.6139
14728SOL     OW48639   4.973   3.702   5.014  0.1602 -0.3314  1.0634
14728SOL    HW148640   5.034   3.776   5.020 -0.5929  0.3848  0.1904
14728SOL    HW248641   4.887   3.741   5.028 -0.0787 -1.4263  2.8529
14729SOL     OW48642   2.871   5.889  10.192  0.2532 -0.4129  0.6304
14729SOL    HW148643   2.867   5.984  10.184 -1.5600 -0.4710  0.5343
14729SOL    HW248644   2.866   5.872  10.286  3.1877 -0.3900  0.9058
14730SOL     OW48645   7.376   5.259   0.876 -0.3453 -0.1925 -0.6658
14730SOL    HW148646   7.352   5.350   0.888 -0.4678 -0.4961  1.9194
14730SOL    HW248647   7.337   5.213   0.950  2.6993 -1.7405  0.1910
14731SOL     OW48648   6.286   7.662   2.423 -0.3093 -0.5195 -0.4388
14731SOL    HW148649   6.200   7.704   2.416  0.1391  0.2918 -1.3091
14731SOL    HW248650   6.325   7.698   2.502 -0.2554  0.1051 -0.7443
14732SOL     OW48651   2.555   1.745   0.487  0.2605 -0.4456  0.4274
14732SOL    HW148652   2.583   1.811   0.424 -2.1577  2.8323  2.4644
14732SOL    HW248653   2.463   1.728   0.466 -0.5653  0.6114  2.8211
14733SOL     OW48654   8.327  10.503   8.077 -0.0005  0.3944  0.5459
14733SOL    HW148655   8.259  10.467   8.020 -0.6166  1.1053  0.8097
14733SOL    HW248656   8.351  10.432   8.136  0.1027 -0.1170 -0.1049
14734SOL     OW48657   7.180   1.799   3.265 -0.4553 -0.0138  0.4238
14734SOL    HW148658   7.223   1.843   3.192 -0.1695  2.4562  1.9721
14734SOL    HW248659   7.224   1.714   3.271  1.6111  0.9275 -0.4100
14735SOL     OW48660   1.931   3.289   6.351 -0.6300  1.2407 -0.1742
14735SOL    HW148661   1.846   3.297   6.395 -0.4411  1.2944  0.1845
14735SOL    HW248662   1.949   3.195   6.349 -1.2030  1.1392 -1.2283
14736SOL     OW48663   6.802   4.958   6.926  0.4920  0.2366  0.6796
14736SOL    HW148664   6.888   4.952   6.885 -0.3319 -0.4610 -1.0248
14736SOL    HW248665   6.782   5.052   6.925  1.4166  0.4598  1.5407
14737SOL     OW48666   5.810   9.035   0.107  0.0254  0.3166 -0.4225
14737SOL    HW148667   5.750   9.015   0.179  0.5359 -1.9879 -0.5769
14737SOL    HW248668   5.757   9.086   0.046 -0.9405  0.7421  0.7213
14738SOL     OW48669   7.018   2.795   7.327 -0.0469  0.7915  0.0123
14738SOL    HW148670   7.113   2.797   7.319 -0.1751 -0.6766 -3.0990
14738SOL    HW248671   6.991   2.887   7.321  1.0797  1.0740 -0.8583
14739SOL     OW48672   5.785   1.060  10.906 -0.7549  0.0143 -0.2472
14739SOL    HW148673   5.782   0.975  10.950 -1.7464 -1.0222 -2.1879
14739SOL    HW248674   5.704   1.103  10.932  0.0078  0.6515  1.1881
14740SOL     OW48675   5.525   5.659   1.901  0.3848  0.1799 -0.2042
14740SOL    HW148676   5.597   5.639   1.961 -0.5267  1.8468  1.5913
14740SOL    HW248677   5.546   5.745   1.866 -0.0968  0.0917 -0.7267
14741SOL     OW48678  10.290   2.614   6.736  0.2191 -0.3394  0.2312
14741SOL    HW148679  10.264   2.620   6.828 -2.2697  1.1550 -0.4707
14741SOL    HW248680  10.276   2.522   6.713 -0.9396 -0.3463  0.8930
14742SOL     OW48681   3.333  10.634  10.530 -0.1507 -0.4595  0.1243
14742SOL    HW148682   3.328  10.671  10.618  1.6043 -0.6449  0.3373
14742SOL    HW248683   3.266  10.682  10.480 -1.6488 -0.8165  1.6799
14743SOL     OW48684   3.539   2.792   8.062  0.3384  0.4531 -0.3502
14743SOL    HW148685   3.498   2.742   8.133 -0.3190  1.2669 -0.1455
14743SOL    HW248686   3.632   2.772   8.070  0.1380 -0.4227 -0.0268
14744SOL     OW48687   3.612  10.659   4.998  0.0624 -0.0707  0.1923
14744SOL    HW148688   3.592  10.662   4.904  1.1919  0.0473 -0.0527
14744SOL    HW248689   3.540  10.609   5.036 -0.2852 -0.3247 -0.7686
14745SOL     OW48690   2.988   5.229   6.590 -0.3566  0.2621 -0.5807
14745SOL    HW148691   2.991   5.162   6.520  0.7116  1.2435 -1.5195
14745SOL    HW248692   3.011   5.181   6.669  1.9175 -0.2576 -1.4719
14746SOL     OW48693   1.083   6.689   5.331  0.2061 -0.2902 -0.1248
14746SOL    HW148694   1.072   6.620   5.396 -0.2324  1.4989  1.7919
14746SOL    HW248695   1.013   6.751   5.349 -0.8032 -0.3455 -3.2394
14747SOL     OW48696   0.902   4.036   9.190  0.0547  0.3589 -0.2884
14747SOL    HW148697   0.816   4.001   9.213  0.4905 -0.5904 -0.0778
14747SOL    HW248698   0.888   4.131   9.183 -0.8301  0.2984  0.5213
14748SOL     OW48699   9.971   2.972   4.039 -0.1890  0.0091 -0.4849
14748SOL    HW148700  10.044   2.914   4.058 -0.8130 -0.2556  1.2496
14748SOL    HW248701   9.950   2.954   3.947  0.1515 -1.9112 -0.2302
14749SOL     OW48702   4.953   5.690  10.583 -0.2805 -0.1629 -0.0056
14749SOL    HW148703   4.960   5.774  10.537 -2.2893 -0.4723 -0.9575
14749SOL    HW248704   5.031   5.688  10.640  1.4646  0.9450 -2.1922
14750SOL     OW48705   1.397  10.345   8.357  0.6283  0.4392  0.0324
14750SOL    HW148706   1.404  10.271   8.416 -0.2890 -1.3976 -2.0064
14750SOL    HW248707   1.303  10.364   8.352  0.7668  1.1179 -0.1943
14751SOL     OW48708  10.522   4.006  10.254  0.4785 -0.0295  0.0080
14751SOL    HW148709  10.593   3.942  10.261 -1.1353 -2.0013 -0.9152
14751SOL    HW248710  10.473   3.997  10.336  1.9540  2.3180  1.2796
14752SOL     OW48711   0.766   7.631   5.053  0.2342  0.0890 -0.1014
14752SOL    HW148712   0.747   7.720   5.024 -0.1836  0.2858  0.7155
14752SOL    HW248713   0.845   7.639   5.106  0.2156 -0.0244 -0.0544
14753SOL     OW48714   5.402   0.210   1.611 -0.3591 -1.1179 -0.0630
14753SOL    HW148715   5.334   0.148   1.636 -0.1437 -1.6949 -0.8593
14753SOL    HW248716   5.480   0.155   1.597  0.3041 -0.4671  0.9128
14754SOL     OW48717   8.253   9.409   7.960 -0.1078 -0.5188  0.4240
14754SOL    HW148718   8.235   9.369   7.875  1.7198 -0.2750 -0.1250
14754SOL    HW248719   8.202   9.490   7.960  1.6426  0.6987 -1.5075
14755SOL     OW48720   6.759   2.833   7.625  0.3755  0.5194 -0.3131
14755SOL    HW148721   6.807   2.756   7.593  0.6932  0.4613  0.2843
14755SOL    HW248722   6.706   2.861   7.550 -0.2732 -0.6918 -0.3457
14756SOL     OW48723   7.966   5.061   9.422  0.2680  0.3266 -0.5692
14756SOL    HW148724   7.878   5.076   9.387  0.4143  0.6005 -0.8232
14756SOL    HW248725   8.017   5.136   9.390  0.4153  0.5583  0.1953
14757SOL     OW48726   7.118   2.169   4.114 -0.0123 -0.0205  0.3519
14757SOL    HW148727   7.212   2.184   4.128 -0.0302 -1.4134  2.4283
14757SOL    HW248728   7.100   2.208   4.028  2.0330  2.0248  0.7444
14758SOL     OW48729   8.525   7.790  10.547  0.2903  0.4786 -0.4638
14758SOL    HW148730   8.502   7.826  10.633 -2.6309 -2.2922  0.0781
14758SOL    HW248731   8.455   7.821  10.489  1.2588  0.8550 -1.4573
14759SOL     OW48732   7.571   3.236   7.226  0.2328 -0.9648 -0.2111
14759SOL    HW148733   7.607   3.163   7.277 -2.3995 -2.5487 -0.4933
14759SOL    HW248734   7.507   3.276   7.285  1.1629  0.7717 -0.3123
14760SOL     OW48735   5.570  11.041  10.017  0.5519 -0.1992 -0.2517
14760SOL    HW148736   5.650  11.084   9.985  1.3394 -1.0494  0.5038
14760SOL    HW248737   5.503  11.067   9.954  1.3960  0.6059 -0.8668
14761SOL     OW48738   4.955   6.492   5.944  0.2100 -0.5298  0.3395
14761SOL    HW148739   4.946   6.418   5.884  0.6160 -0.0670 -0.2970
14761SOL    HW248740   4.978   6.566   5.888 -1.4972  0.3990  0.7690
14762SOL     OW48741   3.713   8.609   2.792 -0.3902  0.5297  0.2139
14762SOL    HW148742   3.653   8.650   2.854 -1.4112 -1.3700  0.5837
14762SOL    HW248743   3.733   8.523   2.830  0.6312  0.1395 -1.0847
14763SOL     OW48744   8.417   3.847   2.133  0.0625 -0.1886 -0.3371
14763SOL    HW148745   8.452   3.789   2.065 -0.0912 -0.9778  0.2389
14763SOL    HW248746   8.342   3.799   2.169 -0.2002  0.4687  0.0067
14764SOL     OW48747   4.873   3.251  10.917  0.2332  0.6738 -0.1564
14764SOL    HW148748   4.897   3.280  11.005  2.8178 -2.1543  0.2491
14764SOL    HW248749   4.808   3.182  10.932  1.6352 -0.7484 -0.2284
14765SOL     OW48750   1.607   7.471   9.830 -0.5648 -0.0445 -0.2182
14765SOL    HW148751   1.658   7.552   9.836 -0.1790 -0.3630  1.0232
14765SOL    HW248752   1.648   7.423   9.758  0.4520  0.0143  0.3010
14766SOL     OW48753   3.389   0.061   5.045  0.9146  0.6243 -0.2025
14766SOL    HW148754   3.407   0.060   5.139  1.2465  1.4920 -0.2478
14766SOL    HW248755   3.464   0.017   5.005 -0.0621 -1.3721  0.0427
14767SOL     OW48756   2.846   3.529   1.808  0.0129  0.6904 -0.6375
14767SOL    HW148757   2.817   3.564   1.892  2.7018 -0.9380  1.1014
14767SOL    HW248758   2.826   3.436   1.812  0.8165  0.4603 -1.4914
14768SOL     OW48759   9.790   3.524   1.293 -0.7844  0.0586 -0.0070
14768SOL    HW148760   9.811   3.471   1.216 -1.3545  1.8768 -1.4880
14768SOL    HW248761   9.871   3.569   1.314 -0.2803 -1.3364  1.2979
14769SOL     OW48762   4.032   3.545   4.271 -0.2494 -0.5337  0.2273
14769SOL    HW148763   3.958   3.500   4.313 -0.1677 -1.2702 -0.3930
14769SOL    HW248764   4.067   3.480   4.210 -0.4170  0.5316 -1.0458
14770SOL     OW48765   1.799   7.013   0.286 -0.4264  0.2908  0.1099
14770SOL    HW148766   1.712   7.005   0.325 -1.6452 -0.1192 -2.4636
14770SOL    HW248767   1.830   7.098   0.314 -1.7217  0.5173  0.9625
14771SOL     OW48768   1.661   0.393   3.861  0.8847 -0.7786 -0.3584
14771SOL    HW148769   1.628   0.471   3.818  3.0404 -1.1927 -2.9933
14771SOL    HW248770   1.620   0.395   3.948  0.1342  2.7123 -0.6488
14772SOL     OW48771   0.198  10.293  10.847 -0.0402 -0.2647 -0.3839
14772SOL    HW148772   0.277  10.296  10.794 -0.3323  1.0362 -0.7870
14772SOL    HW248773   0.204  10.369  10.905  0.0138 -1.3471  1.1092
14773SOL     OW48774   7.746   9.761   4.031 -0.1945  0.2794 -0.0759
14773SOL    HW148775   7.711   9.747   3.943 -0.8074  1.4515 -0.0340
14773SOL    HW248776   7.827   9.810   4.017 -0.2693  0.4284  0.0117
14774SOL     OW48777   5.352   3.573   0.098 -0.5293 -0.0134 -0.1988
14774SOL    HW148778   5.440   3.535   0.102 -1.0782 -1.4042 -0.6648
14774SOL    HW248779   5.358   3.638   0.028 -0.7085 -2.6000 -2.8255
14775SOL     OW48780   0.535   1.111   2.166 -0.6773  0.0407  0.3138
14775SOL    HW148781   0.565   1.108   2.075  2.0884  0.3576  1.1329
14775SOL    HW248782   0.439   1.118   2.160 -0.5824 -0.2068 -2.5370
14776SOL     OW48783  11.061  10.676   9.780  0.2412 -0.3713 -0.8977
14776SOL    HW148784  10.978  10.718   9.760  0.5652  0.4535 -0.5521
14776SOL    HW248785  11.126  10.724   9.729  0.7953  0.4504  0.5039
14777SOL     OW48786   2.662   1.842   4.633  0.0068 -0.5684  0.0039
14777SOL    HW148787   2.654   1.808   4.544  1.0509 -1.1347  0.1066
14777SOL    HW248788   2.657   1.937   4.623  0.0316 -0.6288 -0.6457
14778SOL     OW48789  10.941   9.990   0.681 -0.0249 -0.0803  0.6445
14778SOL    HW148790  11.000   9.953   0.616  0.0338 -1.3616  1.3791
14778SOL    HW248791  10.870  10.029   0.631 -0.1364 -1.3076 -0.1961
14779SOL     OW48792   0.128   0.155   2.992 -0.8958  0.1076 -0.2143
14779SOL    HW148793   0.062   0.104   2.945  0.2970  0.4088 -2.3620
14779SOL    HW248794   0.089   0.174   3.077 -1.9619 -3.1318  0.1385
14780SOL     OW48795   7.847   4.519   3.061 -0.1003  0.2130 -0.2553
14780SOL    HW148796   7.762   4.475   3.062  0.0171 -0.0085  1.5008
14780SOL    HW248797   7.881   4.502   2.973 -0.7898 -1.7841 -0.1757
14781SOL     OW48798   8.008   4.052   0.170  0.1053  0.9217 -0.0213
14781SOL    HW148799   8.036   4.001   0.093  1.3744  1.2086  0.2364
14781SOL    HW248800   7.961   4.127   0.133  0.9725  1.2218 -0.5427
14782SOL     OW48801   5.081   1.572   9.187  0.1249 -0.0552 -0.3718
14782SOL    HW148802   5.139   1.588   9.262 -0.1140 -1.1650  0.0729
14782SOL    HW248803   5.081   1.477   9.177 -0.8196 -0.0018 -1.0075
14783SOL     OW48804   0.451   9.474   7.011  0.3587 -0.0673  0.3359
14783SOL    HW148805   0.492   9.462   6.925 -1.3507 -0.8068 -0.4278
14783SOL    HW248806   0.385   9.404   7.016  0.2381  0.1300  2.1462
14784SOL     OW48807   6.816   6.615  10.594 -0.7954 -0.0662 -0.0888
14784SOL    HW148808   6.810   6.521  10.611  0.4287 -0.1576 -0.0957
14784SOL    HW248809   6.910   6.633  10.588 -1.0032  1.2137  0.2008
14785SOL     OW48810  10.750   3.774   2.914  0.5973  0.1924 -0.1216
14785SOL    HW148811  10.771   3.795   2.823  0.7054  0.9641  0.0790
14785SOL    HW248812  10.823   3.721   2.944  2.0486  2.3591  0.3875
14786SOL     OW48813   0.458   5.893   8.207  0.0818 -0.5316 -0.0522
14786SOL    HW148814   0.443   5.936   8.292  0.7503 -0.6618  0.1387
14786SOL    HW248815   0.553   5.891   8.198  0.0228  1.7222 -1.9787
14787SOL     OW48816   4.978   4.555   7.178 -0.0400 -0.2936 -0.0925
14787SOL    HW148817   4.999   4.644   7.148 -0.3297 -0.2038 -0.0298
14787SOL    HW248818   4.952   4.509   7.098  1.1554 -0.6313 -0.2964
14788SOL     OW48819   9.620   2.186   7.925  0.3260 -0.4561  0.1466
14788SOL    HW148820   9.562   2.111   7.911  1.1950 -1.0104 -0.6299
14788SOL    HW248821   9.581   2.256   7.873  0.9772 -1.1714 -1.3750
14789SOL     OW48822   0.712   8.608   4.828 -0.4067  0.1198 -0.2379
14789SOL    HW148823   0.617   8.611   4.840 -0.3696  1.3379 -0.0641
14789SOL    HW248824   0.734   8.695   4.794  0.7433  0.1082  0.4334
14790SOL     OW48825   1.184   1.186   8.544 -0.2010 -0.1427  0.1540
14790SOL    HW148826   1.224   1.099   8.549  0.1100  0.0590  2.5131
14790SOL    HW248827   1.241   1.241   8.598 -0.9748  1.2955 -0.4556
14791SOL     OW48828   8.226   2.644   3.220  0.3723  0.4370 -0.9072
14791SOL    HW148829   8.208   2.713   3.284 -1.4825 -0.5521 -0.2920
14791SOL    HW248830   8.244   2.691   3.139 -0.0878  1.6646 -0.3266
14792SOL     OW48831   6.878   1.273   0.236 -0.2809  0.0187  0.1650
14792SOL    HW148832   6.902   1.359   0.269  1.0896 -0.5452  0.7182
14792SOL    HW248833   6.962   1.226   0.229 -0.8926 -0.9345 -1.0759
14793SOL     OW48834   2.842   6.419   3.695 -0.5570  0.1039  0.0434
14793SOL    HW148835   2.897   6.415   3.773  0.2558 -1.0917 -0.5682
14793SOL    HW248836   2.806   6.331   3.686  0.1221 -0.0512 -1.4501
14794SOL     OW48837   9.802   5.960   0.407  0.2334 -0.0275  0.0377
14794SOL    HW148838   9.756   5.883   0.373 -0.1142  1.0569 -2.1022
14794SOL    HW248839   9.888   5.926   0.434  0.7928 -0.9028 -2.5940
14795SOL     OW48840   5.753   0.866  10.676 -0.3864  0.0755 -0.3054
14795SOL    HW148841   5.798   0.923  10.738  0.2407 -0.6294 -0.0969
14795SOL    HW248842   5.800   0.880  10.593 -0.5683  0.2456 -0.3817
14796SOL     OW48843  10.803   8.386   1.144  0.0406  0.4512  0.1065
14796SOL    HW148844  10.879   8.437   1.115  0.1730  0.2771  0.1456
14796SOL    HW248845  10.767   8.436   1.217 -0.7434  1.2892 -0.8285
14797SOL     OW48846   1.027   5.333   7.086 -0.2388  0.3139  0.4234
14797SOL    HW148847   1.092   5.347   7.156  0.9411  1.6525 -0.8636
14797SOL    HW248848   1.072   5.362   7.007 -1.7079 -0.7565 -0.8391
14798SOL     OW48849  10.089   0.483   4.380  0.6785  0.1372 -0.2198
14798SOL    HW148850  10.099   0.416   4.311 -0.3809 -0.0229 -0.2501
14798SOL    HW248851  10.068   0.563   4.332 -1.1010 -0.1968 -0.0851
14799SOL     OW48852   3.150  10.788   3.099  0.4095  0.0275  0.2707
14799SOL    HW148853   3.197  10.758   3.022 -1.2220 -0.2720 -0.6501
14799SOL    HW248854   3.198  10.867   3.127  1.4557 -0.2872 -0.5781
14800SOL     OW48855   0.053   3.644   2.989 -0.1609 -0.0188  0.1970
14800SOL    HW148856  -0.029   3.596   2.981  0.0705 -0.3568 -0.2030
14800SOL    HW248857   0.027   3.733   3.013 -0.6320 -0.1678  0.2392
14801SOL     OW48858  10.619   0.072   4.622 -0.2716  0.1510  0.4182
14801SOL    HW148859  10.673  -0.001   4.651 -0.5435 -1.0031 -1.8036
14801SOL    HW248860  10.676   0.123   4.564 -0.5060  0.9435  0.8708
14802SOL     OW48861   2.025   2.991   4.623 -0.1221  0.4590  0.2833
14802SOL    HW148862   2.055   3.044   4.697  0.7176  1.0275 -0.4454
14802SOL    HW248863   2.004   3.054   4.555 -0.9282 -0.0600  0.0325
14803SOL     OW48864   8.368   7.933   9.620  0.2307  0.1299  0.2834
14803SOL    HW148865   8.384   7.855   9.672  1.9507  0.7070  0.7100
14803SOL    HW248866   8.292   7.912   9.566 -1.3019 -0.6829  2.6182
14804SOL     OW48867  10.162   4.268   3.600  0.4148  0.3178 -0.1850
14804SOL    HW148868  10.149   4.362   3.608 -0.1793  0.1717  0.7412
14804SOL    HW248869  10.228   4.248   3.667 -0.6040 -0.1349  0.7233
14805SOL     OW48870   5.485   2.427   2.794 -0.0500 -0.4312  0.5557
14805SOL    HW148871   5.577   2.417   2.819  0.4112  0.5911 -0.6295
14805SOL    HW248872   5.452   2.498   2.849 -0.0644 -0.6255  0.7994
14806SOL     OW48873   6.517   0.140   2.455 -0.3537  0.7344  0.9594
14806SOL    HW148874   6.466   0.084   2.396 -1.4176  2.1628  0.4588
14806SOL    HW248875   6.600   0.154   2.409  0.1480 -0.8013  1.3256
14807SOL     OW48876   1.923   4.520   1.821  0.0080 -0.5700  0.2620
14807SOL    HW148877   1.979   4.540   1.896  1.5293 -1.1561 -0.6954
14807SOL    HW248878   1.952   4.434   1.791 -0.0146 -0.0005 -1.4963
14808SOL     OW48879   0.100   4.384   1.883  0.5217  0.2200 -0.2382
14808SOL    HW148880   0.144   4.362   1.800  2.1890  1.2895  0.3182
14808SOL    HW248881   0.171   4.406   1.943 -0.7594  1.6288  0.8392
14809SOL     OW48882   3.323   6.563   9.325 -0.0163 -0.3304  0.0471
14809SOL    HW148883   3.321   6.512   9.406  0.8780 -0.6984 -0.1485
14809SOL    HW248884   3.233   6.560   9.293 -0.0827 -1.3970  0.2899
14810SOL     OW48885   1.271   9.009   0.692 -0.8497  0.7898 -0.0605
14810SOL    HW148886   1.338   9.056   0.643 -0.6236 -0.2924 -0.8368
14810SOL    HW248887   1.303   9.008   0.782  1.4283 -1.6717 -0.7526
14811SOL     OW48888   6.326   6.980   2.212 -0.4836 -0.0857 -0.3662
14811SOL    HW148889   6.365   6.981   2.299 -2.8103 -2.4529  0.8234
14811SOL    HW248890   6.380   7.040   2.161  1.6586  0.4964  2.3749
14812SOL     OW48891   8.289   2.242   4.531 -0.1249  0.3167 -0.0654
14812SOL    HW148892   8.325   2.310   4.474 -1.5239  0.4160 -0.8676
14812SOL    HW248893   8.337   2.253   4.613  0.3008  1.7001 -0.4604
14813SOL     OW48894   8.241   2.972   5.219  0.3003 -0.0103  0.1545
14813SOL    HW148895   8.225   2.957   5.126  1.6548  1.3497 -0.3402
14813SOL    HW248896   8.270   2.887   5.253 -0.4303 -0.5689 -0.5940
14814SOL     OW48897   6.974   0.280   5.348 -0.1861 -0.7507 -0.1998
14814SOL    HW148898   6.931   0.196   5.332  0.7820 -1.1410 -0.9220
14814SOL    HW248899   7.035   0.289   5.274 -0.6349  0.8367 -0.4028
14815SOL     OW48900   1.062   1.503   3.061  0.2353 -0.5298 -0.1375
14815SOL    HW148901   1.113   1.550   2.994 -0.4629 -0.7913 -0.8699
14815SOL    HW248902   1.032   1.424   3.017 -0.0505 -0.8243  0.5697
14816SOL     OW48903   1.698   8.853   6.596  0.3788 -0.0124 -0.0260
14816SOL    HW148904   1.711   8.770   6.643 -0.8497  0.5137  1.3201
14816SOL    HW248905   1.617   8.889   6.633  1.5162  2.3948  0.3145
14817SOL     OW48906   7.706   2.927   4.966  0.2791 -0.4938 -1.1178
14817SOL    HW148907   7.698   2.890   5.053  0.7723  0.9099 -0.4467
14817SOL    HW248908   7.626   2.979   4.954  0.5253 -0.1270 -1.2109
14818SOL     OW48909   6.429   8.591   5.034  0.3975  0.2797 -0.5004
14818SOL    HW148910   6.484   8.666   5.059  0.7235 -0.0253 -0.2957
14818SOL    HW248911   6.462   8.518   5.087 -0.6615  0.2509  0.1471
14819SOL     OW48912   9.903   0.869   5.409 -0.0092  0.0744  0.2046
14819SOL    HW148913   9.871   0.941   5.463 -0.9236 -0.5224  0.4918
14819SOL    HW248914   9.995   0.889   5.393 -0.0056  0.8168  1.0768
14820SOL     OW48915   9.685   6.500   6.505  0.3119 -0.3502 -0.3718
14820SOL    HW148916   9.743   6.515   6.580  1.2403 -1.3007 -0.8708
14820SOL    HW248917   9.739   6.454   6.441 -0.9229 -1.0248 -0.9768
14821SOL     OW48918   7.970   0.917   4.575  0.2107 -0.2824 -0.4362
14821SOL    HW148919   7.987   0.869   4.657  2.3822 -1.1980 -1.3537
14821SOL    HW248920   8.006   0.860   4.507 -1.7869  0.3413 -2.0853
14822SOL     OW48921   3.478   9.507   9.780  0.0915 -0.4631  0.1783
14822SOL    HW148922   3.454   9.599   9.774  1.0141 -0.2000  0.4519
14822SOL    HW248923   3.570   9.507   9.804 -0.2462 -1.4421  1.6534
14823SOL     OW48924   5.390   2.892  10.351 -0.1152  0.4045 -0.5359
14823SOL    HW148925   5.400   2.861  10.441 -0.0029  0.6614 -0.4599
14823SOL    HW248926   5.305   2.934  10.349  0.1076  0.8607 -0.4154
14824SOL     OW48927   7.288   5.004  10.118  0.0327  0.3231  0.1256
14824SOL    HW148928   7.312   5.037  10.205  1.2072  1.0746 -0.4651
14824SOL    HW248929   7.264   5.083  10.069  0.9757  0.0992 -0.7145
14825SOL     OW48930   9.300   8.766   7.470  0.3958 -0.2152  0.2252
14825SOL    HW148931   9.299   8.734   7.560 -0.4029  0.2703  0.3945
14825SOL    HW248932   9.364   8.709   7.425  0.4079 -0.7987  0.9615
14826SOL     OW48933   8.248   6.950   6.859 -0.2782  0.3955 -0.3050
14826SOL    HW148934   8.237   7.004   6.781 -3.1225 -0.5940 -0.7283
14826SOL    HW248935   8.258   6.861   6.825  0.8186  0.2237  0.4358
14827SOL     OW48936   0.651   2.499   8.597  0.0327 -0.4923 -0.0227
14827SOL    HW148937   0.740   2.531   8.608  0.3589 -0.6938 -1.7645
14827SOL    HW248938   0.642   2.484   8.503 -1.3323 -1.9706  0.2940
14828SOL     OW48939  10.074   1.680   0.711  0.1736 -0.0779 -0.3853
14828SOL    HW148940  10.081   1.599   0.763  2.6587  0.3644  0.1048
14828SOL    HW248941  10.109   1.748   0.768 -1.1929  1.2466 -1.0699
14829SOL     OW48942   4.596   8.539   2.385 -0.3631 -0.4184 -0.0650
14829SOL    HW148943   4.510   8.580   2.396 -0.0270 -0.0903  1.6683
14829SOL    HW248944   4.580   8.445   2.398 -0.6594 -0.5103 -1.0566
14830SOL     OW48945   7.934   0.526   5.037  0.3006 -0.1084  0.2868
14830SOL    HW148946   8.010   0.579   5.014 -2.2709  3.0671 -1.8423
14830SOL    HW248947   7.927   0.532   5.132  2.1865  0.2447  0.4286
14831SOL     OW48948   6.959   5.810   5.929  0.0675 -0.0109  0.3128
14831SOL    HW148949   7.045   5.825   5.968  0.6149 -0.1799 -0.7897
14831SOL    HW248950   6.897   5.837   5.996  0.9588 -1.0880  1.6335
14832SOL     OW48951   8.678   9.086   2.756 -0.2522  0.0587 -0.6607
14832SOL    HW148952   8.685   9.178   2.779  0.8699 -0.1454 -0.0925
14832SOL    HW248953   8.724   9.040   2.827  0.3441 -0.8312 -1.5932
14833SOL     OW48954   8.458   9.868  10.541  0.1581  0.0458  0.0010
14833SOL    HW148955   8.469   9.956  10.577  2.3563  0.7129 -2.0374
14833SOL    HW248956   8.436   9.882  10.449  2.0553 -1.4276 -0.7644
14834SOL     OW48957   2.715   5.128   7.807  0.1583  0.4178 -0.1569
14834SOL    HW148958   2.624   5.157   7.799 -0.0642  0.4061  1.9046
14834SOL    HW248959   2.708   5.032   7.809  0.1440  0.4310  0.6042
14835SOL     OW48960  10.075   3.971   0.628  0.1186 -0.0962 -0.3324
14835SOL    HW148961  10.098   3.910   0.699  2.7241 -1.5861 -2.2795
14835SOL    HW248962  10.115   4.054   0.654 -1.0221  0.0810  1.0025
14836SOL     OW48963   7.794   2.263   9.007 -0.4725 -0.2863 -0.4925
14836SOL    HW148964   7.736   2.259   9.084 -1.1833  0.0842 -0.9964
14836SOL    HW248965   7.859   2.194   9.022 -1.5508 -1.2879 -0.3150
14837SOL     OW48966   3.933   1.706   2.607 -0.4053 -0.2069 -0.0134
14837SOL    HW148967   3.938   1.619   2.567 -0.2448 -0.2838  0.1695
14837SOL    HW248968   3.971   1.694   2.694 -1.0580 -0.1182  0.2905
14838SOL     OW48969   9.903   2.011   4.143 -0.2941  0.2922 -0.0283
14838SOL    HW148970   9.936   2.080   4.085 -2.5782 -0.7314 -2.7891
14838SOL    HW248971   9.887   2.055   4.226  1.6617  2.2226 -0.5802
14839SOL     OW48972   6.207   4.887   3.988 -0.7147 -0.2079 -0.1701
14839SOL    HW148973   6.300   4.864   3.987 -0.6280  0.0729  0.6316
14839SOL    HW248974   6.184   4.888   4.081 -0.7796  2.5641 -0.1332
14840SOL     OW48975   5.133   2.497  10.623 -0.4235  0.1212  0.4933
14840SOL    HW148976   5.197   2.434  10.654  1.0852  1.5347  0.3966
14840SOL    HW248977   5.095   2.534  10.702 -0.3027  0.0822  0.5693
14841SOL     OW48978   1.753   4.787   7.002  0.2920 -0.3537 -0.0627
14841SOL    HW148979   1.659   4.800   6.996  0.0849 -2.0929 -1.2157
14841SOL    HW248980   1.779   4.751   6.917  2.3366  1.7757 -0.4523
14842SOL     OW48981   0.055   0.220   8.677 -0.5856  0.6808  0.1480
14842SOL    HW148982   0.064   0.222   8.582  1.5121  2.3602  0.3104
14842SOL    HW248983  -0.039   0.217   8.692 -0.9603  0.2129 -1.9677
14843SOL     OW48984   2.907   8.290   3.930 -0.2843  0.2883 -0.3277
14843SOL    HW148985   2.981   8.336   3.969  0.2117 -0.6696 -0.0903
14843SOL    HW248986   2.944   8.242   3.856 -0.9055  0.7627 -0.9582
14844SOL     OW48987   0.861   5.767   5.478 -0.0543 -1.0404  0.2006
14844SOL    HW148988   0.916   5.831   5.433 -1.1018 -0.8317 -0.8153
14844SOL    HW248989   0.815   5.721   5.408 -2.0894 -0.3872  1.0548
14845SOL     OW48990  10.161   5.859  10.303 -0.1070  0.2633 -0.1948
14845SOL    HW148991  10.157   5.855  10.208  1.1392 -0.3652 -0.2423
14845SOL    HW248992  10.231   5.798  10.327 -1.6082 -0.9781  1.2522
14846SOL     OW48993   1.582   6.835   5.756 -1.0808  0.0311 -0.3035
14846SOL    HW148994   1.564   6.830   5.662 -1.2465  2.2204 -0.4385
14846SOL    HW248995   1.498   6.818   5.798 -1.5406  1.3535 -0.6512
14847SOL     OW48996   4.040   3.485   6.256  0.1210 -0.1066 -0.2391
14847SOL    HW148997   3.962   3.539   6.267  1.2762  1.7000 -0.4056
14847SOL    HW248998   4.036   3.422   6.327 -0.1033  1.7379  1.4908
14848SOL     OW48999   0.837   1.326   1.108 -0.1805 -0.3018  0.2806
14848SOL    HW149000   0.925   1.290   1.116  0.6294  1.2072 -1.3304
14848SOL    HW249001   0.846   1.419   1.130 -0.4812  0.8462 -3.7071
14849SOL     OW49002   3.109   7.955   0.208 -0.3812  0.0052 -0.1833
14849SOL    HW149003   3.160   7.927   0.132  0.9938  1.8688 -0.0239
14849SOL    HW249004   3.020   7.968   0.174  0.0037 -0.0609 -1.2604
14850SOL     OW49005   0.134   7.001   9.823  0.1857 -0.0209  0.1966
14850SOL    HW149006   0.201   6.945   9.860  0.5323  1.3782  1.7996
14850SOL    HW249007   0.162   7.015   9.732  1.4937 -0.3189  0.5338
14851SOL     OW49008   6.741   0.765   2.538  0.3593 -0.6192 -0.6451
14851SOL    HW149009   6.835   0.747   2.547  0.3785  0.0065  0.6319
14851SOL    HW249010   6.725   0.838   2.598 -0.9096 -0.5868 -0.9981
14852SOL     OW49011   5.908   2.909   9.083  0.0143 -0.6704  0.1330
14852SOL    HW149012   5.963   2.866   9.017  0.7510 -1.2781  1.1266
14852SOL    HW249013   5.912   2.851   9.159  0.2265  0.6663  1.1738
14853SOL     OW49014   8.092   5.798  10.296  0.1555 -0.0530 -0.4903
14853SOL    HW149015   8.145   5.723  10.270  0.4511 -0.0054 -0.0477
14853SOL    HW249016   8.113   5.866  10.232  1.5448  0.3560  0.3311
14854SOL     OW49017   9.752  10.298   7.046  0.0814  1.2359 -0.1322
14854SOL    HW149018   9.834  10.257   7.072 -0.8550 -0.0142  1.0195
14854SOL    HW249019   9.741  10.274   6.954  0.9458  1.3337 -0.2676
14855SOL     OW49020   3.420   4.069   8.442  0.3307  0.5378 -0.2694
14855SOL    HW149021   3.453   4.154   8.415 -0.4119  0.3228 -1.9992
14855SOL    HW249022   3.423   4.071   8.537  1.1750  2.1462 -0.3001
14856SOL     OW49023   3.451   2.685   3.968 -0.2066  0.0711 -0.0117
14856SOL    HW149024   3.546   2.698   3.975  0.0140 -1.3794 -0.0639
14856SOL    HW249025   3.438   2.646   3.882 -0.9165  0.6938 -0.1994
14857SOL     OW49026   9.883   9.240   5.196  0.3756 -0.2862 -0.1952
14857SOL    HW149027   9.812   9.223   5.258 -0.2117 -0.1348 -0.8159
14857SOL    HW249028   9.861   9.187   5.120  1.9714 -1.7935  0.3407
14858SOL     OW49029   4.891  10.631   3.782 -0.1374  0.2010 -0.1821
14858SOL    HW149030   4.958  10.691   3.814  0.0787  0.6602 -1.4447
14858SOL    HW249031   4.893  10.640   3.687 -2.1526  0.4232 -0.2646
14859SOL     OW49032   0.450   7.846   2.872  0.2151  0.4139  0.0865
14859SOL    HW149033   0.390   7.841   2.946  2.0573  3.0890  1.9243
14859SOL    HW249034   0.398   7.886   2.802 -1.3231 -1.4245  0.0858
14860SOL     OW49035   5.979   4.112   5.740 -0.3516  0.2339 -0.3377
14860SOL    HW149036   6.071   4.127   5.761 -0.0008  1.2680 -2.4060
14860SOL    HW249037   5.932   4.146   5.816  0.9330 -0.2745  0.7342
14861SOL     OW49038   7.037   0.449   9.297 -0.3486  0.1060 -0.0886
14861SOL    HW149039   7.033   0.531   9.247 -1.4588 -0.5373 -1.0993
14861SOL    HW249040   7.130   0.437   9.317 -0.3164  2.8848  2.2709
14862SOL     OW49041   0.768   6.866   9.587  0.3580 -0.6889 -0.1532
14862SOL    HW149042   0.836   6.931   9.575  0.3986 -0.9244 -1.2669
14862SOL    HW249043   0.809   6.783   9.563  0.2045 -1.0961  0.9213
14863SOL     OW49044  10.459   6.975   5.505  0.5380  0.1226  0.4969
14863SOL    HW149045  10.400   6.929   5.446  0.5582 -1.4247  1.6286
14863SOL    HW249046  10.529   7.008   5.449 -1.4792  2.3068 -0.9549
14864SOL     OW49047   8.882   4.357   7.872  0.4539  0.4110 -0.3220
14864SOL    HW149048   8.929   4.439   7.886  2.7062 -0.5891 -1.3998
14864SOL    HW249049   8.932   4.292   7.921  0.2066 -0.7103 -1.5015
14865SOL     OW49050   3.369   0.688   5.954  0.3014 -0.4773 -0.0576
14865SOL    HW149051   3.320   0.620   5.907  0.3362 -0.9625  0.5917
14865SOL    HW249052   3.321   0.769   5.936 -0.9903 -1.0030  0.8927
14866SOL     OW49053   6.973   7.852   0.913 -0.0986 -0.3872  0.2977
14866SOL    HW149054   7.055   7.849   0.962 -0.3778  0.2070  0.8050
14866SOL    HW249055   6.930   7.769   0.934  0.9579 -1.3312 -1.0326
14867SOL     OW49056   8.997  10.069   8.820  0.3621 -0.7580  0.1203
14867SOL    HW149057   8.991   9.976   8.841  0.5091 -0.5716  1.0430
14867SOL    HW249058   8.912  10.091   8.782 -0.9825 -0.5460  2.9977
14868SOL     OW49059   5.311   7.623   2.063 -0.2485  0.0228  0.6622
14868SOL    HW149060   5.271   7.681   2.128 -2.1191 -0.3345 -0.1013
14868SOL    HW249061   5.307   7.671   1.981 -1.0556 -0.8298  0.1809
14869SOL     OW49062   8.166   0.629  10.949  0.3473  0.1310  0.2403
14869SOL    HW149063   8.158   0.682  10.869 -1.3385  1.5076  1.2550
14869SOL    HW249064   8.259   0.635  10.972  0.4995  1.2999 -0.5936
14870SOL     OW49065   5.155   9.866   6.231 -0.4543  0.1954  0.2678
14870SOL    HW149066   5.161   9.935   6.296  2.4997  0.6996 -0.4176
14870SOL    HW249067   5.237   9.817   6.239 -1.7967 -2.3232 -0.3045
14871SOL     OW49068   3.651   2.243   4.894 -0.0927 -0.0339 -0.2109
14871SOL    HW149069   3.576   2.185   4.901 -0.6507  0.6970 -0.0327
14871SOL    HW249070   3.630   2.301   4.821  0.8853 -0.6585 -1.0070
14872SOL     OW49071   6.930   1.954   6.616  0.8403  0.6152 -0.0003
14872SOL    HW149072   6.921   1.890   6.687  2.5213  0.6644  0.2839
14872SOL    HW249073   6.843   1.994   6.610 -0.0050 -1.0522  0.4151
14873SOL     OW49074   3.736   2.063   1.930 -0.0254  0.3036 -0.6329
14873SOL    HW149075   3.734   2.027   1.841 -0.0048  0.2983 -0.6310
14873SOL    HW249076   3.752   1.988   1.987 -1.5233  0.0587 -0.4900
14874SOL     OW49077   8.549   9.956   1.078  0.3719  0.7944  0.9884
14874SOL    HW149078   8.530   9.866   1.053 -0.6501  1.2238  0.1102
14874SOL    HW249079   8.544   9.956   1.174  0.2390 -0.0445  0.9885
14875SOL     OW49080   4.499   0.731   2.961 -0.3352 -0.0982  0.6484
14875SOL    HW149081   4.417   0.741   3.010 -0.6138  0.1644  0.1343
14875SOL    HW249082   4.551   0.807   2.986 -1.2797  1.1459 -0.9901
14876SOL     OW49083   7.093   9.200   2.327  0.4889 -0.1929  0.0445
14876SOL    HW149084   7.046   9.237   2.252  2.4097 -0.4709 -1.3503
14876SOL    HW249085   7.103   9.108   2.305  1.2446 -0.2334  0.5554
14877SOL     OW49086   9.394   8.134   3.257 -0.3034  0.3910 -0.1481
14877SOL    HW149087   9.427   8.197   3.193 -1.6597 -0.8222 -2.1254
14877SOL    HW249088   9.399   8.050   3.213  0.3944 -0.7845  2.0327
14878SOL     OW49089  10.863   9.667   9.874  0.1045 -0.0142  0.2795
14878SOL    HW149090  10.880   9.589   9.823 -1.5894 -0.1470 -0.1536
14878SOL    HW249091  10.858   9.636   9.965  0.2943 -0.2667  0.2021
14879SOL     OW49092   6.041   2.439   9.246  0.3563 -0.3092  0.5116
14879SOL    HW149093   6.031   2.366   9.307  2.4760 -1.0312  0.1004
14879SOL    HW249094   6.109   2.409   9.185 -2.0296  0.1245 -2.6076
14880SOL     OW49095   8.646   4.533   3.961 -0.2038  0.3296  0.1069
14880SOL    HW149096   8.711   4.585   3.913  1.5772 -0.4009  1.6226
14880SOL    HW249097   8.565   4.584   3.954  0.3111  0.9625 -2.3762
14881SOL     OW49098   3.238   1.644   2.535  0.4749 -0.1344 -0.2137
14881SOL    HW149099   3.144   1.659   2.523  0.7287  3.0170  0.8892
14881SOL    HW249100   3.274   1.643   2.446 -0.3586  0.8665 -0.5844
14882SOL     OW49101   2.059   7.318   1.207  0.2165 -0.0648  0.3158
14882SOL    HW149102   2.016   7.398   1.176 -0.7943 -1.1300 -1.1493
14882SOL    HW249103   1.990   7.268   1.250  0.1871 -1.3485 -1.1727
14883SOL     OW49104   0.870   7.369   2.570 -0.4795 -0.3301 -0.3245
14883SOL    HW149105   0.847   7.433   2.503 -0.0554 -1.1398 -1.2694
14883SOL    HW249106   0.838   7.407   2.651 -1.9095  0.2115 -1.1099
14884SOL     OW49107  11.051   4.405   4.306 -0.2144  0.3941 -0.0651
14884SOL    HW149108  10.990   4.479   4.316  0.0771  0.5846  0.3911
14884SOL    HW249109  11.137   4.446   4.305 -0.0221  0.0342  0.6396
14885SOL     OW49110   0.080   1.762   0.559  0.0389  0.3489 -0.2090
14885SOL    HW149111   0.169   1.746   0.592  0.9767  3.7734 -0.6948
14885SOL    HW249112   0.025   1.764   0.638  1.3075  2.9377  0.7344
14886SOL     OW49113   5.590   4.486   1.828 -0.2271 -0.1594  0.4058
14886SOL    HW149114   5.618   4.498   1.738 -0.4569 -0.0797  0.3443
14886SOL    HW249115   5.498   4.512   1.829 -0.4773 -1.0050  0.4741
14887SOL     OW49116   5.688   4.621   9.848 -0.4574 -0.0291  0.1191
14887SOL    HW149117   5.655   4.559   9.914  0.0718 -1.2344 -0.7358
14887SOL    HW249118   5.782   4.622   9.861 -0.4746  0.7012  0.2067
14888SOL     OW49119   4.895   0.406   0.659  0.6012  0.1565  0.5209
14888SOL    HW149120   4.881   0.496   0.687  1.0928  0.4392 -0.1137
14888SOL    HW249121   4.964   0.412   0.593 -1.1376 -0.3533 -1.4508
14889SOL     OW49122   1.366   3.931   6.390  0.1870 -0.1723  0.4788
14889SOL    HW149123   1.439   3.892   6.342  1.6253  0.5551  1.9682
14889SOL    HW249124   1.311   3.857   6.416  0.7404 -0.7919 -0.0828
14890SOL     OW49125   4.275   2.931   5.885 -0.2281  0.0908 -0.1506
14890SOL    HW149126   4.197   2.920   5.830  0.4124 -1.1200 -0.8649
14890SOL    HW249127   4.342   2.877   5.843  0.4033 -0.5633  1.5881
14891SOL     OW49128  10.195   1.967   2.326 -0.1130  0.4354  0.2828
14891SOL    HW149129  10.123   1.921   2.367 -0.6516  0.8841 -0.1448
14891SOL    HW249130  10.232   1.904   2.263 -1.0914  0.7075 -0.5822
14892SOL     OW49131   7.947   3.051   6.683  0.6402 -0.3650 -0.0893
14892SOL    HW149132   7.871   3.104   6.707  0.5223  0.4619 -2.0340
14892SOL    HW249133   8.022   3.107   6.703  0.4700  1.6885 -4.1444
14893SOL     OW49134   7.943   2.300   4.704  0.4327 -0.1493  0.6102
14893SOL    HW149135   7.971   2.214   4.737 -0.5650 -1.0050 -0.7025
14893SOL    HW249136   7.876   2.280   4.639 -1.3008  1.7255  1.7314
14894SOL     OW49137   3.874   1.656   6.663  0.4334 -0.1498 -0.0912
14894SOL    HW149138   3.903   1.712   6.590 -2.3407 -0.4832 -1.5684
14894SOL    HW249139   3.913   1.697   6.741  2.1996  1.1518 -1.5660
14895SOL     OW49140   3.545   0.747   0.207  0.5466  0.2324  0.1945
14895SOL    HW149141   3.584   0.815   0.261  1.2199 -0.4844  0.6303
14895SOL    HW249142   3.615   0.720   0.148  1.5739 -2.6278  2.4480
14896SOL     OW49143   1.798   2.335  10.855  0.5629  0.0719  0.2241
14896SOL    HW149144   1.865   2.323  10.788  0.9158  0.1313  0.5615
14896SOL    HW249145   1.827   2.412  10.904 -0.9016  1.4872 -1.0096
14897SOL     OW49146   8.237   8.302   9.885 -0.1514  0.2656 -0.4914
14897SOL    HW149147   8.231   8.344   9.800  1.1637  1.3876 -0.0645
14897SOL    HW249148   8.147   8.274   9.905 -0.8629  1.8962 -1.2919
14898SOL     OW49149   6.421   9.263   8.449  0.2055 -0.0167  0.2014
14898SOL    HW149150   6.509   9.293   8.425 -0.4556  1.6415 -0.2989
14898SOL    HW249151   6.417   9.173   8.416  1.6414 -0.0610  0.0654
14899SOL     OW49152   2.088   7.206   8.820 -0.4174 -0.2142 -0.2993
14899SOL    HW149153   2.156   7.271   8.803 -0.1659 -0.0227  1.3271
14899SOL    HW249154   2.018   7.228   8.758  0.9106 -0.3298 -1.9089
14900SOL     OW49155   4.705   1.683   8.555 -0.0247 -0.0836 -0.0677
14900SOL    HW149156   4.635   1.619   8.558 -0.5942  0.5481  0.7172
14900SOL    HW249157   4.713   1.714   8.645  0.5502  0.5999 -0.3414
14901SOL     OW49158   8.779   4.118   9.503 -0.0423 -0.3767  0.1237
14901SOL    HW149159   8.771   4.194   9.561 -0.6681  1.1298 -1.8095
14901SOL    HW249160   8.694   4.074   9.509  0.1608 -0.6674  0.9042
14902SOL     OW49161   0.133   0.446  10.963  0.1326 -0.0740 -0.3847
14902SOL    HW149162   0.109   0.474  10.874  1.2929 -1.0091 -1.0106
14902SOL    HW249163   0.050   0.419  11.002 -1.1583  4.2109  0.3451
14903SOL     OW49164   9.898   3.947   5.620 -0.1206  0.1711  0.3121
14903SOL    HW149165   9.864   4.031   5.590  1.0673  0.2886 -0.8344
14903SOL    HW249166   9.914   3.960   5.713  1.1044  1.6398 -0.0495
14904SOL     OW49167   1.026   8.963   0.295  0.0307 -0.0900  0.0149
14904SOL    HW149168   1.094   8.995   0.236  2.1270 -0.3116  2.1539
14904SOL    HW249169   0.943   8.986   0.253  1.3911 -0.3932 -3.0235
14905SOL     OW49170   2.282   5.771   4.576 -0.0819  0.3358  0.7330
14905SOL    HW149171   2.190   5.793   4.585  0.0263  1.2195 -0.1140
14905SOL    HW249172   2.317   5.838   4.517  0.4380 -1.7419 -1.4494
14906SOL     OW49173   7.470   2.886   2.522 -0.5912  0.2334 -0.8620
14906SOL    HW149174   7.448   2.805   2.569 -1.5301  0.3311 -1.1205
14906SOL    HW249175   7.499   2.856   2.436  0.0648  0.1191 -0.6076
14907SOL     OW49176   4.925   4.151   4.902 -0.2837 -0.2737  0.5645
14907SOL    HW149177   4.975   4.070   4.915 -2.0748 -1.4762  0.3056
14907SOL    HW249178   4.895   4.146   4.812  0.4768  1.2513  0.1946
14908SOL     OW49179   7.633   5.697   5.010 -0.0523  0.0966  0.1997
14908SOL    HW149180   7.618   5.790   4.995 -0.3979  0.0848  0.4723
14908SOL    HW249181   7.627   5.657   4.923 -0.9556  0.1785  0.2240
14909SOL     OW49182   0.576  10.051   7.885  0.5000 -0.1076 -0.2540
14909SOL    HW149183   0.606  10.039   7.975 -0.9761 -0.9108  0.1637
14909SOL    HW249184   0.655  10.041   7.832  1.4187  0.5579  0.9519
14910SOL     OW49185   8.470   9.254   8.638  0.1414  0.3471 -0.1713
14910SOL    HW149186   8.461   9.329   8.579  0.8855  0.4605 -0.1503
14910SOL    HW249187   8.564   9.248   8.655  0.0130 -0.1416  0.4109
14911SOL     OW49188   5.946   6.560   7.284 -0.3097 -0.1104 -0.4565
14911SOL    HW149189   5.973   6.491   7.224 -0.2790 -0.6411  0.1624
14911SOL    HW249190   5.870   6.600   7.241  0.5079  0.4017 -1.4834
14912SOL     OW49191   8.874   3.254   7.034  0.2936 -0.0631  0.9462
14912SOL    HW149192   8.951   3.312   7.032 -0.2926  0.8045 -1.8583
14912SOL    HW249193   8.817   3.288   6.965 -0.6733 -3.2238  0.0057
14913SOL     OW49194   3.920   6.713  10.206  0.2567  0.2339  0.0485
14913SOL    HW149195   3.862   6.689  10.278 -0.7732 -1.0210 -1.1566
14913SOL    HW249196   3.888   6.798  10.176 -0.1000  0.1765  0.2639
14914SOL     OW49197   3.043   2.046   4.748 -0.9522 -0.1567 -0.1542
14914SOL    HW149198   3.031   2.040   4.843 -0.2324 -0.0157 -0.0424
14914SOL    HW249199   2.968   2.095   4.717 -0.3886  1.2200  0.5599
14915SOL     OW49200   6.825   0.159   8.150  0.3162 -0.5299 -1.0497
14915SOL    HW149201   6.856   0.170   8.240  1.1748 -0.4452 -1.3507
14915SOL    HW249202   6.846   0.068   8.129 -1.5550 -1.1260 -0.5494
14916SOL     OW49203   7.168   7.959   6.446 -0.6919  0.3678 -0.3254
14916SOL    HW149204   7.151   7.865   6.447  0.8406  0.0548 -0.6073
14916SOL    HW249205   7.231   7.973   6.517 -0.4244  1.0690 -0.6889
14917SOL     OW49206   0.578   5.351   6.805 -0.5083  0.0047  0.1034
14917SOL    HW149207   0.561   5.291   6.733  0.1422  1.4572 -1.3122
14917SOL    HW249208   0.520   5.426   6.790  0.8030  1.0717  0.1134
14918SOL     OW49209  10.712   4.144  10.581  0.1139 -0.4501 -0.0362
14918SOL    HW149210  10.625   4.125  10.615 -0.5548 -0.4281 -1.6308
14918SOL    HW249211  10.696   4.188  10.497  1.6605 -0.1905 -0.2318
14919SOL     OW49212   3.533   4.091   4.456  0.0474  1.1104  0.2943
14919SOL    HW149213   3.555   4.014   4.403 -1.5916 -1.1498  2.6255
14919SOL    HW249214   3.533   4.164   4.395 -0.9493 -1.1735 -2.6481
14920SOL     OW49215   0.055   0.834   3.658  0.5025 -0.3168 -1.6059
14920SOL    HW149216  -0.038   0.838   3.638  0.5241  1.2449 -1.4964
14920SOL    HW249217   0.095   0.797   3.580  0.2908  3.2264 -3.6056
14921SOL     OW49218   8.592   0.319   8.197  0.1462  0.3052  0.0011
14921SOL    HW149219   8.507   0.336   8.157  0.7409  0.0424 -1.4497
14921SOL    HW249220   8.602   0.389   8.262 -0.7412  0.9168 -0.4988
14922SOL     OW49221   1.463   0.172   8.041  0.0172  0.0216  0.1173
14922SOL    HW149222   1.376   0.157   8.077 -0.2377  0.3808 -0.3305
14922SOL    HW249223   1.506   0.087   8.045 -0.9400 -0.5583 -1.1815
14923SOL     OW49224   7.431   6.483   4.975  0.1033 -0.3246  0.0798
14923SOL    HW149225   7.347   6.529   4.962  0.2225 -0.2246 -0.3715
14923SOL    HW249226   7.453   6.499   5.067 -1.4508 -2.1843  0.8571
14924SOL     OW49227   0.039   9.327   3.871  0.1902  0.0432  0.1078
14924SOL    HW149228  -0.014   9.325   3.791 -1.2574 -1.2498  1.0396
14924SOL    HW249229   0.124   9.291   3.844  0.5698  1.8496 -1.3451
14925SOL     OW49230   6.626   9.556  10.688  0.0925  0.2926  0.0290
14925SOL    HW149231   6.561   9.563  10.617 -0.0251 -1.6125 -0.1170
14925SOL    HW249232   6.582   9.592  10.765 -0.4401  0.7491 -0.4783
14926SOL     OW49233   9.309  10.831  10.781 -0.8117 -0.0089 -0.5049
14926SOL    HW149234   9.262  10.752  10.806 -0.0126  0.2988  2.2527
14926SOL    HW249235   9.329  10.819  10.688 -1.3673 -2.6637 -0.3487
14927SOL     OW49236  10.181   6.121  10.073 -0.1819  0.4884 -0.0865
14927SOL    HW149237  10.264   6.108  10.027 -0.2712 -2.4352  0.3892
14927SOL    HW249238  10.114   6.099  10.009 -0.5678  1.6691 -0.1111
14928SOL     OW49239   4.653  11.011   9.990 -0.1879 -0.0435 -0.1097
14928SOL    HW149240   4.567  10.972  10.005  1.0666 -2.1544  2.6229
14928SOL    HW249241   4.683  10.973   9.908 -0.6230 -1.8067  0.5083
14929SOL     OW49242   5.266   4.364   3.994  0.5992  0.1914 -0.3055
14929SOL    HW149243   5.345   4.377   4.046 -0.4593  2.0810  0.9117
14929SOL    HW249244   5.249   4.449   3.953 -2.7353  1.0402  2.3453
14930SOL     OW49245   2.531   2.448   5.517  0.0917 -0.0526  1.3214
14930SOL    HW149246   2.591   2.388   5.561  5.1505  3.0606 -0.4323
14930SOL    HW249247   2.546   2.532   5.561  1.6677  2.1189 -2.8901
14931SOL     OW49248   3.110   2.179   2.383 -0.3513 -0.1411  0.3336
14931SOL    HW149249   3.158   2.218   2.456 -0.0050 -1.1537  0.6535
14931SOL    HW249250   3.020   2.171   2.416 -0.1486 -0.8054  0.7393
14932SOL     OW49251  10.853   1.085   2.042 -0.2275 -0.2278  0.2569
14932SOL    HW149252  10.811   1.136   1.973 -0.8991  0.8698  1.4290
14932SOL    HW249253  10.802   1.004   2.046 -3.3184  1.6082  2.5613
14933SOL     OW49254   7.379   8.031   3.161 -0.0296 -0.0967  0.1871
14933SOL    HW149255   7.296   8.011   3.205 -0.9915 -0.2719 -1.6410
14933SOL    HW249256   7.361   8.109   3.109  0.4187 -1.1381 -1.5999
14934SOL     OW49257   1.949   7.534   9.806 -0.4105 -0.6933 -0.3774
14934SOL    HW149258   1.891   7.504   9.735 -0.3821 -0.1918 -0.6116
14934SOL    HW249259   2.035   7.542   9.765 -0.9796  2.8042 -1.1828
14935SOL     OW49260   1.653   3.388   0.678 -0.0394 -0.0386 -0.3779
14935SOL    HW149261   1.662   3.342   0.594  1.0490  1.5222 -1.1596
14935SOL    HW249262   1.587   3.337   0.726  0.2830 -1.7250 -1.6384
14936SOL     OW49263   2.782  10.110  10.498 -0.2845  0.2238  0.9226
14936SOL    HW149264   2.713  10.148  10.442 -0.4875  2.8724  2.7942
14936SOL    HW249265   2.737  10.089  10.580  0.8943  0.8677  1.7541
14937SOL     OW49266   4.745   9.679   0.492 -0.3330  0.0482  0.5162
14937SOL    HW149267   4.675   9.616   0.506 -0.7216  0.3538 -0.0064
14937SOL    HW249268   4.772   9.706   0.580 -0.7836 -0.1707  0.7215
14938SOL     OW49269  10.191   3.983   7.913 -0.1771  0.1575 -0.0827
14938SOL    HW149270  10.264   4.021   7.864 -0.1669 -2.4508 -2.3296
14938SOL    HW249271  10.233   3.940   7.988  0.5071 -0.4984 -0.8227
14939SOL     OW49272   6.738   4.101   3.107  0.5381  0.3634  0.0358
14939SOL    HW149273   6.819   4.097   3.158  0.1260  0.6386  0.7166
14939SOL    HW249274   6.674   4.142   3.165  0.2378  1.3381 -0.9276
14940SOL     OW49275   3.704   3.547   3.311  0.4019 -0.0431  0.1665
14940SOL    HW149276   3.755   3.602   3.252  0.5748  0.1987  0.5440
14940SOL    HW249277   3.717   3.458   3.277 -0.3382  0.1916 -0.7836
14941SOL     OW49278   2.196   4.419   5.753  0.3403  0.6051  0.1532
14941SOL    HW149279   2.267   4.459   5.703  0.8884 -0.1401  0.3194
14941SOL    HW249280   2.171   4.343   5.701 -0.1677  0.7239  0.2245
14942SOL     OW49281   2.071   2.459   0.558  0.0145 -0.7592 -0.7744
14942SOL    HW149282   1.991   2.417   0.526 -0.5153  0.9233 -1.7744
14942SOL    HW249283   2.108   2.502   0.482  0.5856  0.4848  0.1608
14943SOL     OW49284   0.524   3.176   0.639  0.1188  0.2671  0.2144
14943SOL    HW149285   0.511   3.234   0.564 -0.1025  0.4191  0.3696
14943SOL    HW249286   0.519   3.234   0.715  0.9018  0.2002  0.3207
14944SOL     OW49287   7.324   9.434  10.804 -0.5455  0.1709  0.1844
14944SOL    HW149288   7.302   9.341  10.798 -1.6078  0.4186 -0.0460
14944SOL    HW249289   7.350   9.446  10.896  2.7586 -0.9533 -0.4650
14945SOL     OW49290   9.560   8.212   4.095 -0.6332 -0.1021 -0.2129
14945SOL    HW149291   9.518   8.279   4.041  0.7010  1.7811  1.0045
14945SOL    HW249292   9.533   8.129   4.054  0.1433  1.1855 -3.6576
14946SOL     OW49293   1.749   1.323   4.441  0.0325  0.1380 -0.9430
14946SOL    HW149294   1.782   1.412   4.446 -0.4580  0.2795  0.1577
14946SOL    HW249295   1.727   1.310   4.349  0.9399  0.8347 -1.2682
14947SOL     OW49296   8.873   6.415   3.753 -0.3265 -0.0295 -0.5035
14947SOL    HW149297   8.878   6.335   3.806 -1.6358  0.8485  1.0520
14947SOL    HW249298   8.876   6.486   3.817 -0.0259  1.1573 -1.7866
14948SOL     OW49299   9.989   6.715   0.786 -0.1262  0.5686  0.2495
14948SOL    HW149300   9.958   6.673   0.706 -0.3278  1.0022  0.0970
14948SOL    HW249301  10.081   6.688   0.794 -0.0785  0.6063 -0.1774
14949SOL     OW49302   4.447  10.580  10.062 -0.9647 -0.2629  0.2819
14949SOL    HW149303   4.445  10.668  10.024 -2.5676 -1.0032 -1.4889
14949SOL    HW249304   4.442  10.595  10.156  3.0117  1.6520  0.4282
14950SOL     OW49305  10.360  10.316   1.707  0.2302  0.4839  0.0927
14950SOL    HW149306  10.318  10.400   1.724 -0.3145 -0.2425  2.6347
14950SOL    HW249307  10.296  10.268   1.654 -0.4075  0.8522  0.5201
14951SOL     OW49308   3.284   1.207   0.347 -0.4237  0.3183  0.6411
14951SOL    HW149309   3.199   1.169   0.323 -0.0490  0.6868 -1.3693
14951SOL    HW249310   3.291   1.287   0.294  2.0402 -0.7523 -0.7927
14952SOL     OW49311   2.068   2.733   7.579 -0.0772 -0.0578 -0.8294
14952SOL    HW149312   2.127   2.750   7.652 -0.4666 -0.4771 -0.4117
14952SOL    HW249313   2.061   2.638   7.575 -1.0704 -0.0091 -0.5832
14953SOL     OW49314   2.785   8.507   6.354 -0.3877  0.0033 -0.4773
14953SOL    HW149315   2.844   8.549   6.291 -3.9120  2.6861 -2.3981
14953SOL    HW249316   2.798   8.413   6.341  0.6755  0.4762 -3.6018
14954SOL     OW49317   6.078   1.039   9.563 -0.0244 -0.1164 -0.0123
14954SOL    HW149318   6.143   1.029   9.632  0.4833  0.2828 -0.4198
14954SOL    HW249319   6.015   0.969   9.578  0.3511 -0.3354  0.5557
14955SOL     OW49320   3.677   7.347   0.441  0.5478  0.3283 -0.3410
14955SOL    HW149321   3.686   7.253   0.458 -0.7456  0.4553  1.3128
14955SOL    HW249322   3.699   7.388   0.525  1.4143  1.5492 -1.1309
14956SOL     OW49323   6.531   3.270   5.871  0.0509  0.2500  0.3141
14956SOL    HW149324   6.589   3.300   5.941 -0.2714  1.4521  0.0835
14956SOL    HW249325   6.450   3.318   5.885 -0.1678  0.1604 -0.6162
14957SOL     OW49326  10.939   1.828   4.661  0.4218 -0.5186  0.0636
14957SOL    HW149327  10.996   1.763   4.620  2.4199  1.8007 -1.0972
14957SOL    HW249328  10.961   1.823   4.754 -0.1668 -2.0950  0.1576
14958SOL     OW49329   6.733   2.573   6.520  0.5500  0.1089  0.4949
14958SOL    HW149330   6.751   2.562   6.613 -1.4788 -3.2951  0.6715
14958SOL    HW249331   6.803   2.525   6.476  1.0292  0.9842  0.2893
14959SOL     OW49332   6.934   9.567   8.707  0.1946 -0.1060 -0.1995
14959SOL    HW149333   6.970   9.618   8.780 -1.1467  1.6024 -0.6480
14959SOL    HW249334   7.010   9.543   8.655  0.8958  1.8329 -0.1673
14960SOL     OW49335  10.259   4.848   0.007 -0.1243  0.9019  0.1982
14960SOL    HW149336  10.224   4.832   0.095 -0.3179 -0.8037 -0.1514
14960SOL    HW249337  10.182   4.843  -0.050  0.3244 -0.5344 -0.3201
14961SOL     OW49338   6.432   4.885   3.534  0.3446 -0.0194 -0.2574
14961SOL    HW149339   6.442   4.980   3.528 -1.5033  0.1647 -1.0004
14961SOL    HW249340   6.487   4.851   3.464 -0.0073  0.5870 -0.8399
14962SOL     OW49341   1.123   5.329   8.588 -0.0168  0.1229 -0.1524
14962SOL    HW149342   1.143   5.252   8.641  4.2772 -0.3123 -2.0062
14962SOL    HW249343   1.126   5.297   8.497 -1.4609  1.8784 -0.8726
14963SOL     OW49344   6.364  10.154   5.208  0.3861  0.0184 -0.0539
14963SOL    HW149345   6.420  10.110   5.144  1.4842  2.9077 -1.2348
14963SOL    HW249346   6.291  10.189   5.156 -1.2032 -1.4148  1.0675
14964SOL     OW49347   4.499   5.237   2.835  0.3271  0.6030  0.5213
14964SOL    HW149348   4.451   5.281   2.764  1.0864  0.8348  0.1392
14964SOL    HW249349   4.527   5.308   2.892  1.4503  0.6274 -0.0291
14965SOL     OW49350   3.490   6.345   5.655  0.0752  0.2121  0.4108
14965SOL    HW149351   3.478   6.422   5.599 -0.5584 -1.1616 -1.4735
14965SOL    HW249352   3.514   6.275   5.594  1.3175 -0.9518  2.1378
14966SOL     OW49353   9.988   2.244   5.664  0.2455  0.2256  0.7117
14966SOL    HW149354  10.009   2.225   5.572 -0.3696  0.4773  0.5128
14966SOL    HW249355   9.901   2.205   5.677  0.7191 -0.6292  1.4624
14967SOL     OW49356   6.144   4.693   9.654  0.0614 -0.3677  0.0185
14967SOL    HW149357   6.123   4.602   9.674 -0.5097 -0.8166 -2.3018
14967SOL    HW249358   6.064   4.741   9.673 -0.2540 -0.6741 -0.5040
14968SOL     OW49359   1.947   6.505   5.572  0.6922 -0.1369  0.2902
14968SOL    HW149360   1.962   6.472   5.483  0.3409  0.0423  0.1617
14968SOL    HW249361   1.862   6.548   5.567  1.1739  0.8509  0.4408
14969SOL     OW49362   3.833   2.864   1.702 -0.5537  0.0768  0.3928
14969SOL    HW149363   3.775   2.914   1.644  0.3871  0.8093  0.0500
14969SOL    HW249364   3.883   2.808   1.642  1.0573  1.4732  0.3340
14970SOL     OW49365   2.665   6.169   7.712  0.3811 -0.0816 -0.0224
14970SOL    HW149366   2.622   6.238   7.762  1.3135  0.2109  0.3819
14970SOL    HW249367   2.610   6.092   7.726  0.0883  0.2401  0.6404
14971SOL     OW49368   4.952   1.315   7.627  0.2942 -0.9315 -0.1331
14971SOL    HW149369   5.031   1.276   7.589  1.1735 -0.4615  1.1534
14971SOL    HW249370   4.982   1.397   7.666 -1.0002 -0.3359 -0.3476
14972SOL     OW49371  10.042   5.271   6.846 -0.1154  0.5630  0.1699
14972SOL    HW149372  10.070   5.329   6.774  1.0013 -0.4343 -0.2341
14972SOL    HW249373   9.959   5.234   6.816  0.9467 -0.8198 -1.2398
14973SOL     OW49374   2.950   0.624   9.520 -0.0828 -0.2037 -0.6634
14973SOL    HW149375   2.885   0.622   9.450 -0.1168 -1.9411 -0.6313
14973SOL    HW249376   2.996   0.707   9.509 -1.8625  0.7685 -1.0893
14974SOL     OW49377  10.737   4.051   1.726  0.1252  1.0614  0.3197
14974SOL    HW149378  10.649   4.027   1.697  0.8681 -0.4836 -0.8562
14974SOL    HW249379  10.728   4.140   1.760 -1.8086  1.0728 -0.0926
14975SOL     OW49380   7.737   1.326   2.698 -0.0747  0.2182  0.6273
14975SOL    HW149381   7.773   1.263   2.760 -0.7939 -1.2420 -0.3907
14975SOL    HW249382   7.680   1.274   2.641  0.9026  1.4071 -1.5396
14976SOL     OW49383  10.409   4.257   3.736  0.1120 -0.1815  0.2019
14976SOL    HW149384  10.470   4.324   3.703 -1.2570  1.0450  0.0388
14976SOL    HW249385  10.440   4.238   3.824  0.6097  0.5956  0.2090
14977SOL     OW49386   1.005   6.463   2.243 -0.0971 -0.6169  0.4807
14977SOL    HW149387   1.068   6.508   2.187  0.2319 -0.6937  0.7878
14977SOL    HW249388   1.058   6.419   2.310 -0.3829 -1.6855  0.0393
14978SOL     OW49389   6.336   7.675   7.549  0.0970 -0.3159 -0.0526
14978SOL    HW149390   6.398   7.695   7.619 -2.0179  0.4146  1.7555
14978SOL    HW249391   6.311   7.761   7.514  1.6256 -0.6937 -2.2860
14979SOL     OW49392   0.649   9.406   1.866 -0.4230  0.3702 -0.4991
14979SOL    HW149393   0.730   9.426   1.820 -0.9548 -1.3113 -2.3032
14979SOL    HW249394   0.674   9.339   1.930 -0.2525  0.3753 -0.5604
14980SOL     OW49395   4.144   0.125   5.919  0.1597  0.2838  0.1677
14980SOL    HW149396   4.092   0.047   5.899  0.2076  0.4206 -0.5137
14980SOL    HW249397   4.101   0.196   5.870  0.5166  0.5541  0.2400
14981SOL     OW49398   8.845   6.146   5.244 -0.3480  0.1243 -0.2241
14981SOL    HW149399   8.816   6.193   5.165  0.8562 -0.2522 -0.9123
14981SOL    HW249400   8.843   6.054   5.219  0.5271  0.0350  0.0059
14982SOL     OW49401   7.063   7.459   6.279 -0.2583  0.0557 -0.1220
14982SOL    HW149402   7.110   7.398   6.336 -0.0417 -0.7770 -1.1591
14982SOL    HW249403   7.004   7.404   6.227 -0.4461  0.7862 -0.7038
14983SOL     OW49404   7.308   1.111   6.148  0.1832  0.3334 -0.4362
14983SOL    HW149405   7.335   1.138   6.060 -1.2805 -1.2435 -1.4347
14983SOL    HW249406   7.214   1.094   6.140 -0.3535  1.8071  1.8903
14984SOL     OW49407   6.369   2.628   0.131  0.2387 -0.3916 -0.4033
14984SOL    HW149408   6.462   2.650   0.132  0.2909 -0.5869 -0.7608
14984SOL    HW249409   6.364   2.540   0.168  0.1385 -0.1805  0.0934
14985SOL     OW49410   8.110   1.528   2.028  0.1980  0.4855 -0.0673
14985SOL    HW149411   8.157   1.532   1.944 -0.0403 -2.1875 -0.3897
14985SOL    HW249412   8.037   1.589   2.016  2.2107  3.0475 -0.3531
14986SOL     OW49413   7.588   4.208  10.205 -0.1099 -0.5972  0.1353
14986SOL    HW149414   7.545   4.273  10.261  0.2275 -0.8265  0.6725
14986SOL    HW249415   7.517   4.162  10.162 -0.3659 -0.2145  0.1465
14987SOL     OW49416   4.879   9.074   2.573  0.5454 -0.1331 -0.4258
14987SOL    HW149417   4.914   9.162   2.588  0.8222 -0.1417 -0.9655
14987SOL    HW249418   4.790   9.076   2.609  0.3328  0.5516 -0.9687
14988SOL     OW49419   1.188   2.631   4.240  0.2480  0.1393 -0.1285
14988SOL    HW149420   1.211   2.677   4.159 -0.0521  0.0098 -0.2861
14988SOL    HW249421   1.105   2.671   4.268 -2.5987 -3.3580 -2.7331
14989SOL     OW49422   8.137   0.021   1.584  0.2900  0.4536  0.6174
14989SOL    HW149423   8.150   0.077   1.508  2.1586 -4.1809 -3.0172
14989SOL    HW249424   8.043   0.002   1.584  0.3544 -0.0990 -1.2373
14990SOL     OW49425   2.649   2.308   8.848 -0.9488 -0.2949 -0.3296
14990SOL    HW149426   2.577   2.339   8.904 -0.1143  3.5761 -1.1265
14990SOL    HW249427   2.606   2.280   8.767 -1.7198 -0.1924  0.0332
14991SOL     OW49428   5.284   5.827   0.105 -0.1531 -0.0700  0.5310
14991SOL    HW149429   5.311   5.742   0.070  2.1554  0.0445  1.8063
14991SOL    HW249430   5.341   5.841   0.181 -0.3727  2.6778  0.3018
14992SOL     OW49431   3.793   7.528   6.665  0.6469 -0.2126 -0.4230
14992SOL    HW149432   3.718   7.580   6.694 -0.2887 -1.5063 -0.4352
14992SOL    HW249433   3.809   7.468   6.738  0.9418 -0.7004 -0.8916
14993SOL     OW49434   4.226   0.310   0.977  0.1193  0.7160  0.2011
14993SOL    HW149435   4.150   0.252   0.971  1.0135 -0.6635  1.4994
14993SOL    HW249436   4.269   0.303   0.892  0.1973 -0.5330  0.3252
14994SOL     OW49437   8.199   0.224   5.026  0.0503  0.4985  0.4605
14994SOL    HW149438   8.168   0.283   4.957  1.6015  1.0175  0.1784
14994SOL    HW249439   8.292   0.211   5.008  0.6902  1.2325  2.8366
14995SOL     OW49440  10.376   5.936   0.115 -0.0116  1.4184 -0.1925
14995SOL    HW149441  10.424   5.901   0.039 -1.9382 -1.5862 -0.1942
14995SOL    HW249442  10.307   5.990   0.078  0.8669  2.4651 -0.3663
14996SOL     OW49443   6.874   8.703   4.084  0.3857 -0.1497  0.0055
14996SOL    HW149444   6.865   8.786   4.038  0.8322 -0.9849 -1.6385
14996SOL    HW249445   6.855   8.725   4.176 -3.8365  1.0077 -0.9180
14997SOL     OW49446   0.158  10.910   0.191 -0.2234 -0.4141 -0.2468
14997SOL    HW149447   0.122  10.858   0.264 -1.2973  1.3066  0.5309
14997SOL    HW249448   0.086  10.914   0.128  0.5681 -1.5499 -1.2627
14998SOL     OW49449   4.080   2.665   9.470 -0.8353  0.1182  0.0350
14998SOL    HW149450   4.111   2.601   9.406  0.6647 -0.0247  0.8539
14998SOL    HW249451   4.080   2.748   9.424  1.4651  0.2323  0.1644
14999SOL     OW49452   9.139   3.890   0.586 -0.0960 -0.6867 -0.7066
14999SOL    HW149453   9.217   3.836   0.597 -1.0643 -2.2532 -1.2040
14999SOL    HW249454   9.152   3.936   0.503  0.4574 -0.6538 -0.6025
15000SOL     OW49455   0.076   2.030   5.126  1.2732  0.4530 -0.1772
15000SOL    HW149456   0.026   2.110   5.145 -2.1088 -0.9301 -2.2754
15000SOL    HW249457   0.067   1.977   5.205  1.5503  1.2035  0.3691
15001SOL     OW49458   7.795   5.768   9.760  0.0606  0.4170 -0.2715
15001SOL    HW149459   7.857   5.784   9.688  0.1292  0.9103 -0.1067
15001SOL    HW249460   7.715   5.812   9.733  0.1798  0.8586  0.0863
15002SOL     OW49461  10.333   5.187   9.804 -0.4600 -0.1548  0.4570
15002SOL    HW149462  10.330   5.104   9.757 -0.6193  0.2268 -0.2175
15002SOL    HW249463  10.254   5.234   9.777 -0.3730  0.2196  0.8294
15003SOL     OW49464   9.695   6.623   3.995 -0.0432 -0.2740  0.5029
15003SOL    HW149465   9.697   6.531   4.019 -1.4547 -1.0446 -1.9593
15003SOL    HW249466   9.604   6.650   4.006  0.1383  0.5207  0.1616
15004SOL     OW49467  10.913   1.316   0.910  0.2831 -0.2491  0.1623
15004SOL    HW149468  10.905   1.349   0.999  0.1995 -2.6146  1.0902
15004SOL    HW249469  10.832   1.268   0.894  0.6659 -0.5841 -0.8938
15005SOL     OW49470   9.553   5.049   6.679 -0.7749 -0.1578  0.2993
15005SOL    HW149471   9.553   5.016   6.769 -0.0985 -1.3123 -0.0998
15005SOL    HW249472   9.523   5.140   6.686  0.6122  0.2277  1.8716
15006SOL     OW49473   8.994   7.077  10.832 -0.3153  0.0271 -0.0622
15006SOL    HW149474   8.999   7.163  10.873 -0.7883  0.4405 -0.8387
15006SOL    HW249475   9.063   7.078  10.766 -0.1394 -0.2918  0.1186
15007SOL     OW49476   4.513   7.607   2.463 -0.0141  0.1200 -0.7143
15007SOL    HW149477   4.545   7.627   2.551 -2.7423 -0.6655  0.5517
15007SOL    HW249478   4.566   7.532   2.436  1.0562  0.5417  0.1052
15008SOL     OW49479   4.704   7.891   9.025 -0.0785 -0.1858 -0.1697
15008SOL    HW149480   4.650   7.963   9.058 -0.4051 -0.7620  0.5862
15008SOL    HW249481   4.794   7.918   9.044 -0.2851 -0.8378  1.9942
15009SOL     OW49482   8.796   4.274   1.352  0.0572  0.3557  0.7273
15009SOL    HW149483   8.879   4.283   1.305 -0.1273 -1.6244 -0.0487
15009SOL    HW249484   8.766   4.186   1.332 -2.3095  1.0582  0.9263
15010SOL     OW49485   2.594   7.885   6.529  0.1461 -0.5681  0.3271
15010SOL    HW149486   2.550   7.969   6.533  1.8632  0.3369  1.4725
15010SOL    HW249487   2.535   7.829   6.477 -0.9455  1.3536 -0.6107
15011SOL     OW49488   9.079  10.603   0.443 -0.7011 -0.2605 -0.5256
15011SOL    HW149489   9.062  10.590   0.536 -1.5198 -0.9815 -0.7535
15011SOL    HW249490   9.006  10.658   0.414 -0.1646  0.3945 -0.6406
15012SOL     OW49491   4.694  10.421   9.965  0.5452  0.5404 -0.1617
15012SOL    HW149492   4.749  10.397  10.040  0.0522  0.0828  0.0604
15012SOL    HW249493   4.632  10.484  10.000  0.3174  0.3295 -0.1840
15013SOL     OW49494   4.567   6.092   0.073  0.0828 -0.1340  0.0577
15013SOL    HW149495   4.512   6.138   0.136 -0.3634 -0.1569 -0.3066
15013SOL    HW249496   4.650   6.078   0.118 -0.9356 -2.1580  1.4837
15014SOL     OW49497   6.701   3.961   8.343 -0.2319  0.0434  0.1521
15014SOL    HW149498   6.773   4.008   8.387  0.1691  0.6839 -1.1313
15014SOL    HW249499   6.631   4.026   8.336 -0.2898 -0.0524 -0.1567
15015SOL     OW49500   7.890   4.434   6.700 -0.2714 -0.2445  0.1195
15015SOL    HW149501   7.938   4.412   6.781 -0.8131 -1.0173  0.2441
15015SOL    HW249502   7.949   4.407   6.630  0.3254  0.6996  0.2477
15016SOL     OW49503   6.458  10.169   1.043  0.2481 -0.7360  0.0640
15016SOL    HW149504   6.527  10.134   1.099  0.3952  0.5262  0.7090
15016SOL    HW249505   6.392  10.202   1.104  0.0238 -0.0730 -0.5241
15017SOL     OW49506   2.482   2.046   9.384  0.6188  0.5629 -0.5358
15017SOL    HW149507   2.574   2.022   9.385  0.1649 -1.3530  1.0876
15017SOL    HW249508   2.467   2.085   9.470 -0.0966  0.8569 -0.7851
15018SOL     OW49509   3.269   9.132   8.917 -0.4380 -0.0112  0.1326
15018SOL    HW149510   3.332   9.076   8.872 -1.8508 -1.1637 -0.4909
15018SOL    HW249511   3.219   9.072   8.973 -0.3216  1.0322  1.3876
15019SOL     OW49512   7.198   7.375   9.987 -0.2346 -0.1837 -0.2417
15019SOL    HW149513   7.142   7.347   9.915  0.3175 -1.7954 -0.0944
15019SOL    HW249514   7.176   7.467  10.001 -0.4691  0.1390 -2.3597
15020SOL     OW49515   3.998   6.872   5.501 -0.4715 -0.3987 -0.0002
15020SOL    HW149516   4.064   6.929   5.539  1.2626 -2.5341  0.4465
15020SOL    HW249517   4.011   6.788   5.545 -3.8458 -0.8332  0.4319
15021SOL     OW49518   2.595   2.014   4.966 -0.6126  0.2592 -0.2096
15021SOL    HW149519   2.601   2.032   4.872 -1.0906 -1.7192 -0.6666
15021SOL    HW249520   2.658   1.944   4.981 -1.3474 -0.2222  0.7118
15022SOL     OW49521   9.886   4.619  10.031  0.0600 -0.1256  0.4123
15022SOL    HW149522   9.867   4.705  10.069 -0.6306 -0.0822 -0.0174
15022SOL    HW249523   9.973   4.598  10.064  0.9434  1.4577 -0.7627
15023SOL     OW49524   6.505   9.476   2.824  0.5306  0.0185  0.7864
15023SOL    HW149525   6.589   9.478   2.869  1.0344 -1.8879  0.0238
15023SOL    HW249526   6.440   9.480   2.895  1.3003 -2.2431  1.7250
15024SOL     OW49527   6.962   3.548  10.662 -0.2972 -0.5941  0.3556
15024SOL    HW149528   6.993   3.467  10.702  1.1731  0.4001  1.3157
15024SOL    HW249529   7.026   3.566  10.592 -0.2022  0.0992  0.6166
15025SOL     OW49530  10.056   9.233  10.096  0.1891 -0.1392 -0.3299
15025SOL    HW149531   9.967   9.197  10.102  0.4738 -0.6385  2.6579
15025SOL    HW249532  10.113   9.157  10.104  0.8892  0.3354 -0.7540
15026SOL     OW49533  11.005   9.458   5.998 -0.2304  0.4570  0.1574
15026SOL    HW149534  11.099   9.456   6.015 -0.3459 -0.1278  0.7872
15026SOL    HW249535  10.993   9.528   5.934  0.7078  0.1224 -0.3934
15027SOL     OW49536   2.963   9.406   2.415  0.1261 -0.3115  0.1206
15027SOL    HW149537   2.883   9.455   2.393 -0.9380 -0.9235  2.3260
15027SOL    HW249538   3.034   9.456   2.375 -0.9168  2.8614  1.9200
15028SOL     OW49539   6.932   0.616   5.760 -0.2529  0.1719 -0.3476
15028SOL    HW149540   6.918   0.559   5.684 -0.5918 -0.9746  0.5522
15028SOL    HW249541   6.846   0.623   5.801  0.2636 -0.8291  1.0069
15029SOL     OW49542   0.909   2.848  10.646  0.2860 -0.1752  0.2444
15029SOL    HW149543   0.895   2.753  10.652  1.5591 -0.4330 -0.6282
15029SOL    HW249544   1.001   2.860  10.669  0.3858  0.7440 -0.6191
15030SOL     OW49545   8.024  10.016   3.566  0.1004 -0.6920  0.3075
15030SOL    HW149546   8.028   9.923   3.591  0.9054 -1.0449 -1.0547
15030SOL    HW249547   8.086  10.058   3.625  1.2813 -1.3697 -0.4075
15031SOL     OW49548   0.958   5.409   2.323  0.2185 -0.6386  0.6888
15031SOL    HW149549   0.963   5.313   2.325  2.1575 -0.6729 -1.4215
15031SOL    HW249550   0.917   5.429   2.239 -1.8109  0.4373  1.8581
15032SOL     OW49551   2.353   3.277  10.665 -0.1509  0.0187  0.3350
15032SOL    HW149552   2.315   3.197  10.628  0.7528 -0.6675  0.8479
15032SOL    HW249553   2.395   3.320  10.591 -0.9921  0.2339 -0.0240
15033SOL     OW49554   8.650   8.861   0.607  0.3968  0.4410  0.5764
15033SOL    HW149555   8.730   8.885   0.652  0.6139 -0.0356  0.4552
15033SOL    HW249556   8.629   8.773   0.639  0.2019  0.3593  0.2375
15034SOL     OW49557   6.980   3.231   9.838 -0.0890  0.1488  0.2668
15034SOL    HW149558   6.908   3.177   9.804  0.3602 -0.7590  0.7274
15034SOL    HW249559   7.008   3.186   9.918  2.2046 -0.5697 -0.8648
15035SOL     OW49560   1.515   9.140   9.922  0.1286  0.1752  0.0708
15035SOL    HW149561   1.537   9.050   9.898 -1.2215 -0.3696  0.7682
15035SOL    HW249562   1.431   9.132   9.969 -0.8640  1.9548 -1.2796
15036SOL     OW49563   3.559   4.721   3.789 -0.3754  0.2979 -0.2644
15036SOL    HW149564   3.585   4.806   3.827 -0.4152 -0.2733  1.0968
15036SOL    HW249565   3.600   4.656   3.847 -2.2423 -0.6249  0.0777
15037SOL     OW49566   9.691   5.395   8.516 -0.3348 -0.5806 -0.0592
15037SOL    HW149567   9.707   5.463   8.451 -1.0009  1.1795  1.5246
15037SOL    HW249568   9.707   5.438   8.600  1.4366 -3.0257  0.9569
15038SOL     OW49569  10.246   6.385   6.381  0.2536 -0.4545  0.2904
15038SOL    HW149570  10.314   6.441   6.344 -1.2679  0.9355 -0.5051
15038SOL    HW249571  10.242   6.411   6.473 -1.1495  1.5408 -0.2996
15039SOL     OW49572   3.685   7.660   1.174  0.0868  0.7111  0.2241
15039SOL    HW149573   3.619   7.664   1.243 -1.4888 -0.8666 -1.0807
15039SOL    HW249574   3.767   7.637   1.220 -1.4125 -3.0558  1.4311
15040SOL     OW49575   7.092  10.748   6.234 -0.2035 -0.3572  0.7584
15040SOL    HW149576   7.180  10.712   6.236 -0.3104 -0.6115  0.9407
15040SOL    HW249577   7.102  10.839   6.259  0.3023  0.2315 -1.3789
15041SOL     OW49578  10.134   5.830  10.017 -0.3035 -0.2543 -0.5895
15041SOL    HW149579  10.195   5.830   9.944 -2.0981 -0.3224 -2.1729
15041SOL    HW249580  10.047   5.834   9.976 -1.3590  1.6509  1.5765
15042SOL     OW49581   4.472   6.468   6.181 -0.2456  0.1641 -0.6237
15042SOL    HW149582   4.547   6.500   6.131  0.4259 -0.7622 -0.2372
15042SOL    HW249583   4.462   6.377   6.155 -2.1532  0.6449 -1.7279
15043SOL     OW49584   1.255  10.246  10.300 -0.1025  0.2067 -0.1777
15043SOL    HW149585   1.238  10.318  10.239 -2.8430 -1.2343 -1.2744
15043SOL    HW249586   1.248  10.167  10.246  0.3959 -1.0050  1.4467
15044SOL     OW49587   0.998   9.153   3.804 -0.1698  0.4157  0.1873
15044SOL    HW149588   1.089   9.141   3.833 -0.4979 -0.6262  0.8570
15044SOL    HW249589   1.006   9.190   3.717  0.8995  0.7344  0.3991
15045SOL     OW49590   5.802   8.876   6.078 -0.0710 -0.0220 -0.0477
15045SOL    HW149591   5.801   8.805   6.142  0.4718 -0.5338 -0.5863
15045SOL    HW249592   5.840   8.837   5.999  0.4024  0.9057 -0.3039
15046SOL     OW49593   2.010   1.545  10.092 -0.0509 -0.4675  0.9271
15046SOL    HW149594   1.922   1.580  10.094  0.1343 -0.0183  2.3457
15046SOL    HW249595   2.046   1.575  10.009 -0.2189  1.9580  1.6486
15047SOL     OW49596   3.584   2.146   2.278 -0.0581  0.8265 -0.1793
15047SOL    HW149597   3.673   2.126   2.248 -0.1224  0.4185 -0.0983
15047SOL    HW249598   3.597   2.217   2.341  0.3963 -0.2879  1.0428
15048SOL     OW49599   2.307   2.077   9.169  0.0075 -0.7149 -0.0674
15048SOL    HW149600   2.333   2.154   9.119 -1.1942  1.2406  2.1345
15048SOL    HW249601   2.380   2.061   9.229 -0.3762 -0.3506  0.4994
15049SOL     OW49602   9.352   1.805   1.999  0.1883  0.0523 -0.0153
15049SOL    HW149603   9.350   1.722   2.046  2.5322 -0.8803 -1.4067
15049SOL    HW249604   9.333   1.782   1.908 -0.6921  1.2969 -0.1788
15050SOL     OW49605   4.571   5.985   6.510 -0.1911  0.0414  0.2736
15050SOL    HW149606   4.551   5.893   6.491  0.0750 -0.3035  1.6295
15050SOL    HW249607   4.486   6.023   6.532 -0.3981  0.2848 -0.8842
15051SOL     OW49608   7.377   4.156   3.302 -0.1741 -0.2291 -0.4097
15051SOL    HW149609   7.404   4.076   3.349  0.3863  0.9981  1.4937
15051SOL    HW249610   7.457   4.208   3.297 -0.6407  0.4234 -1.2084
15052SOL     OW49611  10.136   8.156   2.595 -0.5547 -0.2042  0.6935
15052SOL    HW149612  10.071   8.173   2.526  1.3171  1.0955 -0.8438
15052SOL    HW249613  10.220   8.156   2.549  0.6496 -0.7782  2.7888
15053SOL     OW49614   5.132   5.907   8.510  0.3670 -0.3352 -0.3342
15053SOL    HW149615   5.141   5.991   8.553  1.2807 -1.5716  2.0995
15053SOL    HW249616   5.216   5.892   8.467  0.6064 -0.4683  0.1739
15054SOL     OW49617   1.640   8.589   1.328 -0.0989 -0.2261 -0.1675
15054SOL    HW149618   1.551   8.615   1.351 -0.4516 -1.6167  0.0972
15054SOL    HW249619   1.692   8.614   1.404 -0.0525  1.5563 -0.7432
15055SOL     OW49620   1.458   4.316   4.712  0.2970  0.1328 -0.4026
15055SOL    HW149621   1.509   4.315   4.631  0.6393 -0.4899 -0.1833
15055SOL    HW249622   1.395   4.245   4.702  1.2420 -0.8551  0.4372
15056SOL     OW49623   6.596   1.184   6.432 -0.6542 -0.7934  0.0394
15056SOL    HW149624   6.523   1.159   6.376 -0.8547  0.4540 -0.2810
15056SOL    HW249625   6.643   1.103   6.448 -2.4525 -1.7547  0.7529
15057SOL     OW49626   8.506   8.712   1.983 -0.0851 -0.4695  0.3957
15057SOL    HW149627   8.434   8.676   1.932  0.5857 -0.8664 -0.2889
15057SOL    HW249628   8.574   8.644   1.980  1.6734  1.2416 -1.9000
15058SOL     OW49629   0.061   6.264   1.210 -0.2089  0.0727 -0.2783
15058SOL    HW149630   0.140   6.279   1.158  0.1715 -0.5718  0.1085
15058SOL    HW249631   0.090   6.271   1.301 -0.4551 -0.8160 -0.1204
15059SOL     OW49632   8.842   0.981   9.524  0.4175  0.1494  0.2078
15059SOL    HW149633   8.886   1.048   9.577 -0.2071 -0.7186  1.9195
15059SOL    HW249634   8.908   0.954   9.460  0.7615  2.1921 -0.3700
15060SOL     OW49635   8.055   6.188   5.186  0.8555 -0.3990 -0.4614
15060SOL    HW149636   7.997   6.165   5.259 -0.6612  0.9761 -1.1541
15060SOL    HW249637   8.022   6.136   5.112  0.3727  0.4797 -0.8872
15061SOL     OW49638   8.524   2.458   5.528 -0.1557 -0.3722 -0.2565
15061SOL    HW149639   8.566   2.439   5.611 -0.7047 -2.1659 -0.3408
15061SOL    HW249640   8.490   2.547   5.538  0.1107 -0.4144  1.3023
15062SOL     OW49641   8.449   9.948  11.063 -0.0216 -0.5154  0.3897
15062SOL    HW149642   8.423   9.966  11.154  0.6231 -0.9247  0.6693
15062SOL    HW249643   8.503  10.023  11.038  1.6230 -1.3831  1.1214
15063SOL     OW49644  10.533  10.461  10.130  0.3055  0.0210  0.0330
15063SOL    HW149645  10.607  10.410  10.163 -0.1449 -1.0113 -0.5107
15063SOL    HW249646  10.571  10.515  10.061  0.6053 -0.3528 -0.1019
15064SOL     OW49647   0.441   2.196   6.778 -0.3834 -0.3228  0.8603
15064SOL    HW149648   0.381   2.243   6.719  1.2446  2.2325  1.0746
15064SOL    HW249649   0.492   2.140   6.720 -1.0536 -0.3826  0.3067
15065SOL     OW49650   0.191   6.094   6.583  0.3039  0.1627  0.0102
15065SOL    HW149651   0.234   6.173   6.616 -1.8300  1.4045 -0.0135
15065SOL    HW249652   0.213   6.093   6.489  2.0013 -0.4567  0.3673
15066SOL     OW49653   8.306  10.435   6.236  0.4267  0.1802  0.2994
15066SOL    HW149654   8.348  10.463   6.317 -0.0132 -1.5495  1.1614
15066SOL    HW249655   8.335  10.499   6.171  2.0600  0.6928  1.4698
15067SOL     OW49656   5.325  11.063   4.633  0.6122  0.0339  0.3083
15067SOL    HW149657   5.339  11.158   4.638 -0.3312  0.1011  2.4922
15067SOL    HW249658   5.359  11.039   4.546  1.9352  2.1646  0.1586
15068SOL     OW49659   8.395   9.657   6.499 -0.1344 -0.1864  0.0245
15068SOL    HW149660   8.405   9.715   6.423  4.7684 -0.0638  0.4184
15068SOL    HW249661   8.415   9.569   6.465  1.4690 -0.2204  0.9457
15069SOL     OW49662   5.243   6.817   6.385 -0.1237 -0.2567  0.3596
15069SOL    HW149663   5.211   6.743   6.333  0.4243 -0.1516 -0.1309
15069SOL    HW249664   5.165   6.848   6.433 -0.8991  0.3053 -1.1808
15070SOL     OW49665   1.152   7.251   6.158  0.2476  0.6556 -0.0436
15070SOL    HW149666   1.131   7.261   6.251  0.8268 -1.0166  0.2993
15070SOL    HW249667   1.119   7.331   6.118  1.3840  2.1528  1.8135
15071SOL     OW49668   1.785   3.303   7.524 -0.4015  0.2199  0.5142
15071SOL    HW149669   1.796   3.396   7.504 -0.5900  0.5297  1.7441
15071SOL    HW249670   1.742   3.303   7.610  0.8746 -1.0125  1.1850
15072SOL     OW49671   0.307   2.793   1.398 -0.4428  0.1528  0.4891
15072SOL    HW149672   0.334   2.701   1.393  2.4779  0.8554  1.2148
15072SOL    HW249673   0.244   2.804   1.327 -0.2253 -2.1997 -0.1508
15073SOL     OW49674   8.399   0.191   4.655  0.3771  0.2517  0.3621
15073SOL    HW149675   8.475   0.210   4.600  0.9066 -0.6174  0.7778
15073SOL    HW249676   8.325   0.191   4.594  1.0796 -1.7071 -0.5651
15074SOL     OW49677   4.808   0.564   3.257  0.4132 -0.1777 -0.1110
15074SOL    HW149678   4.791   0.553   3.164  0.4626  0.4588 -0.1997
15074SOL    HW249679   4.838   0.478   3.286 -0.1738 -0.5397 -0.5520
15075SOL     OW49680   0.511   8.944   8.838 -0.1627  0.2008 -0.4406
15075SOL    HW149681   0.493   9.012   8.904  0.4053 -0.4439  0.3997
15075SOL    HW249682   0.563   8.988   8.772 -2.8294  1.5312 -1.7967
15076SOL     OW49683   0.521   8.122   8.744  0.2811  0.2957  0.0462
15076SOL    HW149684   0.570   8.139   8.663  0.5534 -0.8095 -0.0432
15076SOL    HW249685   0.453   8.060   8.718  0.1346  0.2294  0.5854
15077SOL     OW49686  10.631   7.968   4.184 -0.3970 -0.1783  0.1794
15077SOL    HW149687  10.617   7.984   4.277 -1.0338 -0.8346  0.1982
15077SOL    HW249688  10.681   7.886   4.181 -0.4987 -0.2308 -0.0647
15078SOL     OW49689   3.046   6.354   0.648  0.0975  0.4607 -0.0718
15078SOL    HW149690   3.064   6.289   0.580  0.3535  1.1364 -0.6577
15078SOL    HW249691   2.971   6.318   0.695  1.2194 -1.0464  0.6546
15079SOL     OW49692  10.611   6.558   8.300 -0.3345  0.1744 -0.3042
15079SOL    HW149693  10.702   6.534   8.316  0.2770  1.3882 -1.7876
15079SOL    HW249694  10.595   6.532   8.209 -2.0781 -1.7172  0.4468
15080SOL     OW49695   5.567   7.244   4.892 -0.1872 -0.2032 -0.1873
15080SOL    HW149696   5.534   7.196   4.816  1.0426 -1.7173  0.1909
15080SOL    HW249697   5.658   7.263   4.871  0.0361 -0.2274  0.7225
15081SOL     OW49698   9.830   8.351   7.580  0.1424 -0.2058  0.1966
15081SOL    HW149699   9.833   8.424   7.643  4.1936 -0.4374  0.5507
15081SOL    HW249700   9.769   8.288   7.619  2.0477 -0.0990  3.7888
15082SOL     OW49701   0.842   6.019   9.722 -0.3493 -0.2666  0.3510
15082SOL    HW149702   0.782   5.953   9.755  0.5920 -1.5693 -0.4306
15082SOL    HW249703   0.891   5.974   9.653  1.9085  0.5372  1.3372
15083SOL     OW49704  10.458   5.874  10.929  0.4735 -0.2056  0.2537
15083SOL    HW149705  10.534   5.857  10.872  1.2211  0.3641  1.0603
15083SOL    HW249706  10.395   5.917  10.872  0.8217 -0.5150 -0.3819
15084SOL     OW49707   9.922  10.795   3.794 -0.0664 -0.0264 -0.1258
15084SOL    HW149708  10.012  10.786   3.827 -0.4639 -0.0920  0.9989
15084SOL    HW249709   9.920  10.881   3.753  0.4963  0.0107 -0.0828
15085SOL     OW49710   5.427   5.167   8.526  0.3512 -0.8170  0.5023
15085SOL    HW149711   5.514   5.137   8.498 -0.1554 -3.9083  1.8386
15085SOL    HW249712   5.368   5.137   8.456  0.2995  1.7252 -0.6609
15086SOL     OW49713   5.518   6.363   7.630  0.0112  0.1550 -0.2897
15086SOL    HW149714   5.571   6.343   7.707 -0.4811  0.1295  0.0448
15086SOL    HW249715   5.428   6.347   7.658 -0.1469 -0.2028 -0.9778
15087SOL     OW49716   1.269   2.270   0.857 -0.0128  0.1742  0.5716
15087SOL    HW149717   1.303   2.219   0.931  0.6495  0.3018  0.3576
15087SOL    HW249718   1.233   2.349   0.898  1.7408  0.9834  0.6553
15088SOL     OW49719   7.485   0.386   4.892  0.1158 -0.0754  0.1407
15088SOL    HW149720   7.457   0.459   4.836 -0.0442  0.4190  0.8551
15088SOL    HW249721   7.413   0.324   4.887 -0.9031  0.9336  1.5042
15089SOL     OW49722  10.418  10.835   0.800  0.4589 -0.1171  0.3516
15089SOL    HW149723  10.359  10.883   0.741  2.6565  2.5033  0.0656
15089SOL    HW249724  10.364  10.766   0.838 -2.1120  0.6378 -1.6570
15090SOL     OW49725   9.456   4.853   7.998 -0.0664  0.0977 -0.7596
15090SOL    HW149726   9.459   4.761   7.969 -2.7501 -0.2209 -0.2873
15090SOL    HW249727   9.512   4.855   8.076 -1.0415 -1.5034  0.0382
15091SOL     OW49728   4.977   5.472   1.732  0.2501  0.7208 -0.9156
15091SOL    HW149729   4.923   5.404   1.691 -0.6539  0.3499  0.8190
15091SOL    HW249730   5.063   5.463   1.689 -0.4092 -0.2036 -2.0878
15092SOL     OW49731   3.909   8.009   9.050  0.2940  0.0043  0.1042
15092SOL    HW149732   3.948   8.096   9.061  0.4035 -0.3017  2.9782
15092SOL    HW249733   3.976   7.960   9.002  1.3652  0.8181  0.6990
15093SOL     OW49734   4.623   6.127   2.064  0.1195  0.3911  0.1785
15093SOL    HW149735   4.594   6.093   2.148  0.1053 -1.5127 -0.5498
15093SOL    HW249736   4.629   6.050   2.007  2.0038  1.3310 -1.0262
15094SOL     OW49737   3.842   7.143   1.612  0.5645 -0.1483  0.1638
15094SOL    HW149738   3.850   7.212   1.678 -0.4292  1.5130 -1.3566
15094SOL    HW249739   3.794   7.072   1.656  0.2761  0.7466  1.3269
15095SOL     OW49740   1.578   3.493   8.355 -0.0003  0.2311 -0.8649
15095SOL    HW149741   1.619   3.417   8.313 -2.2023 -2.2461  1.0804
15095SOL    HW249742   1.535   3.540   8.284  1.9494  0.0758 -2.2147
15096SOL     OW49743   3.454   4.710  10.653 -0.2287  0.3197 -0.2435
15096SOL    HW149744   3.466   4.773  10.724  1.5460  2.3000 -2.1365
15096SOL    HW249745   3.533   4.655  10.657 -1.5451 -1.6108  1.1007
15097SOL     OW49746   5.435  10.371   6.808  0.0282  0.2642  0.1384
15097SOL    HW149747   5.472  10.402   6.725  0.4111 -1.3089 -0.3283
15097SOL    HW249748   5.341  10.378   6.797  0.1050  1.4606  0.1565
15098SOL     OW49749   7.852   9.999   8.495  0.0426 -0.1498  0.5945
15098SOL    HW149750   7.946   9.987   8.479 -0.2028 -0.4691 -0.8127
15098SOL    HW249751   7.845  10.019   8.588  1.3656 -1.7331  1.0810
15099SOL     OW49752   0.741   6.560   0.821  0.1889 -0.4187 -0.0645
15099SOL    HW149753   0.678   6.610   0.874  1.6759  1.1141  0.3152
15099SOL    HW249754   0.796   6.515   0.885  0.7794 -0.0994 -0.3426
15100SOL     OW49755   1.330   5.401   6.432  0.6035  0.1842 -0.5736
15100SOL    HW149756   1.314   5.315   6.472 -3.1751  2.2759  3.1641
15100SOL    HW249757   1.398   5.441   6.486  1.0845  0.2530 -1.2102
15101SOL     OW49758   9.426   3.113   2.779  0.3583  0.2565 -0.5431
15101SOL    HW149759   9.350   3.086   2.728 -2.8528  1.0867  3.2830
15101SOL    HW249760   9.469   3.179   2.725 -2.4950  0.7959 -2.3471
15102SOL     OW49761   3.618   8.499  10.474  0.1788 -0.1689 -0.0972
15102SOL    HW149762   3.641   8.409  10.453  0.8921 -0.1432  0.5464
15102SOL    HW249763   3.611   8.542  10.388  2.2356 -0.2552 -0.3462
15103SOL     OW49764   2.982   4.602   4.815 -0.2834  0.1553 -0.2350
15103SOL    HW149765   2.947   4.683   4.777 -1.1670 -0.9504 -1.9239
15103SOL    HW249766   2.974   4.537   4.745 -0.3207 -1.5969  1.3077
15104SOL     OW49767   1.240   7.203   7.584  0.3339 -0.4430 -0.0219
15104SOL    HW149768   1.212   7.112   7.591 -0.6349 -0.1963 -0.4437
15104SOL    HW249769   1.169   7.246   7.536  1.2763  0.3034 -0.7931
15105SOL     OW49770   3.291   1.273   6.405 -0.0867  0.1595  0.1246
15105SOL    HW149771   3.363   1.321   6.366 -0.6876  1.3840  0.4809
15105SOL    HW249772   3.333   1.204   6.457  0.8032  0.6382  0.0491
15106SOL     OW49773   0.859   4.368   9.787  0.0257  0.3862 -0.2500
15106SOL    HW149774   0.891   4.278   9.799  0.2404  0.6140  0.9908
15106SOL    HW249775   0.772   4.368   9.828 -0.7756  0.2961 -1.8458
15107SOL     OW49776   5.861   6.941  10.834  0.5036  0.1675  0.4444
15107SOL    HW149777   5.797   6.872  10.853 -0.1048 -0.1667 -2.3902
15107SOL    HW249778   5.897   6.916  10.749  0.9766  2.8518 -0.2054
15108SOL     OW49779   1.593   5.483   3.314  0.5319  0.0186 -0.3748
15108SOL    HW149780   1.686   5.467   3.330  1.0242  2.9940  0.3327
15108SOL    HW249781   1.592   5.545   3.241 -1.1179 -2.2228 -2.4449
15109SOL     OW49782   9.740   7.758   1.012 -0.3554 -0.7303  0.0903
15109SOL    HW149783   9.695   7.831   1.054 -0.6356 -0.8070 -0.0740
15109SOL    HW249784   9.818   7.797   0.973 -1.5471 -0.0943 -1.8327
15110SOL     OW49785   8.117   5.168   6.881 -1.0370  0.3922  0.1578
15110SOL    HW149786   8.123   5.076   6.854  0.3536  0.3585  0.5161
15110SOL    HW249787   8.064   5.209   6.813 -1.7682 -0.6909  0.0406
15111SOL     OW49788   4.324  10.629   8.294 -0.1410  0.2872 -0.3829
15111SOL    HW149789   4.243  10.587   8.323  0.0767 -0.1646 -0.4182
15111SOL    HW249790   4.358  10.671   8.373  0.7538 -1.4389  0.2042
15112SOL     OW49791   5.940   8.533   4.574 -0.2198 -0.4308  0.2415
15112SOL    HW149792   6.029   8.544   4.541 -0.8237 -1.4166 -1.8405
15112SOL    HW249793   5.934   8.440   4.597 -0.2469 -0.0458  1.9953
15113SOL     OW49794   3.566   1.101   6.397  0.0060  0.1339  0.4102
15113SOL    HW149795   3.511   1.092   6.319  0.6625  2.5643 -0.4168
15113SOL    HW249796   3.506   1.088   6.470 -1.2638  0.7228 -0.4870
15114SOL     OW49797   6.044   3.323   4.000 -0.2754 -0.0064 -0.0738
15114SOL    HW149798   6.111   3.258   3.979 -0.7921 -0.6029  0.1054
15114SOL    HW249799   6.061   3.395   3.939 -0.6772 -0.9871 -1.3834
15115SOL     OW49800   4.648   2.884   4.039  0.7295 -0.2039 -0.4357
15115SOL    HW149801   4.688   2.827   4.105  0.2075  0.6620  0.6383
15115SOL    HW249802   4.721   2.907   3.981  1.6230  0.5751  0.9399
15116SOL     OW49803   3.089   2.728   6.230 -0.0935  0.7217 -0.3540
15116SOL    HW149804   3.088   2.708   6.324  2.4665  0.8975 -0.2316
15116SOL    HW249805   3.069   2.645   6.187  5.6656 -1.3849  0.2647
15117SOL     OW49806   1.952   7.172   4.911 -0.3829 -0.1063 -0.4102
15117SOL    HW149807   2.001   7.218   4.979 -2.4490 -0.4849  1.4327
15117SOL    HW249808   2.005   7.183   4.832  2.8718 -0.9149  1.4875
15118SOL     OW49809   6.165   6.097   5.634  0.4365 -0.3005 -1.2007
15118SOL    HW149810   6.183   6.040   5.559  1.6020 -0.3064 -0.9395
15118SOL    HW249811   6.237   6.160   5.633  0.4627 -0.2992 -0.0880
15119SOL     OW49812   5.803   0.975   1.070  0.5051  0.0012 -0.3492
15119SOL    HW149813   5.709   0.969   1.057  0.4976 -0.1828 -0.2067
15119SOL    HW249814   5.827   0.894   1.115  0.6748  0.2068 -0.0622
15120SOL     OW49815   0.816   0.940   4.632 -0.6406  0.0224  0.3700
15120SOL    HW149816   0.769   0.864   4.669 -2.1711 -0.0226 -1.5069
15120SOL    HW249817   0.762   1.015   4.656 -1.1622  0.0860 -0.9297
15121SOL     OW49818   6.113   4.331   8.398  0.3398  0.0271 -0.1434
15121SOL    HW149819   6.194   4.382   8.399  0.5872 -0.3542  0.4988
15121SOL    HW249820   6.080   4.338   8.309  1.6707 -0.7187 -0.7229
15122SOL     OW49821   8.857   8.837   6.784  0.0458 -0.5704 -0.4184
15122SOL    HW149822   8.822   8.779   6.852 -0.7805 -0.6293 -0.8777
15122SOL    HW249823   8.867   8.780   6.707 -0.5129 -0.1831 -0.7919
15123SOL     OW49824  10.014   9.083   1.556  0.1725 -0.1923  0.2349
15123SOL    HW149825   9.951   9.010   1.557 -1.5721  1.2407  1.8277
15123SOL    HW249826   9.969   9.153   1.508  1.5569  0.1119 -0.6838
15124SOL     OW49827   8.289  10.487   4.569  0.4843 -0.5331  0.2472
15124SOL    HW149828   8.288  10.421   4.638  2.0115  0.7466  1.5616
15124SOL    HW249829   8.349  10.452   4.503 -0.5385 -1.4969 -0.2092
15125SOL     OW49830   2.213   7.436   3.323  0.0738 -0.2043 -0.4157
15125SOL    HW149831   2.177   7.405   3.407  1.6032 -0.0601  0.3271
15125SOL    HW249832   2.307   7.418   3.329  0.4530  1.2420 -1.4692
15126SOL     OW49833   7.534   1.400   7.512  0.2883 -0.2446 -0.1117
15126SOL    HW149834   7.564   1.317   7.548  1.3390  0.1676  0.0313
15126SOL    HW249835   7.471   1.433   7.576  1.2342 -0.0857  0.7673
15127SOL     OW49836   7.261   1.096   4.464  0.2209 -0.1405 -0.1747
15127SOL    HW149837   7.279   1.060   4.377 -1.0037 -2.0750  0.3027
15127SOL    HW249838   7.200   1.034   4.503 -0.7125  1.6640  1.3892
15128SOL     OW49839   2.357   7.447   8.106  0.6972 -0.2145 -0.2180
15128SOL    HW149840   2.356   7.536   8.071 -1.8966  0.0313  0.2635
15128SOL    HW249841   2.285   7.445   8.169  0.4532 -2.7447 -0.4563
15129SOL     OW49842   9.391   0.470   7.987 -0.3849 -0.9483 -0.0190
15129SOL    HW149843   9.426   0.419   7.914  1.6696  1.3608 -0.7783
15129SOL    HW249844   9.469   0.504   8.031 -1.6465  0.2449  1.3586
15130SOL     OW49845   4.376   4.083   0.069 -0.1256  0.1145  0.6063
15130SOL    HW149846   4.396   4.138   0.145  1.8931 -0.0937  0.2690
15130SOL    HW249847   4.436   4.009   0.077  0.3661  0.2677 -1.3601
15131SOL     OW49848   5.970   2.317   9.518  0.8009  0.6138 -0.1960
15131SOL    HW149849   5.893   2.356   9.478  0.0715  0.7140  1.2329
15131SOL    HW249850   5.972   2.227   9.485  0.2754  0.7198 -0.5118
15132SOL     OW49851   7.333   5.210   4.874 -0.5828 -0.5117  0.1164
15132SOL    HW149852   7.266   5.141   4.876  0.7194 -1.9409 -1.8814
15132SOL    HW249853   7.404   5.175   4.928 -1.3652  1.0293  2.2884
15133SOL     OW49854   2.137   6.098   5.735 -0.0580 -0.2039  0.2610
15133SOL    HW149855   2.170   6.011   5.756  0.6549  0.1862  0.7687
15133SOL    HW249856   2.112   6.093   5.642  3.0817 -0.0348 -0.7050
15134SOL     OW49857   8.635   7.939   6.289  0.0703 -0.2309 -0.7518
15134SOL    HW149858   8.613   7.901   6.373 -0.6878 -1.0674 -1.3197
15134SOL    HW249859   8.590   8.024   6.288  1.4150  0.5357  0.3351
15135SOL     OW49860   4.762   0.496  10.236  0.1028  0.4277  0.1567
15135SOL    HW149861   4.792   0.579  10.200  1.5851  0.3740  1.1807
15135SOL    HW249862   4.668   0.493  10.216  0.1153  2.1312 -0.2546
15136SOL     OW49863   3.633   4.132   6.580  0.5784  0.2035  0.4865
15136SOL    HW149864   3.692   4.144   6.655 -0.5953 -1.0207  1.6404
15136SOL    HW249865   3.648   4.042   6.552  1.7787  0.9480 -1.4891
15137SOL     OW49866   8.821   7.454  10.993  0.1450 -0.3956 -0.2407
15137SOL    HW149867   8.745   7.414  11.035 -0.0054  0.2231  0.0715
15137SOL    HW249868   8.785   7.520  10.935  0.3275 -1.4950 -1.6570
15138SOL     OW49869  10.293   3.358   1.644  0.1861 -0.3310  0.2817
15138SOL    HW149870  10.369   3.376   1.588  0.1718 -0.8776  0.0781
15138SOL    HW249871  10.277   3.265   1.632 -0.0913 -0.3568  0.8644
15139SOL     OW49872   5.502  10.963   2.295  0.1081 -0.0043  0.0724
15139SOL    HW149873   5.507  11.020   2.372  0.4123 -0.2888  0.2685
15139SOL    HW249874   5.427  10.906   2.311 -0.1984  0.3359 -0.1249
15140SOL     OW49875   8.204   5.901   0.035  0.0938  0.2753 -1.0134
15140SOL    HW149876   8.223   5.993   0.015 -0.6930  0.3830 -1.2798
15140SOL    HW249877   8.190   5.860  -0.050  1.0311 -0.2408 -0.9421
15141SOL     OW49878   7.389   9.402   9.774 -0.4354  0.0259  0.5871
15141SOL    HW149879   7.329   9.341   9.816 -0.5079  1.3488  2.5396
15141SOL    HW249880   7.337   9.480   9.757  0.5420  0.9795  1.7787
15142SOL     OW49881   6.576   5.626   1.036  0.3963 -0.2312 -0.1148
15142SOL    HW149882   6.623   5.708   1.022 -1.1815  0.8104  0.4359
15142SOL    HW249883   6.524   5.614   0.956  0.1876 -0.3815  0.0421
15143SOL     OW49884   8.984   3.097   8.433  0.1263  0.7685 -0.1636
15143SOL    HW149885   8.893   3.122   8.451 -0.5004 -0.1762 -1.7861
15143SOL    HW249886   8.983   3.069   8.341  1.5092 -1.6338  0.4566
15144SOL     OW49887   6.953   6.558   8.167 -0.4975  0.5302  0.2473
15144SOL    HW149888   6.861   6.533   8.163 -0.8275  1.7533 -0.0622
15144SOL    HW249889   6.958   6.642   8.122  0.6383  0.8552  0.9263
15145SOL     OW49890   4.840   7.249  10.918  0.1917 -0.3141 -0.5325
15145SOL    HW149891   4.797   7.219  10.998  1.6361 -0.7737  0.1010
15145SOL    HW249892   4.776   7.307  10.877 -0.0244  1.1506  1.7141
15146SOL     OW49893   0.986   6.602  10.588  0.0219  0.4400 -0.1808
15146SOL    HW149894   1.017   6.691  10.605  0.0093  0.1553  1.4924
15146SOL    HW249895   0.911   6.613  10.529  0.4914  1.4622 -0.6134
15147SOL     OW49896   5.653   8.757   1.927  0.0293 -0.1430 -0.4516
15147SOL    HW149897   5.657   8.665   1.902  2.2286 -0.6588  1.4725
15147SOL    HW249898   5.734   8.794   1.892 -0.4410  0.8790 -0.4931
15148SOL     OW49899   7.870   0.571   8.120 -0.3908  0.4469  0.9629
15148SOL    HW149900   7.855   0.497   8.061 -1.2474  1.6307 -0.3497
15148SOL    HW249901   7.963   0.568   8.139 -0.2268 -0.3674  0.0977
15149SOL     OW49902   2.984   4.394   4.637 -0.1312  0.0701  0.2979
15149SOL    HW149903   2.892   4.365   4.636  0.0688 -0.8213  2.4030
15149SOL    HW249904   3.032   4.318   4.669  1.0983  1.1348  1.0627
15150SOL     OW49905   9.134   4.661   8.183  0.4954 -0.0597 -0.0248
15150SOL    HW149906   9.175   4.707   8.257 -0.6212  0.0910  0.5223
15150SOL    HW249907   9.160   4.712   8.106  0.1616  0.8689  0.4584
15151SOL     OW49908   7.341   9.386   6.138  1.2259 -0.4626 -0.6617
15151SOL    HW149909   7.274   9.447   6.106  0.1939 -1.2628 -0.1139
15151SOL    HW249910   7.318   9.303   6.097  1.5701 -0.8625 -0.0577
15152SOL     OW49911   9.982   7.951   7.729 -0.2581  0.2851  0.3748
15152SOL    HW149912   9.967   7.981   7.639 -0.1687 -0.2754  0.1695
15152SOL    HW249913  10.058   8.001   7.758  2.2156 -2.2160 -1.2262
15153SOL     OW49914   3.909  10.487   2.759  0.5512  0.2093 -0.1859
15153SOL    HW149915   3.967  10.522   2.691 -0.1904  3.2220  0.5914
15153SOL    HW249916   3.821  10.492   2.720  0.3600 -0.1390  0.1945
15154SOL     OW49917   6.109   8.365   3.009 -0.0844 -0.2023 -0.2900
15154SOL    HW149918   6.131   8.387   2.919 -0.6182  0.3012 -0.3094
15154SOL    HW249919   6.019   8.396   3.020  0.0957  0.0710  0.5168
15155SOL     OW49920  10.003   2.700   5.036 -0.2298  0.3738  0.2265
15155SOL    HW149921   9.973   2.785   5.068  0.4890  0.3057  1.1262
15155SOL    HW249922   9.953   2.636   5.087 -0.8753  0.2379 -0.5502
15156SOL     OW49923   2.930   1.965   6.022  0.4778  0.1491  0.2524
15156SOL    HW149924   3.025   1.976   6.016  0.8481 -1.4346  2.1704
15156SOL    HW249925   2.917   1.872   6.037 -0.9938  0.7913  4.4713
15157SOL     OW49926  10.017   0.618   6.370 -0.0708  0.2719  0.0799
15157SOL    HW149927  10.090   0.558   6.352 -0.2978  0.4659 -1.6299
15157SOL    HW249928   9.980   0.587   6.453  1.1307 -0.6426  0.2899
15158SOL     OW49929   9.059   2.950  10.154  0.0481  0.0820 -0.1986
15158SOL    HW149930   9.057   3.041  10.184 -0.1827  0.3147 -0.8914
15158SOL    HW249931   9.152   2.928  10.146  0.1033  0.2537 -0.0207
15159SOL     OW49932   3.856   4.330   3.686  0.3101  0.3698 -0.8460
15159SOL    HW149933   3.874   4.279   3.765  0.3244  1.1160 -0.3593
15159SOL    HW249934   3.818   4.412   3.718  1.7724  1.3624 -1.4994
15160SOL     OW49935   3.883   4.439   1.043  0.3076 -0.4367  0.1367
15160SOL    HW149936   3.828   4.517   1.038  0.7879  0.0481  1.7956
15160SOL    HW249937   3.969   4.468   1.014  0.1912 -0.6882 -0.4832
15161SOL     OW49938   9.735   3.801   3.777  0.4246  0.5390  0.2095
15161SOL    HW149939   9.652   3.848   3.782 -0.0926 -0.4670  1.9078
15161SOL    HW249940   9.711   3.708   3.785  1.7268  0.2553  1.0903
15162SOL     OW49941   3.040   1.399   5.722  0.2595 -0.3426 -0.8786
15162SOL    HW149942   3.015   1.486   5.689  1.4700  0.3875  0.0434
15162SOL    HW249943   3.003   1.395   5.809 -1.7503 -1.7191 -1.7287
15163SOL     OW49944   2.829   7.022   5.717  0.3876  0.6603 -0.0445
15163SOL    HW149945   2.848   6.961   5.645  0.3899  0.5330  0.0634
15163SOL    HW249946   2.881   7.100   5.697 -2.3306  2.0910 -2.1244
15164SOL     OW49947   7.231   0.050   9.995 -0.5588  0.0582 -0.0573
15164SOL    HW149948   7.167   0.069   9.926  0.8484  1.2616 -1.1021
15164SOL    HW249949   7.256   0.136  10.028 -0.6994 -0.4801  1.5119
15165SOL     OW49950   0.582   7.191   2.336  0.6299 -0.0080  0.1973
15165SOL    HW149951   0.584   7.219   2.427 -0.3028 -2.2742  1.0009
15165SOL    HW249952   0.567   7.096   2.341  0.9974 -0.2609 -2.3099
15166SOL     OW49953  10.117   5.108   8.296  0.4998  0.2523 -0.4119
15166SOL    HW149954  10.032   5.152   8.292  0.8716  1.2727  1.5573
15166SOL    HW249955  10.125   5.080   8.387  2.0447 -0.3062 -0.6865
15167SOL     OW49956   9.107   2.434   4.875  0.6381 -0.6004  0.3275
15167SOL    HW149957   9.133   2.436   4.967  1.8497 -1.5884  0.0380
15167SOL    HW249958   9.032   2.493   4.869  2.0181  1.3713  1.4710
15168SOL     OW49959  10.963   1.181   9.362 -0.0134 -0.0434 -0.1833
15168SOL    HW149960  10.902   1.189   9.289 -0.4471  0.0243  0.1810
15168SOL    HW249961  10.915   1.132   9.429  0.1429  0.4705  0.3151
15169SOL     OW49962   0.502   9.593   6.614 -0.1377 -0.1978 -0.1538
15169SOL    HW149963   0.542   9.545   6.541 -2.3283 -0.9405 -0.9498
15169SOL    HW249964   0.533   9.548   6.692 -0.8138 -1.8847 -0.8134
15170SOL     OW49965   4.850   5.585   7.361 -0.3948  0.0375 -0.1211
15170SOL    HW149966   4.773   5.593   7.418 -0.1049  0.5354  0.2078
15170SOL    HW249967   4.914   5.536   7.414  0.3186  1.5340  0.4708
15171SOL     OW49968   0.102   4.908   6.853 -0.0008 -0.8921 -0.2320
15171SOL    HW149969   0.170   4.842   6.866  2.1694  0.9187 -1.6936
15171SOL    HW249970   0.148   4.983   6.814 -2.8255  0.4620 -1.2404
15172SOL     OW49971   3.258   6.837   9.517 -0.3594  0.4262  0.0034
15172SOL    HW149972   3.171   6.798   9.520  0.2968 -1.1532 -0.6327
15172SOL    HW249973   3.257   6.892   9.439 -0.2956 -0.8918 -0.9650
15173SOL     OW49974   7.231  10.572   6.665  0.3818 -0.4143 -0.1493
15173SOL    HW149975   7.256  10.506   6.601 -1.2657  0.1157 -1.4254
15173SOL    HW249976   7.150  10.539   6.704  0.5887 -0.0553  0.6081
15174SOL     OW49977   6.463   4.847   8.164 -0.5539  0.1348  0.4338
15174SOL    HW149978   6.554   4.824   8.182 -0.6721 -3.3468 -2.2246
15174SOL    HW249979   6.469   4.919   8.102  0.5247 -0.6853 -0.4744
15175SOL     OW49980   1.886   5.988   0.786 -0.0417 -0.1841  0.0330
15175SOL    HW149981   1.953   6.045   0.824  0.2365 -2.2497  2.9706
15175SOL    HW249982   1.919   5.899   0.800 -1.8149 -1.2005 -1.6735
15176SOL     OW49983   3.887   1.955   6.787  0.4907  0.1781  0.1092
15176SOL    HW149984   3.961   1.957   6.726  2.1475  0.8994  2.0425
15176SOL    HW249985   3.921   1.911   6.865 -1.2633  0.1237  0.8962
15177SOL     OW49986   1.868   6.986   5.354 -0.0962  0.0420 -0.1642
15177SOL    HW149987   1.915   6.904   5.369  0.5216  0.3721 -0.2675
15177SOL    HW249988   1.932   7.043   5.311 -1.0244  0.0175 -1.6302
15178SOL     OW49989   8.602   2.053   1.841 -0.1605  0.0069  0.1248
15178SOL    HW149990   8.527   2.001   1.810 -0.5163  0.4319  0.2582
15178SOL    HW249991   8.617   2.023   1.930  0.6715 -1.0030 -0.3321
15179SOL     OW49992   2.463   7.192   0.054 -0.0083 -0.0887  0.0379
15179SOL    HW149993   2.410   7.243   0.116  0.7347  0.9325 -0.1496
15179SOL    HW249994   2.541   7.246   0.038  1.6623 -2.0369  1.1625
15180SOL     OW49995   0.515   5.188   2.829 -0.3229 -0.2530 -0.5191
15180SOL    HW149996   0.511   5.162   2.737 -1.2132 -0.4497 -0.4436
15180SOL    HW249997   0.549   5.110   2.874  2.7523  0.7184 -0.9572
15181SOL     OW49998  10.549   3.484   8.503  0.0512  0.4285  0.5261
15181SOL    HW149999  10.491   3.526   8.567  0.7147  0.8400  0.8737
15181SOL    HW250000  10.497   3.480   8.423 -0.1587  1.6001  0.5886
15182SOL     OW50001   8.375   5.636   4.396 -0.2637 -0.5765  0.4540
15182SOL    HW150002   8.294   5.654   4.444 -0.3802  0.1183  0.0007
15182SOL    HW250003   8.347   5.620   4.306  0.0307 -1.1172  0.4520
15183SOL     OW50004   5.653   7.586   2.868  0.0362 -0.3136  0.5347
15183SOL    HW150005   5.715   7.636   2.814  1.2257 -1.7238  0.5141
15183SOL    HW250006   5.586   7.557   2.806 -0.2952  0.6682  0.4240
15184SOL     OW50007   9.347   0.036   7.524 -0.1091  0.1522  0.2487
15184SOL    HW150008   9.370  -0.056   7.515  0.5701  0.4467 -1.3852
15184SOL    HW250009   9.261   0.035   7.567  0.7651 -1.1384  2.1328
15185SOL     OW50010   6.396   5.439   9.988 -0.6556  0.1262 -0.2543
15185SOL    HW150011   6.332   5.411  10.054 -0.9299 -0.2690 -0.6815
15185SOL    HW250012   6.425   5.358   9.946  1.8213  0.0435  1.4045
15186SOL     OW50013   5.432   5.007   2.930  0.2858  0.5794  0.0916
15186SOL    HW150014   5.450   4.996   3.023 -1.3661 -0.2337  0.3471
15186SOL    HW250015   5.430   4.918   2.895 -2.4619  0.5946  0.0042
15187SOL     OW50016   4.690   0.165   2.772  0.2163 -0.2859  0.2040
15187SOL    HW150017   4.626   0.205   2.713  0.3082 -1.4714 -0.7337
15187SOL    HW250018   4.675   0.071   2.763  1.7562 -0.5668  0.3289
15188SOL     OW50019   0.331   4.417   2.098  0.5939  0.0069 -0.4089
15188SOL    HW150020   0.252   4.395   2.147 -0.4838  2.5863 -0.8281
15188SOL    HW250021   0.399   4.428   2.165 -0.1797  0.7699  0.2680
15189SOL     OW50022   6.041   3.123   3.281 -0.1445 -0.1288 -0.1150
15189SOL    HW150023   6.109   3.058   3.300  0.0785  0.6202  1.9097
15189SOL    HW250024   5.959   3.074   3.284 -0.0212 -0.2990  1.8737
15190SOL     OW50025   6.289   0.366   0.920 -0.8745 -0.4543  0.1306
15190SOL    HW150026   6.344   0.316   0.860  0.2876  2.0381 -1.0244
15190SOL    HW250027   6.315   0.337   1.007  3.3209  1.4527 -0.2677
15191SOL     OW50028   0.350   2.936   2.470 -0.1612 -0.9251  0.3328
15191SOL    HW150029   0.266   2.935   2.517 -1.1664  1.0040 -1.2464
15191SOL    HW250030   0.384   3.024   2.483  1.8183 -1.7560  1.1550
15192SOL     OW50031   9.939   3.941   9.028 -0.2826  0.0090 -0.2307
15192SOL    HW150032  10.015   3.999   9.019  1.4648 -2.2805 -1.2140
15192SOL    HW250033   9.888   3.956   8.949  0.0047  0.4202 -0.3420
15193SOL     OW50034   1.567   0.481   0.192  0.3464 -0.3262 -0.2294
15193SOL    HW150035   1.532   0.437   0.114  0.1184 -0.2886 -0.1509
15193SOL    HW250036   1.572   0.412   0.258  2.0669 -0.7236 -0.7341
15194SOL     OW50037   2.439   7.951   2.640 -0.4563  0.2587  0.1244
15194SOL    HW150038   2.476   7.983   2.557  1.1190  0.1180  0.7287
15194SOL    HW250039   2.386   8.024   2.672  0.2497  0.9415 -0.2154
15195SOL     OW50040   5.659   5.367   0.235  0.0968 -0.3059  0.8345
15195SOL    HW150041   5.655   5.402   0.324  1.1914  1.4997  0.2388
15195SOL    HW250042   5.747   5.330   0.228 -0.0863 -0.6994  0.5840
15196SOL     OW50043   4.673   3.037  10.350 -0.1465 -0.3694  0.5009
15196SOL    HW150044   4.755   3.050  10.302  0.6486 -1.1153  1.6148
15196SOL    HW250045   4.690   3.068  10.438 -1.0377 -0.6195  0.7786
15197SOL     OW50046  10.768   6.312   2.134  0.0765 -0.2001  0.2518
15197SOL    HW150047  10.835   6.244   2.147 -1.5232 -2.0990 -0.9576
15197SOL    HW250048  10.814   6.381   2.086  0.9153 -2.0357 -1.7671
15198SOL     OW50049  10.977   6.433   2.009 -0.3422 -0.1771 -0.1537
15198SOL    HW150050  11.033   6.473   2.075  0.2474 -3.0891  1.3142
15198SOL    HW250051  11.034   6.423   1.932 -0.5934  1.8747 -0.6684
15199SOL     OW50052   0.035   4.915   3.460  0.3100  0.6777 -0.1311
15199SOL    HW150053  -0.042   4.859   3.455 -0.4160  1.4517  1.6106
15199SOL    HW250054   0.037   4.946   3.551  2.1827  1.3715 -0.3540
15200SOL     OW50055   2.952   8.703  10.717  0.4719  0.2870 -0.0248
15200SOL    HW150056   2.864   8.734  10.738  0.1327 -0.7417  0.1221
15200SOL    HW250057   3.001   8.782  10.699 -0.2991  0.9261  0.6001
15201SOL     OW50058   4.830   4.820   8.290  0.2248 -0.4678 -0.4375
15201SOL    HW150059   4.848   4.899   8.340 -1.2945  0.0309 -0.6506
15201SOL    HW250060   4.866   4.749   8.344  0.4648  0.2411  0.3511
15202SOL     OW50061   9.834  10.996   3.585 -0.1574  0.1263 -0.4896
15202SOL    HW150062   9.796  11.055   3.520 -0.9826  0.0939 -0.0419
15202SOL    HW250063   9.837  10.911   3.542  1.1224  0.4938 -1.1712
15203SOL     OW50064   9.646   3.928   4.808 -0.0951  0.1272  0.2957
15203SOL    HW150065   9.669   3.871   4.881 -1.0968 -1.7277 -0.7622
15203SOL    HW250066   9.586   3.992   4.846  0.3574 -0.0529  1.3442
15204SOL     OW50067   7.620  10.239   3.564 -0.3584  0.6095  0.0665
15204SOL    HW150068   7.677  10.205   3.495  0.1109  1.1978  0.1532
15204SOL    HW250069   7.600  10.162   3.618  1.3834  0.5804  0.7632
15205SOL     OW50070   2.524   3.068  10.004  0.0211  0.2118 -0.5437
15205SOL    HW150071   2.485   3.135   9.947 -1.3175 -0.4208 -0.4012
15205SOL    HW250072   2.604   3.109  10.037 -0.9269  1.8919 -0.1738
15206SOL     OW50073   4.694   3.952   8.515  0.1215  0.5032  0.0479
15206SOL    HW150074   4.721   3.941   8.424  0.1352 -1.6386  0.2610
15206SOL    HW250075   4.661   3.866   8.540  0.0575  1.0809  2.0587
15207SOL     OW50076   6.476  10.685   1.749 -0.0012 -0.1632 -0.7288
15207SOL    HW150077   6.535  10.729   1.810  1.1809 -0.7503 -1.3899
15207SOL    HW250078   6.424  10.627   1.804  0.8996 -0.5315 -0.2289
15208SOL     OW50079   7.440   0.842   0.374 -0.2138  0.1674  0.1262
15208SOL    HW150080   7.456   0.864   0.466  1.2876 -0.5658  0.0523
15208SOL    HW250081   7.370   0.776   0.377 -2.1985  2.1433  0.5385
15209SOL     OW50082   0.601   7.414   8.155 -0.0067 -0.0438  0.1074
15209SOL    HW150083   0.537   7.451   8.216  1.5831  2.3579  0.4732
15209SOL    HW250084   0.683   7.458   8.176  1.2607 -1.2352 -1.9109
15210SOL     OW50085   7.915   4.870   7.596  0.0976 -0.1306  0.1403
15210SOL    HW150086   7.863   4.896   7.521  0.1453 -0.8228 -0.1411
15210SOL    HW250087   7.907   4.943   7.658  1.1470  1.0622 -1.0627
15211SOL     OW50088   3.056   2.074   9.135 -0.0509 -0.5013  0.1764
15211SOL    HW150089   2.972   2.110   9.107 -0.7023 -1.6146  0.6188
15211SOL    HW250090   3.058   1.986   9.097  1.1729 -0.2950 -0.2938
15212SOL     OW50091   5.863   6.931   5.965  0.9921 -0.0555  0.0959
15212SOL    HW150092   5.954   6.902   5.965  2.8272  4.7462  1.7140
15212SOL    HW250093   5.850   6.966   5.877  0.8741 -0.2537  0.0337
15213SOL     OW50094   8.304   2.699   3.546 -0.2104 -0.3910 -0.2318
15213SOL    HW150095   8.289   2.794   3.545  0.7617 -0.2230  0.1571
15213SOL    HW250096   8.378   2.687   3.606 -0.2081 -1.3808 -0.4188
15214SOL     OW50097   1.282  10.061  10.054 -0.0841  0.2480 -0.4092
15214SOL    HW150098   1.224   9.985  10.062 -0.6955  0.8392  1.0946
15214SOL    HW250099   1.257  10.101   9.971 -0.7570 -0.3803 -0.5258
15215SOL     OW50100   3.826   9.187   5.473 -0.4325  0.3073 -0.3793
15215SOL    HW150101   3.809   9.115   5.412  0.8691  0.2669 -0.7268
15215SOL    HW250102   3.803   9.151   5.559  1.7035 -1.1394 -0.3344
15216SOL     OW50103   6.242   4.170   4.618  0.1906 -0.3799 -0.4144
15216SOL    HW150104   6.314   4.167   4.555  1.8690  1.9540  1.2391
15216SOL    HW250105   6.239   4.261   4.647 -2.0681 -0.8675  1.1438
15217SOL     OW50106   6.224   3.225   6.108 -0.0470  0.0483  0.0642
15217SOL    HW150107   6.161   3.244   6.039 -1.0122 -1.8789  0.3449
15217SOL    HW250108   6.228   3.305   6.161 -1.3742  0.5985 -0.6348
15218SOL     OW50109   1.249   7.222   2.954  0.5492  0.9827 -0.7964
15218SOL    HW150110   1.195   7.245   3.029 -1.1685 -3.8014 -0.2283
15218SOL    HW250111   1.200   7.254   2.878  0.5861  2.8229 -0.1031
15219SOL     OW50112  10.900   7.031   8.771  0.1622 -0.1755 -0.0682
15219SOL    HW150113  10.846   6.987   8.837  0.7333  0.1682  0.6476
15219SOL    HW250114  10.869   6.996   8.688 -0.4724 -0.7362  0.3871
15220SOL     OW50115   4.603   2.489  10.156  0.4619 -0.1677  0.6679
15220SOL    HW150116   4.634   2.517  10.070  0.2481 -0.0227  0.6348
15220SOL    HW250117   4.632   2.399  10.164 -1.1762 -0.8519 -0.3913
15221SOL     OW50118   7.890   1.972   4.417  0.0483  0.5016  0.4472
15221SOL    HW150119   7.859   1.888   4.452 -1.0212  0.1592 -1.2311
15221SOL    HW250120   7.984   1.971   4.434  0.3955 -1.8740 -1.1302
15222SOL     OW50121   2.532   5.923   7.290  0.2538  0.5401 -0.6574
15222SOL    HW150122   2.573   5.938   7.375 -0.5742  0.7832 -0.2928
15222SOL    HW250123   2.438   5.935   7.306  0.1437  1.3624 -1.7552
15223SOL     OW50124   6.184   4.817   7.417 -0.5193 -0.4099  0.1420
15223SOL    HW150125   6.126   4.827   7.342 -1.0848  0.6482  0.6917
15223SOL    HW250126   6.230   4.734   7.402 -3.7822 -2.5235  0.7479
15224SOL     OW50127   4.749   3.666  10.004 -0.0825  0.4311 -0.1593
15224SOL    HW150128   4.802   3.743   9.981  0.8327 -0.1384  0.0307
15224SOL    HW250129   4.666   3.681   9.958  0.2361  1.3203 -0.4811
15225SOL     OW50130   5.779   9.450   1.411 -0.0273 -0.6085 -0.7340
15225SOL    HW150131   5.694   9.433   1.371 -0.0876 -0.7061 -0.5647
15225SOL    HW250132   5.822   9.364   1.416 -1.0707 -1.0842  1.8181
15226SOL     OW50133   4.563   9.673   2.523  0.0513 -0.3897 -0.1794
15226SOL    HW150134   4.540   9.586   2.489 -0.5629 -0.4985  0.4875
15226SOL    HW250135   4.504   9.686   2.597  0.0744  0.6418 -0.3303
15227SOL     OW50136   9.277   8.879   2.352 -0.2069  0.0056  0.2128
15227SOL    HW150137   9.288   8.974   2.341 -2.7999  0.4323  0.7003
15227SOL    HW250138   9.210   8.855   2.287  0.7926 -1.6121 -0.2654
15228SOL     OW50139   1.100   3.210   5.979 -0.1246 -0.0557  0.3260
15228SOL    HW150140   1.072   3.252   6.060 -2.2105 -0.1050 -0.3174
15228SOL    HW250141   1.136   3.281   5.926 -0.4722  0.3079  0.5734
15229SOL     OW50142   0.825   7.898   7.370  0.2189 -0.1495 -0.3386
15229SOL    HW150143   0.796   7.947   7.292  1.9219  2.3360  0.4826
15229SOL    HW250144   0.757   7.915   7.435 -0.3193 -0.7907 -0.7127
15230SOL     OW50145   2.588   3.428   9.928  0.0788  0.4755  0.6907
15230SOL    HW150146   2.647   3.394   9.996 -1.3643  0.9264  2.2354
15230SOL    HW250147   2.526   3.482   9.976 -1.6169 -0.0188 -0.8693
15231SOL     OW50148   6.589  10.558   7.443  0.5366 -0.3616 -0.0206
15231SOL    HW150149   6.634  10.604   7.514 -0.2808  0.2557  0.1102
15231SOL    HW250150   6.618  10.602   7.363  1.6424 -1.2087 -0.1222
15232SOL     OW50151   5.418   7.796   8.915  0.1975  0.3777 -0.4694
15232SOL    HW150152   5.344   7.829   8.966  0.5539 -1.1239  1.0915
15232SOL    HW250153   5.385   7.717   8.872  0.8069 -0.1600  0.0326
15233SOL     OW50154   0.628   2.980   0.406 -0.2386  0.5971 -0.2044
15233SOL    HW150155   0.679   2.979   0.324 -0.9467  1.6762 -0.6763
15233SOL    HW250156   0.680   3.033   0.466  0.8978 -1.1965  0.5055
15234SOL     OW50157   5.997   6.997   7.329 -0.5393  0.1654  0.4010
15234SOL    HW150158   6.070   6.938   7.348  0.2278  1.1094  0.4131
15234SOL    HW250159   6.008   7.020   7.237 -0.2280  1.1156  0.6695
15235SOL     OW50160   5.761   1.922   3.806  0.1515  0.4966  0.2875
15235SOL    HW150161   5.721   1.950   3.724  1.7451  1.0119 -0.3535
15235SOL    HW250162   5.693   1.936   3.872 -0.3479  2.4489 -0.5699
15236SOL     OW50163   9.960  10.862   1.093  0.1843 -0.1105  0.2334
15236SOL    HW150164   9.922  10.776   1.077 -0.2290 -0.0448  0.8353
15236SOL    HW250165  10.034  10.845   1.152 -1.7974  0.2240  3.0638
15237SOL     OW50166   7.014   4.976   0.353  0.1803  0.1437  0.0482
15237SOL    HW150167   6.975   5.063   0.346  0.6843  0.3996  0.3680
15237SOL    HW250168   6.950   4.918   0.313 -0.1408  0.6680 -0.2112
15238SOL     OW50169   0.422   7.127   9.762 -0.4807  0.8743 -0.1613
15238SOL    HW150170   0.485   7.055   9.748 -1.6026 -0.3795  0.9334
15238SOL    HW250171   0.476   7.206   9.764  0.9245 -0.0456 -0.3845
15239SOL     OW50172   9.706   2.393   1.523 -0.1344  0.3470  0.2173
15239SOL    HW150173   9.712   2.338   1.602  0.6368  0.0897 -0.0143
15239SOL    HW250174   9.615   2.423   1.522 -0.3046 -0.1181  0.8921
15240SOL     OW50175   7.307  10.475   4.979 -0.5137  0.6983 -0.8842
15240SOL    HW150176   7.298  10.525   4.898  0.9784 -0.1623 -1.6149
15240SOL    HW250177   7.321  10.385   4.950 -2.2864 -0.0464  0.3874
15241SOL     OW50178  10.105   9.850   2.205  0.3755 -0.2528 -0.3906
15241SOL    HW150179  10.142   9.928   2.246 -0.3844 -0.6386  1.0702
15241SOL    HW250180  10.011   9.856   2.220  0.4555 -2.2796  1.2801
15242SOL     OW50181   9.531  10.404   0.610 -0.0198 -0.3154  0.3238
15242SOL    HW150182   9.453  10.365   0.650  0.2592 -0.9399  0.2720
15242SOL    HW250183   9.604  10.373   0.664  0.2153  0.0552  0.2217
15243SOL     OW50184   5.527   8.148   7.707  0.5478  0.2825 -0.0363
15243SOL    HW150185   5.510   8.084   7.776 -0.4231  1.2095  0.6157
15243SOL    HW250186   5.459   8.214   7.719  0.0602  0.2314 -2.1901
15244SOL     OW50187   6.801   1.663   5.770 -0.2855 -0.2008  0.0171
15244SOL    HW150188   6.884   1.708   5.782 -1.7700  2.6309  0.7460
15244SOL    HW250189   6.763   1.657   5.858 -1.2728 -0.5068 -0.4087
15245SOL     OW50190   4.180   7.082   8.128  0.1298  0.8352 -0.0926
15245SOL    HW150191   4.207   7.007   8.075 -0.8518  0.9066 -0.7276
15245SOL    HW250192   4.212   7.158   8.079 -0.5880  0.8933 -0.4811
15246SOL     OW50193   2.329   1.933   5.478  0.3260  0.9446 -0.4260
15246SOL    HW150194   2.340   1.839   5.492 -1.4171  0.8494  0.6123
15246SOL    HW250195   2.319   1.943   5.383 -0.7328 -0.1090 -0.4529
15247SOL     OW50196   5.744   7.390   8.068  0.2401  0.0379  0.3197
15247SOL    HW150197   5.648   7.387   8.072  0.0716  0.5328 -2.0774
15247SOL    HW250198   5.767   7.329   7.998  1.6797  0.1140  0.7003
15248SOL     OW50199   2.717   7.624   8.465 -0.4633  0.0803 -0.1211
15248SOL    HW150200   2.651   7.567   8.426 -0.3545  0.3404 -0.6973
15248SOL    HW250201   2.800   7.589   8.432 -0.4058  0.6750 -0.6183
15249SOL     OW50202  10.398   2.882   0.872  0.4743  0.5162  0.0238
15249SOL    HW150203  10.450   2.802   0.875  2.4029  1.5776 -2.1830
15249SOL    HW250204  10.370   2.889   0.781  1.2275  2.8427 -0.0791
15250SOL     OW50205   9.418   5.374   5.249 -0.3467 -0.3073 -0.1521
15250SOL    HW150206   9.356   5.434   5.209 -0.0497 -0.3700 -0.7146
15250SOL    HW250207   9.368   5.331   5.319 -0.5314  0.6585  0.3247
15251SOL     OW50208   7.584   2.291   8.813 -0.5347  0.0757 -0.3596
15251SOL    HW150209   7.508   2.260   8.863 -0.8576  2.2450  0.6116
15251SOL    HW250210   7.654   2.299   8.878 -0.5775  1.6437 -0.4556
15252SOL     OW50211   8.150   6.818   6.159  0.5558 -0.0233 -0.0830
15252SOL    HW150212   8.102   6.884   6.208  0.5237  0.9751 -1.4022
15252SOL    HW250213   8.082   6.768   6.114  0.5679 -1.1138  1.0623
15253SOL     OW50214   5.018   1.450   5.331 -0.0379 -0.2780 -0.1090
15253SOL    HW150215   5.045   1.360   5.348  1.1570 -0.3834 -2.2342
15253SOL    HW250216   5.019   1.492   5.417 -0.0994 -2.1345  0.8506
15254SOL     OW50217   8.688   0.918  10.794 -0.4330 -0.4487 -0.0332
15254SOL    HW150218   8.757   0.918  10.727 -0.1357  0.6222  0.2702
15254SOL    HW250219   8.630   0.990  10.769 -0.3191 -0.0414  0.8659
15255SOL     OW50220  10.772   4.806   6.428 -0.1769  0.4305  0.3146
15255SOL    HW150221  10.771   4.892   6.386  0.2162  0.8718  1.1796
15255SOL    HW250222  10.725   4.749   6.367 -1.7944  1.5861  0.4327
15256SOL     OW50223   1.166   5.168   0.331  0.1288  0.4348  0.5083
15256SOL    HW150224   1.185   5.138   0.420 -1.4486 -0.6260  0.5321
15256SOL    HW250225   1.071   5.161   0.323  0.1936  0.8892 -1.1423
15257SOL     OW50226   5.576   0.310   9.915  0.3964 -0.4891 -0.0857
15257SOL    HW150227   5.667   0.289   9.934  0.5352 -0.8314 -1.0345
15257SOL    HW250228   5.556   0.387   9.968  0.7311 -1.3915  1.3881
15258SOL     OW50229   0.313   0.172  10.001  0.0689 -0.8573  0.4430
15258SOL    HW150230   0.311   0.205  10.091 -0.3207 -3.0098  1.2994
15258SOL    HW250231   0.290   0.079  10.009 -0.5838 -0.9779 -1.9662
15259SOL     OW50232   9.478   7.996   2.098 -0.4156  0.4398 -0.0780
15259SOL    HW150233   9.503   7.912   2.137 -1.5398 -0.1074 -0.4708
15259SOL    HW250234   9.428   7.971   2.020  1.2222  1.4894 -1.5385
15260SOL     OW50235   9.387  10.825  10.182 -0.3045  0.5220 -0.3871
15260SOL    HW150236   9.441  10.831  10.103  0.9645  0.5201  0.4498
15260SOL    HW250237   9.438  10.871  10.250 -1.9692  1.6626  0.1342
15261SOL     OW50238  10.632   2.039   0.906  0.5650  0.6134 -0.3780
15261SOL    HW150239  10.613   2.088   0.825  0.9332 -1.5384 -1.8459
15261SOL    HW250240  10.574   1.964   0.903  2.7937 -1.2207 -0.3132
15262SOL     OW50241  10.618   8.821   2.988 -0.1951  0.1954  0.3828
15262SOL    HW150242  10.685   8.876   2.946 -0.2826 -0.1631 -0.2386
15262SOL    HW250243  10.634   8.733   2.952 -0.0836 -0.1847  1.3278
15263SOL     OW50244  10.791   5.974   9.202 -0.2025  1.0297  0.0576
15263SOL    HW150245  10.753   5.925   9.275  0.0703  1.9163  0.8049
15263SOL    HW250246  10.863   5.918   9.171 -0.8081  0.2927 -0.0461
15264SOL     OW50247   7.024   2.360   4.314  0.1975 -0.2456  0.3754
15264SOL    HW150248   6.948   2.303   4.326 -0.2315  0.1947 -0.2514
15264SOL    HW250249   7.098   2.299   4.307 -0.1723 -0.6995  0.3827
15265SOL     OW50250   3.147  10.804   9.385  0.0921  0.3340  0.1801
15265SOL    HW150251   3.185  10.868   9.445  1.7418 -0.3958 -0.0205
15265SOL    HW250252   3.194  10.723   9.404  0.4734  0.0144 -1.8941
15266SOL     OW50253   8.735   8.938  10.892  0.0692 -0.5872 -0.0331
15266SOL    HW150254   8.705   8.889  10.969 -1.0119  0.1744  0.0541
15266SOL    HW250255   8.739   8.872  10.822 -0.1431 -1.0468  0.3797
15267SOL     OW50256  10.965   4.267  10.278 -0.3027  0.2591  0.2586
15267SOL    HW150257  10.977   4.340  10.217  0.8093  0.0776  0.2469
15267SOL    HW250258  10.874   4.240  10.265 -0.2042  0.4872 -1.0320
15268SOL     OW50259   2.559   1.590   9.111 -0.4093 -0.1269 -0.1193
15268SOL    HW150260   2.525   1.679   9.120  1.0376  0.4249  0.2525
15268SOL    HW250261   2.504   1.549   9.045 -0.9817  1.1146 -0.4336
15269SOL     OW50262   4.662   8.699   8.398  0.2271  0.3178  0.6758
15269SOL    HW150263   4.700   8.759   8.335  1.9990  1.5360  2.7591
15269SOL    HW250264   4.660   8.615   8.353  0.4937  1.3085 -1.2923
15270SOL     OW50265  10.515   6.944  10.413  0.0987 -0.3919 -0.4713
15270SOL    HW150266  10.516   6.994  10.494  2.3477 -0.0537 -0.6241
15270SOL    HW250267  10.499   7.009  10.345 -1.4273 -0.6218 -0.3713
15271SOL     OW50268  10.979   8.556  10.095  0.3142 -0.2526  0.1658
15271SOL    HW150269  10.894   8.524  10.124 -0.0673  0.6168  0.0176
15271SOL    HW250270  11.023   8.585  10.174 -0.6171  1.8576 -0.0276
15272SOL     OW50271   1.893   6.353   0.283 -0.2686  0.0542 -0.2218
15272SOL    HW150272   1.943   6.295   0.342  0.5173  1.1369  0.2035
15272SOL    HW250273   1.861   6.294   0.214  0.1848 -0.9572  0.4008
15273SOL     OW50274   2.802   6.778  10.749 -0.1163  0.5116 -0.0987
15273SOL    HW150275   2.898   6.782  10.745 -0.1353  0.6728 -0.4704
15273SOL    HW250276   2.779   6.832  10.825  0.0752  0.7091 -0.1774
15274SOL     OW50277   4.032   2.994  10.880 -0.0701  0.2158  0.3427
15274SOL    HW150278   3.997   3.065  10.933 -1.6804  1.0367 -1.6515
15274SOL    HW250279   3.965   2.926  10.884 -0.8034  0.7627 -1.4585
15275SOL     OW50280   7.480  10.555   5.938  0.3600  0.1798  0.1706
15275SOL    HW150281   7.433  10.478   5.907  1.3587  0.2829 -1.7767
15275SOL    HW250282   7.565  10.521   5.967  0.4843  0.4288  0.1011
15276SOL     OW50283   9.396  10.924   6.165  0.1742 -0.3730  0.3468
15276SOL    HW150284   9.306  10.931   6.198 -0.1874 -1.8690 -0.2391
15276SOL    HW250285   9.426  11.014   6.156 -1.0227  0.1332  1.2020
15277SOL     OW50286   1.151   9.616   2.005  0.4435 -0.1860  1.0442
15277SOL    HW150287   1.088   9.564   2.054  1.0012 -0.9169  1.0184
15277SOL    HW250288   1.102   9.692   1.973 -0.0523  0.0217  2.2634
15278SOL     OW50289   4.479   2.930   1.727 -0.4754 -0.3437 -0.2757
15278SOL    HW150290   4.436   2.985   1.792  0.9645  0.1633  0.2768
15278SOL    HW250291   4.524   2.992   1.670  0.5051 -0.9082 -0.1285
15279SOL     OW50292   0.610   9.205   8.563  0.3184 -0.3397  0.1648
15279SOL    HW150293   0.537   9.220   8.623 -0.3569 -0.2234 -0.6632
15279SOL    HW250294   0.672   9.275   8.582 -0.6140  0.6633 -0.3474
15280SOL     OW50295   8.512   3.561   8.701  0.3952 -0.5711 -1.0687
15280SOL    HW150296   8.452   3.604   8.763  0.6962 -0.7753 -0.6327
15280SOL    HW250297   8.506   3.468   8.723  0.8243 -0.5981 -1.0607
15281SOL     OW50298   3.120   5.834   1.233 -0.6522 -0.2744 -0.1395
15281SOL    HW150299   3.056   5.764   1.223  0.4892 -0.9975 -4.7977
15281SOL    HW250300   3.068   5.915   1.228 -1.4614 -0.8404 -1.2660
15282SOL     OW50301   9.504   0.552   8.447 -0.1593  0.5691  0.0833
15282SOL    HW150302   9.567   0.541   8.375 -1.3341 -1.1431 -0.7418
15282SOL    HW250303   9.552   0.604   8.512  2.1166 -0.6019 -0.5280
15283SOL     OW50304   2.103   1.479   0.446 -0.1917 -0.0747  0.2537
15283SOL    HW150305   2.125   1.541   0.516 -2.6064  1.5983 -0.3394
15283SOL    HW250306   2.010   1.461   0.458 -0.1381 -1.5518 -1.1900
15284SOL     OW50307   9.857   2.711   2.825  0.4027  0.2599  0.3056
15284SOL    HW150308   9.923   2.649   2.791 -0.8777 -2.0799  1.8172
15284SOL    HW250309   9.777   2.689   2.778  0.0532  1.2349  0.4231
15285SOL     OW50310   5.671   7.359   0.413  0.3331  0.1121  0.5294
15285SOL    HW150311   5.749   7.409   0.439  0.7114  0.5126 -1.2376
15285SOL    HW250312   5.706   7.281   0.370 -0.2676 -0.8726  1.7589
15286SOL     OW50313   1.075   8.939   5.815 -0.6667 -0.4542 -0.2573
15286SOL    HW150314   1.133   8.946   5.892 -0.5957 -0.9107 -0.2638
15286SOL    HW250315   1.046   9.029   5.799  0.1398 -0.1941 -0.3266
15287SOL     OW50316   5.213   2.905   2.274  0.0856  0.2859 -0.7844
15287SOL    HW150317   5.228   2.952   2.356 -0.8068 -0.6130 -0.0745
15287SOL    HW250318   5.256   2.820   2.287  0.8914  0.5367 -1.6907
15288SOL     OW50319   8.198   3.323   0.756 -0.3833  0.0677 -0.1803
15288SOL    HW150320   8.169   3.396   0.701 -0.4911 -0.4442 -0.8065
15288SOL    HW250321   8.286   3.303   0.724 -0.0644  0.3866  0.4721
15289SOL     OW50322   0.142   1.465   5.182 -0.1345  0.4055 -0.2630
15289SOL    HW150323   0.102   1.544   5.146 -0.6909 -0.1901 -0.9966
15289SOL    HW250324   0.068   1.406   5.199  0.1500  0.5349  1.5636
15290SOL     OW50325   2.816   6.230   2.388 -0.1170 -0.1518 -0.2711
15290SOL    HW150326   2.738   6.282   2.409  1.6404  2.9591 -0.8729
15290SOL    HW250327   2.865   6.227   2.470 -0.0259 -0.5894 -0.3402
15291SOL     OW50328   3.170   7.695   3.038  0.2042 -0.1218  0.2006
15291SOL    HW150329   3.232   7.765   3.061  1.5236 -0.4234 -2.1070
15291SOL    HW250330   3.179   7.631   3.109  1.3826  0.5486  0.6878
15292SOL     OW50331   2.861   2.531   2.078 -0.0477  0.3613 -0.0845
15292SOL    HW150332   2.832   2.461   2.136  1.3173 -0.1450  0.0149
15292SOL    HW250333   2.866   2.490   1.992 -1.2440  0.8963 -0.4438
15293SOL     OW50334   9.836   1.495  10.335  0.3192  0.3157 -0.1162
15293SOL    HW150335   9.754   1.512  10.381  0.3966  0.8679 -0.1733
15293SOL    HW250336   9.902   1.541  10.387  0.7570 -0.9717  0.5124
15294SOL     OW50337   4.092   4.888   5.618 -0.1069  0.1779 -0.1676
15294SOL    HW150338   4.116   4.929   5.701 -0.3743  0.5883 -0.2909
15294SOL    HW250339   4.114   4.954   5.551  1.7237 -0.7808 -0.5879
15295SOL     OW50340   9.267   1.657   4.881  0.2359  0.3888  0.0090
15295SOL    HW150341   9.208   1.723   4.919 -2.4974 -1.2696 -1.0573
15295SOL    HW250342   9.209   1.589   4.848  2.8123 -1.3879 -1.2159
15296SOL     OW50343   4.179   7.781   3.731 -0.1543  0.8213  0.2637
15296SOL    HW150344   4.094   7.737   3.739  0.2948 -0.1127  0.0032
15296SOL    HW250345   4.242   7.717   3.763  0.5614  1.1338 -0.4914
15297SOL     OW50346   3.287   2.702   7.325 -0.1832  0.2330 -0.3083
15297SOL    HW150347   3.282   2.734   7.416  0.3711  2.4096 -0.9670
15297SOL    HW250348   3.195   2.690   7.299 -0.3668  0.1058  0.3835
15298SOL     OW50349   5.849   9.934   1.980  0.3746 -0.0567 -0.5269
15298SOL    HW150350   5.815   9.856   2.023 -1.5936 -0.3119 -2.3733
15298SOL    HW250351   5.939   9.942   2.012  0.2616 -2.3962  0.5786
15299SOL     OW50352   2.202   1.176   5.089  0.3249 -0.2427 -0.1686
15299SOL    HW150353   2.108   1.180   5.110  0.0622 -0.0009 -1.3144
15299SOL    HW250354   2.206   1.122   5.010  0.9790  0.9289 -0.9731
15300SOL     OW50355   8.818  10.224   0.874 -0.6086  0.0478 -0.0611
15300SOL    HW150356   8.748  10.171   0.837  0.3795 -1.2154 -0.1974
15300SOL    HW250357   8.857  10.168   0.942  0.1564  0.7774  0.1233
15301SOL     OW50358   9.927   7.222   1.945 -0.4000 -0.5564  0.3706
15301SOL    HW150359   9.858   7.156   1.936  0.9504 -2.0698  0.7181
15301SOL    HW250360   9.887   7.292   1.997 -1.0760 -2.3405  2.4146
15302SOL     OW50361   7.883   6.355   7.611 -0.1286  0.6459 -0.3322
15302SOL    HW150362   7.856   6.267   7.638  1.1057  0.4742  0.3896
15302SOL    HW250363   7.835   6.413   7.670 -0.3414  0.4288 -0.2875
15303SOL     OW50364   9.457   5.795   9.237 -0.6075  0.0938 -0.3240
15303SOL    HW150365   9.440   5.886   9.264  1.0818  0.8313 -1.6236
15303SOL    HW250366   9.433   5.743   9.314 -2.5801  1.5084  0.1187
15304SOL     OW50367   6.137  10.136   5.024 -0.1426  0.0456  0.1085
15304SOL    HW150368   6.141  10.054   4.975  1.3331  0.2299 -0.1330
15304SOL    HW250369   6.109  10.201   4.960 -1.7005 -0.3132  0.3934
15305SOL     OW50370   2.102   2.222   1.780 -0.0660 -0.0803  0.4607
15305SOL    HW150371   2.137   2.311   1.771  0.8537 -0.2944  1.5186
15305SOL    HW250372   2.017   2.234   1.821  1.2661  0.2702  3.4511
15306SOL     OW50373  10.265   2.089   0.661 -0.7961  0.1412 -0.0230
15306SOL    HW150374  10.238   2.109   0.571  0.7674  1.5352 -0.2303
15306SOL    HW250375  10.197   2.030   0.694 -0.0884 -2.6048 -2.9504
15307SOL     OW50376   5.916  10.712   1.184 -0.1735 -0.0069 -0.3672
15307SOL    HW150377   5.933  10.733   1.093  1.4398 -1.4663 -0.4584
15307SOL    HW250378   5.925  10.795   1.231 -1.4131  0.8286 -1.5400
15308SOL     OW50379   5.270   8.801   7.830 -0.3795  0.1094  0.4124
15308SOL    HW150380   5.185   8.823   7.868 -0.1014  1.5296  0.2456
15308SOL    HW250381   5.333   8.820   7.900 -0.1599 -0.7039  0.4507
15309SOL     OW50382   8.290   1.443   9.963 -0.1762 -0.1442 -0.3340
15309SOL    HW150383   8.354   1.494   9.912 -1.6492  1.4427 -0.7301
15309SOL    HW250384   8.253   1.381   9.900  0.7337 -0.8568 -0.1795
15310SOL     OW50385   6.397   2.513   4.138  0.0569  0.5572  0.3504
15310SOL    HW150386   6.393   2.431   4.187  0.7844  0.5294  0.3665
15310SOL    HW250387   6.345   2.575   4.190 -1.8276 -0.2748 -0.4385
15311SOL     OW50388   8.475   8.406   0.565 -0.3203 -0.0388  0.8660
15311SOL    HW150389   8.391   8.405   0.520  0.4084 -1.6610 -0.5332
15311SOL    HW250390   8.469   8.336   0.630  0.6256 -1.5931 -0.6443
15312SOL     OW50391   8.756   0.429  10.296  0.1247  0.3590 -0.0563
15312SOL    HW150392   8.702   0.357  10.330  0.9039 -0.5506 -0.6640
15312SOL    HW250393   8.846   0.400  10.312  0.5276  0.0790 -2.3931
15313SOL     OW50394   6.562   5.789  10.538  0.0678 -0.2934 -0.2618
15313SOL    HW150395   6.559   5.874  10.581  1.3514 -0.2618 -0.1861
15313SOL    HW250396   6.541   5.807  10.447 -0.6687 -0.0546 -0.0494
15314SOL     OW50397   8.582   8.522   8.161  0.0827 -0.3993  0.3539
15314SOL    HW150398   8.591   8.434   8.197  0.0359  0.4624  2.6803
15314SOL    HW250399   8.665   8.564   8.179  0.0392  0.1002 -0.5747
15315SOL     OW50400   7.479   8.186   9.073  0.7780  0.2252 -0.4604
15315SOL    HW150401   7.386   8.164   9.080  0.5673  1.5634  2.2626
15315SOL    HW250402   7.481   8.281   9.079  2.3344  0.2516 -1.0410
15316SOL     OW50403   6.666  10.293   7.320  0.2573  0.7013  0.4121
15316SOL    HW150404   6.609  10.361   7.283 -0.6966  0.6491  1.7517
15316SOL    HW250405   6.754  10.317   7.289 -0.5681 -0.0771 -2.9842
15317SOL     OW50406   6.020   0.944   2.821 -0.5196 -0.5167 -0.3004
15317SOL    HW150407   5.971   1.010   2.771 -0.2924 -1.2879 -1.5841
15317SOL    HW250408   6.050   0.991   2.899 -0.3506  0.9242 -1.1883
15318SOL     OW50409   8.522   3.201   3.865  0.2788 -0.0425  0.0651
15318SOL    HW150410   8.527   3.266   3.936 -0.8556 -0.5715  0.6521
15318SOL    HW250411   8.480   3.125   3.905  1.3062 -1.0400 -0.7016
15319SOL     OW50412   5.466   9.294   2.809 -0.6630 -0.0293 -0.0129
15319SOL    HW150413   5.554   9.300   2.845 -0.6675 -0.0090 -0.0053
15319SOL    HW250414   5.469   9.345   2.728 -0.3018 -1.1164 -0.7142
15320SOL     OW50415   8.701   4.514   7.068 -0.1520 -0.1108  0.4487
15320SOL    HW150416   8.756   4.589   7.093  1.0167 -0.7346 -0.1276
15320SOL    HW250417   8.666   4.481   7.151  1.9246 -0.8526  1.0946
15321SOL     OW50418   6.522   2.397   5.512 -0.1441  0.1629 -0.1640
15321SOL    HW150419   6.427   2.405   5.503 -0.1234 -1.3626 -2.4444
15321SOL    HW250420   6.535   2.311   5.551  0.3197  0.1790 -0.2725
15322SOL     OW50421   7.986   5.819   6.464  0.2450 -0.4846  0.3248
15322SOL    HW150422   7.985   5.914   6.450 -1.8444 -0.4595  0.2317
15322SOL    HW250423   8.077   5.793   6.451  0.7779  1.4464 -0.0711
15323SOL     OW50424   1.281   4.261   0.802  0.2869 -0.0162 -0.1656
15323SOL    HW150425   1.332   4.308   0.737 -0.3000  0.6091 -0.1931
15323SOL    HW250426   1.231   4.197   0.752 -0.6048  0.8516 -0.4349
15324SOL     OW50427   3.869   3.616   8.646  0.6056 -0.1703 -0.0809
15324SOL    HW150428   3.846   3.695   8.696 -2.3168 -0.7842 -0.2553
15324SOL    HW250429   3.876   3.646   8.555 -0.9528 -0.1084 -0.2145
15325SOL     OW50430  11.027  11.018   4.124  0.1690  0.2521 -0.2466
15325SOL    HW150431  11.047  11.004   4.032 -0.0361  2.8935 -0.7840
15325SOL    HW250432  10.996  11.109   4.128  2.4385  1.0818  2.7101
15326SOL     OW50433   7.800   8.018   3.643 -0.4872 -0.3074 -0.2658
15326SOL    HW150434   7.813   8.070   3.564  1.8490 -0.2175  0.1232
15326SOL    HW250435   7.805   8.081   3.715  0.4982 -0.7859  0.1051
15327SOL     OW50436  10.515   7.380   6.822 -0.0128 -0.1350 -0.0312
15327SOL    HW150437  10.499   7.465   6.780 -1.1063 -0.4859 -0.3594
15327SOL    HW250438  10.532   7.402   6.913 -0.8348  0.4108  0.0017
15328SOL     OW50439  10.186   8.385   9.093 -0.6305 -0.0425 -0.5949
15328SOL    HW150440  10.166   8.406   9.002  2.2875 -0.0637 -1.3665
15328SOL    HW250441  10.191   8.470   9.137  1.9787  0.3930 -1.5246
15329SOL     OW50442   5.731   8.492   0.278  0.3272  0.6793  0.2380
15329SOL    HW150443   5.798   8.549   0.317 -1.3730  0.6508  3.5630
15329SOL    HW250444   5.724   8.419   0.339 -3.9779  1.6114  1.2104
15330SOL     OW50445   3.587   4.681   0.234 -0.0034  0.0539 -0.4531
15330SOL    HW150446   3.612   4.655   0.323  0.8841  0.1265 -0.6766
15330SOL    HW250447   3.648   4.751   0.211  0.7026 -0.9005 -1.6410
15331SOL     OW50448   0.187   9.905   1.729  0.0066  0.2396 -0.3348
15331SOL    HW150449   0.209   9.820   1.691 -1.2495  0.4697 -1.6983
15331SOL    HW250450   0.128   9.884   1.801  1.3445 -0.1278  0.6999
15332SOL     OW50451   0.023   8.547   3.874  0.0080  0.3668 -0.1587
15332SOL    HW150452  -0.019   8.633   3.868  0.7009  0.7477  0.2430
15332SOL    HW250453   0.106   8.565   3.920  0.9730 -0.2371 -1.6053
15333SOL     OW50454   6.383   6.057   9.942 -0.2996  0.2725  0.3325
15333SOL    HW150455   6.311   6.055  10.004  0.6331 -1.3345  1.4362
15333SOL    HW250456   6.427   5.972   9.953  1.8436  1.2430 -0.1598
15334SOL     OW50457   9.765   3.945  10.476  0.2647  0.2581  0.2075
15334SOL    HW150458   9.838   3.888  10.500  0.0906 -0.4516 -0.9146
15334SOL    HW250459   9.739   3.987  10.558  0.9373 -0.6380  0.8864
15335SOL     OW50460   3.615   3.490   2.829  0.1962 -0.2489 -0.0986
15335SOL    HW150461   3.666   3.570   2.817 -0.1239 -0.1036 -0.4864
15335SOL    HW250462   3.583   3.496   2.919 -0.8065  0.6437 -0.4829
15336SOL     OW50463   5.644   4.007   9.894  0.5039  0.1385 -0.1374
15336SOL    HW150464   5.644   3.922   9.937  3.7392  0.6819  1.2514
15336SOL    HW250465   5.663   3.987   9.802  0.3366 -0.6721 -0.0012
15337SOL     OW50466   2.549   0.861   2.344  0.6259  0.3506  0.2975
15337SOL    HW150467   2.550   0.785   2.403  0.6288  0.4757  0.4582
15337SOL    HW250468   2.456   0.876   2.326  0.6066  0.5187  0.5358
15338SOL     OW50469   6.109   4.778   4.274  0.1735 -0.7290 -0.4537
15338SOL    HW150470   6.148   4.712   4.217 -0.0993 -2.4242  1.2209
15338SOL    HW250471   6.150   4.763   4.360  1.7984  2.7715 -0.4315
15339SOL     OW50472   2.191   0.582   3.335 -0.5054 -0.2800  0.2054
15339SOL    HW150473   2.152   0.669   3.348 -1.1242 -0.5616  0.2936
15339SOL    HW250474   2.120   0.531   3.296 -0.7383 -1.2519  1.8162
15340SOL     OW50475   4.193   6.678   1.561  0.1981  0.2864 -0.3951
15340SOL    HW150476   4.245   6.738   1.507  0.7721  1.2975  1.1966
15340SOL    HW250477   4.107   6.720   1.567 -0.0499 -0.1266 -0.9884
15341SOL     OW50478   4.438   8.617   2.098 -0.7449  0.1447  0.1743
15341SOL    HW150479   4.434   8.526   2.127 -3.0373  0.1204 -0.1028
15341SOL    HW250480   4.440   8.612   2.003  1.8707  0.3775  0.1273
15342SOL     OW50481   1.384   9.930   1.089  0.0997  0.0440  0.2788
15342SOL    HW150482   1.474   9.905   1.111 -0.4521 -1.0822  1.3879
15342SOL    HW250483   1.333   9.850   1.100 -0.7203  0.0457 -2.6075
15343SOL     OW50484   4.090   3.505   3.134  0.8185  0.5367 -0.3951
15343SOL    HW150485   4.099   3.514   3.229  1.4888  0.8668 -0.4910
15343SOL    HW250486   4.068   3.413   3.121  0.6295  0.5098  0.0831
15344SOL     OW50487   6.775   8.106   0.751  0.6818  0.1158 -0.8056
15344SOL    HW150488   6.714   8.180   0.751  2.7862  1.9773  0.8312
15344SOL    HW250489   6.819   8.111   0.666 -1.1349 -1.0884 -1.8935
15345SOL     OW50490   1.059   5.155   5.966 -0.4870  0.0293 -0.4151
15345SOL    HW150491   1.115   5.158   5.888  0.0891  2.8031  0.0195
15345SOL    HW250492   1.047   5.246   5.991 -0.2732 -0.7819  3.0689
15346SOL     OW50493  10.289   9.753   6.320  0.1458 -0.3157  0.0214
15346SOL    HW150494  10.377   9.719   6.304 -0.1980 -0.7887 -0.9515
15346SOL    HW250495  10.260   9.709   6.399  0.0820 -1.5785 -0.6864
15347SOL     OW50496   1.172   0.409   4.352 -0.0374 -0.3605 -0.2578
15347SOL    HW150497   1.132   0.450   4.276  1.5912  0.7722 -0.5649
15347SOL    HW250498   1.266   0.419   4.338  0.3193  0.2717  2.0841
15348SOL     OW50499   7.242   9.277   6.438 -0.4026 -0.1312  0.8271
15348SOL    HW150500   7.235   9.202   6.380  0.2068 -0.7647  1.5483
15348SOL    HW250501   7.202   9.349   6.390 -1.8371 -1.1211  0.4908
15349SOL     OW50502   1.328   3.264   6.419  0.2195  0.4405 -0.4517
15349SOL    HW150503   1.252   3.292   6.470 -1.8921 -1.9624 -1.9848
15349SOL    HW250504   1.326   3.318   6.340  1.7244  2.1257  0.5929
15350SOL     OW50505   7.014  10.382   5.052 -0.1918  0.6016  0.1096
15350SOL    HW150506   7.075  10.435   5.000 -0.2004 -0.0841 -0.6029
15350SOL    HW250507   6.928  10.418   5.031 -0.2091  0.2219 -0.4775
15351SOL     OW50508   0.083   4.225   1.527  0.1126  0.5794 -0.4778
15351SOL    HW150509   0.095   4.157   1.593 -0.5950 -1.1482 -2.0381
15351SOL    HW250510   0.108   4.306   1.571  0.2781 -0.5767  1.6819
15352SOL     OW50511   8.904   4.002   7.825 -0.5485  0.1798  0.3511
15352SOL    HW150512   8.896   4.084   7.874  1.8527  2.5866 -2.8366
15352SOL    HW250513   8.990   3.968   7.850 -1.1009 -0.8704  0.8759
15353SOL     OW50514   4.601   2.263  10.285 -0.3088 -0.4093 -0.2312
15353SOL    HW150515   4.590   2.194  10.220  0.2783  0.3082 -1.1158
15353SOL    HW250516   4.515   2.273  10.325 -1.3928  0.9490 -2.7368
15354SOL     OW50517   5.516   9.312   5.469 -0.4587 -0.0336 -0.1828
15354SOL    HW150518   5.455   9.244   5.440  0.4392 -0.0147 -2.3345
15354SOL    HW250519   5.511   9.380   5.402 -0.3891  1.4606  1.2663
15355SOL     OW50520   2.559   7.554  10.410 -0.3708  0.4112 -0.1770
15355SOL    HW150521   2.629   7.618  10.413  0.5479 -0.4536 -1.8028
15355SOL    HW250522   2.535   7.548  10.317 -0.3401 -1.6459 -0.1121
15356SOL     OW50523   1.799  10.576   7.868 -0.7469  0.5130  0.3066
15356SOL    HW150524   1.874  10.518   7.856 -1.7151 -0.6353 -0.4563
15356SOL    HW250525   1.809  10.643   7.800 -2.4616 -1.9350 -2.6262
15357SOL     OW50526   2.576   8.761   5.528  0.2102  0.3158  0.6101
15357SOL    HW150527   2.542   8.786   5.614 -0.1470  0.0632  0.5490
15357SOL    HW250528   2.504   8.711   5.489  0.5027  0.1325  0.3050
15358SOL     OW50529   9.185  10.616  10.879  0.4755 -0.4016  0.0002
15358SOL    HW150530   9.191  10.523  10.902  1.5083 -0.2201  0.5185
15358SOL    HW250531   9.106  10.622  10.825  0.2007 -1.5186  0.2484
15359SOL     OW50532   4.605   3.408   7.286 -0.0786 -0.2108  0.2163
15359SOL    HW150533   4.573   3.318   7.287  0.6429 -0.4911 -0.5933
15359SOL    HW250534   4.581   3.441   7.200  1.6994 -0.4173 -0.4036
15360SOL     OW50535   6.378   8.512   1.638 -0.3401 -0.1352  0.2817
15360SOL    HW150536   6.405   8.427   1.672  1.5617  0.6624  0.8903
15360SOL    HW250537   6.415   8.514   1.549  1.3766  0.8114  0.9809
15361SOL     OW50538   1.606   7.843   9.419 -0.0963 -0.2317  0.2100
15361SOL    HW150539   1.604   7.757   9.378  1.3707  0.5716 -1.6929
15361SOL    HW250540   1.566   7.830   9.505 -3.3397 -2.0253 -1.3886
15362SOL     OW50541   7.000   5.523   9.685 -0.3515  0.0232  0.3297
15362SOL    HW150542   7.009   5.578   9.763 -1.3179  1.3303 -0.4332
15362SOL    HW250543   6.995   5.434   9.718 -0.6761  0.5523  1.7600
15363SOL     OW50544   2.857   7.472   8.053 -0.8196 -0.1430  0.5225
15363SOL    HW150545   2.793   7.405   8.077 -1.0054  0.3949  1.6413
15363SOL    HW250546   2.902   7.493   8.136  0.1533  0.1576 -0.0646
15364SOL     OW50547   6.197   1.566   5.878  0.0949 -0.1970  0.7969
15364SOL    HW150548   6.137   1.536   5.946  0.3005  1.3254  1.6837
15364SOL    HW250549   6.225   1.653   5.906  2.3097 -0.6221  0.1385
15365SOL     OW50550   7.277   1.382   8.917 -0.8031 -0.1838  0.2448
15365SOL    HW150551   7.254   1.308   8.862  1.9108 -1.5061  0.7527
15365SOL    HW250552   7.315   1.446   8.857  2.5240 -1.7840  0.4382
15366SOL     OW50553   5.085   5.148   1.333  0.3713  0.2758  0.2392
15366SOL    HW150554   5.137   5.185   1.262 -0.2008  1.0199  0.1895
15366SOL    HW250555   4.999   5.132   1.294 -0.0156  0.9068  0.8018
15367SOL     OW50556   9.110  10.586   3.157 -0.8574 -0.0518  0.1678
15367SOL    HW150557   9.175  10.652   3.132  0.2969 -1.1490  0.1959
15367SOL    HW250558   9.063  10.626   3.231  0.2247  0.5155  0.5694
15368SOL     OW50559   2.428   0.234   3.915 -0.6470  0.3784  0.1567
15368SOL    HW150560   2.400   0.284   3.991 -2.6425 -0.9181  0.3351
15368SOL    HW250561   2.524   0.235   3.920 -0.7070  1.3530  1.9914
15369SOL     OW50562   2.776  10.755   9.712 -0.2645 -0.1671  0.4065
15369SOL    HW150563   2.741  10.756   9.623  0.1210  2.3173  0.1954
15369SOL    HW250564   2.864  10.792   9.704  0.1058 -0.7082  1.7076
15370SOL     OW50565   2.530   4.504   1.133 -0.8851 -1.0172  0.3526
15370SOL    HW150566   2.559   4.437   1.070 -1.7854 -1.7360  0.6816
15370SOL    HW250567   2.590   4.494   1.207  2.3970  2.0176 -1.5365
15371SOL     OW50568   2.883   1.146   9.570 -0.2119 -0.1947  0.6490
15371SOL    HW150569   2.820   1.074   9.558 -0.7233  0.0158  1.9175
15371SOL    HW250570   2.829   1.225   9.571  0.2964  0.1729 -0.2379
15372SOL     OW50571   3.641   9.445   0.718 -0.5999 -0.0934 -0.1597
15372SOL    HW150572   3.671   9.380   0.654 -0.9820 -0.9887  0.5564
15372SOL    HW250573   3.582   9.502   0.669 -1.8374 -1.4835 -0.3566
15373SOL     OW50574   9.358   4.089   8.244  0.1406 -0.5923  0.1996
15373SOL    HW150575   9.421   4.020   8.223 -0.7092 -1.2850 -0.0993
15373SOL    HW250576   9.279   4.042   8.271 -0.3368  0.2703  0.3269
15374SOL     OW50577   6.925   4.216   7.487  0.5782  0.0948  0.3771
15374SOL    HW150578   7.013   4.182   7.500 -0.1232 -1.7359  0.6242
15374SOL    HW250579   6.935   4.286   7.422  2.4996  1.4891  2.0355
15375SOL     OW50580   3.755   7.516  10.770 -0.4632  0.3573  0.6978
15375SOL    HW150581   3.847   7.523  10.793 -0.1082  2.9906 -1.0732
15375SOL    HW250582   3.712   7.583  10.824 -1.2971 -0.5147  1.1506
15376SOL     OW50583   2.238   5.108  10.728 -0.2781  0.4702 -0.0464
15376SOL    HW150584   2.291   5.136  10.654  2.2967 -1.4077  0.9257
15376SOL    HW250585   2.212   5.190  10.771  2.1582  1.5436 -0.4357
15377SOL     OW50586   0.328   3.145   8.113 -0.0925 -0.3085 -0.0610
15377SOL    HW150587   0.289   3.135   8.026 -0.1767 -1.6143  0.0931
15377SOL    HW250588   0.401   3.083   8.114 -0.2344 -0.4836  0.8660
15378SOL     OW50589   5.666   2.829   9.973  0.0648 -0.1459  0.3251
15378SOL    HW150590   5.712   2.746   9.975  0.1496 -0.0947  1.2913
15378SOL    HW250591   5.696   2.872   9.893 -1.1310 -1.6591 -0.9891
15379SOL     OW50592   3.719   0.234   8.929  0.2957  0.0641 -0.3670
15379SOL    HW150593   3.679   0.154   8.893  1.7480 -0.0963 -1.7447
15379SOL    HW250594   3.768   0.204   9.005 -2.2190  0.2932  1.4795
15380SOL     OW50595   9.356   3.728   5.104 -0.7069  0.4421  0.2469
15380SOL    HW150596   9.399   3.813   5.095  0.0886  0.1640  1.2193
15380SOL    HW250597   9.282   3.745   5.163 -1.1568  0.6589 -0.3746
15381SOL     OW50598   3.399   8.917   8.832  0.0275 -0.0744 -0.2308
15381SOL    HW150599   3.489   8.893   8.809 -0.3512 -0.6991 -1.0936
15381SOL    HW250600   3.346   8.884   8.760 -1.3000 -2.6739  1.7753
15382SOL     OW50601   4.347   3.171   1.825  0.1096 -0.4637 -0.5221
15382SOL    HW150602   4.274   3.114   1.800  1.7481 -1.7815 -2.7681
15382SOL    HW250603   4.320   3.258   1.797 -0.7016 -0.9014 -1.1554
15383SOL     OW50604   9.817   6.920   0.513  0.2744 -0.8038 -0.2363
15383SOL    HW150605   9.818   7.004   0.467  0.4982 -0.5723  0.1831
15383SOL    HW250606   9.910   6.897   0.523  0.2153 -1.0883 -0.3189
15384SOL     OW50607   3.877   0.496  10.205 -0.0443 -0.1133  0.4010
15384SOL    HW150608   3.795   0.461  10.240  0.7602 -1.8519  0.6789
15384SOL    HW250609   3.850   0.565  10.145 -1.6372  0.1988  1.4221
15385SOL     OW50610   6.012   9.066   4.655 -0.2242  0.4599 -0.0511
15385SOL    HW150611   6.100   9.034   4.679  0.8610  2.8371 -0.5569
15385SOL    HW250612   5.989   9.125   4.726 -0.8053  0.9107 -0.6110
15386SOL     OW50613  10.626   9.299  10.206  0.1108 -0.0949  0.4949
15386SOL    HW150614  10.666   9.379  10.240  0.4968  0.3046 -0.8559
15386SOL    HW250615  10.680   9.274  10.131 -0.2266 -1.4200  0.6581
15387SOL     OW50616   3.999   6.364  10.889  0.1449 -0.1277  0.5441
15387SOL    HW150617   4.053   6.285  10.894 -1.1552 -1.1380 -0.5707
15387SOL    HW250618   4.057   6.435  10.917  1.2902 -1.4879  1.8062
15388SOL     OW50619   7.634   6.443   7.789  0.2731  0.1895  0.1562
15388SOL    HW150620   7.633   6.539   7.795  0.6096  0.2288 -0.3355
15388SOL    HW250621   7.571   6.423   7.720  1.5171  0.1658 -0.9874
15389SOL     OW50622   2.493   2.469  10.411  0.2873 -0.0238  0.0716
15389SOL    HW150623   2.525   2.504  10.495  0.3388  0.4853 -0.1583
15389SOL    HW250624   2.558   2.497  10.347  0.8167 -1.3320  0.0158
15390SOL     OW50625   0.571   4.362   0.411  0.0381 -0.1779 -0.5246
15390SOL    HW150626   0.511   4.368   0.485 -0.7002 -0.8774 -1.0463
15390SOL    HW250627   0.658   4.378   0.449 -0.6204  3.1212 -0.1115
15391SOL     OW50628   3.910   4.981   9.495 -0.1973  0.1157 -0.6801
15391SOL    HW150629   3.836   5.015   9.444  0.6244  0.2037 -1.8691
15391SOL    HW250630   3.904   4.886   9.486 -1.0520  0.0401  0.5413
15392SOL     OW50631   6.663   4.238   9.995  0.2966 -0.0727  0.4105
15392SOL    HW150632   6.678   4.295   9.919 -0.5387 -1.8244 -1.1591
15392SOL    HW250633   6.609   4.167   9.961 -0.2443 -0.8577  2.7237
15393SOL     OW50634   7.815   5.530  10.148  0.4667  0.3549  0.1085
15393SOL    HW150635   7.900   5.567  10.172  1.5373 -0.3495 -2.2120
15393SOL    HW250636   7.770   5.601  10.102  1.1636 -0.1578 -1.4436
15394SOL     OW50637  10.152   6.316   1.563 -0.5812  0.3850 -0.2835
15394SOL    HW150638  10.234   6.267   1.558 -0.7044  0.1175  0.1646
15394SOL    HW250639  10.177   6.407   1.550  0.0442  0.5195  1.5325
15395SOL     OW50640   1.896   3.990   1.733 -0.1072 -0.1492 -0.0158
15395SOL    HW150641   1.833   4.047   1.687 -0.8361 -1.3237 -0.5328
15395SOL    HW250642   1.898   4.024   1.822 -0.8043  0.4734 -0.2208
15396SOL     OW50643   7.642   6.181   0.595  0.3757  0.2712  0.4751
15396SOL    HW150644   7.682   6.180   0.682 -0.4753 -0.5102  0.8760
15396SOL    HW250645   7.556   6.142   0.608 -0.1512  1.0466 -0.5461
15397SOL     OW50646   3.172   4.803   1.546 -0.0355 -0.1071  0.9536
15397SOL    HW150647   3.213   4.889   1.548 -1.3983  0.5595  1.8602
15397SOL    HW250648   3.132   4.798   1.459 -0.4244  0.4132  1.0991
15398SOL     OW50649   1.076   1.620   3.340  0.3774 -0.2734  0.1323
15398SOL    HW150650   1.135   1.565   3.392  1.6451  1.0565  0.1464
15398SOL    HW250651   1.051   1.564   3.266  1.2109 -1.0552  0.4222
15399SOL     OW50652   0.375   6.204   2.600  0.2696 -0.5088 -0.2022
15399SOL    HW150653   0.404   6.140   2.665 -1.0442 -0.2880  0.6341
15399SOL    HW250654   0.455   6.244   2.568  1.0454 -1.7673  0.0944
15400SOL     OW50655   2.691   5.927   5.668 -0.3346 -0.1409  0.4041
15400SOL    HW150656   2.785   5.930   5.687 -0.0571 -1.6339 -0.6307
15400SOL    HW250657   2.652   5.981   5.737  1.1057 -0.9401  1.9216
15401SOL     OW50658   4.775   0.667   5.789 -0.3781  0.2654 -0.2141
15401SOL    HW150659   4.773   0.762   5.793  2.0694  0.3622  0.1208
15401SOL    HW250660   4.719   0.644   5.714  1.2975  2.1603 -2.1693
15402SOL     OW50661   8.122   0.176   9.506  0.3042  0.2574  0.5457
15402SOL    HW150662   8.165   0.255   9.474 -0.4293  0.4954  0.1096
15402SOL    HW250663   8.192   0.112   9.515  0.8123  0.7698  0.2819
15403SOL     OW50664   2.279   7.784   6.778 -0.0796  0.6095 -0.5272
15403SOL    HW150665   2.194   7.743   6.762  0.2074  0.1867 -0.9641
15403SOL    HW250666   2.258   7.860   6.832 -0.5160 -0.6192  1.1120
15404SOL     OW50667   3.900   6.235   0.603 -0.2319  0.4140 -0.0464
15404SOL    HW150668   3.960   6.231   0.528 -0.9397  1.5362 -0.6930
15404SOL    HW250669   3.957   6.219   0.679  0.3417 -1.7639 -0.8341
15405SOL     OW50670   3.842   1.605   9.170  0.2630  0.0100  0.2325
15405SOL    HW150671   3.870   1.670   9.105  1.2479 -0.0786  0.5509
15405SOL    HW250672   3.896   1.528   9.152 -0.0614 -0.3167  0.6189
15406SOL     OW50673   5.966   2.740   8.203  0.4365  0.4665  0.4162
15406SOL    HW150674   5.998   2.668   8.148 -2.5576 -1.1536  0.5788
15406SOL    HW250675   5.910   2.791   8.145  1.5909  2.0318  0.6255
15407SOL     OW50676   0.026   8.182   9.102 -0.5700  0.6421 -0.1406
15407SOL    HW150677   0.103   8.194   9.047  1.4982  0.3008  2.5028
15407SOL    HW250678  -0.023   8.111   9.059  2.5202 -1.7499 -0.0486
15408SOL     OW50679  10.446   6.077  10.539 -0.0625 -0.2668  0.1666
15408SOL    HW150680  10.375   6.099  10.478  0.7776  2.6937  0.0952
15408SOL    HW250681  10.492   6.004  10.497 -1.2743 -0.2639 -1.2448
15409SOL     OW50682   0.539   8.057   4.190 -0.1336  0.2573  0.0157
15409SOL    HW150683   0.492   8.073   4.108  0.2473 -0.8623 -0.4317
15409SOL    HW250684   0.518   8.133   4.244 -2.3409 -0.1239 -0.2252
15410SOL     OW50685  10.421   7.681   5.222  0.1462  0.5251 -0.4936
15410SOL    HW150686  10.471   7.737   5.281  0.6513 -1.1151  0.7157
15410SOL    HW250687  10.389   7.610   5.278 -1.4014  0.1743 -1.7447
15411SOL     OW50688   9.544   1.782   5.713  0.0980 -0.0399 -0.3189
15411SOL    HW150689   9.581   1.773   5.801  0.1650 -0.7496 -0.4177
15411SOL    HW250690   9.484   1.857   5.720 -2.6407 -2.1886  1.3043
15412SOL     OW50691   7.767   0.729   3.811  0.4918  0.3709 -0.1336
15412SOL    HW150692   7.749   0.732   3.717  0.7962 -1.2153 -0.2696
15412SOL    HW250693   7.862   0.720   3.817  0.3104 -1.9630  0.1996
15413SOL     OW50694   8.798   6.372   9.112 -0.1085  0.0119 -0.2871
15413SOL    HW150695   8.852   6.347   9.187 -1.0789 -0.7566  0.1845
15413SOL    HW250696   8.847   6.443   9.069 -0.5271  2.0779  2.3530
15414SOL     OW50697  10.467   1.415  11.065  0.3360  0.2984 -0.0564
15414SOL    HW150698  10.556   1.450  11.072  0.3049  0.6440 -1.1571
15414SOL    HW250699  10.476   1.339  11.006 -0.0480  0.1598  0.0611
15415SOL     OW50700   6.382  10.145   7.610 -0.6638  0.0887  0.2135
15415SOL    HW150701   6.306  10.149   7.668 -0.6971 -3.0061  0.5384
15415SOL    HW250702   6.457  10.147   7.670 -0.6955 -2.9492  0.4828
15416SOL     OW50703  10.108   8.320   7.591  0.4478  0.5682 -0.2060
15416SOL    HW150704  10.040   8.383   7.615  0.1329  1.0750 -2.2939
15416SOL    HW250705  10.167   8.368   7.534  0.1287 -1.0304 -1.9837
15417SOL     OW50706   2.321   2.847   1.481  0.3003  0.2779  0.4132
15417SOL    HW150707   2.256   2.917   1.480 -1.6026 -1.4177 -0.3478
15417SOL    HW250708   2.270   2.767   1.480  2.4132 -1.1630  1.3796
15418SOL     OW50709   2.103   2.450   5.009  0.7074  0.1607 -0.2378
15418SOL    HW150710   2.141   2.459   5.097 -0.3665 -0.1751  0.2734
15418SOL    HW250711   2.163   2.499   4.953  0.6559  1.6018  0.8861
15419SOL     OW50712   7.190   8.874   8.035  0.0566 -0.6616  0.2853
15419SOL    HW150713   7.189   8.887   7.941  0.1560 -0.6855  0.2805
15419SOL    HW250714   7.187   8.962   8.072 -0.1528 -0.6573  0.2619
15420SOL     OW50715   2.837   0.239   3.103 -0.7040 -0.5598  0.2606
15420SOL    HW150716   2.846   0.186   3.024 -1.1560  0.9995 -0.8804
15420SOL    HW250717   2.925   0.271   3.121 -0.6532 -0.6669  0.2002
15421SOL     OW50718   8.389   5.010  10.962  0.1079  0.0631  0.3219
15421SOL    HW150719   8.468   5.001  10.909  0.1158 -0.4036  0.4126
15421SOL    HW250720   8.378   4.925  11.004 -0.1735  0.2759  0.6880
15422SOL     OW50721   3.635   2.555   9.283  0.3204 -0.2240  0.8505
15422SOL    HW150722   3.561   2.609   9.310 -1.2014 -2.2979  1.1072
15422SOL    HW250723   3.608   2.517   9.199  1.2467 -0.7254  0.7659
15423SOL     OW50724  10.712   9.463   8.864  0.3756 -0.1966  0.0495
15423SOL    HW150725  10.771   9.388   8.854  0.5417  0.1828 -2.4109
15423SOL    HW250726  10.624   9.426   8.864  0.5014 -0.5039  0.5349
15424SOL     OW50727   5.310   5.115   5.640  0.3821 -0.8264 -0.0724
15424SOL    HW150728   5.294   5.139   5.732  0.4978  1.5534 -0.6110
15424SOL    HW250729   5.345   5.195   5.600 -2.3302 -0.8432 -2.8556
15425SOL     OW50730   0.711   0.364   0.876 -0.1490  0.0432 -0.2355
15425SOL    HW150731   0.791   0.319   0.846 -0.7066 -0.4223 -1.0673
15425SOL    HW250732   0.640   0.315   0.836 -0.8697  0.3751  0.6192
15426SOL     OW50733  10.974   8.114   2.283 -0.1906  0.6547  0.3856
15426SOL    HW150734  11.018   8.194   2.256 -0.7477  0.8738  0.1043
15426SOL    HW250735  11.016   8.044   2.233 -0.5333  0.9322 -0.3001
15427SOL     OW50736   3.291   9.988   2.040  0.2877  0.3975 -0.8988
15427SOL    HW150737   3.377   9.949   2.030  0.8596  0.8733  1.5902
15427SOL    HW250738   3.253   9.946   2.117 -0.7065  1.8677 -0.5229
15428SOL     OW50739   2.485   0.708   0.261 -0.0625 -0.6094  0.2935
15428SOL    HW150740   2.430   0.656   0.320  0.0475 -0.4173  0.5672
15428SOL    HW250741   2.507   0.787   0.311 -0.8097  0.0370 -0.3641
15429SOL     OW50742   1.177   6.725   2.367 -0.1936 -0.1704 -0.0739
15429SOL    HW150743   1.216   6.687   2.445 -1.1446 -1.7022 -0.2941
15429SOL    HW250744   1.083   6.725   2.384 -0.3995 -0.3093 -1.1230
15430SOL     OW50745   5.157   5.763   3.293 -0.2088 -0.1374 -0.2843
15430SOL    HW150746   5.220   5.733   3.228  2.1582  1.0606  1.2787
15430SOL    HW250747   5.185   5.722   3.374 -2.7066 -1.0991  0.1758
15431SOL     OW50748   5.565   0.601   0.297  0.4972 -1.0762  0.0835
15431SOL    HW150749   5.638   0.580   0.355  0.0230 -1.4766  0.5395
15431SOL    HW250750   5.606   0.649   0.224  0.8899  1.0743  1.6026
15432SOL     OW50751   3.848   2.369   2.697  0.3375  0.2055  0.3756
15432SOL    HW150752   3.781   2.327   2.751 -0.1837 -0.5277 -0.8050
15432SOL    HW250753   3.917   2.393   2.759 -0.8019  0.5887  1.5669
15433SOL     OW50754   4.255   9.334   8.815 -0.0141  0.5039  0.0403
15433SOL    HW150755   4.221   9.351   8.727 -0.9765 -0.5261  0.1925
15433SOL    HW250756   4.233   9.242   8.833  1.3796  0.2873  0.8279
15434SOL     OW50757   1.217   5.401   1.936 -0.1060  0.1345 -0.1185
15434SOL    HW150758   1.286   5.381   1.998 -1.6101  0.8392  1.8807
15434SOL    HW250759   1.159   5.325   1.940 -0.6078  0.5139 -0.0828
15435SOL     OW50760  10.171   5.172   3.196  0.3302  0.6529 -0.0529
15435SOL    HW150761  10.253   5.218   3.175 -0.9068  2.0341 -2.1613
15435SOL    HW250762  10.200   5.093   3.242  3.0067  0.1314 -2.3326
15436SOL     OW50763   3.223   3.991   4.223  0.5712  0.2925 -0.0156
15436SOL    HW150764   3.230   4.081   4.255  0.7041  0.3752 -0.2706
15436SOL    HW250765   3.229   3.936   4.301  3.5650  0.3629 -0.0834
15437SOL     OW50766   6.718   7.475   6.362 -0.5262  0.0049  0.8930
15437SOL    HW150767   6.678   7.391   6.384 -1.0466  0.1101  0.3975
15437SOL    HW250768   6.798   7.452   6.315 -0.7521 -0.2219  0.6121
15438SOL     OW50769   6.458   7.016   1.075  0.3760  0.0534  0.2003
15438SOL    HW150770   6.419   7.031   0.989  0.4861  0.6286  0.2445
15438SOL    HW250771   6.553   7.024   1.060  0.5376 -1.7666  0.0067
15439SOL     OW50772   1.696   3.011   0.220  0.1874 -0.0835 -0.3285
15439SOL    HW150773   1.732   2.932   0.180  0.7891 -0.0280  0.0830
15439SOL    HW250774   1.629   2.979   0.280  0.4355 -0.2891 -0.1577
15440SOL     OW50775   0.022   2.827   6.079 -0.4365  0.0140 -0.4420
15440SOL    HW150776  -0.049   2.765   6.097 -2.8375  2.3380 -1.2405
15440SOL    HW250777  -0.013   2.912   6.107  2.1095  1.2642 -0.7840
15441SOL     OW50778   2.627   0.413   5.827 -0.2117 -0.0734  0.7726
15441SOL    HW150779   2.655   0.416   5.918  1.8420  1.3239  0.1684
15441SOL    HW250780   2.632   0.504   5.797  2.8212 -0.9044 -1.7085
15442SOL     OW50781   7.275  10.353   8.005  1.0893  0.1856  0.3097
15442SOL    HW150782   7.334  10.327   7.935 -0.4931  1.5830 -1.6571
15442SOL    HW250783   7.327  10.343   8.085  2.5730 -2.6810 -0.8579
15443SOL     OW50784   2.569   9.576   1.552  0.0911  0.0746 -0.0684
15443SOL    HW150785   2.506   9.550   1.484  0.3350 -0.8141  0.0360
15443SOL    HW250786   2.645   9.519   1.538  0.5370  0.5531  0.3433
15444SOL     OW50787   2.066   4.617   4.022  0.4750  0.1190 -0.0003
15444SOL    HW150788   2.018   4.534   4.030  0.0691  0.3502 -0.0453
15444SOL    HW250789   2.048   4.647   3.934 -0.6811  1.0571  0.5373
15445SOL     OW50790   1.974   6.102  10.606 -0.1935 -0.0217 -0.1023
15445SOL    HW150791   2.002   6.126  10.694  0.6141  0.8881 -0.5907
15445SOL    HW250792   1.955   6.009  10.612 -0.1098  0.0166  1.0241
15446SOL     OW50793   9.305   2.850  10.199  0.6190  0.3279 -0.5149
15446SOL    HW150794   9.311   2.931  10.250  2.5661 -0.5751  0.7867
15446SOL    HW250795   9.332   2.781  10.260 -0.4218 -1.2646 -1.7664
15447SOL     OW50796  10.985   4.530   4.709  0.0037  0.5411 -0.5269
15447SOL    HW150797  10.931   4.543   4.787  0.2145 -0.5252 -0.1939
15447SOL    HW250798  10.932   4.476   4.651  0.4342  0.0679 -0.4888
15448SOL     OW50799   9.095   0.897  10.286 -0.1518 -0.0320 -0.2364
15448SOL    HW150800   9.045   0.970  10.321  0.4919 -0.4972  1.8001
15448SOL    HW250801   9.039   0.820  10.301  0.5033 -0.3544  0.6628
15449SOL     OW50802  10.545   4.726   2.742  0.7690 -0.4846  0.3372
15449SOL    HW150803  10.573   4.635   2.733  0.2788 -0.6936  0.8482
15449SOL    HW250804  10.626   4.776   2.736  1.0422 -0.9534  0.0303
15450SOL     OW50805   0.444   9.415   2.286  0.1383  0.1515 -0.1022
15450SOL    HW150806   0.362   9.370   2.304 -0.9365  1.8323 -0.6014
15450SOL    HW250807   0.453   9.412   2.191 -0.3789  1.6335 -0.2280
15451SOL     OW50808   2.063   4.725   1.008  0.2145  0.0064 -0.4952
15451SOL    HW150809   2.005   4.738   0.932  0.3025 -0.1280 -0.5851
15451SOL    HW250810   2.148   4.758   0.978  0.5961 -1.3173 -0.9350
15452SOL     OW50811   0.749   3.135   1.493 -0.7893 -0.5648 -0.1889
15452SOL    HW150812   0.826   3.166   1.542 -0.9929  1.0506 -0.8365
15452SOL    HW250813   0.687   3.107   1.561 -0.2181 -0.4472  0.3889
15453SOL     OW50814   3.164  11.039   1.949  0.2907  0.2778  0.2886
15453SOL    HW150815   3.230  10.973   1.970  0.1355 -0.2429 -0.8061
15453SOL    HW250816   3.212  11.109   1.907  0.1057 -0.3219 -0.9694
15454SOL     OW50817   4.221   8.134   5.701  0.2243 -0.0931  0.1049
15454SOL    HW150818   4.173   8.173   5.774 -1.3359 -0.9832 -0.3967
15454SOL    HW250819   4.312   8.160   5.716 -0.3354  1.3667  1.2923
15455SOL     OW50820   2.021   2.198   4.250 -0.2277 -0.3546 -0.2866
15455SOL    HW150821   1.954   2.251   4.294  0.3725  0.5911 -0.4968
15455SOL    HW250822   1.981   2.173   4.167  0.4796  2.2400 -1.5308
15456SOL     OW50823   5.884   2.088   6.955  0.5106 -0.2176  0.5032
15456SOL    HW150824   5.945   2.156   6.925  0.9124 -1.1470 -0.8943
15456SOL    HW250825   5.917   2.007   6.916 -0.8291 -0.9746  0.8606
15457SOL     OW50826   7.405   9.080  10.156  0.4357  0.3335  0.2529
15457SOL    HW150827   7.486   9.073  10.106 -0.2581 -0.9493 -0.7568
15457SOL    HW250828   7.428   9.133  10.233  2.1578  0.1823 -0.1284
15458SOL     OW50829   8.383  10.015  10.313 -0.0824 -0.0875 -0.1505
15458SOL    HW150830   8.459  10.073  10.307  0.7201 -1.0940  0.0363
15458SOL    HW250831   8.396   9.951  10.243 -1.0734  0.0548 -0.4943
15459SOL     OW50832   0.159   5.570   5.719  0.1572  0.5420 -0.0004
15459SOL    HW150833   0.157   5.593   5.812  0.1066  1.3423 -0.1987
15459SOL    HW250834   0.239   5.518   5.709  1.6523  2.7477 -0.0372
15460SOL     OW50835   1.056  11.006   4.522  0.2639 -0.0336 -0.3671
15460SOL    HW150836   1.023  10.921   4.492  0.5239 -0.0207 -0.7057
15460SOL    HW250837   1.038  11.065   4.449  2.6955 -0.4180 -1.3769
15461SOL     OW50838   5.340  10.658   1.276  0.3575  0.3865 -0.3385
15461SOL    HW150839   5.353  10.694   1.364  1.2466 -0.3228 -0.1629
15461SOL    HW250840   5.428  10.640   1.244 -0.0186 -0.7572 -0.7797
15462SOL     OW50841   4.747   1.263   5.614 -0.8651 -0.6517  0.3471
15462SOL    HW150842   4.716   1.346   5.577 -2.0578 -1.1454  0.1851
15462SOL    HW250843   4.751   1.203   5.540  1.8357 -0.2930  0.1082
15463SOL     OW50844   6.410   7.327   5.400  0.7396  0.6280  0.4201
15463SOL    HW150845   6.378   7.362   5.317 -0.9578 -0.5164  0.5318
15463SOL    HW250846   6.433   7.236   5.381  1.9891  0.8383  0.8396
15464SOL     OW50847   7.860   5.698   5.492  0.2289 -0.3073  0.6904
15464SOL    HW150848   7.814   5.744   5.422  2.4700  1.1890  0.0705
15464SOL    HW250849   7.835   5.745   5.572 -0.0309 -0.0860  0.4795
15465SOL     OW50850   4.020   9.676   5.865  0.0882 -0.2325  0.3142
15465SOL    HW150851   3.947   9.715   5.817  0.8056  2.5295  1.2997
15465SOL    HW250852   4.059   9.614   5.804 -1.8365 -0.2764 -0.9430
15466SOL     OW50853   4.655   7.113   0.534  0.0911 -0.1176 -0.1060
15466SOL    HW150854   4.666   7.159   0.617  0.6967 -1.6806  0.7169
15466SOL    HW250855   4.565   7.080   0.536  0.3563 -0.8506  0.3283
15467SOL     OW50856   5.360   6.981  10.306  0.0924 -0.3534 -0.2760
15467SOL    HW150857   5.420   7.055  10.311 -0.5785  0.1637  0.4402
15467SOL    HW250858   5.409   6.907  10.343  0.9324 -0.4005 -1.4314
15468SOL     OW50859   2.789   3.888   2.508  0.7318 -0.3255 -0.8675
15468SOL    HW150860   2.730   3.871   2.581  0.6320  0.1577 -0.8354
15468SOL    HW250861   2.732   3.903   2.433  0.8067  0.2526 -0.8134
15469SOL     OW50862  10.176   6.226   7.870 -0.8175  0.2880  0.1386
15469SOL    HW150863  10.130   6.181   7.799  0.5290  1.3088 -1.4581
15469SOL    HW250864  10.259   6.179   7.877 -0.5425  0.8030  0.3467
15470SOL     OW50865   6.206   1.277   6.636 -0.1481 -0.0928 -0.2005
15470SOL    HW150866   6.266   1.203   6.648  1.4761  1.3199  0.9377
15470SOL    HW250867   6.207   1.293   6.541  1.4958  0.0207 -0.1916
15471SOL     OW50868  10.398   9.366   6.828  0.4343 -0.8786 -0.2004
15471SOL    HW150869  10.438   9.374   6.915  0.3468  2.0741 -0.3503
15471SOL    HW250870  10.464   9.319   6.776  2.4329  1.1199  0.3711
15472SOL     OW50871   0.930   4.847  10.057 -0.1717  0.9806 -0.3078
15472SOL    HW150872   1.014   4.859  10.101  0.4836 -1.2950 -0.8312
15472SOL    HW250873   0.940   4.767  10.006 -1.9336  1.8588 -2.1869
15473SOL     OW50874   0.145  10.417   4.929 -0.1038  0.6851  0.0139
15473SOL    HW150875   0.192  10.334   4.927 -2.7742 -0.9169 -1.0847
15473SOL    HW250876   0.159  10.450   5.018 -1.5695 -2.6226  1.6452
15474SOL     OW50877  10.378   8.806   8.433  0.1033  0.4503  0.0740
15474SOL    HW150878  10.472   8.817   8.426  0.2379  0.0223  1.0521
15474SOL    HW250879  10.358   8.828   8.524 -0.5563 -0.6752  0.2124
15475SOL     OW50880   3.481   2.254   1.488  0.4975 -0.9932  0.0567
15475SOL    HW150881   3.480   2.261   1.584 -0.1820  0.9080 -0.0473
15475SOL    HW250882   3.389   2.245   1.464  0.2305  2.1959 -0.5495
15476SOL     OW50883   9.452   0.521   9.161  0.2217  0.0134  0.4497
15476SOL    HW150884   9.487   0.477   9.084  4.1353  1.8480  0.9385
15476SOL    HW250885   9.458   0.455   9.231  1.9113 -0.0183  0.2977
15477SOL     OW50886   2.815  10.538   2.207 -0.0685 -0.2308  0.0883
15477SOL    HW150887   2.784  10.557   2.295 -0.2100 -0.9415  0.1956
15477SOL    HW250888   2.838  10.445   2.209  1.5651  0.1425 -0.1398
15478SOL     OW50889   2.206   7.594   2.305 -0.9376  0.1341  0.3053
15478SOL    HW150890   2.118   7.591   2.270 -0.2931  1.0310 -1.5342
15478SOL    HW250891   2.205   7.534   2.379 -2.9399 -0.2452  0.0224
15479SOL     OW50892  10.880   8.629   3.536 -0.3290  0.0384 -0.0462
15479SOL    HW150893  10.884   8.646   3.442  1.0447 -1.1321 -0.2343
15479SOL    HW250894  10.884   8.534   3.543 -1.2813  0.0682  1.1843
15480SOL     OW50895   3.340   0.882   4.298 -0.0091  0.0552 -0.1672
15480SOL    HW150896   3.244   0.872   4.302  0.1347 -2.9427 -1.5053
15480SOL    HW250897   3.358   0.957   4.354 -2.9864 -0.3735  1.6104
15481SOL     OW50898   1.770   0.575   4.380 -0.8225 -0.3221 -0.4991
15481SOL    HW150899   1.792   0.502   4.323 -0.8108 -0.2122 -0.6342
15481SOL    HW250900   1.816   0.556   4.462  0.7652  0.4908 -1.1461
15482SOL     OW50901   4.309   3.723   8.580 -0.2464 -0.5691 -0.4086
15482SOL    HW150902   4.342   3.786   8.644  1.2778 -0.8311 -0.9079
15482SOL    HW250903   4.351   3.641   8.602  0.0129 -0.7477 -1.5069
15483SOL     OW50904   7.122  10.693   5.890 -0.0066 -0.0759 -0.2545
15483SOL    HW150905   7.143  10.640   5.968  2.4613 -0.0262 -0.7888
15483SOL    HW250906   7.143  10.783   5.916 -0.5273  0.1332 -0.5503
15484SOL     OW50907   1.291   1.666   0.442  0.7245  0.6539  0.5062
15484SOL    HW150908   1.318   1.713   0.521  0.7367  2.1310 -0.3488
15484SOL    HW250909   1.195   1.663   0.448  0.6791  1.4526  0.1987
15485SOL     OW50910   2.172  11.006   0.903 -0.2144  0.8516 -0.3559
15485SOL    HW150911   2.082  11.004   0.935 -0.3066  0.9576 -0.6076
15485SOL    HW250912   2.182  11.094   0.867  0.4122  1.3177  0.8876
15486SOL     OW50913   9.273   7.996   9.385 -0.1651 -0.0345  0.1472
15486SOL    HW150914   9.304   7.941   9.313 -2.3510 -1.2462  0.0633
15486SOL    HW250915   9.292   7.944   9.464  0.1480  0.2730  0.2763
15487SOL     OW50916   1.945   2.974   2.820  0.1814 -0.4504  0.0404
15487SOL    HW150917   1.965   3.066   2.837 -0.2294  0.0337 -1.8562
15487SOL    HW250918   2.030   2.931   2.815  0.4140  0.0281 -0.1350
15488SOL     OW50919   6.028   5.222   7.836  0.1643 -0.2135 -0.3924
15488SOL    HW150920   6.026   5.127   7.827  1.2812 -0.2207 -0.6969
15488SOL    HW250921   6.087   5.252   7.767 -1.0133  0.8029 -0.9918
15489SOL     OW50922  10.493   7.959   0.305 -0.2181  0.0857 -0.5974
15489SOL    HW150923  10.420   8.021   0.298  0.0125  0.2564 -1.6753
15489SOL    HW250924  10.474   7.893   0.238  0.2734 -0.2322 -0.4227
15490SOL     OW50925   8.052   9.683  10.046  0.2948 -0.2168 -0.3966
15490SOL    HW150926   8.119   9.652  10.107 -1.0452 -2.8685 -0.1427
15490SOL    HW250927   7.995   9.608  10.033 -1.9168  1.5590 -1.6068
15491SOL     OW50928   9.097  11.065   2.447  0.9514  0.7299 -0.3584
15491SOL    HW150929   9.016  11.053   2.495  0.2828  1.4446 -1.2602
15491SOL    HW250930   9.071  11.114   2.368  1.8269 -1.0969 -1.8752
15492SOL     OW50931  10.056   6.102   0.747  0.0897 -0.2785  0.8112
15492SOL    HW150932   9.998   6.172   0.775 -0.8971 -1.1713  1.0588
15492SOL    HW250933  10.140   6.145   0.731 -0.6398  1.0485  0.4133
15493SOL     OW50934   4.520   8.370   3.260  0.2538  0.3865 -0.4537
15493SOL    HW150935   4.514   8.275   3.258 -0.5788  0.4247 -0.1094
15493SOL    HW250936   4.476   8.396   3.341  1.7189  0.9876  0.1822
15494SOL     OW50937   6.570  10.788   6.807 -0.3846 -0.6400  0.2690
15494SOL    HW150938   6.549  10.699   6.779 -0.4046 -0.1144 -1.4904
15494SOL    HW250939   6.640  10.816   6.749 -0.6694  0.6480  0.5090
15495SOL     OW50940   0.429   4.053   6.148 -0.1785 -0.4859  0.2654
15495SOL    HW150941   0.469   4.030   6.231  1.4093 -0.9158 -0.5768
15495SOL    HW250942   0.428   3.971   6.098 -0.9056 -0.1964 -0.2159
15496SOL     OW50943   1.841   2.371   8.410  0.3722  0.0633 -0.8199
15496SOL    HW150944   1.804   2.318   8.340  1.5335  1.0600 -2.2673
15496SOL    HW250945   1.833   2.461   8.378  0.1230  0.6315  0.7421
15497SOL     OW50946   0.327   2.283   9.424  0.0929  0.3183 -0.3717
15497SOL    HW150947   0.233   2.270   9.434 -0.2077  1.8465 -1.0238
15497SOL    HW250948   0.336   2.360   9.369  1.7200 -1.0328 -2.1630
15498SOL     OW50949   4.733   5.862   2.725 -0.0425  0.0117 -0.0518
15498SOL    HW150950   4.747   5.799   2.654 -1.3347 -1.1425  0.6596
15498SOL    HW250951   4.653   5.832   2.768 -0.2912  1.7444  0.7800
15499SOL     OW50952   2.068   8.279   7.090 -0.1848  0.3724 -0.0735
15499SOL    HW150953   2.023   8.293   7.007  1.1158 -0.3544 -0.9465
15499SOL    HW250954   2.102   8.190   7.084  1.1315  0.7970  0.6408
15500SOL     OW50955   9.102   8.458   3.697  0.2292 -0.1347  0.8001
15500SOL    HW150956   9.105   8.459   3.602  0.0041  1.3192  0.7848
15500SOL    HW250957   9.146   8.377   3.722  0.5262 -0.3996 -0.5238
15501SOL     OW50958   7.634   0.014   4.931  0.5060 -0.2512 -0.7246
15501SOL    HW150959   7.551  -0.026   4.958  0.0893  0.5543 -0.8051
15501SOL    HW250960   7.695  -0.060   4.929 -0.0291 -0.7402  0.0375
15502SOL     OW50961   5.871   5.545   2.817  0.2504  0.4335 -0.0313
15502SOL    HW150962   5.776   5.536   2.810  0.3276  0.8712 -2.2588
15502SOL    HW250963   5.895   5.489   2.891 -1.7996  0.9512  1.0942
15503SOL     OW50964   8.706   6.948   4.715  0.1194  0.3945 -0.3842
15503SOL    HW150965   8.728   6.957   4.622 -0.0246  1.8438 -0.3099
15503SOL    HW250966   8.623   6.994   4.724 -0.1186 -0.1615  0.3800
15504SOL     OW50967   7.702   9.872  10.493 -0.3630 -0.6914 -0.6065
15504SOL    HW150968   7.640   9.880  10.565  0.9314  0.5229  0.4413
15504SOL    HW250969   7.788   9.882  10.534  0.4276 -0.2009 -2.2916
15505SOL     OW50970  10.171   8.895   1.872  0.5460  0.1898  0.5978
15505SOL    HW150971  10.131   8.962   1.927  2.8208  0.6962  1.7759
15505SOL    HW250972  10.137   8.812   1.907 -1.2532  0.6405 -0.0051
15506SOL     OW50973   1.541   4.380   7.479  0.2914  0.0577 -0.5321
15506SOL    HW150974   1.555   4.449   7.544 -0.5313  1.7929 -2.0775
15506SOL    HW250975   1.617   4.384   7.422  0.4943 -0.7047 -0.3267
15507SOL     OW50976   9.062   4.783   3.940 -0.3447  0.1502  0.3935
15507SOL    HW150977   9.120   4.749   3.872  0.9006 -0.2363  1.5944
15507SOL    HW250978   9.086   4.875   3.949  0.2633 -0.0636  1.0446
15508SOL     OW50979   0.649  10.371   6.934 -0.1100  0.3742 -0.2347
15508SOL    HW150980   0.615  10.395   7.021 -1.4206 -0.8878 -0.3411
15508SOL    HW250981   0.703  10.293   6.950 -0.5077  0.0254 -0.5568
15509SOL     OW50982   4.627   3.547   7.533  0.4465 -0.1120  0.0201
15509SOL    HW150983   4.561   3.487   7.567 -1.3194  0.3453 -2.3702
15509SOL    HW250984   4.647   3.515   7.445  3.1789  0.0216  0.5007
15510SOL     OW50985   2.002   7.459   6.245 -0.5712 -0.2086 -1.0835
15510SOL    HW150986   1.979   7.456   6.338  2.5615  0.3958 -0.1715
15510SOL    HW250987   1.963   7.380   6.208 -0.4958 -1.3679  1.1353
15511SOL     OW50988   1.341   1.550   7.431 -0.1779  0.4908  0.2919
15511SOL    HW150989   1.365   1.466   7.471 -3.0712  0.3739  2.0229
15511SOL    HW250990   1.270   1.528   7.370 -1.2187  1.6894  1.0368
15512SOL     OW50991   9.675   0.012   2.332 -0.4728  0.4480  0.0514
15512SOL    HW150992   9.671   0.046   2.243  0.8868  1.3167  0.3017
15512SOL    HW250993   9.669   0.089   2.389 -0.4776 -0.0121  0.6946
15513SOL     OW50994   6.346   6.263   2.842  0.0891 -0.5053 -0.4601
15513SOL    HW150995   6.365   6.356   2.828 -1.8853  0.0405  0.1600
15513SOL    HW250996   6.407   6.236   2.911  0.3082  0.4750 -0.2546
15514SOL     OW50997   0.940  10.538  10.346 -0.2984  0.4589  0.8159
15514SOL    HW150998   0.860  10.584  10.370 -0.4193 -1.0453  3.6149
15514SOL    HW250999   0.923  10.447  10.368  0.9037 -0.6014 -2.0707
15515SOL     OW51000  10.292   6.478   0.553 -0.6823 -0.1829  0.3097
15515SOL    HW151001  10.316   6.444   0.639  2.1271 -0.5703 -0.5081
15515SOL    HW251002  10.272   6.399   0.502  3.2031 -0.6536 -0.8337
15516SOL     OW51003   9.410   8.313  10.811 -0.2394 -0.3031 -0.0877
15516SOL    HW151004   9.498   8.329  10.775  0.0237 -0.8815  0.2757
15516SOL    HW251005   9.351   8.355  10.749  0.3558  1.2849  0.3623
15517SOL     OW51006   1.192   2.159   4.032  0.0774 -0.2936  0.4126
15517SOL    HW151007   1.169   2.160   3.939 -1.0966  2.1116  0.6582
15517SOL    HW251008   1.108   2.163   4.078  0.6553  2.7279  1.4539
15518SOL     OW51009   6.803   7.763   5.134 -0.5352  0.1262 -0.4013
15518SOL    HW151010   6.839   7.697   5.075  0.6485  2.2515 -2.2248
15518SOL    HW251011   6.861   7.760   5.211 -0.4279 -0.8589 -0.5088
15519SOL     OW51012  10.701   6.126   3.039 -0.1129  0.2529  0.4855
15519SOL    HW151013  10.768   6.184   3.074 -0.6777  0.8105  0.6590
15519SOL    HW251014  10.706   6.137   2.944  0.7241 -0.4854  0.4284
15520SOL     OW51015   1.876   8.065   7.245 -0.6238 -0.0991  0.2666
15520SOL    HW151016   1.945   8.068   7.179  0.5722 -0.9374  1.4362
15520SOL    HW251017   1.919   8.091   7.326 -1.9165  0.2939  0.8545
15521SOL     OW51018  10.648   8.453   4.661  0.2937  0.0226 -0.2364
15521SOL    HW151019  10.561   8.479   4.630  0.4966  0.9130 -0.0952
15521SOL    HW251020  10.708   8.482   4.592  0.7920  2.4218  1.0764
15522SOL     OW51021   1.676   1.162   1.628  0.0095 -0.1706 -0.1684
15522SOL    HW151022   1.771   1.169   1.637  0.2231 -1.3180 -1.1865
15522SOL    HW251023   1.641   1.214   1.700  1.3402  3.4068 -1.8470
15523SOL     OW51024   8.470   6.570   1.796 -0.4200 -0.1227 -0.1879
15523SOL    HW151025   8.454   6.591   1.704 -0.3370 -0.8251 -0.3720
15523SOL    HW251026   8.546   6.511   1.795 -0.0573  0.3265  0.3798
15524SOL     OW51027   2.147  10.586   4.530  0.0357 -0.2336  0.2230
15524SOL    HW151028   2.216  10.605   4.466  0.8345  0.1583  1.1739
15524SOL    HW251029   2.168  10.498   4.563 -0.3675 -0.4314 -0.0328
15525SOL     OW51030   9.810   3.896   5.344  0.7127  0.0112  0.4366
15525SOL    HW151031   9.731   3.850   5.370  0.1599  0.9489  0.4685
15525SOL    HW251032   9.864   3.898   5.424  1.7890 -2.5757 -0.1506
15526SOL     OW51033   8.602   9.712   3.309  0.4102 -0.5696 -0.1200
15526SOL    HW151034   8.620   9.643   3.373  1.3243 -2.2976 -2.1250
15526SOL    HW251035   8.521   9.685   3.266  1.2145 -0.9038 -1.4981
15527SOL     OW51036   6.365   7.305  11.012  0.0389  0.7645  0.4805
15527SOL    HW151037   6.374   7.400  11.014 -1.4415  0.9291  2.5537
15527SOL    HW251038   6.288   7.286  11.066 -0.8508 -1.5258 -1.3816
15528SOL     OW51039   0.309   5.548   9.675 -0.1891  0.7581  0.0906
15528SOL    HW151040   0.346   5.567   9.589 -0.2577  0.7066  0.0488
15528SOL    HW251041   0.264   5.629   9.700 -0.3669  0.6958 -0.0259
15529SOL     OW51042   8.594   2.345   8.492 -0.0545  0.0808 -0.2257
15529SOL    HW151043   8.616   2.432   8.458 -0.4762  0.9462  1.6160
15529SOL    HW251044   8.661   2.327   8.559 -1.6575  0.3466  1.5273
15530SOL     OW51045   7.000   7.149   1.359  0.1613 -0.1500  0.1874
15530SOL    HW151046   6.943   7.115   1.428 -2.5944  1.4360 -1.1607
15530SOL    HW251047   6.986   7.091   1.285  0.8893 -0.1473  0.0368
15531SOL     OW51048   8.604   6.421   3.342  0.3997 -0.2211 -0.1997
15531SOL    HW151049   8.509   6.432   3.337  0.5255  1.0767  0.1062
15531SOL    HW251050   8.631   6.476   3.415  1.5724  0.7474 -1.3078
15532SOL     OW51051   2.245   8.913   9.862 -0.5324 -0.2521  0.3402
15532SOL    HW151052   2.333   8.910   9.825  0.1194 -3.6362  1.7704
15532SOL    HW251053   2.219   8.821   9.870 -3.9922  0.5838  0.5734
15533SOL     OW51054   9.931   2.501   0.474 -0.4171 -0.2540 -0.1691
15533SOL    HW151055   9.901   2.542   0.556  0.8523  0.6610 -0.1300
15533SOL    HW251056   9.869   2.533   0.408 -0.1712  0.7905  0.0776
15534SOL     OW51057   6.797   9.443   8.923  0.3211 -0.1518  0.3939
15534SOL    HW151058   6.785   9.535   8.901 -0.9675 -0.0429  1.4272
15534SOL    HW251059   6.886   9.423   8.894  0.0229  0.9278 -1.4499
15535SOL     OW51060   5.075   9.513   3.119 -0.1550  0.0479  0.6699
15535SOL    HW151061   4.995   9.527   3.169 -0.4710  0.5696  0.0310
15535SOL    HW251062   5.105   9.600   3.096  0.0665 -0.1774  0.0780
15536SOL     OW51063   8.218   9.163   7.651 -0.0645  0.2529 -0.4030
15536SOL    HW151064   8.262   9.082   7.626 -1.8729 -0.6219 -0.9068
15536SOL    HW251065   8.151   9.136   7.714 -0.8930  1.2886 -0.8104
15537SOL     OW51066   7.728   0.752   3.051  0.3264  0.3556  0.2282
15537SOL    HW151067   7.730   0.753   2.956  1.7577  1.6604  0.2254
15537SOL    HW251068   7.688   0.836   3.076  0.8381  0.4568  0.7502
15538SOL     OW51069   9.243   7.656   1.694  0.7793 -0.4850  0.1568
15538SOL    HW151070   9.299   7.622   1.624  0.8011 -0.2537  0.0599
15538SOL    HW251071   9.234   7.749   1.674 -0.4656 -0.7079 -0.3801
15539SOL     OW51072   4.525   0.112   7.995  0.0099  0.0821  0.3946
15539SOL    HW151073   4.570   0.033   7.965 -1.4257 -0.3406 -0.7911
15539SOL    HW251074   4.498   0.092   8.084  0.0941 -0.5683  0.2786
15540SOL     OW51075   5.716   0.466   0.600 -0.3239 -0.1950 -0.5539
15540SOL    HW151076   5.797   0.479   0.550 -0.5782  0.2248 -0.8669
15540SOL    HW251077   5.724   0.526   0.674 -0.7313  0.5030 -1.0618
15541SOL     OW51078  10.576   5.631   8.531 -0.0439 -0.4521  0.6991
15541SOL    HW151079  10.508   5.625   8.464  1.4840 -0.4823 -0.9009
15541SOL    HW251080  10.581   5.725   8.552 -0.3670 -0.4094  0.5884
15542SOL     OW51081   7.615   0.280   5.229  0.1502  0.2107  0.6819
15542SOL    HW151082   7.536   0.230   5.210  1.2478 -1.9168  1.2918
15542SOL    HW251083   7.668   0.272   5.149  0.1835  0.7194  0.6531
15543SOL     OW51084   8.045  11.064   0.005  0.0247 -0.0535 -0.4658
15543SOL    HW151085   7.953  11.083  -0.015  0.0576 -0.4226 -0.9987
15543SOL    HW251086   8.089  11.068  -0.080  0.8562  1.9945 -0.0001
15544SOL     OW51087   0.032  10.044   4.804 -0.1607 -0.4698 -0.1806
15544SOL    HW151088   0.109  10.072   4.755  0.4063  1.2906  1.5884
15544SOL    HW251089  -0.012   9.982   4.746  0.8047  0.9754 -2.6158
15545SOL     OW51090   7.204  10.313   8.467  0.5435  0.2977 -0.3878
15545SOL    HW151091   7.221  10.406   8.482 -1.4268  0.5547  0.4816
15545SOL    HW251092   7.271  10.268   8.519  1.1448  1.2211 -0.3517
15546SOL     OW51093   3.866   1.763   6.355 -0.0242 -0.1106  0.2292
15546SOL    HW151094   3.906   1.679   6.330  0.7452 -0.2448  1.8177
15546SOL    HW251095   3.827   1.795   6.274  0.7920 -1.3785 -0.7128
15547SOL     OW51096   0.801   0.325   2.728 -0.1784 -0.3601  0.0915
15547SOL    HW151097   0.766   0.240   2.755  1.3175 -1.0542 -0.0808
15547SOL    HW251098   0.799   0.378   2.808 -2.4692 -0.0418 -0.1172
15548SOL     OW51099   4.031   9.559  11.070 -0.1078  0.0094  0.1289
15548SOL    HW151100   4.088   9.623  11.027  0.7488 -1.7726 -1.5321
15548SOL    HW251101   4.092   9.494  11.107 -0.9865 -0.5513  0.6172
15549SOL     OW51102  11.052   6.941   9.048  0.2925 -0.3070 -0.9042
15549SOL    HW151103  11.087   6.865   9.002 -1.0919 -1.2832 -0.3792
15549SOL    HW251104  10.964   6.916   9.074  0.8543  0.3133  1.9841
15550SOL     OW51105   5.507  10.625   9.530 -0.3838 -0.0620 -0.2095
15550SOL    HW151106   5.455  10.627   9.611 -0.0608  1.1934 -0.0135
15550SOL    HW251107   5.442  10.611   9.461 -0.4655 -3.0747  0.3741
15551SOL     OW51108   8.922   8.022   1.204  0.5001  0.1207  0.4331
15551SOL    HW151109   8.918   8.118   1.196  1.8266  0.2012  0.4646
15551SOL    HW251110   8.996   7.997   1.149 -0.3154 -0.9891 -0.2102
15552SOL     OW51111   6.312   1.912   6.556 -0.0369  0.2302 -0.0287
15552SOL    HW151112   6.257   1.978   6.599 -0.6039  1.2167 -2.1513
15552SOL    HW251113   6.285   1.830   6.597 -0.4268  1.1058  1.5847
15553SOL     OW51114   7.976   3.206   1.859  0.2484  0.3424  0.2793
15553SOL    HW151115   7.932   3.122   1.847 -0.3242  0.4740  1.3976
15553SOL    HW251116   7.908   3.266   1.890  0.9654  0.8403  0.9263
15554SOL     OW51117   5.185   6.845   1.713 -0.3948 -0.0488 -0.5931
15554SOL    HW151118   5.089   6.839   1.716 -0.3019 -1.4314  0.2723
15554SOL    HW251119   5.204   6.936   1.736 -1.4909  0.2755 -0.8828
15555SOL     OW51120   9.751  10.465   1.819  0.1786  0.1524  0.2565
15555SOL    HW151121   9.696  10.470   1.897 -0.4989 -0.5894 -0.1668
15555SOL    HW251122   9.763  10.557   1.793  0.4284  0.4081  1.2274
15556SOL     OW51123   6.916   6.762   6.936  0.1036  0.2924  0.1502
15556SOL    HW151124   6.929   6.692   7.000  0.0536  0.4776  0.3653
15556SOL    HW251125   6.848   6.729   6.877  0.1759  0.1061  0.1721
15557SOL     OW51126   1.641   7.493   8.871  0.2961  0.0102  0.0924
15557SOL    HW151127   1.648   7.518   8.779  0.2360  1.4346  0.4631
15557SOL    HW251128   1.573   7.425   8.872 -0.7433  0.9957 -0.7412
15558SOL     OW51129   5.201   6.782   1.399  0.1223  0.3084  0.0441
15558SOL    HW151130   5.175   6.747   1.484  1.3213  1.4223  0.9064
15558SOL    HW251131   5.126   6.832   1.369 -0.4152 -0.3259  0.3032
15559SOL     OW51132   0.271   7.701   0.038 -0.6888 -0.0216  0.0175
15559SOL    HW151133   0.207   7.634   0.063 -0.7124 -0.0075 -0.0058
15559SOL    HW251134   0.218   7.775   0.009 -0.6559 -0.2184 -0.5546
15560SOL     OW51135   5.133   0.716   2.745  0.1765 -0.5497  0.1916
15560SOL    HW151136   5.160   0.625   2.729 -0.1529 -0.6594  0.2601
15560SOL    HW251137   5.206   0.768   2.712  0.5839 -0.8534  0.6157
15561SOL     OW51138   4.741   8.932   7.793  0.6012 -0.4079  0.0001
15561SOL    HW151139   4.692   8.959   7.871 -0.0585 -1.7796  0.0904
15561SOL    HW251140   4.825   8.903   7.827  1.1095  0.9319 -0.0429
15562SOL     OW51141   0.714   3.958   6.625  0.1546 -0.0882 -0.1085
15562SOL    HW151142   0.629   3.987   6.592 -0.2936 -0.0232  1.0802
15562SOL    HW251143   0.772   4.033   6.612 -0.7165  1.0003  1.8866
15563SOL     OW51144   9.528   6.326   8.951 -0.3619  0.0373  0.0684
15563SOL    HW151145   9.511   6.415   8.920  0.2764 -0.2967 -1.3141
15563SOL    HW251146   9.441   6.289   8.968 -0.6449  0.8135  0.3370
15564SOL     OW51147   0.364   4.947   0.379  0.0754 -0.0639 -0.0535
15564SOL    HW151148   0.343   5.035   0.409  1.5946  0.5401 -0.6677
15564SOL    HW251149   0.280   4.908   0.357 -0.5809  1.4289 -0.2805
15565SOL     OW51150   8.391   0.614   2.566  0.6266  1.0469 -0.0267
15565SOL    HW151151   8.383   0.683   2.632 -0.3598  2.6571 -1.7454
15565SOL    HW251152   8.479   0.626   2.529  0.4641  1.3976 -0.3101
15566SOL     OW51153   5.198   6.995   9.559 -0.1891  0.1301 -0.0071
15566SOL    HW151154   5.129   6.932   9.536  0.2230 -0.5591  0.6229
15566SOL    HW251155   5.262   6.987   9.488  0.0327 -0.4251  0.2491
15567SOL     OW51156   8.139  10.950   6.131 -0.0450  0.4192  0.4812
15567SOL    HW151157   8.076  11.020   6.152 -0.6956 -0.0266  0.0493
15567SOL    HW251158   8.158  10.963   6.038  1.4571  1.2906  0.8694
15568SOL     OW51159   8.314   0.879   1.886  0.0236  0.2038  0.5527
15568SOL    HW151160   8.300   0.784   1.887 -0.6262  0.2930  1.5472
15568SOL    HW251161   8.369   0.894   1.810 -1.1034 -0.7995 -0.5114
15569SOL     OW51162   0.372   4.253   2.353 -0.0423  0.1097  0.3736
15569SOL    HW151163   0.282   4.264   2.321  0.4472 -0.4111 -1.3291
15569SOL    HW251164   0.363   4.223   2.443 -1.5702  0.3318  0.3114
15570SOL     OW51165   6.938   0.270   0.147 -0.2715  0.4403 -0.0885
15570SOL    HW151166   6.892   0.265   0.063 -0.6830  0.0855  0.1511
15570SOL    HW251167   6.871   0.252   0.213 -0.4534  2.9535  0.5010
15571SOL     OW51168   1.783   8.419   2.036 -0.2072 -0.3260  0.3527
15571SOL    HW151169   1.743   8.369   1.965 -1.0731  0.2082  0.4478
15571SOL    HW251170   1.861   8.369   2.060  0.0736 -0.5449 -0.9404
15572SOL     OW51171   3.810   9.409   1.496  0.2407 -0.1246  0.1653
15572SOL    HW151172   3.893   9.425   1.451  0.6839 -3.0068 -0.2215
15572SOL    HW251173   3.836   9.389   1.586 -0.2049  0.5884  0.4595
15573SOL     OW51174   7.455   0.047   8.317 -0.1418  0.0230 -0.0357
15573SOL    HW151175   7.411   0.122   8.358  1.0841  0.9228 -0.3191
15573SOL    HW251176   7.516   0.086   8.254  1.6857 -1.1434  0.9444
15574SOL     OW51177   6.272   8.454   6.146 -0.4355  0.3274 -0.0748
15574SOL    HW151178   6.297   8.407   6.067 -0.8459  0.4945 -0.3078
15574SOL    HW251179   6.238   8.386   6.204 -0.5991  0.2731 -0.2335
15575SOL     OW51180   3.451   9.204   5.929  0.3684  0.4970 -0.5274
15575SOL    HW151181   3.388   9.141   5.893 -0.5100  1.1314 -0.1549
15575SOL    HW251182   3.474   9.169   6.015 -0.0683  0.6368 -0.3483
15576SOL     OW51183   8.495   1.204   1.654 -0.5129  0.2037  0.1770
15576SOL    HW151184   8.429   1.261   1.613 -0.3292 -0.0638 -0.5067
15576SOL    HW251185   8.469   1.200   1.746 -1.8408 -0.4094 -0.1925
15577SOL     OW51186   3.396   5.551  10.273  0.0189  0.2670 -0.4803
15577SOL    HW151187   3.315   5.599  10.251  0.0762  0.2538 -0.7295
15577SOL    HW251188   3.383   5.465  10.234 -0.4923 -0.2521  0.7910
15578SOL     OW51189  10.198   0.629   7.171 -0.5847 -0.4499 -0.3574
15578SOL    HW151190  10.283   0.587   7.155 -0.9086 -1.3450  0.2336
15578SOL    HW251191  10.164   0.587   7.249 -0.8799  1.0065  0.3434
15579SOL     OW51192   3.968  10.944   1.802 -0.6980 -0.4093 -0.0366
15579SOL    HW151193   3.918  10.999   1.741  0.9650 -0.4812 -1.5527
15579SOL    HW251194   4.049  10.992   1.817 -0.4684 -1.0846  1.0069
15580SOL     OW51195   5.304   5.585  10.982  0.0897 -0.3656 -0.1643
15580SOL    HW151196   5.341   5.539  11.058 -0.1048  1.6697  1.2305
15580SOL    HW251197   5.271   5.515  10.926  1.8593 -2.0352  0.7434
15581SOL     OW51198   3.598   7.827   2.653  0.1441  0.0691 -0.1266
15581SOL    HW151199   3.571   7.869   2.572 -1.3144 -0.1184  0.2260
15581SOL    HW251200   3.693   7.819   2.646  0.0979  0.5253 -1.5753
15582SOL     OW51201   6.307  10.552   6.529  0.3417 -0.1107  0.2085
15582SOL    HW151202   6.333  10.460   6.532  1.0129  0.0082 -1.2248
15582SOL    HW251203   6.382  10.597   6.488  0.1062  1.1037  1.0563
15583SOL     OW51204   0.287   6.866   3.354  0.6313 -0.0695  0.9071
15583SOL    HW151205   0.231   6.899   3.425 -0.8434 -3.2830  1.4511
15583SOL    HW251206   0.338   6.796   3.395 -0.2533 -2.0221 -1.1077
15584SOL     OW51207  10.834   5.030   4.676 -0.2355 -0.2717  0.6428
15584SOL    HW151208  10.800   4.987   4.755 -0.6659 -0.2407  0.4756
15584SOL    HW251209  10.765   5.090   4.650  0.1787  0.1932  0.6118
15585SOL     OW51210   3.434   7.674   4.702 -0.3478 -0.3947  0.4351
15585SOL    HW151211   3.367   7.615   4.669 -1.4952 -0.0870  2.0814
15585SOL    HW251212   3.455   7.640   4.789  0.2404  0.6021  0.6955
15586SOL     OW51213  10.086  10.550   2.791 -0.1674 -0.4418 -0.4635
15586SOL    HW151214  10.065  10.480   2.851  0.1358 -1.3467 -1.3812
15586SOL    HW251215  10.005  10.601   2.783  0.0232  0.2222  1.3410
15587SOL     OW51216   7.146   0.937   1.559  0.1341 -0.1595  0.0441
15587SOL    HW151217   7.104   0.951   1.644 -0.4877  1.8672 -0.5328
15587SOL    HW251218   7.074   0.913   1.500  0.4520 -0.8167 -0.0902
15588SOL     OW51219   5.065   9.181  10.637 -0.1108 -0.0517 -0.4649
15588SOL    HW151220   5.098   9.240  10.569 -1.0060  1.0531  0.0328
15588SOL    HW251221   4.990   9.227  10.675  0.0362 -0.8868  0.9116
15589SOL     OW51222   6.156   4.299   5.986 -0.0820  0.4309  0.1050
15589SOL    HW151223   6.214   4.292   5.911 -0.7646 -0.1567 -0.3824
15589SOL    HW251224   6.160   4.391   6.011  0.5012  0.5379 -0.3713
15590SOL     OW51225   7.592   2.253   7.108 -0.3963  0.0003  0.2197
15590SOL    HW151226   7.603   2.229   7.016  0.3347  1.5955 -0.1413
15590SOL    HW251227   7.527   2.324   7.107 -0.8032 -0.3486  0.9948
15591SOL     OW51228   3.204  10.542   3.428 -0.3093 -0.1289 -0.6931
15591SOL    HW151229   3.120  10.546   3.384 -1.4939  0.9855  1.5035
15591SOL    HW251230   3.268  10.538   3.357 -2.1694 -0.6744 -2.4320
15592SOL     OW51231   8.342   9.657  10.249 -0.8948 -0.0571  0.4473
15592SOL    HW151232   8.367   9.566  10.232 -0.3239  0.4681 -1.8461
15592SOL    HW251233   8.312   9.657  10.340 -1.3457 -2.6229  0.3786
15593SOL     OW51234   5.271   1.274   5.147  0.3286 -0.2695 -0.3725
15593SOL    HW151235   5.200   1.246   5.205  1.0378 -0.4561  0.4213
15593SOL    HW251236   5.351   1.249   5.193  0.9362  0.8176 -0.8007
15594SOL     OW51237   7.578  10.788   4.448  0.2618  0.0651 -0.2138
15594SOL    HW151238   7.563  10.879   4.473 -1.6678 -0.1653 -0.3844
15594SOL    HW251239   7.593  10.792   4.353 -1.2694  0.0971 -0.4784
15595SOL     OW51240   2.588   5.099   8.228  0.2225  0.0063  0.1409
15595SOL    HW151241   2.531   5.114   8.303  0.3236  0.7149  0.0867
15595SOL    HW251242   2.620   5.010   8.239 -0.3612 -0.1561  0.5327
15596SOL     OW51243   7.580   6.290   2.266 -0.6951 -0.9947  0.1474
15596SOL    HW151244   7.516   6.358   2.286 -0.7117 -1.0806  0.4009
15596SOL    HW251245   7.528   6.218   2.230 -0.4293 -0.0243 -2.3752
15597SOL     OW51246   3.411   5.803   8.091 -0.0303 -0.3317 -0.0642
15597SOL    HW151247   3.502   5.797   8.060 -0.0993  0.7554 -0.5367
15597SOL    HW251248   3.417   5.861   8.167 -0.3671  0.0147 -0.2989
15598SOL     OW51249   1.817   1.273   8.227  0.1721  0.8328 -0.2883
15598SOL    HW151250   1.744   1.305   8.174  0.8313  0.1893 -1.6161
15598SOL    HW251251   1.810   1.178   8.223  0.8101  0.7734 -0.0138
15599SOL     OW51252   3.094   3.263   1.042 -0.3609  0.1922  0.0263
15599SOL    HW151253   3.071   3.356   1.042  0.4600  0.4818  2.4730
15599SOL    HW251254   3.052   3.228   1.121  0.9634 -1.0484  0.2238
15600SOL     OW51255   6.709   3.526   4.365  0.0630 -0.2024  0.1050
15600SOL    HW151256   6.744   3.437   4.370 -0.3303 -0.3597  0.0647
15600SOL    HW251257   6.615   3.516   4.376  0.0410  0.2346  0.3560
15601SOL     OW51258  10.183   4.209   5.530 -0.4893 -0.1104 -0.0907
15601SOL    HW151259  10.194   4.122   5.492  0.5012  0.0798 -0.2707
15601SOL    HW251260  10.105   4.244   5.488 -0.4538 -0.6178 -0.5903
15602SOL     OW51261   3.535   9.050   2.590 -0.1465 -0.1287 -0.2079
15602SOL    HW151262   3.608   9.054   2.652 -0.1554 -0.6678 -0.1518
15602SOL    HW251263   3.576   9.054   2.504  0.0223 -1.1735 -0.1891
15603SOL     OW51264   3.358   2.493   2.967 -0.3747 -0.1367 -1.0022
15603SOL    HW151265   3.268   2.523   2.978 -0.2165 -0.2046  0.8890
15603SOL    HW251266   3.406   2.570   2.936 -0.5826  0.7622  0.7303
15604SOL     OW51267  10.801   1.309   4.462 -0.2057 -0.1589 -0.0409
15604SOL    HW151268  10.896   1.316   4.464 -0.2538  0.4244  1.1052
15604SOL    HW251269  10.783   1.248   4.391  1.0429 -0.5290 -0.0625
15605SOL     OW51270   3.910   2.736   0.291  0.1666 -0.4936  0.3368
15605SOL    HW151271   3.943   2.821   0.263  0.1813 -0.3360  0.8156
15605SOL    HW251272   3.849   2.709   0.223 -1.1695  0.7038  1.0102
15606SOL     OW51273   8.253   9.004  10.435 -0.0716 -0.3112 -0.5903
15606SOL    HW151274   8.340   9.031  10.403  0.4439 -1.1016  0.1045
15606SOL    HW251275   8.242   9.052  10.517  0.2597 -1.1359 -0.0475
15607SOL     OW51276   0.760   3.074   8.225 -0.2791 -0.2059  0.1063
15607SOL    HW151277   0.845   3.117   8.238  0.1953 -1.2969  0.7597
15607SOL    HW251278   0.707   3.140   8.180  0.8114  0.6091 -0.0478
15608SOL     OW51279   8.913   2.151  10.390 -0.5372 -0.7538 -0.3965
15608SOL    HW151280   9.004   2.162  10.415 -0.8108  0.6258  0.0688
15608SOL    HW251281   8.880   2.083  10.449 -0.3031  0.0999  0.7426
15609SOL     OW51282   5.237   3.223   1.934 -0.4390 -0.0380  0.7117
15609SOL    HW151283   5.157   3.254   1.893 -0.2871 -0.9768 -0.3571
15609SOL    HW251284   5.211   3.145   1.983 -0.4837  0.6642  1.8423
15610SOL     OW51285   5.490   1.782   9.431  0.6309  0.1597  0.4392
15610SOL    HW151286   5.451   1.727   9.362 -0.3282  0.8211  0.4353
15610SOL    HW251287   5.510   1.864   9.388 -1.2977  1.1031  1.2189
15611SOL     OW51288   2.740   1.923   7.825  0.0532 -0.2737  0.1799
15611SOL    HW151289   2.707   1.889   7.742 -0.9303 -2.7409  1.4867
15611SOL    HW251290   2.681   1.995   7.847 -2.0072 -1.9461  0.4424
15612SOL     OW51291   0.204  10.639  10.301  0.1534 -0.2145  0.1519
15612SOL    HW151292   0.124  10.679  10.267  0.3397  0.9147  1.0014
15612SOL    HW251293   0.228  10.693  10.376  2.0278 -0.1883 -0.4177
15613SOL     OW51294   5.004   2.512   0.281  0.0652  0.0252 -0.0626
15613SOL    HW151295   5.006   2.495   0.187  2.0330  0.3800 -0.1210
15613SOL    HW251296   5.074   2.575   0.297 -2.0616  2.2349  1.2730
15614SOL     OW51297   3.786   1.018  10.570  0.2908 -0.0526 -0.0206
15614SOL    HW151298   3.858   1.079  10.558  0.1552 -0.0268 -0.7566
15614SOL    HW251299   3.720   1.046  10.507 -0.0770 -0.5024  0.1594
15615SOL     OW51300   8.501   6.228   1.085 -1.0296  0.3233  0.1717
15615SOL    HW151301   8.476   6.141   1.053 -1.2215 -0.4359  2.2678
15615SOL    HW251302   8.522   6.277   1.005 -0.8844 -1.6343 -1.0694
15616SOL     OW51303   8.683   5.225   6.594  0.2434  0.1371  0.2497
15616SOL    HW151304   8.680   5.153   6.657  0.8936 -1.7914 -1.7990
15616SOL    HW251305   8.596   5.224   6.553  0.4832  0.0547 -0.2624
15617SOL     OW51306   7.431   5.212   7.876  0.0501  0.0868  0.0724
15617SOL    HW151307   7.495   5.256   7.821  1.8344 -1.3468  0.9318
15617SOL    HW251308   7.396   5.142   7.822  0.8590 -0.5149  0.3134
15618SOL     OW51309   0.196  10.450   1.266 -0.0077 -0.1553  0.4251
15618SOL    HW151310   0.287  10.465   1.239 -0.1253  0.4239  0.3269
15618SOL    HW251311   0.148  10.524   1.228 -0.3186  0.2127  1.5158
15619SOL     OW51312   7.237   5.287  10.024 -0.3709  0.4674 -0.2032
15619SOL    HW151313   7.227   5.297   9.929 -1.4187  1.5655 -0.0114
15619SOL    HW251314   7.162   5.335  10.060 -0.8933 -1.2663  1.1392
15620SOL     OW51315   1.721  10.938   1.460  0.1360 -0.1840 -0.2905
15620SOL    HW151316   1.736  10.852   1.423  1.3894 -0.1945  0.1815
15620SOL    HW251317   1.809  10.973   1.477 -0.3544  0.9303  0.0983
15621SOL     OW51318   7.013  10.499   2.471 -0.4774 -0.4679 -0.5522
15621SOL    HW151319   7.006  10.451   2.554  2.5665 -1.7114 -0.8987
15621SOL    HW251320   7.006  10.431   2.404  0.0903  0.1062 -1.2055
15622SOL     OW51321   2.279   2.203   8.657  0.0413 -0.1671 -0.0879
15622SOL    HW151322   2.202   2.190   8.601 -0.9170  0.0156  1.1653
15622SOL    HW251323   2.253   2.270   8.720  2.1294  1.8871 -1.2461
15623SOL     OW51324   1.802   2.518   9.655  0.1207 -0.0579 -0.3192
15623SOL    HW151325   1.734   2.468   9.699 -2.3385  1.2047 -2.4545
15623SOL    HW251326   1.881   2.501   9.707 -1.6797 -1.8810  2.0612
15624SOL     OW51327   7.343   1.335  10.877  0.5335  0.0001 -0.6572
15624SOL    HW151328   7.353   1.326  10.783  0.5627  0.9221 -0.7530
15624SOL    HW251329   7.258   1.294  10.896  0.7197 -0.5664 -1.0113
15625SOL     OW51330   6.870   1.908   5.466  0.2879 -0.1737  0.0218
15625SOL    HW151331   6.876   1.985   5.523  1.2390  0.2306 -0.5946
15625SOL    HW251332   6.792   1.924   5.413 -0.3805 -0.3666  0.9253
15626SOL     OW51333   6.988   6.356   5.766  0.4688 -0.3361 -0.0208
15626SOL    HW151334   7.059   6.311   5.812  0.5012 -0.1418  0.1190
15626SOL    HW251335   6.973   6.436   5.817  0.2741 -0.2879 -0.1534
15627SOL     OW51336   0.647   1.593   5.192 -0.0698 -0.6345  0.0678
15627SOL    HW151337   0.607   1.646   5.124 -1.1066 -1.2143  0.2031
15627SOL    HW251338   0.657   1.506   5.152 -1.1250 -1.1089  0.7776
15628SOL     OW51339  10.362   5.477   6.128 -0.5592  0.2983  0.0460
15628SOL    HW151340  10.389   5.569   6.132 -1.3146  0.5447 -0.4379
15628SOL    HW251341  10.280   5.477   6.079 -0.9205 -0.5609  0.6174
15629SOL     OW51342   7.325   9.354   5.459  0.2065 -0.1314 -0.0455
15629SOL    HW151343   7.304   9.444   5.434 -1.7399 -0.4283  0.3873
15629SOL    HW251344   7.320   9.354   5.555  1.9772 -0.3214  0.0820
15630SOL     OW51345   4.383   7.516   9.451  0.3014  0.1692 -0.2780
15630SOL    HW151346   4.322   7.483   9.385  2.2506 -0.6445 -1.7687
15630SOL    HW251347   4.362   7.466   9.530  0.7200 -2.0043 -1.4738
15631SOL     OW51348   3.380   0.795   1.202 -0.0065  0.6033 -1.0412
15631SOL    HW151349   3.416   0.882   1.188 -0.0815  0.8080 -0.0657
15631SOL    HW251350   3.404   0.774   1.293 -3.6013  1.3957  0.2449
15632SOL     OW51351   7.913   5.113   2.304 -0.4575  0.4141 -0.0338
15632SOL    HW151352   7.980   5.107   2.236 -0.5007 -0.6330  0.0040
15632SOL    HW251353   7.915   5.027   2.348 -0.3718  1.0792  1.3352
15633SOL     OW51354   9.898  10.328   0.291  0.2093 -0.1812 -0.8855
15633SOL    HW151355   9.935  10.413   0.268 -1.0547  0.4183 -0.8074
15633SOL    HW251356   9.928  10.312   0.380 -2.9805  2.2984  0.8409
15634SOL     OW51357   8.865   2.969   8.916  0.1482  0.0588 -0.0099
15634SOL    HW151358   8.814   2.909   8.862 -0.4003  1.9205 -1.6717
15634SOL    HW251359   8.933   3.003   8.858  0.4090  1.0932  0.8533
15635SOL     OW51360   7.585   5.011  10.863 -0.2260  0.2020  0.0898
15635SOL    HW151361   7.532   5.085  10.891 -0.3119 -0.0209  0.5259
15635SOL    HW251362   7.528   4.935  10.874  0.1875 -0.0412  0.5753
15636SOL     OW51363   7.495   2.357   0.843 -0.3386  0.1389  0.2126
15636SOL    HW151364   7.457   2.399   0.920 -1.0721 -1.2490  0.6598
15636SOL    HW251365   7.587   2.342   0.866 -0.0108  1.6554 -0.0493
15637SOL     OW51366   8.231   2.638   5.681  0.6438  0.0048 -0.2236
15637SOL    HW151367   8.179   2.558   5.685  0.9520 -0.1760  0.1980
15637SOL    HW251368   8.247   2.661   5.772 -2.3935  2.5031 -0.1380
15638SOL     OW51369   8.933   2.951   4.771  0.0063 -0.3013  0.0962
15638SOL    HW151370   8.933   2.978   4.862 -0.5501  0.4188 -0.1151
15638SOL    HW251371   8.845   2.917   4.755  0.2261 -0.8143 -0.0650
15639SOL     OW51372   7.633   9.501  10.510  0.3326  0.3565 -0.7155
15639SOL    HW151373   7.713   9.456  10.537  0.0412  1.2631  1.9478
15639SOL    HW251374   7.662   9.560  10.440  2.2566  1.2755  0.7389
15640SOL     OW51375   7.631   1.733   2.738  0.3529  0.2641  0.4812
15640SOL    HW151376   7.643   1.827   2.750 -0.6777  0.3465  1.0436
15640SOL    HW251377   7.548   1.726   2.690  0.2431 -0.3574  0.7463
15641SOL     OW51378   4.001   8.578  10.665 -0.1418 -0.1034  0.2013
15641SOL    HW151379   4.021   8.652  10.723  1.7326 -0.3464 -0.0890
15641SOL    HW251380   3.980   8.619  10.581 -3.0181  0.2610  0.9898
15642SOL     OW51381   7.521   6.715   8.235  0.0887 -0.1706 -0.1804
15642SOL    HW151382   7.541   6.780   8.167 -0.3122  0.7655  0.5725
15642SOL    HW251383   7.509   6.633   8.187  0.3037  0.3658 -1.1860
15643SOL     OW51384   4.482   6.041   4.936  0.4573  0.3562  0.2902
15643SOL    HW151385   4.530   6.042   5.018  0.6548 -1.1628  0.2133
15643SOL    HW251386   4.540   5.997   4.874 -0.4187 -0.1626 -0.1826
15644SOL     OW51387   4.822   5.004   9.085  0.4059  0.1144  0.5250
15644SOL    HW151388   4.804   5.064   9.157  1.4931 -0.1405  1.0289
15644SOL    HW251389   4.784   5.047   9.008 -0.1472  0.7222  1.1187
15645SOL     OW51390   3.752  10.725   4.737  0.4745  0.1801 -0.0484
15645SOL    HW151391   3.768  10.632   4.721  1.4940  0.3580 -0.0901
15645SOL    HW251392   3.829  10.755   4.785 -0.0497  0.9115  0.3638
15646SOL     OW51393   2.610   0.212   2.512  0.1819 -0.0075 -0.5571
15646SOL    HW151394   2.593   0.120   2.491  1.3037 -0.2857 -0.3023
15646SOL    HW251395   2.654   0.210   2.596 -1.3039  0.8980  0.2891
15647SOL     OW51396   2.749   0.023   6.562  0.0272  0.2872  0.6002
15647SOL    HW151397   2.685   0.082   6.602  0.4671  0.8168  0.5233
15647SOL    HW251398   2.758   0.054   6.472  0.6032  0.3895  0.6893
15648SOL     OW51399   6.856   1.767   4.952 -0.4415  0.1065  0.4017
15648SOL    HW151400   6.773   1.746   4.909 -0.3721 -1.5360  0.9849
15648SOL    HW251401   6.878   1.854   4.920 -2.1507  0.3854 -0.1336
15649SOL     OW51402   9.211  10.035   0.546  0.1154 -0.0932  0.3580
15649SOL    HW151403   9.191   9.949   0.583 -1.1421 -0.4736 -1.0876
15649SOL    HW251404   9.217  10.020   0.451  0.3874  1.3186  0.1240
15650SOL     OW51405   0.645   4.839  10.021  0.5134 -0.0367  0.4780
15650SOL    HW151406   0.739   4.835  10.039  0.6695  0.7063 -0.0963
15650SOL    HW251407   0.633   4.922   9.974 -0.1572 -0.9239 -1.0175
15651SOL     OW51408   3.936  10.521   4.692  0.0243  0.1527  0.3742
15651SOL    HW151409   3.990  10.528   4.614  0.1478 -1.9114  0.2281
15651SOL    HW251410   3.853  10.483   4.662 -0.7442  1.2973  0.9369
15652SOL     OW51411  10.868   3.507   6.216 -0.1632 -0.0356 -0.0023
15652SOL    HW151412  10.888   3.571   6.284 -0.8281 -1.0561  1.2027
15652SOL    HW251413  10.934   3.438   6.229  0.3148  0.2042 -1.0443
15653SOL     OW51414   9.362   9.699   4.950  0.2897 -0.3985 -0.1154
15653SOL    HW151415   9.362   9.680   4.856  0.4498  0.7157 -0.3593
15653SOL    HW251416   9.281   9.661   4.982  1.2198 -2.6606 -0.2773
15654SOL     OW51417   8.878   5.078   1.590  0.3165 -0.5799  0.3504
15654SOL    HW151418   8.832   5.097   1.672 -0.2908  0.1383 -0.1376
15654SOL    HW251419   8.829   5.005   1.552 -0.2759  0.0052 -0.0373
15655SOL     OW51420   8.199  10.305   8.568  0.8780  0.4920 -0.2533
15655SOL    HW151421   8.236  10.277   8.484  1.0184 -1.4516  0.4024
15655SOL    HW251422   8.266  10.362   8.606  2.5778 -1.6506  0.1805
15656SOL     OW51423   8.735   4.004   1.277  0.3459  0.3816 -0.2895
15656SOL    HW151424   8.761   3.934   1.217  0.2380  0.8498 -0.8933
15656SOL    HW251425   8.783   3.986   1.358 -0.3848 -0.9081 -0.1227
15657SOL     OW51426   1.865   8.715   9.327  0.4838  0.1338 -0.2915
15657SOL    HW151427   1.797   8.684   9.386  1.2862 -1.2051 -0.0174
15657SOL    HW251428   1.943   8.723   9.382  0.9420  0.0478 -0.9107
15658SOL     OW51429   3.934   2.726  10.889 -1.3750 -0.0081  0.3066
15658SOL    HW151430   3.878   2.673  10.833  1.4448 -1.4634 -1.3458
15658SOL    HW251431   3.946   2.672  10.968 -0.6521 -0.6483 -0.2320
15659SOL     OW51432   3.801   3.350  10.683 -0.5932  0.4655  0.1714
15659SOL    HW151433   3.734   3.386  10.625  0.7487 -0.2078 -1.9094
15659SOL    HW251434   3.811   3.259  10.655  1.7817  0.7804 -0.1935
15660SOL     OW51435   7.198   2.641  10.533 -0.5990  0.4412 -0.5754
15660SOL    HW151436   7.279   2.682  10.565 -0.3248  0.5503 -1.3786
15660SOL    HW251437   7.142   2.715  10.509 -0.9004  0.3639 -0.1279
15661SOL     OW51438  10.262   0.192   5.509 -0.2073  0.2709  0.0200
15661SOL    HW151439  10.276   0.139   5.587  0.7848  0.2068 -0.1901
15661SOL    HW251440  10.174   0.228   5.519 -0.0016  0.4409  1.2614
15662SOL     OW51441   2.672   9.324   0.460  0.2447 -0.1243  0.1826
15662SOL    HW151442   2.623   9.248   0.430 -0.0796  0.6765 -1.4610
15662SOL    HW251443   2.608   9.395   0.460  0.1700 -0.0906  3.1169
15663SOL     OW51444   6.662  10.026  10.917 -0.1788 -0.3465 -0.1227
15663SOL    HW151445   6.735  10.063  10.966 -0.9698  0.8484  0.2158
15663SOL    HW251446   6.619  10.102  10.877 -1.6389 -0.9268  0.2796
15664SOL     OW51447   4.323   4.811   6.212 -1.0299  0.2606  0.0412
15664SOL    HW151448   4.290   4.724   6.189 -0.5792  0.5209 -1.7496
15664SOL    HW251449   4.360   4.845   6.131 -0.1922  1.6908  0.9725
15665SOL     OW51450   5.316   2.503   0.105  0.0333  0.2047  0.1953
15665SOL    HW151451   5.407   2.496   0.134  0.2336 -0.4622 -0.5699
15665SOL    HW251452   5.286   2.587   0.141  0.0580 -0.8502  2.8731
15666SOL     OW51453   0.407   8.147   9.158 -0.6750  0.4691  0.4866
15666SOL    HW151454   0.339   8.185   9.102 -1.1559 -0.4489  0.4312
15666SOL    HW251455   0.379   8.168   9.247 -0.4271  1.0734  0.4274
15667SOL     OW51456   6.737   8.341   0.110  0.3348  0.4380  0.5588
15667SOL    HW151457   6.663   8.388   0.148 -0.9232  1.4261 -2.7390
15667SOL    HW251458   6.806   8.407   0.102  0.5787  0.2447  0.9889
15668SOL     OW51459   6.151   6.963  10.726 -0.7938 -0.8031  0.2810
15668SOL    HW151460   6.159   7.051  10.689 -1.8580 -0.9628 -0.3662
15668SOL    HW251461   6.156   6.977  10.821 -3.2545  0.2769  0.3253
15669SOL     OW51462   0.527   9.527   7.465  0.3862 -0.3321 -0.0023
15669SOL    HW151463   0.470   9.562   7.397  0.0153 -0.2847  0.3312
15669SOL    HW251464   0.529   9.596   7.532  0.8247 -0.3380 -0.0051
15670SOL     OW51465   6.908   3.292   1.855 -0.5809 -0.8977  0.4442
15670SOL    HW151466   6.828   3.346   1.853 -0.2518 -0.3819  0.9082
15670SOL    HW251467   6.915   3.262   1.946  1.1983  1.3076  1.1373
15671SOL     OW51468   8.883   3.213   3.596  0.0535 -0.3322 -0.7628
15671SOL    HW151469   8.966   3.174   3.625 -0.7928 -1.6587 -0.0001
15671SOL    HW251470   8.878   3.296   3.643  0.8469 -0.3375 -0.6492
15672SOL     OW51471   5.191   7.149  10.453 -0.0360  0.2614 -0.2272
15672SOL    HW151472   5.101   7.143  10.487 -0.6834  0.6770 -1.7515
15672SOL    HW251473   5.202   7.069  10.401  1.4935 -1.1384  2.0892
15673SOL     OW51474   6.961   5.513   2.005  0.1851  0.3760 -0.1812
15673SOL    HW151475   6.902   5.478   1.938  0.0772 -0.2861  0.2547
15673SOL    HW251476   6.925   5.482   2.088  1.0961  0.0380  0.1005
15674SOL     OW51477   9.570   9.209   7.403  0.2364  0.0402  0.4644
15674SOL    HW151478   9.483   9.170   7.396  1.1866 -1.9336 -1.7581
15674SOL    HW251479   9.572   9.276   7.335  1.0061 -1.2024 -0.7815
15675SOL     OW51480   8.109   8.414   6.548 -0.0516 -0.0697  0.0234
15675SOL    HW151481   8.015   8.406   6.567  0.0171 -1.2848 -0.0418
15675SOL    HW251482   8.133   8.500   6.582 -1.4675  0.8745 -1.2146
15676SOL     OW51483   9.822   8.679   1.170  0.1118  0.7942 -0.4312
15676SOL    HW151484   9.880   8.734   1.116 -1.2701  3.2757  0.4708
15676SOL    HW251485   9.872   8.663   1.250  0.0182  1.9649 -0.1226
15677SOL     OW51486   8.237   0.397   2.501 -0.3049 -0.1169  0.1851
15677SOL    HW151487   8.293   0.472   2.521 -0.0884  0.1492 -1.3116
15677SOL    HW251488   8.149   0.432   2.499 -0.1551  0.2127 -1.0027
15678SOL     OW51489   2.705   6.334  11.042 -0.0033 -0.2949  0.2860
15678SOL    HW151490   2.742   6.346  11.129  0.2737  1.2206 -0.0060
15678SOL    HW251491   2.781   6.340  10.983 -0.5225  2.0521 -0.2640
15679SOL     OW51492  10.193   4.399   6.439 -0.0394  0.2052 -0.0304
15679SOL    HW151493  10.182   4.390   6.534  2.0207  0.9346  0.3426
15679SOL    HW251494  10.135   4.471   6.415  0.7492  1.2539  1.0444
15680SOL     OW51495   3.042   4.825   0.634  0.4256 -0.3045  0.1171
15680SOL    HW151496   3.050   4.731   0.651  0.0551 -0.3115  0.2523
15680SOL    HW251497   3.052   4.866   0.720  1.7389 -0.1407 -0.0837
15681SOL     OW51498   0.287   1.732   6.332 -0.2023  0.2851  0.1656
15681SOL    HW151499   0.226   1.753   6.261  0.2767 -1.7414 -0.9066
15681SOL    HW251500   0.372   1.723   6.290  0.5285  1.2138  1.3629
15682SOL     OW51501   7.030   0.735   3.632 -0.2492  0.8331  0.1481
15682SOL    HW151502   7.069   0.704   3.714 -0.9269  1.0432  0.5573
15682SOL    HW251503   6.981   0.813   3.657 -0.3364  0.9890 -0.4911
15683SOL     OW51504   7.628   4.368   3.090 -0.4833  0.4380 -0.7541
15683SOL    HW151505   7.545   4.367   3.139 -0.2018 -1.2084 -0.2362
15683SOL    HW251506   7.624   4.289   3.036  1.8159 -1.1367  1.2093
15684SOL     OW51507   8.291   0.081   2.164 -0.9528 -0.2386 -0.5208
15684SOL    HW151508   8.296   0.175   2.144  0.5041  0.0119  0.8238
15684SOL    HW251509   8.251   0.042   2.086 -0.3217  1.3186 -1.6798
15685SOL     OW51510   1.085   7.476   6.029  0.3807  0.6449  0.5171
15685SOL    HW151511   0.991   7.493   6.038  0.4404  0.5343  1.4695
15685SOL    HW251512   1.103   7.487   5.936 -0.8399 -0.6217  0.1008
15686SOL     OW51513   9.637  10.085   3.294  0.5025  0.9172 -0.5954
15686SOL    HW151514   9.664   9.998   3.263  0.0463 -0.3832  2.3028
15686SOL    HW251515   9.564  10.109   3.236 -0.3997 -1.3911 -0.5613
15687SOL     OW51516   9.481   3.063   0.869  0.3700 -0.5760 -0.1404
15687SOL    HW151517   9.575   3.073   0.886  0.2948 -1.4835  0.9521
15687SOL    HW251518   9.454   2.992   0.927 -0.3431 -2.6122 -2.7822
15688SOL     OW51519  10.378   4.694   7.636 -0.0085 -0.6903 -0.4888
15688SOL    HW151520  10.341   4.751   7.704  0.3066  0.5902 -1.3556
15688SOL    HW251521  10.367   4.606   7.671 -2.1637 -0.2481  0.1207
15689SOL     OW51522   6.718   9.350   3.068 -0.3328 -0.0333 -0.0531
15689SOL    HW151523   6.769   9.299   3.132  0.6615  0.3286 -0.5437
15689SOL    HW251524   6.640   9.296   3.052  0.6489 -1.3835 -0.4904
15690SOL     OW51525   7.242   8.556   0.176  0.3791  0.3990  0.3267
15690SOL    HW151526   7.188   8.593   0.106 -0.9719 -2.0140 -0.0661
15690SOL    HW251527   7.246   8.462   0.154 -0.1623 -0.4579  3.4879
15691SOL     OW51528   6.963   5.487   2.545 -0.2946  0.7075  0.5658
15691SOL    HW151529   6.951   5.566   2.598 -1.5220  0.5667  0.5120
15691SOL    HW251530   7.032   5.438   2.590 -0.4917  1.1484  1.3605
15692SOL     OW51531   9.766   8.769   4.842 -0.0095  0.4496 -0.5663
15692SOL    HW151532   9.752   8.747   4.934 -0.2512  1.4111 -0.3586
15692SOL    HW251533   9.750   8.688   4.795  1.8207 -0.5286  0.3690
15693SOL     OW51534   9.104   5.050   4.325  0.1925  0.3099 -0.4618
15693SOL    HW151535   9.020   5.072   4.286  1.0701  0.4741 -2.4235
15693SOL    HW251536   9.163   5.120   4.297  1.5966 -1.1860 -1.5207
15694SOL     OW51537   0.248   7.321   8.899  0.6117 -0.5234 -0.0707
15694SOL    HW151538   0.188   7.246   8.892 -0.1100 -0.0467  0.8833
15694SOL    HW251539   0.264   7.330   8.993  0.4781  0.6731 -0.1466
15695SOL     OW51540   8.076   4.474   4.368 -0.3296  0.5180 -0.4209
15695SOL    HW151541   8.066   4.568   4.354  0.8877  0.4785 -1.8110
15695SOL    HW251542   8.112   4.441   4.286 -1.0768 -1.2431 -0.1018
15696SOL     OW51543   0.317   7.328   6.888  0.1383  0.3742 -0.2138
15696SOL    HW151544   0.282   7.410   6.853 -1.3421  0.9616  2.3964
15696SOL    HW251545   0.395   7.354   6.938 -0.6415  0.3161  1.0748
15697SOL     OW51546   2.090   9.643   9.078 -0.7650  0.1550 -0.6138
15697SOL    HW151547   2.101   9.595   9.160 -0.0248 -0.2046 -0.9137
15697SOL    HW251548   1.996   9.659   9.072 -0.7760  0.7097  0.5946
15698SOL     OW51549   9.321   7.318   6.076 -0.4848  0.0754 -0.2791
15698SOL    HW151550   9.295   7.402   6.037  1.1939  0.8092  0.1086
15698SOL    HW251551   9.383   7.281   6.013 -0.2830 -0.2896  0.1311
15699SOL     OW51552   5.111   7.309   0.350 -0.1039 -0.1849  0.1152
15699SOL    HW151553   5.027   7.272   0.323  0.4690 -2.8025  1.5363
15699SOL    HW251554   5.176   7.263   0.296  0.5620  0.1033  0.6526
15700SOL     OW51555   8.104   5.268   8.451  0.3920  0.4272  0.3085
15700SOL    HW151556   8.078   5.352   8.414  1.2943  0.0232 -1.3443
15700SOL    HW251557   8.029   5.240   8.503  0.1936  2.3845  1.1812
15701SOL     OW51558   0.004   1.266   4.430 -0.5480  0.2672  0.5262
15701SOL    HW151559   0.013   1.176   4.460 -0.4402  0.7141  1.8984
15701SOL    HW251560   0.054   1.270   4.348 -0.8556 -0.9888  0.2619
15702SOL     OW51561   8.203   8.058   3.810 -0.6168  0.4210 -0.6286
15702SOL    HW151562   8.182   7.969   3.781  2.4969 -0.8949  0.6773
15702SOL    HW251563   8.209   8.051   3.906  0.8744  1.7154 -0.5862
15703SOL     OW51564   6.311  11.071   3.490 -0.4814  0.5726  0.3205
15703SOL    HW151565   6.274  11.159   3.487  0.6720  1.0691  0.2284
15703SOL    HW251566   6.404  11.083   3.474 -0.5190 -0.8227 -1.3444
15704SOL     OW51567   0.993   5.895   8.038  0.7665 -0.0737 -0.1754
15704SOL    HW151568   1.011   5.953   7.965  1.5388 -0.7914 -0.5698
15704SOL    HW251569   1.076   5.892   8.087  0.1485  0.7106  0.9619
15705SOL     OW51570   3.184   2.088   7.154  0.0454 -0.7741  0.0946
15705SOL    HW151571   3.159   2.019   7.215  0.1940 -1.1631 -0.2806
15705SOL    HW251572   3.107   2.143   7.147  0.6932  0.5290  2.2996
15706SOL     OW51573  10.752   2.678   2.682 -0.5331 -0.5593 -0.4262
15706SOL    HW151574  10.845   2.696   2.686 -0.5654 -0.2491 -0.9975
15706SOL    HW251575  10.734   2.625   2.760  0.1917 -0.9759 -0.5395
15707SOL     OW51576   1.869  10.696   5.061  0.6031 -0.4769  0.4312
15707SOL    HW151577   1.928  10.656   5.125  1.1445 -0.3434  0.0185
15707SOL    HW251578   1.782  10.689   5.101  0.8200 -1.1896  0.7919
15708SOL     OW51579   3.430   1.659   7.965  0.2304 -0.5544 -0.1765
15708SOL    HW151580   3.459   1.607   7.890 -0.9420  0.9610 -1.7528
15708SOL    HW251581   3.484   1.738   7.961 -0.1325 -0.2759  0.3408
15709SOL     OW51582   1.710   9.721   4.569 -0.2706  0.8650 -0.2841
15709SOL    HW151583   1.724   9.630   4.544  0.6086  0.5300  1.2863
15709SOL    HW251584   1.656   9.716   4.648 -2.2548  1.8404 -1.4937
15710SOL     OW51585   0.661   7.135   1.026 -0.2949 -0.2788  0.1357
15710SOL    HW151586   0.591   7.162   1.085 -1.2567 -0.0974 -1.0596
15710SOL    HW251587   0.729   7.202   1.037 -0.4349 -0.2668  1.0331
15711SOL     OW51588   5.299   7.582   1.640  0.5251 -0.5218  0.1733
15711SOL    HW151589   5.224   7.565   1.583  0.3895 -1.6547  0.6733
15711SOL    HW251590   5.375   7.581   1.581  0.1747  0.5679 -0.3243
15712SOL     OW51591   4.847   9.217   0.281  0.2664 -0.1136  0.1928
15712SOL    HW151592   4.879   9.180   0.198  0.8202  0.8540 -0.0361
15712SOL    HW251593   4.757   9.244   0.261 -0.1567 -1.3144  0.3680
15713SOL     OW51594   0.188   9.314   3.032 -0.2107 -0.1485 -0.0823
15713SOL    HW151595   0.181   9.220   3.048 -1.2545  0.1144  1.2366
15713SOL    HW251596   0.100   9.347   3.049  0.1390  1.0680 -0.5529
15714SOL     OW51597   7.908   7.185   2.679  0.5803 -0.4072 -0.3821
15714SOL    HW151598   7.880   7.276   2.688  0.8279 -0.4507  1.2369
15714SOL    HW251599   8.002   7.190   2.661  0.5162 -0.3363 -0.6930
15715SOL     OW51600   5.210   4.361  10.625  0.2481  0.4649  0.4222
15715SOL    HW151601   5.263   4.286  10.600  0.9941  0.6700  1.3443
15715SOL    HW251602   5.200   4.412  10.544  1.1129  0.2215  0.1572
15716SOL     OW51603   7.531   2.918   5.220 -0.9711  0.0845  0.6026
15716SOL    HW151604   7.590   2.916   5.296  0.6241 -2.0010 -0.5997
15716SOL    HW251605   7.532   3.010   5.192  2.0294  0.0790  0.4334
15717SOL     OW51606   7.432  10.101  10.490  0.1949 -0.1623 -0.1859
15717SOL    HW151607   7.490  10.177  10.483 -1.0576  0.7038 -1.8685
15717SOL    HW251608   7.485  10.035  10.536  2.9389  0.2144 -2.4734
15718SOL     OW51609   8.894  10.723   9.963  0.5737 -0.5408  0.3598
15718SOL    HW151610   8.840  10.790  10.006 -2.7831 -3.3736  1.0002
15718SOL    HW251611   8.870  10.729   9.870  1.1020 -0.2032  0.2378
15719SOL     OW51612   2.250   0.950   3.672 -0.3183 -0.6062  0.3562
15719SOL    HW151613   2.220   1.041   3.679  0.8409 -0.2615  1.1540
15719SOL    HW251614   2.181   0.898   3.713 -0.5409  0.0143  0.7786
15720SOL     OW51615   6.904   2.921   4.858 -0.4171 -0.2389  0.3539
15720SOL    HW151616   6.959   2.993   4.891 -1.7029  0.4687  1.0298
15720SOL    HW251617   6.927   2.847   4.913 -0.0047 -0.0092  0.5034
15721SOL     OW51618   7.966  10.889   9.648  0.4077 -0.7001  1.1795
15721SOL    HW151619   7.967  10.821   9.715  0.8283 -0.6137  1.2613
15721SOL    HW251620   7.879  10.883   9.609  0.4113 -1.2174  1.2518
15722SOL     OW51621   6.422   0.328   2.174 -0.1178  0.3394  0.1110
15722SOL    HW151622   6.416   0.366   2.262 -0.6432  0.5908 -0.0347
15722SOL    HW251623   6.515   0.338   2.151 -0.0558  0.6371  0.4720
15723SOL     OW51624   4.750   7.075   4.487  0.5717 -0.2623  0.1883
15723SOL    HW151625   4.748   7.049   4.579  2.2343 -1.0439  0.0518
15723SOL    HW251626   4.757   7.171   4.490 -1.5760 -0.0638  0.7851
15724SOL     OW51627   3.080   2.866   0.491  0.1873 -0.4098  0.0467
15724SOL    HW151628   3.080   2.771   0.478 -1.6863 -0.6787  1.5956
15724SOL    HW251629   3.081   2.877   0.586 -0.4576  1.0872 -0.0974
15725SOL     OW51630   9.585   1.515   8.671 -0.0663 -0.3034 -0.2793
15725SOL    HW151631   9.549   1.603   8.660 -0.8909 -0.4987  0.7838
15725SOL    HW251632   9.669   1.529   8.716  0.0180 -0.0332 -0.5179
15726SOL     OW51633   0.060   3.443   3.768 -0.7608  0.2193  0.5624
15726SOL    HW151634   0.141   3.406   3.803 -0.1654  0.0125 -0.9935
15726SOL    HW251635   0.067   3.537   3.784  1.4513  0.7395 -2.6186
15727SOL     OW51636   3.721   8.227  10.459  0.3069 -0.1553  0.4760
15727SOL    HW151637   3.796   8.243  10.401  2.3639  1.6825  3.3657
15727SOL    HW251638   3.751   8.160  10.520 -0.3749  0.5442  1.6311
15728SOL     OW51639   5.261   0.045   2.160 -0.2586  0.4335 -0.1925
15728SOL    HW151640   5.307   0.116   2.205 -1.2177 -0.0299  1.6081
15728SOL    HW251641   5.252  -0.024   2.226 -2.1424 -0.1015 -0.9255
15729SOL     OW51642   6.221  10.124   3.638 -0.6368  0.5604 -0.6000
15729SOL    HW151643   6.236  10.030   3.645 -0.4019  0.6770  0.5885
15729SOL    HW251644   6.305  10.164   3.660 -1.1607  1.0794  0.5191
15730SOL     OW51645  10.706   5.980   1.869  0.2106  0.0681 -0.3159
15730SOL    HW151646  10.769   5.925   1.915 -0.3446 -0.8704 -0.6614
15730SOL    HW251647  10.632   5.988   1.930 -0.8065 -1.7145 -1.2579
15731SOL     OW51648   0.428   3.241  10.032 -0.2120  0.7035  1.0519
15731SOL    HW151649   0.345   3.200  10.056 -0.8899  1.1802 -0.3502
15731SOL    HW251650   0.495   3.177  10.058 -1.1125 -0.3785  0.8000
15732SOL     OW51651   6.667   3.889   2.023 -0.0357 -0.2751  0.4035
15732SOL    HW151652   6.599   3.866   1.959  1.8166 -3.1362 -0.7147
15732SOL    HW251653   6.618   3.910   2.103 -2.3441  1.3221 -1.2831
15733SOL     OW51654   6.255  10.624   5.690 -0.2315  0.1919 -0.2661
15733SOL    HW151655   6.292  10.539   5.666  1.9686  0.8680  0.4738
15733SOL    HW251656   6.180  10.604   5.745 -1.3545 -1.2751 -2.2147
15734SOL     OW51657   1.866   4.218   6.570 -0.4040 -0.3824 -0.6177
15734SOL    HW151658   1.947   4.225   6.620 -0.3826  0.6594 -0.7655
15734SOL    HW251659   1.798   4.244   6.632 -0.8802 -3.0864  0.0787
15735SOL     OW51660  10.826  10.261   5.271 -0.3653 -0.0052 -0.3469
15735SOL    HW151661  10.878  10.215   5.205 -0.0987  0.7798 -0.6913
15735SOL    HW251662  10.770  10.321   5.221  0.0989  0.8644  0.1487
15736SOL     OW51663  11.062   9.981   8.624 -0.7651 -0.1274 -0.4260
15736SOL    HW151664  11.045  10.013   8.535 -1.9389  0.3603 -0.0496
15736SOL    HW251665  10.977   9.987   8.668  0.3649  2.7388  1.7055
15737SOL     OW51666   6.362   4.133   2.233  0.5643 -0.1354  0.2836
15737SOL    HW151667   6.279   4.174   2.258  0.4353 -1.2247  1.7536
15737SOL    HW251668   6.405   4.199   2.178 -0.5548  1.1027  0.8254
15738SOL     OW51669   2.422   3.254   3.168  0.0449  0.6349  0.3221
15738SOL    HW151670   2.379   3.281   3.250 -1.7787 -2.7218  0.6573
15738SOL    HW251671   2.425   3.159   3.173  1.4872  0.4022 -2.8055
15739SOL     OW51672   5.249   4.346   1.125 -0.7327  0.2800  0.6283
15739SOL    HW151673   5.342   4.365   1.112 -1.1462  1.4455 -0.9790
15739SOL    HW251674   5.245   4.252   1.139  0.8686  0.4770  2.9507
15740SOL     OW51675   6.785   1.674   2.199 -0.2252 -0.4724 -0.5581
15740SOL    HW151676   6.804   1.703   2.110 -0.7158  0.2471 -0.4452
15740SOL    HW251677   6.692   1.652   2.197 -1.2451  2.9571  0.5640
15741SOL     OW51678  10.131   3.114   7.529 -0.0032 -0.4132  0.5488
15741SOL    HW151679  10.192   3.068   7.586 -1.0492 -0.5428  1.6076
15741SOL    HW251680  10.137   3.206   7.557 -1.7412 -0.7138  2.0925
15742SOL     OW51681   6.111   7.525   5.972  0.1072 -0.1759 -0.6271
15742SOL    HW151682   6.029   7.535   6.020 -0.5459  0.8543 -1.8693
15742SOL    HW251683   6.122   7.430   5.962 -0.0640 -0.3868  0.9407
15743SOL     OW51684   1.630   5.660   2.010  0.6675  0.0077  0.0393
15743SOL    HW151685   1.653   5.682   2.100  0.1378 -1.5423  0.5896
15743SOL    HW251686   1.561   5.594   2.019 -0.3700  0.8295 -1.5152
15744SOL     OW51687   7.577   1.526   9.461 -0.0289  0.0564  0.1168
15744SOL    HW151688   7.530   1.595   9.415 -1.9066 -0.4456  1.1636
15744SOL    HW251689   7.643   1.495   9.399 -0.7268  1.1763 -1.2207
15745SOL     OW51690   5.423   7.541   0.677  0.3698 -0.1570  0.3767
15745SOL    HW151691   5.425   7.458   0.629  1.1043 -1.6685  2.8230
15745SOL    HW251692   5.331   7.552   0.702 -0.1178  0.9083 -1.6622
15746SOL     OW51693   6.130  11.075   1.159 -0.4126  0.0242  0.0949
15746SOL    HW151694   6.111  11.018   1.233  0.0370 -0.3023 -0.0330
15746SOL    HW251695   6.204  11.033   1.115 -0.5040  0.3535 -0.3863
15747SOL     OW51696  10.399   2.860   3.560 -0.0767  0.0596  0.3345
15747SOL    HW151697  10.356   2.779   3.532 -0.6405  0.7521 -0.8582
15747SOL    HW251698  10.456   2.883   3.487  0.2149  0.6472  0.7431
15748SOL     OW51699   6.865   5.522   3.768 -0.2531 -0.0800  0.1720
15748SOL    HW151700   6.770   5.518   3.769 -0.4915  2.6816 -1.4425
15748SOL    HW251701   6.886   5.613   3.788  2.0264 -0.4477 -0.2339
15749SOL     OW51702   3.474   2.913   2.064  0.0330  0.0955 -0.1296
15749SOL    HW151703   3.492   2.987   2.007  0.4527  1.1054  1.2665
15749SOL    HW251704   3.385   2.926   2.095 -0.4116 -0.7684 -0.9743
15750SOL     OW51705   8.426  10.089   4.600 -0.2297  0.3015 -0.6559
15750SOL    HW151706   8.420  10.048   4.687  0.7642  2.1405  0.3386
15750SOL    HW251707   8.517  10.075   4.573 -0.3792  0.2490 -1.1425
15751SOL     OW51708  10.827   2.351   2.694 -0.1486  0.4160  0.2340
15751SOL    HW151709  10.888   2.415   2.657  0.0012 -0.3463 -0.8990
15751SOL    HW251710  10.742   2.375   2.657 -0.2943  0.6305  0.7012
15752SOL     OW51711   1.432   8.931   5.596  0.2037  0.3287  0.5691
15752SOL    HW151712   1.368   8.860   5.596 -0.1753  0.6294  1.9535
15752SOL    HW251713   1.489   8.913   5.521  0.7273 -1.9780  1.4340
15753SOL     OW51714   2.695   0.902   9.537  0.7868  0.7440 -0.1112
15753SOL    HW151715   2.715   0.837   9.604  1.8712 -0.4398 -1.5208
15753SOL    HW251716   2.712   0.858   9.454 -1.9631  1.6630 -1.2895
15754SOL     OW51717   9.966   0.401   8.392  0.3585  0.1236  0.4672
15754SOL    HW151718  10.005   0.331   8.341  1.7938  0.3989  1.1406
15754SOL    HW251719   9.924   0.357   8.466 -0.3111 -0.1391 -0.0527
15755SOL     OW51720   1.947   5.645   3.619  0.8584  0.1755  0.4745
15755SOL    HW151721   1.912   5.556   3.621  0.1641  0.4107 -0.2894
15755SOL    HW251722   1.980   5.656   3.530  1.7792  0.3830  0.8278
15756SOL     OW51723   8.393   7.477   7.997 -0.1915 -0.1545  0.1291
15756SOL    HW151724   8.363   7.462   8.086  1.3281 -0.1572  0.6634
15756SOL    HW251725   8.367   7.567   7.978 -2.2477 -0.7588 -0.1755
15757SOL     OW51726   5.926   6.343  10.134  0.4933  0.0780  0.1761
15757SOL    HW151727   6.014   6.330  10.100  0.4319  0.7297 -0.2673
15757SOL    HW251728   5.939   6.366  10.227  0.6926 -1.2224  0.4810
15758SOL     OW51729  10.133   0.153   0.015  0.3367 -0.2250  0.0281
15758SOL    HW151730  10.134   0.248   0.008 -0.0316 -0.3214 -2.1227
15758SOL    HW251731  10.052   0.127  -0.029  1.4618 -1.6054 -1.3271
15759SOL     OW51732   8.239   4.088   3.695  0.2220 -0.3724  0.5800
15759SOL    HW151733   8.149   4.068   3.668  0.4826 -0.8873  0.0604
15759SOL    HW251734   8.242   4.184   3.699  0.7245 -0.0360 -3.4599
15760SOL     OW51735   5.303  10.479   8.872 -0.0906  0.0627  0.3997
15760SOL    HW151736   5.295  10.476   8.777 -0.1852 -2.4168  0.4099
15760SOL    HW251737   5.305  10.387   8.899 -2.3324  0.6307  2.9818
15761SOL     OW51738   4.049   0.083   3.631 -0.3824 -0.4065  0.0157
15761SOL    HW151739   3.961   0.049   3.649 -0.6470  0.1817 -0.1612
15761SOL    HW251740   4.073   0.131   3.710  0.1940 -1.3890  0.4636
15762SOL     OW51741  10.981   6.438   7.031  0.3021 -0.1498  0.2457
15762SOL    HW151742  10.968   6.345   7.012  1.0545 -0.5987  1.7611
15762SOL    HW251743  10.893   6.476   7.025  0.2779 -0.4767 -2.5626
15763SOL     OW51744   5.635   8.940  10.319 -0.4007  0.2188 -0.0602
15763SOL    HW151745   5.675   9.017  10.359  0.7985 -0.0434 -0.6979
15763SOL    HW251746   5.668   8.866  10.370 -3.5015  0.1897  2.1642
15764SOL     OW51747   8.020  10.608   5.954 -0.0492 -0.5186 -0.0284
15764SOL    HW151748   7.949  10.619   5.892  0.0066 -0.0350 -0.0087
15764SOL    HW251749   7.978  10.603   6.039  0.0184  1.4045  0.1625
15765SOL     OW51750   6.092   1.511   1.491  0.4269  0.1051 -0.1631
15765SOL    HW151751   6.082   1.515   1.396 -0.6891  2.3836 -0.0068
15765SOL    HW251752   6.094   1.418   1.511  1.4462 -0.4434 -2.4702
15766SOL     OW51753  10.345   6.889   4.641  0.3581 -0.4954  0.3202
15766SOL    HW151754  10.272   6.908   4.700  0.0387  1.5898 -0.6805
15766SOL    HW251755  10.423   6.911   4.693  0.2143 -1.1083  0.8114
15767SOL     OW51756   9.465   5.836   0.427 -0.2822  0.4375  0.1371
15767SOL    HW151757   9.545   5.789   0.403 -0.3952  0.5627 -0.5020
15767SOL    HW251758   9.485   5.875   0.512 -0.0686 -0.4871  0.5222
15768SOL     OW51759   9.881   7.193   6.504 -0.2757 -0.0377 -0.1491
15768SOL    HW151760   9.974   7.178   6.519 -0.4496 -1.1477 -0.0817
15768SOL    HW251761   9.870   7.288   6.510  0.4352 -0.0486  2.3347
15769SOL     OW51762   4.026   0.424   4.421 -0.5869 -0.4373 -0.5863
15769SOL    HW151763   4.089   0.364   4.460 -0.9848  0.0449  0.8780
15769SOL    HW251764   3.942   0.380   4.429 -0.6690 -0.3601 -0.9815
15770SOL     OW51765   3.436  10.536   4.797  0.0226 -0.1070  0.5353
15770SOL    HW151766   3.369  10.602   4.777 -0.0020 -0.2605  0.0875
15770SOL    HW251767   3.410  10.460   4.745  2.0947  0.7478 -1.9563
15771SOL     OW51768   4.566   5.611   9.568 -0.0784  0.3658  0.1657
15771SOL    HW151769   4.553   5.705   9.575 -0.7587  0.3210 -0.3732
15771SOL    HW251770   4.577   5.595   9.474 -0.3231 -0.1249  0.2162
15772SOL     OW51771   3.729   8.472   8.647  0.1188  0.4340  0.1535
15772SOL    HW151772   3.753   8.380   8.653  2.7261  0.8601 -1.9811
15772SOL    HW251773   3.659   8.483   8.712 -1.0772 -3.2358 -0.3067
15773SOL     OW51774   4.146   0.650   2.001  1.0408  0.2690  0.1511
15773SOL    HW151775   4.071   0.625   2.055  0.4443  0.9509 -0.3346
15773SOL    HW251776   4.109   0.660   1.913  2.1200 -1.5273 -0.5664
15774SOL     OW51777   9.040   5.921   7.078 -0.7882  0.0499  0.3428
15774SOL    HW151778   8.957   5.872   7.080 -0.5070 -0.5298 -1.0613
15774SOL    HW251779   9.094   5.878   7.144 -0.4184 -1.8542 -1.1017
15775SOL     OW51780   3.430   2.451   6.145 -0.1679  0.3414 -0.0015
15775SOL    HW151781   3.400   2.534   6.183 -0.0358  0.0787  0.6922
15775SOL    HW251782   3.429   2.467   6.050 -0.1447  1.1336  0.1195
15776SOL     OW51783   8.481   8.059  10.777  0.2940  0.1160  0.1742
15776SOL    HW151784   8.575   8.073  10.789  0.1251  0.1729  1.5692
15776SOL    HW251785   8.463   7.977  10.823 -0.1916 -0.4058 -0.9013
15777SOL     OW51786   4.722   5.220  10.410 -0.0589 -0.0582  0.1315
15777SOL    HW151787   4.700   5.157  10.479 -0.3864  0.3754  0.4349
15777SOL    HW251788   4.656   5.289  10.419 -0.1785 -0.0536 -0.7020
15778SOL     OW51789   6.948   8.878   7.239 -0.1271  0.0897 -0.0265
15778SOL    HW151790   6.908   8.925   7.167 -0.5985  1.8114  1.2917
15778SOL    HW251791   7.042   8.897   7.231  0.1957 -1.8852 -1.6498
15779SOL     OW51792   4.083   3.209   2.550  1.1263 -0.6308  0.0483
15779SOL    HW151793   4.131   3.273   2.603 -0.1366 -0.2948  0.8451
15779SOL    HW251794   4.074   3.250   2.464  0.0794  0.4250  0.6329
15780SOL     OW51795   2.396   0.858   1.280  0.2024  0.4380  0.5747
15780SOL    HW151796   2.428   0.802   1.209  2.4936  2.6980 -0.3267
15780SOL    HW251797   2.304   0.873   1.259  0.4665 -0.0638 -1.1442
15781SOL     OW51798   9.553   6.450   2.757  0.0011  0.0240 -0.4512
15781SOL    HW151799   9.517   6.427   2.671  0.2264  0.4076 -0.6513
15781SOL    HW251800   9.572   6.366   2.799 -0.3303 -0.1673 -0.6818
15782SOL     OW51801   1.751   2.495   4.993 -0.0341 -0.0025  0.2272
15782SOL    HW151802   1.757   2.488   5.089 -0.2446 -1.4606  0.1590
15782SOL    HW251803   1.738   2.405   4.964 -0.2971  0.4700 -1.1607
15783SOL     OW51804  10.654   7.784  11.050 -0.1725 -0.3333  0.2441
15783SOL    HW151805  10.567   7.781  11.089 -0.5158 -0.5316 -0.5373
15783SOL    HW251806  10.669   7.695  11.017  0.2295 -0.2353  0.1531
15784SOL     OW51807   4.585   3.984   0.756 -0.0967 -0.2017 -0.0894
15784SOL    HW151808   4.541   4.015   0.836  0.7172  0.1378  0.2418
15784SOL    HW251809   4.661   3.937   0.789 -0.1748 -0.7264 -0.6566
15785SOL     OW51810   3.997   6.565   7.161 -0.0959 -0.5634  0.4882
15785SOL    HW151811   4.070   6.502   7.165 -0.1646 -0.7257 -0.5829
15785SOL    HW251812   4.003   6.603   7.073 -2.2557 -1.7439 -0.2472
15786SOL     OW51813  11.071   7.514   4.816  0.6340 -0.0043 -0.1330
15786SOL    HW151814  11.016   7.532   4.740 -1.6923 -0.3886  1.3282
15786SOL    HW251815  11.016   7.540   4.891  2.6568 -0.0159  1.4324
15787SOL     OW51816   0.089   0.593   2.478  0.7626  0.3569  0.0448
15787SOL    HW151817   0.160   0.535   2.508  0.7070  0.7413  0.9414
15787SOL    HW251818   0.053   0.549   2.401 -1.2034 -2.3433  2.3053
15788SOL     OW51819   8.896   9.957   4.130  0.0998  0.1057  0.0668
15788SOL    HW151820   8.901   9.987   4.221  2.0049 -0.2696  0.1394
15788SOL    HW251821   8.911  10.036   4.078  2.0374 -0.1117  0.1952
15789SOL     OW51822   0.433   2.431   9.656 -0.0049  0.1158  0.7559
15789SOL    HW151823   0.404   2.346   9.623 -2.1278  0.8685  0.5435
15789SOL    HW251824   0.525   2.418   9.680  0.3263 -1.6594 -1.2516
15790SOL     OW51825   2.121   7.691   8.773 -0.2478  0.5039  0.1017
15790SOL    HW151826   2.084   7.649   8.851  0.0676 -0.3358 -0.1916
15790SOL    HW251827   2.132   7.783   8.798  0.6802  0.0753  1.3562
15791SOL     OW51828   0.199  10.961   5.835 -0.4444 -0.6150  0.5474
15791SOL    HW151829   0.108  10.974   5.805 -1.6839 -1.7151  3.4694
15791SOL    HW251830   0.206  10.866   5.850  1.2569 -0.5583  0.3081
15792SOL     OW51831   9.729   2.087   5.666  0.1783 -0.7287  0.1370
15792SOL    HW151832   9.651   2.131   5.633 -1.5188 -3.2403  0.4988
15792SOL    HW251833   9.761   2.036   5.592 -0.3484 -2.0563  0.7972
15793SOL     OW51834   6.330   3.476   4.928  0.5374  0.1723  0.3286
15793SOL    HW151835   6.352   3.567   4.908  0.6417  0.0457 -0.1460
15793SOL    HW251836   6.398   3.425   4.884 -0.7920 -0.2377 -1.3822
15794SOL     OW51837   0.790   9.680   8.645  0.0398  0.4968  0.2529
15794SOL    HW151838   0.855   9.672   8.715  1.2110  3.2482 -0.4071
15794SOL    HW251839   0.729   9.746   8.676 -2.4339 -1.8092  0.7201
15795SOL     OW51840   9.126   9.598   5.088 -0.7611 -0.6206 -0.1677
15795SOL    HW151841   9.119   9.509   5.055 -0.7402 -1.2917  1.5271
15795SOL    HW251842   9.140   9.588   5.183  2.0524  1.0917 -0.2772
15796SOL     OW51843   1.890   4.300   3.101  0.0141 -0.2082  0.1962
15796SOL    HW151844   1.825   4.361   3.135 -0.0622 -0.1264 -0.0990
15796SOL    HW251845   1.963   4.306   3.163  0.1833  0.4957 -0.0651
15797SOL     OW51846   5.307   9.663   6.580 -0.1459 -0.2892 -0.3550
15797SOL    HW151847   5.228   9.716   6.588  0.0185 -0.1828  0.9296
15797SOL    HW251848   5.281   9.576   6.610 -0.3556 -0.9014 -2.2357
15798SOL     OW51849   7.592   3.943   9.492 -0.6026 -0.2594  0.2983
15798SOL    HW151850   7.656   3.943   9.563  0.6728 -1.9563 -0.7962
15798SOL    HW251851   7.553   3.856   9.494  1.9913 -1.7130 -3.1771
15799SOL     OW51852   9.061  10.187   4.000  0.2450 -0.6021  0.0229
15799SOL    HW151853   9.097  10.195   3.912  0.2935  0.8100  0.1496
15799SOL    HW251854   9.132  10.215   4.058 -0.1586 -0.4295  0.4424
15800SOL     OW51855   1.165  10.196   4.513 -0.5135  0.0593 -0.1239
15800SOL    HW151856   1.233  10.223   4.574  1.2765 -1.9787 -1.0969
15800SOL    HW251857   1.195  10.226   4.428 -1.2648 -0.1022 -0.4590
15801SOL     OW51858   9.279   0.311   1.712  0.0856  0.0593  0.0413
15801SOL    HW151859   9.209   0.287   1.650  0.3573  1.6914 -0.9535
15801SOL    HW251860   9.358   0.272   1.674  0.0378 -0.0928  0.0959
15802SOL     OW51861  10.610  10.780   2.113 -0.0734  0.0302  0.0809
15802SOL    HW151862  10.592  10.713   2.047  0.1159 -0.8856  0.9294
15802SOL    HW251863  10.545  10.763   2.182  0.2345  0.4653  0.4814
15803SOL     OW51864   2.563   8.202   2.783  0.4631 -0.6192 -0.6144
15803SOL    HW151865   2.481   8.218   2.737 -0.2849 -1.3829  0.3960
15803SOL    HW251866   2.577   8.281   2.835  1.2890  0.2281 -2.0462
15804SOL     OW51867   9.376  10.591   4.769 -0.0962 -0.3308  0.1863
15804SOL    HW151868   9.298  10.560   4.815 -1.1216  0.7219 -0.7803
15804SOL    HW251869   9.436  10.618   4.839 -1.2421  0.3596  0.9244
15805SOL     OW51870   0.058  10.155   9.375  0.3810  0.5234  0.4797
15805SOL    HW151871   0.031  10.067   9.349 -1.6467  1.0298  0.7156
15805SOL    HW251872   0.048  10.157   9.470  2.2710  0.4448  0.7110
15806SOL     OW51873   7.568   0.548   5.580  0.4011  0.0134 -0.0046
15806SOL    HW151874   7.639   0.529   5.518  1.6221 -0.3733  1.4663
15806SOL    HW251875   7.489   0.549   5.525  1.4380 -0.2327 -1.5809
15807SOL     OW51876   2.882  10.373   3.517 -0.0992 -0.0419  0.4190
15807SOL    HW151877   2.850  10.427   3.589  0.4123  1.6970 -0.5892
15807SOL    HW251878   2.960  10.419   3.486 -1.5460  0.6139 -2.7074
15808SOL     OW51879   7.144   7.597   6.866 -0.6488  0.4518  0.5407
15808SOL    HW151880   7.215   7.659   6.852 -1.1946  0.6214 -1.8330
15808SOL    HW251881   7.185   7.524   6.912  0.8692  0.9232  0.0015
15809SOL     OW51882   1.569   3.014   4.925  0.2372  0.4723 -0.7127
15809SOL    HW151883   1.608   2.944   4.873  1.3375 -0.9802  1.8967
15809SOL    HW251884   1.488   2.976   4.960  1.2096  0.1245  1.3226
15810SOL     OW51885   8.421   2.798   0.287 -0.0490  0.2746 -0.1541
15810SOL    HW151886   8.352   2.733   0.303  1.3079 -1.0057  0.7646
15810SOL    HW251887   8.499   2.745   0.268  1.1813  1.6144  0.9663
15811SOL     OW51888   9.352   5.081   4.096 -0.0395 -0.0150 -0.2465
15811SOL    HW151889   9.391   5.057   4.012  0.1805 -2.1825  0.3931
15811SOL    HW251890   9.260   5.099   4.076  0.0561 -0.3154 -0.9946
15812SOL     OW51891   8.281   2.206   5.259  0.2811  0.0532 -0.1095
15812SOL    HW151892   8.301   2.287   5.213 -1.5676  0.2557 -0.6061
15812SOL    HW251893   8.272   2.233   5.351  1.4032  0.0733  0.0204
15813SOL     OW51894   9.570   2.025   7.354 -0.7250 -0.1537 -0.2764
15813SOL    HW151895   9.481   2.007   7.385 -0.4872  0.2070  0.6411
15813SOL    HW251896   9.618   2.053   7.432 -0.4721  2.2323 -1.2005
15814SOL     OW51897   2.532   0.399   6.296 -0.3109  0.1164 -0.0443
15814SOL    HW151898   2.621   0.427   6.318  0.6874 -2.6820 -0.1108
15814SOL    HW251899   2.543   0.311   6.259 -3.1874 -0.6225  0.6235
15815SOL     OW51900  10.096   2.295   0.536 -0.0466  0.0045 -0.0575
15815SOL    HW151901  10.030   2.363   0.521  0.8941  1.3352  1.5238
15815SOL    HW251902  10.177   2.344   0.553  0.9859 -1.5557 -0.2882
15816SOL     OW51903   3.339   1.051   7.248 -0.6170  0.2891 -0.0162
15816SOL    HW151904   3.351   0.985   7.317  0.5548 -0.8515 -1.2617
15816SOL    HW251905   3.274   1.013   7.189 -0.9849  0.8909 -0.0078
15817SOL     OW51906   8.530  10.646   9.370 -0.6712 -0.2740  0.2513
15817SOL    HW151907   8.570  10.562   9.347 -2.0260 -1.3077  1.5054
15817SOL    HW251908   8.478  10.670   9.293  0.2637 -0.2070 -0.3782
15818SOL     OW51909   9.950   3.623   3.327 -0.3834  0.3143  0.1930
15818SOL    HW151910   9.907   3.698   3.287 -0.6399 -0.3797 -0.8794
15818SOL    HW251911   9.911   3.617   3.414  0.8733  2.4200  0.9918
15819SOL     OW51912   3.240   7.987   1.658 -0.4864 -0.4990 -0.2943
15819SOL    HW151913   3.271   8.031   1.737  1.2566 -0.4205 -0.9577
15819SOL    HW251914   3.145   7.998   1.659 -0.3628  0.7131  1.0524
15820SOL     OW51915   9.328   3.918   2.864  0.2182  0.3389 -0.0788
15820SOL    HW151916   9.329   3.996   2.919  0.7199  0.1065  0.2575
15820SOL    HW251917   9.235   3.897   2.854  0.0817 -1.2854  3.1736
15821SOL     OW51918   2.356   6.450  10.578  0.2913  0.4915 -0.3337
15821SOL    HW151919   2.430   6.417  10.528 -0.2990 -0.6286 -0.4992
15821SOL    HW251920   2.285   6.387  10.562 -0.3527  0.9005  0.7383
15822SOL     OW51921   2.539   1.513   5.949 -0.0139  0.0257 -0.0633
15822SOL    HW151922   2.483   1.542   6.020  0.2015  0.5422 -0.0989
15822SOL    HW251923   2.615   1.572   5.953  0.5684 -0.7157  0.0443
15823SOL     OW51924   3.440   6.881   1.388 -0.0212  0.0045  0.2580
15823SOL    HW151925   3.394   6.842   1.313 -0.9152 -0.2777  0.9326
15823SOL    HW251926   3.373   6.887   1.456  1.2385 -1.4901  1.6797
15824SOL     OW51927   7.002   7.066  10.762 -0.1761  0.0918 -0.3121
15824SOL    HW151928   6.927   7.023  10.720 -0.7589  0.0971  0.7023
15824SOL    HW251929   7.027   7.135  10.700  0.1341 -1.0181 -1.4876
15825SOL     OW51930   3.170   4.563  10.821  0.5407 -0.8906  0.4020
15825SOL    HW151931   3.224   4.519  10.885  1.1621  0.3264  0.7445
15825SOL    HW251932   3.139   4.642  10.866  0.9125 -0.0658 -0.7488
15826SOL     OW51933   3.656   4.150   2.232  0.6011  0.2552 -0.4027
15826SOL    HW151934   3.651   4.174   2.324 -0.7030 -2.2082  0.2836
15826SOL    HW251935   3.745   4.170   2.206  1.1909  0.4170  1.5966
15827SOL     OW51936   3.767   5.718   5.654 -0.4216  0.1719  0.1923
15827SOL    HW151937   3.710   5.784   5.694 -0.5322  0.2418 -0.0751
15827SOL    HW251938   3.746   5.723   5.561  1.3406  1.4892 -0.1765
15828SOL     OW51939  10.024   3.002   5.354  0.3012  0.4754  0.2920
15828SOL    HW151940   9.993   3.092   5.358  2.8331  1.4311  0.4220
15828SOL    HW251941  10.116   3.009   5.327  0.3583 -2.1284 -0.5481
15829SOL     OW51942   5.971   3.482   5.109 -0.4922  0.6507 -0.1118
15829SOL    HW151943   5.952   3.571   5.080 -1.1281  1.3262  2.2242
15829SOL    HW251944   5.897   3.431   5.078 -0.5668  1.0901 -0.6862
15830SOL     OW51945   8.755   4.824   1.826  0.1350  0.0406  0.0102
15830SOL    HW151946   8.698   4.770   1.772  0.6051  0.2006 -0.6486
15830SOL    HW251947   8.843   4.806   1.793  0.3003  1.1689 -0.1757
15831SOL     OW51948   8.353  10.647   5.108 -0.1609 -0.1287  0.0739
15831SOL    HW151949   8.263  10.619   5.096  0.1142 -0.3688 -1.6582
15831SOL    HW251950   8.381  10.604   5.189 -2.2640  1.7950  1.9667
15832SOL     OW51951   1.490   7.253   7.581 -0.0862  0.0401 -0.3780
15832SOL    HW151952   1.400   7.220   7.585 -0.2985  0.7054  1.0844
15832SOL    HW251953   1.500   7.305   7.661  1.4068  0.4887 -0.8200
15833SOL     OW51954  10.286   1.902   4.840 -0.0691  0.5094  0.0518
15833SOL    HW151955  10.260   1.961   4.910 -0.9775  0.7501 -0.4673
15833SOL    HW251956  10.356   1.948   4.794 -0.0373  0.7085  0.3008
15834SOL     OW51957   4.792   2.004   4.001 -0.3461  0.1846 -0.3388
15834SOL    HW151958   4.712   1.955   4.021 -0.1273 -0.7369 -1.5795
15834SOL    HW251959   4.811   2.052   4.082 -1.7307 -0.1561  0.2286
15835SOL     OW51960   7.633   8.384   0.239  0.3177  0.1924  0.4440
15835SOL    HW151961   7.559   8.326   0.222 -0.0500  0.7009  0.2896
15835SOL    HW251962   7.706   8.345   0.190 -0.6148  1.4177 -2.0787
15836SOL     OW51963   4.402   4.717   4.120  0.4290 -0.0616  0.0558
15836SOL    HW151964   4.348   4.672   4.055 -1.2737  2.0435 -0.1002
15836SOL    HW251965   4.431   4.797   4.076 -1.1273  1.6485  1.9160
15837SOL     OW51966   5.127   3.612   9.125  0.0138 -0.0866 -0.5217
15837SOL    HW151967   5.169   3.541   9.076 -0.3044 -1.4469  1.1101
15837SOL    HW251968   5.141   3.590   9.217 -3.3700 -0.1064  0.1212
15838SOL     OW51969   2.007   6.670   4.858 -0.3006  0.2799  0.9669
15838SOL    HW151970   2.070   6.604   4.827 -0.5508 -0.5615  2.1604
15838SOL    HW251971   1.965   6.702   4.779  2.4661  1.8130 -0.0480
15839SOL     OW51972   7.289   5.710   8.581 -0.6857 -0.3083  0.1744
15839SOL    HW151973   7.253   5.737   8.497 -1.6725 -0.0173  0.6790
15839SOL    HW251974   7.230   5.748   8.646  1.8737  2.3635  1.1718
15840SOL     OW51975   2.620   5.291   5.463  0.4211  0.0846 -0.2659
15840SOL    HW151976   2.691   5.228   5.466 -0.1300 -0.5181  0.7546
15840SOL    HW251977   2.650   5.358   5.401  1.0322 -1.1317 -1.3364
15841SOL     OW51978   8.561   0.248   3.366  0.1811 -0.0765 -0.1598
15841SOL    HW151979   8.480   0.218   3.324  0.1810 -0.2668 -0.0226
15841SOL    HW251980   8.567   0.196   3.446  0.1527  0.3334  0.1062
15842SOL     OW51981   0.604   6.627  11.005  0.9906  0.2674 -0.3071
15842SOL    HW151982   0.575   6.537  10.993  2.6458 -0.2640 -0.7014
15842SOL    HW251983   0.553   6.678  10.943 -0.8604 -0.1671  0.7951
15843SOL     OW51984   3.806   1.996   1.660 -0.3977  0.5448  0.2530
15843SOL    HW151985   3.883   2.040   1.624  0.4615 -1.3128 -0.2705
15843SOL    HW251986   3.773   1.942   1.589 -1.6178  0.5526  0.7829
15844SOL     OW51987   5.090   1.430   8.641 -0.2393  0.5382  0.0028
15844SOL    HW151988   5.117   1.519   8.661 -0.2458  0.2902  1.1832
15844SOL    HW251989   4.997   1.436   8.620 -0.5671  0.6247  1.4423
15845SOL     OW51990   3.686   8.458   5.496 -0.1189 -0.0193  0.0702
15845SOL    HW151991   3.722   8.372   5.520  1.0123  0.8024  1.5062
15845SOL    HW251992   3.763   8.515   5.490 -0.9940  1.3947  1.4594
15846SOL     OW51993   7.355  10.156   7.420  0.0168  0.1371  0.2950
15846SOL    HW151994   7.374  10.104   7.342 -0.9380 -1.0519  0.8234
15846SOL    HW251995   7.440  10.169   7.462  0.3864 -0.1974 -0.3371
15847SOL     OW51996   8.867   7.225   7.438  0.3316  0.3754  0.5590
15847SOL    HW151997   8.800   7.160   7.418  0.8176  0.4043 -1.3299
15847SOL    HW251998   8.922   7.183   7.505  0.6770 -1.2401 -0.6513
15848SOL     OW51999   3.818   5.914   0.479 -0.7549 -0.2951 -0.5703
15848SOL    HW152000   3.867   5.898   0.398 -0.9920  0.0233 -0.7786
15848SOL    HW252001   3.751   5.845   0.480 -1.0833  0.0180 -0.9109
15849SOL     OW52002   4.249   0.700   9.719  0.1472  0.0343 -0.0192
15849SOL    HW152003   4.285   0.651   9.793  2.1205 -0.5135 -1.2696
15849SOL    HW252004   4.276   0.791   9.735  3.4014 -0.5267 -1.5306
15850SOL     OW52005   8.483   7.554   7.540 -0.2950  0.0421 -0.0141
15850SOL    HW152006   8.568   7.529   7.504  0.4078  0.0346  1.5606
15850SOL    HW252007   8.468   7.642   7.507 -0.2778 -0.4177 -1.3003
15851SOL     OW52008   8.075   8.137   2.285 -0.2441 -0.7431  0.0331
15851SOL    HW152009   8.124   8.137   2.203 -1.1728  0.1080 -0.5419
15851SOL    HW252010   8.008   8.204   2.273  0.2619  0.1479  1.8919
15852SOL     OW52011   6.406   9.821   3.421 -0.1214 -0.0941 -0.1549
15852SOL    HW152012   6.470   9.816   3.350  0.8158  0.3237  0.6433
15852SOL    HW252013   6.330   9.864   3.382 -0.4897 -1.8534 -1.5061
15853SOL     OW52014  10.111  10.621  10.405  0.4283  0.6560  0.0123
15853SOL    HW152015  10.120  10.566  10.482 -1.0444 -0.1526 -0.3609
15853SOL    HW252016  10.199  10.625  10.367  0.4710 -1.9689 -0.2942
15854SOL     OW52017   0.151   4.531   3.181  0.2905  0.1015  0.1109
15854SOL    HW152018   0.095   4.609   3.176  0.6824  0.3996  0.3367
15854SOL    HW252019   0.107   4.473   3.243  0.0615  0.1966  0.0375
15855SOL     OW52020   6.629   8.942  10.586 -0.0131  0.1764 -0.3199
15855SOL    HW152021   6.640   8.940  10.681  0.3770  1.1980 -0.3327
15855SOL    HW252022   6.560   9.006  10.571 -0.0005  0.0960 -0.7258
15856SOL     OW52023   2.314   1.302  10.988  0.0139 -0.2679  0.5122
15856SOL    HW152024   2.299   1.280  10.896  0.3441  0.0195  0.3877
15856SOL    HW252025   2.394   1.254  11.011 -0.2781 -0.6433  0.7616
15857SOL     OW52026   4.493   8.104   3.351  0.2279  0.0376 -0.3447
15857SOL    HW152027   4.496   8.013   3.320 -0.7208 -0.6526  1.4085
15857SOL    HW252028   4.550   8.104   3.428 -1.7794  0.2166  1.2207
15858SOL     OW52029   2.207   3.394   5.007 -0.3987  0.4624 -0.2972
15858SOL    HW152030   2.216   3.420   5.098 -1.0093 -2.4843  0.7149
15858SOL    HW252031   2.112   3.384   4.994 -0.3355  1.0169 -1.3422
15859SOL     OW52032   8.479   4.658   9.955 -0.1363 -0.1482  0.4975
15859SOL    HW152033   8.545   4.696  10.014  0.3187  0.1737 -0.2057
15859SOL    HW252034   8.402   4.646  10.010 -0.1546  1.3973  0.8576
15860SOL     OW52035   0.308   6.273   1.076 -0.3193 -0.2900  0.2173
15860SOL    HW152036   0.387   6.222   1.094 -0.2013  0.0765  0.7721
15860SOL    HW252037   0.331   6.326   1.000 -0.7157 -1.6351 -0.8609
15861SOL     OW52038  10.882   6.441   0.166  0.4749  0.0143 -0.0608
15861SOL    HW152039  10.958   6.393   0.200 -1.4453 -2.3863  1.1188
15861SOL    HW252040  10.856   6.499   0.238  1.7035  1.6320 -0.8388
15862SOL     OW52041   8.681   0.688   8.260 -0.7142 -0.2005 -0.1189
15862SOL    HW152042   8.708   0.655   8.174 -0.1042  0.2654 -0.1197
15862SOL    HW252043   8.588   0.667   8.267 -0.2667 -2.3056  0.0767
15863SOL     OW52044   8.377   4.324   4.320 -0.2424 -0.2314  0.5717
15863SOL    HW152045   8.451   4.343   4.377  0.2274  0.4029 -0.2145
15863SOL    HW252046   8.357   4.408   4.278 -1.6325 -0.3031  1.0170
15864SOL     OW52047   7.589   2.346  10.379 -0.2574  0.5959 -0.1789
15864SOL    HW152048   7.556   2.408  10.314 -0.6810  0.7497  0.1812
15864SOL    HW252049   7.671   2.313  10.341 -0.4908  0.6992 -0.7768
15865SOL     OW52050   5.231   9.984  10.203  0.1530 -0.3324 -0.5213
15865SOL    HW152051   5.218   9.906  10.256  2.3753 -0.0450  0.5650
15865SOL    HW252052   5.260   9.951  10.118  1.9755 -0.7146  0.2141
15866SOL     OW52053   8.719   5.088   1.829  0.2046 -0.3572  0.0042
15866SOL    HW152054   8.635   5.077   1.784  0.1562  0.2039 -0.0599
15866SOL    HW252055   8.741   5.001   1.862 -0.2251 -0.5812 -0.2932
15867SOL     OW52056  10.051  10.676   1.856 -0.5832  0.8819  0.2880
15867SOL    HW152057   9.970  10.724   1.838 -0.1714  1.4800 -0.0275
15867SOL    HW252058  10.114  10.745   1.880 -0.4114  0.3488  1.4580
15868SOL     OW52059   7.849   6.467   2.566  0.1700  0.2370  0.4316
15868SOL    HW152060   7.928   6.422   2.535 -1.3169 -1.6167 -0.8874
15868SOL    HW252061   7.836   6.435   2.655  2.2079  2.4982  1.6834
15869SOL     OW52062   9.239   4.669   3.093  0.5528 -0.0396 -0.0332
15869SOL    HW152063   9.165   4.730   3.090  0.1313 -0.4428  1.1722
15869SOL    HW252064   9.198   4.583   3.099  1.1437 -0.4510 -1.6373
15870SOL     OW52065  10.145   3.045   8.980  0.5477 -0.7112  0.4088
15870SOL    HW152066  10.062   3.092   8.993  0.9625 -0.0730  0.8274
15870SOL    HW252067  10.127   2.956   9.008 -0.0517 -0.6205  0.3213
15871SOL     OW52068   6.278   3.888   4.063 -0.1948  0.5321  0.8875
15871SOL    HW152069   6.258   3.981   4.054  1.6631  1.1525  2.4538
15871SOL    HW252070   6.368   3.880   4.033 -1.0246 -1.2556 -1.4460
15872SOL     OW52071   5.067   6.131   4.269  0.9376  0.7183  0.0217
15872SOL    HW152072   5.044   6.184   4.346 -1.0481 -2.4955  1.8390
15872SOL    HW252073   4.999   6.152   4.205 -0.2537 -0.0406  0.9855
15873SOL     OW52074   9.736   0.697   9.061 -0.2295  0.1520 -0.4118
15873SOL    HW152075   9.799   0.666   9.126  1.4109  3.2481 -0.3253
15873SOL    HW252076   9.652   0.661   9.090  0.7225 -0.0098  2.4454
15874SOL     OW52077   6.099   3.058   3.618  0.3960  0.9524  0.6699
15874SOL    HW152078   6.019   3.091   3.659 -0.3908  0.8162 -0.7041
15874SOL    HW252079   6.128   2.988   3.677 -2.4106 -1.3556 -0.4086
15875SOL     OW52080   3.748   7.469   1.413  0.1411  0.6862 -0.4311
15875SOL    HW152081   3.833   7.500   1.380  0.5690 -0.5157 -0.5244
15875SOL    HW252082   3.728   7.527   1.486 -0.0559  2.4097 -1.7845
15876SOL     OW52083   5.968   0.182   0.390 -0.4733  0.4032  0.4647
15876SOL    HW152084   6.052   0.139   0.407 -0.6616 -0.4411 -0.5754
15876SOL    HW252085   5.963   0.252   0.455  1.1922  0.7066  0.3230
15877SOL     OW52086   8.835   7.242   3.317  0.1795  0.2714 -0.4309
15877SOL    HW152087   8.874   7.205   3.397 -0.2538 -0.5257 -0.5704
15877SOL    HW252088   8.857   7.178   3.249  0.0691  0.6647 -0.8373
15878SOL     OW52089   4.014   8.361   5.075  0.0184 -0.1942 -0.6343
15878SOL    HW152090   4.077   8.289   5.073 -0.3627 -0.5208 -1.0635
15878SOL    HW252091   3.998   8.380   4.982  0.1298  0.4541 -0.5244
15879SOL     OW52092   6.779   7.390   0.304  0.5419  0.1001  0.1126
15879SOL    HW152093   6.798   7.297   0.296 -1.4622 -0.2517 -1.1425
15879SOL    HW252094   6.699   7.394   0.356  0.1784  1.0772 -0.5033
15880SOL     OW52095   1.231   5.903   2.002 -0.0656 -0.3873  0.3046
15880SOL    HW152096   1.321   5.901   1.971 -0.5921  0.8753 -1.4473
15880SOL    HW252097   1.208   5.811   2.016  1.2439 -0.7731  0.0695
15881SOL     OW52098  10.410  10.379   9.411 -0.1521  0.1287 -0.6517
15881SOL    HW152099  10.502  10.405   9.414 -0.0698 -0.1964 -0.2579
15881SOL    HW252100  10.412  10.285   9.426 -0.6237  0.2845  0.5266
15882SOL     OW52101   6.595   2.848   7.394 -0.0645  0.4367 -0.1981
15882SOL    HW152102   6.612   2.755   7.375  1.1935  0.6591 -0.2837
15882SOL    HW252103   6.598   2.890   7.308 -2.2125  0.3591 -0.3503
15883SOL     OW52104   9.972   7.242   0.721 -0.1328 -0.1651  0.6742
15883SOL    HW152105   9.942   7.259   0.632 -1.0353  1.4417  1.2514
15883SOL    HW252106   9.989   7.147   0.723 -3.1225 -0.8265 -0.3124
15884SOL     OW52107   4.605   6.191   0.825  0.1051  0.1739 -0.2829
15884SOL    HW152108   4.695   6.174   0.796  0.1828  0.1121 -0.0116
15884SOL    HW252109   4.607   6.280   0.860  0.6933 -0.7077  2.1245
15885SOL     OW52110   9.686   2.712   8.725  0.3719  0.2692 -0.0102
15885SOL    HW152111   9.716   2.719   8.816 -0.6382 -0.1687  0.3789
15885SOL    HW252112   9.714   2.625   8.697  0.5123  0.3293 -0.0596
15886SOL     OW52113   0.313   5.286   9.931  0.0663  0.1082  0.6005
15886SOL    HW152114   0.368   5.361   9.908  0.5078  0.0667  1.4468
15886SOL    HW252115   0.289   5.247   9.847  0.4086  0.7850  0.1748
15887SOL     OW52116   0.881  10.466   7.995 -0.7135 -0.4365 -0.1276
15887SOL    HW152117   0.792  10.464   8.031 -0.9348 -0.7925 -0.6892
15887SOL    HW252118   0.923  10.388   8.030 -0.0117  0.6800  1.6474
15888SOL     OW52119   3.003   6.762   9.490  0.5515 -0.2301 -0.2744
15888SOL    HW152120   2.979   6.793   9.403 -0.4161  0.2716  0.1603
15888SOL    HW252121   2.980   6.669   9.490  0.0054 -0.0927 -0.3529
15889SOL     OW52122   9.595   4.266   2.200  0.6455  0.1434  0.8012
15889SOL    HW152123   9.649   4.278   2.123  0.5922  0.2703  0.7835
15889SOL    HW252124   9.635   4.192   2.247 -0.4063 -1.2011 -0.3055
15890SOL     OW52125   1.796   6.257   0.985  0.1801  0.4866 -0.2779
15890SOL    HW152126   1.856   6.200   0.938 -0.3108 -0.0573 -0.2564
15890SOL    HW252127   1.734   6.286   0.918  0.2845  0.8046 -0.2392
15891SOL     OW52128   7.259   4.382   1.384 -0.4958  0.0287 -0.6302
15891SOL    HW152129   7.226   4.327   1.455  0.7917  0.7957  0.6152
15891SOL    HW252130   7.198   4.455   1.381  0.6839  1.1927  1.3319
15892SOL     OW52131   4.559   6.683  10.197 -0.2648 -0.3539 -0.3189
15892SOL    HW152132   4.571   6.766  10.243 -2.4855 -1.0905  1.8058
15892SOL    HW252133   4.648   6.651  10.181  0.6093  1.3128  0.9179
15893SOL     OW52134   1.137   6.295   9.305  0.2167 -0.1426  0.0831
15893SOL    HW152135   1.075   6.323   9.238  0.7301  1.8314  0.3692
15893SOL    HW252136   1.178   6.376   9.334  1.5203 -1.2003  1.2915
15894SOL     OW52137   0.559   3.373   6.095  0.3229  0.1010  1.0103
15894SOL    HW152138   0.634   3.409   6.048 -1.5619 -1.0373 -3.4195
15894SOL    HW252139   0.513   3.449   6.128  0.5887  1.2923 -1.1374
15895SOL     OW52140   6.505   1.009   0.250  0.0759  0.4225 -0.1219
15895SOL    HW152141   6.414   1.039   0.252 -0.8684 -2.1485  1.9079
15895SOL    HW252142   6.499   0.915   0.266  3.1030  0.1256 -0.2043
15896SOL     OW52143   3.503   6.802   2.753  0.5281  0.2834 -0.4714
15896SOL    HW152144   3.593   6.806   2.721  1.4148  0.2020  1.7831
15896SOL    HW252145   3.512   6.800   2.849 -1.8537 -0.4414 -0.1969
15897SOL     OW52146   4.691   9.998  10.317  0.0433 -0.3863  0.2330
15897SOL    HW152147   4.601   9.988  10.288  0.0933  2.6630 -1.4227
15897SOL    HW252148   4.743   9.998  10.236  1.5100 -1.6713  1.1164
15898SOL     OW52149   7.202   4.308   5.689  0.3565  0.0600  0.5319
15898SOL    HW152150   7.297   4.299   5.702  0.3543  1.6969  1.9948
15898SOL    HW252151   7.194   4.363   5.611  0.7317  2.3858  2.0482
15899SOL     OW52152   6.855   5.831   8.909 -0.0105  0.5009 -0.3709
15899SOL    HW152153   6.905   5.804   8.986 -0.5616  2.7927  0.8875
15899SOL    HW252154   6.786   5.765   8.901  1.7384 -1.3811 -0.7131
15900SOL     OW52155   1.259   6.512   1.131 -0.6076 -0.1163  0.2890
15900SOL    HW152156   1.235   6.583   1.072 -1.1032  0.0544  0.6926
15900SOL    HW252157   1.355   6.514   1.133 -0.6137  0.4486  0.1905
15901SOL     OW52158   1.850   5.662   4.261  0.0776  0.2012 -0.1637
15901SOL    HW152159   1.772   5.631   4.307  0.5365  0.5129  0.8523
15901SOL    HW252160   1.866   5.596   4.193 -0.8529 -0.0470 -0.1553
15902SOL     OW52161   8.393   8.067   9.923  0.4926  0.2024 -0.0962
15902SOL    HW152162   8.450   8.021   9.861  0.5800  0.5116 -0.2513
15902SOL    HW252163   8.373   8.150   9.879 -1.2213 -0.4723 -0.6552
15903SOL     OW52164   5.392   3.017   4.008 -0.4879  0.1404 -1.1529
15903SOL    HW152165   5.483   3.035   4.028 -0.8918 -0.2447  1.3248
15903SOL    HW252166   5.360   3.097   3.967  1.1043  0.0147 -2.7552
15904SOL     OW52167   1.645   0.074   0.760 -0.3537  0.0789 -0.3984
15904SOL    HW152168   1.661  -0.016   0.789  0.1516  0.0249 -0.8486
15904SOL    HW252169   1.649   0.126   0.841 -0.3213 -0.2597 -0.1820
15905SOL     OW52170   5.388   1.568   1.095  0.2002 -0.2605 -0.1459
15905SOL    HW152171   5.390   1.663   1.094  0.0145 -0.2470  0.5771
15905SOL    HW252172   5.368   1.545   1.186 -0.8452 -0.9600 -0.5379
15906SOL     OW52173   8.064   5.868   8.888 -0.0044  0.1367 -0.2591
15906SOL    HW152174   8.150   5.868   8.846  0.4737 -1.1645  0.6634
15906SOL    HW252175   8.062   5.788   8.940 -1.3443  0.7014  0.6338
15907SOL     OW52176   6.775   0.261   0.380 -0.0434  0.3217 -0.3378
15907SOL    HW152177   6.727   0.207   0.443 -2.1455  3.1901  0.7355
15907SOL    HW252178   6.844   0.302   0.432 -1.1127  1.8577 -0.0498
15908SOL     OW52179   7.716   5.123   6.839 -0.5188  0.2252  0.0874
15908SOL    HW152180   7.810   5.134   6.852 -0.5942 -0.0565  0.9729
15908SOL    HW252181   7.686   5.207   6.805 -0.4022  1.3870  2.6397
15909SOL     OW52182   9.400   3.164   4.157 -0.0774 -0.1808 -0.2441
15909SOL    HW152183   9.443   3.199   4.079 -0.2826 -0.7135 -0.6059
15909SOL    HW252184   9.469   3.115   4.203 -0.0638 -0.2422 -0.3291
15910SOL     OW52185   5.382   0.396   0.061  0.1058 -0.0696  0.0894
15910SOL    HW152186   5.465   0.443   0.054 -0.1913  0.8727  2.0910
15910SOL    HW252187   5.402   0.307   0.031  1.6158  0.3604 -0.2735
15911SOL     OW52188   0.874  11.042   2.389  0.0431  0.0984 -0.0694
15911SOL    HW152189   0.865  10.964   2.334  1.4466 -0.3567  0.3121
15911SOL    HW252190   0.948  11.090   2.351 -0.1622  0.7360  0.3131
15912SOL     OW52191   7.731   4.939   1.589  0.0135 -0.1302  0.1045
15912SOL    HW152192   7.670   4.992   1.537 -1.2216 -0.2785  1.3412
15912SOL    HW252193   7.704   4.849   1.573  1.5105 -0.3881 -1.2486
15913SOL     OW52194  10.627   5.007   0.844  0.2014  0.0882 -0.8803
15913SOL    HW152195  10.555   5.051   0.798  0.2125  1.5413  0.3972
15913SOL    HW252196  10.664   5.075   0.900  0.3800 -1.5352  1.0565
15914SOL     OW52197  10.658   3.263  10.169 -0.0678  0.0724  0.0060
15914SOL    HW152198  10.593   3.196  10.190  0.8940 -0.6929  0.6094
15914SOL    HW252199  10.623   3.307  10.091 -1.5663  0.0525  0.6403
15915SOL     OW52200   9.777   0.042   6.916 -0.0341 -0.3808 -0.2278
15915SOL    HW152201   9.816   0.129   6.916 -0.5944 -0.1239  0.1185
15915SOL    HW252202   9.684   0.057   6.902 -0.1821 -0.9007  0.1309
15916SOL     OW52203   1.836   2.251   8.718 -0.0807  0.0641  0.2535
15916SOL    HW152204   1.743   2.227   8.726 -0.3970  0.8673 -0.7692
15916SOL    HW252205   1.851   2.312   8.789 -0.9697  1.6881 -0.8876
15917SOL     OW52206   9.618   3.268   2.566 -0.1312 -0.1668  0.0029
15917SOL    HW152207   9.680   3.244   2.634 -0.1474 -0.3875 -0.0597
15917SOL    HW252208   9.593   3.185   2.526  0.0458 -0.0216 -0.4180
15918SOL     OW52209  10.690   1.299   5.835 -0.2176 -0.3371  0.0549
15918SOL    HW152210  10.639   1.255   5.903  0.1689  0.8448  1.1296
15918SOL    HW252211  10.756   1.350   5.882 -0.4458  1.1480 -1.1541
15919SOL     OW52212  10.622   6.694   4.381  0.1731 -0.1076 -0.4605
15919SOL    HW152213  10.628   6.699   4.285  0.2966  4.4947 -0.4424
15919SOL    HW252214  10.528   6.687   4.399  0.0011  0.6912 -0.9819
15920SOL     OW52215   2.575   2.015   7.149  0.0650 -0.2439  0.0127
15920SOL    HW152216   2.538   1.978   7.229 -2.0368  0.9403 -0.3368
15920SOL    HW252217   2.585   1.940   7.090 -0.2391 -0.8382  0.7032
15921SOL     OW52218   7.184   8.756   4.180  0.1736 -0.0048  0.6669
15921SOL    HW152219   7.108   8.814   4.189  0.5180  0.2368  2.4884
15921SOL    HW252220   7.238   8.776   4.257  1.2322 -1.4048  0.3223
15922SOL     OW52221   5.007  11.073   3.026  0.0055 -0.2223 -0.2207
15922SOL    HW152222   4.957  11.148   3.057  1.2686  1.3896 -1.9039
15922SOL    HW252223   5.093  11.082   3.067 -0.7004 -2.5285  2.0111
15923SOL     OW52224   6.801   3.118   0.926 -0.1587  0.2454  0.1237
15923SOL    HW152225   6.722   3.173   0.922  1.2982  2.5073  0.4777
15923SOL    HW252226   6.818   3.108   1.019  0.2499  0.1862  0.0437
15924SOL     OW52227   1.883   6.794   0.586 -0.7738  0.4056  0.8659
15924SOL    HW152228   1.861   6.875   0.633 -3.7223 -1.1466  2.4016
15924SOL    HW252229   1.942   6.748   0.644 -0.3110  0.7651  0.6851
15925SOL     OW52230   7.611   7.471   3.656 -0.3215  0.4101 -0.0726
15925SOL    HW152231   7.647   7.472   3.745 -0.4606 -2.0830  0.0993
15925SOL    HW252232   7.636   7.385   3.622 -1.3525  0.8228 -1.9957
15926SOL     OW52233   2.728   4.798   8.611  0.2320 -0.3091  0.4744
15926SOL    HW152234   2.790   4.841   8.552 -0.3008  0.5571  0.5381
15926SOL    HW252235   2.764   4.710   8.622  1.0751 -0.0475 -0.0481
15927SOL     OW52236   9.391   3.698   5.784  0.4583  0.2878 -0.2571
15927SOL    HW152237   9.424   3.624   5.834  1.1420  0.7566 -0.0073
15927SOL    HW252238   9.365   3.660   5.700 -1.4228 -0.6324  0.6891
15928SOL     OW52239   0.851   8.116   1.475  0.3721 -0.4863  0.2369
15928SOL    HW152240   0.929   8.078   1.436  0.5894 -0.7694  0.9391
15928SOL    HW252241   0.847   8.079   1.563 -0.6958 -0.6758  0.1290
15929SOL     OW52242   8.996   4.518   6.639  0.3110  0.2656  0.5356
15929SOL    HW152243   9.027   4.582   6.574 -1.9345  0.4684 -0.4152
15929SOL    HW252244   8.953   4.571   6.706 -1.0980 -0.1803  0.0107
15930SOL     OW52245   9.597   5.582   8.091 -0.1193 -0.0289 -0.3277
15930SOL    HW152246   9.507   5.595   8.118  0.5139  0.0024  1.9856
15930SOL    HW252247   9.629   5.669   8.067 -1.2599 -0.3278 -3.3658
15931SOL     OW52248   8.611   4.482  10.212 -0.0385 -0.0604 -0.8429
15931SOL    HW152249   8.667   4.555  10.185 -0.4552  0.5665 -0.0688
15931SOL    HW252250   8.579   4.444  10.130  0.0329  0.7485 -1.2590
15932SOL     OW52251   5.902   3.803   2.417  0.3683  0.8873 -0.1907
15932SOL    HW152252   5.914   3.764   2.504  0.8659  0.2525 -0.5360
15932SOL    HW252253   5.905   3.728   2.357 -0.5194  1.2596 -0.7092
15933SOL     OW52254   5.765   0.484  10.364  0.0850  0.0595  0.1371
15933SOL    HW152255   5.805   0.439  10.438  0.5526  1.4696  0.7819
15933SOL    HW252256   5.672   0.464  10.370  0.0314  0.6730  1.4785
15934SOL     OW52257   0.033   0.798   2.646 -0.0351  0.0552  0.3503
15934SOL    HW152258   0.104   0.737   2.628  0.7038  0.5416  1.4903
15934SOL    HW252259  -0.047   0.747   2.633  0.5238 -0.6364 -0.4707
15935SOL     OW52260  10.337   6.911   5.074 -0.2401 -0.4375  0.4077
15935SOL    HW152261  10.274   6.920   5.146  0.4579  2.6442  0.7967
15935SOL    HW252262  10.283   6.907   4.995 -1.0571  1.8833  0.7578
15936SOL     OW52263   7.189   1.228   5.237  0.5425 -0.2221  0.0027
15936SOL    HW152264   7.138   1.283   5.178  1.2157 -0.7851 -1.1306
15936SOL    HW252265   7.124   1.178   5.286 -0.0216 -0.0660 -0.5790
15937SOL     OW52266   7.995  10.054   6.475  0.5891 -0.0257 -0.1551
15937SOL    HW152267   7.985  10.145   6.502 -0.4304 -0.2833  0.3625
15937SOL    HW252268   8.086  10.048   6.446  0.4570  1.3570 -0.9567
15938SOL     OW52269   6.809   2.666  10.979 -0.2431  0.0267  0.2212
15938SOL    HW152270   6.830   2.575  10.958  2.1335  0.5156  0.1634
15938SOL    HW252271   6.802   2.710  10.894 -0.4107  0.0826  0.2633
15939SOL     OW52272   8.062   5.471   6.356 -0.3033 -0.4203  0.1182
15939SOL    HW152273   7.994   5.478   6.423 -1.2641  1.4591 -0.9643
15939SOL    HW252274   8.025   5.516   6.280  0.8132 -2.3322 -1.6446
15940SOL     OW52275   2.112   9.455   2.424  0.5234  0.1287 -0.5322
15940SOL    HW152276   2.076   9.540   2.398  1.5801  0.9220  0.4676
15940SOL    HW252277   2.036   9.398   2.430 -0.4347  1.4191  0.3243
15941SOL     OW52278   8.204   9.199   3.316  0.1311  0.3872 -0.0148
15941SOL    HW152279   8.278   9.170   3.368  1.8116 -0.2677 -2.6083
15941SOL    HW252280   8.138   9.130   3.326 -0.8951  1.6425  3.4686
15942SOL     OW52281   3.747   2.079   3.751 -0.9151  0.4035 -0.6254
15942SOL    HW152282   3.704   2.092   3.667 -0.8243  0.1128 -0.7190
15942SOL    HW252283   3.694   2.129   3.813 -0.4085  1.4466 -1.0085
15943SOL     OW52284   6.995   1.636   6.014  0.2747 -0.4673  0.2541
15943SOL    HW152285   7.028   1.676   5.934  1.5518  0.9327  1.4254
15943SOL    HW252286   6.900   1.646   6.008  0.3553 -0.2969 -1.0116
15944SOL     OW52287   2.513   9.887   6.444 -0.0161 -0.1759 -0.0388
15944SOL    HW152288   2.556   9.815   6.398  0.8767  0.2404  0.1245
15944SOL    HW252289   2.570   9.962   6.429 -0.7458  0.4132  0.1070
15945SOL     OW52290   9.822   7.632   2.006 -0.5444 -0.6560 -0.4576
15945SOL    HW152291   9.908   7.637   1.965 -0.8645  0.9010 -1.0322
15945SOL    HW252292   9.764   7.681   1.947 -1.1028  1.3386  1.6005
15946SOL     OW52293   3.770   1.541   0.171 -0.9333 -0.0317 -0.5766
15946SOL    HW152294   3.840   1.603   0.186  0.0398 -1.0384 -0.7959
15946SOL    HW252295   3.814   1.463   0.135 -2.0715 -0.9212 -0.1159
15947SOL     OW52296   4.321   6.330   8.397 -0.0213  0.4343 -0.2021
15947SOL    HW152297   4.280   6.299   8.477 -0.3763 -0.5455 -0.7394
15947SOL    HW252298   4.294   6.422   8.389 -1.1704  0.1320  0.0520
15948SOL     OW52299   3.711   3.413   9.465 -0.0760  0.6298  0.4960
15948SOL    HW152300   3.716   3.427   9.559 -0.5453  1.4502  0.4053
15948SOL    HW252301   3.754   3.328   9.451  0.2246  0.6235  1.4085
15949SOL     OW52302   3.333   0.449   5.534  0.2654 -0.3077 -0.1983
15949SOL    HW152303   3.333   0.363   5.492  2.5181 -0.6859  0.4317
15949SOL    HW252304   3.379   0.505   5.472  1.1071 -0.2009  0.5059
15950SOL     OW52305   8.320   9.256   3.970  0.1114  0.0614 -0.0668
15950SOL    HW152306   8.368   9.332   4.002  1.6693 -1.2829  0.9229
15950SOL    HW252307   8.286   9.284   3.884  2.0532  1.3093 -0.4907
15951SOL     OW52308   1.110  10.091   8.271  0.3295  0.1906  0.5055
15951SOL    HW152309   1.173  10.023   8.247  0.5693  0.2837  0.8663
15951SOL    HW252310   1.066  10.112   8.189 -0.0363 -0.6905  0.4654
15952SOL     OW52311   6.116   6.695   3.888  0.2161 -0.1108 -0.1144
15952SOL    HW152312   6.026   6.728   3.889 -0.3499 -1.5496  1.5378
15952SOL    HW252313   6.143   6.703   3.796 -1.6698  0.1483 -0.6957
15953SOL     OW52314   0.420   1.011   2.536  0.2006 -0.0084 -0.7245
15953SOL    HW152315   0.354   1.023   2.605  1.0488  0.2844  0.0599
15953SOL    HW252316   0.407   1.086   2.478  1.7198  1.7439  1.0327
15954SOL     OW52317  10.940   1.350   9.556  0.2370 -0.5721  0.2115
15954SOL    HW152318  10.967   1.299   9.479 -0.0373  0.4505 -0.5923
15954SOL    HW252319  10.951   1.291   9.630  0.5394 -1.5738 -0.6194
15955SOL     OW52320   8.839   9.536   1.129  0.1872  0.0358  0.0892
15955SOL    HW152321   8.767   9.496   1.080  0.7785 -1.9448  0.7463
15955SOL    HW252322   8.887   9.587   1.064 -1.8272  1.5319 -0.3416
15956SOL     OW52323   9.885   9.459   6.603  0.0876 -0.2622 -0.0219
15956SOL    HW152324   9.939   9.457   6.524  1.5767  0.2420  0.9369
15956SOL    HW252325   9.948   9.458   6.675 -1.1964  0.3231  1.1531
15957SOL     OW52326   9.407   6.782   7.552  0.5948 -0.5549 -0.0477
15957SOL    HW152327   9.493   6.741   7.555  1.6919  1.6505  0.6629
15957SOL    HW252328   9.381   6.777   7.460  1.0421 -2.0101 -0.1230
15958SOL     OW52329   3.599  11.072   8.822 -0.1347 -0.1167 -0.3508
15958SOL    HW152330   3.566  10.993   8.779 -0.2424 -0.7255  0.8252
15958SOL    HW252331   3.528  11.136   8.812  0.8125  0.6570 -3.3231
15959SOL     OW52332  10.028   2.392   5.910 -0.2299 -0.3813  0.1196
15959SOL    HW152333   9.979   2.467   5.944  0.6147  0.3289 -0.1987
15959SOL    HW252334  10.003   2.386   5.818 -1.2267 -1.2700  0.4175
15960SOL     OW52335   2.407   6.545   0.628 -0.3750  0.0555 -0.0850
15960SOL    HW152336   2.358   6.597   0.691 -1.2616  0.1029 -0.7995
15960SOL    HW252337   2.341   6.496   0.580  0.2591  0.2028 -1.1488
15961SOL     OW52338   9.489   2.606   7.346  0.0308  0.0263 -0.3785
15961SOL    HW152339   9.560   2.581   7.404 -1.5180  0.0032  1.6027
15961SOL    HW252340   9.409   2.593   7.397 -1.3177  1.7408 -1.8684
15962SOL     OW52341   7.315   5.283   5.269  0.1594  0.1636  0.1235
15962SOL    HW152342   7.266   5.302   5.349  0.0083 -0.9384  0.3172
15962SOL    HW252343   7.343   5.368   5.236 -0.7324  0.7161  0.7476
15963SOL     OW52344   5.410   1.765   3.386 -0.3165 -0.4606 -0.0823
15963SOL    HW152345   5.364   1.777   3.303 -0.3688 -1.4608 -0.2058
15963SOL    HW252346   5.384   1.841   3.439 -2.1379 -1.0032 -0.1334
15964SOL     OW52347   7.881   4.850   3.620  0.9103  0.3486  0.4133
15964SOL    HW152348   7.803   4.874   3.669  2.2081  1.9383  1.8420
15964SOL    HW252349   7.885   4.913   3.549 -0.0306 -0.8700 -0.7714
15965SOL     OW52350   5.628  10.715   0.933 -0.3071  0.4193  0.0549
15965SOL    HW152351   5.593  10.802   0.952 -0.4941  0.3874 -0.1430
15965SOL    HW252352   5.672  10.725   0.848 -0.3821  0.3063  0.0026
15966SOL     OW52353  11.075   4.692   4.512 -0.6387  0.3782  0.1400
15966SOL    HW152354  11.165   4.703   4.545  0.1840  1.3389 -2.2220
15966SOL    HW252355  11.038   4.623   4.566  1.8253 -0.6510  0.6347
15967SOL     OW52356   0.231   9.628   6.347 -0.2161  0.2769 -0.2264
15967SOL    HW152357   0.304   9.688   6.334  0.4026 -0.2231  0.7817
15967SOL    HW252358   0.269   9.541   6.334 -0.7704  0.0360 -0.2905
15968SOL     OW52359   9.101   8.986   6.898  0.5697 -0.2053 -0.8488
15968SOL    HW152360   9.079   9.074   6.868 -1.6037  0.0646  1.2625
15968SOL    HW252361   9.022   8.934   6.882 -0.6155 -0.1504  3.5745
15969SOL     OW52362   0.153   0.870   5.927 -0.2586 -0.7887 -0.0459
15969SOL    HW152363   0.195   0.785   5.940 -0.4447 -0.5051  2.9181
15969SOL    HW252364   0.198   0.929   5.987 -0.3359  1.2099 -1.8281
15970SOL     OW52365   2.392   9.325   2.458  0.4531  0.2830 -0.0933
15970SOL    HW152366   2.388   9.344   2.552 -0.4169  2.0188 -0.4340
15970SOL    HW252367   2.307   9.284   2.438 -0.7177  2.7821 -0.6255
15971SOL     OW52368   4.972   3.602   3.241  0.2978 -0.4214  0.5063
15971SOL    HW152369   5.016   3.665   3.297 -1.6782  2.0492 -0.5210
15971SOL    HW252370   4.899   3.569   3.294  0.1896 -0.3703  0.3902
15972SOL     OW52371   2.910   8.835   2.433 -0.0921 -0.6805  0.1145
15972SOL    HW152372   2.915   8.756   2.380 -0.6585 -0.0301 -0.9434
15972SOL    HW252373   2.975   8.822   2.502  0.9879 -1.3747 -0.9830
15973SOL     OW52374   9.991   0.943   2.278  0.4082  0.9149 -0.2849
15973SOL    HW152375  10.048   0.867   2.274  0.5785  1.0619 -0.7047
15973SOL    HW252376  10.024   0.994   2.352  1.3292  1.3967 -1.0076
15974SOL     OW52377   5.959   4.222   0.391  0.3696  0.5668 -0.7893
15974SOL    HW152378   6.012   4.165   0.335  0.0559  0.8854 -1.4228
15974SOL    HW252379   6.022   4.267   0.447  0.5268 -1.9084  1.2010
15975SOL     OW52380   4.905   0.236   4.685 -0.1540  0.0396  0.2572
15975SOL    HW152381   4.958   0.316   4.688  0.5035 -0.2344 -1.9846
15975SOL    HW252382   4.836   0.256   4.622 -0.2797 -1.0052  0.0522
15976SOL     OW52383   3.558   8.884   9.667  0.2280  0.8891 -0.3385
15976SOL    HW152384   3.462   8.873   9.669 -0.0372  2.1134 -2.5038
15976SOL    HW252385   3.571   8.962   9.612  2.4716  1.0438  0.3469
15977SOL     OW52386   6.969   5.958  10.305  0.1423  0.0426 -0.1941
15977SOL    HW152387   6.971   6.023  10.375 -1.3258  0.2185 -0.2953
15977SOL    HW252388   7.048   5.906  10.319  0.3548  0.6568  1.0327
15978SOL     OW52389   7.427   2.729   4.819 -0.2056  0.4969 -0.1523
15978SOL    HW152390   7.377   2.690   4.747 -2.2106  0.0874  1.3733
15978SOL    HW252391   7.376   2.806   4.845 -1.6516 -1.3203  3.1081
15979SOL     OW52392   8.195   9.283   3.054 -0.5316 -0.4560  0.0493
15979SOL    HW152393   8.169   9.261   3.143 -0.7935 -1.8388 -0.3365
15979SOL    HW252394   8.277   9.235   3.040  1.4557  2.5154  0.6716
15980SOL     OW52395  10.515   2.730  10.506 -0.2997 -0.0459  0.3043
15980SOL    HW152396  10.474   2.670  10.444 -0.7813  0.6983 -0.1085
15980SOL    HW252397  10.487   2.698  10.592 -1.0573 -0.0500  0.0649
15981SOL     OW52398  11.023   3.339   4.624 -0.2034 -0.4880 -0.2219
15981SOL    HW152399  10.986   3.341   4.713  0.4811 -2.6918  0.1989
15981SOL    HW252400  10.952   3.305   4.569 -0.0963 -0.7740 -0.1850
15982SOL     OW52401   5.230  10.995   1.017  0.0506  0.3846 -0.3596
15982SOL    HW152402   5.197  10.982   0.928 -1.3873  0.3266  0.1618
15982SOL    HW252403   5.188  11.075   1.047 -1.2336 -0.7444  1.0329
15983SOL     OW52404   7.607   6.541   5.702  0.1245  0.2110  0.5399
15983SOL    HW152405   7.648   6.501   5.778  1.0182 -0.6945 -0.3808
15983SOL    HW252406   7.566   6.468   5.655  1.3578  0.3866 -0.9075
15984SOL     OW52407   6.439   1.084   9.219  0.2999  0.2818 -0.5047
15984SOL    HW152408   6.416   1.066   9.128  1.5644  0.6327 -0.9165
15984SOL    HW252409   6.420   1.002   9.266 -0.5764  0.1786 -1.0337
15985SOL     OW52410   1.635  10.939   8.388 -0.2689 -0.6084 -0.6092
15985SOL    HW152411   1.678  10.997   8.326  0.4733 -0.5559 -0.0538
15985SOL    HW252412   1.698  10.869   8.404 -0.1102 -0.1859  0.7123
15986SOL     OW52413   4.216   8.175   9.819  0.1372  0.2024 -0.5769
15986SOL    HW152414   4.226   8.270   9.812 -0.9836  0.3020 -0.9252
15986SOL    HW252415   4.300   8.140   9.790  1.4101  1.1223  1.7082
15987SOL     OW52416   1.837   4.432   4.510  0.0109 -0.1126 -0.1918
15987SOL    HW152417   1.843   4.454   4.417 -0.1406  1.6232  0.1883
15987SOL    HW252418   1.919   4.465   4.548 -0.3049 -0.0406  0.4361
15988SOL     OW52419   7.293  10.149   2.085  0.1684  0.4545  0.2856
15988SOL    HW152420   7.326  10.235   2.057  1.4223  0.2469  1.0376
15988SOL    HW252421   7.226  10.169   2.151 -0.1066  0.8559 -0.1084
15989SOL     OW52422   1.541   9.740   1.483 -0.6463 -0.7454  0.1313
15989SOL    HW152423   1.449   9.758   1.463 -0.2122  2.4855  0.5371
15989SOL    HW252424   1.548   9.753   1.577  0.0155 -2.2944  0.3277
15990SOL     OW52425   1.640   2.222   3.917  0.1683 -0.2660  0.1063
15990SOL    HW152426   1.614   2.166   3.844 -1.1641  1.5631 -0.9178
15990SOL    HW252427   1.714   2.273   3.883  0.1959 -0.1249  0.3769
15991SOL     OW52428   2.904   2.672   8.387 -0.0098  0.2258  0.1225
15991SOL    HW152429   2.833   2.619   8.352 -1.3239  1.7448  0.3726
15991SOL    HW252430   2.882   2.683   8.480  0.7200  0.4586  0.2766
15992SOL     OW52431   2.734   4.467   7.943  0.5586  0.1064  0.0714
15992SOL    HW152432   2.661   4.479   8.003 -0.6375 -0.9885 -1.1059
15992SOL    HW252433   2.768   4.556   7.929 -1.3859  0.8236 -0.3788
15993SOL     OW52434   5.991   7.649   8.713  0.1430 -0.1376  0.6022
15993SOL    HW152435   5.988   7.711   8.640  1.1950  1.4892  1.8834
15993SOL    HW252436   6.083   7.648   8.740 -0.1918 -0.8491  1.8027
15994SOL     OW52437   3.193   3.921   0.807 -0.1478  0.0694  0.4325
15994SOL    HW152438   3.221   3.866   0.881  2.6401  0.3673 -0.2902
15994SOL    HW252439   3.201   4.010   0.840 -0.0768  0.1637  0.1613
15995SOL     OW52440   6.579   9.281   3.394 -0.1560  0.3703  0.1576
15995SOL    HW152441   6.620   9.357   3.354 -0.6104  1.0488  0.9569
15995SOL    HW252442   6.602   9.288   3.487 -0.5299 -0.2482  0.3019
15996SOL     OW52443   9.057   6.923   0.726 -0.3963  0.2811  0.1931
15996SOL    HW152444   9.112   6.910   0.648  0.0799  1.6692  0.2613
15996SOL    HW252445   9.030   7.015   0.721 -1.2356  0.1065  1.1208
15997SOL     OW52446   9.501   3.368   1.884  0.0293  0.3866  0.2057
15997SOL    HW152447   9.580   3.349   1.935 -0.3219 -0.9033  0.2922
15997SOL    HW252448   9.535   3.395   1.798  0.5951 -1.3613 -0.1758
15998SOL     OW52449   2.055   2.267   0.246 -0.0914  0.2428  0.3251
15998SOL    HW152450   2.072   2.357   0.220 -0.8965  0.3301  0.0555
15998SOL    HW252451   1.959   2.262   0.253 -0.0710 -0.6436  0.1183
15999SOL     OW52452   8.643  10.832   3.395 -0.1925  0.5244  0.8287
15999SOL    HW152453   8.703  10.781   3.341 -2.5817  1.1428 -2.7863
15999SOL    HW252454   8.693  10.909   3.421  0.7982  0.8855 -1.7834
16000SOL     OW52455   4.074   4.325   7.758 -0.4097  0.2952 -0.3713
16000SOL    HW152456   4.081   4.230   7.765 -0.1610  0.3196 -0.2835
16000SOL    HW252457   4.146   4.350   7.700  1.4309  0.7301  1.9285
16001SOL     OW52458  10.967   2.484   4.704  0.4953 -0.3487 -0.3592
16001SOL    HW152459  11.053   2.498   4.745  0.1333 -0.0552  0.3196
16001SOL    HW252460  10.948   2.567   4.660  0.6047 -0.4499 -0.5989
16002SOL     OW52461   4.543   2.597   4.094  0.1106 -0.2669 -0.1680
16002SOL    HW152462   4.597   2.558   4.025 -1.7987 -0.4086 -1.6658
16002SOL    HW252463   4.485   2.658   4.048 -0.0050  1.0050  1.5682
16003SOL     OW52464   6.688   7.243   5.091 -0.5822 -0.4162 -0.2572
16003SOL    HW152465   6.699   7.244   4.996  0.1657  0.0173 -0.1777
16003SOL    HW252466   6.778   7.245   5.124 -0.8647  0.4960  0.4693
16004SOL     OW52467   6.413   1.747   1.319 -0.0451 -0.1475  0.0308
16004SOL    HW152468   6.369   1.674   1.277 -0.1922  0.2351 -0.4860
16004SOL    HW252469   6.486   1.768   1.261  0.0173  0.0948  0.1946
16005SOL     OW52470  11.071  10.204   3.092 -0.0346 -0.1067 -0.5661
16005SOL    HW152471  11.084  10.206   2.997  0.5830 -0.0284 -0.4859
16005SOL    HW252472  11.110  10.122   3.120 -1.1672 -0.6383 -0.5008
16006SOL     OW52473   4.889  10.007   8.339  0.6562  0.2675  0.5011
16006SOL    HW152474   4.818   9.978   8.396  1.8230  1.8702  2.9090
16006SOL    HW252475   4.948   9.932   8.333  0.4694  0.0531  1.3373
16007SOL     OW52476   2.019   4.552   9.754 -0.0858  0.1361 -0.2867
16007SOL    HW152477   1.937   4.588   9.788 -0.4914 -0.9952 -0.0409
16007SOL    HW252478   2.047   4.489   9.819  0.8869  0.3580 -0.4716
16008SOL     OW52479   7.791   1.966   9.025 -0.0759 -0.0164  0.0649
16008SOL    HW152480   7.778   2.001   9.113  1.6107  0.3014  0.2352
16008SOL    HW252481   7.872   2.008   8.995 -0.4992 -0.3014 -1.5423
16009SOL     OW52482   0.015   0.183   0.152 -0.0306 -0.5719  0.3647
16009SOL    HW152483   0.049   0.149   0.070  0.6469 -0.6879  0.6869
16009SOL    HW252484   0.089   0.230   0.191 -1.0157  1.5520 -0.2083
16010SOL     OW52485   1.812   3.035   8.258  0.2843  0.7640  0.2755
16010SOL    HW152486   1.795   2.957   8.205  0.3970  2.1215 -1.8599
16010SOL    HW252487   1.894   3.014   8.304 -1.2593 -1.5520  2.2734
16011SOL     OW52488   6.504   0.621   7.673 -0.4344 -0.1517  0.2302
16011SOL    HW152489   6.412   0.606   7.695 -0.9383  1.3292 -0.7476
16011SOL    HW252490   6.515   0.716   7.676  0.4078 -0.1154 -2.0754
16012SOL     OW52491   8.829   4.547   8.621 -0.3342  0.1988 -0.0173
16012SOL    HW152492   8.886   4.542   8.698  1.1081  0.5128 -1.0197
16012SOL    HW252493   8.770   4.620   8.639 -0.1336  0.1492  0.8701
16013SOL     OW52494   5.502   3.471   1.755 -0.3301  0.2291  0.2448
16013SOL    HW152495   5.426   3.440   1.706 -0.2141  1.2055 -0.5769
16013SOL    HW252496   5.575   3.421   1.719 -0.4281  0.0589  0.2825
16014SOL     OW52497   9.553   8.070   4.947 -0.0846  0.0959 -0.3475
16014SOL    HW152498   9.479   8.054   4.888 -0.7881 -1.4842  0.8888
16014SOL    HW252499   9.516   8.126   5.015 -0.5274 -1.6485  0.9075
16015SOL     OW52500   6.659   2.823   1.678 -0.0958 -0.1108  0.0400
16015SOL    HW152501   6.734   2.880   1.658 -0.5670  0.2842 -0.6312
16015SOL    HW252502   6.670   2.802   1.771 -0.2810  1.6467  0.4896
16016SOL     OW52503   1.377   0.216   3.836  0.1743 -0.0056  0.0616
16016SOL    HW152504   1.331   0.300   3.831 -1.4283 -0.9400 -2.3500
16016SOL    HW252505   1.469   0.240   3.851 -0.4011  2.1056  0.5425
16017SOL     OW52506  10.584   8.215   0.615  0.3581 -0.1146 -0.5810
16017SOL    HW152507  10.531   8.232   0.538  1.5060 -0.0300 -1.3845
16017SOL    HW252508  10.591   8.120   0.619 -0.0626 -0.1342 -0.3299
16018SOL     OW52509   3.267   5.400   7.437  0.0806  0.0858  0.2772
16018SOL    HW152510   3.211   5.324   7.451 -0.2041  0.2800  0.1855
16018SOL    HW252511   3.214   5.460   7.385  1.0042 -0.5219 -1.4886
16019SOL     OW52512   9.025   5.078   6.652  0.3677 -0.2494 -0.1255
16019SOL    HW152513   9.030   5.161   6.606 -0.9163 -0.3143 -0.4155
16019SOL    HW252514   9.027   5.101   6.745  0.5474  0.0685 -0.2104
16020SOL     OW52515   6.551   3.932   4.320  0.0713  0.3320 -0.8040
16020SOL    HW152516   6.578   3.936   4.228 -0.8416 -0.7825 -1.1407
16020SOL    HW252517   6.623   3.888   4.364  0.9101  1.6451 -0.7992
16021SOL     OW52518   7.857   9.512  10.975 -0.0878 -0.4421 -0.5091
16021SOL    HW152519   7.899   9.563  10.905  1.8309 -0.8040  0.3176
16021SOL    HW252520   7.870   9.421  10.949  0.0023 -0.5642 -0.0337
16022SOL     OW52521   3.392   0.287   3.861  0.3375 -0.4105  0.0644
16022SOL    HW152522   3.337   0.252   3.791  0.2129 -1.6816  0.7793
16022SOL    HW252523   3.482   0.280   3.827  0.2451 -0.6050 -0.1391
16023SOL     OW52524  10.782   5.139   5.860 -0.3279 -0.0610  0.4193
16023SOL    HW152525  10.843   5.205   5.894 -0.9225  1.9494 -2.1217
16023SOL    HW252526  10.700   5.188   5.845 -0.0165 -0.5260 -4.1319
16024SOL     OW52527   1.511   3.331   8.857  0.3331 -0.1427  0.0363
16024SOL    HW152528   1.530   3.250   8.903 -1.8031 -1.3875 -1.1089
16024SOL    HW252529   1.482   3.392   8.925 -1.5203 -1.5310  0.5572
16025SOL     OW52530   9.637   4.417   5.466 -0.3137 -0.3228 -0.1095
16025SOL    HW152531   9.576   4.479   5.506 -1.3246 -0.6905 -1.0401
16025SOL    HW252532   9.718   4.467   5.455 -0.6180  0.3452  0.6090
16026SOL     OW52533   4.465   1.863   0.900 -0.7100  0.4836  0.7556
16026SOL    HW152534   4.533   1.806   0.865  1.3126  1.0258  3.4536
16026SOL    HW252535   4.463   1.937   0.840  0.1553 -0.1525 -0.0948
16027SOL     OW52536   8.002   1.894   7.627 -0.2724 -0.1484 -0.3131
16027SOL    HW152537   7.946   1.915   7.701  0.1887 -0.3385  0.0964
16027SOL    HW252538   8.041   1.809   7.649 -1.6584 -1.1838 -1.6753
16028SOL     OW52539   8.854   1.659   5.167  0.3526 -0.3884 -0.4026
16028SOL    HW152540   8.829   1.744   5.131 -0.3470 -0.3073  0.2660
16028SOL    HW252541   8.808   1.653   5.250  0.7809 -1.2177 -0.2133
16029SOL     OW52542   3.872   3.377   3.661  0.3162  0.2225 -0.3298
16029SOL    HW152543   3.838   3.411   3.744  0.2152  1.3587 -0.8276
16029SOL    HW252544   3.804   3.315   3.631 -1.3605  2.3635 -1.2526
16030SOL     OW52545   2.164   5.546   7.348  0.0129  0.4438 -0.4638
16030SOL    HW152546   2.090   5.485   7.357  0.4411  0.0372  0.4951
16030SOL    HW252547   2.156   5.581   7.260  0.6565 -2.1643 -1.6354
16031SOL     OW52548   1.796   4.856  10.917  1.0108  0.7119 -0.0975
16031SOL    HW152549   1.745   4.865  10.837 -0.2197 -1.2339  0.4209
16031SOL    HW252550   1.801   4.945  10.952  1.6450  1.6278 -2.3235
16032SOL     OW52551   1.820  10.716   6.022  0.0923 -0.2290  0.4807
16032SOL    HW152552   1.843  10.705   6.114 -0.1812  0.4895  0.6435
16032SOL    HW252553   1.768  10.639   6.000 -1.6338  0.5756  1.5219
16033SOL     OW52554   9.784   8.437   9.032  0.1686  0.2450 -0.1110
16033SOL    HW152555   9.827   8.440   9.117  0.9745  2.5406 -0.5516
16033SOL    HW252556   9.830   8.367   8.985  1.6693  0.8832  0.3509
16034SOL     OW52557   0.981  10.465   3.507  0.2359  0.5583  0.3618
16034SOL    HW152558   0.942  10.421   3.582  0.0231  0.1732  0.0333
16034SOL    HW252559   0.964  10.558   3.522  1.7013  0.6500  1.6421
16035SOL     OW52560   1.166   1.664   2.381  0.3315 -0.5403  0.2454
16035SOL    HW152561   1.125   1.578   2.369  1.9129 -1.9331  3.4506
16035SOL    HW252562   1.258   1.643   2.401  0.6568  1.8446  1.5847
16036SOL     OW52563   6.894   5.015   4.711  0.4543  0.2425  0.4049
16036SOL    HW152564   6.825   4.964   4.668  0.1605  1.1344 -0.2334
16036SOL    HW252565   6.962   5.024   4.645  2.4547 -2.8339  1.8259
16037SOL     OW52566   7.378   6.679   6.186  0.4559  0.7477  0.7444
16037SOL    HW152567   7.321   6.678   6.109  1.4817  1.3249 -0.0390
16037SOL    HW252568   7.331   6.735   6.249 -0.1308  0.7119  0.3529
16038SOL     OW52569   1.133   0.196   5.554 -0.2391  0.1355 -0.1852
16038SOL    HW152570   1.112   0.281   5.515  0.5732 -0.3706 -1.8227
16038SOL    HW252571   1.089   0.132   5.498 -2.8767 -0.5192  2.4128
16039SOL     OW52572   5.083   1.665  10.553 -0.0507  0.3934 -0.0994
16039SOL    HW152573   5.088   1.759  10.570 -0.9689 -0.2549  5.4144
16039SOL    HW252574   5.175   1.638  10.545  0.2534  1.5672 -1.0015
16040SOL     OW52575   1.869   9.922   9.061  0.3081  0.2395 -0.1686
16040SOL    HW152576   1.788   9.971   9.049 -0.0211 -0.3827 -0.4646
16040SOL    HW252577   1.868   9.896   9.153 -0.1292 -0.3082 -0.3278
16041SOL     OW52578   9.593   3.349   1.053 -0.0860  0.7903 -0.3296
16041SOL    HW152579   9.648   3.425   1.037  1.1978  0.0874  0.5740
16041SOL    HW252580   9.654   3.278   1.074 -1.1509 -0.8346 -2.2979
16042SOL     OW52581   1.822   9.701   1.184 -0.4424  0.2761  0.5547
16042SOL    HW152582   1.885   9.649   1.234 -0.4063  1.3036  1.6273
16042SOL    HW252583   1.870   9.780   1.159 -0.4547 -0.2268 -1.1649
16043SOL     OW52584   4.435   7.961   7.727 -0.3267  0.2113  0.7309
16043SOL    HW152585   4.415   7.973   7.820 -1.4488 -0.2700  0.5716
16043SOL    HW252586   4.427   7.866   7.713  0.7108  0.1648  0.3220
16044SOL     OW52587   1.846   5.755   6.369  0.0370  0.2574 -0.1015
16044SOL    HW152588   1.793   5.808   6.310 -1.3066 -1.8118 -0.8796
16044SOL    HW252589   1.881   5.685   6.314  2.1599  0.5466  0.7751
16045SOL     OW52590   5.511   0.568   1.075 -0.6579 -0.0564 -0.6192
16045SOL    HW152591   5.467   0.609   1.150  1.4495  2.9805 -0.8426
16045SOL    HW252592   5.486   0.622   1.000  0.2225 -0.7436 -1.4389
16046SOL     OW52593   7.390   7.839   6.178  0.0422 -0.9281 -0.3085
16046SOL    HW152594   7.340   7.800   6.250 -1.8785  1.7358 -0.0451
16046SOL    HW252595   7.475   7.860   6.217 -0.5261 -0.6685  0.8291
16047SOL     OW52596   1.531   8.369   3.496  0.3972  0.2300  0.4769
16047SOL    HW152597   1.571   8.416   3.423 -2.8786  1.3497 -0.8034
16047SOL    HW252598   1.533   8.431   3.568 -0.6383  1.0122 -0.1359
16048SOL     OW52599   3.021   7.096   7.515  0.3347 -0.0369 -0.0861
16048SOL    HW152600   3.012   7.186   7.544 -0.1633 -0.3564  0.7880
16048SOL    HW252601   3.070   7.053   7.585  0.7956 -0.3964 -0.6124
16049SOL     OW52602   2.585  10.849   4.435 -0.0536 -0.8183 -0.8248
16049SOL    HW152603   2.498  10.868   4.401 -1.1333 -1.4546  1.4148
16049SOL    HW252604   2.572  10.774   4.493  1.7780 -0.2155  0.4371
16050SOL     OW52605   0.231   0.866   1.562 -0.3443  0.4738  0.7573
16050SOL    HW152606   0.277   0.939   1.603  0.1183  1.0082 -0.6340
16050SOL    HW252607   0.300   0.803   1.541 -0.4878  0.4423  0.3602
16051SOL     OW52608   8.413   7.815   6.106 -0.3111  0.6248 -0.4999
16051SOL    HW152609   8.477   7.743   6.104  0.3022  1.1684 -1.0782
16051SOL    HW252610   8.466   7.894   6.095 -1.1043  1.0678 -1.2663
16052SOL     OW52611   5.048  10.020   2.722  0.4084 -0.4962 -0.4373
16052SOL    HW152612   5.131   9.994   2.682  0.6342  0.6880 -0.7785
16052SOL    HW252613   5.008  10.080   2.659  0.7086  1.3086  1.0080
16053SOL     OW52614   9.748  10.749   5.286 -0.1039  0.1429  0.0648
16053SOL    HW152615   9.666  10.718   5.324  0.1987 -0.5620  0.1463
16053SOL    HW252616   9.810  10.747   5.359  0.5337 -1.4126 -0.4856
16054SOL     OW52617   6.796   7.778  11.054  0.3465 -0.5005  0.2809
16054SOL    HW152618   6.817   7.811  11.142 -2.4113  0.1899  0.7491
16054SOL    HW252619   6.882   7.760  11.015  1.7125  0.6730  2.5231
16055SOL     OW52620   1.469  10.398   3.188 -0.8420  0.9005 -0.3597
16055SOL    HW152621   1.548  10.416   3.137 -1.4352  0.1764 -1.5641
16055SOL    HW252622   1.411  10.352   3.128 -0.8532 -1.6944  1.4503
16056SOL     OW52623   1.880   0.664   7.184 -0.3252  0.5090 -0.7309
16056SOL    HW152624   1.857   0.611   7.107 -0.5388  1.2550 -1.1893
16056SOL    HW252625   1.797   0.676   7.230 -0.2309  0.2295 -0.4851
16057SOL     OW52626  10.918   4.069   1.043  0.1202 -0.1649  0.8751
16057SOL    HW152627  10.865   4.063   0.964  0.2363 -2.2548  0.8998
16057SOL    HW252628  10.956   3.981   1.054  2.2641  0.8032  1.7778
16058SOL     OW52629   4.987   5.913   3.936  0.1966  0.1432 -0.0981
16058SOL    HW152630   4.915   5.884   3.992 -1.2859  0.5445 -1.7029
16058SOL    HW252631   5.062   5.921   3.995 -0.8227 -1.1891  1.4668
16059SOL     OW52632   5.143   7.916   6.589 -0.1325  0.6570  0.3844
16059SOL    HW152633   5.080   7.876   6.528 -0.4094 -0.9867  1.6698
16059SOL    HW252634   5.223   7.864   6.578 -0.2319  0.2472  1.4937
16060SOL     OW52635  10.553   7.865   1.735  0.5211  0.1016 -0.0201
16060SOL    HW152636  10.536   7.953   1.769  0.2025  1.2316 -2.8123
16060SOL    HW252637  10.633   7.837   1.780 -0.2699  1.0908  2.1222
16061SOL     OW52638   8.147   1.599   3.267 -0.1780 -0.0671  0.2025
16061SOL    HW152639   8.081   1.612   3.335 -0.3244  0.8600 -0.1014
16061SOL    HW252640   8.107   1.537   3.207 -1.5022  1.7211 -0.8584
16062SOL     OW52641   7.549   2.539   0.590  0.5160  0.2828 -0.2301
16062SOL    HW152642   7.643   2.556   0.586  1.0800 -2.4089 -0.7918
16062SOL    HW252643   7.533   2.515   0.682  0.8070 -1.0078 -0.4859
16063SOL     OW52644   4.874   8.793   8.945  0.0095 -0.8133  0.4042
16063SOL    HW152645   4.792   8.831   8.914 -0.1666 -3.0955 -2.3256
16063SOL    HW252646   4.852   8.704   8.970  2.0426 -2.9477 -4.1969
16064SOL     OW52647   4.769  10.450  10.377  0.5229 -0.0055 -0.0735
16064SOL    HW152648   4.847  10.425  10.425  1.4728  0.3150 -1.3995
16064SOL    HW252649   4.792  10.437  10.285 -1.2968 -0.7771 -0.4639
16065SOL     OW52650   4.180   2.291   1.182  0.1107  0.2337 -0.0988
16065SOL    HW152651   4.137   2.237   1.248 -1.1676 -1.2934 -2.0718
16065SOL    HW252652   4.237   2.231   1.135  1.0976  1.3212 -0.3547
16066SOL     OW52653  10.015   1.081   0.202  0.0247  0.5600 -0.3697
16066SOL    HW152654  10.101   1.074   0.244 -0.1151 -2.7646 -0.4226
16066SOL    HW252655  10.031   1.054   0.112 -0.6620  2.5331 -1.1375
16067SOL     OW52656   9.602  10.922   3.101  0.3240  0.2961  0.0877
16067SOL    HW152657   9.527  10.933   3.042  0.0666 -1.1007  0.1066
16067SOL    HW252658   9.604  10.828   3.120  1.2153  0.5176  1.2445
16068SOL     OW52659  10.474   0.753   6.525  0.6160  0.1303 -0.4552
16068SOL    HW152660  10.438   0.715   6.606 -1.1381 -0.2020 -1.3374
16068SOL    HW252661  10.467   0.847   6.538  1.7138  0.1245  0.3399
16069SOL     OW52662  10.850  10.249  10.482  0.7251 -0.5900 -0.1168
16069SOL    HW152663  10.813  10.195  10.551  1.8068 -0.9211  0.2222
16069SOL    HW252664  10.939  10.216  10.470  0.9955  0.3143 -0.7556
16070SOL     OW52665   8.386   7.782   9.124 -0.5581  0.3021 -0.0047
16070SOL    HW152666   8.365   7.733   9.204  0.1263 -0.8774 -0.5162
16070SOL    HW252667   8.477   7.760   9.106  0.0027  2.3349  0.0973
16071SOL     OW52668   6.835   3.064   7.851  0.5075 -0.0301  0.2068
16071SOL    HW152669   6.828   2.969   7.866 -0.8710  0.4345  2.9574
16071SOL    HW252670   6.746   3.091   7.831  0.6832  0.8959  0.6799
16072SOL     OW52671   1.234   9.457   7.710  0.1984  0.0046  0.1954
16072SOL    HW152672   1.162   9.512   7.679  0.9632  1.1755  0.4152
16072SOL    HW252673   1.223   9.454   7.805  0.1084 -0.2967  0.1760
16073SOL     OW52674   2.862   8.132   5.626  0.2229 -0.1101 -0.3281
16073SOL    HW152675   2.849   8.224   5.645 -0.9340 -0.2502 -0.3740
16073SOL    HW252676   2.779   8.102   5.589  0.8131 -1.0030 -1.0020
16074SOL     OW52677   0.372   3.591   6.258 -0.3579 -0.6403  0.0100
16074SOL    HW152678   0.322   3.533   6.315 -1.1089 -0.3021 -0.2834
16074SOL    HW252679   0.420   3.648   6.318  1.0414 -2.0702  0.3082
16075SOL     OW52680   4.133   4.502   0.531 -0.3920  0.1117  0.0981
16075SOL    HW152681   4.148   4.445   0.606  1.2181 -1.6660 -1.4598
16075SOL    HW252682   4.081   4.449   0.471 -1.0578  1.2418 -0.3669
16076SOL     OW52683   7.663   8.447   1.297 -0.1467  0.1710  0.8409
16076SOL    HW152684   7.608   8.523   1.315  0.3130  0.3932  1.3652
16076SOL    HW252685   7.750   8.484   1.282 -0.0703 -0.1987  0.3717
16077SOL     OW52686   4.018   9.715   4.127 -0.0274  0.3413 -0.1999
16077SOL    HW152687   4.107   9.742   4.149  0.0856 -0.6218  0.5708
16077SOL    HW252688   4.028   9.656   4.052 -0.0492  0.4541 -0.2926
16078SOL     OW52689   0.604   9.991   1.416 -0.3737 -0.1959  0.0381
16078SOL    HW152690   0.679   9.971   1.472 -0.8275 -0.0859  0.6987
16078SOL    HW252691   0.642  10.024   1.335  0.3092 -0.8799  0.0701
16079SOL     OW52692   3.999  10.576  10.716 -0.7676  0.1012  0.1766
16079SOL    HW152693   4.071  10.524  10.680  1.0645  2.0109  0.8687
16079SOL    HW252694   4.004  10.660  10.669 -1.6331  0.7699  1.2415
16080SOL     OW52695   4.581   0.960   8.818  0.5909 -0.7136  0.0496
16080SOL    HW152696   4.544   0.959   8.906 -1.3321 -2.6189 -0.6696
16080SOL    HW252697   4.513   1.001   8.764  0.1602 -2.6886 -1.0332
16081SOL     OW52698   1.872   3.229  10.309  1.1005 -0.5036  0.2241
16081SOL    HW152699   1.871   3.289  10.235  1.4116 -0.9773 -0.1785
16081SOL    HW252700   1.933   3.268  10.372 -0.9319  1.0991  1.2953
16082SOL     OW52701   5.169   0.004   9.949 -0.4557 -0.0607  0.0193
16082SOL    HW152702   5.250   0.011   9.900 -0.1392  1.1710  0.6790
16082SOL    HW252703   5.189  -0.057  10.021  0.3586  1.3787  1.0474
16083SOL     OW52704   2.794   2.098   4.512  0.4805  0.6913  0.3356
16083SOL    HW152705   2.823   2.182   4.477  1.6024  0.2589  0.1674
16083SOL    HW252706   2.801   2.038   4.438 -0.8559  0.5529  0.3074
16084SOL     OW52707  10.366   6.903   5.896 -0.3609 -0.0970 -0.2400
16084SOL    HW152708  10.360   6.968   5.826 -0.0928 -0.0350 -0.2025
16084SOL    HW252709  10.456   6.909   5.928 -0.8061  0.6781  0.9027
16085SOL     OW52710   6.681   4.543   5.141 -0.5056 -0.0032 -0.1942
16085SOL    HW152711   6.678   4.624   5.192  0.2977  0.0233 -0.1664
16085SOL    HW252712   6.624   4.482   5.188 -1.4973  0.6823 -0.4766
16086SOL     OW52713   7.774   5.898   1.865 -0.0773 -0.3846 -0.1471
16086SOL    HW152714   7.755   5.988   1.891  0.2752  0.0058 -1.1985
16086SOL    HW252715   7.756   5.895   1.772  0.4528 -1.2577 -0.2375
16087SOL     OW52716   5.673   2.833   8.870 -0.0934 -0.3746  0.5806
16087SOL    HW152717   5.736   2.814   8.800 -0.7673 -3.0802  0.6181
16087SOL    HW252718   5.697   2.772   8.940 -0.4612  1.1576  2.0922
16088SOL     OW52719   9.105   8.743   9.095 -0.2159  0.0203 -0.7653
16088SOL    HW152720   9.028   8.692   9.071  0.0762 -0.5269 -0.5458
16088SOL    HW252721   9.109   8.738   9.190 -0.1960  0.4732 -0.7377
16089SOL     OW52722   4.156   4.742   3.414  0.0985 -0.7551 -0.1469
16089SOL    HW152723   4.090   4.733   3.483 -0.1576 -1.8846 -0.5215
16089SOL    HW252724   4.224   4.796   3.454 -0.8670  0.1408  0.3692
16090SOL     OW52725   2.970   5.736   4.863  0.4088 -0.5811 -0.5629
16090SOL    HW152726   3.026   5.750   4.788  0.9603  2.9591  0.3330
16090SOL    HW252727   2.881   5.729   4.827  0.7861 -0.0440 -1.6157
16091SOL     OW52728  10.512   5.777   2.923 -0.3001 -0.4063 -0.4898
16091SOL    HW152729  10.545   5.836   2.856  1.4163  0.1898  0.8092
16091SOL    HW252730  10.545   5.690   2.898  2.0635  0.1143  0.5673
16092SOL     OW52731   7.673   5.186   3.028 -0.4748 -0.3796  0.4808
16092SOL    HW152732   7.758   5.204   3.068 -1.0312  0.7130  1.2298
16092SOL    HW252733   7.670   5.241   2.950 -1.0223  0.6449  1.2017
16093SOL     OW52734   1.417   4.381   9.237 -0.5940  0.4568 -0.0275
16093SOL    HW152735   1.383   4.462   9.198 -0.3449  1.3292  1.4564
16093SOL    HW252736   1.502   4.406   9.273 -0.8166 -0.2802  1.0594
16094SOL     OW52737   0.292   8.651   2.387 -0.4775 -0.7925  0.0316
16094SOL    HW152738   0.370   8.706   2.391 -2.1720  1.9359 -1.5004
16094SOL    HW252739   0.257   8.653   2.476 -0.0994  0.0080  0.1697
16095SOL     OW52740   2.861   1.681   4.796  0.0431  0.2832 -0.2304
16095SOL    HW152741   2.850   1.737   4.719 -0.6638 -1.2181 -1.2590
16095SOL    HW252742   2.809   1.724   4.864  1.0311  1.8721 -0.4196
16096SOL     OW52743   3.890   3.032   0.231 -0.1690 -0.5248 -0.5261
16096SOL    HW152744   3.871   3.060   0.321  0.5545  0.2562 -0.6118
16096SOL    HW252745   3.804   3.010   0.195 -0.6576  0.6847 -0.1519
16097SOL     OW52746   2.594   9.648   4.949  0.4565 -0.4125 -0.1469
16097SOL    HW152747   2.659   9.679   5.013 -0.6568  0.5459  0.5476
16097SOL    HW252748   2.546   9.727   4.923 -0.4406 -1.1087 -0.6483
16098SOL     OW52749   1.555   1.886  10.063 -0.0078  0.0607 -0.6963
16098SOL    HW152750   1.498   1.821  10.105  0.6728 -0.1772 -0.1152
16098SOL    HW252751   1.504   1.918   9.988 -0.3569 -1.1506 -1.0017
16099SOL     OW52752   1.064   8.038   2.999  0.1703  0.5879  0.4454
16099SOL    HW152753   1.041   7.946   2.989 -0.8309  0.4171  3.4485
16099SOL    HW252754   1.120   8.057   2.924 -0.1156 -2.2687 -0.6022
16100SOL     OW52755   2.721   0.876   9.091  0.0396 -0.0779 -0.3469
16100SOL    HW152756   2.655   0.930   9.134  0.9665  0.6429  0.1983
16100SOL    HW252757   2.796   0.877   9.151  0.2971 -1.4764 -0.6118
16101SOL     OW52758   7.294   2.437   2.470 -0.0709  0.2715 -0.2899
16101SOL    HW152759   7.299   2.342   2.476  2.0490  0.3620  0.2572
16101SOL    HW252760   7.200   2.457   2.472 -0.5259 -1.6245  2.6417
16102SOL     OW52761  10.111   9.216   0.831  0.1876 -0.1296  0.4087
16102SOL    HW152762  10.142   9.206   0.741 -0.1856 -1.4294  0.4093
16102SOL    HW252763  10.179   9.267   0.875  1.4211 -1.3248 -0.0632
16103SOL     OW52764   7.334   0.744   9.525 -0.4579 -0.2682 -0.5531
16103SOL    HW152765   7.377   0.719   9.607 -2.2321 -1.2388  0.1272
16103SOL    HW252766   7.374   0.687   9.459 -0.6035 -1.0689  0.0374
16104SOL     OW52767   1.701   6.386  10.537 -0.1374  0.3807  0.2926
16104SOL    HW152768   1.764   6.415  10.603  0.0042 -1.7382  1.1852
16104SOL    HW252769   1.755   6.340  10.472 -0.5439  0.2702  0.0308
16105SOL     OW52770   5.233   4.975  10.262 -0.6264  0.3210  0.5314
16105SOL    HW152771   5.308   5.027  10.291 -0.0904 -0.5278  0.7157
16105SOL    HW252772   5.212   4.920  10.337 -1.4672  0.5752  0.4912
16106SOL     OW52773   4.663   8.541   7.073  0.1984  0.1575 -0.7347
16106SOL    HW152774   4.606   8.556   6.998 -1.2475 -0.4749  0.1894
16106SOL    HW252775   4.609   8.491   7.135  1.9560 -1.0482 -0.0708
16107SOL     OW52776   2.998   0.854   7.752  0.0334  0.4194 -0.3773
16107SOL    HW152777   3.061   0.917   7.718 -1.1532  1.3260 -0.9824
16107SOL    HW252778   3.046   0.771   7.757  1.4901  1.2560 -0.0032
16108SOL     OW52779   6.492   6.809   1.777  0.7570 -0.2106 -0.0143
16108SOL    HW152780   6.432   6.790   1.849  1.5470  0.4095  0.8265
16108SOL    HW252781   6.457   6.760   1.703 -0.6940  0.0179  0.5006
16109SOL     OW52782   1.047   3.757   5.421  0.5444  0.4848 -0.7820
16109SOL    HW152783   0.964   3.803   5.432  0.4825  0.3232 -0.5581
16109SOL    HW252784   1.023   3.664   5.423  0.9096  0.3910  1.0031
16110SOL     OW52785  10.189  10.584   2.541 -0.1096  0.3080 -0.2606
16110SOL    HW152786  10.142  10.513   2.496 -1.6928  1.4305 -0.4783
16110SOL    HW252787  10.153  10.585   2.630  1.3711 -0.4280  0.3873
16111SOL     OW52788   4.117   7.481   6.987  0.4411 -0.2687 -0.1357
16111SOL    HW152789   4.072   7.413   6.937  0.1948 -0.0441 -0.2248
16111SOL    HW252790   4.120   7.448   7.077 -0.0611 -0.2152 -0.0933
16112SOL     OW52791   6.045   3.555   7.957 -0.1287 -0.1027 -0.5447
16112SOL    HW152792   6.057   3.612   7.881  0.7890  0.1990 -0.1858
16112SOL    HW252793   6.046   3.614   8.032 -0.4150 -0.4674 -0.2486
16113SOL     OW52794   6.749   1.762   1.947 -0.0299 -0.3109 -0.3365
16113SOL    HW152795   6.670   1.814   1.964  0.1418 -0.5133  1.2719
16113SOL    HW252796   6.723   1.700   1.879 -0.6297  0.9919 -1.3411
16114SOL     OW52797   8.045   3.642  10.941 -0.1148  0.0133  0.1131
16114SOL    HW152798   7.963   3.660  10.987 -0.8012  0.0227 -1.0623
16114SOL    HW252799   8.100   3.600  11.007 -1.4471 -0.9523  0.6707
16115SOL     OW52800   0.696   8.730   4.229 -0.1832  0.1447 -0.0424
16115SOL    HW152801   0.725   8.722   4.320  1.9928  0.2888 -0.6543
16115SOL    HW252802   0.714   8.822   4.206 -1.1468  0.2333 -0.5027
16116SOL     OW52803   3.018   8.208   1.514 -0.1425  0.2467  0.3478
16116SOL    HW152804   3.103   8.250   1.525 -0.5254  0.4476  3.0340
16116SOL    HW252805   3.009   8.149   1.588 -2.0585 -0.3162 -0.2579
16117SOL     OW52806   5.465   6.515   4.658 -0.3250 -0.0530  0.3015
16117SOL    HW152807   5.405   6.528   4.584  1.4936  1.4651 -1.0017
16117SOL    HW252808   5.425   6.444   4.709 -2.3053 -0.2835 -1.4302
16118SOL     OW52809   6.192   9.538   7.775  0.0017 -0.2488 -0.4976
16118SOL    HW152810   6.276   9.506   7.809  0.1281 -0.3309 -0.8721
16118SOL    HW252811   6.200   9.633   7.778 -0.0059 -0.2565 -0.2535
16119SOL     OW52812   9.292   5.486   4.821  0.0942 -0.3675 -0.0025
16119SOL    HW152813   9.228   5.436   4.772 -0.6903 -0.4064  1.0271
16119SOL    HW252814   9.339   5.420   4.873  1.1876 -0.3770 -0.9512
16120SOL     OW52815   4.967   3.628   1.880 -0.0226 -0.8622  0.0272
16120SOL    HW152816   5.004   3.706   1.839  0.6564 -1.4591 -0.5209
16120SOL    HW252817   4.941   3.573   1.807 -1.1814 -0.8411  0.4122
16121SOL     OW52818   8.518   3.113   5.445  0.6500  0.0562  0.1729
16121SOL    HW152819   8.508   3.095   5.538  0.7442  0.4925  0.2682
16121SOL    HW252820   8.610   3.134   5.434  0.6941 -0.2493 -0.0657
16122SOL     OW52821  10.185   0.085   6.770  0.2707 -0.0855  0.3229
16122SOL    HW152822  10.169  -0.004   6.801  1.7909  0.0721  1.6994
16122SOL    HW252823  10.181   0.138   6.849  1.2104  0.7993 -0.2087
16123SOL     OW52824   4.654  10.177   0.807 -0.3216  0.5186  0.0739
16123SOL    HW152825   4.592  10.129   0.752  1.2918  0.7283 -2.0403
16123SOL    HW252826   4.606  10.254   0.836 -2.1399 -1.0287  1.4658
16124SOL     OW52827   9.603   6.406   9.206  0.1384  0.1366  0.2037
16124SOL    HW152828   9.541   6.467   9.245 -0.0955  1.1334 -1.5942
16124SOL    HW252829   9.556   6.367   9.132  0.9089 -0.8350  0.1897
16125SOL     OW52830   1.027   7.778   3.980  0.8192  0.0301 -0.1945
16125SOL    HW152831   0.974   7.849   3.945 -0.1465 -0.4605  0.2396
16125SOL    HW252832   0.965   7.706   3.994  1.7169 -0.7773 -0.2963
16126SOL     OW52833   7.487   6.855   8.457 -0.2634 -0.1174 -0.1389
16126SOL    HW152834   7.393   6.876   8.461  0.3089  4.0197 -2.3543
16126SOL    HW252835   7.498   6.810   8.374 -0.2127  0.1818 -0.2973
16127SOL     OW52836   2.503   7.543   3.055  0.1721 -0.7318 -0.4889
16127SOL    HW152837   2.522   7.628   3.095 -0.5191 -0.6081 -0.4110
16127SOL    HW252838   2.502   7.561   2.961 -0.5818 -0.5180 -0.4467
16128SOL     OW52839   7.985   2.762   6.246  0.2401  0.2684 -0.5444
16128SOL    HW152840   8.039   2.684   6.244  1.2179  0.9337 -0.8332
16128SOL    HW252841   8.047   2.835   6.242 -0.6887  1.0572 -1.8888
16129SOL     OW52842   3.734   6.417   3.806 -0.2618  0.2216  0.3637
16129SOL    HW152843   3.803   6.398   3.742  0.1199 -0.0566  0.8455
16129SOL    HW252844   3.750   6.508   3.832 -1.0579  0.6759 -0.6992
16130SOL     OW52845   7.519   5.906   9.792  0.0674  0.0874 -0.1031
16130SOL    HW152846   7.477   5.986   9.761 -3.6135 -2.0975 -1.5426
16130SOL    HW252847   7.507   5.907   9.887  1.5416  1.8906  0.1036
16131SOL     OW52848   1.254   6.264  10.174  0.5856 -0.5267 -0.1437
16131SOL    HW152849   1.305   6.190  10.206  1.3450  0.8836  2.1421
16131SOL    HW252850   1.163   6.238  10.187  0.8569 -0.8084  1.3782
16132SOL     OW52851   3.481  10.123  10.255 -0.1395 -0.8655  0.1510
16132SOL    HW152852   3.565  10.115  10.208  0.1244  0.7293  0.3215
16132SOL    HW252853   3.458  10.215  10.248 -1.7424 -1.2297  0.3904
16133SOL     OW52854   6.748   7.915   1.590 -0.1884 -0.3103 -0.4149
16133SOL    HW152855   6.718   7.826   1.573 -1.3958  0.1708 -0.9483
16133SOL    HW252856   6.710   7.967   1.519 -0.2873  0.7726  0.3961
16134SOL     OW52857   7.991   5.149  10.875  0.0767 -0.0820  0.2302
16134SOL    HW152858   8.030   5.223  10.922  1.0308 -0.6461  0.3469
16134SOL    HW252859   7.922   5.189  10.821  0.3910  0.8543  0.4973
16135SOL     OW52860   8.316   0.254  10.703 -0.5819 -0.2218  0.5180
16135SOL    HW152861   8.303   0.314  10.776  1.0137  0.5984  0.1647
16135SOL    HW252862   8.365   0.181  10.740  1.4133  0.8148  0.0469
16136SOL     OW52863   3.479   3.419   9.315 -0.3344  0.1612  0.4177
16136SOL    HW152864   3.542   3.437   9.385 -0.3420 -1.5965  0.9069
16136SOL    HW252865   3.519   3.351   9.262 -0.7862  0.7477 -0.7226
16137SOL     OW52866   3.795   9.032   6.811 -0.1108 -0.5332 -0.1617
16137SOL    HW152867   3.831   8.955   6.767 -0.1978 -0.4609 -0.3594
16137SOL    HW252868   3.847   9.105   6.779  0.0122 -0.5151  0.0744
16138SOL     OW52869   8.879  10.664   8.321  0.3632 -0.3352 -0.3390
16138SOL    HW152870   8.883  10.618   8.405 -1.1303 -1.0725 -0.6289
16138SOL    HW252871   8.785  10.665   8.299  0.4085  2.1025 -0.7791
16139SOL     OW52872   2.138   0.868   1.164  0.1381 -0.0442 -0.3580
16139SOL    HW152873   2.045   0.855   1.146  0.0143 -0.8640  0.7322
16139SOL    HW252874   2.170   0.918   1.090 -1.3915  1.1712 -0.2476
16140SOL     OW52875   9.350   4.685   8.465  0.5266  0.0871 -0.2402
16140SOL    HW152876   9.416   4.754   8.477 -0.3497  0.8696  0.2504
16140SOL    HW252877   9.266   4.731   8.473 -0.0771 -0.9418 -0.5295
16141SOL     OW52878   5.628  11.001   5.531 -0.6208 -0.0240  0.1757
16141SOL    HW152879   5.616  10.906   5.525 -0.1331 -0.0919  0.2325
16141SOL    HW252880   5.721  11.015   5.513 -0.6902  0.4457  0.1595
16142SOL     OW52881   3.893   5.487   3.481 -0.1143  0.6004 -0.3949
16142SOL    HW152882   3.903   5.480   3.576  0.0179  0.3731 -0.4252
16142SOL    HW252883   3.891   5.397   3.450 -1.5761  0.6385 -0.4605
16143SOL     OW52884   9.643   0.650   5.685 -0.2987 -0.1528  0.0580
16143SOL    HW152885   9.685   0.652   5.599 -0.1668  1.8690  0.1149
16143SOL    HW252886   9.584   0.726   5.684  1.0710  1.0482  2.3851
16144SOL     OW52887   6.424   0.657   2.186 -0.5199  0.2165  0.2245
16144SOL    HW152888   6.459   0.627   2.270  0.1335  0.6890  0.1364
16144SOL    HW252889   6.331   0.638   2.190 -0.6635  1.0297  1.4301
16145SOL     OW52890  10.057   8.942   6.874  0.0643  0.1439  0.1622
16145SOL    HW152891   9.993   8.898   6.818 -1.0337  1.1121  0.6116
16145SOL    HW252892  10.040   8.907   6.962 -1.4831  2.0737  0.7041
16146SOL     OW52893  10.766   1.395   8.523 -0.5319 -0.0254  0.4096
16146SOL    HW152894  10.857   1.368   8.521 -0.8783 -1.1704 -0.6099
16146SOL    HW252895  10.752   1.423   8.614  0.8871  0.4635  0.5105
16147SOL     OW52896   0.097   3.778   9.999 -0.2224 -0.1238  0.0477
16147SOL    HW152897   0.103   3.862   9.953 -1.3543  1.2221  2.2190
16147SOL    HW252898   0.188   3.752  10.013  0.1715  1.4145  0.5095
16148SOL     OW52899   8.758   1.222  10.295 -0.3879  0.2610 -0.0970
16148SOL    HW152900   8.719   1.144  10.256  0.6991  0.3395 -1.4031
16148SOL    HW252901   8.733   1.293  10.237  0.5752  0.5036 -0.2357
16149SOL     OW52902   2.646   9.269   6.176  0.0560  0.8264 -0.0959
16149SOL    HW152903   2.724   9.266   6.121  1.2076 -0.7249  1.5042
16149SOL    HW252904   2.610   9.180   6.171  1.4665 -0.0710  3.2792
16150SOL     OW52905   2.767   3.548   7.540 -0.2535  0.0224  0.0146
16150SOL    HW152906   2.683   3.503   7.538 -0.1511 -0.2597  1.4389
16150SOL    HW252907   2.811   3.520   7.460 -0.1000 -2.6030  0.9359
16151SOL     OW52908   6.194   1.328  10.846  0.2651  0.4850 -0.0750
16151SOL    HW152909   6.192   1.423  10.851 -3.3647  0.5335  0.3978
16151SOL    HW252910   6.233   1.299  10.928  1.2534  1.5449 -0.1588
16152SOL     OW52911  10.382   7.911   4.061 -0.5602 -0.6376  0.5754
16152SOL    HW152912  10.333   7.980   4.106  1.3764  2.9333 -2.2584
16152SOL    HW252913  10.471   7.919   4.095  0.4632  0.7601 -2.1031
16153SOL     OW52914  10.741  10.997   5.014 -0.3366 -0.0599  0.1242
16153SOL    HW152915  10.646  11.000   5.004 -0.1788 -0.0235 -1.8680
16153SOL    HW252916  10.759  10.907   5.041 -0.9870  0.1873  1.4307
16154SOL     OW52917   4.897   8.034   2.779  0.1451 -0.1107 -0.1271
16154SOL    HW152918   4.879   8.116   2.825 -1.0032 -1.3202  1.7272
16154SOL    HW252919   4.955   7.985   2.839  2.1854 -0.0547 -1.9220
16155SOL     OW52920   0.559   6.594   0.625  0.5019 -0.1511 -0.2336
16155SOL    HW152921   0.489   6.529   0.629  1.7236 -1.6076 -1.3932
16155SOL    HW252922   0.628   6.559   0.682  0.7993  0.6113 -0.1125
16156SOL     OW52923   2.179   0.008   3.107 -0.2580 -0.4699  0.0279
16156SOL    HW152924   2.251  -0.055   3.108  0.7609  0.6354 -0.8290
16156SOL    HW252925   2.220   0.091   3.131 -1.3443  0.0948 -0.0160
16157SOL     OW52926   8.326   4.926   1.958  0.3301  0.1507 -0.0695
16157SOL    HW152927   8.360   4.837   1.958  1.5807  0.5895  1.1376
16157SOL    HW252928   8.372   4.970   1.887  1.6190  0.4677  0.9154
16158SOL     OW52929   3.153   5.917   6.697  0.1232 -0.8518 -0.3848
16158SOL    HW152930   3.095   5.853   6.738 -0.7509 -1.0503 -1.8360
16158SOL    HW252931   3.201   5.957   6.769 -2.2162 -0.2964  0.9633
16159SOL     OW52932  10.769   9.935   4.578  0.4327  0.2344 -0.1603
16159SOL    HW152933  10.733   9.854   4.616  0.8640  0.1622  0.0986
16159SOL    HW252934  10.701   9.965   4.517  0.1075 -0.1184  0.0254
16160SOL     OW52935   8.578   9.844   5.642  0.5245 -0.4122 -0.7768
16160SOL    HW152936   8.617   9.854   5.728  2.4035 -1.5431 -1.4396
16160SOL    HW252937   8.611   9.918   5.592 -0.3325  0.0852 -0.6192
16161SOL     OW52938   7.541   7.089   5.221 -0.0553 -0.7855 -0.3387
16161SOL    HW152939   7.633   7.096   5.243 -0.2716  1.0885  0.1740
16161SOL    HW252940   7.509   7.016   5.273  1.2565 -1.8890 -1.0307
16162SOL     OW52941   9.331   5.312   0.110 -0.1449 -0.2131  0.1072
16162SOL    HW152942   9.385   5.369   0.165  1.9658 -0.5091 -1.5282
16162SOL    HW252943   9.362   5.328   0.021 -1.1784 -2.1221 -0.6571
16163SOL     OW52944   6.099  10.732   6.522  0.7036 -0.5963 -0.0265
16163SOL    HW152945   6.162  10.660   6.528  0.4790 -0.8923 -1.0010
16163SOL    HW252946   6.141  10.805   6.568  0.6729 -1.5111  1.5164
16164SOL     OW52947   0.709   7.577   8.529  0.3721  0.0779 -0.1788
16164SOL    HW152948   0.694   7.670   8.543 -0.6243  0.1074 -1.2692
16164SOL    HW252949   0.626   7.535   8.552  1.0771 -0.6586  1.1377
16165SOL     OW52950  10.967   7.952  10.644  0.3714 -0.1538 -0.1499
16165SOL    HW152951  11.033   7.993  10.701  0.6214  1.1896 -1.3524
16165SOL    HW252952  10.993   7.978  10.555  0.9090 -3.4597 -1.0931
16166SOL     OW52953   0.168   9.193   2.037  0.4214 -0.5482 -0.4340
16166SOL    HW152954   0.139   9.241   2.114 -0.3450  0.5103 -1.3445
16166SOL    HW252955   0.263   9.209   2.033  0.0718  1.6697 -1.1894
16167SOL     OW52956   0.714   1.934   8.279  0.1283  0.9557 -0.4548
16167SOL    HW152957   0.752   1.908   8.195  0.8643  0.2498  0.0785
16167SOL    HW252958   0.770   1.892   8.345 -2.2955 -1.2083  0.3907
16168SOL     OW52959   0.349   7.770   9.217 -0.5347  0.2849 -0.5192
16168SOL    HW152960   0.280   7.818   9.170 -0.4755  0.4775 -0.4093
16168SOL    HW252961   0.317   7.764   9.307 -0.7781 -0.3308 -0.6378
16169SOL     OW52962   0.809   5.112   4.564  0.5307 -0.4089  0.2301
16169SOL    HW152963   0.768   5.128   4.649 -1.6566  1.6849 -1.1033
16169SOL    HW252964   0.886   5.168   4.563 -0.2466  0.6757  0.2966
16170SOL     OW52965   9.989   3.956   3.814  0.0529  0.1806 -0.0422
16170SOL    HW152966  10.017   3.958   3.722 -2.8397  1.5162 -1.0225
16170SOL    HW252967   9.939   3.875   3.821 -0.6217  0.6016  0.0381
16171SOL     OW52968   0.479   3.236   4.198 -0.6891 -0.5696  0.1377
16171SOL    HW152969   0.498   3.142   4.206  1.2431 -0.2982 -0.7531
16171SOL    HW252970   0.432   3.257   4.278 -1.3495 -2.3433  0.2603
16172SOL     OW52971   3.756   0.404   3.383 -0.4055  0.5307 -0.0128
16172SOL    HW152972   3.758   0.311   3.404 -0.2261  0.1099 -1.7099
16172SOL    HW252973   3.691   0.441   3.443  0.5904 -0.3780  1.7107
16173SOL     OW52974   3.617   8.648   4.846 -0.2084  0.0071  0.0567
16173SOL    HW152975   3.549   8.715   4.847 -0.1591  0.1169 -1.4996
16173SOL    HW252976   3.654   8.653   4.758  0.4108 -1.4630  0.2048
16174SOL     OW52977   8.264   7.452   1.798  0.1766 -0.7416 -0.5808
16174SOL    HW152978   8.343   7.481   1.844 -1.0656 -0.0698  1.2133
16174SOL    HW252979   8.297   7.414   1.716  2.3601 -0.6372  0.1862
16175SOL     OW52980   6.686   9.167  10.787 -0.1228 -0.6219  0.0245
16175SOL    HW152981   6.595   9.196  10.783  0.1645  0.2490 -0.3180
16175SOL    HW252982   6.681   9.075  10.813 -1.0906 -0.5237  0.1948
16176SOL     OW52983   2.456   0.775  10.543 -0.2185 -0.0566 -0.0858
16176SOL    HW152984   2.450   0.680  10.542  1.1182 -0.2480  2.1076
16176SOL    HW252985   2.530   0.793  10.601  0.2612  2.3115 -1.3214
16177SOL     OW52986   1.596   0.575   2.294  0.5587 -0.3286  0.3710
16177SOL    HW152987   1.582   0.527   2.376  2.0894 -0.3395  0.6550
16177SOL    HW252988   1.641   0.512   2.237  2.1863  0.5838  0.5944
16178SOL     OW52989   4.270   1.497   3.313  0.0906 -0.1822 -0.2842
16178SOL    HW152990   4.330   1.504   3.388 -0.0912  0.4808 -0.1951
16178SOL    HW252991   4.298   1.568   3.254 -0.6423  0.1772 -0.2091
16179SOL     OW52992   6.694   8.002   6.624 -0.1651  0.0658 -0.5472
16179SOL    HW152993   6.701   7.908   6.641  0.3528  0.3028  0.6689
16179SOL    HW252994   6.784   8.032   6.615 -0.2160  0.7190  0.8183
16180SOL     OW52995   8.981   7.599   0.057 -0.2694 -0.5586  0.2915
16180SOL    HW152996   8.984   7.679   0.005  0.2301 -0.4981  0.4138
16180SOL    HW252997   8.929   7.538   0.005 -0.0895 -0.3740 -0.1051
16181SOL     OW52998   9.543   3.007   5.698  0.3925  0.2284  0.5072
16181SOL    HW152999   9.506   3.047   5.776 -0.1242  1.5764 -0.3827
16181SOL    HW253000   9.607   3.071   5.667  0.8209 -0.4333  0.0005
16182SOL     OW53001   3.030   0.895   6.866  0.2193  0.3248 -0.1787
16182SOL    HW153002   3.030   0.818   6.810  1.4792 -0.7038  1.1578
16182SOL    HW253003   3.035   0.969   6.806  2.1910 -0.7500 -1.4259
16183SOL     OW53004   7.680   9.933   4.609  0.0205  0.0557 -0.8962
16183SOL    HW153005   7.650   9.922   4.519 -1.0528 -0.8295 -0.4514
16183SOL    HW253006   7.699   9.844   4.639  0.9126  0.3931 -0.4116
16184SOL     OW53007  10.332   7.945   0.811 -0.2781 -0.4073 -0.8635
16184SOL    HW153008  10.255   7.890   0.796  0.0180 -1.4189  0.9926
16184SOL    HW253009  10.303   8.010   0.874  0.1951 -0.3642 -0.6818
16185SOL     OW53010   6.274   0.404   9.897 -0.3173 -0.1596  0.3015
16185SOL    HW153011   6.214   0.444   9.961  0.1614  0.2264  0.5191
16185SOL    HW253012   6.222   0.396   9.817 -0.6992  0.0418  0.5235
16186SOL     OW53013   4.218   5.467   3.623 -0.4841 -0.2951  0.2320
16186SOL    HW153014   4.123   5.461   3.637 -0.5213  0.2543  0.2239
16186SOL    HW253015   4.256   5.427   3.701 -0.7222 -0.2604  0.3688
16187SOL     OW53016   8.676   0.088   0.985 -0.1916 -0.4012  0.0059
16187SOL    HW153017   8.684   0.052   1.073  0.7928 -1.5300 -0.5249
16187SOL    HW253018   8.586   0.122   0.982 -0.2883 -0.4681  1.3853
16188SOL     OW53019   8.278   5.094   2.403  0.1503 -0.8229 -0.2534
16188SOL    HW153020   8.256   5.002   2.418  1.4920 -0.9850  0.8674
16188SOL    HW253021   8.226   5.141   2.469  1.3845 -1.0263  0.9180
16189SOL     OW53022   8.762   4.459   1.738  0.4558 -0.2279  0.4720
16189SOL    HW153023   8.856   4.470   1.721  0.8696 -3.1318  0.3598
16189SOL    HW253024   8.756   4.444   1.832  0.4862 -2.4125  0.1878
16190SOL     OW53025   7.546   2.569   6.590  0.3048  0.1651 -0.6923
16190SOL    HW153026   7.496   2.493   6.559  0.5807 -0.0306 -0.6615
16190SOL    HW253027   7.571   2.546   6.679 -2.7001  1.7756  0.7294
16191SOL     OW53028   4.757   5.407   1.428 -0.5685 -0.8995 -0.4362
16191SOL    HW153029   4.790   5.350   1.496 -1.6258  1.3594  2.1715
16191SOL    HW253030   4.688   5.356   1.384  0.3841 -2.5277 -0.0863
16192SOL     OW53031   0.890   2.674   3.215 -0.0151  0.2336 -0.2236
16192SOL    HW153032   0.930   2.632   3.139  0.6171 -0.1808  0.3260
16192SOL    HW253033   0.877   2.765   3.188  2.2513  0.6466 -0.0954
16193SOL     OW53034   3.270   7.150   3.012 -0.3761  0.0512 -0.0824
16193SOL    HW153035   3.331   7.223   3.004  0.7468 -0.7276  0.9948
16193SOL    HW253036   3.184   7.190   3.001  0.1234  1.7610  1.6114
16194SOL     OW53037   6.221   9.624   9.352  0.4130  0.0022 -0.0265
16194SOL    HW153038   6.211   9.661   9.440  2.6213  0.6308  0.0147
16194SOL    HW253039   6.246   9.533   9.367  0.9304  0.1472  0.0234
16195SOL     OW53040   0.859   2.093   2.475  0.3038  0.2462  0.2887
16195SOL    HW153041   0.807   2.028   2.521  0.3315  0.2053  0.2621
16195SOL    HW253042   0.816   2.176   2.493  0.2166  0.2096  0.2490
16196SOL     OW53043   2.972  10.485   9.647  0.1935  0.4144 -0.1396
16196SOL    HW153044   3.062  10.452   9.643 -0.6596 -2.0733 -0.5310
16196SOL    HW253045   2.954  10.514   9.557 -0.0480 -1.1290 -0.6295
16197SOL     OW53046   3.817   0.721   6.267  0.0955  0.5089  0.1456
16197SOL    HW153047   3.861   0.663   6.329 -0.9668 -0.0907  0.3763
16197SOL    HW253048   3.844   0.689   6.181  1.2060  1.0467  0.2845
16198SOL     OW53049   7.811   3.473   6.771 -0.4070 -0.1713 -0.6744
16198SOL    HW153050   7.756   3.535   6.819  0.4661 -1.0479  1.5636
16198SOL    HW253051   7.860   3.527   6.709 -1.0419  1.1139 -0.0870
16199SOL     OW53052   6.101   2.703   1.914 -0.2837  0.1256 -0.3344
16199SOL    HW153053   6.138   2.790   1.899  0.3247 -0.0315  0.2400
16199SOL    HW253054   6.009   2.712   1.887  0.1734  0.4852 -1.8758
16200SOL     OW53055   0.114   8.247   8.661 -0.1283  0.4226  0.1350
16200SOL    HW153056   0.171   8.308   8.614  1.2325 -0.6316  0.3281
16200SOL    HW253057   0.039   8.234   8.603 -0.0059  1.5585 -0.3053
16201SOL     OW53058   1.658   5.801   7.791  0.3591  0.2491 -0.2014
16201SOL    HW153059   1.593   5.732   7.779 -0.6315  0.9973  0.7202
16201SOL    HW253060   1.623   5.875   7.742  1.4478  0.1224 -1.2389
16202SOL     OW53061   6.815   3.559   9.750  0.7567 -0.4464  0.0576
16202SOL    HW153062   6.876   3.498   9.709  0.6777  0.6431 -1.7590
16202SOL    HW253063   6.816   3.636   9.694 -1.2189  0.1594  0.7754
16203SOL     OW53064   8.542   8.183   1.087 -0.1267 -0.0759  0.5188
16203SOL    HW153065   8.543   8.088   1.099  0.3744 -0.6461 -3.0932
16203SOL    HW253066   8.525   8.196   0.994  0.9867  3.3692  0.6553
16204SOL     OW53067   1.380  10.049   1.478 -0.6003 -0.0792  0.0161
16204SOL    HW153068   1.379   9.963   1.437 -1.3167 -0.6223  1.1380
16204SOL    HW253069   1.453  10.046   1.540  0.2828  0.6371 -0.9402
16205SOL     OW53070   9.801  10.879   0.140  0.1130 -0.3895 -0.0068
16205SOL    HW153071   9.889  10.917   0.143  1.3478 -2.8110 -1.7695
16205SOL    HW253072   9.742  10.954   0.131  2.2423  1.1761 -1.8935
16206SOL     OW53073   0.156   1.525   7.536  0.3507  0.2184 -0.0467
16206SOL    HW153074   0.166   1.591   7.467  1.1797  1.3108  1.0640
16206SOL    HW253075   0.228   1.464   7.521  0.3801  0.3159 -0.3056
16207SOL     OW53076   2.246   2.189   5.160  0.2186 -0.2580 -0.2284
16207SOL    HW153077   2.241   2.210   5.067 -0.1327 -1.3309 -0.4616
16207SOL    HW253078   2.247   2.275   5.204 -0.4513  0.2501 -1.1720
16208SOL     OW53079   9.698   5.256  10.132 -0.6144  0.1897  0.3487
16208SOL    HW153080   9.670   5.330  10.187 -0.2274 -0.5896  1.6458
16208SOL    HW253081   9.770   5.216  10.182  1.5957  1.0014 -1.9783
16209SOL     OW53082   7.171   0.937   3.052  0.8620 -0.6930  0.5002
16209SOL    HW153083   7.151   0.843   3.054  1.7234 -0.8795  2.4575
16209SOL    HW253084   7.204   0.952   2.963  0.6588 -2.2155  0.1245
16210SOL     OW53085   2.146   0.722   5.117  0.3607 -0.1044 -0.1733
16210SOL    HW153086   2.171   0.814   5.109  0.8243 -0.1520  0.6195
16210SOL    HW253087   2.227   0.676   5.138  0.2710 -0.8154 -1.2789
16211SOL     OW53088  10.635   3.966   6.491 -0.5713  0.0372 -0.2824
16211SOL    HW153089  10.610   3.900   6.555  0.3662  0.2779  0.3633
16211SOL    HW253090  10.648   3.918   6.409 -1.2504 -0.3525 -0.1664
16212SOL     OW53091   4.931   2.608   0.034 -0.1949  0.7013  0.3039
16212SOL    HW153092   4.867   2.537   0.033 -1.3550  1.7141 -0.5143
16212SOL    HW253093   4.888   2.679   0.082  0.7405  1.0368  0.6662
16213SOL     OW53094   4.026   8.363   4.749 -0.2584 -1.0296 -0.3708
16213SOL    HW153095   3.993   8.275   4.769  1.4375 -2.3329 -2.7257
16213SOL    HW253096   3.999   8.378   4.658  1.3934 -0.0867 -0.7372
16214SOL     OW53097  10.814  10.790   5.660 -0.2852  0.5518  0.3503
16214SOL    HW153098  10.851  10.864   5.708 -0.7043  1.2878 -0.4283
16214SOL    HW253099  10.872  10.717   5.681  1.6064  1.6294 -0.7347
16215SOL     OW53100   8.590   9.140   1.551  0.3879 -0.6200 -0.2068
16215SOL    HW153101   8.599   9.050   1.521  1.1756 -0.7744  0.4728
16215SOL    HW253102   8.576   9.191   1.470  0.9656 -1.2094 -0.6865
16216SOL     OW53103   6.372   8.931   8.582  0.3574  0.5908 -0.6353
16216SOL    HW153104   6.295   8.921   8.526 -1.8889  1.1419  2.1263
16216SOL    HW253105   6.355   9.010   8.633  2.1698  0.0397  0.9644
16217SOL     OW53106  10.288   0.432  10.932 -0.1578  0.1152 -0.0992
16217SOL    HW153107  10.222   0.428  11.001 -0.2046  4.8973  0.5106
16217SOL    HW253108  10.246   0.485  10.863  1.3603 -0.9885 -1.9594
16218SOL     OW53109   1.372  10.212   1.157 -0.3047 -0.8416 -0.2981
16218SOL    HW153110   1.309  10.270   1.201  1.8733  1.6233 -0.1743
16218SOL    HW253111   1.332  10.125   1.162 -3.3215  0.4464  0.3919
16219SOL     OW53112   0.619   2.985   9.147  0.5131 -0.1458 -0.0016
16219SOL    HW153113   0.568   3.005   9.069  2.3107  0.0643 -1.1998
16219SOL    HW253114   0.602   3.057   9.207 -1.1171 -0.4594 -0.0624
16220SOL     OW53115   8.479   4.290   4.994 -0.4790  0.5339 -0.5381
16220SOL    HW153116   8.533   4.335   5.058 -0.1745  1.0703 -1.1657
16220SOL    HW253117   8.540   4.235   4.945 -0.7383 -0.0136 -0.2535
16221SOL     OW53118   9.394   8.263   2.870  0.0585  0.1203 -0.5705
16221SOL    HW153119   9.452   8.308   2.809  0.1701 -0.0556 -0.5953
16221SOL    HW253120   9.415   8.301   2.956  0.3189 -0.0540 -0.5584
16222SOL     OW53121   5.678   5.017   2.323 -0.3341  0.8009 -0.7093
16222SOL    HW153122   5.619   5.086   2.292  0.0849  0.7584 -1.6024
16222SOL    HW253123   5.705   4.970   2.245  1.3858  1.2091 -0.4189
16223SOL     OW53124   5.784   6.358   5.194 -0.0617  0.1102  0.2875
16223SOL    HW153125   5.760   6.404   5.114 -0.4733  0.0765  0.3876
16223SOL    HW253126   5.701   6.346   5.240  0.2024  0.3226  0.8234
16224SOL     OW53127   2.070  10.430   7.505  0.1418  0.1856 -0.1423
16224SOL    HW153128   2.109  10.344   7.517 -0.3491 -0.0145  0.0690
16224SOL    HW253129   2.112  10.485   7.570  1.2722  0.3897 -1.0206
16225SOL     OW53130   3.857   7.244   2.251 -0.7345 -0.0565 -0.6633
16225SOL    HW153131   3.874   7.321   2.196  0.1676 -0.5338 -1.0875
16225SOL    HW253132   3.826   7.280   2.334  1.6316  0.9293 -0.1095
16226SOL     OW53133   1.208   1.831   5.978 -0.1968 -0.1048 -0.8383
16226SOL    HW153134   1.291   1.821   5.932  1.2829  1.1431  1.3864
16226SOL    HW253135   1.194   1.746   6.020  0.0453 -0.2509 -1.0478
16227SOL     OW53136   1.684   3.717   5.861 -0.4473 -0.0340  0.1891
16227SOL    HW153137   1.708   3.700   5.770 -2.1810 -0.0285 -0.3089
16227SOL    HW253138   1.642   3.636   5.890  1.4831 -0.6259  1.5454
16228SOL     OW53139   4.674   4.678   1.025 -0.0888 -0.2250 -0.0175
16228SOL    HW153140   4.607   4.732   1.065  1.0340  0.8056  0.5259
16228SOL    HW253141   4.645   4.588   1.039 -0.4540  0.1548  1.7933
16229SOL     OW53142   5.373   4.178   7.362  0.1945 -0.4019 -0.2462
16229SOL    HW153143   5.330   4.133   7.434  0.2497 -0.4670 -0.2541
16229SOL    HW253144   5.466   4.159   7.373  0.3059  0.3815  0.2224
16230SOL     OW53145   8.888   9.453   4.357 -0.5213 -0.2294 -0.2860
16230SOL    HW153146   8.820   9.520   4.359 -0.5127 -0.2186  1.3680
16230SOL    HW253147   8.855   9.383   4.413 -0.1080 -1.2000 -1.2163
16231SOL     OW53148   4.186   8.224   9.364 -0.0366 -0.0774 -0.2810
16231SOL    HW153149   4.229   8.244   9.447 -0.3045 -2.1201  0.4074
16231SOL    HW253150   4.191   8.306   9.314  1.1405  0.8682  1.2872
16232SOL     OW53151   7.479   5.365  10.688  0.3128  0.4021  0.0398
16232SOL    HW153152   7.523   5.321  10.615 -2.2723  1.4289 -2.3120
16232SOL    HW253153   7.547   5.420  10.727  2.2442 -1.5765 -0.3230
16233SOL     OW53154   7.234   0.079   0.601 -0.5180 -0.6053 -0.5767
16233SOL    HW153155   7.257  -0.007   0.636  1.0596  0.0527  0.1153
16233SOL    HW253156   7.266   0.141   0.667 -0.3615  0.5614 -1.6983
16234SOL     OW53157   8.511   0.337   4.209  0.0725  0.5213 -0.2015
16234SOL    HW153158   8.520   0.284   4.288  1.5413 -1.1133 -1.3870
16234SOL    HW253159   8.581   0.402   4.216 -0.6109  1.2138  0.4124
16235SOL     OW53160   7.073   3.034   8.539 -1.0386  0.4301  0.2767
16235SOL    HW153161   7.100   3.027   8.448 -0.6995  1.1450  0.3154
16235SOL    HW253162   6.987   2.993   8.542 -0.3710 -1.1068 -0.0307
16236SOL     OW53163   8.530   1.746   4.280  0.4522 -0.0870  0.4736
16236SOL    HW153164   8.498   1.831   4.311  0.5724 -0.1399  0.7439
16236SOL    HW253165   8.521   1.689   4.356  0.4106 -0.3064  0.3025
16237SOL     OW53166   0.282   6.068   3.311 -0.2429  0.7387  0.3235
16237SOL    HW153167   0.356   6.092   3.254 -1.6665 -0.3268 -2.1219
16237SOL    HW253168   0.292   5.974   3.325 -1.7126  0.3314 -1.0496
16238SOL     OW53169   4.496   3.810   0.040  0.5179  0.0795  0.3121
16238SOL    HW153170   4.484   3.807  -0.055 -1.6405  0.9016  0.5025
16238SOL    HW253171   4.587   3.784   0.054  0.8811 -0.0404 -1.9762
16239SOL     OW53172  10.351   0.052  10.948 -0.7274  0.2087  0.4075
16239SOL    HW153173  10.315  -0.010  10.884  0.0103 -1.5294  1.5720
16239SOL    HW253174  10.276   0.081  10.999 -1.1291  0.5147 -0.3546
16240SOL     OW53175   3.971  10.649   7.409 -0.7713 -0.3261  0.8332
16240SOL    HW153176   4.008  10.683   7.327 -1.2616 -1.0313  0.3013
16240SOL    HW253177   3.882  10.685   7.412 -1.4278 -1.7616  0.0843
16241SOL     OW53178   3.247   7.504   3.575  0.1445  0.3957  1.0112
16241SOL    HW153179   3.297   7.463   3.505 -2.6722 -1.0016 -0.3275
16241SOL    HW253180   3.273   7.457   3.654  1.0527 -0.1541  0.3964
16242SOL     OW53181   9.028   1.246   9.498 -0.1410  0.0532  0.4339
16242SOL    HW153182   8.977   1.274   9.574 -1.7699  0.4299 -0.7248
16242SOL    HW253183   9.051   1.328   9.453  1.3288 -0.1284  0.8078
16243SOL     OW53184   1.205   4.741   5.705 -0.2720 -0.2499  0.0989
16243SOL    HW153185   1.130   4.785   5.744 -0.4118 -0.4173  0.0190
16243SOL    HW253186   1.276   4.805   5.711 -0.7116  0.3582 -0.9059
16244SOL     OW53187   6.454   7.874   3.482 -0.0944 -0.1877 -0.0713
16244SOL    HW153188   6.449   7.785   3.447 -0.9191 -0.7690  1.4621
16244SOL    HW253189   6.390   7.924   3.430  2.3545  0.3038 -2.9222
16245SOL     OW53190   8.816   4.457   4.191 -0.3255  0.6956  0.5186
16245SOL    HW153191   8.873   4.533   4.206  1.9157 -0.9452  0.8190
16245SOL    HW253192   8.768   4.479   4.111  2.5142  1.2469 -1.1694
16246SOL     OW53193   7.088   3.809   4.558 -1.0813  0.0841  0.4973
16246SOL    HW153194   7.080   3.762   4.476 -0.2267 -1.4994  1.2756
16246SOL    HW253195   7.174   3.784   4.592 -0.8930  1.6752  1.2965
16247SOL     OW53196   5.041   8.361   2.142 -0.8593  0.0534 -0.0940
16247SOL    HW153197   5.105   8.351   2.213 -1.2560  0.7878  0.3749
16247SOL    HW253198   5.004   8.448   2.154  0.0421  0.7684 -2.0211
16248SOL     OW53199   4.676  10.003   2.111 -0.7447 -0.2547  0.3588
16248SOL    HW153200   4.772  10.011   2.104 -0.5183  0.2606  2.9834
16248SOL    HW253201   4.659   9.909   2.107 -0.0807 -0.3764  0.2472
16249SOL     OW53202   0.834   6.773   7.702  0.2792 -0.1781  0.3139
16249SOL    HW153203   0.753   6.778   7.651  2.3931  1.1883 -3.2458
16249SOL    HW253204   0.849   6.862   7.733  0.9874 -0.1614 -0.0565
16250SOL     OW53205   0.507   5.940  10.252  0.6253 -0.0617 -0.0195
16250SOL    HW153206   0.490   5.846  10.263  1.1403 -0.2064 -0.3905
16250SOL    HW253207   0.544   5.947  10.164  2.5673  0.1961  0.7769
16251SOL     OW53208   0.233   5.067   4.778  0.2835 -0.6630 -0.0939
16251SOL    HW153209   0.171   5.134   4.751 -0.8895 -2.6426 -2.6844
16251SOL    HW253210   0.194   5.028   4.857 -0.7742 -0.5678 -0.5571
16252SOL     OW53211   3.355   2.632   3.696 -0.4334  0.0401  0.1567
16252SOL    HW153212   3.288   2.583   3.647 -0.7536  0.6711 -0.0508
16252SOL    HW253213   3.358   2.718   3.654  2.1620 -0.6784 -1.3286
16253SOL     OW53214   4.736   6.332   5.364 -0.2488  0.4215  0.3934
16253SOL    HW153215   4.650   6.372   5.348 -0.8495 -0.8490  0.3366
16253SOL    HW253216   4.778   6.390   5.428 -1.1824  1.0173  0.4784
16254SOL     OW53217   0.653   3.949   9.264 -0.4820  0.2310  0.3811
16254SOL    HW153218   0.572   3.998   9.280 -1.1927 -1.4681  2.6674
16254SOL    HW253219   0.624   3.868   9.223  0.2157  0.1139  0.1119
16255SOL     OW53220   3.676   4.028   2.757  0.0694 -0.2155 -0.0869
16255SOL    HW153221   3.647   4.023   2.666  1.9932  1.0749 -0.8378
16255SOL    HW253222   3.708   4.117   2.767  2.8644 -1.2351  0.8914
16256SOL     OW53223   2.539  10.897   9.475 -0.4777  0.3992 -0.0653
16256SOL    HW153224   2.609  10.918   9.413 -0.3925  0.4975  0.0652
16256SOL    HW253225   2.554  10.805   9.497  0.4072  0.7838  0.9880
16257SOL     OW53226   5.129   9.327   1.005 -0.0149 -0.0840  0.2365
16257SOL    HW153227   5.046   9.307   1.049  0.9644  0.0805  2.2550
16257SOL    HW253228   5.186   9.359   1.075  1.3741  0.9960 -1.3235
16258SOL     OW53229   0.995   0.345   8.335 -0.0070  0.1147  0.4841
16258SOL    HW153230   0.901   0.352   8.318 -0.4526 -1.0885  2.2585
16258SOL    HW253231   1.025   0.436   8.340 -0.8788  0.5124 -0.9253
16259SOL     OW53232   3.038   6.525   5.176  0.1924 -0.1212  0.3079
16259SOL    HW153233   2.943   6.529   5.164  0.3229  1.1491 -0.5282
16259SOL    HW253234   3.061   6.610   5.213  1.1764  0.1841 -0.9471
16260SOL     OW53235   9.194   1.472   2.207  0.3228 -0.0503 -0.2491
16260SOL    HW153236   9.284   1.441   2.218 -0.1301 -0.6576  2.8175
16260SOL    HW253237   9.140   1.394   2.220 -0.6875  0.7591  0.5849
16261SOL     OW53238  10.825   9.470   5.327 -0.2584 -1.0815 -0.1581
16261SOL    HW153239  10.836   9.458   5.422  1.3377  1.2913  0.0471
16261SOL    HW253240  10.901   9.425   5.289 -0.4957 -1.4023 -0.2505
16262SOL     OW53241   9.668   6.686   4.605  0.1126  0.2857  0.1969
16262SOL    HW153242   9.586   6.689   4.556  0.3353 -1.2812 -0.3301
16262SOL    HW253243   9.674   6.772   4.647 -1.0267  0.9768 -0.9880
16263SOL     OW53244   2.649   9.238   3.748 -0.0985 -0.9078  0.7354
16263SOL    HW153245   2.614   9.278   3.828 -0.1891 -0.4460  0.4699
16263SOL    HW253246   2.685   9.154   3.777 -0.9216 -1.1467  1.1082
16264SOL     OW53247   5.607   0.467   8.057  0.2093  0.7503  0.0245
16264SOL    HW153248   5.667   0.533   8.091 -0.5959  2.9266 -2.4080
16264SOL    HW253249   5.556   0.513   7.991 -1.9771 -1.8019 -0.2522
16265SOL     OW53250   7.575   2.578   9.162 -0.5492 -0.3537  0.0523
16265SOL    HW153251   7.591   2.672   9.168  0.0563 -0.5307  2.1703
16265SOL    HW253252   7.483   2.570   9.139 -0.5481  0.7437 -0.3819
16266SOL     OW53253   8.449   0.126   7.883  0.3643 -0.3837 -0.1341
16266SOL    HW153254   8.500   0.065   7.831  0.4062 -1.2542  0.8866
16266SOL    HW253255   8.512   0.168   7.942  0.4838  1.3135 -1.3801
16267SOL     OW53256   9.539   2.131   1.907  0.2256 -0.2101 -0.0670
16267SOL    HW153257   9.564   2.078   1.983 -1.0199 -0.9753 -0.1578
16267SOL    HW253258   9.449   2.104   1.888 -0.3146  1.6614 -0.3745
16268SOL     OW53259   3.256   7.445   3.168 -0.3395  0.1569  0.2196
16268SOL    HW153260   3.185   7.431   3.231 -0.1548 -0.9372  0.1958
16268SOL    HW253261   3.335   7.435   3.220 -0.1897 -0.4077 -0.1099
16269SOL     OW53262   0.714  10.854   4.866 -0.0323  0.0120  0.3769
16269SOL    HW153263   0.624  10.886   4.853  0.1341  0.0155 -0.9104
16269SOL    HW253264   0.737  10.814   4.782  0.6330 -1.3624  1.1842
16270SOL     OW53265   2.624   5.637   6.212  0.4804  0.2964  0.2067
16270SOL    HW153266   2.542   5.589   6.227  1.4815 -1.0723  1.5255
16270SOL    HW253267   2.652   5.664   6.299  1.0602  1.4426 -0.3129
16271SOL     OW53268   5.683   2.970   4.060  0.1176  0.3938 -0.4201
16271SOL    HW153269   5.765   3.006   4.028  0.3627  0.6802  0.5221
16271SOL    HW253270   5.679   2.882   4.021  1.8211 -0.3892  1.0519
16272SOL     OW53271   3.731   7.473   7.818 -0.1000  0.3413  0.1109
16272SOL    HW153272   3.799   7.517   7.767 -0.3336 -0.6118 -1.1034
16272SOL    HW253273   3.765   7.384   7.831 -1.7781 -0.7227 -2.0569
16273SOL     OW53274  10.974  10.298  11.072 -0.1296 -0.2747  0.0430
16273SOL    HW153275  10.905  10.271  11.132  1.0221 -1.4883  0.8896
16273SOL    HW253276  11.044  10.332  11.130  0.5403 -0.3885 -0.6840
16274SOL     OW53277   6.068   7.667   9.411 -0.0274 -0.1136 -0.4716
16274SOL    HW153278   6.024   7.616   9.343  1.8726 -1.4502 -0.7807
16274SOL    HW253279   6.133   7.719   9.365  0.2804  0.0995  0.1851
16275SOL     OW53280   4.756  10.631   9.456 -0.0348  0.7560 -0.4004
16275SOL    HW153281   4.819  10.642   9.527 -0.0161  1.3207 -0.5059
16275SOL    HW253282   4.728  10.719   9.434  0.4234  0.6449 -1.5182
16276SOL     OW53283  11.026   2.609   7.485 -0.2356  0.1150 -0.0092
16276SOL    HW153284  11.078   2.689   7.493 -0.9121  0.5449  0.2069
16276SOL    HW253285  10.943   2.637   7.446 -0.4448 -0.4947 -0.0232
16277SOL     OW53286   6.542  10.771  10.419 -0.0477 -0.2015 -0.1930
16277SOL    HW153287   6.619  10.767  10.363 -0.5742  0.1501 -0.9617
16277SOL    HW253288   6.490  10.843  10.384 -1.8509 -1.8791 -1.1550
16278SOL     OW53289  10.079   8.820   6.582 -0.3955 -0.1769  0.1698
16278SOL    HW153290  10.022   8.897   6.581 -0.3684 -0.1217  1.1771
16278SOL    HW253291  10.047   8.768   6.656 -0.1308 -0.9122 -0.2234
16279SOL     OW53292   6.643  10.571   4.102  0.3875 -0.2111 -0.6725
16279SOL    HW153293   6.682  10.654   4.074 -1.7771  1.0735 -0.1477
16279SOL    HW253294   6.653  10.571   4.197  0.8751 -0.8248 -0.7225
16280SOL     OW53295  10.884   3.973   8.073  0.4324 -0.2948  0.0863
16280SOL    HW153296  10.975   4.002   8.079  0.2539  0.3408 -0.1901
16280SOL    HW253297  10.833   4.052   8.093 -0.0591 -0.6112  0.0852
16281SOL     OW53298   2.615   8.777   2.750  0.3781  0.5423 -0.1776
16281SOL    HW153299   2.570   8.694   2.737  0.5339  0.2788  0.8436
16281SOL    HW253300   2.547   8.844   2.739  0.1856  0.2636 -0.6815
16282SOL     OW53301   8.929  10.078   0.511 -0.4867  0.2169  0.0012
16282SOL    HW153302   9.018  10.113   0.509 -0.3442 -0.1431 -1.8363
16282SOL    HW253303   8.874  10.153   0.535  0.1499  0.8682 -0.5289
16283SOL     OW53304   5.268   6.700   0.121  1.5076 -0.1705 -0.1934
16283SOL    HW153305   5.311   6.692   0.036 -1.1545 -0.2308 -1.6219
16283SOL    HW253306   5.241   6.792   0.126 -1.3219 -0.8766 -1.0241
16284SOL     OW53307   8.992   6.555   5.063 -0.0176 -0.3303 -0.0537
16284SOL    HW153308   9.058   6.565   4.994  1.1216  1.1275  1.1745
16284SOL    HW253309   8.917   6.605   5.032  1.4160  2.5252  0.8198
16285SOL     OW53310   0.844   6.331   3.195  0.2553  0.3148 -0.5966
16285SOL    HW153311   0.753   6.350   3.173 -0.3848 -0.6328  1.1112
16285SOL    HW253312   0.869   6.402   3.255 -0.1235 -0.6862  0.7762
16286SOL     OW53313   1.023   6.116   0.239 -0.0544  0.1795  0.0099
16286SOL    HW153314   1.089   6.057   0.277 -1.5169  0.1048  2.7566
16286SOL    HW253315   0.955   6.057   0.206 -0.1437  0.2753  0.0218
16287SOL     OW53316   1.768  10.326   5.128 -0.1282  0.0936 -0.0421
16287SOL    HW153317   1.675  10.342   5.111 -0.4567 -0.6022  0.9666
16287SOL    HW253318   1.774  10.322   5.224  0.8267 -0.5297 -0.1175
16288SOL     OW53319   4.339   3.577   7.400 -0.1484 -0.1857  0.0615
16288SOL    HW153320   4.382   3.613   7.322 -2.4728  1.6419 -0.4877
16288SOL    HW253321   4.311   3.490   7.373  0.8970 -0.3874 -0.4193
16289SOL     OW53322   3.588   9.258   8.749 -0.0429 -0.7655  0.4912
16289SOL    HW153323   3.649   9.202   8.703 -0.6984 -1.3600  0.3222
16289SOL    HW253324   3.510   9.259   8.694 -0.3830 -0.4645  0.9674
16290SOL     OW53325   6.648   3.256   7.329 -0.0237  0.7074  0.3857
16290SOL    HW153326   6.657   3.229   7.237  0.1479  1.6915  0.1024
16290SOL    HW253327   6.562   3.298   7.333 -0.5603 -0.3887  0.9659
16291SOL     OW53328   7.698   7.092   0.772  0.5638  0.2335  0.3362
16291SOL    HW153329   7.767   7.035   0.738  1.5025  1.5910 -0.0802
16291SOL    HW253330   7.713   7.093   0.867  0.9764  0.3504  0.2715
16292SOL     OW53331   7.440   7.441   6.722 -0.8741  0.3248  0.3747
16292SOL    HW153332   7.503   7.369   6.723 -1.7861 -0.5028  1.1399
16292SOL    HW253333   7.389   7.429   6.802 -1.7019  1.2335  0.0049
16293SOL     OW53334   3.040   5.666   2.574  0.0743  0.2390  0.0055
16293SOL    HW153335   3.107   5.722   2.613  1.2938 -0.9802 -0.2717
16293SOL    HW253336   2.963   5.722   2.567  0.7872  1.4156  1.1635
16294SOL     OW53337   6.549  10.657   0.846 -0.5784  0.1972 -0.2543
16294SOL    HW153338   6.545  10.747   0.812 -0.4405  0.1137 -0.4997
16294SOL    HW253339   6.458  10.631   0.857 -0.6458  0.0456 -1.0662
16295SOL     OW53340   6.838   8.290   8.199 -0.2410  0.1121 -0.9146
16295SOL    HW153341   6.874   8.236   8.129 -0.8580  0.5506 -1.5850
16295SOL    HW253342   6.768   8.237   8.237 -0.5028  0.2228 -1.2329
16296SOL     OW53343   7.781   2.438   0.868  0.2570 -0.1780  0.1790
16296SOL    HW153344   7.858   2.452   0.813 -0.0640  0.4337 -0.1363
16296SOL    HW253345   7.743   2.526   0.878  0.2768 -0.2861  1.3438
16297SOL     OW53346   3.955   4.696   6.258  0.4349  0.0497 -0.2572
16297SOL    HW153347   3.984   4.734   6.341 -0.6694  0.3258  0.0162
16297SOL    HW253348   3.939   4.771   6.202  1.1015 -0.1365 -0.7075
16298SOL     OW53349   1.252   6.267   9.722  0.0453  0.1761  0.8655
16298SOL    HW153350   1.248   6.331   9.793  0.0972 -1.5744  2.5429
16298SOL    HW253351   1.300   6.193   9.760  0.0586 -0.8425 -1.0156
16299SOL     OW53352   4.225  10.349   9.508  0.2311  0.1922 -0.0718
16299SOL    HW153353   4.241  10.443   9.494 -1.2789  0.3786 -0.7320
16299SOL    HW253354   4.299  10.306   9.464 -0.0693  1.0309 -1.4920
16300SOL     OW53355   8.581   6.625   0.458  0.2368 -0.5017  0.3025
16300SOL    HW153356   8.529   6.634   0.378 -2.0142 -2.7488  1.3531
16300SOL    HW253357   8.599   6.714   0.486  0.4016  0.3326 -2.2434
16301SOL     OW53358   3.513   6.030   3.318  0.2028  0.3211 -0.0251
16301SOL    HW153359   3.472   5.971   3.381 -1.4031  1.1392 -0.2564
16301SOL    HW253360   3.596   5.987   3.295  0.3909 -0.4425  1.9108
16302SOL     OW53361   1.851   2.184   8.208  0.2434  0.2893  0.3465
16302SOL    HW153362   1.787   2.200   8.139  1.0048  1.0501 -0.1980
16302SOL    HW253363   1.864   2.090   8.207  1.2782  0.4036 -1.5165
16303SOL     OW53364   4.743   0.523   8.555 -0.3571  0.3628 -0.2377
16303SOL    HW153365   4.680   0.534   8.484 -0.9344  0.9674  0.3513
16303SOL    HW253366   4.778   0.611   8.569 -0.0301  0.1921  0.0322
16304SOL     OW53367   0.988   6.653   5.628  0.6699  0.1086 -0.5896
16304SOL    HW153368   0.913   6.604   5.595 -1.9392  3.1224  0.3580
16304SOL    HW253369   0.994   6.628   5.721  1.1209 -0.3924 -0.7456
16305SOL     OW53370   7.629   9.957   9.632  0.3573  0.2480 -0.0509
16305SOL    HW153371   7.588   9.993   9.554 -0.6855 -0.2644  0.2475
16305SOL    HW253372   7.702   9.904   9.598  2.3500  3.0538 -0.4633
16306SOL     OW53373   7.014   8.488   2.740 -0.0864 -0.3286  0.1932
16306SOL    HW153374   7.071   8.422   2.701  0.5082  0.1096  0.3038
16306SOL    HW253375   7.002   8.459   2.830 -0.8074 -0.9144 -0.0804
16307SOL     OW53376   5.224   2.225   1.752  0.4579 -0.1594  0.6107
16307SOL    HW153377   5.300   2.276   1.782  0.7947  0.5495 -1.2661
16307SOL    HW253378   5.208   2.257   1.663 -1.1796 -1.3007  0.4504
16308SOL     OW53379   0.643   2.850   4.902 -0.5448  0.0263  0.0211
16308SOL    HW153380   0.704   2.840   4.975 -0.8199  0.8866  0.3809
16308SOL    HW253381   0.642   2.944   4.884 -0.2498 -0.2050 -1.3005
16309SOL     OW53382   8.577   2.823  11.015 -0.0319 -0.2242 -0.3712
16309SOL    HW153383   8.572   2.911  10.976 -2.5901 -0.4103 -0.6068
16309SOL    HW253384   8.595   2.766  10.941 -1.6476 -0.2135 -0.8123
16310SOL     OW53385   2.450   7.072   7.736 -0.2997  0.1427  0.1861
16310SOL    HW153386   2.543   7.049   7.742 -0.7199 -1.5115  0.9378
16310SOL    HW253387   2.445   7.160   7.772  0.7594 -0.3848  1.7419
16311SOL     OW53388  10.589   3.350   3.681  0.2998 -1.1334 -0.1867
16311SOL    HW153389  10.601   3.367   3.774 -0.3683  0.9568 -0.4215
16311SOL    HW253390  10.640   3.419   3.638 -2.0394  0.0214 -1.2928
16312SOL     OW53391   2.595   5.305   3.940 -0.0912  0.2238 -0.3470
16312SOL    HW153392   2.655   5.266   3.876 -2.1132 -2.6306 -0.6845
16312SOL    HW253393   2.639   5.294   4.024  0.8109  0.2288 -0.8011
16313SOL     OW53394   2.499   7.746   1.758 -0.1023  0.1694  0.5427
16313SOL    HW153395   2.405   7.749   1.742 -0.0919  0.5760  0.5450
16313SOL    HW253396   2.508   7.755   1.853 -0.1850 -2.6469  0.9017
16314SOL     OW53397   7.370   8.483   3.432  0.5271  0.0763 -0.2004
16314SOL    HW153398   7.416   8.548   3.380 -0.3908 -0.0896 -1.2525
16314SOL    HW253399   7.287   8.525   3.455  0.8250  0.0669  0.9720
16315SOL     OW53400   2.228   3.723   4.120 -0.7508  0.0426 -0.3898
16315SOL    HW153401   2.229   3.772   4.202  0.9005  0.7436 -0.7824
16315SOL    HW253402   2.200   3.635   4.145 -5.1625  1.3495  0.1441
16316SOL     OW53403   5.561   5.369   7.120  0.4330  0.5296 -0.1296
16316SOL    HW153404   5.532   5.385   7.210 -1.5745 -0.8082 -0.4750
16316SOL    HW253405   5.506   5.297   7.090  2.1700 -0.1461 -1.9066
16317SOL     OW53406   4.464   8.742   8.609 -0.2215 -0.0496  0.1344
16317SOL    HW153407   4.545   8.746   8.557 -0.1270 -0.1269  0.2763
16317SOL    HW253408   4.469   8.659   8.656 -1.1550 -0.8436 -1.1070
16318SOL     OW53409   2.739   9.469   5.785  0.4848  0.0814  0.4424
16318SOL    HW153410   2.795   9.446   5.859 -0.9737  0.2890  1.6742
16318SOL    HW253411   2.732   9.565   5.789 -0.7335 -0.0098  0.9393
16319SOL     OW53412   4.394  10.143   8.869 -0.2076 -0.0958  0.1007
16319SOL    HW153413   4.428  10.137   8.780  1.7907 -1.0738  0.8724
16319SOL    HW253414   4.380  10.236   8.883  1.3905  0.2819 -0.5691
16320SOL     OW53415   9.794   3.339   8.474 -0.3779  0.4411  0.2157
16320SOL    HW153416   9.762   3.260   8.430 -1.0108  0.0738  1.2867
16320SOL    HW253417   9.746   3.410   8.433  0.2849  0.3056 -0.8443
16321SOL     OW53418   5.953   6.589  10.946  0.1557 -0.4703  0.0363
16321SOL    HW153419   6.048   6.589  10.932  0.3904  3.3815  0.5578
16321SOL    HW253420   5.916   6.601  10.859  0.0441 -2.4295 -0.2282
16322SOL     OW53421   0.278   4.737  10.196  0.1350  0.1959  0.3265
16322SOL    HW153422   0.286   4.824  10.157 -0.7305  0.2677  0.2913
16322SOL    HW253423   0.349   4.687  10.158 -0.1440  0.5249 -0.6429
16323SOL     OW53424  10.334  10.001   6.041 -0.0731  0.7237  0.4777
16323SOL    HW153425  10.410  10.050   6.008 -0.7628  0.4949 -1.6244
16323SOL    HW253426  10.260  10.059   6.026 -0.5879  0.0326  0.2940
16324SOL     OW53427   5.524   4.989   7.426  0.3991  0.3121  0.2478
16324SOL    HW153428   5.612   4.954   7.420  0.3160 -0.0517  1.0214
16324SOL    HW253429   5.480   4.958   7.346  0.9641  0.5126 -0.1473
16325SOL     OW53430   8.060   6.679   0.471  0.4294 -0.4736 -0.7656
16325SOL    HW153431   8.048   6.617   0.542 -0.8346 -0.4801 -0.9583
16325SOL    HW253432   8.147   6.661   0.437  0.8362 -0.8343  0.4188
16326SOL     OW53433   8.644   4.299   9.326  0.0541  0.3485 -0.3460
16326SOL    HW153434   8.698   4.369   9.289  1.6050  0.7225  2.3472
16326SOL    HW253435   8.707   4.231   9.350 -0.7458  0.2912  1.8245
16327SOL     OW53436   8.978   9.691   1.454  0.2939 -0.0622  0.0422
16327SOL    HW153437   8.917   9.628   1.417  0.5151 -0.4254  0.2944
16327SOL    HW253438   9.055   9.686   1.398  1.2928 -1.8030  1.4415
16328SOL     OW53439   4.859   6.115   1.623 -0.0693 -0.5278 -0.5809
16328SOL    HW153440   4.815   6.032   1.604 -1.0516 -0.4311  1.0957
16328SOL    HW253441   4.837   6.134   1.714 -0.4785  1.9522 -1.1210
16329SOL     OW53442   8.949   7.048   4.763  0.0652  0.3685 -0.3014
16329SOL    HW153443   8.919   7.134   4.791  0.0814 -0.1711  1.4380
16329SOL    HW253444   8.869   6.998   4.748 -0.0016  1.0584 -2.7672
16330SOL     OW53445   8.488   3.314   0.585  0.2595 -0.4959  0.5586
16330SOL    HW153446   8.492   3.226   0.549 -2.1728 -0.5813  0.3781
16330SOL    HW253447   8.546   3.366   0.528 -0.8661 -1.3167 -1.4182
16331SOL     OW53448   7.931   1.677   6.006 -0.0966 -0.1859  0.3688
16331SOL    HW153449   7.875   1.618   6.056  0.2506 -0.4732  0.4174
16331SOL    HW253450   7.992   1.713   6.071  0.2726 -0.4630  0.1764
16332SOL     OW53451   9.931   3.908   9.705  0.6388  0.5763  0.0880
16332SOL    HW153452   9.851   3.858   9.691 -0.1232  2.4133 -2.6603
16332SOL    HW253453   9.929   3.932   9.798 -2.3511  1.1417 -0.0518
16333SOL     OW53454   6.885   7.840   0.234 -0.8021 -0.1436  0.3426
16333SOL    HW153455   6.829   7.858   0.309  0.0614  1.5561  0.6445
16333SOL    HW253456   6.914   7.750   0.246 -3.1350 -0.9453  0.3589
16334SOL     OW53457   5.861   7.528  10.000 -0.0773  0.0018 -0.3299
16334SOL    HW153458   5.786   7.511   9.943 -0.0216  0.7847 -0.6507
16334SOL    HW253459   5.823   7.545  10.086 -0.2337 -0.0818 -0.3821
16335SOL     OW53460   3.012  10.703   3.688  0.3222 -0.1160 -0.4292
16335SOL    HW153461   2.919  10.684   3.687  0.3911 -0.4359 -0.6049
16335SOL    HW253462   3.022  10.766   3.760 -0.1341  0.4746 -0.8741
16336SOL     OW53463  11.064   9.301   0.796 -0.1533 -0.1230 -0.5943
16336SOL    HW153464  11.049   9.274   0.887 -0.1696  1.4380 -0.1010
16336SOL    HW253465  11.059   9.220   0.746  0.0461 -1.0470  0.8213
16337SOL     OW53466   8.252   1.310   4.060  0.4379 -0.1909 -0.2337
16337SOL    HW153467   8.299   1.228   4.075 -0.5863 -0.4217  2.1078
16337SOL    HW253468   8.274   1.334   3.969  0.9525 -2.9000 -0.9111
16338SOL     OW53469   8.234   8.787   7.361 -0.0055 -0.1027  0.1167
16338SOL    HW153470   8.278   8.816   7.281  1.1029  0.3195  0.8648
16338SOL    HW253471   8.284   8.826   7.432 -0.4066 -1.2416  1.0588
16339SOL     OW53472   8.195  11.046  10.356  0.0124 -0.4365  0.0959
16339SOL    HW153473   8.210  11.078  10.267 -0.0610 -2.5895 -0.7325
16339SOL    HW253474   8.269  10.989  10.374  1.1821  1.6397  2.3104
16340SOL     OW53475   1.455   4.495   3.270 -0.3658  0.1412  0.0076
16340SOL    HW153476   1.454   4.588   3.248  0.0747 -0.1554 -1.3792
16340SOL    HW253477   1.433   4.492   3.363  1.4403  1.7562  0.5595
16341SOL     OW53478   9.970  10.600   4.741 -0.0633 -0.0623  0.3584
16341SOL    HW153479  10.010  10.560   4.818  0.4654  1.3741  0.8569
16341SOL    HW253480   9.973  10.694   4.758 -0.7264  0.2380 -1.0346
16342SOL     OW53481   6.833   7.975   3.517  0.1195  0.5845 -0.4022
16342SOL    HW153482   6.921   7.981   3.481 -0.4568  0.0911 -1.9787
16342SOL    HW253483   6.840   7.914   3.590  0.8152 -0.6995 -1.4937
16343SOL     OW53484   1.714   7.052   4.951 -0.2579 -0.4625  0.1322
16343SOL    HW153485   1.677   7.091   4.872  0.8624  1.2562  0.4153
16343SOL    HW253486   1.802   7.088   4.957 -0.2185 -0.7634  2.0218
16344SOL     OW53487   6.691   7.971   1.297  0.1217  0.0917 -0.1803
16344SOL    HW153488   6.597   7.951   1.305  0.1881 -1.0312 -1.7014
16344SOL    HW253489   6.700   8.008   1.209  0.7351  2.8608  0.9479
16345SOL     OW53490   5.870   6.775   3.841 -0.2374  0.2002 -0.2323
16345SOL    HW153491   5.802   6.722   3.799 -0.6680 -0.1963  0.8987
16345SOL    HW253492   5.885   6.848   3.781 -0.8443 -0.3215 -1.0350
16346SOL     OW53493   0.193   1.822  10.784  0.0265  0.5371 -0.3416
16346SOL    HW153494   0.284   1.797  10.801 -0.3323  0.5678  1.9005
16346SOL    HW253495   0.200   1.912  10.752  0.6989  1.4737  2.2242
16347SOL     OW53496   0.661  10.908   5.287 -0.1966  0.3591  0.1531
16347SOL    HW153497   0.743  10.861   5.273 -0.0257  0.9292 -0.9776
16347SOL    HW253498   0.678  10.964   5.363 -0.4697 -1.4731  1.6277
16348SOL     OW53499   3.282   9.413   4.538 -0.3660 -0.4920 -0.2579
16348SOL    HW153500   3.218   9.415   4.467  1.0233 -1.2216 -1.6118
16348SOL    HW253501   3.345   9.346   4.510  0.4678 -0.4605  1.4670
16349SOL     OW53502   2.242  10.111   6.917 -0.0505  0.0575 -0.3022
16349SOL    HW153503   2.230  10.201   6.886 -0.8808  0.4383  1.0456
16349SOL    HW253504   2.153  10.076   6.924  0.2796 -1.0489 -1.2263
16350SOL     OW53505   2.474  10.851   8.168 -0.0487  0.1232  0.2452
16350SOL    HW153506   2.542  10.805   8.117 -1.1548 -0.2836 -0.9202
16350SOL    HW253507   2.521  10.888   8.243  1.1099 -1.9081  0.5949
16351SOL     OW53508   9.176   4.429   2.612 -0.8738 -0.1733  0.4220
16351SOL    HW153509   9.221   4.501   2.568  1.7756 -1.3435  1.0218
16351SOL    HW253510   9.085   4.459   2.622 -0.3012  2.2648 -1.0045
16352SOL     OW53511   6.624  10.824   1.961  0.7004 -0.2314 -0.6011
16352SOL    HW153512   6.638  10.792   2.050 -0.2371  2.5897  0.6812
16352SOL    HW253513   6.686  10.897   1.952 -0.8889  1.0919 -1.2949
16353SOL     OW53514  10.733   8.353   5.315 -0.2516 -0.0509  0.5895
16353SOL    HW153515  10.705   8.276   5.265 -0.2208  0.4796 -0.2578
16353SOL    HW253516  10.707   8.334   5.405 -0.7599 -0.8046  0.2888
16354SOL     OW53517   9.809   1.441   6.774  0.2390 -0.3196 -0.2034
16354SOL    HW153518   9.754   1.487   6.710  1.4924  1.4344 -0.1007
16354SOL    HW253519   9.750   1.418   6.845 -0.4409  1.3060 -0.1994
16355SOL     OW53520   4.514   7.620   5.665  0.1539 -0.1875  0.4630
16355SOL    HW153521   4.504   7.680   5.591  3.3085  0.1427  0.1550
16355SOL    HW253522   4.499   7.533   5.628 -0.0554  0.1011 -0.1358
16356SOL     OW53523   9.554   1.088   0.164  0.0435  0.4209  0.3550
16356SOL    HW153524   9.631   1.046   0.204  1.9121  3.5540  0.3616
16356SOL    HW253525   9.508   1.016   0.121  2.5731 -1.7516  0.9599
16357SOL     OW53526   4.851   1.303   1.031  0.0626 -0.2067 -0.7682
16357SOL    HW153527   4.910   1.372   1.064  1.2658 -1.9549  0.9390
16357SOL    HW253528   4.765   1.328   1.063 -0.0801  1.9300 -2.5452
16358SOL     OW53529   4.371   2.242   2.597 -0.7506 -0.2692 -0.2168
16358SOL    HW153530   4.395   2.328   2.563  1.4301 -1.4542 -2.0095
16358SOL    HW253531   4.282   2.227   2.565 -1.1309  1.2454  0.0497
16359SOL     OW53532   8.553   5.837   7.052  0.5116  0.1808 -0.3443
16359SOL    HW153533   8.552   5.796   7.138  1.6033 -2.3510 -1.4214
16359SOL    HW253534   8.467   5.816   7.015 -0.0579  1.4943  0.1753
16360SOL     OW53535   0.524   5.726   1.762 -0.0190  0.3256  0.6580
16360SOL    HW153536   0.499   5.802   1.710  0.3254 -0.9090 -1.4015
16360SOL    HW253537   0.609   5.748   1.798  0.4243  0.6449 -0.5441
16361SOL     OW53538   0.252  10.760  11.069 -0.0650 -0.2332  0.5800
16361SOL    HW153539   0.247  10.805  11.153 -0.2888  1.4402 -0.2854
16361SOL    HW253540   0.184  10.801  11.016  1.2290  0.0056 -0.9727
16362SOL     OW53541   4.719   8.318   4.115 -0.0478  0.2957 -0.2697
16362SOL    HW153542   4.763   8.293   4.034  0.5414 -1.0289  0.4294
16362SOL    HW253543   4.723   8.414   4.116  1.5901  0.2681 -0.9022
16363SOL     OW53544   8.050  10.762   4.319 -0.0020 -0.2049  0.2214
16363SOL    HW153545   8.005  10.693   4.270  1.0133 -0.4157 -0.4578
16363SOL    HW253546   8.084  10.717   4.397 -0.1393 -0.2685  0.2449
16364SOL     OW53547   9.081   1.306   6.852 -0.5188  0.5156  0.5801
16364SOL    HW153548   9.083   1.212   6.833  0.7809  0.5751  0.2877
16364SOL    HW253549   9.121   1.314   6.938  0.9544  0.9156 -0.1006
16365SOL     OW53550   8.203   5.477  10.800 -0.3653 -0.0613 -0.1188
16365SOL    HW153551   8.259   5.518  10.866 -0.5774 -1.9545  1.3346
16365SOL    HW253552   8.187   5.389  10.834 -2.9959 -0.0956 -1.2077
16366SOL     OW53553   3.910   0.577   9.336 -0.1098  0.0229 -1.1128
16366SOL    HW153554   3.951   0.558   9.252  4.2323 -2.1820  1.1338
16366SOL    HW253555   3.978   0.621   9.387 -1.8058 -0.4751  1.8431
16367SOL     OW53556   1.123   3.509   0.322 -0.0282  0.6567  0.0552
16367SOL    HW153557   1.079   3.463   0.394 -0.7375  0.4463 -0.4962
16367SOL    HW253558   1.056   3.515   0.253  0.9427 -0.1099 -0.9963
16368SOL     OW53559   7.574   5.860   8.205  0.2956  0.3752 -0.2535
16368SOL    HW153560   7.585   5.822   8.118 -1.3030 -1.1667  0.1531
16368SOL    HW253561   7.512   5.932   8.191 -0.2946 -0.1436 -0.3351
16369SOL     OW53562   6.634   1.971   8.181 -0.4953 -0.5111 -0.5372
16369SOL    HW153563   6.560   2.020   8.145 -0.1462 -0.9146 -1.8532
16369SOL    HW253564   6.708   2.032   8.176 -0.3991 -0.6413 -0.7060
16370SOL     OW53565   3.259   3.973   9.450  0.6714 -0.0615  0.3748
16370SOL    HW153566   3.323   3.903   9.442 -0.3318 -1.0731  0.9131
16370SOL    HW253567   3.197   3.942   9.516 -0.7757  0.5614 -0.6279
16371SOL     OW53568   0.951   4.516   1.487  0.2511  0.2590 -0.3568
16371SOL    HW153569   0.891   4.446   1.512  1.4909 -0.6979  0.0071
16371SOL    HW253570   1.013   4.522   1.560  0.5713  1.2678 -0.6977
16372SOL     OW53571   5.669   7.503   4.269 -0.2816 -0.1239  0.2432
16372SOL    HW153572   5.585   7.497   4.316  0.7294 -0.5775  2.1106
16372SOL    HW253573   5.712   7.579   4.307 -0.9818  1.9952 -2.8194
16373SOL     OW53574   6.736   5.441   8.027 -0.0422 -0.3433 -1.2914
16373SOL    HW153575   6.662   5.380   8.020 -1.7062  1.6913 -2.8509
16373SOL    HW253576   6.695   5.525   8.048  2.1017  0.4388  0.0788
16374SOL     OW53577   6.171   9.784   3.604  0.2009  0.2163 -0.0497
16374SOL    HW153578   6.244   9.836   3.570 -0.6476  0.7347 -1.1267
16374SOL    HW253579   6.210   9.698   3.622  1.2022  0.6497 -0.0618
16375SOL     OW53580  10.619   1.406   0.412 -0.1211  0.2187  0.3296
16375SOL    HW153581  10.676   1.472   0.451  0.0863  0.3376 -0.1772
16375SOL    HW253582  10.675   1.329   0.403  0.1894  0.5798 -0.9118
16376SOL     OW53583   1.026   9.601   1.048 -0.4073 -0.0008 -0.3743
16376SOL    HW153584   0.941   9.644   1.043  0.3669  1.5945 -0.5042
16376SOL    HW253585   1.014   9.519   0.999 -0.9250  1.8841 -3.7657
16377SOL     OW53586   4.965   9.026   4.659 -0.4614  0.1395 -0.1665
16377SOL    HW153587   4.976   9.066   4.746  0.7268  1.3890 -0.8458
16377SOL    HW253588   4.870   9.025   4.646 -0.5996  1.7288  0.3785
16378SOL     OW53589   5.111  10.360   1.276 -0.0058 -0.2081  0.2482
16378SOL    HW153590   5.119  10.344   1.182 -2.9589  1.5545 -0.4447
16378SOL    HW253591   5.185  10.419   1.297 -0.2919  0.8027 -1.3970
16379SOL     OW53592   2.654   4.721   6.123  0.1701  0.7034 -0.0535
16379SOL    HW153593   2.619   4.662   6.190 -0.4755  0.1466 -0.8669
16379SOL    HW253594   2.689   4.663   6.056  0.3167  1.2536 -0.4541
16380SOL     OW53595   8.883   4.141   5.014 -0.0644 -0.0734  0.2657
16380SOL    HW153596   8.969   4.109   5.043  0.7374  0.8741 -0.9728
16380SOL    HW253597   8.888   4.236   5.024 -0.6248  0.0686 -0.6764
16381SOL     OW53598   9.488   7.142   1.561 -0.0116 -0.2128 -0.1813
16381SOL    HW153599   9.566   7.087   1.550  0.4917  0.1665  1.3178
16381SOL    HW253600   9.505   7.191   1.641 -1.2814  0.7581 -0.4860
16382SOL     OW53601   6.424  10.576   7.836 -0.1335  0.3218 -0.0013
16382SOL    HW153602   6.408  10.543   7.748 -2.3038  0.3767  0.3034
16382SOL    HW253603   6.391  10.666   7.834  0.2028  0.4698  0.7377
16383SOL     OW53604   1.541   4.436   3.958  0.4266 -0.7115 -0.5381
16383SOL    HW153605   1.623   4.463   3.998 -0.5919  2.0284 -0.0276
16383SOL    HW253606   1.521   4.351   3.996  2.6849 -1.1371 -0.2125
16384SOL     OW53607   3.206   4.857   7.259 -0.0838 -0.0578  0.4454
16384SOL    HW153608   3.154   4.839   7.182 -0.9503  1.2498  0.6972
16384SOL    HW253609   3.295   4.833   7.234 -0.1283  1.4595 -1.3930
16385SOL     OW53610   1.603   0.383   9.041  0.2627  0.7767 -0.5361
16385SOL    HW153611   1.671   0.316   9.034 -0.3482  0.0177  0.5138
16385SOL    HW253612   1.522   0.333   9.055 -0.7060  1.5964 -2.6838
16386SOL     OW53613   0.782  11.047   1.112  0.6276 -0.2227  0.0595
16386SOL    HW153614   0.820  11.025   1.197  2.1117  0.1023 -0.4831
16386SOL    HW253615   0.736  11.130   1.126  1.4379  0.1746  0.3997
16387SOL     OW53616   4.011   8.051   2.043  0.0791  0.3020  0.4118
16387SOL    HW153617   3.969   8.136   2.025 -1.6975 -0.2673  1.5775
16387SOL    HW253618   3.962   7.989   1.989  0.9224 -0.0831  0.0861
16388SOL     OW53619   9.167   5.157   2.487 -0.0435 -0.1522 -0.1391
16388SOL    HW153620   9.202   5.200   2.410  3.2868  0.0247  1.3259
16388SOL    HW253621   9.122   5.227   2.535  3.0880  1.3230  0.9314
16389SOL     OW53622  10.070   1.330   5.815 -0.0432  0.2350 -0.1430
16389SOL    HW153623  10.109   1.276   5.747 -0.5900  0.0309 -0.3006
16389SOL    HW253624  10.144   1.365   5.864  0.3171 -1.0642  0.2836
16390SOL     OW53625   9.616   2.539   9.293  0.7977 -0.0669  0.0955
16390SOL    HW153626   9.538   2.496   9.329  0.4866 -1.0398 -1.6432
16390SOL    HW253627   9.688   2.481   9.319  0.3675 -1.8520 -2.3501
16391SOL     OW53628  10.058   8.534   5.362  0.1758 -1.0361  0.1620
16391SOL    HW153629  10.106   8.485   5.428  2.1161  0.6120  0.0822
16391SOL    HW253630  10.118   8.604   5.336 -2.3870  1.3789  0.2888
16392SOL     OW53631   2.528   1.365   8.025  0.8089 -0.3037  0.0407
16392SOL    HW153632   2.437   1.343   8.005  0.2302 -0.0999  2.2084
16392SOL    HW253633   2.549   1.437   7.965 -0.6641  0.0473 -0.0914
16393SOL     OW53634   3.993   0.970   3.444  0.0582  0.6649  0.3847
16393SOL    HW153635   4.045   0.898   3.406 -1.0388  0.6283 -1.1427
16393SOL    HW253636   4.045   1.048   3.426 -0.3339  0.6253 -1.1211
16394SOL     OW53637   0.754   6.702   5.064 -0.3853  0.1503  0.3267
16394SOL    HW153638   0.829   6.758   5.081 -0.9165  0.8356  0.4169
16394SOL    HW253639   0.769   6.670   4.974  0.5629 -0.6052  0.7238
16395SOL     OW53640   4.905   6.319   7.742 -0.2478  0.1168  0.4118
16395SOL    HW153641   4.911   6.289   7.833 -0.5620  1.8341  1.0324
16395SOL    HW253642   4.976   6.273   7.697  0.2863 -0.3156  1.6437
16396SOL     OW53643   3.277  11.024   8.996  0.0867  0.5286 -0.1490
16396SOL    HW153644   3.331  11.046   9.072  3.0951  0.7813 -2.1781
16396SOL    HW253645   3.279  11.103   8.942 -1.0338 -0.0203 -1.0224
16397SOL     OW53646   5.616   8.535   1.735 -0.1489  0.3929 -0.5750
16397SOL    HW153647   5.603   8.440   1.743  1.1350  0.3560  1.7290
16397SOL    HW253648   5.609   8.551   1.641 -1.7119 -1.7624 -0.9249
16398SOL     OW53649   5.636   1.391   1.114  0.3131  0.2319 -0.0422
16398SOL    HW153650   5.574   1.455   1.077  0.0595  0.6841  1.1140
16398SOL    HW253651   5.678   1.352   1.038  0.0045  1.3217 -0.8064
16399SOL     OW53652   8.692   7.604  10.384  0.2136 -0.3573 -0.3822
16399SOL    HW153653   8.649   7.629  10.465  0.9337 -2.2629  0.6530
16399SOL    HW253654   8.624   7.562  10.332 -0.0603  0.1287 -0.4187
16400SOL     OW53655   8.526   8.940   8.490  0.2346  0.5050 -0.6384
16400SOL    HW153656   8.493   8.858   8.454  1.0179  0.2766 -0.8502
16400SOL    HW253657   8.527   9.000   8.416  1.3506  0.1833 -0.9078
16401SOL     OW53658   4.661   7.872   3.282 -0.3905 -0.1025  0.3225
16401SOL    HW153659   4.723   7.804   3.257 -1.7494 -0.8121 -1.3431
16401SOL    HW253660   4.692   7.951   3.237 -0.9427 -0.5844 -0.9577
16402SOL     OW53661   2.659   7.038   9.077 -0.2612  0.0411 -0.2332
16402SOL    HW153662   2.723   7.066   9.143  1.0198 -2.0609 -0.4910
16402SOL    HW253663   2.600   7.112   9.068  1.0323  1.3513  1.4133
16403SOL     OW53664   7.955   6.731   1.026  0.1777  0.0861 -0.8815
16403SOL    HW153665   7.999   6.659   1.071  0.5403  0.3785 -0.7689
16403SOL    HW253666   7.877   6.748   1.078  0.7451  0.6202 -0.1953
16404SOL     OW53667   5.429   0.550   1.570  0.3208 -0.2129 -0.1748
16404SOL    HW153668   5.380   0.521   1.492  0.7001  0.0896 -0.5277
16404SOL    HW253669   5.364   0.548   1.640 -0.0223 -0.5165 -0.4898
16405SOL     OW53670   2.082   4.819  10.200  0.7060 -0.5949  0.1818
16405SOL    HW153671   2.033   4.841  10.121  0.3800  0.7619  0.7381
16405SOL    HW253672   2.163   4.781  10.167 -0.2702 -1.9524 -0.7643
16406SOL     OW53673   8.908  10.947  10.987  0.1884  0.2866  0.3800
16406SOL    HW153674   8.831  10.890  10.986 -0.1253  0.6857  1.3524
16406SOL    HW253675   8.922  10.969  10.895 -0.1615 -0.7212  0.0751
16407SOL     OW53676   1.873   7.616   7.934 -0.4602 -0.4127 -0.0211
16407SOL    HW153677   1.811   7.626   7.861  1.4932  0.7833 -1.6092
16407SOL    HW253678   1.957   7.601   7.892  0.9210  1.2588  1.9556
16408SOL     OW53679   1.771  10.521   5.372 -0.3902  0.2535 -0.1720
16408SOL    HW153680   1.676  10.525   5.378 -0.3372  3.5600  0.0572
16408SOL    HW253681   1.799  10.502   5.462 -0.8299  1.5766  0.2736
16409SOL     OW53682   6.209   7.335   2.766  0.2164 -0.5107  0.6384
16409SOL    HW153683   6.114   7.342   2.755  0.2466  1.3722  1.3035
16409SOL    HW253684   6.221   7.320   2.860  0.6324  2.0034  1.0511
16410SOL     OW53685   5.643   8.955   2.735  0.1388  0.4026 -0.1104
16410SOL    HW153686   5.581   8.970   2.663 -0.1566  0.9360  0.2467
16410SOL    HW253687   5.589   8.949   2.813  0.4626 -0.1513  0.0792
16411SOL     OW53688   5.992   9.424   6.416 -0.0650  0.1905  0.3447
16411SOL    HW153689   6.063   9.361   6.403  0.7583  0.6752  2.2184
16411SOL    HW253690   6.011   9.466   6.500 -3.3627 -0.7333  1.7370
16412SOL     OW53691   5.242   1.875   4.372 -0.5524 -0.2292  0.0955
16412SOL    HW153692   5.168   1.924   4.408  1.3429  1.9228  1.3205
16412SOL    HW253693   5.240   1.894   4.278 -1.5928 -0.2986  0.0921
16413SOL     OW53694  10.163   7.085   2.008 -0.1556 -0.1220 -0.4570
16413SOL    HW153695  10.127   7.172   1.990  0.1269  0.2831  0.8319
16413SOL    HW253696  10.150   7.073   2.102  1.0552 -0.8956 -0.3648
16414SOL     OW53697   6.096   6.005  10.139  0.2296 -0.1842 -0.7069
16414SOL    HW153698   6.007   6.040  10.131  0.2768  0.0705 -0.1391
16414SOL    HW253699   6.139   6.061  10.203  0.5059 -0.8782 -0.2693
16415SOL     OW53700   1.109   1.210   2.889  0.4008  0.4216  0.4677
16415SOL    HW153701   1.096   1.221   2.795  3.0057 -1.5533 -0.2410
16415SOL    HW253702   1.083   1.119   2.906 -2.1381  1.3375  2.2029
16416SOL     OW53703   4.311   0.199   7.837  0.5216  0.8172  0.7238
16416SOL    HW153704   4.238   0.156   7.883  1.2981 -1.1923  0.1959
16416SOL    HW253705   4.388   0.180   7.891  1.1949 -0.2550 -0.5386
16417SOL     OW53706   4.768   1.772   8.814 -0.2452  0.2249 -0.5533
16417SOL    HW153707   4.852   1.771   8.860  1.1950  3.4432 -2.7376
16417SOL    HW253708   4.707   1.814   8.875 -0.0828 -1.1786  0.6420
16418SOL     OW53709   3.699   0.702   3.632  0.5738 -0.0437  0.1405
16418SOL    HW153710   3.705   0.779   3.575 -0.2670 -0.4778 -0.5769
16418SOL    HW253711   3.704   0.737   3.721 -0.8331  0.9743 -0.1432
16419SOL     OW53712   7.825   6.622   6.671  0.0900  0.1443 -0.3250
16419SOL    HW153713   7.788   6.538   6.641  0.9884 -0.0524 -0.9162
16419SOL    HW253714   7.909   6.599   6.709 -0.2920  0.6194  0.8336
16420SOL     OW53715   7.809   5.642   0.421  0.0122  0.5609  0.0400
16420SOL    HW153716   7.867   5.568   0.404 -0.7662  0.1176 -0.7318
16420SOL    HW253717   7.765   5.620   0.503 -0.1268  0.2318 -0.1240
16421SOL     OW53718   9.171   5.384   5.092  0.1154 -0.6995 -0.2840
16421SOL    HW153719   9.114   5.449   5.051  0.2697 -0.4041 -0.0399
16421SOL    HW253720   9.116   5.307   5.104  0.4210 -1.2868 -2.3069
16422SOL     OW53721   7.321   7.425   7.218 -0.3476  0.4267  0.4585
16422SOL    HW153722   7.328   7.330   7.232 -3.7628  0.2466  1.7517
16422SOL    HW253723   7.305   7.433   7.124 -0.3591 -0.3158  0.3860
16423SOL     OW53724   4.553   8.026   8.728 -0.6091  0.1662  0.0616
16423SOL    HW153725   4.574   8.041   8.820 -1.1638 -2.5280  0.7119
16423SOL    HW253726   4.510   8.107   8.700 -0.1289  1.1756  2.0518
16424SOL     OW53727   4.910  10.310   6.644  0.4329 -0.9120 -0.8783
16424SOL    HW153728   4.966  10.313   6.566  0.7068 -1.3967 -0.7065
16424SOL    HW253729   4.840  10.372   6.625  2.6837  2.2273  0.2053
16425SOL     OW53730  10.755   0.714   6.542  0.3537 -0.1928  0.6098
16425SOL    HW153731  10.668   0.750   6.524  0.1451 -1.5770 -1.4161
16425SOL    HW253732  10.740   0.646   6.608  0.2998  1.1223  2.0278
16426SOL     OW53733   6.681   7.921   2.745 -0.8289 -0.3127  0.2112
16426SOL    HW153734   6.757   7.963   2.784 -0.6559  1.0627 -1.4819
16426SOL    HW253735   6.710   7.833   2.723  0.2011  0.0976 -0.1249
16427SOL     OW53736   6.929   5.262   9.758  0.1768 -0.0635  0.0038
16427SOL    HW153737   6.883   5.180   9.772  0.8374 -0.7134 -1.3729
16427SOL    HW253738   6.910   5.315   9.835  0.4065 -1.8108  1.3101
16428SOL     OW53739  10.462   8.892   5.817 -0.0712 -0.7092 -0.4400
16428SOL    HW153740  10.378   8.937   5.825 -0.6480 -1.9359  0.6689
16428SOL    HW253741  10.525   8.951   5.857 -0.9811 -1.2880  2.0042
16429SOL     OW53742   8.758   5.839   4.527 -0.5056  0.1871  0.2492
16429SOL    HW153743   8.772   5.931   4.549 -2.9040  1.4161 -2.6310
16429SOL    HW253744   8.838   5.813   4.482  1.1369  0.0354  3.0271
16430SOL     OW53745  10.280   1.878  10.119 -0.3477  0.4144  0.0109
16430SOL    HW153746  10.259   1.803  10.175  0.6724  0.7797  0.9328
16430SOL    HW253747  10.196   1.912  10.091 -0.8347 -0.9374 -0.2339
16431SOL     OW53748   3.882   8.836   2.784 -0.0328 -0.1840  0.6021
16431SOL    HW153749   3.968   8.811   2.751 -0.7078 -0.7646 -0.8271
16431SOL    HW253750   3.830   8.755   2.780 -1.8174  0.9152 -2.6211
16432SOL     OW53751   7.203   3.082   1.141 -0.5260  0.7914  0.5248
16432SOL    HW153752   7.166   3.086   1.053  0.4922  0.7691  0.0724
16432SOL    HW253753   7.129   3.063   1.198 -0.9133 -1.1774 -0.5461
16433SOL     OW53754   3.192   3.728   0.384 -0.1368 -0.1862 -0.1004
16433SOL    HW153755   3.194   3.640   0.422  0.3470 -0.1180  0.0392
16433SOL    HW253756   3.166   3.714   0.293  0.2069 -0.5032 -0.1517
16434SOL     OW53757  10.512   8.899   5.160  0.1420  0.3672  0.4588
16434SOL    HW153758  10.475   8.937   5.080  0.9613 -0.9737 -0.6007
16434SOL    HW253759  10.588   8.954   5.179 -0.0665  0.7006  0.3351
16435SOL     OW53760   7.689   4.230   5.017 -0.1093  0.1715  0.1736
16435SOL    HW153761   7.636   4.272   5.085 -1.6953  0.9964 -1.4852
16435SOL    HW253762   7.680   4.287   4.941  3.4754  0.5279 -0.1525
16436SOL     OW53763   8.853   1.021   4.818 -0.1276  0.1753  0.0273
16436SOL    HW153764   8.790   1.090   4.840  1.0145  0.9984  0.8421
16436SOL    HW253765   8.802   0.940   4.817 -0.8428  0.4768  2.9620
16437SOL     OW53766   2.208   8.475   8.934  0.0822 -0.2868  0.5208
16437SOL    HW153767   2.292   8.522   8.930 -0.8212  1.3412 -1.2905
16437SOL    HW253768   2.175   8.491   9.022  0.1293  2.0263  0.1861
16438SOL     OW53769   0.897   4.386   6.307 -0.0219 -0.1200 -0.0974
16438SOL    HW153770   0.983   4.350   6.283 -0.0980  0.0266 -0.5997
16438SOL    HW253771   0.835   4.321   6.275 -0.0762 -0.6377  1.0050
16439SOL     OW53772   9.289   7.962   6.509  0.0990  0.1079  0.1688
16439SOL    HW153773   9.314   7.902   6.579  1.4111 -0.6044 -0.8555
16439SOL    HW253774   9.320   8.048   6.538  1.0467 -0.2586  0.2679
16440SOL     OW53775  10.262   0.048   6.025 -0.1692 -0.1834  0.0605
16440SOL    HW153776  10.299  -0.009   6.093  0.6673  0.0960 -0.1500
16440SOL    HW253777  10.245   0.131   6.071 -1.1234 -0.4972  0.3000
16441SOL     OW53778   3.800   8.299   2.578 -0.0102 -0.3868 -0.0543
16441SOL    HW153779   3.892   8.279   2.563 -0.1308 -1.2312  0.3092
16441SOL    HW253780   3.779   8.256   2.660 -0.4554  0.6983  0.4167
16442SOL     OW53781   6.120   8.287   2.007  0.3634  0.5697  0.7896
16442SOL    HW153782   6.037   8.302   1.962  0.7255  1.8806  0.5248
16442SOL    HW253783   6.109   8.202   2.050 -0.4449 -0.1486 -0.7515
16443SOL     OW53784   2.804   4.866   0.474  0.6370  0.1013  0.3546
16443SOL    HW153785   2.878   4.862   0.535  0.5490 -1.3652  0.3949
16443SOL    HW253786   2.727   4.865   0.531  0.4761 -3.6731  0.2829
16444SOL     OW53787  11.062   4.510   2.786 -0.4221  0.6714  0.2475
16444SOL    HW153788  11.072   4.523   2.881  0.4133  0.7945  0.1517
16444SOL    HW253789  11.150   4.487   2.756 -1.3489 -3.6372  0.1664
16445SOL     OW53790   5.673   4.874   1.046  0.1328 -0.5701 -0.6836
16445SOL    HW153791   5.598   4.923   1.079  1.1921  0.5409  0.2031
16445SOL    HW253792   5.666   4.879   0.951  0.1461  1.2651 -0.6240
16446SOL     OW53793   7.368   4.078  10.150  0.6284 -0.1049 -0.0629
16446SOL    HW153794   7.329   4.087  10.063  1.3579 -1.5967 -0.5794
16446SOL    HW253795   7.324   4.002  10.188  1.4829 -0.4789  0.2010
16447SOL     OW53796   2.353   1.388  10.253 -0.1522 -0.3758 -0.3565
16447SOL    HW153797   2.310   1.459  10.302 -1.2373 -1.4984  0.3824
16447SOL    HW253798   2.324   1.401  10.163 -0.0935  0.3066 -0.2816
16448SOL     OW53799   5.362   0.791   5.573 -0.0532 -0.3479  0.3351
16448SOL    HW153800   5.289   0.835   5.529  0.6181  0.0641 -0.4066
16448SOL    HW253801   5.430   0.783   5.505  0.3166 -1.3976  0.8032
16449SOL     OW53802   7.868   6.430   7.913  0.2604 -0.0135  0.1023
16449SOL    HW153803   7.862   6.354   7.971 -0.3141  0.8835  1.2346
16449SOL    HW253804   7.782   6.437   7.873  0.8904 -1.1320 -1.5552
16450SOL     OW53805   3.034   9.476   9.466 -0.2516 -0.0311  0.2295
16450SOL    HW153806   3.119   9.452   9.502 -0.2447 -0.6802 -0.2068
16450SOL    HW253807   3.047   9.565   9.432 -0.0534  0.2949  1.1225
16451SOL     OW53808   8.455   9.661   1.833  0.7643  0.0902  0.0220
16451SOL    HW153809   8.415   9.581   1.867  0.4448  0.4907  0.6079
16451SOL    HW253810   8.507   9.632   1.758 -0.0210 -0.5509 -0.2874
16452SOL     OW53811   2.499   4.998   2.127  0.2670 -0.0441 -0.4777
16452SOL    HW153812   2.485   4.966   2.216 -0.3502 -2.2524 -1.2859
16452SOL    HW253813   2.486   5.093   2.133  1.0308 -0.0208  1.8952
16453SOL     OW53814   7.200   1.616  10.225  0.3717 -0.2319  0.0964
16453SOL    HW153815   7.157   1.655  10.149 -1.0319 -1.6786  0.0985
16453SOL    HW253816   7.160   1.529  10.234  1.9392 -0.8933  1.2897
16454SOL     OW53817   6.947   2.562   6.322 -0.0353 -0.6084 -0.0656
16454SOL    HW153818   6.944   2.649   6.361 -2.7432 -0.1355 -1.0821
16454SOL    HW253819   7.039   2.549   6.300  0.4581  2.0475  0.0252
16455SOL     OW53820   2.275   6.985   5.073 -0.4618 -0.0015 -0.3883
16455SOL    HW153821   2.291   6.990   4.979 -0.5928  1.2879 -0.3648
16455SOL    HW253822   2.229   6.902   5.085 -2.2088  0.6957 -1.7519
16456SOL     OW53823   7.079   4.837   9.163  0.3446  0.3195  0.9092
16456SOL    HW153824   7.020   4.904   9.198 -0.2094 -0.0229  0.6390
16456SOL    HW253825   7.102   4.869   9.076 -0.5011 -0.1853  0.4883
16457SOL     OW53826   8.956   3.474   8.666 -0.1919 -0.0871  0.4921
16457SOL    HW153827   9.036   3.511   8.702  1.0555 -0.0452 -2.0670
16457SOL    HW253828   8.968   3.380   8.672 -0.2449 -0.0827  0.6811
16458SOL     OW53829  10.809   3.017   7.549 -0.0969 -0.5551 -0.0785
16458SOL    HW153830  10.830   3.016   7.456 -1.3587 -0.6458 -0.3816
16458SOL    HW253831  10.785   2.926   7.569  1.0239 -0.7305  0.5581
16459SOL     OW53832  10.049  10.962   0.395 -0.2050  0.3570  0.4351
16459SOL    HW153833  10.120  10.922   0.345 -1.4329  1.1296 -2.1456
16459SOL    HW253834   9.995  10.889   0.424  1.1375 -0.1792  1.6615
16460SOL     OW53835   3.032   7.009   2.100 -0.2178 -0.5639  0.5196
16460SOL    HW153836   3.104   7.040   2.155 -0.2564  2.1151 -0.7814
16460SOL    HW253837   2.989   7.089   2.069 -2.0832 -2.0289 -0.9292
16461SOL     OW53838   9.119   5.913   9.103  0.0720  0.1603  0.4320
16461SOL    HW153839   9.118   5.842   9.168  1.4998 -0.6285 -0.3541
16461SOL    HW253840   9.164   5.985   9.148  0.7207 -0.2533  0.4688
16462SOL     OW53841   6.357   9.979   9.594  0.1123 -0.2900 -0.4682
16462SOL    HW153842   6.413   9.933   9.532  0.5654 -0.7899  0.2923
16462SOL    HW253843   6.318  10.051   9.544  1.2645 -0.0637 -1.0574
16463SOL     OW53844   9.880   8.191   6.096  0.2475  0.1796  0.0489
16463SOL    HW153845   9.926   8.107   6.095 -0.8444 -0.4419 -0.6955
16463SOL    HW253846   9.861   8.207   6.188 -0.9276 -1.2166  0.0924
16464SOL     OW53847   2.757   5.345   0.931  0.1336  0.2567  0.6774
16464SOL    HW153848   2.754   5.417   0.993  1.9368  0.7480  0.2576
16464SOL    HW253849   2.709   5.377   0.854 -0.2737  0.4561  1.0105
16465SOL     OW53850   8.471  10.960  10.089 -0.6484  0.2193  0.7207
16465SOL    HW153851   8.501  10.977  10.000 -1.6331  2.6172  0.7907
16465SOL    HW253852   8.421  10.878  10.082 -2.4981  1.4273 -1.3964
16466SOL     OW53853   3.340   3.093   3.709  0.1670  0.0166  1.0971
16466SOL    HW153854   3.257   3.060   3.743  0.2126  0.9792  2.2148
16466SOL    HW253855   3.366   3.161   3.771  0.3907  1.7138 -0.7363
16467SOL     OW53856   7.801   6.934   5.009  0.2378  0.1896  0.1075
16467SOL    HW153857   7.782   6.844   4.983  2.6064 -0.2949 -0.1936
16467SOL    HW253858   7.722   6.983   4.984 -0.9557 -1.7068 -0.0584
16468SOL     OW53859   3.322   5.008   6.385  0.1740  0.3372  0.2523
16468SOL    HW153860   3.266   4.930   6.380 -0.2621  0.7432 -2.0927
16468SOL    HW253861   3.398   4.987   6.331  0.7904  0.9939  0.8358
16469SOL     OW53862   8.332   6.331   4.440 -0.1288 -0.0793 -0.5561
16469SOL    HW153863   8.419   6.339   4.401  1.5427 -2.8478  2.1471
16469SOL    HW253864   8.348   6.330   4.534 -3.4576  1.8660  0.1822
16470SOL     OW53865   1.856   2.176   6.657 -0.7322 -0.7991  0.6258
16470SOL    HW153866   1.919   2.107   6.637  1.2136  0.5095  1.8810
16470SOL    HW253867   1.906   2.257   6.647 -2.7052  0.4083  0.0519
16471SOL     OW53868   7.847   9.162   2.925 -0.3213  0.2587  0.5466
16471SOL    HW153869   7.785   9.228   2.893 -1.4455 -1.8398 -1.9508
16471SOL    HW253870   7.927   9.177   2.873 -0.3843 -0.0003  0.3752
16472SOL     OW53871  10.376   3.709  10.317 -0.3423  0.6307 -0.0621
16472SOL    HW153872  10.441   3.671  10.376  0.5730 -0.0820 -1.4651
16472SOL    HW253873  10.348   3.790  10.361 -0.4517 -0.3607  1.7847
16473SOL     OW53874   1.169   2.272   2.775  0.2428  0.1728  0.1886
16473SOL    HW153875   1.138   2.255   2.686 -0.8881 -1.9732  0.9377
16473SOL    HW253876   1.162   2.367   2.784 -0.2263  0.3806 -1.7915
16474SOL     OW53877   5.846   2.049   7.383 -0.0108  0.0297  0.4106
16474SOL    HW153878   5.911   2.077   7.447 -1.0064 -0.4092  1.6705
16474SOL    HW253879   5.764   2.088   7.414 -0.6267 -0.7090 -0.2392
16475SOL     OW53880   0.373   4.839   5.152  0.3629 -0.6389 -0.2415
16475SOL    HW153881   0.425   4.915   5.125  2.1762 -1.7870 -0.1262
16475SOL    HW253882   0.335   4.806   5.070 -0.3911  0.3172 -0.3024
16476SOL     OW53883  10.960   5.176   7.733 -0.0906 -0.3640 -0.0584
16476SOL    HW153884  10.933   5.179   7.641 -0.4606 -0.6341  0.0398
16476SOL    HW253885  10.938   5.263   7.767  0.3667 -0.1424 -0.3089
16477SOL     OW53886   9.148   7.656   8.157  1.1989 -0.1619  0.2163
16477SOL    HW153887   9.185   7.739   8.186  0.9451 -0.1571  0.5303
16477SOL    HW253888   9.059   7.655   8.193  0.4112  0.4193 -1.6182
16478SOL     OW53889   8.286   0.813   3.386  0.4254 -0.6369  0.1777
16478SOL    HW153890   8.312   0.872   3.457  1.9664 -0.6219 -0.3655
16478SOL    HW253891   8.281   0.869   3.308 -1.2518 -0.6519  0.2351
16479SOL     OW53892   7.168   5.538   1.698 -0.2502  0.2309 -0.2898
16479SOL    HW153893   7.219   5.556   1.777  0.5734 -2.8384  0.0065
16479SOL    HW253894   7.199   5.603   1.634  1.1929  0.9116  1.0461
16480SOL     OW53895   8.506   4.838  10.583 -0.0439 -0.3769  0.1558
16480SOL    HW153896   8.512   4.922  10.538  3.0412  0.0862  1.2164
16480SOL    HW253897   8.490   4.774  10.513  2.2004  0.5910 -1.3251
16481SOL     OW53898   2.551   0.534   0.072 -0.3969  0.0504 -0.3776
16481SOL    HW153899   2.462   0.532   0.035 -0.3836 -1.7286 -0.4336
16481SOL    HW253900   2.547   0.600   0.141 -1.3652  1.0078 -1.3198
16482SOL     OW53901   9.687   2.860   8.313 -0.1175 -0.3904  0.3543
16482SOL    HW153902   9.747   2.848   8.388 -0.1797  1.1423  0.6711
16482SOL    HW253903   9.711   2.789   8.253  1.6750 -0.1336  0.6998
16483SOL     OW53904   6.164   5.001   6.328 -0.3264 -0.2771 -0.4251
16483SOL    HW153905   6.163   4.990   6.423 -1.4071  0.3049 -0.3632
16483SOL    HW253906   6.227   4.935   6.298  1.2076  0.5428  0.7980
16484SOL     OW53907   8.618   3.151   5.936 -0.6371  0.8121  0.0483
16484SOL    HW153908   8.669   3.093   5.993 -1.1283  0.3463  0.0166
16484SOL    HW253909   8.680   3.220   5.912  0.9524 -1.2492 -2.3663
16485SOL     OW53910   0.876   6.512   9.929  0.0193  0.5091  0.1134
16485SOL    HW153911   0.908   6.602   9.931 -0.0812  0.5399  0.9940
16485SOL    HW253912   0.813   6.510   9.858 -0.9310  1.4823  0.9040
16486SOL     OW53913  10.971   0.143  10.030  0.2404  0.4826 -0.5973
16486SOL    HW153914  10.970   0.230  10.068 -1.8866 -0.3986  1.6414
16486SOL    HW253915  10.907   0.146   9.959 -0.3956  0.5760 -0.0274
16487SOL     OW53916   2.603   5.982   1.267 -0.0523 -0.0228  0.2506
16487SOL    HW153917   2.622   6.060   1.216  1.2156 -0.5226 -0.0904
16487SOL    HW253918   2.596   6.013   1.358  2.7994  0.2370  0.4701
16488SOL     OW53919   1.506   9.927   9.460  0.0814 -0.4658  0.1521
16488SOL    HW153920   1.524  10.009   9.414  0.3771 -0.8855 -0.4988
16488SOL    HW253921   1.477   9.954   9.547 -1.0415  0.3613 -0.4505
16489SOL     OW53922   7.200   7.942   2.122 -0.0600 -0.2498 -0.1954
16489SOL    HW153923   7.141   8.015   2.104 -0.2930 -0.2569  0.5125
16489SOL    HW253924   7.278   7.961   2.070 -0.1285  0.4949 -0.0421
16490SOL     OW53925   6.696   7.300   8.225  0.1629  0.0017  0.6502
16490SOL    HW153926   6.612   7.289   8.181  0.9172 -0.8999 -0.6488
16490SOL    HW253927   6.689   7.245   8.304 -0.4636 -0.0589  0.5588
16491SOL     OW53928  10.360   9.194   6.527  0.3353 -0.0278  0.3281
16491SOL    HW153929  10.447   9.179   6.565  0.2138  0.4114  0.7966
16491SOL    HW253930  10.299   9.160   6.593  0.1622 -1.2793 -0.4465
16492SOL     OW53931   1.352   9.757   9.295 -0.2968  0.2720 -0.2156
16492SOL    HW153932   1.265   9.769   9.333  0.0574 -0.8895  1.0324
16492SOL    HW253933   1.407   9.820   9.342 -0.6347  1.7845 -1.7646
16493SOL     OW53934   0.875   9.660   2.517  0.2703 -0.0040  0.0371
16493SOL    HW153935   0.858   9.733   2.577  1.2953 -0.5244  0.9997
16493SOL    HW253936   0.790   9.642   2.476 -0.3414  0.6998  0.9534
16494SOL     OW53937   3.576   6.513   4.279  0.2701  0.2773 -0.1191
16494SOL    HW153938   3.640   6.579   4.304  1.3308 -0.7553 -0.0271
16494SOL    HW253939   3.537   6.547   4.199  1.7469  0.4172 -0.8138
16495SOL     OW53940  10.879   1.866   5.921 -0.2394 -0.2088 -0.1878
16495SOL    HW153941  10.843   1.944   5.879  0.1384  0.7813  1.2500
16495SOL    HW253942  10.923   1.818   5.850 -1.7015  0.1166 -1.3730
16496SOL     OW53943   6.126   4.570   6.025  0.1035 -0.0380 -0.1534
16496SOL    HW153944   6.170   4.567   6.111 -0.8781  0.7112  0.3960
16496SOL    HW253945   6.108   4.663   6.011 -0.0766 -0.2015 -1.0083
16497SOL     OW53946  11.069   5.479   1.156 -0.2623  0.0976  0.2797
16497SOL    HW153947  11.062   5.406   1.216  3.2790 -1.4521 -0.9158
16497SOL    HW253948  11.038   5.445   1.072  0.0542  0.4154  0.0251
16498SOL     OW53949   2.359   2.430   2.494  0.4993  0.8396 -0.5256
16498SOL    HW153950   2.297   2.392   2.431  1.0390 -2.4687  0.7244
16498SOL    HW253951   2.316   2.508   2.527 -1.3514  0.6745 -2.3757
16499SOL     OW53952   4.365   1.908   4.635 -0.6320 -0.1252 -0.2759
16499SOL    HW153953   4.444   1.926   4.584 -0.6959  1.3384  0.0936
16499SOL    HW253954   4.345   1.816   4.617  0.4543 -0.1784 -1.3327
16500SOL     OW53955   9.084   9.633   7.036 -0.1706 -0.1820  0.2399
16500SOL    HW153956   9.157   9.621   7.098 -0.4192 -1.0927  0.3616
16500SOL    HW253957   9.006   9.632   7.091 -0.4644 -1.9394 -0.1632
16501SOL     OW53958   2.320   5.765  10.578 -0.4707  0.7852 -0.0677
16501SOL    HW153959   2.351   5.806  10.497 -0.3115  0.8264  0.0135
16501SOL    HW253960   2.295   5.677  10.552  1.5095  0.0933  0.2234
16502SOL     OW53961  10.546   5.732   9.587  0.1131 -0.3202 -0.5136
16502SOL    HW153962  10.565   5.641   9.564  2.7149  0.3023 -1.1328
16502SOL    HW253963  10.531   5.730   9.682 -0.1101 -1.4213 -0.5578
16503SOL     OW53964   2.039   9.622   5.849  0.2691  0.1539  0.5768
16503SOL    HW153965   2.023   9.630   5.943  0.9565 -1.5084  0.8675
16503SOL    HW253966   2.069   9.532   5.837  0.0360  0.2837 -1.2682
16504SOL     OW53967   9.375   6.343   0.913 -0.6853 -0.0672 -0.3092
16504SOL    HW153968   9.387   6.436   0.897 -0.1979 -0.2194 -0.8489
16504SOL    HW253969   9.393   6.332   1.007 -0.0255  0.2657 -0.3919
16505SOL     OW53970   0.756   7.622   4.403 -0.0176  0.0670  0.3335
16505SOL    HW153971   0.740   7.596   4.493  0.6786  0.1266  0.4808
16505SOL    HW253972   0.747   7.717   4.403 -0.5533  0.0150  0.2271
16506SOL     OW53973  10.561   4.348   4.368 -0.1944 -0.1095 -0.1081
16506SOL    HW153974  10.507   4.414   4.413  0.5690 -0.9972  2.2941
16506SOL    HW253975  10.514   4.265   4.383  0.1527 -0.4539 -0.8796
16507SOL     OW53976   3.537   4.686  10.313  0.7507 -0.5593 -0.0158
16507SOL    HW153977   3.554   4.715  10.223 -1.3465 -0.8723 -0.5841
16507SOL    HW253978   3.623   4.670  10.350  1.7282  0.6381 -1.6102
16508SOL     OW53979   1.497   2.394   9.548 -0.0382 -0.1145 -0.0777
16508SOL    HW153980   1.528   2.336   9.478  1.1261  0.8791 -0.4295
16508SOL    HW253981   1.555   2.374   9.622 -0.2498 -0.0770  0.0970
16509SOL     OW53982   0.007   7.587   0.035 -0.2071  0.1833  0.4009
16509SOL    HW153983   0.005   7.671   0.081 -1.8038 -0.5387  1.7668
16509SOL    HW253984  -0.085   7.561   0.030  0.1431 -0.8821 -1.1788
16510SOL     OW53985   1.984   2.697   9.034 -0.4626  0.2775 -0.3578
16510SOL    HW153986   2.048   2.749   8.986 -2.2764  2.4644 -0.5896
16510SOL    HW253987   2.034   2.658   9.106  1.3104  1.0601 -1.1148
16511SOL     OW53988   8.996   4.805   3.087  0.2960  0.0442 -0.2422
16511SOL    HW153989   8.925   4.803   3.152 -0.4091  0.6052 -0.9824
16511SOL    HW253990   9.007   4.898   3.066  2.7136  0.2354  1.4024
16512SOL     OW53991   8.984   8.950   8.795  0.2693 -0.3300 -0.4320
16512SOL    HW153992   8.892   8.959   8.770 -0.2441  0.3051  1.4627
16512SOL    HW253993   9.003   8.857   8.784 -0.9657 -0.6844  0.1797
16513SOL     OW53994   7.674   2.007   2.732  0.0283  0.2160  0.8529
16513SOL    HW153995   7.676   2.001   2.828  5.5042  0.5596  1.0960
16513SOL    HW253996   7.632   2.091   2.715 -0.6725  0.3625  2.9889
16514SOL     OW53997   7.007   6.681   1.934 -0.2709 -0.1073 -0.7714
16514SOL    HW153998   7.034   6.635   1.854  0.6301  1.2043 -1.2568
16514SOL    HW253999   7.022   6.773   1.915  0.1034  0.2262  0.9819
16515SOL     OW54000   3.436   6.244   5.383 -0.6210 -0.3015  0.3720
16515SOL    HW154001   3.364   6.229   5.322 -0.8156  0.5949  0.3587
16515SOL    HW254002   3.507   6.277   5.329 -0.5685 -0.1499  0.5298
16516SOL     OW54003   4.516   9.949   0.952 -0.4640 -0.3672 -0.1895
16516SOL    HW154004   4.552  10.033   0.921 -1.2006 -0.2172 -0.6652
16516SOL    HW254005   4.455   9.922   0.883  1.0416 -2.1759 -0.8729
16517SOL     OW54006   3.547   3.713   8.997 -0.5157 -0.4338 -0.0988
16517SOL    HW154007   3.499   3.635   9.023 -1.1011  0.2325  0.9009
16517SOL    HW254008   3.525   3.725   8.904  0.5473 -2.1057 -0.6019
16518SOL     OW54009   3.179   6.847  10.174 -0.9893 -0.1022 -0.2921
16518SOL    HW154010   3.158   6.827  10.265 -1.1307  0.4518 -0.1994
16518SOL    HW254011   3.267   6.812  10.161 -0.9931 -0.2318  0.0403
16519SOL     OW54012  10.627   6.633   1.539  0.2134  0.1916  0.0305
16519SOL    HW154013  10.548   6.621   1.593  0.8940 -1.6195  0.7032
16519SOL    HW254014  10.696   6.589   1.588  1.1688 -0.2586 -1.6370
16520SOL     OW54015   0.835   8.380   2.610 -0.1233  0.6890 -0.5060
16520SOL    HW154016   0.923   8.346   2.594 -0.4438 -0.4544  0.0925
16520SOL    HW254017   0.789   8.367   2.527 -0.9755 -2.7261  0.3520
16521SOL     OW54018   6.540   1.722   9.104 -0.1743 -0.2068 -0.1345
16521SOL    HW154019   6.634   1.742   9.101 -0.3999  1.8050  2.4468
16521SOL    HW254020   6.531   1.662   9.178 -1.1206  1.6640  1.3553
16522SOL     OW54021  11.066   5.467   0.785 -0.7150  0.7035 -0.3368
16522SOL    HW154022  11.077   5.390   0.841 -0.1741  0.8770 -0.1879
16522SOL    HW254023  11.146   5.469   0.732 -0.0636  1.9165  0.6225
16523SOL     OW54024   7.600   9.881   0.350  0.4874 -0.8007  0.3034
16523SOL    HW154025   7.682   9.923   0.373  1.4580 -1.7862 -1.2232
16523SOL    HW254026   7.621   9.788   0.345 -0.6207 -1.0282 -0.4973
16524SOL     OW54027   7.280  10.409   9.798 -0.2065 -0.1482 -0.2944
16524SOL    HW154028   7.275  10.418   9.702 -0.0602 -1.7200 -0.4793
16524SOL    HW254029   7.373  10.393   9.816 -0.3144 -0.4256  0.0368
16525SOL     OW54030   7.667  10.913   0.745 -0.0254  0.2578 -0.0467
16525SOL    HW154031   7.707  10.862   0.815  1.5660  0.8940 -0.4529
16525SOL    HW254032   7.606  10.972   0.790 -0.2813 -0.5102  0.6289
16526SOL     OW54033   8.030   7.411   7.879 -0.5762  0.2551  0.0016
16526SOL    HW154034   8.123   7.388   7.879 -0.0260  2.2608 -1.1181
16526SOL    HW254035   8.025   7.489   7.933 -1.4455  0.7259 -0.7340
16527SOL     OW54036   5.653   6.446   3.520 -0.2263  0.5161 -0.0481
16527SOL    HW154037   5.654   6.350   3.515  1.2033  0.4989  0.0990
16527SOL    HW254038   5.622   6.473   3.433 -0.8054 -0.0793 -0.0351
16528SOL     OW54039   4.235   8.441   3.984  0.1470 -0.0367  0.4981
16528SOL    HW154040   4.302   8.375   3.969 -0.6686 -0.9006  0.5469
16528SOL    HW254041   4.159   8.391   4.014 -0.8613  0.8043 -0.5796
16529SOL     OW54042   4.008   2.645   7.553 -0.2408  0.2124  0.0534
16529SOL    HW154043   3.988   2.575   7.492 -0.8915  0.3041  0.1559
16529SOL    HW254044   4.086   2.688   7.517 -1.7691  1.5664 -1.8304
16530SOL     OW54045   1.143   1.019   0.059 -0.2180 -0.3220 -0.1633
16530SOL    HW154046   1.120   1.112   0.062  2.1164  0.3621 -1.0907
16530SOL    HW254047   1.060   0.974   0.047 -1.4866  1.5882  0.9069
16531SOL     OW54048   0.232   1.464   6.383 -0.6881  0.0280 -0.6627
16531SOL    HW154049   0.279   1.411   6.318  3.5228  0.3788  1.6873
16531SOL    HW254050   0.241   1.554   6.351 -1.0356 -0.0295 -0.9221
16532SOL     OW54051   5.852   1.375   4.842  0.1527  0.0797 -0.4126
16532SOL    HW154052   5.811   1.459   4.819  0.8603  0.1469 -1.4771
16532SOL    HW254053   5.946   1.392   4.835  0.3039 -0.7987 -0.5940
16533SOL     OW54054   7.157   2.917  10.486  0.0525 -0.1180  0.6224
16533SOL    HW154055   7.246   2.942  10.511 -0.7150  1.4651  1.9649
16533SOL    HW254056   7.111   3.000  10.475 -1.6105 -0.8926  1.3552
16534SOL     OW54057  10.975   6.571   1.154  0.1872  0.3452  0.6728
16534SOL    HW154058  10.937   6.648   1.112 -0.6753 -0.7436 -0.6636
16534SOL    HW254059  11.020   6.605   1.231  1.8639  2.4611 -1.1151
16535SOL     OW54060   5.138  10.616   1.494 -0.0132 -0.4355  0.6119
16535SOL    HW154061   5.062  10.559   1.491 -0.2151 -0.1263 -1.8778
16535SOL    HW254062   5.198  10.573   1.556 -1.3991 -1.6827  1.1306
16536SOL     OW54063   2.540   5.385   9.451 -0.0732 -0.1024  0.5288
16536SOL    HW154064   2.448   5.398   9.428  0.0435 -0.4572 -0.1595
16536SOL    HW254065   2.583   5.467   9.427  0.1323 -0.6306 -1.0184
16537SOL     OW54066   7.723  10.065  10.766 -0.2363 -0.0047 -0.2662
16537SOL    HW154067   7.735  10.073  10.861 -0.8873 -1.0068 -0.0854
16537SOL    HW254068   7.795  10.116  10.728 -1.0657  2.0073  0.7554
16538SOL     OW54069   2.029   3.530  10.612 -0.0889 -0.0617 -0.3887
16538SOL    HW154070   2.106   3.581  10.590 -0.2809 -0.9405 -3.5112
16538SOL    HW254071   1.975   3.589  10.665  2.2804  0.8321  1.2083
16539SOL     OW54072   1.126   7.115   1.392  0.3151  0.2255 -0.0573
16539SOL    HW154073   1.064   7.078   1.454  0.1176  1.2424  0.3744
16539SOL    HW254074   1.081   7.111   1.307  0.7113 -1.4631 -0.2223
16540SOL     OW54075   7.457   2.238   7.653 -0.2952 -0.1482  0.1838
16540SOL    HW154076   7.469   2.198   7.567 -1.3133  0.2016 -0.1285
16540SOL    HW254077   7.368   2.274   7.651  0.3358  1.5298  0.7092
16541SOL     OW54078   4.471   4.703   7.674  0.2456 -0.6700 -0.0791
16541SOL    HW154079   4.421   4.769   7.720 -1.5766 -1.1860 -1.1992
16541SOL    HW254080   4.450   4.621   7.719  3.8266 -0.4617  2.4194
16542SOL     OW54081   1.352   2.612   1.022  0.1929  0.0927  0.0331
16542SOL    HW154082   1.315   2.684   1.073 -1.0331 -0.5344  0.0721
16542SOL    HW254083   1.281   2.548   1.017  1.4049 -1.3257  0.4053
16543SOL     OW54084   6.891   1.399   4.460  0.1535  0.0320 -0.2321
16543SOL    HW154085   6.835   1.349   4.401  0.7933 -1.1343  0.1172
16543SOL    HW254086   6.836   1.415   4.537  0.3309 -1.2502  0.1812
16544SOL     OW54087   5.558   7.012   4.183 -0.2005  0.0930 -0.8977
16544SOL    HW154088   5.627   6.953   4.154 -0.1842 -0.3329 -0.0412
16544SOL    HW254089   5.602   7.075   4.240 -0.3078  0.6298 -1.3938
16545SOL     OW54090   7.809   6.688   3.035  0.1127 -0.6528  0.1063
16545SOL    HW154091   7.790   6.774   3.071  0.3726 -0.8241  0.6580
16545SOL    HW254092   7.731   6.665   2.985 -0.3357 -0.5062  0.7287
16546SOL     OW54093   7.003   8.943   4.334 -0.4487 -0.1168 -0.2643
16546SOL    HW154094   7.019   8.914   4.424 -0.0409 -0.4745 -0.4522
16546SOL    HW254095   6.916   8.908   4.313 -0.8632  0.5729  0.2339
16547SOL     OW54096   8.423   3.753   8.241  0.2737 -0.1088  0.5148
16547SOL    HW154097   8.365   3.719   8.173  1.6171 -0.8892 -0.2913
16547SOL    HW254098   8.443   3.677   8.296 -1.8591  0.7698  2.6519
16548SOL     OW54099   1.537  10.578   9.409  0.3727  0.3814  0.6983
16548SOL    HW154100   1.489  10.590   9.491 -0.5942  0.3968  0.1446
16548SOL    HW254101   1.529  10.484   9.390 -1.8993  0.8244 -0.8396
16549SOL     OW54102   0.159   4.418   8.943  0.1171 -0.7334  0.2271
16549SOL    HW154103   0.236   4.469   8.918  0.0081  0.7538  2.5561
16549SOL    HW254104   0.113   4.401   8.861  1.3011  1.0913 -0.8858
16550SOL     OW54105   8.573   5.162   7.673  0.4611  0.2304 -0.0161
16550SOL    HW154106   8.533   5.104   7.609 -0.0373 -2.2118  2.3131
16550SOL    HW254107   8.504   5.179   7.738  1.7532  0.0042  1.4920
16551SOL     OW54108   9.056   8.178   4.404 -0.0729 -0.3837 -0.5496
16551SOL    HW154109   9.141   8.200   4.366  0.2334 -0.2289  0.2150
16551SOL    HW254110   9.069   8.185   4.499 -0.3236 -2.5836 -0.3137
16552SOL     OW54111   8.121   5.008  10.626 -0.4249  0.4359 -0.1617
16552SOL    HW154112   8.079   4.925  10.649  1.5723 -0.5871 -0.0249
16552SOL    HW254113   8.063   5.074  10.663 -0.9454 -0.9575  1.7038
16553SOL     OW54114   9.131   1.633   5.979 -0.3126 -0.3818  0.7124
16553SOL    HW154115   9.145   1.706   6.039 -0.1929  0.4425 -0.2910
16553SOL    HW254116   9.142   1.555   6.034 -1.4200  0.3291  2.0235
16554SOL     OW54117   0.792   8.244   6.665  0.7296 -0.1355 -0.2577
16554SOL    HW154118   0.770   8.152   6.652  0.2685  0.0257 -0.6454
16554SOL    HW254119   0.806   8.279   6.577 -3.9023  1.3411 -0.7143
16555SOL     OW54120   6.709  10.492   6.948 -0.0903 -0.5685 -0.0238
16555SOL    HW154121   6.676  10.573   6.986 -0.5534 -0.7686  0.0123
16555SOL    HW254122   6.782  10.519   6.893  1.5800 -0.4520  2.1717
16556SOL     OW54123   0.148   0.801   4.185 -0.0809 -0.5661  0.1099
16556SOL    HW154124   0.218   0.773   4.127 -1.6452 -0.8475 -1.7377
16556SOL    HW254125   0.115   0.720   4.223 -0.1787 -0.5534  0.0518
16557SOL     OW54126   8.132   5.860   5.376  0.0510  0.3119 -0.8646
16557SOL    HW154127   8.143   5.808   5.456 -1.4157 -1.2674 -1.6217
16557SOL    HW254128   8.101   5.945   5.407  0.6297  0.1177  0.2982
16558SOL     OW54129   2.332   6.904   1.232  0.1831 -0.0820 -0.4267
16558SOL    HW154130   2.285   6.941   1.307  1.6747 -1.2586  1.1797
16558SOL    HW254131   2.286   6.822   1.214  1.1549 -0.9151  0.7255
16559SOL     OW54132   0.592   1.211   6.927  0.2248 -0.3034 -0.0343
16559SOL    HW154133   0.551   1.289   6.965  0.0730 -0.9652  1.2068
16559SOL    HW254134   0.595   1.229   6.833 -0.6685  0.7979  0.1271
16560SOL     OW54135   8.803  10.414   4.319 -0.0926 -0.0311  0.4170
16560SOL    HW154136   8.865  10.362   4.268 -0.6871 -0.2470 -0.0967
16560SOL    HW254137   8.748  10.456   4.253 -0.0316  0.7377  0.8436
16561SOL     OW54138   0.077   9.560   4.969 -0.0569 -0.2937  0.4762
16561SOL    HW154139   0.132   9.518   5.035  1.3482 -0.5056 -0.7914
16561SOL    HW254140   0.045   9.640   5.012  3.3235  1.2193  0.5085
16562SOL     OW54141  10.978   8.122   2.828  0.3301  0.4508  0.2375
16562SOL    HW154142  10.891   8.149   2.798  0.7123  1.6262  0.1322
16562SOL    HW254143  11.038   8.162   2.765  0.9613 -0.0067  0.5481
16563SOL     OW54144   3.115   1.975   7.838 -0.1850 -0.4890 -0.0965
16563SOL    HW154145   3.193   1.925   7.814 -0.1613  0.0616 -1.2601
16563SOL    HW254146   3.044   1.931   7.790 -0.5225 -0.7356  0.6246
16564SOL     OW54147   1.039   6.991   7.117 -0.3397 -0.0130  0.3723
16564SOL    HW154148   1.113   7.013   7.173 -0.2074  0.2728  0.0847
16564SOL    HW254149   1.024   7.069   7.064  0.7938 -0.9243 -1.3841
16565SOL     OW54150   9.759  10.325   2.132  0.8526  0.1418  0.7823
16565SOL    HW154151   9.719  10.411   2.121  0.3121 -0.3124 -1.1148
16565SOL    HW254152   9.697  10.264   2.092  2.7900 -0.7213 -1.0674
16566SOL     OW54153   6.136   1.456   3.272 -0.7164 -0.3802 -0.2331
16566SOL    HW154154   6.123   1.537   3.321 -2.5224 -1.6753  1.5741
16566SOL    HW254155   6.223   1.426   3.298 -0.2841  0.6506 -0.4547
16567SOL     OW54156   8.748   1.670   7.577 -0.2051  0.1824 -0.3520
16567SOL    HW154157   8.842   1.689   7.575 -0.1591  0.2384  1.1688
16567SOL    HW254158   8.720   1.674   7.485  0.7781  2.6530 -0.6123
16568SOL     OW54159   3.404   7.321   1.510 -0.4110 -0.2954 -0.2771
16568SOL    HW154160   3.439   7.410   1.516  0.4843 -0.6001 -0.9136
16568SOL    HW254161   3.386   7.297   1.601  0.7008  0.0110  0.0436
16569SOL     OW54162   1.271   6.834   3.909 -0.0798 -0.6370  0.0920
16569SOL    HW154163   1.305   6.799   3.827 -1.5257 -0.5884 -0.5514
16569SOL    HW254164   1.286   6.928   3.902 -1.1651 -0.4988 -0.6132
16570SOL     OW54165   4.912   0.450   5.861 -0.4103 -0.1940  0.2603
16570SOL    HW154166   4.864   0.387   5.807  0.5724 -0.4951 -0.2839
16570SOL    HW254167   4.859   0.529   5.858 -0.3908 -0.2000 -1.1710
16571SOL     OW54168   5.466   8.356   8.467  0.1677 -0.5384 -0.1477
16571SOL    HW154169   5.378   8.390   8.454 -0.0434 -0.2573  1.7292
16571SOL    HW254170   5.498   8.338   8.379 -1.5514 -0.1289 -0.8971
16572SOL     OW54171   3.213   0.952   8.649 -0.1550 -0.0881 -0.3762
16572SOL    HW154172   3.169   0.888   8.705 -0.0609  1.3565  1.4351
16572SOL    HW254173   3.272   0.899   8.594 -0.7213 -1.6127  0.4202
16573SOL     OW54174  10.721   0.016   2.722 -0.0456  0.3315 -0.4617
16573SOL    HW154175  10.727  -0.031   2.805 -0.3752  0.6590 -0.2483
16573SOL    HW254176  10.766  -0.041   2.659  1.8946  0.9407  0.2873
16574SOL     OW54177   0.008   5.181   7.330 -0.3952  0.1020 -0.0558
16574SOL    HW154178   0.019   5.095   7.289  0.8771  0.4729 -0.4989
16574SOL    HW254179  -0.085   5.183   7.353 -0.0957 -2.2324  1.8226
16575SOL     OW54180   2.849   1.423   4.409 -0.2565  0.1967  0.3385
16575SOL    HW154181   2.776   1.362   4.399  0.2949 -0.4485  0.1225
16575SOL    HW254182   2.873   1.418   4.502  0.5978 -0.9097  0.0932
16576SOL     OW54183   3.335   3.038   2.438  0.1470  0.3034  0.2128
16576SOL    HW154184   3.275   2.983   2.389  0.8227 -0.3458  0.1043
16576SOL    HW254185   3.420   2.994   2.432  0.2247  0.1360  2.0858
16577SOL     OW54186   8.115   9.943   4.378  0.3262  0.8700  0.1350
16577SOL    HW154187   8.093   9.863   4.425  1.0791 -0.1357 -1.1667
16577SOL    HW254188   8.122  10.010   4.447 -0.2988 -0.1608  1.2401
16578SOL     OW54189   1.209   9.529   2.846 -0.2597 -0.4367  0.1527
16578SOL    HW154190   1.232   9.621   2.838 -2.8091  0.1728 -1.6800
16578SOL    HW254191   1.125   9.529   2.892  0.6334 -2.0582  1.9240
16579SOL     OW54192   5.710   3.869   6.283 -0.3533 -0.0143  0.2658
16579SOL    HW154193   5.684   3.858   6.375  0.1688  2.0212  0.7195
16579SOL    HW254194   5.712   3.964   6.271  1.4148 -0.2024 -1.3135
16580SOL     OW54195   4.704   9.447   1.643 -0.3454  0.3470 -0.0162
16580SOL    HW154196   4.661   9.512   1.587 -0.4657  1.9628  1.8342
16580SOL    HW254197   4.796   9.474   1.645  0.4030 -1.7305 -2.0868
16581SOL     OW54198   4.468   9.394  10.032 -0.3589 -0.3382 -0.2957
16581SOL    HW154199   4.479   9.482   9.996 -0.0596 -0.6382 -0.9542
16581SOL    HW254200   4.400   9.354   9.977 -1.0874 -0.2518  0.5093
16582SOL     OW54201   3.248   9.257   9.179  0.1184  0.5737  0.2046
16582SOL    HW154202   3.255   9.254   9.083  1.4284  1.2509  0.2539
16582SOL    HW254203   3.334   9.232   9.210 -0.4560 -0.1643  1.2405
16583SOL     OW54204   8.642   4.425   0.488 -0.0778  0.3861 -0.2989
16583SOL    HW154205   8.627   4.500   0.431  1.2806 -0.0252 -1.2480
16583SOL    HW254206   8.561   4.416   0.537 -0.3939  2.2767 -0.3798
16584SOL     OW54207   2.911   9.554   4.224 -0.1399  0.1916 -0.4422
16584SOL    HW154208   2.872   9.604   4.153  0.5458  0.9567 -0.2844
16584SOL    HW254209   2.861   9.472   4.225 -2.5499  1.5516  0.4659
16585SOL     OW54210   9.232   9.257   9.826  0.0959 -0.4708 -0.3629
16585SOL    HW154211   9.246   9.211   9.909  0.7529  0.0217 -0.1853
16585SOL    HW254212   9.177   9.199   9.775  0.8326 -1.4186 -0.1125
16586SOL     OW54213   4.510   7.337   0.200 -0.0703  0.5553  0.4096
16586SOL    HW154214   4.493   7.431   0.193  0.3097  0.5360 -1.0278
16586SOL    HW254215   4.438   7.304   0.254  0.0073  1.7199  1.2670
16587SOL     OW54216   0.041   2.117   8.661  0.3850 -0.2868  0.1220
16587SOL    HW154217  -0.042   2.070   8.653  0.8685 -1.1884  0.2300
16587SOL    HW254218   0.020   2.195   8.713 -0.5181 -0.1626 -0.4194
16588SOL     OW54219   4.692   2.805   2.309 -0.2930 -0.2303 -0.0851
16588SOL    HW154220   4.647   2.722   2.295  1.5851 -0.9165 -3.0187
16588SOL    HW254221   4.784   2.781   2.322  0.2475  1.3556 -0.7064
16589SOL     OW54222   9.221   8.515  10.983  0.5307  0.5879  0.7241
16589SOL    HW154223   9.308   8.486  11.011  0.3586  0.7868  1.4829
16589SOL    HW254224   9.238   8.576  10.911  1.0407  0.9461  1.1416
16590SOL     OW54225  10.241   0.406   4.811 -0.3523 -0.6871 -0.2956
16590SOL    HW154226  10.264   0.408   4.904 -0.5189  1.4749 -0.2506
16590SOL    HW254227  10.277   0.323   4.780  1.3830 -0.6113  1.2840
16591SOL     OW54228   3.962   4.246   0.501 -0.2515  0.1554 -0.5265
16591SOL    HW154229   4.012   4.175   0.542 -0.8578  0.1252  0.1791
16591SOL    HW254230   3.913   4.285   0.573 -1.5650 -0.0649 -1.2677
16592SOL     OW54231   1.134   8.711   2.596 -0.4426 -0.3434 -0.2087
16592SOL    HW154232   1.210   8.688   2.649 -0.8759 -0.4976  0.3500
16592SOL    HW254233   1.169   8.763   2.524  0.3152 -1.1610 -0.4500
16593SOL     OW54234   3.049   9.306   6.860 -0.7152 -0.2090  0.0421
16593SOL    HW154235   3.027   9.361   6.785  0.7994  0.6694  0.1967
16593SOL    HW254236   3.013   9.352   6.935  0.9602  0.9013  0.2256
16594SOL     OW54237   7.420   1.869   6.633  0.2416  0.3179 -0.7134
16594SOL    HW154238   7.478   1.887   6.558 -0.1351  0.7043 -0.9149
16594SOL    HW254239   7.474   1.888   6.709  0.2369  1.1554 -0.9061
16595SOL     OW54240   1.215   5.580   2.354  0.1638  0.8801 -0.0729
16595SOL    HW154241   1.205   5.648   2.420 -1.0930  1.5997 -0.9688
16595SOL    HW254242   1.146   5.517   2.374  0.2859  0.6974 -0.2275
16596SOL     OW54243   7.925   4.096   9.952  0.1955  0.3923 -0.0306
16596SOL    HW154244   7.950   4.031   9.886  1.2284 -0.0391  0.7643
16596SOL    HW254245   7.895   4.045  10.026 -1.1866  0.8822 -0.2308
16597SOL     OW54246   7.155   6.462   7.173 -0.7538 -0.2083 -0.0500
16597SOL    HW154247   7.065   6.490   7.155  0.0402  2.4923 -0.2619
16597SOL    HW254248   7.173   6.395   7.107 -1.8581  0.8903 -1.5319
16598SOL     OW54249   5.407   5.408   0.121  0.7337 -0.4605 -0.0309
16598SOL    HW154250   5.496   5.440   0.135  0.9013 -0.9454  0.0386
16598SOL    HW254251   5.418   5.334   0.061  0.3995 -0.6683  0.1651
16599SOL     OW54252   2.175  11.017   7.040 -0.2205  0.3141  0.2195
16599SOL    HW154253   2.126  10.944   7.003 -0.2965  0.2625  0.4208
16599SOL    HW254254   2.197  11.072   6.965 -0.1004  0.0461  0.0570
16600SOL     OW54255   2.796  11.042   9.597 -0.0424 -0.0473  0.1202
16600SOL    HW154256   2.710  11.052   9.638  0.0303 -0.9884  0.5183
16600SOL    HW254257   2.839  10.974   9.648  0.7493  0.0577 -0.3982
16601SOL     OW54258   1.326   4.741   4.167  0.0586 -0.6937  0.4137
16601SOL    HW154259   1.333   4.824   4.213 -0.1360 -0.7022  0.4590
16601SOL    HW254260   1.234   4.717   4.175  0.0961 -0.8682  0.3224
16602SOL     OW54261   0.315   5.112   3.890 -0.7061  0.0577  0.0442
16602SOL    HW154262   0.390   5.117   3.949 -0.8423  2.7406  0.1007
16602SOL    HW254263   0.239   5.098   3.947 -0.5048 -0.3712  0.2069
16603SOL     OW54264   8.409   2.881   3.140  0.3836 -0.4335 -0.0826
16603SOL    HW154265   8.331   2.879   3.195  0.0885  1.1940 -0.3694
16603SOL    HW254266   8.380   2.846   3.056 -0.4237  1.2537 -0.5669
16604SOL     OW54267   3.691   8.388   0.472  0.3658  0.2843 -0.2842
16604SOL    HW154268   3.772   8.383   0.422  0.3328  1.8391 -0.5263
16604SOL    HW254269   3.622   8.366   0.408  0.4138  1.2646 -0.6978
16605SOL     OW54270   1.366   2.506   9.327  0.0815 -0.9412  0.0734
16605SOL    HW154271   1.419   2.456   9.389 -1.0329 -2.1429  0.1070
16605SOL    HW254272   1.322   2.572   9.381 -0.0290 -1.2698  0.3870
16606SOL     OW54273   8.154  11.031   4.972  0.1998 -0.3821 -0.4489
16606SOL    HW154274   8.201  11.038   4.889 -0.9418 -0.0671 -1.1029
16606SOL    HW254275   8.174  11.113   5.018 -1.1932  0.6200 -1.5549
16607SOL     OW54276  10.503  10.354   3.437 -0.8939 -0.3964 -0.0029
16607SOL    HW154277  10.566  10.301   3.485 -0.5984 -1.4630 -1.4992
16607SOL    HW254278  10.514  10.442   3.473  1.5213 -0.5150 -0.2567
16608SOL     OW54279   9.442   0.360   2.593 -0.3873  0.2099  0.1915
16608SOL    HW154280   9.479   0.367   2.681  1.6202  0.9615 -0.6412
16608SOL    HW254281   9.389   0.439   2.583 -1.6109 -0.4614  1.1092
16609SOL     OW54282  10.034   5.781   3.573 -0.3682 -0.4628 -0.3070
16609SOL    HW154283   9.966   5.847   3.555 -0.9764 -0.9056  0.2934
16609SOL    HW254284  10.000   5.701   3.533  0.3031 -0.4588 -0.9124
16610SOL     OW54285   9.982   5.375   3.263 -0.1332 -0.0979  0.1331
16610SOL    HW154286  10.031   5.426   3.198  1.0395 -0.5133  0.6708
16610SOL    HW254287  10.029   5.292   3.270 -0.2330 -0.0698  1.4975
16611SOL     OW54288   4.694   5.264   2.250 -0.2556  0.4026 -0.0983
16611SOL    HW154289   4.615   5.221   2.281  0.6529 -1.7664 -0.6231
16611SOL    HW254290   4.722   5.212   2.175  0.9645  1.9033 -0.7529
16612SOL     OW54291   2.451   4.227   0.024 -0.2482 -0.2662  0.7208
16612SOL    HW154292   2.438   4.247  -0.069 -0.3413 -1.2780  0.5005
16612SOL    HW254293   2.366   4.195   0.054 -1.5300  3.8579  2.2693
16613SOL     OW54294   7.413  10.261   6.660 -0.1710 -0.0520 -0.2350
16613SOL    HW154295   7.360  10.263   6.740  0.6689 -1.6048  0.4082
16613SOL    HW254296   7.494  10.305   6.685  0.5200 -1.4707  0.1462
16614SOL     OW54297   4.337   9.826   8.526 -0.2136  0.2449 -0.2729
16614SOL    HW154298   4.429   9.847   8.509  0.2687 -0.6380  1.0853
16614SOL    HW254299   4.331   9.822   8.621 -1.8464  1.0185 -0.3189
16615SOL     OW54300   7.997   2.040   6.617 -0.0568  0.3855 -0.5473
16615SOL    HW154301   7.924   2.099   6.596  0.0917  1.0774  0.8066
16615SOL    HW254302   8.005   1.984   6.540 -1.1848  1.1464 -1.2453
16616SOL     OW54303   2.947   1.335   3.762 -0.1771  1.0101  0.1171
16616SOL    HW154304   2.923   1.420   3.725 -1.0510  1.1874  1.0467
16616SOL    HW254305   2.886   1.322   3.834 -1.4065 -1.3643 -1.2372
16617SOL     OW54306   3.169   9.818   7.641  0.0824  0.3525  0.1495
16617SOL    HW154307   3.244   9.815   7.701 -0.9509 -2.1621  1.4701
16617SOL    HW254308   3.158   9.911   7.621  1.8144  1.0714  2.1440
16618SOL     OW54309   8.322   3.322   8.685  0.2549  0.0770  1.0573
16618SOL    HW154310   8.300   3.250   8.626 -0.6322  0.7182  0.5924
16618SOL    HW254311   8.377   3.281   8.752  1.2937 -0.6494 -0.1976
16619SOL     OW54312   0.363   2.747  10.169  0.4185 -0.1681  0.3188
16619SOL    HW154313   0.358   2.838  10.198  1.9227 -0.0818  0.3707
16619SOL    HW254314   0.280   2.708  10.198 -0.2890  1.1949  0.1955
16620SOL     OW54315   7.222  10.835   9.900 -0.4849  0.3956 -0.1730
16620SOL    HW154316   7.239  10.924   9.867 -0.9673  0.6332  0.2046
16620SOL    HW254317   7.272  10.829   9.981  0.3975 -0.0562 -0.7379
16621SOL     OW54318  10.629   7.990   7.890  0.0996 -0.3662 -0.3049
16621SOL    HW154319  10.680   7.946   7.822  0.3375 -0.4791 -0.0580
16621SOL    HW254320  10.695   8.028   7.948 -0.0411 -2.2753  1.1957
16622SOL     OW54321   5.883   6.776   6.625 -0.5497  0.1146 -0.2484
16622SOL    HW154322   5.828   6.780   6.703 -0.8457  0.7471 -0.4822
16622SOL    HW254323   5.965   6.818   6.651 -1.3671  2.2217 -0.8382
16623SOL     OW54324  10.682   0.682   5.905 -0.1703 -0.2699 -0.2660
16623SOL    HW154325  10.628   0.736   5.848 -1.1416 -0.6521  0.2622
16623SOL    HW254326  10.695   0.736   5.983  0.9654  0.1633 -0.7269
16624SOL     OW54327   3.939   7.377   8.072 -0.5326 -0.6757 -0.1399
16624SOL    HW154328   3.921   7.283   8.069 -0.6232 -0.6969  0.7702
16624SOL    HW254329   3.868   7.414   8.125  0.1480 -0.2670  0.5152
16625SOL     OW54330   2.837   8.102   9.073 -0.1548  0.5556 -0.0566
16625SOL    HW154331   2.897   8.036   9.038 -1.2408 -0.6557  0.2825
16625SOL    HW254332   2.779   8.122   9.000 -0.2328  0.6518  0.0324
16626SOL     OW54333   1.819   7.037   3.117  0.4091  0.6573 -0.4646
16626SOL    HW154334   1.868   7.097   3.173 -0.3409  1.5720 -0.7765
16626SOL    HW254335   1.847   7.058   3.028 -1.5382  2.1726 -0.7786
16627SOL     OW54336   1.818   3.491   2.315  0.8062 -0.1141 -0.6073
16627SOL    HW154337   1.795   3.541   2.237 -1.0243  0.3886  0.2059
16627SOL    HW254338   1.794   3.401   2.293 -0.8979  0.2068 -0.2416
16628SOL     OW54339   9.647   2.014   6.166 -0.4607 -0.2453  0.3393
16628SOL    HW154340   9.644   2.076   6.093  2.2795 -1.5142 -0.9939
16628SOL    HW254341   9.570   1.958   6.153 -0.2794 -0.1579 -1.3251
16629SOL     OW54342   1.085   7.343   2.207 -0.7586 -0.0499  0.0167
16629SOL    HW154343   1.127   7.388   2.134  0.7223 -1.6525 -0.1705
16629SOL    HW254344   1.025   7.281   2.165 -0.5873 -0.3379  0.2017
16630SOL     OW54345   1.714   8.043  10.472  0.0476 -0.1433 -0.4069
16630SOL    HW154346   1.731   8.037  10.566  1.2625 -0.8994 -0.6467
16630SOL    HW254347   1.624   8.073  10.465  0.0509  0.2405  0.9991
16631SOL     OW54348   3.126  10.862   8.397  0.2174  0.3357 -0.4601
16631SOL    HW154349   3.203  10.808   8.417  1.1003  1.3117 -1.1217
16631SOL    HW254350   3.162  10.942   8.358 -1.2022  0.1148 -2.3958
16632SOL     OW54351   5.938   4.923   0.960 -0.2312 -0.4835  0.6001
16632SOL    HW154352   5.957   4.855   0.895  0.2392 -0.0708  0.2978
16632SOL    HW254353   5.851   4.901   0.993 -1.1017  0.0443 -1.1476
16633SOL     OW54354   1.979   2.458   4.369 -0.8649 -0.1453 -0.4374
16633SOL    HW154355   1.928   2.481   4.292 -2.6485 -0.9105  0.4464
16633SOL    HW254356   2.068   2.488   4.350 -1.7710  1.8783 -1.7770
16634SOL     OW54357   4.878   9.088   3.930 -0.2645  0.0481 -0.3929
16634SOL    HW154358   4.786   9.060   3.931  0.0567 -1.2495  2.1770
16634SOL    HW254359   4.876   9.176   3.893 -2.5617  0.0416 -0.4167
16635SOL     OW54360   4.450   1.533   2.438 -0.1764 -0.0438  0.0448
16635SOL    HW154361   4.417   1.496   2.520 -0.5113 -0.9004 -0.4675
16635SOL    HW254362   4.507   1.605   2.466 -0.5635 -0.0945  1.0152
16636SOL     OW54363   3.667   6.084   4.572  0.1900  0.5680  0.1099
16636SOL    HW154364   3.607   6.095   4.498  0.1619 -1.8024 -0.3004
16636SOL    HW254365   3.727   6.015   4.544 -0.3508 -1.0290  2.5737
16637SOL     OW54366   4.432   4.197   0.314  0.5810 -0.0971  0.0776
16637SOL    HW154367   4.457   4.289   0.315  1.8293 -0.4053 -0.6702
16637SOL    HW254368   4.441   4.169   0.405  1.0149  0.3153  0.1660
16638SOL     OW54369  10.109   1.009   6.004  0.2512 -0.2707 -0.0903
16638SOL    HW154370  10.048   1.039   6.071 -0.2031  0.6202 -0.8702
16638SOL    HW254371  10.196   1.035   6.036  0.0226  0.3064  0.0671
16639SOL     OW54372   7.260   2.816   9.810  0.6565 -0.0350 -0.2213
16639SOL    HW154373   7.230   2.895   9.764 -0.2736 -0.3504 -0.1694
16639SOL    HW254374   7.310   2.850   9.885  0.5283  0.4973 -0.3735
16640SOL     OW54375   9.375   8.227   7.550  0.2262  0.0142 -0.3229
16640SOL    HW154376   9.458   8.184   7.531 -0.0290  0.3371 -2.4259
16640SOL    HW254377   9.309   8.169   7.514 -0.5017 -0.1814  1.2253
16641SOL     OW54378   7.210   7.101   3.933 -0.0382 -0.1292 -0.2805
16641SOL    HW154379   7.211   7.114   3.838 -0.8150 -0.8576 -0.3977
16641SOL    HW254380   7.295   7.136   3.962 -0.1022  0.7947 -1.1340
16642SOL     OW54381   8.808   2.598   1.209 -0.1201 -0.0565 -0.2715
16642SOL    HW154382   8.852   2.680   1.233  1.1777 -0.5965 -0.7038
16642SOL    HW254383   8.806   2.548   1.290  2.2841 -0.9892 -0.7028
16643SOL     OW54384  10.646   1.241   7.306  0.8071 -0.7085  0.1791
16643SOL    HW154385  10.651   1.220   7.212 -0.2624 -0.6187  0.0861
16643SOL    HW254386  10.624   1.334   7.308  1.8028 -0.4737  0.5429
16644SOL     OW54387   5.179   8.677   6.589 -0.8618 -0.2784 -0.2187
16644SOL    HW154388   5.245   8.625   6.635 -1.8366 -0.1030  1.4282
16644SOL    HW254389   5.169   8.756   6.642 -1.6977  0.1361 -0.9710
16645SOL     OW54390   6.555   9.748   4.627 -0.6028  0.6008  0.3106
16645SOL    HW154391   6.567   9.697   4.548  0.3442  1.4727 -0.1311
16645SOL    HW254392   6.476   9.712   4.667 -0.9567 -0.0128 -0.8928
16646SOL     OW54393  10.863   8.313   9.200 -0.1171  0.4267 -0.0768
16646SOL    HW154394  10.818   8.368   9.136 -2.1031 -0.8197  0.1737
16646SOL    HW254395  10.920   8.257   9.147 -1.2836 -0.1720 -0.7459
16647SOL     OW54396   8.476   6.924   0.371 -0.1713 -0.1497 -0.0628
16647SOL    HW154397   8.516   6.930   0.285 -0.1062 -1.2146 -0.1186
16647SOL    HW254398   8.460   7.015   0.397  0.2749  0.1941 -0.9712
16648SOL     OW54399   1.579   3.629   6.142 -0.1803 -0.1532  0.0808
16648SOL    HW154400   1.526   3.598   6.069 -0.1893  0.5330 -0.2152
16648SOL    HW254401   1.528   3.608   6.220 -0.9810  0.6508 -0.2055
16649SOL     OW54402  10.258   8.902   7.363  0.1283  0.3089  0.2512
16649SOL    HW154403  10.334   8.880   7.308  0.2843  2.7057 -0.6359
16649SOL    HW254404  10.182   8.877   7.310  0.2816  0.1000  0.1249
16650SOL     OW54405   6.533   0.732   2.839 -0.1502  0.1366 -0.0442
16650SOL    HW154406   6.452   0.781   2.853 -0.2376  0.3480 -1.2165
16650SOL    HW254407   6.603   0.797   2.846 -0.1289  0.0829  0.2586
16651SOL     OW54408   3.406  10.528   6.455 -0.7240 -0.5128 -0.3659
16651SOL    HW154409   3.498  10.531   6.429 -0.7215  1.2998 -0.3061
16651SOL    HW254410   3.400  10.452   6.513  1.0099  0.0271  0.5930
16652SOL     OW54411   9.052   8.969  10.856 -0.2516  0.2900 -0.8873
16652SOL    HW154412   9.013   9.025  10.922  1.3365  0.0779  0.3029
16652SOL    HW254413   9.145   8.965  10.880  0.2640 -0.3000 -2.7774
16653SOL     OW54414   4.765   1.739   3.754  0.1818 -0.0137 -0.2141
16653SOL    HW154415   4.823   1.686   3.810 -0.8412 -1.1724 -0.2084
16653SOL    HW254416   4.680   1.732   3.796 -0.3060  0.2978 -1.1426
16654SOL     OW54417   0.417   8.968   6.932 -0.0737  0.3867 -0.4213
16654SOL    HW154418   0.341   8.981   6.875 -0.3946  1.0069  0.1347
16654SOL    HW254419   0.441   8.876   6.918 -0.5943  0.3302 -1.0066
16655SOL     OW54420   3.051   0.977   1.398 -0.5647 -0.2328 -0.0145
16655SOL    HW154421   3.063   1.071   1.395  0.3086 -0.3565 -1.0027
16655SOL    HW254422   3.076   0.947   1.311  2.0868 -1.6999  1.1272
16656SOL     OW54423   2.017   4.693  10.943  0.0217  0.2065  0.0702
16656SOL    HW154424   2.083   4.747  10.900  0.0019 -1.2778 -2.0115
16656SOL    HW254425   1.934   4.721  10.904 -0.2533  0.1927  0.6355
16657SOL     OW54426   0.535   4.745   6.152 -0.5499  0.3095  0.3237
16657SOL    HW154427   0.563   4.832   6.179  0.3118 -0.4731  2.1420
16657SOL    HW254428   0.615   4.701   6.124 -1.0197  0.1550 -0.8822
16658SOL     OW54429  10.898   5.013   1.864  0.6202  0.2943 -0.8857
16658SOL    HW154430  10.839   5.082   1.835  0.2901  1.2462  1.8027
16658SOL    HW254431  10.985   5.050   1.854  0.4645  0.9723  0.1216
16659SOL     OW54432   9.090   9.921   9.687 -0.1794  0.0769  0.1346
16659SOL    HW154433   9.066   9.973   9.609 -0.8020 -1.3941 -0.6975
16659SOL    HW254434   9.185   9.922   9.688 -0.1753  1.4325  0.2836
16660SOL     OW54435   5.150   7.961   0.614  0.1201 -0.0981 -0.0536
16660SOL    HW154436   5.194   7.982   0.696  1.5089 -0.8677 -0.5448
16660SOL    HW254437   5.165   8.037   0.558  0.4443 -0.1570 -0.0537
16661SOL     OW54438   0.647  11.038   2.533  0.3892  0.0824  0.2021
16661SOL    HW154439   0.732  11.048   2.491 -0.3002 -1.4756 -1.7234
16661SOL    HW254440   0.651  10.951   2.574 -0.5310 -0.3630 -0.6165
16662SOL     OW54441   6.572   8.092   7.625 -0.1997  0.6416 -0.1864
16662SOL    HW154442   6.604   8.036   7.554 -0.8239  0.9471 -0.7151
16662SOL    HW254443   6.632   8.167   7.625 -0.6390  1.0014 -0.8872
16663SOL     OW54444   5.372   7.832   6.344  0.2615  0.3539 -0.7168
16663SOL    HW154445   5.331   7.890   6.280  1.7841 -0.5305 -2.6052
16663SOL    HW254446   5.419   7.768   6.291  3.7444  1.0523  1.2516
16664SOL     OW54447   0.759   2.684   1.359  0.1402  0.4390  0.4520
16664SOL    HW154448   0.738   2.626   1.433  0.2584  3.4420  3.0478
16664SOL    HW254449   0.675   2.722   1.334  0.5346  2.1738  1.6009
16665SOL     OW54450  10.162   2.814   5.962 -0.1320  0.3460  0.1894
16665SOL    HW154451  10.100   2.836   6.032 -0.3058 -1.2032  0.5485
16665SOL    HW254452  10.195   2.727   5.985  2.0327  1.0261 -0.1144
16666SOL     OW54453   2.148   2.800   7.312 -0.0415  0.0503 -0.5640
16666SOL    HW154454   2.058   2.799   7.279  0.6049 -0.4508 -2.4773
16666SOL    HW254455   2.139   2.804   7.407 -2.0935 -0.8318 -0.6582
16667SOL     OW54456   5.451   2.906   8.128  0.1059 -0.1575  0.4335
16667SOL    HW154457   5.479   2.836   8.187  0.3351 -1.2838 -0.9620
16667SOL    HW254458   5.373   2.871   8.084 -0.7535  1.1189  0.8856
16668SOL     OW54459   6.972   8.439   5.467 -0.3345  0.0514 -0.4325
16668SOL    HW154460   7.044   8.456   5.407 -0.1911  1.1936  0.0446
16668SOL    HW254461   7.015   8.421   5.551 -0.5964  1.1349 -0.0504
16669SOL     OW54462   8.519   4.997   2.846  0.1991 -0.1753 -0.0162
16669SOL    HW154463   8.562   5.009   2.930 -1.5747  2.4106  0.6327
16669SOL    HW254464   8.462   4.922   2.859  0.0266  0.1272  1.0492
16670SOL     OW54465   4.385   1.859  10.017  0.2013 -0.1781  0.0850
16670SOL    HW154466   4.322   1.879  10.086 -0.0233  0.6512 -0.3443
16670SOL    HW254467   4.363   1.920   9.947  1.6271  0.2730  0.0088
16671SOL     OW54468   2.374   2.688   5.984  0.6059  0.5778  0.0109
16671SOL    HW154469   2.296   2.636   5.960  2.0887 -1.7476 -0.1223
16671SOL    HW254470   2.416   2.707   5.901  1.1111  0.2243  0.1787
16672SOL     OW54471   8.606   8.873   0.322 -0.0914 -0.0891  0.1332
16672SOL    HW154472   8.635   8.888   0.412  1.7416  1.3281 -0.6228
16672SOL    HW254473   8.531   8.814   0.331  0.2531 -0.2914  2.5468
16673SOL     OW54474   4.019   9.583  10.764 -0.1235  0.7078 -0.3081
16673SOL    HW154475   3.940   9.528  10.763 -1.3686  2.4364 -0.8473
16673SOL    HW254476   4.008   9.639  10.840  0.2386  1.4418 -0.7867
16674SOL     OW54477   3.641   1.214   8.330  0.1449 -0.1741 -0.2815
16674SOL    HW154478   3.689   1.148   8.280  0.7572  0.6100 -0.7633
16674SOL    HW254479   3.671   1.298   8.294 -1.6862  0.3561 -0.6910
16675SOL     OW54480   0.673  10.097   6.585  0.1928 -0.1281  0.1373
16675SOL    HW154481   0.708  10.013   6.615  0.7841 -0.7781 -2.1850
16675SOL    HW254482   0.579  10.092   6.602  0.3069 -1.0129  0.5493
16676SOL     OW54483   1.558   4.885   5.457 -0.3516  0.3241 -1.2999
16676SOL    HW154484   1.587   4.869   5.547  0.0122 -1.4191 -1.6866
16676SOL    HW254485   1.575   4.803   5.412 -0.8947  1.0467 -2.8814
16677SOL     OW54486   0.068   3.300   1.059  0.1442  0.0826  0.0072
16677SOL    HW154487  -0.010   3.254   1.091 -0.8770  0.4348 -1.8593
16677SOL    HW254488   0.115   3.234   1.006  0.4443  0.2402  0.0724
16678SOL     OW54489   5.157   2.402   1.246 -0.3910  0.2075  0.1998
16678SOL    HW154490   5.171   2.316   1.285 -0.3669 -0.1569 -0.5906
16678SOL    HW254491   5.084   2.440   1.296 -0.4032 -0.2678  0.5496
16679SOL     OW54492  10.182   8.767   0.109 -0.3766 -0.2219 -0.3906
16679SOL    HW154493  10.219   8.845   0.068 -1.7720  0.9934  0.5642
16679SOL    HW254494  10.106   8.744   0.054 -0.5570 -0.3055 -0.1098
16680SOL     OW54495  10.342   0.969   5.862  0.0833  0.1811  0.3648
16680SOL    HW154496  10.343   0.874   5.874 -1.7447  0.3141  2.0694
16680SOL    HW254497  10.262   0.986   5.812 -0.4629  0.9329  1.4618
16681SOL     OW54498   9.239   8.282   1.975 -0.2423  0.1222  0.0211
16681SOL    HW154499   9.221   8.252   2.064  0.3169  0.1094  0.1342
16681SOL    HW254500   9.219   8.207   1.920  1.2040 -0.4971  0.3084
16682SOL     OW54501   5.155   2.453   8.627 -0.1688  0.0214 -0.8125
16682SOL    HW154502   5.183   2.537   8.663 -0.5733 -0.3910  0.4938
16682SOL    HW254503   5.237   2.407   8.607  0.0538  0.4533 -0.9115
16683SOL     OW54504   4.955   1.816  10.015  0.5423 -0.2681 -0.3993
16683SOL    HW154505   4.885   1.761  10.050  0.3101 -0.8841 -1.7752
16683SOL    HW254506   4.967   1.885  10.081 -0.7918 -0.6128  0.2255
16684SOL     OW54507   5.182   2.443  10.326  0.3678 -0.3986  0.0411
16684SOL    HW154508   5.181   2.516  10.387 -0.4039  0.3565 -0.8407
16684SOL    HW254509   5.126   2.377  10.366 -0.3918  0.2129  0.0161
16685SOL     OW54510   4.167   4.752   5.904  0.0541  0.2750  0.1080
16685SOL    HW154511   4.157   4.731   5.997  0.5902  1.1486  0.3705
16685SOL    HW254512   4.129   4.677   5.859  1.4080 -1.0286  1.0174
16686SOL     OW54513   9.313   8.786   9.613 -0.5985  0.5440 -0.2643
16686SOL    HW154514   9.230   8.765   9.656  0.3977  0.0605  1.5526
16686SOL    HW254515   9.353   8.701   9.594  0.5604  0.7299  1.1753
16687SOL     OW54516   1.175   9.321   2.428  0.1494 -0.2736  0.2398
16687SOL    HW154517   1.138   9.336   2.341 -0.8502 -1.2345  0.4819
16687SOL    HW254518   1.183   9.408   2.466  1.0049  0.2019 -0.9532
16688SOL     OW54519   5.460   6.734   3.948  0.0803  0.5267 -0.7798
16688SOL    HW154520   5.531   6.718   4.010  1.5031 -0.4381 -2.5340
16688SOL    HW254521   5.395   6.667   3.968  1.2309 -0.8142 -1.2617
16689SOL     OW54522   7.593   2.188   7.395  0.3312  0.3751 -0.0102
16689SOL    HW154523   7.662   2.247   7.426  0.4468 -0.2783  1.0237
16689SOL    HW254524   7.579   2.214   7.304  0.6887  1.7088  0.2802
16690SOL     OW54525   7.563   3.438   4.950 -0.2239 -0.4308 -0.2746
16690SOL    HW154526   7.502   3.480   5.010  0.1050 -0.1828 -0.1158
16690SOL    HW254527   7.644   3.428   5.000  1.0236  2.3892 -1.5089
16691SOL     OW54528   7.622   9.867   8.818 -0.2195  0.6054 -0.0991
16691SOL    HW154529   7.695   9.908   8.771 -1.1848  0.0553 -2.2388
16691SOL    HW254530   7.547   9.924   8.802 -0.9398 -0.4597 -0.6768
16692SOL     OW54531   4.419   6.924   6.227  0.3029 -0.7516  0.2409
16692SOL    HW154532   4.504   6.923   6.184 -0.5593 -1.6246 -1.5349
16692SOL    HW254533   4.375   7.001   6.192  0.5690  0.0610  1.6384
16693SOL     OW54534   4.374   2.656   9.999  0.0647 -0.4303  0.2551
16693SOL    HW154535   4.451   2.712  10.007  0.0685 -0.2751 -0.7418
16693SOL    HW254536   4.344   2.644  10.089  1.1669 -0.3830  0.6486
16694SOL     OW54537   4.285  10.677   9.111 -0.6421 -0.7757  0.0758
16694SOL    HW154538   4.216  10.671   9.045  0.6137 -1.4787 -1.2324
16694SOL    HW254539   4.310  10.770   9.111 -1.6700 -0.4871  0.6723
16695SOL     OW54540   3.506   2.419   2.248  0.5771  0.0029  0.2648
16695SOL    HW154541   3.423   2.374   2.268  0.3943  0.9169  1.7087
16695SOL    HW254542   3.554   2.357   2.193 -0.4184 -1.2037  0.7097
16696SOL     OW54543   2.591   3.792   0.442 -0.0528  0.7105 -0.4047
16696SOL    HW154544   2.503   3.787   0.405 -0.6033  1.5678  0.7322
16696SOL    HW254545   2.612   3.701   0.465 -0.4604  0.4382 -1.0663
16697SOL     OW54546   8.455   1.556   6.804 -0.4589 -0.1280  0.8834
16697SOL    HW154547   8.447   1.519   6.716  1.0297 -1.3416  1.2172
16697SOL    HW254548   8.382   1.518   6.853 -1.1593  0.3748  0.2451
16698SOL     OW54549   3.137   9.523   5.007 -0.1307  0.0341  0.3200
16698SOL    HW154550   3.151   9.551   4.917  0.4676  0.9050  0.6772
16698SOL    HW254551   3.092   9.439   4.999  1.4703 -0.7728 -0.8130
16699SOL     OW54552   7.915   4.807   0.480 -0.1067  0.5331  0.1202
16699SOL    HW154553   7.908   4.857   0.398  1.0800 -0.5175 -0.6593
16699SOL    HW254554   7.825   4.804   0.513 -0.6947  0.6089 -1.3650
16700SOL     OW54555   2.413   8.776   2.407 -0.0729  0.0492  0.0138
16700SOL    HW154556   2.329   8.730   2.404 -0.5158  0.7321  1.1110
16700SOL    HW254557   2.477   8.712   2.378 -0.9024 -0.6846 -0.2359
16701SOL     OW54558   1.036  10.749   3.455 -0.1002 -0.3220  0.2660
16701SOL    HW154559   1.058  10.719   3.367 -0.8521  0.9854 -0.4079
16701SOL    HW254560   1.024  10.844   3.446  0.3216 -0.0807  1.8873
16702SOL     OW54561   6.387   8.949   3.916  0.1301 -0.1736 -0.3721
16702SOL    HW154562   6.380   8.930   4.010 -2.3844  0.1688 -0.4373
16702SOL    HW254563   6.392   9.044   3.911  1.6064 -0.2324 -0.5724
16703SOL     OW54564   4.003  10.018   6.261 -0.3734 -0.5525  0.5653
16703SOL    HW154565   3.969   9.942   6.213 -1.7600  0.1412  0.4089
16703SOL    HW254566   3.930  10.048   6.314  0.1487  0.6843  0.6215
16704SOL     OW54567   6.008   2.239   3.599 -0.5531 -0.3861  0.1126
16704SOL    HW154568   6.009   2.231   3.694  0.0244 -0.3543  0.1127
16704SOL    HW254569   6.003   2.333   3.582 -0.7596 -0.3970  0.1103
16705SOL     OW54570   8.081   9.492   2.337  0.4165  0.2031  0.1277
16705SOL    HW154571   8.131   9.573   2.332 -0.1533  0.5534 -0.0500
16705SOL    HW254572   8.056   9.484   2.429  0.1986  0.4076  0.0889
16706SOL     OW54573   9.826   4.639   3.347 -0.0294 -0.3026 -0.0643
16706SOL    HW154574   9.869   4.554   3.358 -0.4334 -0.4945  0.0638
16706SOL    HW254575   9.735   4.617   3.329  0.3507  0.0235 -2.7955
16707SOL     OW54576   9.260   7.374   5.083  0.3018 -0.1494 -0.0954
16707SOL    HW154577   9.235   7.465   5.094  0.8220 -0.2512  2.8257
16707SOL    HW254578   9.179   7.325   5.094  0.3808 -0.1131  0.7105
16708SOL     OW54579   2.754   0.949   7.665 -0.4172 -0.3469  0.4449
16708SOL    HW154580   2.755   0.924   7.572  0.7516  1.7903 -0.2168
16708SOL    HW254581   2.832   0.907   7.702 -0.7244 -0.9711  0.3846
16709SOL     OW54582   9.968  10.307   1.785  0.1748 -0.8761 -0.5203
16709SOL    HW154583  10.029  10.330   1.855  0.5654  1.6898 -1.5976
16709SOL    HW254584   9.890  10.359   1.803 -0.1636 -1.0876 -1.3447
16710SOL     OW54585   9.757   8.554   4.667 -0.2688 -0.0442  0.0528
16710SOL    HW154586   9.693   8.483   4.666  0.6809 -0.9432 -2.0411
16710SOL    HW254587   9.840   8.511   4.686  0.1427  0.6686 -0.1049
16711SOL     OW54588   7.628   4.493   2.785  0.5464  0.3532 -0.4160
16711SOL    HW154589   7.672   4.578   2.773  1.9060 -0.2210  0.2852
16711SOL    HW254590   7.552   4.513   2.839  1.6539  0.9292  0.9861
16712SOL     OW54591   2.059   8.291   4.055  0.1500  0.0296 -0.3605
16712SOL    HW154592   2.074   8.313   3.963 -0.0891  1.1416 -0.1492
16712SOL    HW254593   2.023   8.203   4.053 -1.1914  0.5629 -1.4472
16713SOL     OW54594   8.311   4.942   6.448 -0.1577  0.5686  0.3496
16713SOL    HW154595   8.398   4.969   6.479  0.0352 -0.4137  0.6858
16713SOL    HW254596   8.277   4.885   6.516  0.0609 -1.2335 -0.9786
16714SOL     OW54597   3.390   9.793  10.008 -0.2591  0.0064 -0.1750
16714SOL    HW154598   3.393   9.782   9.913  0.7083  1.0110 -0.2848
16714SOL    HW254599   3.299   9.817  10.027 -0.5732 -0.6982 -0.7827
16715SOL     OW54600   1.897   5.909  10.051  0.0741 -0.0704  0.0455
16715SOL    HW154601   1.815   5.863  10.032 -0.6440  0.3028  2.0044
16715SOL    HW254602   1.904   5.976   9.983 -2.0205  0.8314  0.6489
16716SOL     OW54603   0.622   3.850   1.282 -0.0584  0.5593 -0.5926
16716SOL    HW154604   0.654   3.768   1.245 -0.7395 -0.0056  0.0686
16716SOL    HW254605   0.545   3.872   1.230  0.5619  1.2016 -1.2756
16717SOL     OW54606   4.044   2.014   5.804  0.4005  0.4452 -0.5035
16717SOL    HW154607   4.119   1.979   5.755  0.5144 -0.2278  0.1417
16717SOL    HW254608   4.069   2.005   5.896 -0.1877  0.8697 -0.2966
16718SOL     OW54609   6.772  10.535   1.515 -0.1845  0.4252 -0.2247
16718SOL    HW154610   6.710  10.601   1.544 -0.4187 -0.8590  2.4455
16718SOL    HW254611   6.748  10.518   1.424 -2.9080  0.9122  0.3290
16719SOL     OW54612   4.887   1.665   6.364  0.5026  0.1496 -0.0568
16719SOL    HW154613   4.956   1.654   6.429  0.0050 -3.1150  0.0784
16719SOL    HW254614   4.927   1.639   6.281  0.1806  0.9963 -0.4953
16720SOL     OW54615   3.163  10.046   9.762  0.4355  0.0070  0.0440
16720SOL    HW154616   3.149   9.977   9.697 -1.2710  0.0979  0.2741
16720SOL    HW254617   3.259  10.052   9.770  0.7071 -0.2297 -2.2158
16721SOL     OW54618   6.187   9.394  10.114 -0.0650  0.0023 -0.7571
16721SOL    HW154619   6.146   9.408  10.200  1.3066  3.2746 -0.4825
16721SOL    HW254620   6.260   9.334  10.132  0.5159  1.0355  0.5151
16722SOL     OW54621   5.994   3.498  10.204  0.4973  0.4943 -0.4131
16722SOL    HW154622   6.020   3.519  10.114 -3.1002  4.5113 -0.8187
16722SOL    HW254623   5.922   3.435  10.194  1.3325 -0.5218 -0.1636
16723SOL     OW54624   6.277   7.065   1.383 -0.1712  0.3143  0.2461
16723SOL    HW154625   6.341   7.064   1.312 -1.6561 -0.1696 -1.1627
16723SOL    HW254626   6.315   7.122   1.450  0.3919  2.5271 -1.8260
16724SOL     OW54627   0.668   7.028   8.823 -0.1990  0.1062 -0.2571
16724SOL    HW154628   0.583   7.013   8.781  0.4285 -2.6933 -0.7016
16724SOL    HW254629   0.683   6.950   8.876  1.4017  1.2687  1.1285
16725SOL     OW54630   4.146   2.572   5.901  0.0310  0.1673  0.5222
16725SOL    HW154631   4.148   2.483   5.864  1.8860  1.2726 -2.3857
16725SOL    HW254632   4.237   2.588   5.927  0.1378  1.8518 -0.7674
16726SOL     OW54633   9.553   6.151   1.162  0.0192 -0.1441  0.3198
16726SOL    HW154634   9.628   6.092   1.173  0.0564 -0.3367 -0.8299
16726SOL    HW254635   9.521   6.166   1.251  1.1294 -0.4375  0.7921
16727SOL     OW54636   6.564   3.846   8.009 -0.0998 -0.3653  0.1433
16727SOL    HW154637   6.536   3.801   8.089  1.2356  0.2524  0.9971
16727SOL    HW254638   6.510   3.924   8.006  1.0261  0.5057  1.4384
16728SOL     OW54639   5.354   7.345   6.801  0.4344  0.2631 -0.6456
16728SOL    HW154640   5.353   7.401   6.723 -0.1755  0.6763 -0.3431
16728SOL    HW254641   5.305   7.394   6.867  0.0692 -0.5366 -0.3127
16729SOL     OW54642   3.624   8.816  10.803 -0.0204 -0.4859 -0.0429
16729SOL    HW154643   3.637   8.740  10.746 -0.1752  0.0760 -0.8444
16729SOL    HW254644   3.577   8.880  10.749  0.8702  0.5241  0.3425
16730SOL     OW54645   5.476   4.201   4.985  0.4775  1.1204  0.4032
16730SOL    HW154646   5.396   4.239   4.949 -0.1042  0.0152  0.4809
16730SOL    HW254647   5.457   4.187   5.078 -0.0622 -1.0844  0.0306
16731SOL     OW54648   7.769   9.078   6.423 -0.1194 -0.0961  0.2076
16731SOL    HW154649   7.810   9.043   6.344 -0.6321 -0.4100  0.0790
16731SOL    HW254650   7.705   9.141   6.391 -1.2529 -1.1588  0.2887
16732SOL     OW54651   5.626   7.417   6.944 -0.6578 -0.3122  0.0975
16732SOL    HW154652   5.610   7.332   6.904  0.2509 -0.3364 -0.2386
16732SOL    HW254653   5.604   7.405   7.036  0.9258 -1.3697  0.3744
16733SOL     OW54654   3.879   9.287   7.762  0.2126  0.2308  0.0544
16733SOL    HW154655   3.957   9.324   7.721  0.0221  1.2777  0.5931
16733SOL    HW254656   3.834   9.363   7.800 -0.5135 -0.4911  0.6719
16734SOL     OW54657   6.525   4.857   8.939 -0.1126 -0.0938  0.0969
16734SOL    HW154658   6.568   4.870   8.854 -1.9681 -0.3543 -0.9303
16734SOL    HW254659   6.594   4.822   8.995  0.8418 -1.2155 -1.6767
16735SOL     OW54660   4.619   3.777   0.520  0.0973  0.3126  0.4766
16735SOL    HW154661   4.562   3.783   0.443  0.5060  0.0127  0.1406
16735SOL    HW254662   4.604   3.858   0.568  1.1325  1.3316 -0.8353
16736SOL     OW54663   1.214   0.562   2.751  0.0684  0.2426  0.1466
16736SOL    HW154664   1.131   0.565   2.798 -0.0698  2.2315 -0.1243
16736SOL    HW254665   1.237   0.470   2.748 -2.1044 -0.3518  0.2676
16737SOL     OW54666   2.981   6.586   6.520  0.5549  0.5512 -0.5689
16737SOL    HW154667   2.977   6.589   6.616 -1.1129 -2.4603 -0.4105
16737SOL    HW254668   3.028   6.504   6.502 -1.5499 -0.3734 -2.2235
16738SOL     OW54669   5.669   2.905   4.590 -0.0039  0.2154  0.1001
16738SOL    HW154670   5.647   2.982   4.643  0.4555  0.2471  0.2554
16738SOL    HW254671   5.679   2.939   4.501  1.8807  0.6653  0.4398
16739SOL     OW54672  10.785   7.460   6.185 -0.1428 -0.2999 -0.6659
16739SOL    HW154673  10.853   7.434   6.124  0.0272  0.0157 -0.6163
16739SOL    HW254674  10.827   7.525   6.242 -0.2730 -0.6467 -0.1629
16740SOL     OW54675   4.277   5.696   5.919  0.3820  0.1563  0.1972
16740SOL    HW154676   4.236   5.715   6.004  0.2928 -2.7660  0.9349
16740SOL    HW254677   4.207   5.655   5.868  1.6753 -2.9969  0.7289
16741SOL     OW54678   3.998   9.106   0.212  0.3398  0.5559 -0.3605
16741SOL    HW154679   3.946   9.138   0.139 -0.9188  1.0483  0.7072
16741SOL    HW254680   4.089   9.126   0.188 -0.2041  2.7019 -0.8528
16742SOL     OW54681   3.317   6.608   4.088 -0.3769 -0.5508 -0.7001
16742SOL    HW154682   3.251   6.585   4.153  0.0162 -1.5211 -0.6226
16742SOL    HW254683   3.333   6.702   4.102 -0.9433 -0.5489 -0.0016
16743SOL     OW54684   1.259   3.500   6.283  0.2890 -0.2970  0.3185
16743SOL    HW154685   1.297   3.569   6.337  0.3783  0.5744 -0.8197
16743SOL    HW254686   1.304   3.508   6.199 -1.3094 -0.2377 -0.5744
16744SOL     OW54687   4.505   1.259   7.861 -0.2905  0.1535 -0.2684
16744SOL    HW154688   4.451   1.251   7.939 -0.9527  1.6698 -0.5349
16744SOL    HW254689   4.581   1.310   7.890 -0.9736  1.5058 -0.7883
16745SOL     OW54690   6.478   7.023   9.816 -0.9562  0.0220  0.1419
16745SOL    HW154691   6.384   7.035   9.820 -1.2453 -1.6050 -0.6503
16745SOL    HW254692   6.495   6.997   9.726  0.5064  1.9343 -0.1928
16746SOL     OW54693   0.174   5.487   6.282 -0.2478 -0.1739  0.0142
16746SOL    HW154694   0.201   5.578   6.276  1.4281 -0.3836  2.6544
16746SOL    HW254695   0.238   5.440   6.228  0.0211  0.0531  0.1317
16747SOL     OW54696   6.609   4.411   6.082  0.4124 -0.3341 -0.0131
16747SOL    HW154697   6.573   4.484   6.033  0.4674 -1.9566 -2.6591
16747SOL    HW254698   6.621   4.342   6.017  0.6618 -2.6082  2.2864
16748SOL     OW54699   5.015   0.671   4.101 -0.8214 -0.5724 -0.3242
16748SOL    HW154700   5.009   0.756   4.146  1.0996 -1.2952  1.4493
16748SOL    HW254701   4.942   0.672   4.038 -2.1545  1.5078  1.1217
16749SOL     OW54702   0.286   6.036   4.202 -0.5033 -0.1719  0.3163
16749SOL    HW154703   0.341   5.957   4.207 -0.7649 -0.3585  0.2771
16749SOL    HW254704   0.214   6.011   4.144 -0.6776  0.0419  0.4399
16750SOL     OW54705   7.710   3.971   9.738  0.1419  0.4999 -0.0610
16750SOL    HW154706   7.670   4.031   9.801 -0.9827 -0.1716 -0.0941
16750SOL    HW254707   7.678   3.884   9.764  1.6628 -0.0948 -0.0653
16751SOL     OW54708  10.139   5.449   4.184  0.0136  0.0373  0.3433
16751SOL    HW154709  10.076   5.514   4.152 -1.3099 -1.4758 -0.2692
16751SOL    HW254710  10.094   5.406   4.256  0.4448 -0.8934  0.0668
16752SOL     OW54711   4.769   6.163   8.193  0.1173 -0.7190  0.0263
16752SOL    HW154712   4.737   6.214   8.267 -0.6126  0.1732 -0.8836
16752SOL    HW254713   4.843   6.114   8.228  0.5732  0.6343  1.0361
16753SOL     OW54714   7.503   5.789   0.704  0.0828 -0.4643  0.3196
16753SOL    HW154715   7.577   5.844   0.678  1.5439 -2.4774 -0.0190
16753SOL    HW254716   7.539   5.731   0.771 -1.0118 -1.8802 -0.2710
16754SOL     OW54717   6.433   6.492   2.195 -0.1799  0.7729 -0.1029
16754SOL    HW154718   6.515   6.477   2.240  0.6043  0.5965 -1.5349
16754SOL    HW254719   6.375   6.528   2.262  0.8480  0.2773  1.0819
16755SOL     OW54720   5.697   2.010   2.394 -0.0096  0.3910 -0.3797
16755SOL    HW154721   5.650   2.085   2.359  0.8550  0.4367 -1.5024
16755SOL    HW254722   5.732   1.965   2.317 -1.6136 -1.9432  0.1237
16756SOL     OW54723   4.898   3.892   6.742 -0.2237  0.5472  0.9589
16756SOL    HW154724   4.882   3.899   6.837 -0.7130  0.7631  0.8630
16756SOL    HW254725   4.973   3.833   6.735  0.0680  0.8407  1.5017
16757SOL     OW54726   8.471   2.129   9.150  0.0621  0.3161  0.2176
16757SOL    HW154727   8.483   2.093   9.062  0.9286  1.3562 -0.1111
16757SOL    HW254728   8.377   2.143   9.157  0.0242  0.6048 -0.7029
16758SOL     OW54729   1.515   2.733   8.285  0.1334 -0.6299  0.0251
16758SOL    HW154730   1.593   2.678   8.284  0.1460 -0.6106 -0.2495
16758SOL    HW254731   1.455   2.689   8.224 -0.4482 -1.1876  0.9834
16759SOL     OW54732   5.858   5.946   2.114 -0.0574 -0.5259  0.6519
16759SOL    HW154733   5.939   5.984   2.080 -1.1451  1.8383  0.5090
16759SOL    HW254734   5.864   5.853   2.092  2.2181 -0.2599 -0.1043
16760SOL     OW54735   4.749  10.864   8.686 -0.5106 -0.4256 -0.0163
16760SOL    HW154736   4.728  10.928   8.754 -1.0456  1.9039 -2.1908
16760SOL    HW254737   4.806  10.800   8.729  0.1038  1.5360  2.3115
16761SOL     OW54738   5.580   8.460   3.216  0.4111  0.1560 -0.2633
16761SOL    HW154739   5.676   8.466   3.221  0.3515  0.4370  1.1770
16761SOL    HW254740   5.563   8.404   3.141  1.7199 -0.1781 -0.3404
16762SOL     OW54741   9.331   4.053   8.628  0.0875  0.2634  0.8205
16762SOL    HW154742   9.362   4.137   8.594  1.9024 -1.4472 -2.1413
16762SOL    HW254743   9.409   3.999   8.633 -1.3225 -1.9218  0.4958
16763SOL     OW54744   9.914   6.933   9.054 -0.1702 -0.2224 -0.8482
16763SOL    HW154745   9.863   6.992   9.109  1.1797 -0.7789  1.1194
16763SOL    HW254746   9.988   6.986   9.025  0.5970 -0.6713  0.2273
16764SOL     OW54747   2.644   3.330   5.713 -0.7682 -0.5644 -0.0236
16764SOL    HW154748   2.553   3.338   5.741 -0.9024 -1.6130 -0.1257
16764SOL    HW254749   2.691   3.396   5.764 -1.6912  0.5109 -0.5068
16765SOL     OW54750   0.436   3.176   2.526  0.6587  0.0667 -0.0739
16765SOL    HW154751   0.525   3.148   2.549  0.7279  1.2006  1.1611
16765SOL    HW254752   0.427   3.262   2.566 -1.3040 -0.3751  0.5568
16766SOL     OW54753   8.848   7.411   0.770 -0.2334 -0.1784  0.0043
16766SOL    HW154754   8.790   7.415   0.846 -0.4184 -0.6565 -0.1069
16766SOL    HW254755   8.802   7.355   0.707 -0.7559  1.3791 -1.0544
16767SOL     OW54756   6.398   5.106   3.221  0.3736 -0.5661 -0.0929
16767SOL    HW154757   6.420   5.130   3.311  0.9379  0.5088 -0.4943
16767SOL    HW254758   6.454   5.163   3.167 -0.4131 -0.7391 -1.1192
16768SOL     OW54759   3.539   5.181   3.656 -0.1234 -0.1627  0.2075
16768SOL    HW154760   3.531   5.276   3.661  0.8222 -0.1106  0.9171
16768SOL    HW254761   3.478   5.156   3.586  1.0361  1.1593 -1.3648
16769SOL     OW54762   4.377   4.013   2.192  0.3893 -0.1963 -0.2799
16769SOL    HW154763   4.422   4.094   2.170  0.8514 -0.6247 -0.9447
16769SOL    HW254764   4.313   4.001   2.121  1.1784 -1.0514 -0.8679
16770SOL     OW54765  10.194   1.402   8.278 -0.1325 -0.2183 -0.4109
16770SOL    HW154766  10.242   1.483   8.295 -2.7844  1.8410 -1.9983
16770SOL    HW254767  10.227   1.371   8.194 -0.8651  0.7203 -1.0759
16771SOL     OW54768   0.632   1.079   3.522  0.7133  0.0648  0.1090
16771SOL    HW154769   0.676   1.098   3.439  1.5206 -0.8263  0.3118
16771SOL    HW254770   0.584   1.159   3.543  1.1130  0.5688 -0.8337
16772SOL     OW54771   7.505   2.339   0.405  0.5605  0.0876 -0.9647
16772SOL    HW154772   7.544   2.405   0.347 -0.4723 -0.5015 -2.3994
16772SOL    HW254773   7.482   2.387   0.484  0.7776  1.2291 -1.5730
16773SOL     OW54774   0.005   8.054   5.508  0.3591 -0.2924  0.1222
16773SOL    HW154775  -0.012   8.100   5.426  0.1641  2.3834  1.5296
16773SOL    HW254776  -0.080   8.053   5.553  0.5713 -1.2583  0.5357
16774SOL     OW54777   8.679   8.261   7.470 -0.3196  0.1887 -0.1712
16774SOL    HW154778   8.769   8.229   7.477 -0.4787 -0.4686 -0.9940
16774SOL    HW254779   8.689   8.352   7.443  0.1087  0.4715  0.8620
16775SOL     OW54780   2.235   3.766   9.097  0.4191 -0.1369  0.4080
16775SOL    HW154781   2.191   3.692   9.056  0.0263  0.0282  0.5316
16775SOL    HW254782   2.183   3.842   9.073  0.6099  0.0545  0.5939
16776SOL     OW54783   3.770   9.401   6.417 -0.3935 -0.6665 -0.4717
16776SOL    HW154784   3.708   9.414   6.489  0.5432  1.1959  0.0560
16776SOL    HW254785   3.854   9.387   6.461  0.1298  0.1423 -1.1995
16777SOL     OW54786   0.249   8.579   7.903 -0.3911  0.0415  0.2271
16777SOL    HW154787   0.276   8.614   7.818 -1.1421  0.4805  0.1626
16777SOL    HW254788   0.157   8.553   7.890 -1.1127  1.8342  1.3936
16778SOL     OW54789  10.426  10.996   6.894 -0.1660 -0.4037  0.6532
16778SOL    HW154790  10.342  10.949   6.901  0.7711 -2.1339  0.9823
16778SOL    HW254791  10.419  11.067   6.957 -1.7752  0.1404 -0.0782
16779SOL     OW54792   9.739   2.361   5.449  0.0435 -0.2410  0.0759
16779SOL    HW154793   9.676   2.363   5.376  0.1711 -1.7641 -0.1180
16779SOL    HW254794   9.685   2.345   5.526  0.1675 -1.5623 -0.0924
16780SOL     OW54795   6.471   3.174   9.271 -0.0259  0.3257 -0.4875
16780SOL    HW154796   6.439   3.247   9.218 -1.7178 -0.1697 -0.2036
16780SOL    HW254797   6.392   3.132   9.305  0.9571 -0.3600  1.0961
16781SOL     OW54798   8.314   6.523   9.296 -0.1555  0.0576  0.1004
16781SOL    HW154799   8.372   6.476   9.237 -1.6508 -0.5825 -0.9343
16781SOL    HW254800   8.294   6.459   9.365 -0.9645 -0.3428 -0.4798
16782SOL     OW54801   9.120   5.084   5.455 -0.3238 -0.5496  0.1003
16782SOL    HW154802   9.179   5.051   5.387 -1.1021  0.7550 -1.2810
16782SOL    HW254803   9.033   5.057   5.426 -0.5346 -1.3296  1.4285
16783SOL     OW54804   7.959   9.259   4.276  0.3437 -0.0274 -0.8792
16783SOL    HW154805   7.999   9.316   4.341  2.6662 -1.5234 -0.8632
16783SOL    HW254806   7.906   9.198   4.327  0.9827 -0.2808 -0.5034
16784SOL     OW54807   8.268   0.947   6.865  0.6153  0.2607 -0.3979
16784SOL    HW154808   8.359   0.936   6.892  0.5967 -0.0379 -0.4515
16784SOL    HW254809   8.230   0.859   6.874 -1.0303  1.1413  4.6562
16785SOL     OW54810   8.763   4.097   0.216  0.4603 -0.1177 -0.2676
16785SOL    HW154811   8.695   4.088   0.282 -1.6154 -0.2110 -2.2639
16785SOL    HW254812   8.728   4.162   0.155  2.2272 -0.1018 -1.3382
16786SOL     OW54813   2.993   6.488   9.968  0.1920 -0.3855  0.1031
16786SOL    HW154814   2.937   6.469   9.893  0.4008  0.1795 -0.2058
16786SOL    HW254815   2.933   6.521  10.036 -0.4489 -3.6849  1.3026
16787SOL     OW54816  10.878   2.738  10.276  0.0228  0.2118 -1.0010
16787SOL    HW154817  10.855   2.728  10.369  0.3699  0.7676 -0.8514
16787SOL    HW254818  10.798   2.713  10.229  0.8699 -3.7505 -0.7156
16788SOL     OW54819  10.595   4.300   7.601 -0.4589 -0.5486 -0.1129
16788SOL    HW154820  10.609   4.275   7.510 -2.3333 -0.1519 -0.5537
16788SOL    HW254821  10.588   4.395   7.599 -3.5888 -0.6686 -0.1266
16789SOL     OW54822   9.114   5.577   6.857  0.2454  0.2414  0.1925
16789SOL    HW154823   9.078   5.572   6.768 -1.2190  1.4537  0.6620
16789SOL    HW254824   9.046   5.538   6.912  1.2449 -0.7211  0.7802
16790SOL     OW54825   1.785   1.024   0.406 -0.0242  0.2609  0.0610
16790SOL    HW154826   1.761   0.939   0.443 -3.0955  1.0487  0.2022
16790SOL    HW254827   1.814   1.004   0.317  0.1080 -1.0002  0.3695
16791SOL     OW54828   8.118   9.273   6.510  0.4679 -0.1183 -0.2048
16791SOL    HW154829   8.211   9.293   6.509  0.5472 -0.4755 -0.2716
16791SOL    HW254830   8.079   9.341   6.564  0.2775  2.0943 -2.9142
16792SOL     OW54831   1.428   8.303   4.053 -0.1131  0.3620 -0.4683
16792SOL    HW154832   1.499   8.250   4.089  0.2373 -0.1595 -1.8606
16792SOL    HW254833   1.449   8.310   3.960 -0.1306  2.9909 -0.3408
16793SOL     OW54834   5.316   0.438   5.571 -0.3370 -0.1024 -0.4236
16793SOL    HW154835   5.344   0.521   5.611  1.6252 -0.4250 -1.0102
16793SOL    HW254836   5.232   0.459   5.531 -1.0679  0.9426  1.4913
16794SOL     OW54837   4.954   1.269   4.305  0.6433 -0.1923 -0.1000
16794SOL    HW154838   4.881   1.255   4.366  0.8413  1.0128  0.4309
16794SOL    HW254839   4.921   1.238   4.221 -0.6202  0.6536  0.0601
16795SOL     OW54840  10.993   6.696   7.355  0.8527  0.6759 -0.2370
16795SOL    HW154841  10.956   6.682   7.268  1.6971  1.0677 -0.6751
16795SOL    HW254842  10.984   6.790   7.371  2.7328  1.0006 -0.8826
16796SOL     OW54843   1.814   3.238   9.860 -0.3115 -0.3206  0.5784
16796SOL    HW154844   1.766   3.274   9.785  0.5986 -0.1930  0.0474
16796SOL    HW254845   1.763   3.161   9.886 -0.8282 -0.1640  0.0519
16797SOL     OW54846   3.113   4.548   1.982  0.0444 -0.0688 -0.0818
16797SOL    HW154847   3.087   4.572   2.071  1.2028  0.9392 -0.0039
16797SOL    HW254848   3.033   4.560   1.931 -0.0334  1.6961  0.3897
16798SOL     OW54849   3.433   0.994   5.434  0.6504  0.0224 -0.0575
16798SOL    HW154850   3.522   0.981   5.402  0.4964  0.7160 -0.7944
16798SOL    HW254851   3.377   0.955   5.367  0.3272  1.4135 -0.6264
16799SOL     OW54852   1.259   4.314   7.642 -0.3259 -0.0294  0.3862
16799SOL    HW154853   1.206   4.289   7.566  1.9229  0.6078 -1.5164
16799SOL    HW254854   1.347   4.284   7.621 -0.0660 -2.5159  4.1505
16800SOL     OW54855   1.603   1.180   9.742  0.0807  0.0703  0.4642
16800SOL    HW154856   1.547   1.196   9.666  0.8688  0.0712 -0.1231
16800SOL    HW254857   1.692   1.181   9.708  0.4222 -0.4643  1.3009
16801SOL     OW54858   2.998  10.568   3.279 -0.0817 -0.1439  0.3302
16801SOL    HW154859   3.052  10.625   3.224 -2.8585  1.0731 -1.3567
16801SOL    HW254860   2.982  10.491   3.225  0.2557 -0.6969  0.9949
16802SOL     OW54861   7.726   2.884   6.673 -0.3130 -0.2384 -0.3533
16802SOL    HW154862   7.791   2.926   6.728 -2.3525  1.7305  0.7152
16802SOL    HW254863   7.772   2.810   6.633  2.3670  0.7264  0.7459
16803SOL     OW54864   1.665   0.775   0.473 -0.0131 -0.0828 -0.2981
16803SOL    HW154865   1.624   0.748   0.555  1.4101  1.9243  1.1591
16803SOL    HW254866   1.612   0.733   0.405 -1.0235 -2.1068  1.6115
16804SOL     OW54867   8.596   4.849   9.034 -0.2441 -0.2474 -0.0422
16804SOL    HW154868   8.664   4.861   9.101 -0.7585 -0.4194  0.5232
16804SOL    HW254869   8.621   4.769   8.989  0.4726  0.2251 -0.5116
16805SOL     OW54870   1.236   1.442   2.703  0.5505  0.3405 -0.3239
16805SOL    HW154871   1.150   1.439   2.661  0.2591  0.4074  0.2549
16805SOL    HW254872   1.235   1.523   2.754  0.6282 -0.0729  0.3595
16806SOL     OW54873   7.845   1.354   9.433 -0.2948 -0.0674 -0.0442
16806SOL    HW154874   7.877   1.368   9.522 -0.6192 -0.8937  0.2082
16806SOL    HW254875   7.881   1.269   9.408  0.0644  0.3068 -0.8341
16807SOL     OW54876   3.865   0.193   6.794 -0.0354  0.8221  0.2888
16807SOL    HW154877   3.859   0.252   6.719  1.9629 -0.0793 -0.6662
16807SOL    HW254878   3.915   0.242   6.859  0.1211  0.8218  0.1696
16808SOL     OW54879   8.042   9.501   9.515  0.5400  0.3808  0.5992
16808SOL    HW154880   8.112   9.508   9.450  1.2738  0.2603  1.3565
16808SOL    HW254881   7.965   9.537   9.472  0.5582 -1.3548 -1.0010
16809SOL     OW54882   2.703   6.145   5.000 -0.2336  0.5333 -0.3460
16809SOL    HW154883   2.753   6.067   5.027 -2.0636 -0.8012 -0.6407
16809SOL    HW254884   2.741   6.170   4.916  1.8303  1.3683  0.7321
16810SOL     OW54885   1.354   5.952   4.920  0.3252  0.4242 -0.2783
16810SOL    HW154886   1.341   5.931   5.012  2.8076  0.9281  0.2552
16810SOL    HW254887   1.268   5.980   4.889 -0.2430  1.7968  2.3088
16811SOL     OW54888   8.172   5.999   8.367 -0.2553  0.0246 -0.0993
16811SOL    HW154889   8.100   5.942   8.396 -0.7711 -0.0718 -1.5129
16811SOL    HW254890   8.155   6.014   8.274  1.9868 -0.6368 -0.6829
16812SOL     OW54891   6.094   5.776   2.294  0.2074 -0.0982 -0.1167
16812SOL    HW154892   6.100   5.803   2.385  0.5543 -2.0943  0.5126
16812SOL    HW254893   6.096   5.857   2.244 -0.2162  1.0444  1.6541
16813SOL     OW54894   0.644   2.512   4.528  0.0530  0.3025  0.0100
16813SOL    HW154895   0.614   2.581   4.587  1.8648  0.7820  0.4301
16813SOL    HW254896   0.577   2.444   4.535 -1.1302  1.4757  0.5516
16814SOL     OW54897   6.204  10.178   9.870 -0.0965  0.0832  0.1941
16814SOL    HW154898   6.202  10.153   9.778  1.8703  0.4431  0.0047
16814SOL    HW254899   6.291  10.149   9.900 -0.2711  0.9663  1.6345
16815SOL     OW54900   1.727   3.575   3.689 -0.0674 -0.0041  0.3756
16815SOL    HW154901   1.799   3.611   3.638  1.5130 -0.5686  2.1011
16815SOL    HW254902   1.754   3.485   3.709 -2.0608 -0.8421 -0.3691
16816SOL     OW54903   3.020   6.443   6.063 -0.0741  0.4780 -0.1584
16816SOL    HW154904   2.975   6.378   6.117  1.4151 -0.4652 -0.0018
16816SOL    HW254905   3.040   6.397   5.981  2.7921 -0.0206  0.6957
16817SOL     OW54906   4.249   7.365   2.230 -0.2840 -0.4442 -0.0993
16817SOL    HW154907   4.184   7.407   2.287 -0.2212  0.7338 -0.8471
16817SOL    HW254908   4.215   7.277   2.215 -1.0395 -0.2798  0.5788
16818SOL     OW54909   1.876  10.197   9.431 -0.3159  0.3680  0.1046
16818SOL    HW154910   1.864  10.269   9.493  0.3724 -0.3680  1.1163
16818SOL    HW254911   1.886  10.119   9.485 -0.1926 -0.3741 -0.9485
16819SOL     OW54912   4.078   7.688   7.699 -0.1644 -0.5447 -0.1959
16819SOL    HW154913   4.148   7.626   7.681 -0.0044 -0.5078  0.3043
16819SOL    HW254914   4.053   7.672   7.790 -0.5079 -0.2627 -0.2369
16820SOL     OW54915  10.042  10.288   0.913  1.0652  0.2453  0.1733
16820SOL    HW154916  10.093  10.208   0.927  0.9948  0.2910  0.7372
16820SOL    HW254917  10.050  10.336   0.996 -0.9832 -0.3720  0.7771
16821SOL     OW54918   5.676   3.143   4.735  0.0767  0.2029 -0.1356
16821SOL    HW154919   5.666   3.193   4.654 -0.6826 -1.3758 -1.0586
16821SOL    HW254920   5.769   3.151   4.757  0.4114  0.2199 -1.4706
16822SOL     OW54921   0.525   5.019   5.053 -0.4404 -0.1716 -0.2016
16822SOL    HW154922   0.475   5.099   5.042 -1.4079 -0.9146 -1.4440
16822SOL    HW254923   0.598   5.027   4.991 -1.1141 -0.6879 -1.0681
16823SOL     OW54924   4.493   8.220   7.911  0.5987 -0.8906  0.0325
16823SOL    HW154925   4.429   8.158   7.945 -0.2195  0.0758  0.2899
16823SOL    HW254926   4.571   8.205   7.965 -0.1028 -0.6087  1.1552
16824SOL     OW54927   5.219  10.957   9.371  0.4968  0.3203 -0.4454
16824SOL    HW154928   5.179  11.042   9.392  2.9227  1.0189  1.8575
16824SOL    HW254929   5.311  10.978   9.355  1.1917 -1.9184  0.3533
16825SOL     OW54930   3.485   5.163   8.943 -0.0747 -0.1298  0.2764
16825SOL    HW154931   3.572   5.124   8.954  0.0038 -0.1168 -0.2413
16825SOL    HW254932   3.482   5.186   8.850  0.1022  1.6255  0.6710
16826SOL     OW54933   4.313   7.748   1.179  0.3750 -0.3361  0.2596
16826SOL    HW154934   4.245   7.705   1.127  0.8468 -0.8676  0.0710
16826SOL    HW254935   4.361   7.676   1.221  1.6260 -0.0601 -0.6254
16827SOL     OW54936   6.073   4.968  10.212  0.0525  0.4970  0.0455
16827SOL    HW154937   6.165   4.995  10.212 -0.1828  1.3427 -0.2412
16827SOL    HW254938   6.025   5.050  10.219 -0.6923  0.1377 -0.7443
16828SOL     OW54939   1.683   7.596   7.722 -0.1513 -0.3409  0.4970
16828SOL    HW154940   1.687   7.653   7.646  0.4026 -0.5650  0.3525
16828SOL    HW254941   1.594   7.607   7.757  0.3205  1.5237  1.1924
16829SOL     OW54942  10.125   4.646   7.288  0.7595 -0.4713 -0.2380
16829SOL    HW154943  10.076   4.586   7.344  0.8754 -0.2292  0.1259
16829SOL    HW254944  10.073   4.652   7.208 -1.0171  1.5191  0.9584
16830SOL     OW54945   2.203   8.974   9.419  0.2307  0.2821  0.4158
16830SOL    HW154946   2.284   8.932   9.447  0.2047 -0.5065 -0.6496
16830SOL    HW254947   2.150   8.979   9.499  0.0764 -2.1083  0.5391
16831SOL     OW54948  10.836   5.845   2.079  0.0628 -0.0282  0.2339
16831SOL    HW154949  10.809   5.753   2.071 -1.3453  0.4091 -0.3206
16831SOL    HW254950  10.929   5.841   2.099 -0.6044 -1.6637  3.5989
16832SOL     OW54951   0.747   9.191   2.000  0.0975  0.2371  0.2231
16832SOL    HW154952   0.832   9.225   2.030  1.1362 -1.8069 -0.2170
16832SOL    HW254953   0.713   9.143   2.074 -0.0386 -0.0641 -0.0332
16833SOL     OW54954   6.401  10.972   5.256 -0.0135  0.0652 -0.4630
16833SOL    HW154955   6.324  11.023   5.279  0.7684  2.1109 -2.0592
16833SOL    HW254956   6.367  10.898   5.207 -0.9886  1.1788 -1.5549
16834SOL     OW54957   0.355  10.515   4.438 -0.1662 -0.2426  0.0450
16834SOL    HW154958   0.385  10.517   4.347  1.3411  1.0164  0.5178
16834SOL    HW254959   0.382  10.430   4.471  2.9885  0.7647  0.3984
16835SOL     OW54960   7.825   6.184   1.541 -0.5260 -0.6583 -0.0690
16835SOL    HW154961   7.802   6.272   1.571  0.2724 -0.6255  0.4726
16835SOL    HW254962   7.755   6.129   1.574 -0.9392 -0.2538 -0.2584
16836SOL     OW54963   7.436   9.510   8.005  0.0750  0.5540  0.5185
16836SOL    HW154964   7.486   9.488   8.084 -0.7251  0.3724  0.9852
16836SOL    HW254965   7.503   9.526   7.938  0.7470 -0.4154  0.9320
16837SOL     OW54966   4.545   1.480   8.644 -0.0133 -0.2948 -0.5622
16837SOL    HW154967   4.493   1.559   8.661  1.7503  0.6513  0.7264
16837SOL    HW254968   4.547   1.435   8.728  0.8910 -0.5246 -0.7014
16838SOL     OW54969   8.588   1.584   6.026 -0.0206 -0.3602 -0.1601
16838SOL    HW154970   8.533   1.518   5.983 -1.2544 -0.1622  1.0287
16838SOL    HW254971   8.630   1.537   6.097 -0.4528 -0.0153  0.3340
16839SOL     OW54972   6.113   8.896   8.480  0.3849 -0.1400 -0.0831
16839SOL    HW154973   6.055   8.820   8.483 -1.6225  1.3125  0.2018
16839SOL    HW254974   6.079   8.950   8.409  1.0869  0.9870  0.4067
16840SOL     OW54975   9.701   6.993   8.159 -0.0122  0.3842  0.0935
16840SOL    HW154976   9.700   7.023   8.250  0.2364  1.7085 -0.3192
16840SOL    HW254977   9.627   7.037   8.118 -0.4732 -0.6540 -0.2375
16841SOL     OW54978   4.829   2.182   8.914  0.1490 -0.5455 -1.0397
16841SOL    HW154979   4.848   2.229   8.833  2.4218  3.6514  1.5255
16841SOL    HW254980   4.904   2.125   8.927  0.4460 -0.2219 -1.3091
16842SOL     OW54981   7.612   2.296   4.069 -0.1420 -0.3159 -0.4111
16842SOL    HW154982   7.660   2.262   4.144  0.1462 -0.5880 -0.7142
16842SOL    HW254983   7.674   2.292   3.996 -0.0529  1.0026 -0.4347
16843SOL     OW54984   7.025   1.793   7.762  0.2236  0.1217  0.0670
16843SOL    HW154985   7.053   1.714   7.807 -0.6674  0.4248  1.1855
16843SOL    HW254986   7.105   1.830   7.726  0.5294 -1.8729 -1.4998
16844SOL     OW54987   8.085   2.418   7.950  0.1536  0.7416  0.1002
16844SOL    HW154988   8.129   2.337   7.922 -0.8149 -0.0378  0.7682
16844SOL    HW254989   8.152   2.466   7.998  0.3453 -0.3357  0.9399
16845SOL     OW54990  10.139   6.620   7.273 -0.3829 -0.7447  0.0612
16845SOL    HW154991  10.171   6.537   7.236  1.6888 -0.1714  0.4503
16845SOL    HW254992  10.198   6.686   7.238 -1.1146  0.3923  0.9090
16846SOL     OW54993   4.855   4.203   5.470 -0.1692 -0.5831 -0.4294
16846SOL    HW154994   4.849   4.295   5.443 -2.0411 -0.5139  0.1066
16846SOL    HW254995   4.765   4.177   5.485  0.4753 -1.9962  1.1907
16847SOL     OW54996   8.375   6.553   2.206 -0.2636 -0.1943 -0.0874
16847SOL    HW154997   8.404   6.619   2.143 -2.1462 -1.5685 -2.6219
16847SOL    HW254998   8.372   6.472   2.155 -1.4141 -1.5230  1.9509
16848SOL     OW54999   5.466   9.234   1.100 -0.2082 -0.2582  0.3942
16848SOL    HW155000   5.442   9.310   1.048 -1.1507  0.0560  1.2487
16848SOL    HW255001   5.485   9.269   1.187 -1.5269 -1.0717  1.0448
16849SOL     OW55002   6.653   5.017   9.572 -0.0551 -0.2074  0.0514
16849SOL    HW155003   6.632   5.032   9.479 -0.2438 -0.3873  0.0652
16849SOL    HW255004   6.633   4.925   9.587 -2.4297  0.3663  0.8940
16850SOL     OW55005   1.833   4.307   2.421  0.3378 -0.1812 -0.3381
16850SOL    HW155006   1.842   4.399   2.399 -2.3220  0.3306  0.3281
16850SOL    HW255007   1.753   4.279   2.377 -0.1246 -1.5340  1.2344
16851SOL     OW55008   8.196   1.544   0.070  0.2555  0.1824 -0.3753
16851SOL    HW155009   8.282   1.579   0.046  1.3597 -2.3368 -0.4223
16851SOL    HW255010   8.187   1.465   0.016 -2.2938  0.5948 -0.6463
16852SOL     OW55011   8.578   3.526   3.697  0.0046  0.7656 -0.2786
16852SOL    HW155012   8.500   3.550   3.648 -1.5177 -0.4134  1.4541
16852SOL    HW255013   8.563   3.558   3.786  0.3409 -1.5700  0.7064
16853SOL     OW55014   4.283   9.820   4.201 -0.6086 -0.6222  0.1382
16853SOL    HW155015   4.277   9.891   4.137  0.7082 -0.7389 -0.1564
16853SOL    HW255016   4.262   9.862   4.285 -4.8418 -0.9843 -0.5376
16854SOL     OW55017   5.284   8.462   2.273 -0.2285 -0.0289 -0.2174
16854SOL    HW155018   5.210   8.518   2.252 -1.0822 -1.2061 -0.4256
16854SOL    HW255019   5.346   8.476   2.202 -1.4477 -1.0851 -1.5356
16855SOL     OW55020   4.691   2.681   3.183  0.5113 -0.1151 -0.0904
16855SOL    HW155021   4.631   2.742   3.226  0.2688 -0.1127 -0.4359
16855SOL    HW255022   4.729   2.732   3.111  1.1240 -0.0323  0.2875
16856SOL     OW55023  10.741   0.331   8.965 -0.0001 -0.0631 -0.4100
16856SOL    HW155024  10.797   0.296   9.034  0.4434  2.6921  0.7742
16856SOL    HW255025  10.663   0.275   8.966  0.9101 -1.3741  0.8177
16857SOL     OW55026   7.584   1.917   8.854 -0.5378  0.2463 -0.4829
16857SOL    HW155027   7.518   1.985   8.869 -2.1751 -1.4112  0.3434
16857SOL    HW255028   7.661   1.948   8.901 -1.6794  0.9130  1.0827
16858SOL     OW55029   2.960   2.171   8.277 -0.9802 -0.2784 -0.1104
16858SOL    HW155030   2.889   2.147   8.218 -3.4746  0.1599  2.5158
16858SOL    HW255031   3.004   2.088   8.297 -1.0208 -0.6266 -1.3614
16859SOL     OW55032   8.136   2.756  10.078  0.0196 -0.0820 -0.3809
16859SOL    HW155033   8.196   2.682  10.084  0.2272  0.0719 -0.5183
16859SOL    HW255034   8.050   2.719  10.097  0.1602 -0.3007 -0.1658
16860SOL     OW55035   6.159  10.303   6.024 -0.7926 -0.0589  0.1515
16860SOL    HW155036   6.204  10.369   6.078 -0.2403 -0.2147 -0.1103
16860SOL    HW255037   6.218  10.228   6.024 -0.4335  0.2013 -1.2877
16861SOL     OW55038   9.075   4.248   2.068 -0.0398 -0.1036 -0.3343
16861SOL    HW155039   8.982   4.266   2.055 -0.1248 -0.7851 -0.6979
16861SOL    HW255040   9.086   4.245   2.163 -0.4111 -0.1227 -0.2910
16862SOL     OW55041   6.453  10.404   2.017 -0.2215  0.4656  0.2486
16862SOL    HW155042   6.424  10.316   2.040 -1.0962  0.5907 -0.3490
16862SOL    HW255043   6.375  10.448   1.985  0.7941  0.4437 -2.5150
16863SOL     OW55044   8.179   1.147  10.526 -0.5329  0.4266 -0.3677
16863SOL    HW155045   8.114   1.106  10.469 -0.3087  0.0275 -0.3415
16863SOL    HW255046   8.199   1.230  10.484  0.2433 -0.2255 -1.3229
16864SOL     OW55047   4.261   0.417   2.930 -0.0461 -0.3746 -0.6019
16864SOL    HW155048   4.343   0.369   2.916  0.9963  0.8878  0.9313
16864SOL    HW255049   4.227   0.382   3.012 -0.6169 -0.2715 -0.7916
16865SOL     OW55050   2.215   3.643   7.176 -0.3741 -0.7273  0.6367
16865SOL    HW155051   2.131   3.677   7.206  0.1525  0.7551  0.5310
16865SOL    HW255052   2.264   3.624   7.256  0.2401  1.1934  0.7605
16866SOL     OW55053   5.580   4.400   6.085 -0.3631  0.1048  0.0250
16866SOL    HW155054   5.617   4.481   6.119 -1.8711  1.3170 -1.1145
16866SOL    HW255055   5.625   4.331   6.135 -0.1048  1.6586  2.0791
16867SOL     OW55056  10.451   2.922   1.413 -0.4594  0.1364 -0.6583
16867SOL    HW155057  10.480   2.841   1.455 -1.2585  0.4305  0.5064
16867SOL    HW255058  10.532   2.967   1.388 -0.0118 -1.0725 -1.4410
16868SOL     OW55059   6.229   5.672   0.979  0.1787 -0.1189  0.0670
16868SOL    HW155060   6.246   5.626   0.896 -0.0283 -0.8468  0.4252
16868SOL    HW255061   6.139   5.650   1.000 -0.6494  2.1292 -0.8065
16869SOL     OW55062   9.177   0.445   7.748 -0.1185 -0.2152  0.0229
16869SOL    HW155063   9.182   0.396   7.830  0.0690 -0.7812 -0.3259
16869SOL    HW255064   9.186   0.537   7.775 -1.3163 -0.2966  0.7578
16870SOL     OW55065   1.814   4.263   7.343 -0.7352 -0.0240 -0.3205
16870SOL    HW155066   1.886   4.209   7.376 -0.7090  0.4189  0.3644
16870SOL    HW255067   1.833   4.351   7.376 -1.0052  0.3203 -1.0731
16871SOL     OW55068   1.682   2.193   3.354  0.3876 -0.1106  0.4479
16871SOL    HW155069   1.587   2.193   3.343  0.1233 -1.0541  2.2291
16871SOL    HW255070   1.701   2.276   3.399  0.5330  0.4060 -0.5269
16872SOL     OW55071   8.352   3.633   1.083 -0.4781 -0.0728 -0.0906
16872SOL    HW155072   8.328   3.656   0.993  0.2472  0.6533 -0.1121
16872SOL    HW255073   8.431   3.685   1.100 -0.8654  0.1399  1.1193
16873SOL     OW55074   1.718   5.923   3.463 -0.2441  0.2754 -0.5741
16873SOL    HW155075   1.761   6.008   3.473  3.2152 -1.3851  0.2879
16873SOL    HW255076   1.737   5.877   3.545 -0.7039 -1.8579 -1.5811
16874SOL     OW55077   6.631  10.875   4.413  0.4761  0.1614  0.0203
16874SOL    HW155078   6.646  10.884   4.319  1.0427  0.3273  0.1214
16874SOL    HW255079   6.631  10.965   4.446  2.8233  0.0201  0.5445
16875SOL     OW55080   0.883   6.677   2.388 -0.2674  0.4326 -0.7045
16875SOL    HW155081   0.902   6.589   2.356 -0.0004 -0.4850  1.7445
16875SOL    HW255082   0.802   6.702   2.343 -0.4187 -1.1084 -1.3674
16876SOL     OW55083   6.682   0.715   1.354  0.1273  0.1070 -0.2063
16876SOL    HW155084   6.637   0.744   1.275  2.3600 -1.4154 -2.1617
16876SOL    HW255085   6.616   0.723   1.423 -2.4810 -0.1189 -2.4893
16877SOL     OW55086   9.971  10.678   8.242  0.1787  0.3537 -0.1750
16877SOL    HW155087   9.977  10.582   8.238  1.3612  0.3880  0.3505
16877SOL    HW255088  10.002  10.700   8.329 -1.1671  1.1679  0.1294
16878SOL     OW55089   2.238   9.983   9.505  0.1416  0.0574  0.1703
16878SOL    HW155090   2.197   9.919   9.448  0.4895 -0.4706  0.5017
16878SOL    HW255091   2.236   9.942   9.592  0.2160  0.5659  0.4153
16879SOL     OW55092   7.272  10.058   0.072  0.3694  0.5738  0.2423
16879SOL    HW155093   7.282  10.078   0.165  3.6862  0.6185  0.0047
16879SOL    HW255094   7.304   9.968   0.063 -1.4231 -0.0139 -0.6817
16880SOL     OW55095   2.027   6.749  10.703 -0.3296 -0.0826 -0.5046
16880SOL    HW155096   2.100   6.725  10.646 -0.0640  1.2070 -0.7323
16880SOL    HW255097   2.050   6.836  10.735 -1.0474 -0.2952  0.6370
16881SOL     OW55098   7.764   9.029   4.360 -0.5105  0.0571  0.0841
16881SOL    HW155099   7.732   9.001   4.274 -1.3013 -1.1601  0.7569
16881SOL    HW255100   7.686   9.048   4.410 -0.0582  0.4421  0.6535
16882SOL     OW55101   3.374   4.896   3.204 -0.1579 -0.0261  0.0665
16882SOL    HW155102   3.304   4.890   3.268 -2.1261 -1.6563 -2.0851
16882SOL    HW255103   3.362   4.982   3.164  0.9615  0.9174  1.6398
16883SOL     OW55104   8.076   2.741   1.804  0.6460  0.1443  0.0100
16883SOL    HW155105   8.136   2.731   1.878 -1.0666  0.5988  1.5310
16883SOL    HW255106   8.133   2.764   1.731  2.1878  2.7112  1.8330
16884SOL     OW55107  10.512   7.649   6.951 -0.0943 -0.4227 -0.0160
16884SOL    HW155108  10.517   7.743   6.936 -3.0048 -0.4126 -1.7491
16884SOL    HW255109  10.570   7.633   7.025  0.3583  2.7431  0.4477
16885SOL     OW55110   7.431   0.349   9.145  0.3834 -0.2767  0.2304
16885SOL    HW155111   7.446   0.431   9.097  0.0702 -0.2899  0.1081
16885SOL    HW255112   7.507   0.295   9.124  1.4848  0.6262  1.7086
16886SOL     OW55113   1.596  10.881   9.683  0.6268  0.1555 -0.3083
16886SOL    HW155114   1.599  10.850   9.774 -1.0527  0.6429 -0.0508
16886SOL    HW255115   1.683  10.860   9.648  1.5985  0.6565  1.6278
16887SOL     OW55116   6.938   9.951   8.821  0.2663  0.3330  0.1835
16887SOL    HW155117   6.940  10.041   8.853 -0.6229  0.6114 -0.4862
16887SOL    HW255118   6.985   9.953   8.738 -0.9241  0.4851 -0.5066
16888SOL     OW55119   8.057   7.493   6.907  0.2440  0.2475  0.1173
16888SOL    HW155120   7.966   7.506   6.881 -0.1787 -2.0057  0.2899
16888SOL    HW255121   8.107   7.507   6.826 -0.3665  0.4680 -0.2253
16889SOL     OW55122   2.048  10.337   6.902  0.1325 -0.3156  0.0584
16889SOL    HW155123   2.093  10.405   6.954 -1.9806  1.5894 -0.4296
16889SOL    HW255124   1.970  10.316   6.954 -0.5502 -0.4713 -1.0100
16890SOL     OW55125   0.600   2.821   6.721  0.2345  0.8409  0.3805
16890SOL    HW155126   0.686   2.780   6.709  1.1059  2.6375  0.1228
16890SOL    HW255127   0.552   2.760   6.777  1.9176  0.1154  1.1089
16891SOL     OW55128   9.688   6.693   2.531  0.6381 -0.3147 -0.1756
16891SOL    HW155129   9.633   6.763   2.495  1.4385  0.7219  0.5310
16891SOL    HW255130   9.763   6.740   2.569  1.2857 -1.5848  0.1568
16892SOL     OW55131   0.814   1.108   9.505  0.0197 -0.1068  0.1793
16892SOL    HW155132   0.743   1.173   9.507 -0.3867 -0.4522 -1.4053
16892SOL    HW255133   0.857   1.123   9.422  1.7616 -0.0078  1.0646
16893SOL     OW55134   4.001   9.032   3.405 -0.1109  0.2914 -0.1299
16893SOL    HW155135   4.077   9.051   3.459  0.7771  0.0533 -1.2523
16893SOL    HW255136   4.031   9.049   3.315 -2.1847  2.8875 -0.4658
16894SOL     OW55137   0.095   9.814   7.021  0.2682  0.3547 -0.1053
16894SOL    HW155138   0.132   9.753   7.085  0.5066 -0.7121 -1.2222
16894SOL    HW255139   0.003   9.789   7.014  1.0379 -2.2990 -3.0794
16895SOL     OW55140   1.208   6.964   1.107  0.2968 -0.5135  0.6312
16895SOL    HW155141   1.256   6.968   1.190 -0.5952 -1.7520  1.2244
16895SOL    HW255142   1.151   6.888   1.115 -1.0345  0.3249 -0.4658
16896SOL     OW55143   0.821   3.234   2.108  0.0775  0.1716 -0.0748
16896SOL    HW155144   0.886   3.289   2.064 -0.7139  1.3050  0.1360
16896SOL    HW255145   0.860   3.147   2.109  1.6622  0.8599  0.1963
16897SOL     OW55146   2.596  10.044   2.038  0.6140 -0.4245  0.1333
16897SOL    HW155147   2.579  10.099   2.115  0.2712  0.6491 -0.6940
16897SOL    HW255148   2.518  10.055   1.983 -0.5152 -3.4493  0.8859
16898SOL     OW55149   7.452   2.362   6.188  0.0854 -0.1847 -0.2519
16898SOL    HW155150   7.491   2.439   6.146 -0.2617 -0.2075 -0.6158
16898SOL    HW255151   7.414   2.311   6.116 -3.2693  1.3035  0.2797
16899SOL     OW55152   4.857   9.848   9.784  0.7558 -0.3743  0.4282
16899SOL    HW155153   4.797   9.894   9.724  2.1550  1.9174  0.6757
16899SOL    HW255154   4.917   9.802   9.725  0.3363 -0.5850  0.1498
16900SOL     OW55155  10.257   8.790   8.179  0.2526 -0.4746 -0.6556
16900SOL    HW155156  10.278   8.833   8.262  0.3145  1.1525 -1.4727
16900SOL    HW255157  10.257   8.861   8.115 -2.1784 -1.2910 -1.6661
16901SOL     OW55158   6.844   0.974   5.934 -0.0396 -0.4432  0.1089
16901SOL    HW155159   6.842   1.060   5.977  0.1118 -0.2993 -0.1733
16901SOL    HW255160   6.757   0.965   5.895 -1.3840 -1.9501  3.1269
16902SOL     OW55161   0.243   0.297   7.957 -0.3130 -0.3374 -0.2098
16902SOL    HW155162   0.241   0.259   7.869  2.3143  0.8634 -0.8648
16902SOL    HW255163   0.284   0.230   8.012 -1.2748 -0.7929 -0.0260
16903SOL     OW55164  11.066   0.945   7.809  0.6659 -0.4746 -0.0062
16903SOL    HW155165  11.125   0.881   7.849  2.2394  1.6252  1.2162
16903SOL    HW255166  11.069   1.021   7.868 -1.9093  0.3935 -0.8535
16904SOL     OW55167   4.500   9.087   4.070  0.1204  0.0405 -0.0314
16904SOL    HW155168   4.573   9.038   4.031 -0.1925  0.4680 -1.2159
16904SOL    HW255169   4.456   9.024   4.126 -0.2792 -1.0707 -1.5314
16905SOL     OW55170   6.396   6.833   6.574 -0.1049 -0.4618 -0.0557
16905SOL    HW155171   6.465   6.899   6.572  0.3430 -0.9303 -1.0997
16905SOL    HW255172   6.396   6.796   6.486 -2.1118 -0.0496 -0.2811
16906SOL     OW55173  10.653   2.763   8.209  0.1182 -0.4515  0.8256
16906SOL    HW155174  10.634   2.825   8.279 -0.3990  1.9318 -1.2675
16906SOL    HW255175  10.650   2.816   8.129  4.2337 -2.2169 -0.7680
16907SOL     OW55176   7.459   8.640   4.993  0.0850 -0.1058 -0.0809
16907SOL    HW155177   7.460   8.658   4.899  1.4029 -2.4701 -0.5857
16907SOL    HW255178   7.551   8.638   5.019 -0.2362 -0.0059  1.1646
16908SOL     OW55179   2.578   3.850   8.564 -0.2672  0.9058 -0.1409
16908SOL    HW155180   2.500   3.819   8.518  0.4094  0.5317 -1.0732
16908SOL    HW255181   2.651   3.806   8.520  0.4332  0.6792  1.1779
16909SOL     OW55182   9.868   9.003   1.092  0.0400 -0.6038 -0.2867
16909SOL    HW155183   9.844   8.950   1.017 -0.0391  0.1780 -0.8242
16909SOL    HW255184   9.804   8.980   1.160  0.3911 -1.6512 -0.2893
16910SOL     OW55185   4.055   0.935   4.428  0.2147  0.2619 -0.3579
16910SOL    HW155186   4.053   1.029   4.411  0.3619  0.2097 -0.6657
16910SOL    HW255187   4.146   0.917   4.452  0.5054 -0.0299 -1.6251
16911SOL     OW55188   3.886   3.482   6.506  0.1446 -0.4838  0.4547
16911SOL    HW155189   3.858   3.573   6.496  1.3278  0.0548  1.7035
16911SOL    HW255190   3.836   3.449   6.580  0.1614 -0.6503  0.3925
16912SOL     OW55191   3.722   7.299   5.284 -0.0243 -0.1503 -0.6720
16912SOL    HW155192   3.667   7.369   5.251 -1.0739 -1.0705 -0.9096
16912SOL    HW255193   3.671   7.259   5.354  1.1567  0.2070  0.4358
16913SOL     OW55194   2.979   9.089  10.329  0.1929  0.2616  0.0135
16913SOL    HW155195   2.899   9.140  10.345  0.2201  0.9567 -1.8313
16913SOL    HW255196   3.040   9.118  10.396 -1.3155 -0.8695  1.9938
16914SOL     OW55197  10.079   4.547   2.575  0.2602 -0.4101  0.1307
16914SOL    HW155198  10.070   4.561   2.480 -0.1904 -2.5705 -0.2112
16914SOL    HW255199   9.994   4.574   2.611  1.0647  2.2315  0.2421
16915SOL     OW55200   6.464   4.526   2.436  0.4760 -0.1135  0.5683
16915SOL    HW155201   6.397   4.503   2.501 -1.0696  2.8826  0.1992
16915SOL    HW255202   6.506   4.604   2.471  0.4233  0.8803 -1.4176
16916SOL     OW55203   4.830   3.001   7.855  0.5768  0.4352  0.5457
16916SOL    HW155204   4.857   2.910   7.852 -3.0367 -0.7612 -0.9031
16916SOL    HW255205   4.872   3.037   7.933  2.6112 -2.2290  0.7983
16917SOL     OW55206  10.574   2.643   0.839 -0.8288 -0.5181  0.1310
16917SOL    HW155207  10.662   2.614   0.861  0.1292  2.1337  0.2059
16917SOL    HW255208  10.574   2.647   0.743 -1.1707 -1.3536  0.0950
16918SOL     OW55209   5.141   0.637   7.651  0.1743  0.7969  0.0499
16918SOL    HW155210   5.200   0.566   7.679 -1.6709 -2.0590 -2.7258
16918SOL    HW255211   5.199   0.699   7.606  1.4157 -0.8595 -0.7598
16919SOL     OW55212   5.453   0.022  10.886  0.8210  0.0265 -0.0175
16919SOL    HW155213   5.516  -0.041  10.852  0.2841 -1.2880  1.3468
16919SOL    HW255214   5.384  -0.031  10.924  0.6870  1.4245  1.8150
16920SOL     OW55215   6.362   2.519   1.165  0.2455 -0.5744 -0.5447
16920SOL    HW155216   6.324   2.487   1.247 -0.1657 -0.7655 -0.8040
16920SOL    HW255217   6.449   2.480   1.161 -0.3149 -1.8372 -0.9458
16921SOL     OW55218   3.370   7.739   4.108  0.2568  0.0474  0.0553
16921SOL    HW155219   3.277   7.755   4.123  0.4339  1.8869 -0.5641
16921SOL    HW255220   3.412   7.755   4.193  0.0406 -0.7843  0.3344
16922SOL     OW55221   0.305   2.048   8.652  0.1778 -0.0703 -0.2821
16922SOL    HW155222   0.212   2.070   8.648  0.0102 -0.7042  0.0148
16922SOL    HW255223   0.314   1.971   8.596  0.0371 -1.5606  1.6343
16923SOL     OW55224   6.812   2.917   0.250  0.6679  0.1813 -0.0701
16923SOL    HW155225   6.869   2.994   0.248 -0.4948  1.1520  1.8115
16923SOL    HW255226   6.734   2.946   0.296 -0.8713 -1.4611 -1.4828
16924SOL     OW55227   9.715   6.338   1.685 -0.1093 -0.2397  0.2639
16924SOL    HW155228   9.791   6.284   1.709  0.2666  0.7182  1.3315
16924SOL    HW255229   9.650   6.275   1.653  0.4237 -1.3029  1.2007
16925SOL     OW55230   1.097   3.918   8.265  0.6977 -0.3367  0.5990
16925SOL    HW155231   1.175   3.935   8.318 -1.3616  2.6626  3.1006
16925SOL    HW255232   1.025   3.923   8.327 -1.7492  0.5345 -2.0863
16926SOL     OW55233   0.477   8.095   7.827  0.3493 -0.2647  0.2086
16926SOL    HW155234   0.396   8.044   7.819  1.1342 -1.8509  1.5384
16926SOL    HW255235   0.545   8.029   7.840  1.4757  1.1075  1.7350
16927SOL     OW55236  10.202   9.356   8.768  0.8850 -0.1922  0.3127
16927SOL    HW155237  10.174   9.333   8.679 -0.6120 -0.3929  0.7947
16927SOL    HW255238  10.204   9.451   8.768  0.3385 -0.1749  0.2056
16928SOL     OW55239   2.927   0.858   2.468  0.7761 -0.2446  0.2023
16928SOL    HW155240   2.923   0.806   2.548 -0.7924  1.2508  1.1581
16928SOL    HW255241   2.939   0.794   2.398  3.0577 -1.5448  1.6538
16929SOL     OW55242   0.736   9.651   3.121 -0.2744  0.3865 -0.2665
16929SOL    HW155243   0.772   9.603   3.195  0.4054 -0.8955 -1.3782
16929SOL    HW255244   0.649   9.614   3.107  0.1602 -0.3857 -0.9824
16930SOL     OW55245   1.752   6.647   4.035  0.4075  0.2484 -0.2127
16930SOL    HW155246   1.792   6.622   3.952 -2.2783  2.5353 -2.4389
16930SOL    HW255247   1.681   6.584   4.048  1.6459 -0.9277  1.1643
16931SOL     OW55248   7.408   2.653   9.413  0.8804 -0.1079 -0.3445
16931SOL    HW155249   7.328   2.609   9.384  1.8645 -0.4390 -2.8532
16931SOL    HW255250   7.419   2.725   9.350  1.7884  0.8639  0.8679
16932SOL     OW55251   5.565   6.025   6.766  0.3048 -0.0680  0.5158
16932SOL    HW155252   5.510   5.956   6.728  0.1663  1.4096 -2.1982
16932SOL    HW255253   5.654   5.992   6.757  0.3459  0.5835 -2.0369
16933SOL     OW55254   6.820   0.137  10.979 -0.2361  0.1782 -0.3284
16933SOL    HW155255   6.766   0.184  10.915  1.0890  0.6683 -1.1090
16933SOL    HW255256   6.845   0.056  10.934 -1.9750 -1.0422  0.7782
16934SOL     OW55257   9.473   8.378   0.294  0.2234  0.0673  0.7877
16934SOL    HW155258   9.424   8.297   0.308 -2.3268  1.4417  0.3785
16934SOL    HW255259   9.491   8.411   0.382 -1.7219  0.6792  1.0076
16935SOL     OW55260   7.771   9.679   3.346  0.0158 -0.3982  0.1707
16935SOL    HW155261   7.828   9.656   3.272 -1.0774  1.2191 -1.2528
16935SOL    HW255262   7.807   9.761   3.380 -1.6607  0.9147 -1.0664
16936SOL     OW55263  10.161   4.926   7.465  0.5080 -0.0452 -0.2181
16936SOL    HW155264  10.222   4.855   7.444  0.9299  0.5284 -0.9694
16936SOL    HW255265  10.078   4.898   7.426  0.6856 -0.1091 -0.5581
16937SOL     OW55266   7.943   0.763   6.968  0.1759  0.4114 -0.1136
16937SOL    HW155267   7.933   0.680   7.014  1.1183  1.3430  1.9338
16937SOL    HW255268   8.012   0.747   6.904 -2.1361 -1.3199 -2.3553
16938SOL     OW55269   9.787   0.913  10.079 -0.6964  0.5375 -0.2964
16938SOL    HW155270   9.803   0.892   9.987  1.1838 -0.9596  0.3065
16938SOL    HW255271   9.871   0.899  10.121 -1.9379 -0.5207  1.9638
16939SOL     OW55272   9.084   6.865   1.765  0.2839 -0.1795  0.8974
16939SOL    HW155273   9.101   6.911   1.683 -2.1521 -1.5163 -0.4588
16939SOL    HW255274   9.088   6.933   1.832  1.7078  1.0615 -0.3724
16940SOL     OW55275   6.599   3.174   7.804 -0.0337  0.5300 -0.2838
16940SOL    HW155276   6.511   3.185   7.840 -0.2761 -1.8564 -0.0113
16940SOL    HW255277   6.585   3.150   7.712  0.3777  0.6562 -0.3837
16941SOL     OW55278   1.125   6.098   2.600 -0.0140  0.0718 -0.2102
16941SOL    HW155279   1.118   6.043   2.522  2.1915  0.4353 -0.7399
16941SOL    HW255280   1.121   6.037   2.673  0.6315 -0.6140 -0.7311
16942SOL     OW55281   1.298   4.868   0.260 -0.0929 -0.0548 -0.3511
16942SOL    HW155282   1.259   4.866   0.348 -0.3786  1.6425 -0.4020
16942SOL    HW255283   1.392   4.878   0.276  0.1081 -1.8615 -0.2465
16943SOL     OW55284  10.328   3.228   0.436 -0.3880 -0.2310 -0.1043
16943SOL    HW155285  10.293   3.178   0.362  0.1137 -0.0838 -0.4435
16943SOL    HW255286  10.274   3.201   0.511 -1.9449  0.7982 -0.8141
16944SOL     OW55287   0.073   2.174  10.813  0.1903  0.3197  0.6018
16944SOL    HW155288   0.084   2.252  10.867  0.5439  0.0756  0.8842
16944SOL    HW255289   0.162   2.143  10.796  0.0185 -0.8451  1.7041
16945SOL     OW55290   0.273   7.851   5.357 -0.1386 -0.8551  0.3470
16945SOL    HW155291   0.362   7.830   5.331  0.4551 -0.4566  1.9494
16945SOL    HW255292   0.246   7.921   5.297  1.2902  0.2639  0.9601
16946SOL     OW55293   7.024   5.002   4.086  0.3921 -0.7705  0.6071
16946SOL    HW155294   7.044   4.938   4.154 -0.3077 -1.1404  0.4722
16946SOL    HW255295   7.017   5.085   4.132  3.3952 -0.3711  0.5159
16947SOL     OW55296   7.767   6.855   6.811  0.5924 -0.2738 -0.0932
16947SOL    HW155297   7.829   6.839   6.882  0.4788 -0.9346 -0.1351
16947SOL    HW255298   7.782   6.782   6.750  1.1493  0.6222 -1.0777
16948SOL     OW55299   0.474   9.382   1.596  0.0771 -0.1182 -0.8615
16948SOL    HW155300   0.534   9.386   1.670  0.9467  2.1547 -1.6191
16948SOL    HW255301   0.529   9.396   1.519 -0.9547 -1.3786 -1.8887
16949SOL     OW55302   1.321   0.946  10.553 -0.3231  0.4580  0.3000
16949SOL    HW155303   1.270   0.886  10.499  1.6509 -0.0735 -1.1099
16949SOL    HW255304   1.280   0.941  10.640 -1.7555 -0.9819 -0.3981
16950SOL     OW55305   4.180  10.926   0.933 -0.8001  0.1922 -0.8160
16950SOL    HW155306   4.229  10.912   1.015 -0.0290 -0.2072 -1.3344
16950SOL    HW255307   4.095  10.959   0.962 -0.2523  0.8608  0.1107
16951SOL     OW55308   0.450   7.043   5.940  0.3037 -0.4743  0.0422
16951SOL    HW155309   0.419   7.113   5.882 -0.4710  0.1338  1.1509
16951SOL    HW255310   0.510   6.992   5.886 -0.1076  0.2915 -1.1759
16952SOL     OW55311   6.916  10.897   7.273 -0.5932 -0.6825  0.7110
16952SOL    HW155312   6.929  10.837   7.199 -0.3755  0.7756 -0.4959
16952SOL    HW255313   6.988  10.878   7.332  1.2441  0.3451 -1.0641
16953SOL     OW55314   8.763   4.370   9.719  0.1776  0.4019 -0.5262
16953SOL    HW155315   8.731   4.302   9.778 -1.5120  1.5731  0.0046
16953SOL    HW255316   8.858   4.364   9.724  0.0813  0.0302  1.8356
16954SOL     OW55317   6.431   4.473  10.678 -0.3398  0.1055  0.0561
16954SOL    HW155318   6.412   4.545  10.739 -1.8763  0.1156 -0.3973
16954SOL    HW255319   6.391   4.500  10.596 -0.5643 -1.0862 -0.2377
16955SOL     OW55320  10.661   6.818   2.952 -0.3292  0.4213 -0.1037
16955SOL    HW155321  10.619   6.879   2.891  0.7799  2.3609  0.9659
16955SOL    HW255322  10.646   6.857   3.038 -0.9859 -1.7305  0.8205
16956SOL     OW55323   1.667   4.133   2.294 -0.0373 -0.6924  0.6305
16956SOL    HW155324   1.619   4.154   2.213 -0.2760  0.9283  1.1546
16956SOL    HW255325   1.664   4.038   2.299  1.1206 -0.9623 -1.9583
16957SOL     OW55326   0.987   8.793   5.192  0.3049  0.9375  0.5299
16957SOL    HW155327   0.965   8.853   5.263 -1.8490  1.7656 -0.7413
16957SOL    HW255328   1.001   8.849   5.116 -2.3225 -0.0592 -0.8294
16958SOL     OW55329  10.897   8.990   0.491  0.1155 -0.4742 -0.1918
16958SOL    HW155330  10.808   9.020   0.474  0.3347  0.1992 -0.1472
16958SOL    HW255331  10.920   8.939   0.414 -0.2989 -0.6407 -0.2109
16959SOL     OW55332   3.762   6.278   6.222  0.6143  0.5000 -0.0521
16959SOL    HW155333   3.816   6.230   6.286  0.5013  0.1148 -0.2396
16959SOL    HW255334   3.821   6.344   6.186  0.1690  2.0591  1.8584
16960SOL     OW55335  10.943   8.476  10.625 -0.0089 -0.1900  0.0208
16960SOL    HW155336  10.900   8.451  10.707 -0.1083  3.6378  1.3236
16960SOL    HW255337  11.020   8.526  10.653 -0.4014  1.7998 -2.1572
16961SOL     OW55338   8.569   8.260   9.786 -0.5752 -0.1597 -0.1253
16961SOL    HW155339   8.544   8.304   9.867 -0.4548 -0.9068  0.3350
16961SOL    HW255340   8.660   8.286   9.771 -0.9449  0.8830 -0.6529
16962SOL     OW55341   2.971   7.352   6.877 -0.1319  0.0166  0.7331
16962SOL    HW155342   2.932   7.272   6.842 -0.0228  0.5000 -0.5497
16962SOL    HW255343   3.021   7.323   6.954  2.0013 -1.6144 -1.1209
16963SOL     OW55344   0.474   6.261   4.167  0.3104 -0.3696 -0.3046
16963SOL    HW155345   0.485   6.178   4.213  1.9235  0.1891  0.3899
16963SOL    HW255346   0.385   6.289   4.189 -0.4496 -2.0900 -0.9245
16964SOL     OW55347   5.967   1.576   8.795  0.0126  0.3254 -0.0048
16964SOL    HW155348   5.885   1.590   8.842 -0.3337 -0.1826 -0.4458
16964SOL    HW255349   5.967   1.642   8.726 -0.8111 -0.6855 -1.0174
16965SOL     OW55350  10.910   8.396   1.990  0.2465 -0.5002 -0.5043
16965SOL    HW155351  10.890   8.302   1.988  0.9400 -0.6533 -0.5016
16965SOL    HW255352  10.825   8.439   1.981 -0.1603 -1.1285  0.2303
16966SOL     OW55353   5.904   7.228   1.726  0.6312 -0.1943  0.5816
16966SOL    HW155354   5.885   7.236   1.820 -1.9147  0.2643  0.1109
16966SOL    HW255355   5.826   7.185   1.690  0.7316  1.2743 -1.5903
16967SOL     OW55356   1.613   9.002   0.079  0.2399 -0.0953 -0.2915
16967SOL    HW155357   1.631   9.079   0.133 -0.8007 -0.1727  0.2086
16967SOL    HW255358   1.638   9.027  -0.009  1.7217  0.1369  0.1745
16968SOL     OW55359   8.482   3.905  11.063 -0.4336  0.1155  0.2955
16968SOL    HW155360   8.524   3.849  10.998 -3.3949 -0.0891 -1.6404
16968SOL    HW255361   8.397   3.863  11.080 -0.5390  1.1801  2.9527
16969SOL     OW55362   8.211   2.101   6.738 -0.3210 -0.3088 -0.0656
16969SOL    HW155363   8.131   2.065   6.699  0.5974 -1.5963 -0.8069
16969SOL    HW255364   8.265   2.024   6.757  2.5970  0.6495 -3.5776
16970SOL     OW55365   7.051   2.004   3.384 -0.2818  0.2236  0.1569
16970SOL    HW155366   7.002   1.986   3.464 -0.0528 -0.2640  0.1895
16970SOL    HW255367   7.092   1.921   3.362  1.2410  0.8153  0.6088
16971SOL     OW55368   1.105   4.325   1.022  0.6766 -0.1917 -0.3490
16971SOL    HW155369   1.188   4.282   0.998  1.0503 -0.1366  0.7854
16971SOL    HW255370   1.051   4.254   1.057  1.0146  0.1013  0.8190
16972SOL     OW55371   8.459  10.666   3.054  0.4077 -0.0107  0.3582
16972SOL    HW155372   8.395  10.732   3.081  1.4536  0.8499  0.7588
16972SOL    HW255373   8.474  10.613   3.133  0.8573  0.3458  0.5138
16973SOL     OW55374   6.188   4.776   6.791 -0.0926 -0.4919  0.0387
16973SOL    HW155375   6.195   4.809   6.701 -2.3476  0.2081  0.0562
16973SOL    HW255376   6.096   4.791   6.815  0.5348 -0.3009  2.6133
16974SOL     OW55377   4.577   8.854   7.591  0.2513 -0.0449  0.1877
16974SOL    HW155378   4.623   8.905   7.657 -0.3021  1.4726 -0.5292
16974SOL    HW255379   4.485   8.860   7.616 -0.2204  2.1766 -1.6274
16975SOL     OW55380   5.783   4.763   8.057  0.0862 -0.3109  0.4703
16975SOL    HW155381   5.770   4.679   8.101  2.5343 -1.1348 -0.2045
16975SOL    HW255382   5.711   4.769   7.994 -1.8466 -0.4318  2.5683
16976SOL     OW55383   0.156   7.173  10.728  0.2066  0.7748 -0.1790
16976SOL    HW155384   0.134   7.241  10.792  0.9194  1.3739 -0.5561
16976SOL    HW255385   0.246   7.149  10.748 -0.0499 -0.1124 -0.0196
16977SOL     OW55386   4.936   6.985   7.064 -0.0351 -0.4496 -0.2551
16977SOL    HW155387   4.960   6.943   7.147  2.5775 -4.3373 -2.6734
16977SOL    HW255388   5.013   7.037   7.041 -0.0878 -0.6746 -0.9468
16978SOL     OW55389   7.158   3.822   6.027  0.2244 -0.1600  0.0673
16978SOL    HW155390   7.115   3.889   5.974  0.0909 -1.1572 -1.1313
16978SOL    HW255391   7.236   3.798   5.977  1.1103  0.1971  1.2402
16979SOL     OW55392   8.519   6.554   8.187 -0.3870 -0.1817 -0.1919
16979SOL    HW155393   8.552   6.469   8.158 -0.6522 -0.0738 -0.8128
16979SOL    HW255394   8.438   6.567   8.139  0.2703  0.9769 -1.0514
16980SOL     OW55395   5.924   8.649   5.313  0.2536 -0.1817 -0.4083
16980SOL    HW155396   5.876   8.697   5.245 -0.1342 -0.1625 -0.1219
16980SOL    HW255397   5.858   8.626   5.378  0.0413 -2.6688 -1.3660
16981SOL     OW55398   7.609   9.192   0.414  0.4915 -0.0908  0.4589
16981SOL    HW155399   7.703   9.214   0.411  0.4544  0.0125 -0.0867
16981SOL    HW255400   7.582   9.193   0.322  0.4735 -2.3438  0.3774
16982SOL     OW55401   1.333   8.050   6.842  0.7074  0.3563  0.1074
16982SOL    HW155402   1.405   8.062   6.780  0.6098  0.1760 -0.0447
16982SOL    HW255403   1.256   8.088   6.798 -0.0238 -2.3561 -1.2082
16983SOL     OW55404   5.021   4.432   2.212 -0.1564  0.4940  0.1708
16983SOL    HW155405   5.017   4.468   2.123  1.9402  0.0249 -0.1756
16983SOL    HW255406   5.060   4.346   2.201  0.6231  0.6282  1.5938
16984SOL     OW55407  10.236   5.770   4.373 -0.3535 -0.4135 -0.2044
16984SOL    HW155408  10.252   5.811   4.458 -0.2693  0.6932 -0.7336
16984SOL    HW255409  10.207   5.681   4.394 -0.9937  0.0579  1.0030
16985SOL     OW55410   5.328   4.028  11.035  0.0760  0.0855  0.4316
16985SOL    HW155411   5.412   4.066  11.063  0.1343  0.5119 -0.2907
16985SOL    HW255412   5.352   3.943  10.999 -0.0292 -0.5811  1.8511
16986SOL     OW55413   4.990   9.730   4.897  0.2064  0.2015  0.0228
16986SOL    HW155414   4.933   9.673   4.846 -0.8037  0.0167  1.3155
16986SOL    HW255415   5.069   9.678   4.913  0.7730  0.4437 -1.7350
16987SOL     OW55416  10.830   3.659  10.507  0.5697  0.5301 -0.9340
16987SOL    HW155417  10.898   3.727  10.506  0.8102  0.3142 -0.0594
16987SOL    HW255418  10.830   3.625  10.418 -0.4097  2.5016 -1.7633
16988SOL     OW55419   5.925   4.215   5.079 -0.0537 -0.0254  0.0054
16988SOL    HW155420   5.866   4.252   5.145  0.0022 -0.9372  0.5836
16988SOL    HW255421   5.992   4.283   5.066 -0.2952  0.3337  0.5778
16989SOL     OW55422   3.304   1.503  10.089 -0.5837 -0.4391  0.0824
16989SOL    HW155423   3.244   1.434  10.063 -0.6964  0.0154 -0.8780
16989SOL    HW255424   3.261   1.585  10.065  0.2890 -0.0959 -0.3955
16990SOL     OW55425   8.702   6.465   1.719  0.1477  0.1716 -0.5338
16990SOL    HW155426   8.741   6.450   1.633  1.0390  0.9351 -0.2748
16990SOL    HW255427   8.760   6.419   1.780  0.6310  1.2652 -0.1509
16991SOL     OW55428   6.486   7.622   4.425 -0.5063  0.3639 -0.2575
16991SOL    HW155429   6.400   7.661   4.408  0.0805  1.1200 -1.7307
16991SOL    HW255430   6.548   7.695   4.415  0.4595 -0.5445 -1.2308
16992SOL     OW55431   1.961   0.124   1.210  0.0783 -0.6581  0.3225
16992SOL    HW155432   1.955   0.172   1.128  0.4332 -1.1512  0.0008
16992SOL    HW255433   1.989   0.189   1.275  0.7302 -0.4689 -0.1418
16993SOL     OW55434   9.582   9.674   8.620  0.5025  0.3411  0.0401
16993SOL    HW155435   9.498   9.631   8.606  1.2761 -1.0493 -0.5504
16993SOL    HW255436   9.576   9.756   8.572  0.2828 -0.8053 -1.9965
16994SOL     OW55437   6.201   7.951   9.427  0.0526  0.3919  0.0582
16994SOL    HW155438   6.269   7.971   9.491  0.8949  0.5645 -0.8738
16994SOL    HW255439   6.122   7.937   9.480  0.8006  0.1919  1.1493
16995SOL     OW55440  10.181   3.514   9.345  0.0209 -0.0536  0.1424
16995SOL    HW155441  10.164   3.539   9.254  2.0397 -1.5522 -0.7330
16995SOL    HW255442  10.141   3.427   9.353 -0.4185  0.2093  0.7816
16996SOL     OW55443   4.617   0.983   0.468  0.7072 -0.1823 -0.8862
16996SOL    HW155444   4.589   1.002   0.558  2.3541  1.4274 -0.6425
16996SOL    HW255445   4.587   0.894   0.452 -0.6578 -0.0889  0.8376
16997SOL     OW55446   2.212   8.555   1.742  0.1512 -0.5224 -0.3327
16997SOL    HW155447   2.272   8.508   1.685 -0.5960 -1.4114 -0.4207
16997SOL    HW255448   2.237   8.529   1.831 -0.2268 -1.0675 -0.3790
16998SOL     OW55449   6.611   3.351   5.128 -0.2635 -0.2628 -0.5277
16998SOL    HW155450   6.652   3.357   5.042 -0.7990 -0.6034 -0.8109
16998SOL    HW255451   6.608   3.257   5.147  0.2082 -0.1649  0.0373
16999SOL     OW55452   0.367   0.236   1.052  0.1525 -0.2903  0.2230
16999SOL    HW155453   0.448   0.186   1.040  1.1025  1.6762 -2.4438
16999SOL    HW255454   0.321   0.191   1.123  1.9300 -3.5495 -0.5186
17000SOL     OW55455   2.362   7.529  10.844 -0.3794  0.4591  0.2894
17000SOL    HW155456   2.298   7.588  10.804  1.9310  2.3894 -0.8137
17000SOL    HW255457   2.443   7.546  10.797  1.2097 -1.1703  2.2362
17001SOL     OW55458   8.837   1.646   9.884 -0.1005 -0.3163 -0.5439
17001SOL    HW155459   8.826   1.736   9.852  0.1056 -0.2642 -0.4651
17001SOL    HW255460   8.834   1.653   9.979 -0.6604 -0.4671 -0.5447
17002SOL     OW55461   4.332   1.455   6.119  0.1298  0.3565  0.3824
17002SOL    HW155462   4.334   1.501   6.203 -0.7220  1.6792 -0.2907
17002SOL    HW255463   4.284   1.374   6.138  1.6820 -0.3219  1.5878
17003SOL     OW55464   2.810   5.098  10.974  0.2558 -0.0706  0.7570
17003SOL    HW155465   2.747   5.087  11.045 -0.4380 -2.1971 -0.1140
17003SOL    HW255466   2.858   5.016  10.971  1.9878  0.9065  0.3269
17004SOL     OW55467   3.322   0.876   6.309  0.0086  0.5268 -0.0972
17004SOL    HW155468   3.262   0.924   6.366  2.0398  1.8608  1.0435
17004SOL    HW255469   3.304   0.784   6.326 -1.7849  0.8856  0.0882
17005SOL     OW55470   4.811   6.093   6.716  0.2851 -0.2926  0.8673
17005SOL    HW155471   4.789   6.000   6.727  1.4893 -0.7151 -0.0409
17005SOL    HW255472   4.728   6.134   6.692 -0.2618 -1.1346  1.2424
17006SOL     OW55473  10.335  11.006   1.429 -0.1284 -0.2248  0.5074
17006SOL    HW155474  10.421  10.979   1.397 -0.7952 -1.2100 -0.5478
17006SOL    HW255475  10.313  10.940   1.495  0.4772  0.7883  1.7582
17007SOL     OW55476   6.321   7.005  10.176  0.2942 -0.1666 -0.2111
17007SOL    HW155477   6.355   7.095  10.173  0.0559  0.0411  1.7009
17007SOL    HW255478   6.387   6.957  10.226 -0.2591 -0.7230 -0.0143
17008SOL     OW55479   3.091   6.936   1.018  0.1971  0.2186 -0.1153
17008SOL    HW155480   3.035   7.005   1.053  0.9743 -0.1139  1.8988
17008SOL    HW255481   3.049   6.912   0.935 -2.6273  0.0371  1.2288
17009SOL     OW55482   9.933   4.081   4.814 -0.0925  0.2740  0.3982
17009SOL    HW155483   9.959   3.995   4.782 -3.4035 -0.6089 -0.3232
17009SOL    HW255484   9.870   4.063   4.884 -0.6525  2.0963  0.4268
17010SOL     OW55485   2.480   4.547   2.484  0.3627 -0.0505 -0.1133
17010SOL    HW155486   2.508   4.611   2.550  1.2504 -0.1673 -0.3616
17010SOL    HW255487   2.447   4.474   2.535  0.6039  0.0555  0.2003
17011SOL     OW55488   3.445   3.741   8.709 -0.1028 -0.0213  0.4064
17011SOL    HW155489   3.450   3.831   8.677 -0.1151 -0.4946 -0.9893
17011SOL    HW255490   3.460   3.687   8.631 -0.8252 -1.2315  1.0745
17012SOL     OW55491   9.271  10.499   3.763  0.0871  0.1156 -0.0723
17012SOL    HW155492   9.230  10.505   3.676  0.2377 -2.1693 -0.3609
17012SOL    HW255493   9.365  10.497   3.745  0.1519  0.5013  0.2195
17013SOL     OW55494   4.712   3.588   2.950 -0.7842 -0.7262 -0.2712
17013SOL    HW155495   4.777   3.659   2.950 -0.5057 -0.8838  2.0760
17013SOL    HW255496   4.700   3.566   2.858  2.5999 -0.7748 -0.8471
17014SOL     OW55497   0.426   4.616   0.023  0.2296 -0.0016  0.3093
17014SOL    HW155498   0.403   4.583   0.110 -0.5880 -0.8365 -0.2059
17014SOL    HW255499   0.507   4.664   0.036  0.0581 -0.0202  1.5568
17015SOL     OW55500   2.824   8.625   9.528  0.6201 -0.3130  0.6631
17015SOL    HW155501   2.917   8.605   9.516  1.0209  1.9355 -0.3782
17015SOL    HW255502   2.778   8.544   9.504  2.2703 -1.5306  1.4037
17016SOL     OW55503   5.778   7.691   5.126 -0.3119 -0.2576  0.3237
17016SOL    HW155504   5.811   7.619   5.179 -0.5760 -1.2334 -0.7993
17016SOL    HW255505   5.842   7.702   5.056 -1.2597 -0.7732 -0.6668
17017SOL     OW55506   5.713   4.545   8.223 -0.0681 -0.4416  0.1942
17017SOL    HW155507   5.706   4.471   8.162  0.4483 -0.0244 -0.3769
17017SOL    HW255508   5.759   4.508   8.299  2.6207 -0.1105 -1.1595
17018SOL     OW55509   7.319   0.787   5.891 -0.3806 -0.2133 -0.1845
17018SOL    HW155510   7.380   0.812   5.822 -0.5058  0.7929  0.0515
17018SOL    HW255511   7.265   0.864   5.905 -1.3780 -0.9204 -0.0272
17019SOL     OW55512   9.100   4.066   1.843  0.0733  0.2098 -0.3862
17019SOL    HW155513   9.074   4.101   1.928 -0.2479  0.6115 -0.6471
17019SOL    HW255514   9.165   4.129   1.811  0.4412 -0.1204 -0.2901
17020SOL     OW55515   9.035   0.662  10.657 -0.5915 -0.4836  0.0837
17020SOL    HW155516   9.001   0.634  10.742  0.6474  0.0478  0.7859
17020SOL    HW255517   9.100   0.729  10.679 -1.4919  0.9402 -1.3721
17021SOL     OW55518   4.039   5.162   3.954  0.1244  1.0551 -0.3038
17021SOL    HW155519   4.066   5.077   3.990 -0.7694  1.3627  1.1795
17021SOL    HW255520   3.960   5.142   3.905  0.9257  0.7580 -1.5172
17022SOL     OW55521   2.513   9.607   3.516  0.2497 -0.0169 -0.7264
17022SOL    HW155522   2.594   9.556   3.519 -0.2987 -0.8765  0.6723
17022SOL    HW255523   2.458   9.568   3.584 -0.3455  2.1973  0.1471
17023SOL     OW55524   2.109   7.518   3.044 -0.1361 -0.1956 -0.2072
17023SOL    HW155525   2.091   7.433   3.005  1.6158 -0.5568 -0.2823
17023SOL    HW255526   2.141   7.499   3.132  0.9465  0.3308 -0.4735
17024SOL     OW55527   5.582   7.274   9.941  0.1119  0.8455 -0.2771
17024SOL    HW155528   5.639   7.301   9.868 -0.7804 -0.6491 -1.6039
17024SOL    HW255529   5.624   7.197   9.977 -0.0675  0.8785  0.0052
17025SOL     OW55530   8.618   7.730   3.424  0.6598  0.4878 -0.3231
17025SOL    HW155531   8.632   7.716   3.330  1.9296  0.6557 -0.1848
17025SOL    HW255532   8.595   7.823   3.431 -0.0864  0.3181 -0.5297
17026SOL     OW55533   4.512   9.633   3.596  0.0766 -0.2797 -0.2695
17026SOL    HW155534   4.587   9.629   3.655 -0.3009  0.1525  0.2463
17026SOL    HW255535   4.519   9.718   3.553 -1.9537  1.3061  2.2879
17027SOL     OW55536   2.665   7.719   4.510  0.0993  0.0437 -0.6606
17027SOL    HW155537   2.667   7.795   4.569  1.9926 -0.5115  0.0569
17027SOL    HW255538   2.705   7.750   4.429 -1.0164  0.3509 -1.1163
17028SOL     OW55539   9.999   5.306   5.220  0.4130 -0.5615  0.6146
17028SOL    HW155540   9.985   5.400   5.205  0.7294 -0.5614  0.3085
17028SOL    HW255541   9.941   5.263   5.157 -1.3455 -0.6105  2.1659
17029SOL     OW55542   9.321   4.430   3.328  0.5069  0.1792 -0.1732
17029SOL    HW155543   9.274   4.466   3.403  2.0060  0.4888  0.6632
17029SOL    HW255544   9.253   4.405   3.266 -0.7476  0.3225  1.1095
17030SOL     OW55545   5.716   9.623   1.924 -0.5046 -0.2289  0.6347
17030SOL    HW155546   5.802   9.638   1.964 -0.7517 -0.6665  1.3444
17030SOL    HW255547   5.735   9.579   1.841 -0.0011  0.4703  0.3677
17031SOL     OW55548   4.086   4.145   4.410 -0.0814 -0.1466 -0.0424
17031SOL    HW155549   4.134   4.102   4.339 -2.6350  0.4892 -2.3009
17031SOL    HW255550   4.061   4.074   4.468  0.7115 -0.9127 -0.6054
17032SOL     OW55551   7.615   5.489   4.179  0.2714 -0.3028  0.5513
17032SOL    HW155552   7.579   5.401   4.168  0.4824 -0.1206 -2.4275
17032SOL    HW255553   7.542   5.541   4.212 -0.8101 -0.9791 -0.6762
17033SOL     OW55554   9.789   4.374   4.007 -0.1788 -0.3253 -0.0874
17033SOL    HW155555   9.841   4.298   3.979  0.1388  0.3785 -1.4997
17033SOL    HW255556   9.817   4.445   3.949 -1.2210  0.6098  0.5181
17034SOL     OW55557   8.746   8.977   1.782 -0.1277 -0.7030  0.6416
17034SOL    HW155558   8.660   9.019   1.770 -0.0742 -0.4688  1.0621
17034SOL    HW255559   8.765   8.987   1.875  1.7945  2.1048  0.1009
17035SOL     OW55560   3.483   1.494   7.382  0.1443  0.1906 -0.0850
17035SOL    HW155561   3.574   1.486   7.352 -0.2456 -1.9505 -0.8577
17035SOL    HW255562   3.446   1.562   7.327  0.8714  0.0003 -0.8366
17036SOL     OW55563   9.786   2.949   9.997  0.4315  0.0091  0.5863
17036SOL    HW155564   9.719   3.008  10.031  0.3219 -1.1499  2.4910
17036SOL    HW255565   9.810   2.893  10.071  2.5245 -0.5218 -0.3944
17037SOL     OW55566   9.696   6.285   1.002 -0.1458  0.0225 -0.0056
17037SOL    HW155567   9.641   6.241   1.066  0.9913 -1.3043  0.1338
17037SOL    HW255568   9.702   6.222   0.929  1.7091 -0.2101  0.2930
17038SOL     OW55569   6.270   0.130   8.274 -0.3099 -0.0159  0.0531
17038SOL    HW155570   6.297   0.099   8.360  1.4645  0.0715 -0.4370
17038SOL    HW255571   6.248   0.223   8.287  4.2867  1.3537 -0.2893
17039SOL     OW55572   5.490   7.763   9.996 -0.5192  0.3709  0.0080
17039SOL    HW155573   5.454   7.850   9.978 -1.8225 -0.2467 -0.5427
17039SOL    HW255574   5.415   7.713  10.027  0.1816 -0.6095  0.1495
17040SOL     OW55575   1.939   9.987  10.317  0.2422  0.0646  0.4152
17040SOL    HW155576   1.879   9.992  10.243  0.1990 -0.9138  0.3675
17040SOL    HW255577   2.020   9.953  10.280  1.7406  3.7038 -0.0186
17041SOL     OW55578   2.715   1.053   2.466 -0.1124 -0.1781 -0.3588
17041SOL    HW155579   2.640   0.995   2.456 -0.3063 -0.3215  1.5519
17041SOL    HW255580   2.789   0.995   2.485  0.1575  0.0595 -0.6595
17042SOL     OW55581   8.294   1.989   2.090  0.4249 -0.2548  0.2959
17042SOL    HW155582   8.335   2.070   2.122  1.1124 -1.0403  1.5243
17042SOL    HW255583   8.200   2.004   2.102  0.4892  0.6612 -0.2534
17043SOL     OW55584   0.963   1.861   7.749 -0.1674  0.7201  0.0966
17043SOL    HW155585   0.872   1.878   7.771 -0.4438  0.8434 -1.0362
17043SOL    HW255586   0.982   1.923   7.679  0.6533  0.3986  0.0220
17044SOL     OW55587   1.012   6.576   7.820  0.5188  0.5622 -0.1929
17044SOL    HW155588   0.949   6.550   7.887  1.9456 -1.4121  0.4703
17044SOL    HW255589   0.979   6.661   7.788 -0.2457  1.5702  2.9140
17045SOL     OW55590   1.102  10.070   7.792  0.2631  0.1830  0.5066
17045SOL    HW155591   1.013  10.051   7.762 -0.4049 -0.1385  2.5390
17045SOL    HW255592   1.156  10.003   7.750 -0.8400 -1.1395  1.0903
17046SOL     OW55593   7.564   7.649   5.294 -0.0781 -0.3326  0.0700
17046SOL    HW155594   7.628   7.709   5.254 -0.3009  0.0793  0.3276
17046SOL    HW255595   7.592   7.562   5.265  0.6944 -0.1718  0.3044
17047SOL     OW55596   4.157   1.595   5.218 -0.1748  0.2863  0.0992
17047SOL    HW155597   4.238   1.629   5.179  0.7378 -0.7075  1.0512
17047SOL    HW255598   4.172   1.501   5.226 -1.5625  0.0470  0.0143
17048SOL     OW55599   3.906   9.137   0.776 -0.3391  0.6508  0.7427
17048SOL    HW155600   3.856   9.159   0.698 -0.1139 -0.6581  0.2092
17048SOL    HW255601   3.877   9.048   0.799  3.0225 -1.0194 -0.7273
17049SOL     OW55602   2.256   7.975   4.372  0.2601  0.5594  0.8644
17049SOL    HW155603   2.286   7.960   4.462  0.6325  1.6276  0.9277
17049SOL    HW255604   2.164   7.948   4.372  0.7258 -1.1411  1.1036
17050SOL     OW55605   7.382  10.295   2.452 -0.6461 -0.1589 -0.2031
17050SOL    HW155606   7.431  10.377   2.449  0.4418 -0.7569  0.6678
17050SOL    HW255607   7.442  10.230   2.415 -1.2917 -0.6717 -0.3666
17051SOL     OW55608   5.452   6.542   9.023 -0.2159  0.3065 -0.2590
17051SOL    HW155609   5.472   6.630   9.054 -0.8114  0.6571 -0.8304
17051SOL    HW255610   5.364   6.525   9.057  0.0442 -0.2254  0.1631
17052SOL     OW55611   4.068   0.973   5.124 -0.4952  0.8224  0.7097
17052SOL    HW155612   4.056   1.064   5.099  1.5374  0.8829 -0.3289
17052SOL    HW255613   4.060   0.925   5.041 -0.2747  0.2168  1.0331
17053SOL     OW55614   9.027  10.807   5.748  0.1863  0.2857  0.2868
17053SOL    HW155615   9.100  10.851   5.791  0.1808  1.4141 -0.8107
17053SOL    HW255616   8.952  10.865   5.761 -0.0685  0.0855 -0.2638
17054SOL     OW55617   3.961   8.231   5.395 -0.3181 -0.2084  0.9266
17054SOL    HW155618   4.043   8.259   5.355 -0.4600 -1.5174 -0.4038
17054SOL    HW255619   3.961   8.270   5.482  1.5052  0.1770  0.7855
17055SOL     OW55620   9.577   8.009   6.993 -0.2382 -0.0451  0.2295
17055SOL    HW155621   9.580   8.064   6.914  0.9874 -0.5590 -0.1052
17055SOL    HW255622   9.581   8.072   7.065  0.1293  0.3619 -0.1346
17056SOL     OW55623   4.807   2.763   9.170 -0.1830 -0.2352 -0.0615
17056SOL    HW155624   4.843   2.767   9.082 -0.2909  0.9904 -0.0690
17056SOL    HW255625   4.712   2.763   9.158 -0.1984 -0.0853  0.0577
17057SOL     OW55626  10.416   0.068   6.625 -0.0652 -0.1930 -0.0787
17057SOL    HW155627  10.472   0.016   6.681  0.0720 -1.0034 -0.9354
17057SOL    HW255628  10.335   0.080   6.676 -0.4525 -2.0331 -0.1921
17058SOL     OW55629   9.938   2.668   0.715 -1.0661 -0.6857 -0.2163
17058SOL    HW155630  10.031   2.689   0.707 -1.2346  0.1471 -0.0654
17058SOL    HW255631   9.895   2.753   0.730 -1.5120 -1.3501  2.8036
17059SOL     OW55632   1.362   4.683   1.636 -0.3525  0.2018 -0.3785
17059SOL    HW155633   1.406   4.658   1.717 -0.7313  2.3231  0.5363
17059SOL    HW255634   1.432   4.707   1.576 -0.1210  1.9422  0.5157
17060SOL     OW55635   0.552   7.421   7.038 -0.1399  0.0091  0.5182
17060SOL    HW155636   0.591   7.334   7.038  0.8346  0.4144 -0.7410
17060SOL    HW255637   0.601   7.470   7.104 -0.2663 -0.2116  0.7775
17061SOL     OW55638   6.313   9.117   9.217 -0.1450 -0.1367  0.0167
17061SOL    HW155639   6.271   9.153   9.139 -0.0220 -1.8589 -0.8863
17061SOL    HW255640   6.261   9.039   9.238 -1.1545  1.0881  2.6304
17062SOL     OW55641   6.726   0.916   8.346  0.4238 -0.2033  0.2116
17062SOL    HW155642   6.780   0.994   8.359  0.0278  0.0858  0.1525
17062SOL    HW255643   6.640   0.951   8.324  0.0682 -0.6510  0.8533
17063SOL     OW55644   3.312   5.521   1.507  0.3788  0.2158 -0.0147
17063SOL    HW155645   3.313   5.612   1.533  0.4422  0.5095 -0.9914
17063SOL    HW255646   3.289   5.523   1.414  0.1537 -0.7725  0.0053
17064SOL     OW55647   2.756   6.966   7.042  0.0377  0.5809 -0.4020
17064SOL    HW155648   2.758   6.871   7.035  0.9680  0.5755 -0.0895
17064SOL    HW255649   2.753   6.984   7.136  0.8428  0.8701 -0.4260
17065SOL     OW55650   7.639  10.705   1.392  0.3458 -0.2447  0.8937
17065SOL    HW155651   7.589  10.624   1.384  1.5184 -0.9671  0.5138
17065SOL    HW255652   7.581  10.766   1.437 -0.9184 -0.9778  0.2882
17066SOL     OW55653  10.590   9.235   2.805  0.1214  0.0112 -0.3890
17066SOL    HW155654  10.551   9.247   2.718  0.0301  0.4615 -0.2883
17066SOL    HW255655  10.548   9.156   2.839 -0.7262  0.4910 -0.2839
17067SOL     OW55656  10.023   8.204   3.965 -0.3945  0.1873  0.4973
17067SOL    HW155657   9.956   8.262   3.929 -0.2896 -0.3243 -0.5674
17067SOL    HW255658  10.008   8.120   3.921  1.2789  0.2086 -0.1701
17068SOL     OW55659   6.157   4.297   6.764  0.0593  0.3209  0.3153
17068SOL    HW155660   6.188   4.219   6.718 -1.7170 -0.1478 -0.1796
17068SOL    HW255661   6.220   4.310   6.835  1.4932 -0.3846 -0.7757
17069SOL     OW55662   2.180   0.086   1.782 -0.1289  0.4168 -0.7923
17069SOL    HW155663   2.138   0.169   1.758  0.7375  1.7653  2.0043
17069SOL    HW255664   2.121   0.047   1.846  2.2435  2.0188  2.6874
17070SOL     OW55665   7.445   2.267   3.205 -0.0432 -0.6401  0.2494
17070SOL    HW155666   7.358   2.228   3.218  0.9053 -3.0737 -0.1512
17070SOL    HW255667   7.506   2.201   3.238  1.6943  0.9253  0.3437
17071SOL     OW55668   7.604   1.349  10.448  0.2039  0.1589  0.3924
17071SOL    HW155669   7.562   1.360  10.363  1.3010 -1.1143 -0.3522
17071SOL    HW255670   7.663   1.274  10.436  1.8401  1.1720  1.7159
17072SOL     OW55671   8.634   2.138   2.848  0.6185  0.0586  0.1652
17072SOL    HW155672   8.702   2.194   2.886  2.0183 -0.3685 -1.5347
17072SOL    HW255673   8.623   2.173   2.759 -0.0800 -0.9824 -0.1747
17073SOL     OW55674   6.262  10.130   6.222 -0.5626  0.2111  0.6344
17073SOL    HW155675   6.355  10.107   6.220 -0.6046 -0.1420  1.9099
17073SOL    HW255676   6.217  10.048   6.242 -1.1513  0.4017  0.1294
17074SOL     OW55677   8.651   9.922   5.295 -0.3013  0.3698 -0.1414
17074SOL    HW155678   8.747   9.931   5.293 -0.2039 -0.4196 -2.7904
17074SOL    HW255679   8.620  10.008   5.324  1.1860  1.2824 -1.1121
17075SOL     OW55680   2.295   8.247   8.824  0.4162 -0.0743 -0.4148
17075SOL    HW155681   2.386   8.243   8.856 -0.3086 -0.8104  1.7223
17075SOL    HW255682   2.261   8.329   8.861  0.0454 -0.0765 -0.7467
17076SOL     OW55683   9.386  10.902   2.926 -0.2572 -0.2247 -0.2813
17076SOL    HW155684   9.406  10.960   2.853 -1.7582  0.6094 -0.0801
17076SOL    HW255685   9.363  10.819   2.884 -0.4673  0.0550 -0.7316
17077SOL     OW55686   0.319  10.729   2.726 -0.0653 -0.0362 -0.2899
17077SOL    HW155687   0.245  10.679   2.761 -0.7841  1.5844  0.6443
17077SOL    HW255688   0.370  10.753   2.803  2.1438 -2.0960 -1.0166
17078SOL     OW55689   5.773   8.805   0.619  0.7369  0.0428 -0.4761
17078SOL    HW155690   5.830   8.857   0.562  0.4887 -1.1745 -1.9231
17078SOL    HW255691   5.715   8.759   0.558 -0.3967 -0.3483  0.8567
17079SOL     OW55692   4.859   2.663  10.659  0.2854  0.4524 -0.3615
17079SOL    HW155693   4.940   2.689  10.702 -1.9762  1.1625  3.9917
17079SOL    HW255694   4.811   2.745  10.647 -0.7449 -0.1891 -0.7385
17080SOL     OW55695   0.685   6.840  10.575  0.1616  0.0533  0.1973
17080SOL    HW155696   0.692   6.888  10.657  0.0347  1.9365 -0.8407
17080SOL    HW255697   0.767   6.857  10.530 -0.1387 -0.1905 -0.4598
17081SOL     OW55698   7.365   1.428   0.625 -0.1497 -0.0202 -0.1309
17081SOL    HW155699   7.296   1.490   0.651  1.3903  1.0776  1.5544
17081SOL    HW255700   7.332   1.342   0.650 -1.9215  0.1564 -1.6301
17082SOL     OW55701   3.305   0.624   1.440 -0.0021 -0.0477 -0.2172
17082SOL    HW155702   3.292   0.719   1.439  0.1204 -0.0286  0.0122
17082SOL    HW255703   3.301   0.600   1.532  0.3902 -0.2053 -0.2382
17083SOL     OW55704   9.563   2.698   2.817 -0.4928 -0.1670  0.4738
17083SOL    HW155705   9.540   2.742   2.898  1.6690  0.0277  1.0369
17083SOL    HW255706   9.508   2.739   2.750 -0.3075  1.6339  1.3921
17084SOL     OW55707   8.852   8.546   7.048 -0.3268  0.1247 -0.1725
17084SOL    HW155708   8.782   8.557   6.984  0.9047  0.2822 -1.5481
17084SOL    HW255709   8.912   8.482   7.008  1.5287  1.7520 -0.1605
17085SOL     OW55710   5.437   2.096   9.840 -0.2746  0.1831  0.0465
17085SOL    HW155711   5.503   2.048   9.890 -0.3459  0.0931  0.0558
17085SOL    HW255712   5.439   2.184   9.876  0.8273  0.5736 -0.8981
17086SOL     OW55713   6.949   9.337   2.754 -0.4100  0.1643  0.0295
17086SOL    HW155714   7.009   9.379   2.815 -1.4955  1.9852 -0.0842
17086SOL    HW255715   6.938   9.400   2.683  0.2122 -1.5778 -1.6971
17087SOL     OW55716   4.252   3.588   4.732 -0.2668 -0.4585  0.1857
17087SOL    HW155717   4.246   3.495   4.755  0.9548 -0.5484  0.2030
17087SOL    HW255718   4.331   3.619   4.777  0.3774  0.1312 -1.2932
17088SOL     OW55719   0.721   8.686  10.182  0.2534 -0.1969 -0.6052
17088SOL    HW155720   0.796   8.739  10.208  0.7198 -0.6932 -0.9224
17088SOL    HW255721   0.724   8.685  10.086  0.3836 -0.9734 -0.5992
17089SOL     OW55722  10.936   3.845   6.830  0.0940  0.6597 -0.3916
17089SOL    HW155723  10.933   3.930   6.786 -0.4784  1.2145  0.6911
17089SOL    HW255724  10.858   3.844   6.886  1.5463  0.5785  1.7134
17090SOL     OW55725   3.506   7.546   4.351  0.2153 -0.1673 -0.7545
17090SOL    HW155726   3.569   7.494   4.301  0.1211 -0.3802 -0.6532
17090SOL    HW255727   3.421   7.516   4.320  0.0748 -2.2508  1.4492
17091SOL     OW55728   7.233   6.493   6.912  0.3865 -0.1139 -0.0033
17091SOL    HW155729   7.318   6.468   6.875  0.5452 -0.2735  0.4643
17091SOL    HW255730   7.206   6.569   6.860  2.0777  1.6504  1.5235
17092SOL     OW55731   6.236   0.078   7.715  0.0830 -0.2424  0.0913
17092SOL    HW155732   6.311   0.136   7.707 -0.6959  0.6869 -0.7308
17092SOL    HW255733   6.265   0.008   7.774  1.3638  0.4408  0.2894
17093SOL     OW55734   4.692  10.057   3.412 -0.7049  0.1736 -0.4523
17093SOL    HW155735   4.751  10.026   3.344 -1.6937 -0.7191 -0.9298
17093SOL    HW255736   4.618  10.094   3.364 -1.6419 -0.9047  0.1033
17094SOL     OW55737   0.626   7.720   1.969  0.2223  0.2651  0.1821
17094SOL    HW155738   0.555   7.655   1.965 -0.3369  0.7511  1.5014
17094SOL    HW255739   0.609   7.779   1.896 -0.2213 -0.1303 -0.0396
17095SOL     OW55740   5.532   3.418   0.662  0.3452 -0.2521 -0.5763
17095SOL    HW155741   5.531   3.332   0.703  1.2777  0.2538  0.5735
17095SOL    HW255742   5.583   3.406   0.582 -0.6850 -1.0505 -1.1350
17096SOL     OW55743  10.791   0.828  10.852  0.1685  0.2867  0.0213
17096SOL    HW155744  10.872   0.783  10.827 -0.0375  0.5387 -1.1844
17096SOL    HW255745  10.803   0.850  10.944  1.3593  0.0896 -0.0702
17097SOL     OW55746   7.136   6.224   6.887 -0.2170  0.2976 -0.3432
17097SOL    HW155747   7.216   6.242   6.937 -0.6005 -0.0345  0.3953
17097SOL    HW255748   7.153   6.140   6.845 -0.0496  0.3839 -0.4495
17098SOL     OW55749   6.714  10.265   4.779  0.5092  0.5543 -0.2210
17098SOL    HW155750   6.704  10.172   4.757  0.5049  0.5815 -0.3343
17098SOL    HW255751   6.627  10.293   4.806  0.6587  0.3512  0.4887
17099SOL     OW55752   2.005  10.422   7.817 -0.1734 -0.3737  0.3403
17099SOL    HW155753   2.078  10.474   7.783 -1.0731  0.2751 -0.6411
17099SOL    HW255754   2.040  10.383   7.897  0.6286  1.5262  0.9897
17100SOL     OW55755   7.023   4.940   6.763 -0.0711 -0.0400 -0.3662
17100SOL    HW155756   7.028   5.035   6.750  1.3056 -0.0054  0.2878
17100SOL    HW255757   7.086   4.904   6.701  0.1383 -0.4623  0.0904
17101SOL     OW55758   7.356   2.751   1.501  0.4972  0.2261 -0.4128
17101SOL    HW155759   7.366   2.846   1.514  3.3993  0.2604 -1.9107
17101SOL    HW255760   7.421   2.730   1.434 -0.0717 -2.8542 -0.1323
17102SOL     OW55761  10.901   0.964   1.075 -0.1886 -0.4306  0.0551
17102SOL    HW155762  10.918   1.033   1.140 -0.2335 -1.1864  0.8967
17102SOL    HW255763  10.854   1.008   1.005 -0.3134  0.3760  0.6286
17103SOL     OW55764   2.456   7.051   6.693 -0.5487 -0.3495 -0.2828
17103SOL    HW155765   2.525   7.026   6.632  0.2579  1.2481 -0.0606
17103SOL    HW255766   2.475   7.000   6.772 -0.1684 -0.6046 -0.5338
17104SOL     OW55767   2.139   7.923   8.129 -0.4426 -0.4635  0.0208
17104SOL    HW155768   2.075   7.885   8.189 -0.2550 -0.8295 -0.0050
17104SOL    HW255769   2.087   7.964   8.060 -0.6983  0.9844  1.0211
17105SOL     OW55770   1.235   2.348   8.373  0.0145  0.7135  0.4032
17105SOL    HW155771   1.264   2.362   8.283 -1.4188 -1.8920 -0.5851
17105SOL    HW255772   1.291   2.279   8.406 -1.3694 -0.4563  0.4077
17106SOL     OW55773   0.264   7.498   5.269 -0.8082 -0.7427 -0.4404
17106SOL    HW155774   0.243   7.523   5.179 -2.1746  0.1738  0.1044
17106SOL    HW255775   0.338   7.554   5.293 -0.6741 -0.7364 -0.8664
17107SOL     OW55776   5.418   4.100   6.917 -0.5050  0.7262 -0.3015
17107SOL    HW155777   5.469   4.087   6.836 -0.4163  1.3262 -0.3474
17107SOL    HW255778   5.452   4.182   6.953 -2.0101  1.5849 -0.7589
17108SOL     OW55779   0.576   6.697   7.644  0.2655  0.0786  0.1155
17108SOL    HW155780   0.550   6.779   7.688  0.1813  0.3902 -0.5012
17108SOL    HW255781   0.559   6.714   7.552  0.5583 -0.5271 -0.0498
17109SOL     OW55782   5.539   1.732   4.210 -0.2076  0.3517  0.2222
17109SOL    HW155783   5.471   1.666   4.201 -0.1845  0.3827 -0.2011
17109SOL    HW255784   5.611   1.687   4.254  1.0336 -0.8442 -2.7534
17110SOL     OW55785   5.545  10.193   4.371  0.2670 -0.3961 -0.2965
17110SOL    HW155786   5.460  10.222   4.338  0.6840 -0.4944 -1.5180
17110SOL    HW255787   5.595  10.172   4.292  1.1072 -1.2466  0.4417
17111SOL     OW55788  10.166   3.015   8.459 -0.1367 -0.0057  0.2972
17111SOL    HW155789  10.173   3.037   8.552 -0.4737 -0.3665  0.4128
17111SOL    HW255790  10.226   2.941   8.448 -1.0026 -0.7610  0.5031
17112SOL     OW55791   4.485   1.648   8.272 -0.8793  0.0047  0.0913
17112SOL    HW155792   4.501   1.703   8.349 -1.6015  0.4012 -0.0329
17112SOL    HW255793   4.558   1.585   8.272 -0.6305  0.2795  0.8427
17113SOL     OW55794   8.887   8.078   8.383 -0.1553 -0.4696 -0.4596
17113SOL    HW155795   8.952   8.068   8.453 -1.4123 -0.3930  0.7635
17113SOL    HW255796   8.866   8.171   8.382 -0.9950 -0.6407 -0.1156
17114SOL     OW55797   5.057   5.371  10.096  0.0676  0.5426  0.3458
17114SOL    HW155798   5.055   5.296  10.036  0.6093  1.3879 -0.7601
17114SOL    HW255799   5.052   5.448  10.039  1.6286  1.4089  1.2975
17115SOL     OW55800  10.804   3.429   2.586  0.3619 -0.3751  0.0611
17115SOL    HW155801  10.899   3.424   2.582  0.8406  4.2546  0.3744
17115SOL    HW255802  10.784   3.412   2.678  0.9953 -0.5312  0.1768
17116SOL     OW55803   3.144   0.486   7.206  0.7670 -0.5248 -0.1163
17116SOL    HW155804   3.190   0.420   7.154 -1.8134 -3.2222  0.7627
17116SOL    HW255805   3.188   0.484   7.291  1.6893  0.0906 -0.5601
17117SOL     OW55806   4.862  10.282   6.925 -0.1984 -0.0206 -0.2091
17117SOL    HW155807   4.879  10.299   6.832 -1.7091  1.3699 -0.2637
17117SOL    HW255808   4.767  10.274   6.931 -0.1835  0.6371  1.3232
17118SOL     OW55809   9.083   6.671   2.056 -0.2294 -0.0933 -0.7443
17118SOL    HW155810   8.990   6.679   2.034 -0.8225 -0.9475  1.2595
17118SOL    HW255811   9.107   6.758   2.087 -0.8932 -0.3280  0.5025
17119SOL     OW55812   1.974   7.926   1.538  0.1051 -0.3932  0.5170
17119SOL    HW155813   1.981   7.893   1.449  1.3915  1.7691 -0.2816
17119SOL    HW255814   2.051   7.892   1.583  0.2028 -0.3567  0.3771
17120SOL     OW55815   3.181   7.235   4.482 -0.6010 -0.0592 -0.1867
17120SOL    HW155816   3.112   7.225   4.548 -0.3928 -0.4930 -0.0368
17120SOL    HW255817   3.240   7.161   4.496  0.3571  0.7650  0.2292
17121SOL     OW55818   2.138   0.133   7.517  0.2629 -0.3951 -0.3407
17121SOL    HW155819   2.230   0.156   7.520  0.4895 -1.3374  0.5366
17121SOL    HW255820   2.135   0.041   7.543 -0.9595 -0.2516  0.1330
17122SOL     OW55821   9.795   2.923   9.160  0.1785  0.0203 -0.1952
17122SOL    HW155822   9.712   2.877   9.151 -0.1399  0.8128 -1.4182
17122SOL    HW255823   9.797   2.986   9.088  0.4327  2.2107  1.6193
17123SOL     OW55824   9.404   3.125   8.620 -0.0463 -0.3668  0.9497
17123SOL    HW155825   9.400   3.104   8.714 -0.3000 -0.3487  0.9439
17123SOL    HW255826   9.399   3.040   8.577  0.6865 -0.4228  0.9650
17124SOL     OW55827   2.360   5.271   3.278  0.4795 -0.5086 -0.4386
17124SOL    HW155828   2.446   5.270   3.319  0.5254 -0.9897 -0.5353
17124SOL    HW255829   2.332   5.363   3.281  0.8164 -0.4179 -0.0416
17125SOL     OW55830   4.577   2.921   7.141  0.0835  0.5281  0.1135
17125SOL    HW155831   4.572   2.988   7.210  0.7925  1.0263 -0.3098
17125SOL    HW255832   4.646   2.952   7.083  2.4870 -2.0373  1.4330
17126SOL     OW55833   6.642   7.924   7.418  0.3582 -0.2662  0.1397
17126SOL    HW155834   6.724   7.969   7.399  0.8554 -0.9902  0.4939
17126SOL    HW255835   6.669   7.838   7.450 -0.4965 -0.0980  1.4051
17127SOL     OW55836   8.499   6.021   4.614  0.3308  0.1893  0.6357
17127SOL    HW155837   8.497   6.046   4.522  1.1945 -0.4173  0.4370
17127SOL    HW255838   8.489   5.926   4.613  0.4288  0.1712  1.1624
17128SOL     OW55839   2.990   1.070   8.840  0.2801 -0.3067 -0.3112
17128SOL    HW155840   2.907   1.075   8.888 -0.1042 -1.5740 -0.8136
17128SOL    HW255841   3.009   0.977   8.833  0.5478 -0.1605 -2.2175
17129SOL     OW55842  10.429   6.789   1.965  0.8139  0.6917  0.1990
17129SOL    HW155843  10.477   6.870   1.949 -0.0091  1.3884  1.1190
17129SOL    HW255844  10.464   6.756   2.048  1.8820 -0.4767 -0.6886
17130SOL     OW55845   7.856   7.274  10.384  0.2727  0.1988  0.3054
17130SOL    HW155846   7.921   7.264  10.315 -1.5231 -1.5603 -1.2774
17130SOL    HW255847   7.772   7.278  10.337 -1.0054 -0.7598  2.3591
17131SOL     OW55848   4.915   2.756   8.529 -0.1916 -0.2526  0.6947
17131SOL    HW155849   4.940   2.777   8.439 -0.0582 -0.1053  0.7664
17131SOL    HW255850   4.985   2.793   8.583 -0.1371 -0.5684  0.8417
17132SOL     OW55851   6.171   6.245  10.742 -0.3117 -0.1425 -0.7993
17132SOL    HW155852   6.191   6.245  10.836  0.6382 -2.0547 -0.9586
17132SOL    HW255853   6.181   6.154  10.716 -2.4683  0.0242 -2.3976
17133SOL     OW55854   8.137   2.145  10.942 -0.0169  0.6593 -0.2163
17133SOL    HW155855   8.148   2.141  10.847 -0.7738  0.0457 -0.2835
17133SOL    HW255856   8.046   2.169  10.955 -0.1460 -0.1028  0.3585
17134SOL     OW55857   8.971   8.173   7.769 -0.0010 -0.1957  0.5889
17134SOL    HW155858   8.962   8.207   7.680 -1.3195 -0.8702  0.4373
17134SOL    HW255859   9.049   8.217   7.804  0.0787  0.6701 -0.6156
17135SOL     OW55860   3.268   7.256   5.477  0.3850 -0.3330 -0.2507
17135SOL    HW155861   3.277   7.166   5.508 -1.4738 -0.5303 -0.1727
17135SOL    HW255862   3.224   7.248   5.392  0.1727  0.4998 -0.2306
17136SOL     OW55863   6.122   7.841  10.064 -0.5732 -0.0795  0.2426
17136SOL    HW155864   6.082   7.781  10.001 -2.4210 -0.8238  2.0204
17136SOL    HW255865   6.196   7.791  10.099 -1.7743 -1.1611  1.3137
17137SOL     OW55866  10.552   8.545   7.413  0.1467 -0.4352 -0.3059
17137SOL    HW155867  10.641   8.521   7.388 -0.6147 -2.7186 -1.0610
17137SOL    HW255868  10.545   8.523   7.506  0.7387  1.0319  0.1119
17138SOL     OW55869   5.186   2.697   1.200 -0.0893 -0.3367  0.0891
17138SOL    HW155870   5.169   2.752   1.124 -0.8244  0.7357  0.9962
17138SOL    HW255871   5.099   2.669   1.229  0.2835 -2.4881 -0.6750
17139SOL     OW55872   5.596   0.980   9.580 -0.0600  0.3748 -0.0953
17139SOL    HW155873   5.557   1.067   9.587 -0.6817  0.1045 -0.0487
17139SOL    HW255874   5.619   0.971   9.487  0.0905  0.6234 -0.0799
17140SOL     OW55875   1.491   9.832   1.729 -0.4693  0.0666 -0.4179
17140SOL    HW155876   1.414   9.832   1.786 -1.6530 -1.3740 -1.9136
17140SOL    HW255877   1.560   9.790   1.781 -0.5022  1.8012  1.1090
17141SOL     OW55878   2.304   9.034   5.657 -0.6029 -0.3582  0.5856
17141SOL    HW155879   2.325   9.067   5.569 -2.3608  0.1435  0.3140
17141SOL    HW255880   2.359   9.085   5.716  0.9010 -0.9836 -0.2278
17142SOL     OW55881   6.821  10.013   3.711 -0.1711 -0.5361 -0.0012
17142SOL    HW155882   6.835  10.093   3.661  0.3626 -0.8989 -0.4470
17142SOL    HW255883   6.874   9.947   3.666  0.2675 -0.8880  1.0071
17143SOL     OW55884   5.578   7.925   4.421 -0.0176 -0.2756 -0.0361
17143SOL    HW155885   5.583   7.913   4.516 -2.1016 -2.3491 -0.1132
17143SOL    HW255886   5.653   7.876   4.387 -0.1594 -0.8450  0.4641
17144SOL     OW55887   6.640   0.194   0.105  0.0959 -0.2291  0.7598
17144SOL    HW155888   6.579   0.179   0.033  1.4194  3.1160 -1.2542
17144SOL    HW255889   6.721   0.150   0.078  0.3067  0.2121  0.6740
17145SOL     OW55890   7.280   6.885   8.940 -0.2042 -0.5767  0.3353
17145SOL    HW155891   7.277   6.793   8.966  1.8705 -0.4655  1.1570
17145SOL    HW255892   7.236   6.932   9.011  0.0719 -0.8093  0.6617
17146SOL     OW55893   4.035   6.588   5.754 -0.2274  0.3026 -0.1057
17146SOL    HW155894   3.957   6.586   5.810  0.4250 -1.5758  0.8279
17146SOL    HW255895   4.100   6.634   5.808 -0.0452 -0.1435  0.0586
17147SOL     OW55896   9.544   3.501  10.127  0.2606  0.3732 -0.7156
17147SOL    HW155897   9.522   3.469  10.039  2.5546 -2.3538 -0.4398
17147SOL    HW255898   9.573   3.591  10.112  1.7369 -0.3706 -3.0233
17148SOL     OW55899   8.279  10.711   0.994  0.3837  0.3320  0.0598
17148SOL    HW155900   8.280  10.807   1.003  0.8004  0.5766 -2.0799
17148SOL    HW255901   8.367  10.689   0.963 -0.5849 -0.3245 -2.5242
17149SOL     OW55902   3.167   1.890   0.731  0.0223 -0.6126  0.3183
17149SOL    HW155903   3.203   1.820   0.676  1.0076  0.6383 -0.6883
17149SOL    HW255904   3.106   1.937   0.675  0.1145 -0.0607  0.6676
17150SOL     OW55905   5.960   1.338   9.468 -0.1822  0.2171  0.2667
17150SOL    HW155906   5.996   1.252   9.487  0.3668  0.3210 -0.2621
17150SOL    HW255907   5.953   1.340   9.372 -0.8038  0.5175  0.3096
17151SOL     OW55908  10.260   5.131   4.304 -0.0881 -0.4216 -0.7646
17151SOL    HW155909  10.189   5.192   4.325 -1.0679 -1.6759 -0.3113
17151SOL    HW255910  10.339   5.175   4.336 -0.7629  0.6272 -0.4804
17152SOL     OW55911   9.816   1.322   0.431  0.2964 -0.6207  0.0389
17152SOL    HW155912   9.790   1.363   0.513 -0.0454  0.9581 -0.8138
17152SOL    HW255913   9.738   1.330   0.375  0.4598 -1.8485 -0.3883
17153SOL     OW55914   6.650   0.462   5.508 -0.5514 -0.0561  0.1088
17153SOL    HW155915   6.663   0.397   5.577  0.9830  0.5871  0.4800
17153SOL    HW255916   6.615   0.412   5.435 -0.7892 -1.0284  0.8632
17154SOL     OW55917   6.349   7.967   0.575  0.0563  0.4398 -0.7010
17154SOL    HW155918   6.310   7.974   0.661  2.6997 -0.7554  0.7232
17154SOL    HW255919   6.360   8.057   0.545 -1.7610  0.8329 -0.2594
17155SOL     OW55920   7.127   3.168   4.337 -0.5469 -0.2207 -0.3289
17155SOL    HW155921   7.119   3.235   4.405  0.6727 -2.2069  1.9480
17155SOL    HW255922   7.210   3.125   4.356 -0.1488 -0.8911 -3.1535
17156SOL     OW55923   5.710   0.275   1.356  0.1868 -0.5171 -0.2696
17156SOL    HW155924   5.795   0.273   1.313  0.2853 -0.8739 -0.0600
17156SOL    HW255925   5.723   0.332   1.432 -0.2034  0.7928 -1.1539
17157SOL     OW55926   7.637  10.406   2.482  0.6014 -0.2061 -0.1650
17157SOL    HW155927   7.689  10.448   2.551  1.1534 -1.1172 -0.0045
17157SOL    HW255928   7.689  10.330   2.456 -0.0786 -0.4388 -0.8813
17158SOL     OW55929   8.923  10.618   0.662 -0.5176 -0.1965 -0.0986
17158SOL    HW155930   8.848  10.669   0.691 -0.4920 -0.4929  0.5190
17158SOL    HW255931   8.997  10.653   0.713 -0.1246  0.4864 -1.1216
17159SOL     OW55932   7.053   2.863   4.150  0.1129  0.0455  0.0902
17159SOL    HW155933   7.053   2.775   4.187 -0.0866  0.5438  1.3429
17159SOL    HW255934   6.999   2.914   4.210  0.4491  1.0794 -0.4617
17160SOL     OW55935   9.652   0.153   1.759  0.6779  0.4867 -0.0887
17160SOL    HW155936   9.568   0.166   1.715  1.1489  0.9445 -0.8698
17160SOL    HW255937   9.676   0.063   1.737 -0.6409 -0.4554  1.9765
17161SOL     OW55938   7.381   7.394   9.186  0.8835 -0.1126  0.4848
17161SOL    HW155939   7.364   7.423   9.275 -1.1267  1.2923 -0.2969
17161SOL    HW255940   7.295   7.377   9.149  1.6724 -0.7242 -1.2010
17162SOL     OW55941   1.181   4.143   6.548 -0.0652  0.1918 -0.1459
17162SOL    HW155942   1.255   4.193   6.515 -0.6363  1.5781  0.5600
17162SOL    HW255943   1.182   4.061   6.499  2.6774 -0.3939  0.7160
17163SOL     OW55944  10.286   9.374   2.009 -0.2511 -0.3362 -0.0265
17163SOL    HW155945  10.239   9.438   2.063 -0.4221  0.3741 -0.9876
17163SOL    HW255946  10.270   9.403   1.919  1.1415 -0.7123 -0.4088
17164SOL     OW55947  10.715   6.511   5.530  0.2438  0.3763 -0.2642
17164SOL    HW155948  10.807   6.495   5.548  0.0433  0.6653  1.1328
17164SOL    HW255949  10.705   6.606   5.536 -0.4476  0.2347  1.2965
17165SOL     OW55950   9.407   5.186   6.023  0.2307 -0.3785 -0.0046
17165SOL    HW155951   9.502   5.177   6.011  0.7189 -2.0370  3.6331
17165SOL    HW255952   9.388   5.276   5.996  2.7373 -0.1123 -1.1682
17166SOL     OW55953   8.272   4.245   9.872 -0.3622 -0.3390 -0.3748
17166SOL    HW155954   8.348   4.298   9.849 -0.2708  0.4738  1.6009
17166SOL    HW255955   8.213   4.253   9.797  0.7098  0.5214 -1.1543
17167SOL     OW55956   8.244   7.523  10.158 -0.5381 -0.2993 -0.1626
17167SOL    HW155957   8.237   7.616  10.180 -1.5950 -0.6025  0.8466
17167SOL    HW255958   8.178   7.509  10.090 -3.0912 -1.0333  2.2804
17168SOL     OW55959   7.846   1.571   2.630  0.1644 -0.7967 -0.2621
17168SOL    HW155960   7.810   1.486   2.657  0.6858 -0.9503 -0.0478
17168SOL    HW255961   7.783   1.635   2.662  0.0042 -1.0747 -0.0199
17169SOL     OW55962   6.756   7.485   8.436  0.7056 -0.1053 -0.0066
17169SOL    HW155963   6.760   7.398   8.476 -0.6861 -1.0517 -1.7507
17169SOL    HW255964   6.758   7.467   8.342  0.7544  1.7910 -0.3898
17170SOL     OW55965   4.057   8.607   3.594  0.0598  0.8172 -0.4036
17170SOL    HW155966   4.022   8.644   3.513  1.6133  1.1748 -0.9471
17170SOL    HW255967   4.110   8.532   3.566  0.9288  1.1784  0.2156
17171SOL     OW55968   1.630   4.886   7.768  0.0611 -0.7413  0.1365
17171SOL    HW155969   1.643   4.981   7.761 -0.3513 -0.6564  0.4599
17171SOL    HW255970   1.541   4.877   7.801  0.5064 -1.2192  1.2328
17172SOL     OW55971   9.313   6.795   1.897  0.1154 -0.0900  0.1779
17172SOL    HW155972   9.379   6.801   1.827  0.2956 -1.0542  0.2537
17172SOL    HW255973   9.229   6.799   1.850  0.2334 -1.2945 -0.1626
17173SOL     OW55974   7.623  10.118   9.874 -0.0426 -0.0188 -0.0034
17173SOL    HW155975   7.709  10.124   9.916 -0.0846  0.4511  0.0199
17173SOL    HW255976   7.636  10.056   9.803  0.3109  0.0251  0.0177
17174SOL     OW55977   5.014   6.236  11.041 -0.1892  0.8623  0.4949
17174SOL    HW155978   5.010   6.169  11.109 -0.6405 -0.2065 -0.5475
17174SOL    HW255979   5.005   6.318  11.088 -0.8960  0.1306  1.6898
17175SOL     OW55980   2.271   0.898   2.374  0.5511 -0.2578 -0.1348
17175SOL    HW155981   2.267   0.825   2.312  0.8481 -1.7787  1.5384
17175SOL    HW255982   2.208   0.875   2.442  0.5749  1.1191  0.3821
17176SOL     OW55983   2.978  10.135   5.179  0.6355 -0.4597 -0.4153
17176SOL    HW155984   2.916  10.177   5.120 -0.6341  0.4300  1.4663
17176SOL    HW255985   3.045  10.201   5.195 -1.6638  1.3278  3.0067
17177SOL     OW55986   1.142   3.808   9.585  0.0140  0.5750 -0.1576
17177SOL    HW155987   1.090   3.811   9.666  0.1501 -0.2679 -0.0321
17177SOL    HW255988   1.097   3.868   9.525 -1.7604 -0.9432 -0.4319
17178SOL     OW55989   9.766   6.541   6.197 -0.5123 -0.5223 -0.3293
17178SOL    HW155990   9.754   6.634   6.176  0.1997 -0.8326 -2.2432
17178SOL    HW255991   9.678   6.504   6.191 -0.9079  0.1192  1.0810
17179SOL     OW55992   0.468   0.274   1.939 -0.0367 -0.3592 -0.1099
17179SOL    HW155993   0.411   0.198   1.942  0.0357 -0.4609 -0.9683
17179SOL    HW255994   0.478   0.293   1.846  0.5206  0.2687  0.0651
17180SOL     OW55995   8.873   8.765   5.201  0.3132 -0.1486 -0.3809
17180SOL    HW155996   8.862   8.673   5.178  1.5086 -0.4729  0.2933
17180SOL    HW255997   8.817   8.777   5.278 -0.2706 -0.1585 -0.7930
17181SOL     OW55998   7.527   4.606   6.002 -0.0444 -0.0971  0.2069
17181SOL    HW155999   7.551   4.519   5.969  1.1418  0.4916 -0.5577
17181SOL    HW256000   7.506   4.593   6.094  0.2790 -1.1727  0.1355
17182SOL     OW56001   9.594   7.550   6.308 -0.1104  0.2498  0.3195
17182SOL    HW156002   9.661   7.607   6.270 -2.0779 -0.3567 -4.8182
17182SOL    HW256003   9.521   7.609   6.327 -0.4976  0.0838 -0.6063
17183SOL     OW56004  10.308   9.380   6.282 -0.2300  0.1396  0.1401
17183SOL    HW156005  10.320   9.320   6.208 -0.0334 -0.9792  1.0529
17183SOL    HW256006  10.356   9.339   6.354  1.1857  2.1502  0.4205
17184SOL     OW56007   7.607   4.666   2.495  0.1794  0.4156 -0.2290
17184SOL    HW156008   7.538   4.699   2.437 -1.0527  0.1177  0.9970
17184SOL    HW256009   7.688   4.685   2.450 -0.7008  1.0009 -1.6286
17185SOL     OW56010   3.554  10.475   4.279  0.4683  0.6770  0.2387
17185SOL    HW156011   3.573  10.483   4.185 -0.1799 -0.0684  0.0273
17185SOL    HW256012   3.572  10.383   4.299 -0.3601  0.5877  0.6097
17186SOL     OW56013  10.330  10.998   1.030 -0.4415 -0.0116  0.2770
17186SOL    HW156014  10.360  10.970   0.944 -1.8138 -0.5525 -0.0610
17186SOL    HW256015  10.279  10.924   1.063  0.1146  0.1756  1.5826
17187SOL     OW56016   4.402  10.934   9.100 -0.0732  0.7102 -0.5834
17187SOL    HW156017   4.379  11.018   9.139 -1.4688  0.7425 -1.4175
17187SOL    HW256018   4.497  10.927   9.113 -0.2611  1.2874  1.6416
17188SOL     OW56019   2.480   3.494   5.487  0.7353  0.3791  0.3558
17188SOL    HW156020   2.400   3.540   5.512  0.0162 -0.9843  0.6843
17188SOL    HW256021   2.511   3.454   5.569  0.7788 -0.5306 -0.0855
17189SOL     OW56022   6.678   2.367   1.740 -0.4383 -0.1662 -0.0775
17189SOL    HW156023   6.642   2.302   1.800  2.0740 -0.0625  1.6663
17189SOL    HW256024   6.763   2.332   1.714  0.0219  1.4131 -0.8152
17190SOL     OW56025   6.971   2.832   8.213  0.0973  0.4092  0.5030
17190SOL    HW156026   7.057   2.870   8.229 -0.4100  1.7225  0.2649
17190SOL    HW256027   6.920   2.904   8.175 -1.3051 -0.1339  1.2895
17191SOL     OW56028   4.157   2.512   9.274 -0.2358 -0.1509 -0.0201
17191SOL    HW156029   4.081   2.461   9.246  0.5378 -1.0162 -0.6133
17191SOL    HW256030   4.227   2.447   9.282  0.4175  0.6160  0.6074
17192SOL     OW56031   1.199   5.312   0.711  0.4800 -0.5144  0.4679
17192SOL    HW156032   1.290   5.342   0.715  0.8114 -1.4744  0.1101
17192SOL    HW256033   1.197   5.245   0.643 -0.4623 -0.6257  0.5844
17193SOL     OW56034   0.367   0.263   4.657 -0.5544 -0.2220  0.1533
17193SOL    HW156035   0.354   0.264   4.752  2.6857 -2.5187  0.8156
17193SOL    HW256036   0.433   0.330   4.640 -1.6415  0.6893 -0.6637
17194SOL     OW56037   9.701   4.147   8.529 -0.2599 -0.2191  0.0167
17194SOL    HW156038   9.606   4.140   8.527 -0.2204 -0.6080 -1.2652
17194SOL    HW256039   9.732   4.057   8.535  0.0380 -0.0389  1.7591
17195SOL     OW56040   0.006   8.566  10.351 -0.2159 -0.3960  0.7639
17195SOL    HW156041  -0.072   8.599  10.394  0.2175 -0.3039  1.4849
17195SOL    HW256042   0.019   8.479  10.388 -1.9191 -1.9076 -1.8282
17196SOL     OW56043   5.066   5.321   8.722  0.0869  0.3047 -0.3103
17196SOL    HW156044   4.973   5.341   8.709 -0.4079 -2.7147 -2.6589
17196SOL    HW256045   5.069   5.276   8.807 -0.5294  0.7385 -0.0479
17197SOL     OW56046   6.832   5.508   2.313  0.1622  0.2443  0.7287
17197SOL    HW156047   6.876   5.476   2.392 -2.9940 -0.0489  2.5159
17197SOL    HW256048   6.741   5.520   2.340 -1.1465 -0.2383 -2.9807
17198SOL     OW56049   0.816   0.586   8.132  0.1655 -0.0187 -0.4867
17198SOL    HW156050   0.799   0.538   8.051  0.0292  1.7593 -1.5649
17198SOL    HW256051   0.743   0.562   8.189  1.3965 -2.9874 -0.0092
17199SOL     OW56052   5.303   2.007   3.617  0.2168  0.3898  0.9127
17199SOL    HW156053   5.332   2.068   3.549  0.2317 -0.4059  0.1987
17199SOL    HW256054   5.273   2.064   3.688  0.0401  1.2311  0.1791
17200SOL     OW56055   2.915   1.202   5.336  0.0416  0.8197 -0.8225
17200SOL    HW156056   2.861   1.243   5.403 -0.3347  3.4135 -2.5869
17200SOL    HW256057   2.989   1.165   5.384 -0.9526  1.2803  1.1413
17201SOL     OW56058  10.261   9.324   1.042  0.2426 -0.7287 -0.1695
17201SOL    HW156059  10.275   9.344   1.134 -1.0578 -1.3775  0.1949
17201SOL    HW256060  10.315   9.246   1.026  1.6065  0.2359 -0.3577
17202SOL     OW56061   7.225  11.039   2.158  0.4022  0.1937  0.1207
17202SOL    HW156062   7.264  10.984   2.226  0.1431 -0.2741 -0.1011
17202SOL    HW256063   7.215  11.125   2.199 -1.0251 -0.4195  1.1525
17203SOL     OW56064  10.960   2.756  10.834 -0.3048 -0.1488 -0.2797
17203SOL    HW156065  10.866   2.770  10.842 -0.8173 -1.3214 -3.0516
17203SOL    HW256066  10.975   2.668  10.867 -0.0969  0.1818  0.5235
17204SOL     OW56067   2.158   1.851  10.017  0.3132 -0.2515  0.4038
17204SOL    HW156068   2.209   1.913   9.964  2.3139 -1.4508  0.8365
17204SOL    HW256069   2.144   1.776   9.960 -0.7345 -0.0911  0.4145
17205SOL     OW56070   5.844   6.815   2.034  0.0492 -0.2045  0.0063
17205SOL    HW156071   5.901   6.820   2.110 -0.9596 -0.2862  0.7977
17205SOL    HW256072   5.830   6.721   2.020 -0.0751 -0.1815 -0.0303
17206SOL     OW56073   5.918   2.328  10.356 -0.5222  0.6255  0.0838
17206SOL    HW156074   6.008   2.361  10.351  0.5670 -2.1923 -0.6986
17206SOL    HW256075   5.885   2.337  10.266 -0.2953 -0.1331 -0.0831
17207SOL     OW56076   0.565   6.711  10.135 -0.2427 -0.3535  0.7030
17207SOL    HW156077   0.620   6.779  10.173  1.0346 -1.0098  0.0728
17207SOL    HW256078   0.620   6.632  10.134 -1.2201 -1.0562  0.1578
17208SOL     OW56079  10.631   9.830   6.009  0.2013  1.3485  0.0544
17208SOL    HW156080  10.719   9.795   6.015 -0.7656 -1.7132 -1.4767
17208SOL    HW256081  10.591   9.810   6.094  0.4679  1.1640  0.1374
17209SOL     OW56082   8.574   3.029   6.598 -0.0187 -0.3332 -0.0148
17209SOL    HW156083   8.562   2.989   6.684  1.8591  0.6630  0.7620
17209SOL    HW256084   8.623   2.964   6.548  0.5128 -0.1770  0.2952
17210SOL     OW56085   3.643   4.695   4.742 -0.2840 -0.4621  0.6378
17210SOL    HW156086   3.670   4.664   4.828 -1.1235  0.3322  1.2122
17210SOL    HW256087   3.686   4.636   4.680  0.4289 -0.9719  1.5911
17211SOL     OW56088   9.276   5.738   7.515  0.2488  0.4478  0.1713
17211SOL    HW156089   9.305   5.816   7.468  2.3299  0.0034  0.6273
17211SOL    HW256090   9.263   5.673   7.446 -2.3357  1.3412 -0.3097
17212SOL     OW56091   5.345   1.528   2.466 -0.3405 -0.2576 -0.0548
17212SOL    HW156092   5.398   1.543   2.388  0.4118  0.1630  0.5188
17212SOL    HW256093   5.315   1.614   2.492 -1.6761 -0.5353 -0.6027
17213SOL     OW56094   6.582   5.154   1.032  0.5101  0.0915  0.1193
17213SOL    HW156095   6.529   5.077   1.013  0.1139  0.1899  0.7808
17213SOL    HW256096   6.556   5.218   0.966 -0.3553  0.2095  0.5627
17214SOL     OW56097   5.805   3.171   1.613 -0.1835  0.2041  0.5291
17214SOL    HW156098   5.783   3.179   1.520  0.1677 -1.1844  0.2962
17214SOL    HW256099   5.737   3.115   1.649  0.3960 -0.3277  0.8135
17215SOL     OW56100   6.891   5.214   0.229 -0.5891 -0.2428  0.2398
17215SOL    HW156101   6.956   5.273   0.267  0.1045 -1.6093  1.2424
17215SOL    HW256102   6.853   5.264   0.156 -0.0691  1.4386  1.0804
17216SOL     OW56103   5.795   8.115   5.550  0.4407 -0.2259 -0.3035
17216SOL    HW156104   5.763   8.206   5.547  3.2082  0.9957  1.9247
17216SOL    HW256105   5.846   8.105   5.470  1.2444  0.7364  0.0605
17217SOL     OW56106   4.427   2.839   3.895 -0.1964  0.3698 -0.0459
17217SOL    HW156107   4.357   2.855   3.958 -2.0258 -2.3525 -1.1857
17217SOL    HW256108   4.507   2.867   3.940 -1.3630 -1.5122  3.6186
17218SOL     OW56109   1.795   8.911   2.716  0.8605  1.2864 -0.4687
17218SOL    HW156110   1.810   8.976   2.785  1.9251  0.4210  0.1459
17218SOL    HW256111   1.708   8.875   2.735  1.3948  0.6060  0.8368
17219SOL     OW56112   1.931   1.162   1.009 -0.2605  0.4551 -0.1048
17219SOL    HW156113   2.016   1.173   1.050 -0.3878  0.9415  0.0307
17219SOL    HW256114   1.895   1.083   1.050  1.5744 -1.9195 -2.6401
17220SOL     OW56115   3.253   7.401   4.241  0.4242  0.0905  0.2099
17220SOL    HW156116   3.179   7.385   4.183  1.5481 -0.5241 -1.1037
17220SOL    HW256117   3.213   7.420   4.326 -1.2163 -0.8009 -0.3227
17221SOL     OW56118   3.010  10.877   9.701 -0.0648 -0.4996  0.1375
17221SOL    HW156119   3.087  10.911   9.656 -0.5965  2.1508  1.0648
17221SOL    HW256120   3.028  10.889   9.794 -1.2318 -0.6306  0.4067
17222SOL     OW56121   0.708   3.496   6.851  0.2105  0.4197  0.4093
17222SOL    HW156122   0.733   3.420   6.904  0.3893  0.5761  0.5501
17222SOL    HW256123   0.789   3.545   6.840  0.1330  0.4896  0.1547
17223SOL     OW56124   1.289   3.229   3.530  0.5572  0.9301 -0.1612
17223SOL    HW156125   1.219   3.178   3.490 -0.1847  0.9466  1.0760
17223SOL    HW256126   1.248   3.272   3.604  2.2388 -0.4054  1.6470
17224SOL     OW56127   5.725   7.972   9.885 -0.0667 -0.8317  0.2224
17224SOL    HW156128   5.716   7.923   9.803  2.4440  4.2341 -3.7492
17224SOL    HW256129   5.638   8.009   9.899  0.0515  0.7096 -2.3065
17225SOL     OW56130   6.956   0.536   2.126 -0.0183 -0.4610 -0.1165
17225SOL    HW156131   6.892   0.579   2.182 -0.4791  1.4678 -2.0001
17225SOL    HW256132   7.007   0.481   2.186 -0.5556  1.3547  2.1548
17226SOL     OW56133   6.234   8.618   9.790  0.3842  0.1789  0.0972
17226SOL    HW156134   6.168   8.639   9.724  0.6669  1.0278  0.0793
17226SOL    HW256135   6.256   8.526   9.773 -0.4187  0.0307 -0.2165
17227SOL     OW56136   3.438   1.124   6.147 -0.6281  0.8597 -0.9275
17227SOL    HW156137   3.346   1.101   6.130 -0.4478  0.0207 -0.8072
17227SOL    HW256138   3.488   1.063   6.092 -0.1074  0.0028  0.4557
17228SOL     OW56139   3.054   4.413   7.556  0.2252 -0.2102  0.5919
17228SOL    HW156140   3.110   4.336   7.550  1.5039  0.6413  1.2523
17228SOL    HW256141   3.091   4.476   7.494 -0.7898 -0.0909  0.0723
17229SOL     OW56142   1.750   0.835   8.476  0.1213 -0.3381  0.0230
17229SOL    HW156143   1.670   0.782   8.486  0.2796 -0.9657 -1.6697
17229SOL    HW256144   1.773   0.826   8.384  0.5074  2.2348 -0.2165
17230SOL     OW56145   8.251   5.737   6.531 -0.0027 -0.2082 -0.5288
17230SOL    HW156146   8.313   5.805   6.504 -0.3060  0.6192  0.8155
17230SOL    HW256147   8.243   5.747   6.626 -1.0460 -1.2899 -0.4775
17231SOL     OW56148   7.890   6.080   8.801 -0.1589  0.5381  0.0072
17231SOL    HW156149   7.810   6.039   8.831  0.1165 -0.4375 -0.5543
17231SOL    HW256150   7.959   6.017   8.822  0.3485  0.9838 -0.2955
17232SOL     OW56151   2.008   2.623   5.353 -0.8837  0.4232  0.0666
17232SOL    HW156152   1.939   2.683   5.324 -0.3808  0.9006 -0.1701
17232SOL    HW256153   1.971   2.579   5.429 -0.8952  1.7892  0.8795
17233SOL     OW56154   0.653   8.158   5.661 -0.0603 -0.3777  0.5126
17233SOL    HW156155   0.721   8.200   5.713  2.6791 -2.3208 -1.2353
17233SOL    HW256156   0.583   8.139   5.724  0.8582  1.8790  2.3669
17234SOL     OW56157   5.665   3.889   3.610 -0.4493 -0.4696  0.1183
17234SOL    HW156158   5.747   3.913   3.653 -0.1214 -0.5263 -0.4626
17234SOL    HW256159   5.611   3.968   3.615 -0.2749 -0.3611  0.3052
17235SOL     OW56160   9.002   8.587   2.600  0.4529 -0.0826 -0.5308
17235SOL    HW156161   9.039   8.513   2.648  1.5113  1.2227  0.7869
17235SOL    HW256162   8.916   8.601   2.640 -0.7525 -1.9311 -2.3036
17236SOL     OW56163  10.249   5.131   0.282 -0.0572 -0.0845  0.1182
17236SOL    HW156164  10.344   5.125   0.267 -0.3293  1.0043 -2.5756
17236SOL    HW256165  10.216   5.043   0.263  0.3959 -0.5765  1.4552
17237SOL     OW56166  10.822   3.607   9.492  0.3036 -0.0398  0.3399
17237SOL    HW156167  10.896   3.655   9.455  0.2500 -0.2140 -0.0053
17237SOL    HW256168  10.840   3.601   9.585  0.9779 -0.5142  0.1914
17238SOL     OW56169   9.179   3.228   4.899 -0.5845 -0.1309  0.9066
17238SOL    HW156170   9.147   3.179   4.824 -1.8806 -1.3579  2.2095
17238SOL    HW256171   9.133   3.312   4.895 -1.7710 -0.7507  1.1135
17239SOL     OW56172   2.173   0.835   4.041  0.5660  0.9679 -0.1485
17239SOL    HW156173   2.084   0.823   4.075  1.5264  0.3075  2.3748
17239SOL    HW256174   2.162   0.833   3.946 -1.7034 -2.8319 -0.0587
17240SOL     OW56175   8.778   3.609   7.846  0.0780  0.5665  0.7673
17240SOL    HW156176   8.865   3.632   7.877  0.2375  0.0823  0.6848
17240SOL    HW256177   8.731   3.580   7.925  0.1469  0.3600  0.7324
17241SOL     OW56178   3.090   6.929   4.137  1.1338 -0.4693  0.1495
17241SOL    HW156179   3.011   6.941   4.190  0.9305 -1.6220  0.1282
17241SOL    HW256180   3.063   6.872   4.065  1.4285  1.0201 -1.1949
17242SOL     OW56181   9.702   3.184  10.119 -0.3304 -0.3712  0.0644
17242SOL    HW156182   9.754   3.234  10.183  0.8667  0.1097 -1.2367
17242SOL    HW256183   9.611   3.200  10.144  0.0597  1.3983  0.4836
17243SOL     OW56184   5.632   3.135  10.025 -0.2949  0.3252  0.1994
17243SOL    HW156185   5.585   3.130  10.108 -1.5734  0.4799 -0.4831
17243SOL    HW256186   5.660   3.045  10.008  0.2012  0.3375  0.9113
17244SOL     OW56187   9.472   2.740   4.336 -0.2032 -0.1534 -0.3063
17244SOL    HW156188   9.516   2.668   4.382 -2.3107  0.0156  2.2090
17244SOL    HW256189   9.392   2.700   4.301 -2.2795  1.1180  2.5765
17245SOL     OW56190   2.373   8.937   3.749 -0.0102 -0.7494 -0.4584
17245SOL    HW156191   2.468   8.938   3.744 -0.0189  0.8205 -0.8721
17245SOL    HW256192   2.354   8.912   3.839  0.8661  1.0747  0.2816
17246SOL     OW56193   9.206   0.835   3.868 -0.1217  0.2395 -0.4889
17246SOL    HW156194   9.131   0.846   3.810  1.4184  0.7410 -2.4846
17246SOL    HW256195   9.174   0.777   3.938 -2.6339  1.2846 -0.6753
17247SOL     OW56196   0.948   7.297   7.511  0.4029 -0.3549 -0.2676
17247SOL    HW156197   0.945   7.383   7.469  0.9994 -1.0166 -1.7487
17247SOL    HW256198   0.907   7.238   7.447  1.6947 -1.4578 -0.1232
17248SOL     OW56199   8.867   9.763   7.993 -0.4741 -0.5715 -0.0996
17248SOL    HW156200   8.882   9.762   7.898 -2.0559  0.7565 -0.4029
17248SOL    HW256201   8.913   9.841   8.023 -1.9968  0.3921 -0.1844
17249SOL     OW56202   7.111   8.123   1.549  0.0556  0.4126  0.4143
17249SOL    HW156203   7.042   8.088   1.493  1.3423  0.7050 -1.4372
17249SOL    HW256204   7.173   8.165   1.488  1.3872  0.9942  2.0811
17250SOL     OW56205   6.366  11.000  10.361  0.3406  0.3705  0.0498
17250SOL    HW156206   6.408  11.077  10.322  1.5772  0.2597  1.0854
17250SOL    HW256207   6.276  11.004  10.330  0.5269  1.9087 -0.4031
17251SOL     OW56208   7.916   8.387   4.508  0.2900  0.4300 -0.0251
17251SOL    HW156209   7.992   8.422   4.556 -0.9029  1.0670  1.4969
17251SOL    HW256210   7.857   8.358   4.577 -1.9122  2.1807 -1.0717
17252SOL     OW56211   5.455   1.663   3.793  0.4593 -0.1795 -0.3619
17252SOL    HW156212   5.386   1.719   3.757  0.4595  0.5882  0.8021
17252SOL    HW256213   5.480   1.705   3.875  3.7533  0.7798 -1.6557
17253SOL     OW56214   9.351   1.658   1.170  0.7814 -0.4126 -0.0727
17253SOL    HW156215   9.385   1.744   1.144  0.8125 -0.5063 -0.3548
17253SOL    HW256216   9.256   1.670   1.172  0.8242 -0.1367  0.7672
17254SOL     OW56217   4.920   0.849  10.431 -0.0042  0.2684  0.0941
17254SOL    HW156218   4.870   0.798  10.495 -1.1713  1.5708  0.2703
17254SOL    HW256219   4.948   0.786  10.366  1.3485 -1.1436  1.9355
17255SOL     OW56220   2.172   4.967   7.999  0.3962 -0.4104 -0.1014
17255SOL    HW156221   2.108   4.977   7.928  0.7199  0.4668 -0.2747
17255SOL    HW256222   2.134   5.015   8.072  0.3768 -0.7579  0.1201
17256SOL     OW56223   4.298   7.773   5.844 -0.6240  0.2070 -0.1024
17256SOL    HW156224   4.347   7.704   5.799 -0.3697  0.2571  0.0969
17256SOL    HW256225   4.283   7.738   5.932  0.2378  0.7480  0.2688
17257SOL     OW56226  10.689   9.189   4.376 -0.3510  0.5683  0.4347
17257SOL    HW156227  10.783   9.200   4.387 -0.0513 -1.2294 -0.1186
17257SOL    HW256228  10.653   9.277   4.389  1.3593  1.2249  0.9462
17258SOL     OW56229  10.493   0.954   0.010  0.1946  0.0999 -0.0114
17258SOL    HW156230  10.528   1.043   0.015  2.6842 -0.7452 -0.7082
17258SOL    HW256231  10.544   0.912  -0.060 -2.2379 -1.3528 -1.0501
17259SOL     OW56232   6.672   2.802   5.864 -0.6202 -0.0735  0.4399
17259SOL    HW156233   6.674   2.864   5.792 -2.8971 -0.5172 -0.0621
17259SOL    HW256234   6.709   2.721   5.828 -0.7770  0.0130  0.0823
17260SOL     OW56235   0.473   7.410   7.899 -0.6557 -0.4562 -0.1038
17260SOL    HW156236   0.525   7.394   7.977  0.0502  0.7776 -0.3102
17260SOL    HW256237   0.524   7.372   7.827 -1.1341 -1.2639 -0.0380
17261SOL     OW56238   7.340   8.600   7.062  0.2875  0.2888  0.8035
17261SOL    HW156239   7.292   8.616   7.144 -2.0620 -1.3431 -0.1498
17261SOL    HW256240   7.274   8.611   6.993  2.2489  1.8259 -0.9520
17262SOL     OW56241   7.856   1.146   3.364 -0.2398 -0.4057 -0.8207
17262SOL    HW156242   7.803   1.107   3.433  0.2624  0.2764 -0.0226
17262SOL    HW256243   7.854   1.083   3.292 -1.5815 -0.6861 -0.5617
17263SOL     OW56244   0.546   9.963   1.022  0.3320 -0.0135 -0.1667
17263SOL    HW156245   0.516  10.049   1.051  1.3996  0.2612  0.1739
17263SOL    HW256246   0.544   9.909   1.101 -0.7627 -0.4363 -0.4718
17264SOL     OW56247  10.730   7.010   6.005 -0.6287 -0.3921  0.6453
17264SOL    HW156248  10.685   7.012   5.921 -2.1752 -2.1514  1.3568
17264SOL    HW256249  10.707   7.092   6.048 -1.2394 -0.2464  0.0432
17265SOL     OW56250   7.942   7.740   2.567  0.2993 -0.1186  0.5054
17265SOL    HW156251   7.970   7.802   2.499 -1.9320 -1.7923 -2.1589
17265SOL    HW256252   7.897   7.793   2.632 -0.1964  1.2417 -0.8987
17266SOL     OW56253   0.770  10.240   8.276 -0.0539 -0.2086  0.3231
17266SOL    HW156254   0.838  10.281   8.330 -0.4759  0.9154  0.0327
17266SOL    HW256255   0.727  10.178   8.335  0.3662  0.0242  0.8868
17267SOL     OW56256   5.481   0.404   9.687 -0.1040 -0.5718 -0.4308
17267SOL    HW156257   5.519   0.385   9.773  1.4426 -0.8320 -1.1462
17267SOL    HW256258   5.501   0.497   9.672 -2.5353  0.1998  0.5063
17268SOL     OW56259   2.190   3.061   6.200 -0.0601  0.3113 -0.4030
17268SOL    HW156260   2.168   3.115   6.125 -1.0506 -1.6737 -1.6239
17268SOL    HW256261   2.256   3.000   6.168 -2.9963 -2.9459 -0.8901
17269SOL     OW56262   8.337  10.795   8.875 -0.2245 -0.3566  0.5563
17269SOL    HW156263   8.414  10.851   8.870 -1.0405  0.6935 -0.8409
17269SOL    HW256264   8.269  10.851   8.913 -1.3923  0.0737 -1.9714
17270SOL     OW56265   3.054   4.683   9.731 -0.8931 -0.4632 -0.4665
17270SOL    HW156266   2.972   4.658   9.773 -0.4945  0.1691  0.7402
17270SOL    HW256267   3.113   4.610   9.750 -0.4624  0.2038  0.8654
17271SOL     OW56268   6.624   0.942   3.258 -0.3307 -0.3197  0.0217
17271SOL    HW156269   6.626   0.889   3.338 -1.5110 -0.1149  0.2089
17271SOL    HW256270   6.704   0.994   3.262 -0.7895  0.3480  1.5578
17272SOL     OW56271  10.927   9.899   7.270 -0.5092  0.1112  0.1055
17272SOL    HW156272  10.845   9.887   7.318 -0.9472  0.1858 -0.6120
17272SOL    HW256273  10.906   9.874   7.180 -0.3169  2.0768 -0.5374
17273SOL     OW56274   1.905  10.026   5.283 -0.0212 -0.1418 -0.1068
17273SOL    HW156275   1.889   9.938   5.249  0.4660 -0.7362  1.1439
17273SOL    HW256276   1.964  10.066   5.220 -0.1180 -0.7596 -0.6018
17274SOL     OW56277   4.500   0.268   8.802  0.0937  0.3271 -0.2134
17274SOL    HW156278   4.462   0.185   8.830 -0.1888  0.1690 -1.0618
17274SOL    HW256279   4.524   0.311   8.884 -1.2741  0.1398  0.3150
17275SOL     OW56280   2.086   0.609   1.264 -0.4084  0.2326 -0.1287
17275SOL    HW156281   2.120   0.567   1.343 -2.9252  2.8455  2.5339
17275SOL    HW256282   2.134   0.691   1.258 -0.9337  0.5013 -0.7573
17276SOL     OW56283   9.645   5.895   5.507  0.3573  0.7181 -0.8711
17276SOL    HW156284   9.654   5.935   5.593  0.2149 -0.8168 -0.1138
17276SOL    HW256285   9.579   5.949   5.462 -1.5063  0.0515  0.9337
17277SOL     OW56286   7.111   0.920   9.465  0.1876  0.0632 -0.0857
17277SOL    HW156287   7.199   0.894   9.491 -0.0692  0.0521  0.8035
17277SOL    HW256288   7.066   0.940   9.547 -0.7378 -0.2388 -0.5020
17278SOL     OW56289   0.065   1.361   9.016 -0.5661  0.2446 -0.2151
17278SOL    HW156290   0.047   1.424   8.946 -0.4746  0.7395  0.2024
17278SOL    HW256291   0.029   1.402   9.095  0.2782  0.1751  0.2183
17279SOL     OW56292   7.568   3.646   3.495  0.2679  0.1942 -0.4067
17279SOL    HW156293   7.548   3.553   3.506  0.7008  0.2460  1.0936
17279SOL    HW256294   7.567   3.660   3.401 -2.0841 -0.8173 -0.5878
17280SOL     OW56295   1.308   0.934   2.799  0.3075 -0.6081  0.3210
17280SOL    HW156296   1.233   0.915   2.856  0.0563  0.1830  0.2626
17280SOL    HW256297   1.356   0.851   2.794 -0.8096 -1.2568 -0.0045
17281SOL     OW56298   4.621  10.914   1.104 -0.0571 -0.2261  0.2360
17281SOL    HW156299   4.603  10.989   1.161  0.5333  0.0239  0.1025
17281SOL    HW256300   4.644  10.953   1.020  0.9183 -0.5379  0.3535
17282SOL     OW56301   5.765   0.796   7.271 -0.0998  0.3697 -0.2891
17282SOL    HW156302   5.792   0.743   7.196 -1.9607  0.2399 -0.9319
17282SOL    HW256303   5.697   0.853   7.237  2.0983  3.5724  0.3055
17283SOL     OW56304   3.229   0.911   5.935  0.7124  0.3210 -0.1659
17283SOL    HW156305   3.267   0.943   6.017  1.3519 -0.0129 -0.3299
17283SOL    HW256306   3.218   0.989   5.882  1.3565  0.3947 -0.1925
17284SOL     OW56307   8.956  10.740   4.885 -0.2137 -0.2334 -0.1293
17284SOL    HW156308   8.953  10.664   4.826 -0.2415 -2.6740  2.7642
17284SOL    HW256309   8.882  10.728   4.944 -1.1469  2.9758 -0.4596
17285SOL     OW56310   8.247   9.185   6.841 -0.1503 -0.2464 -0.0888
17285SOL    HW156311   8.310   9.199   6.911 -1.5533  0.9674  1.0045
17285SOL    HW256312   8.297   9.196   6.760  0.6126  3.2806  0.6898
17286SOL     OW56313  10.488   9.067   2.316 -0.3348 -0.4539 -0.1689
17286SOL    HW156314  10.578   9.044   2.341 -0.7272  0.1777  2.0290
17286SOL    HW256315  10.496   9.155   2.280 -0.0834 -0.3469  0.1399
17287SOL     OW56316   4.379   6.843  10.913  0.3881  0.3286  0.1910
17287SOL    HW156317   4.371   6.924  10.964 -0.0524  0.9131 -0.7723
17287SOL    HW256318   4.443   6.791  10.961 -1.9358 -0.3389  2.8442
17288SOL     OW56319   6.360   8.511   5.837 -0.6885  1.0222 -0.0647
17288SOL    HW156320   6.436   8.530   5.892  0.5532 -1.7692 -0.6561
17288SOL    HW256321   6.395   8.459   5.765 -3.3226 -1.3724  0.2369
17289SOL     OW56322   4.844   1.138   4.049 -0.1316 -0.1738  0.2701
17289SOL    HW156323   4.885   1.189   3.979 -0.3567  1.3398  1.2034
17289SOL    HW256324   4.901   1.061   4.058 -0.8446 -1.1523 -2.4717
17290SOL     OW56325   8.377   5.913   9.386 -0.2781  0.3720  0.7033
17290SOL    HW156326   8.431   5.867   9.322 -0.0172  1.1419  0.3672
17290SOL    HW256327   8.365   6.001   9.349 -2.7862 -0.1202  0.1430
17291SOL     OW56328   3.356   1.359   9.732  0.0037 -0.1068  0.1195
17291SOL    HW156329   3.358   1.274   9.776 -1.8906  0.9851  2.5610
17291SOL    HW256330   3.416   1.414   9.782  1.2850  0.0145 -1.4926
17292SOL     OW56331   4.123   5.348  10.907  0.0108  0.0917  0.0598
17292SOL    HW156332   4.049   5.328  10.849 -0.3996  2.9172 -0.5425
17292SOL    HW256333   4.082   5.383  10.986  0.6750  0.2102  0.3499
17293SOL     OW56334   7.620   8.285  10.991 -0.3442 -0.0646 -0.1049
17293SOL    HW156335   7.656   8.315  10.907 -0.9646  0.8093 -0.0805
17293SOL    HW256336   7.545   8.342  11.006 -1.0479 -1.0903  0.3996
17294SOL     OW56337   7.143   3.631   7.817 -0.1591  0.1081  0.4087
17294SOL    HW156338   7.048   3.615   7.822 -0.0919 -0.0865  1.2864
17294SOL    HW256339   7.172   3.629   7.908  1.2238 -3.0777  0.0328
17295SOL     OW56340  10.308   3.933   3.934 -0.3263  0.7312 -0.0822
17295SOL    HW156341  10.264   3.943   3.849 -0.8237 -2.9893 -0.4239
17295SOL    HW256342  10.245   3.965   3.998 -1.3243  0.4841 -0.9169
17296SOL     OW56343   8.311  10.880   1.414 -0.5338  0.4685 -0.0967
17296SOL    HW156344   8.361  10.871   1.334 -2.0135 -0.2943 -0.9817
17296SOL    HW256345   8.349  10.957   1.458  1.5594 -0.2687 -0.5352
17297SOL     OW56346   6.058   9.828   0.804 -0.4836 -0.0392 -0.6659
17297SOL    HW156347   6.122   9.825   0.874  0.8492  0.6417 -1.8175
17297SOL    HW256348   6.094   9.889   0.740 -2.5747  0.8655 -1.0838
17298SOL     OW56349   2.332   4.730  10.086  0.5454 -0.5257 -0.1208
17298SOL    HW156350   2.297   4.750  10.000 -1.9506  0.6213  1.0798
17298SOL    HW256351   2.422   4.762  10.083  0.3410 -0.0143 -2.0976
17299SOL     OW56352   7.594   3.810   0.551  0.7138  0.2874 -0.4342
17299SOL    HW156353   7.680   3.775   0.574  0.4987  1.9904  4.0244
17299SOL    HW256354   7.535   3.736   0.560  1.3418 -0.1930 -0.1955
17300SOL     OW56355   3.076   4.175   4.764 -0.2819 -0.1294 -0.0583
17300SOL    HW156356   3.057   4.082   4.765 -0.6897 -0.0461  0.6125
17300SOL    HW256357   3.052   4.205   4.852  0.7394  0.4250  0.0415
17301SOL     OW56358   9.188   8.808   2.641 -0.6085 -0.2812 -0.6940
17301SOL    HW156359   9.146   8.723   2.635 -0.8107 -0.3036  0.6975
17301SOL    HW256360   9.222   8.825   2.553 -1.0728 -1.5250 -1.1268
17302SOL     OW56361   9.568   1.793   6.425  0.8268 -0.3039 -0.1228
17302SOL    HW156362   9.490   1.738   6.419  0.9381 -0.7878  1.9638
17302SOL    HW256363   9.542   1.877   6.386 -0.9053 -0.3222  0.8999
17303SOL     OW56364   8.849   2.547   9.530 -0.2382 -0.0120 -0.6451
17303SOL    HW156365   8.838   2.613   9.598  2.0096  0.4855 -0.6788
17303SOL    HW256366   8.826   2.592   9.449 -0.8647  0.0494 -0.4308
17304SOL     OW56367   9.678   8.302   4.363  0.2268  0.0434  0.1707
17304SOL    HW156368   9.603   8.350   4.399 -0.8867 -1.5689  0.1145
17304SOL    HW256369   9.641   8.248   4.293  1.6417 -0.0003 -0.5813
17305SOL     OW56370   9.386   2.511   6.881 -0.2840 -0.2045  0.0408
17305SOL    HW156371   9.294   2.538   6.876 -0.2815 -0.1924  0.0657
17305SOL    HW256372   9.384   2.425   6.921 -0.1273  0.7156  2.1276
17306SOL     OW56373   1.129   1.789   9.843  0.3589 -0.5367 -0.1664
17306SOL    HW156374   1.189   1.722   9.876 -0.3926 -0.7473  0.8151
17306SOL    HW256375   1.049   1.740   9.820 -0.3693  0.0544  0.9961
17307SOL     OW56376  10.288   5.307   1.156  0.5887 -0.3682  0.5098
17307SOL    HW156377  10.315   5.234   1.099  1.0071  1.3529 -1.5937
17307SOL    HW256378  10.205   5.336   1.121  0.4179  0.1984  1.3526
17308SOL     OW56379   0.636   5.989   6.460 -0.2377  0.5099  0.0407
17308SOL    HW156380   0.731   5.980   6.471 -0.3001 -0.4085 -0.0271
17308SOL    HW256381   0.625   6.064   6.402  0.5434 -0.4221 -1.3634
17309SOL     OW56382   1.451   3.008   5.275 -0.3131 -0.1153 -0.3074
17309SOL    HW156383   1.432   3.021   5.368 -0.8046  2.6430 -0.7080
17309SOL    HW256384   1.546   2.996   5.272 -0.3781 -1.0410  0.5877
17310SOL     OW56385   0.827   5.038   7.277  0.4178  0.5807  0.5550
17310SOL    HW156386   0.737   5.008   7.289  0.4637 -0.5585 -1.5551
17310SOL    HW256387   0.877   4.958   7.262  1.2856  1.3788 -1.0457
17311SOL     OW56388   0.086   3.427   2.007  0.4982 -0.3646 -0.1115
17311SOL    HW156389   0.173   3.389   2.013  1.1734  0.9791 -0.9601
17311SOL    HW256390   0.033   3.361   1.962  1.6447 -0.3136 -1.5969
17312SOL     OW56391   4.855   2.063   2.049 -0.3363  0.0624 -0.6374
17312SOL    HW156392   4.861   1.978   2.093 -2.5143  0.0029 -0.3545
17312SOL    HW256393   4.931   2.065   1.991  1.8454 -0.4838  1.9697
17313SOL     OW56394   5.724   2.625   2.165  0.5024 -0.1242 -0.2897
17313SOL    HW156395   5.710   2.715   2.132  0.2833 -0.4821 -1.2201
17313SOL    HW256396   5.819   2.615   2.164  0.5294  0.1025 -0.1759
17314SOL     OW56397   2.447   6.056   9.950  0.2551 -0.5123  0.4158
17314SOL    HW156398   2.450   6.047  10.045 -2.3925 -2.9486  0.4058
17314SOL    HW256399   2.353   6.063   9.930  0.7969  0.8857 -1.9833
17315SOL     OW56400   8.007   2.154   2.494 -0.5181 -0.1082 -0.0782
17315SOL    HW156401   7.947   2.148   2.420 -0.1334 -0.9027 -0.3379
17315SOL    HW256402   8.094   2.159   2.455 -0.2583 -1.2254  0.3117
17316SOL     OW56403   6.305   6.479   3.739 -0.3681  0.3680 -0.3398
17316SOL    HW156404   6.273   6.449   3.654  2.8260 -1.2868 -1.0989
17316SOL    HW256405   6.298   6.574   3.735  0.0338  0.3565 -2.6298
17317SOL     OW56406   8.257   7.205   0.909 -0.0443 -0.0735  0.0831
17317SOL    HW156407   8.275   7.285   0.859 -1.4770 -0.0468 -0.4490
17317SOL    HW256408   8.278   7.228   0.999  0.2350  0.6803 -0.1643
17318SOL     OW56409   0.714  10.141   2.187  0.6175  0.2052  0.4560
17318SOL    HW156410   0.775  10.078   2.150  0.0562  0.1373 -0.3831
17318SOL    HW256411   0.635  10.132   2.134 -0.1376  0.2746  1.5363
17319SOL     OW56412   7.386   4.022   5.641 -0.1813  0.4535  0.2293
17319SOL    HW156413   7.448   4.082   5.600 -0.0366  0.1773  0.0455
17319SOL    HW256414   7.367   3.957   5.573 -2.4962  1.8496 -0.5593
17320SOL     OW56415   7.214  10.822   7.957 -0.1310 -0.0220  0.1566
17320SOL    HW156416   7.239  10.767   7.883 -1.9265 -1.2053  0.3569
17320SOL    HW256417   7.132  10.864   7.930  0.5549  1.6266  0.4978
17321SOL     OW56418  10.718   4.280   5.468 -0.3068  0.2455 -0.2285
17321SOL    HW156419  10.774   4.312   5.397 -0.8282  0.0626 -0.7350
17321SOL    HW256420  10.743   4.188   5.480  0.2320  0.4502  0.2793
17322SOL     OW56421   8.180   5.759   4.849  0.5173 -0.2348  0.3101
17322SOL    HW156422   8.189   5.746   4.944  1.0547  0.4788  0.3690
17322SOL    HW256423   8.139   5.845   4.841 -3.2045 -1.8241 -0.0430
17323SOL     OW56424   7.563   2.790   0.119 -0.3202  0.1837 -0.1060
17323SOL    HW156425   7.474   2.757   0.108  0.3941 -1.5800 -1.1124
17323SOL    HW256426   7.557   2.883   0.097 -1.5578 -0.3355 -2.3207
17324SOL     OW56427   0.140   6.103   9.457  0.5068  0.4829  0.4547
17324SOL    HW156428   0.103   6.026   9.500  0.8498  0.1451  0.1584
17324SOL    HW256429   0.070   6.168   9.458 -1.0445 -0.9716 -2.3746
17325SOL     OW56430   6.022   2.505   3.498 -0.5596 -0.3190  0.7014
17325SOL    HW156431   6.010   2.546   3.584  2.1454  0.3474  0.8557
17325SOL    HW256432   6.110   2.531   3.471 -1.9061  1.0380 -3.1518
17326SOL     OW56433   9.366   0.059   2.100  0.4336  0.2802 -0.0943
17326SOL    HW156434   9.322  -0.025   2.113  1.3241  0.0496  1.7843
17326SOL    HW256435   9.344   0.110   2.179 -2.6968  3.1203 -2.4818
17327SOL     OW56436   3.939  10.498   1.924 -0.4865  0.0953  0.0556
17327SOL    HW156437   3.943  10.433   1.994 -1.3733 -1.0046 -0.8762
17327SOL    HW256438   3.917  10.580   1.969  1.3169 -0.0752  1.3302
17328SOL     OW56439   9.202   8.441   4.719  0.0663  0.5753 -0.2185
17328SOL    HW156440   9.223   8.525   4.679 -1.9481  1.6891  0.9372
17328SOL    HW256441   9.274   8.425   4.780  1.7049  0.2179 -2.1152
17329SOL     OW56442   8.910  10.574   1.794 -0.1195 -0.3737  0.1452
17329SOL    HW156443   8.825  10.594   1.755 -0.4664 -0.9710  0.5809
17329SOL    HW256444   8.909  10.480   1.808  0.1144 -0.2183  1.3176
17330SOL     OW56445   2.355   2.313   2.969  0.0342  0.1446 -0.0043
17330SOL    HW156446   2.417   2.382   2.989  0.9429 -0.9189  0.9790
17330SOL    HW256447   2.347   2.263   3.050  0.4098 -1.6718 -1.0403
17331SOL     OW56448   8.242   3.448   3.879  0.2550  0.3834 -0.0628
17331SOL    HW156449   8.190   3.402   3.813  0.6521 -0.4981  0.2188
17331SOL    HW256450   8.249   3.386   3.952  1.1343  0.7347  0.1671
17332SOL     OW56451  10.320   6.852   1.303  0.6059 -0.6744 -0.4943
17332SOL    HW156452  10.339   6.858   1.396 -0.9317 -2.5003 -0.0080
17332SOL    HW256453  10.394   6.804   1.266  1.2981  0.1963 -0.2663
17333SOL     OW56454   8.436   1.665   7.964 -0.2468  0.1968 -0.7604
17333SOL    HW156455   8.451   1.573   7.946 -0.2549 -0.2632  1.3138
17333SOL    HW256456   8.460   1.710   7.883  0.6260 -1.5359 -1.5078
17334SOL     OW56457   1.341   9.432   1.349 -0.3129 -0.0057 -0.0423
17334SOL    HW156458   1.418   9.450   1.294 -0.4703 -0.0030 -0.2614
17334SOL    HW256459   1.344   9.337   1.362  0.7798  0.2062  1.4979
17335SOL     OW56460   1.944   7.313   9.340 -0.1401  0.3686 -0.1794
17335SOL    HW156461   1.944   7.338   9.247 -0.3096  0.1677 -0.2320
17335SOL    HW256462   1.977   7.391   9.385  1.7258 -0.1369 -0.5812
17336SOL     OW56463  10.240   7.827   9.317 -0.1412 -0.1962 -0.3436
17336SOL    HW156464  10.276   7.901   9.365 -1.1449 -0.1428  0.3645
17336SOL    HW256465  10.292   7.822   9.237 -0.1748  1.3909 -0.4995
17337SOL     OW56466   3.047   8.583   2.567 -0.5639  0.6130 -0.7429
17337SOL    HW156467   3.080   8.665   2.603 -1.3460 -0.0855  1.6963
17337SOL    HW256468   2.962   8.570   2.609 -1.0002 -0.8646 -1.9919
17338SOL     OW56469  10.395   8.108   8.414  0.8806 -0.1616 -0.0117
17338SOL    HW156470  10.428   8.034   8.363  1.1229 -0.3254  0.3768
17338SOL    HW256471  10.315   8.075   8.455  0.5735  0.0345 -0.4446
17339SOL     OW56472   1.686   6.768   4.879  0.8030 -0.4137 -0.3574
17339SOL    HW156473   1.692   6.858   4.911 -1.9764 -0.2456 -0.1088
17339SOL    HW256474   1.666   6.716   4.956 -0.4198 -0.8028 -0.9049
17340SOL     OW56475   2.786  10.307   8.316  0.0325  0.2290 -0.4604
17340SOL    HW156476   2.788  10.335   8.408  2.3072  2.7518 -1.1716
17340SOL    HW256477   2.694  10.310   8.292 -0.3205  2.8476  0.8571
17341SOL     OW56478   6.644   1.585   1.776 -0.1497 -0.2937 -0.0520
17341SOL    HW156479   6.559   1.578   1.732 -1.0917 -0.9473  1.7868
17341SOL    HW256480   6.693   1.508   1.747 -0.5916 -0.4908 -0.2722
17342SOL     OW56481   2.429   1.781   7.775  0.3197 -0.9289 -0.0426
17342SOL    HW156482   2.428   1.828   7.692 -0.6057 -1.0139 -0.0869
17342SOL    HW256483   2.504   1.721   7.767  1.6394  0.6375  0.1015
17343SOL     OW56484   5.925   2.362   1.853 -0.0061  0.0614  1.0425
17343SOL    HW156485   5.992   2.296   1.839  0.4781  0.4070  1.6517
17343SOL    HW256486   5.944   2.430   1.789 -0.7305 -0.5400  0.1630
17344SOL     OW56487   7.879   7.704   5.475  0.7085 -0.2219  0.3557
17344SOL    HW156488   7.873   7.798   5.488 -0.6211 -0.2559  0.1586
17344SOL    HW256489   7.922   7.671   5.554 -0.3149  0.3857  1.1904
17345SOL     OW56490   2.055  10.145   0.105  0.2512 -0.2996  0.0590
17345SOL    HW156491   2.027  10.231   0.136 -0.5226 -0.8565  0.9572
17345SOL    HW256492   2.151  10.149   0.107  0.2204  0.4258  0.4104
17346SOL     OW56493   9.866   8.972   8.188 -0.3850 -0.3538 -0.2622
17346SOL    HW156494   9.921   9.006   8.258  1.0531 -0.1107 -1.4572
17346SOL    HW256495   9.864   8.877   8.202 -1.7439 -0.1659  1.1996
17347SOL     OW56496   1.542   6.114  10.092  0.0507  0.1141 -0.0737
17347SOL    HW156497   1.610   6.066  10.139 -0.3504  0.8605  1.3259
17347SOL    HW256498   1.461   6.092  10.139 -0.4889  0.1979 -0.9527
17348SOL     OW56499   4.874   7.795   2.405 -0.1200  0.2825  0.2287
17348SOL    HW156500   4.860   7.864   2.341  0.1277  1.0846  1.0190
17348SOL    HW256501   4.817   7.818   2.478  0.5811  0.1150  0.8431
17349SOL     OW56502   9.731   0.532   8.294  0.3335 -0.0695 -0.2453
17349SOL    HW156503   9.800   0.541   8.360 -0.9686  2.5838  0.9010
17349SOL    HW256504   9.740   0.442   8.262  2.4802 -0.7214  1.8995
17350SOL     OW56505   0.193   8.201   4.103  0.0168  0.0505 -0.4411
17350SOL    HW156506   0.104   8.230   4.085  0.5265  0.4602 -2.5945
17350SOL    HW256507   0.183   8.120   4.151 -1.5634 -0.5431 -1.6883
17351SOL     OW56508   2.953   0.232  10.890  0.4126  0.3250 -0.2527
17351SOL    HW156509   3.034   0.266  10.930  0.6116  1.5395 -1.5976
17351SOL    HW256510   2.883   0.282  10.932  0.1468 -1.7463  1.9962
17352SOL     OW56511   2.927   6.829   9.241  0.0992  0.5883  0.2716
17352SOL    HW156512   2.875   6.907   9.223 -0.7371  0.3073  1.3701
17352SOL    HW256513   3.006   6.841   9.188 -0.6542  1.4672 -0.7072
17353SOL     OW56514   7.804   4.124   1.751  0.2516  0.1526  0.2550
17353SOL    HW156515   7.827   4.167   1.834 -0.9550 -0.2102  0.8032
17353SOL    HW256516   7.843   4.037   1.758 -0.8661 -0.3199  1.0093
17354SOL     OW56517  10.284   4.940   6.435  0.3672 -0.3624  0.6233
17354SOL    HW156518  10.233   4.955   6.515  0.0660 -1.8219  0.7327
17354SOL    HW256519  10.242   4.865   6.393  2.0284 -1.2185  0.3894
17355SOL     OW56520   9.848   8.040   9.564  0.0138  0.2363 -0.2825
17355SOL    HW156521   9.875   7.966   9.509  1.7710  2.2344 -2.2739
17355SOL    HW256522   9.867   8.011   9.654  0.5121 -1.7682 -0.9844
17356SOL     OW56523   3.018   5.985   2.398  0.0458  0.1123 -0.2844
17356SOL    HW156524   2.959   6.059   2.413  0.4939  0.4038  0.0610
17356SOL    HW256525   3.006   5.963   2.306  0.8176  1.4191 -0.7307
17357SOL     OW56526   0.397   1.619   7.415 -0.0349  0.3367 -0.7653
17357SOL    HW156527   0.362   1.620   7.325 -1.8004 -0.8517 -0.1451
17357SOL    HW256528   0.482   1.576   7.407 -0.9551 -1.4201 -1.6623
17358SOL     OW56529   9.824   1.546   0.092 -0.4051 -0.0418 -0.1261
17358SOL    HW156530   9.762   1.555   0.164  0.4084  0.2483  0.5500
17358SOL    HW256531   9.897   1.497   0.129 -1.0144 -2.0843 -1.4211
17359SOL     OW56532   2.443   6.508   4.181 -0.0632 -0.3541 -0.2198
17359SOL    HW156533   2.521   6.543   4.224  0.2948 -0.5453 -0.7040
17359SOL    HW256534   2.476   6.467   4.101 -0.7656  0.4064 -0.9251
17360SOL     OW56535   0.163   8.917  10.084  0.4364 -0.0233  0.0806
17360SOL    HW156536   0.254   8.924  10.114  0.1410  2.8699  0.5889
17360SOL    HW256537   0.111   8.944  10.160 -0.6109  2.1512 -1.3233
17361SOL     OW56538   5.108   6.868   2.284 -0.0720  0.0406 -0.2916
17361SOL    HW156539   5.057   6.930   2.233  1.1020  0.3629 -1.1167
17361SOL    HW256540   5.093   6.893   2.375 -1.6785 -0.1426 -0.4753
17362SOL     OW56541   4.693   8.966   0.055  0.0501  0.1177  0.1645
17362SOL    HW156542   4.698   8.870   0.049  1.0317  0.0700  1.4030
17362SOL    HW256543   4.654   8.983   0.140  2.1705  0.7986  1.0810
17363SOL     OW56544   8.512   8.248   4.401 -0.1900 -0.8670  0.1400
17363SOL    HW156545   8.500   8.342   4.405  0.7032 -0.7639  0.5925
17363SOL    HW256546   8.465   8.214   4.478  0.8976 -0.6270  0.9282
17364SOL     OW56547  10.618   6.430   0.921 -0.2067 -0.1704  0.2664
17364SOL    HW156548  10.594   6.343   0.887  0.2649 -0.3880  0.4732
17364SOL    HW256549  10.643   6.414   1.012  0.7721  0.0221  0.0459
17365SOL     OW56550   1.130   4.785   9.588  0.0590  0.1237 -0.1743
17365SOL    HW156551   1.210   4.734   9.574 -0.1542 -0.0613 -0.7262
17365SOL    HW256552   1.060   4.720   9.593 -0.1055  0.3075 -0.0128
17366SOL     OW56553   3.659   8.239   3.613 -0.0748 -1.0127  0.4600
17366SOL    HW156554   3.730   8.282   3.660 -0.7310  0.9247 -0.2269
17366SOL    HW256555   3.626   8.306   3.553 -2.6220 -1.7573  0.9148
17367SOL     OW56556   6.047   9.254   1.031  0.4087  0.5536  0.0516
17367SOL    HW156557   6.057   9.344   1.000  0.0621  0.1109 -1.4391
17367SOL    HW256558   5.970   9.257   1.088  0.3166  1.1734 -0.0972
17368SOL     OW56559   1.201  10.329   3.477  0.7693 -0.5509 -0.8135
17368SOL    HW156560   1.274  10.391   3.477  1.9036 -1.7933  0.6505
17368SOL    HW256561   1.123  10.384   3.484  1.7247  0.7385  0.5453
17369SOL     OW56562   2.926   9.441   0.421  0.3146 -0.0803  0.4818
17369SOL    HW156563   2.907   9.526   0.382 -0.6125 -0.6636 -0.4059
17369SOL    HW256564   2.839   9.405   0.443  0.7926  0.4363  3.6442
17370SOL     OW56565   2.286   8.809   8.682  0.7051  0.4198 -0.5452
17370SOL    HW156566   2.300   8.762   8.764  0.0461 -1.0576 -1.2415
17370SOL    HW256567   2.213   8.868   8.701  1.7060  1.3686  0.4132
17371SOL     OW56568   4.809   3.358   8.466  0.6166 -0.3410 -0.5473
17371SOL    HW156569   4.854   3.419   8.407 -1.7143  1.7672 -0.3159
17371SOL    HW256570   4.716   3.368   8.444  0.0473 -2.9771  0.3615
17372SOL     OW56571   0.540   4.156   2.032  0.1114 -0.1870 -0.1470
17372SOL    HW156572   0.590   4.221   1.982 -1.0211  0.3479 -0.6381
17372SOL    HW256573   0.478   4.209   2.082 -1.5054 -0.8983 -1.2979
17373SOL     OW56574   4.687   3.456  10.451  0.0961 -0.6642 -0.2180
17373SOL    HW156575   4.652   3.476  10.364  0.9403  0.5527 -0.2928
17373SOL    HW256576   4.777   3.486  10.449  0.6187 -2.0695  0.5827
17374SOL     OW56577   3.100   7.395   5.674  0.3523  0.4034 -0.0751
17374SOL    HW156578   3.129   7.348   5.596  2.2410  2.0128 -0.4343
17374SOL    HW256579   3.007   7.373   5.682 -0.2257  0.9640 -3.4196
17375SOL     OW56580   7.595   8.085   2.286  0.2585  0.2842  0.4151
17375SOL    HW156581   7.648   8.009   2.307 -1.7269 -0.9148  1.4070
17375SOL    HW256582   7.521   8.080   2.347 -0.9356  1.9054 -0.8162
17376SOL     OW56583   3.279   2.124  10.712 -0.2539  0.2644  0.2001
17376SOL    HW156584   3.229   2.080  10.780  0.7981  2.6185  2.7411
17376SOL    HW256585   3.215   2.177  10.665 -0.4532  3.0019  3.1987
17377SOL     OW56586   1.938   4.540   5.120 -0.4175  0.7571 -0.7799
17377SOL    HW156587   1.990   4.615   5.151 -1.7620  0.8583  1.4785
17377SOL    HW256588   1.857   4.580   5.087 -1.6032  0.3433  1.4226
17378SOL     OW56589   5.551   6.244   2.416 -0.3323  0.4072  0.2102
17378SOL    HW156590   5.479   6.230   2.354 -2.6356  1.1933  2.5289
17378SOL    HW256591   5.540   6.334   2.446  2.0130  0.7443  0.2751
17379SOL     OW56592   1.192   9.083   0.124  0.3128  0.5233 -1.0056
17379SOL    HW156593   1.264   9.146   0.128  0.5861  0.1641  0.2005
17379SOL    HW256594   1.137   9.113   0.052 -0.1952  2.8178  0.2555
17380SOL     OW56595   9.824   8.539   0.432 -0.0873 -0.1772 -0.1616
17380SOL    HW156596   9.735   8.528   0.464  0.2833 -1.6805  0.4752
17380SOL    HW256597   9.817   8.528   0.337 -0.4605 -1.3000 -0.0181
17381SOL     OW56598   8.605   5.072   3.092  0.0661 -0.5113  0.1363
17381SOL    HW156599   8.620   5.166   3.097  0.9780 -0.6879  1.3355
17381SOL    HW256600   8.514   5.060   3.119 -0.3052  0.0679 -0.7971
17382SOL     OW56601   5.534  10.448  11.068  0.1422  0.3304 -0.3020
17382SOL    HW156602   5.592  10.437  10.993 -0.1081 -0.2455 -0.4128
17382SOL    HW256603   5.446  10.447  11.031 -0.0445 -1.2329  0.1204
17383SOL     OW56604   8.574  10.187  10.994 -0.3982  0.0783  0.0501
17383SOL    HW156605   8.526  10.253  11.044  1.2810  0.4678  1.2670
17383SOL    HW256606   8.653  10.233  10.965 -0.2951 -0.7818 -1.0997
17384SOL     OW56607   1.949   7.678   8.524 -0.0040  0.1384 -0.3684
17384SOL    HW156608   2.033   7.631   8.531 -0.6473 -0.8974  0.8480
17384SOL    HW256609   1.962   7.757   8.576  0.0300 -0.3317  0.3509
17385SOL     OW56610   3.406   8.967   5.385  0.4263  0.2101  0.3616
17385SOL    HW156611   3.317   8.935   5.400 -0.1675  1.3910 -0.5382
17385SOL    HW256612   3.424   9.022   5.462  0.4130 -0.0876  0.5809
17386SOL     OW56613   2.878   0.125   6.788 -0.0327  0.1550 -0.8566
17386SOL    HW156614   2.803   0.077   6.752  0.0079 -1.0802  0.6172
17386SOL    HW256615   2.856   0.138   6.880  2.1433 -1.4967 -0.0343
17387SOL     OW56616   3.182   1.223   8.512 -0.2436  0.1123  0.1413
17387SOL    HW156617   3.159   1.299   8.566 -0.6529  0.1616 -0.0996
17387SOL    HW256618   3.193   1.152   8.574  2.5392  0.8700  0.6668
17388SOL     OW56619   6.268   1.273   8.520  0.1175  0.5202  0.3862
17388SOL    HW156620   6.334   1.335   8.492 -1.0800  1.2344 -0.9935
17388SOL    HW256621   6.202   1.326   8.565 -0.3237  0.0705  0.2863
17389SOL     OW56622   4.192   4.344   8.382 -0.3908 -0.1220  0.7161
17389SOL    HW156623   4.285   4.352   8.402  0.3427 -0.8623 -1.9515
17389SOL    HW256624   4.166   4.432   8.354  0.3959 -0.5725 -1.6119
17390SOL     OW56625   3.954   3.708   9.499 -0.1184 -0.2696  0.3227
17390SOL    HW156626   3.940   3.752   9.583  0.4510  0.0994  0.2285
17390SOL    HW256627   3.867   3.681   9.471 -0.4406  0.5321  0.5258
17391SOL     OW56628   3.952   8.306   5.672  0.1824  0.1489 -0.3400
17391SOL    HW156629   3.908   8.354   5.743 -1.1427 -1.0314 -0.3362
17391SOL    HW256630   3.983   8.226   5.713 -1.5922 -1.0791 -1.3002
17392SOL     OW56631   3.338   3.610  11.051  0.0100  0.4798 -0.3674
17392SOL    HW156632   3.433   3.621  11.041 -0.1126  0.8050 -1.3645
17392SOL    HW256633   3.307   3.696  11.080  0.1429  0.0423  1.1627
17393SOL     OW56634   2.714   4.000   2.802  0.0793 -0.5751 -0.0447
17393SOL    HW156635   2.680   4.076   2.755  2.5910  0.0326 -1.0449
17393SOL    HW256636   2.756   4.036   2.880 -0.7271 -1.1971  0.6949
17394SOL     OW56637   4.879   6.444   1.298 -0.5404  0.8073 -0.3332
17394SOL    HW156638   4.793   6.476   1.326 -0.3954  0.3629  0.6324
17394SOL    HW256639   4.880   6.460   1.203 -1.9918  0.1157 -0.4966
17395SOL     OW56640   5.003   1.588   7.701 -0.3310  0.0104  0.6161
17395SOL    HW156641   5.068   1.618   7.637 -0.9569 -0.4185 -0.2548
17395SOL    HW256642   5.044   1.602   7.786  1.5709 -1.7350  0.0626
17396SOL     OW56643   9.432   8.606   2.849  0.2828  0.4435 -0.2721
17396SOL    HW156644   9.424   8.565   2.763  0.0627 -0.0464 -0.0211
17396SOL    HW256645   9.480   8.543   2.902  0.5968  0.8299 -0.0903
17397SOL     OW56646   0.548  10.675   8.284  0.4864  0.0527  0.2002
17397SOL    HW156647   0.560  10.721   8.367  1.5937 -1.0065  0.6632
17397SOL    HW256648   0.462  10.633   8.292 -0.2927  1.5278 -0.0142
17398SOL     OW56649   5.457   4.482   5.356 -0.3773 -0.3244 -0.0980
17398SOL    HW156650   5.418   4.533   5.286 -0.0633  1.0260  0.6877
17398SOL    HW256651   5.434   4.528   5.436  1.2853 -0.4800  0.5219
17399SOL     OW56652   2.704   7.175   1.314 -0.4289 -0.1956  0.1245
17399SOL    HW156653   2.691   7.124   1.394  1.4887  0.4099  0.8820
17399SOL    HW256654   2.616   7.189   1.280 -1.2117 -1.4364  1.5125
17400SOL     OW56655   7.363   1.931   1.706  0.1077 -0.6133 -0.2830
17400SOL    HW156656   7.408   2.001   1.659 -0.7395  0.9200  1.1231
17400SOL    HW256657   7.316   1.975   1.777  0.2571 -2.7032  1.1953
17401SOL     OW56658   5.969   8.675   0.807  0.8102 -0.3380  1.2118
17401SOL    HW156659   5.908   8.727   0.755 -0.6077 -0.0836  3.0386
17401SOL    HW256660   6.044   8.733   0.820  0.0710  0.5625  1.6030
17402SOL     OW56661   1.723   6.242   1.931  0.4652 -0.4291 -0.5667
17402SOL    HW156662   1.710   6.286   1.847 -2.1666 -0.6090 -0.3355
17402SOL    HW256663   1.739   6.312   1.994  1.4880 -0.2229 -1.0539
17403SOL     OW56664   0.361   7.681   7.151  0.4470 -0.0152  0.3624
17403SOL    HW156665   0.291   7.675   7.085  0.1691  1.0976  0.5278
17403SOL    HW256666   0.441   7.688   7.100  0.2249  0.9559  0.1038
17404SOL     OW56667   2.128   0.526   0.357 -0.4461 -0.1546  0.2116
17404SOL    HW156668   2.045   0.508   0.313 -0.7459  1.5486  0.0241
17404SOL    HW256669   2.107   0.528   0.450 -0.2316 -1.5666  0.3131
17405SOL     OW56670   4.488   6.971   0.078 -0.1246  0.3108 -0.2364
17405SOL    HW156671   4.537   7.046   0.046 -0.4060  1.5643  2.1008
17405SOL    HW256672   4.536   6.895   0.045  0.6668  1.4680 -1.9053
17406SOL     OW56673   1.645   6.936   7.664 -0.2593  0.9433 -0.9583
17406SOL    HW156674   1.559   6.921   7.625  0.5752 -0.7588 -2.2736
17406SOL    HW256675   1.706   6.935   7.590  1.2045 -0.8255  0.1841
17407SOL     OW56676   3.703   9.995   6.006 -0.2322 -0.0316  0.1149
17407SOL    HW156677   3.624   9.971   5.956 -0.3770 -0.0331  0.3430
17407SOL    HW256678   3.738   9.911   6.036 -1.0748  0.0605  1.4251
17408SOL     OW56679   8.882   5.625  10.843  0.1450 -0.1249  0.3003
17408SOL    HW156680   8.904   5.577  10.922  0.5116 -0.8011 -0.1946
17408SOL    HW256681   8.882   5.558  10.774  0.6717  0.5833 -0.4027
17409SOL     OW56682   2.332   0.602   6.363 -0.3626 -0.2046  0.1667
17409SOL    HW156683   2.247   0.559   6.374 -0.1900 -0.3472  1.0596
17409SOL    HW256684   2.368   0.565   6.283 -1.9364  1.2317 -1.3050
17410SOL     OW56685   6.144   4.440   3.912  0.4298 -0.1514  0.3411
17410SOL    HW156686   6.199   4.487   3.851 -1.1793  1.5522  0.1070
17410SOL    HW256687   6.165   4.477   3.998  1.0039 -0.8803  0.5296
17411SOL     OW56688   5.781   9.392   7.048 -0.2421 -1.0593  0.0896
17411SOL    HW156689   5.762   9.346   7.130  2.1456 -2.0193  0.1925
17411SOL    HW256690   5.847   9.457   7.071  0.9843 -1.8011 -1.1186
17412SOL     OW56691   4.367   0.081   9.716  0.2998  0.0466 -0.0554
17412SOL    HW156692   4.393   0.024   9.643  0.6454  0.0119  0.0920
17412SOL    HW256693   4.330   0.158   9.673 -0.0014 -0.2090 -0.2593
17413SOL     OW56694   8.256   1.841   9.050 -0.1723 -0.2719 -0.1742
17413SOL    HW156695   8.240   1.805   8.962  0.3182 -0.2931 -0.2553
17413SOL    HW256696   8.190   1.910   9.059 -1.3091 -1.3557  0.0903
17414SOL     OW56697   6.323   7.701   0.205  0.2790 -0.7614  0.1052
17414SOL    HW156698   6.304   7.789   0.173 -0.5096 -1.1088 -0.4429
17414SOL    HW256699   6.376   7.714   0.283  0.3599  0.1906 -0.0971
17415SOL     OW56700   2.437   3.560   3.909 -0.2002  0.2830  0.6114
17415SOL    HW156701   2.495   3.553   3.833 -0.8460  1.2908 -0.0031
17415SOL    HW256702   2.465   3.640   3.954 -0.0261 -0.1393  1.2761
17416SOL     OW56703   8.070   1.678   8.502 -0.0187 -0.0819 -0.0561
17416SOL    HW156704   8.114   1.611   8.449  1.3953  1.3760 -0.8122
17416SOL    HW256705   7.985   1.690   8.459 -0.5803 -1.8404  0.4930
17417SOL     OW56706   3.623   0.492   8.956  0.7783  0.2495 -0.0460
17417SOL    HW156707   3.652   0.401   8.947  1.4814  0.1355  2.4710
17417SOL    HW256708   3.547   0.487   9.014 -0.5310  1.1168 -1.6241
17418SOL     OW56709   1.964   0.562   9.868  0.4821  0.3796  0.5266
17418SOL    HW156710   1.904   0.539   9.797 -0.4820 -4.4689  2.5256
17418SOL    HW256711   2.051   0.546   9.831  0.0176 -1.6522  0.1578
17419SOL     OW56712   8.172  10.119   7.770 -0.2552 -0.2797 -0.4263
17419SOL    HW156713   8.214  10.085   7.849  0.6086 -2.0101 -1.5569
17419SOL    HW256714   8.128  10.199   7.798 -0.6649 -1.2810  1.9708
17420SOL     OW56715   7.018   2.349   3.145  0.6966 -0.1025 -0.2415
17420SOL    HW156716   6.991   2.329   3.055  1.9131 -1.4200 -0.3414
17420SOL    HW256717   6.940   2.336   3.198  0.2699 -0.4945 -0.9598
17421SOL     OW56718   1.974  10.558   7.269 -0.0087 -0.6010  0.1168
17421SOL    HW156719   2.012  10.513   7.345  0.6676  0.3317  0.3418
17421SOL    HW256720   2.048  10.571   7.209  0.2969  2.0914  0.9708
17422SOL     OW56721  10.830   1.914   1.056  0.2841 -0.1618  0.1000
17422SOL    HW156722  10.769   1.857   1.104 -0.9972 -0.8413 -2.1356
17422SOL    HW256723  10.773   1.967   0.999  1.7014  0.1710 -1.0788
17423SOL     OW56724   9.575   5.058  10.385  0.2578  0.2301  0.4460
17423SOL    HW156725   9.658   5.081  10.343 -0.3502 -0.2375 -1.0918
17423SOL    HW256726   9.576   4.962  10.390 -0.1045  0.2316  0.5878
17424SOL     OW56727  10.807   0.351   1.951 -0.4582  0.0345 -0.6695
17424SOL    HW156728  10.866   0.285   1.985  0.3200  0.3425 -1.3845
17424SOL    HW256729  10.853   0.388   1.876 -1.0106  1.1715 -0.4722
17425SOL     OW56730   1.113   9.261  10.960  0.1049 -0.8758  0.0452
17425SOL    HW156731   1.074   9.181  10.924  0.4488 -0.8860 -0.3121
17425SOL    HW256732   1.042   9.301  11.011 -0.6486 -0.4438 -1.3005
17426SOL     OW56733   3.583   2.725   4.794 -0.5568 -0.1333 -0.5775
17426SOL    HW156734   3.562   2.633   4.777 -1.5992 -0.2451  1.0877
17426SOL    HW256735   3.673   2.724   4.825 -1.4826 -1.0556  2.4028
17427SOL     OW56736   6.300  10.761   5.138 -0.3948  0.4756 -0.3512
17427SOL    HW156737   6.205  10.766   5.149 -0.1515 -0.2308  3.0237
17427SOL    HW256738   6.319  10.668   5.131  0.1326  0.5459  0.0906
17428SOL     OW56739   0.213   8.617   3.496  0.2726  0.0907  0.1173
17428SOL    HW156740   0.206   8.708   3.525 -0.9101  0.1345 -0.2712
17428SOL    HW256741   0.253   8.572   3.570  0.1962  0.7895  0.5941
17429SOL     OW56742   5.978   6.117   0.427 -0.4203 -0.4236 -0.2397
17429SOL    HW156743   5.961   6.145   0.337  0.3158  0.3572 -0.1510
17429SOL    HW256744   6.066   6.079   0.424  0.4940  1.4799  0.5077
17430SOL     OW56745   6.923   8.093   5.427 -0.2958 -0.0716 -0.3114
17430SOL    HW156746   7.012   8.099   5.394 -0.3507  1.3431 -0.2687
17430SOL    HW256747   6.926   8.131   5.514 -1.1126  0.8773 -0.6795
17431SOL     OW56748   9.703   3.896  11.073 -0.3817 -0.0492  0.4028
17431SOL    HW156749   9.720   3.922  11.164  1.8053 -1.1146  0.3680
17431SOL    HW256750   9.655   3.970  11.036 -0.3677  0.8814  2.1250
17432SOL     OW56751   1.542  10.993   5.780  0.0836 -0.5559 -0.2255
17432SOL    HW156752   1.506  10.919   5.731  1.1438 -0.6912 -0.8310
17432SOL    HW256753   1.555  10.959   5.869  0.1041 -0.9493 -0.3779
17433SOL     OW56754   2.639   0.350   0.256 -0.5346  0.3165  0.1596
17433SOL    HW156755   2.583   0.362   0.333 -1.4339  2.7411 -0.7529
17433SOL    HW256756   2.598   0.404   0.189 -0.0524 -2.0958 -2.2189
17434SOL     OW56757   7.800   0.728   1.651  0.7088 -0.0017 -0.2324
17434SOL    HW156758   7.808   0.757   1.560  0.4037 -1.6253 -0.8256
17434SOL    HW256759   7.882   0.755   1.693 -0.1979  3.1324 -0.2172
17435SOL     OW56760   0.089   8.163   8.123  0.3968 -0.0246 -0.2267
17435SOL    HW156761   0.136   8.102   8.066  2.8182  1.4565  0.0099
17435SOL    HW256762  -0.003   8.147   8.106  1.0079 -1.1386 -2.9540
17436SOL     OW56763   4.824   7.289   5.485 -0.0467  0.0104 -0.3090
17436SOL    HW156764   4.855   7.366   5.437  1.1208  0.1868  0.6850
17436SOL    HW256765   4.756   7.323   5.543 -1.2440 -0.1518 -1.5540
17437SOL     OW56766   4.425   2.261   3.274  0.1480  0.0644  0.4974
17437SOL    HW156767   4.464   2.345   3.251  0.4153  0.3655  1.9312
17437SOL    HW256768   4.380   2.278   3.357 -1.0277 -0.8598  0.0794
17438SOL     OW56769   2.123   9.528   2.935  0.6129  0.1458  0.2213
17438SOL    HW156770   2.080   9.479   3.005  0.6082  0.5510  0.5073
17438SOL    HW256771   2.182   9.465   2.893  1.4792  0.1796  1.3280
17439SOL     OW56772   0.621   3.908   9.862  0.1781  0.1089 -0.3900
17439SOL    HW156773   0.557   3.844   9.831  0.6349  0.2882 -1.7905
17439SOL    HW256774   0.619   3.901   9.957 -0.2622 -1.5056 -0.4960
17440SOL     OW56775   7.942  10.134   3.166  0.2042 -0.3905 -0.2077
17440SOL    HW156776   7.978  10.200   3.227  0.2626 -0.6163  0.0037
17440SOL    HW256777   7.943  10.053   3.216 -0.4463 -0.4330 -0.2628
17441SOL     OW56778   1.769   9.647   5.719 -0.7094  0.2468 -0.5904
17441SOL    HW156779   1.764   9.736   5.753 -0.6139  0.0008  0.0853
17441SOL    HW256780   1.855   9.616   5.747  0.0282  0.5496 -2.3728
17442SOL     OW56781   3.309   7.530   6.876  0.0349  0.3127  0.6496
17442SOL    HW156782   3.327   7.572   6.960  0.3067 -0.8127  1.1804
17442SOL    HW256783   3.277   7.442   6.900 -1.1003  0.4115 -0.3954
17443SOL     OW56784  10.816   5.708   7.827  0.3695  0.1084  0.0563
17443SOL    HW156785  10.848   5.660   7.903 -0.4947  1.6966  1.4642
17443SOL    HW256786  10.751   5.649   7.788 -0.3349 -0.1070  1.4844
17444SOL     OW56787   9.896   4.076   7.606 -0.0480  0.0003  0.0709
17444SOL    HW156788   9.812   4.074   7.650  0.3605 -0.2837  0.8471
17444SOL    HW256789   9.933   3.988   7.620 -0.2536 -0.3738 -1.5158
17445SOL     OW56790   9.793   3.895   0.706 -0.1675 -1.0575  0.1457
17445SOL    HW156791   9.801   3.909   0.800 -0.6122  0.0813  0.0315
17445SOL    HW256792   9.878   3.920   0.670 -0.8387  1.1784 -0.0154
17446SOL     OW56793   6.905   6.793   2.880  0.8443 -0.3757  0.5254
17446SOL    HW156794   6.887   6.799   2.786 -0.4059 -0.1746  0.7569
17446SOL    HW256795   6.902   6.700   2.899  0.7727 -0.3957  0.4203
17447SOL     OW56796   0.812   7.576   5.954  1.3490 -0.3046  0.2498
17447SOL    HW156797   0.795   7.536   5.868 -0.1419 -0.2206  0.4768
17447SOL    HW256798   0.878   7.643   5.937  0.8194 -0.0497 -0.9043
17448SOL     OW56799   6.618   7.392   2.218 -0.1523  0.0492  0.2583
17448SOL    HW156800   6.536   7.375   2.266 -1.4431  1.7294 -1.2144
17448SOL    HW256801   6.631   7.486   2.225  0.0197  0.2539 -1.9729
17449SOL     OW56802   2.153   5.143   8.334  0.6215  0.4857 -0.0256
17449SOL    HW156803   2.222   5.167   8.273 -1.9649  1.2118 -2.9053
17449SOL    HW256804   2.114   5.227   8.360  0.4156  0.0673  1.0742
17450SOL     OW56805  10.490   3.640   3.479  0.0269 -0.0824 -0.1046
17450SOL    HW156806  10.577   3.601   3.488  0.4202  0.9679  0.8146
17450SOL    HW256807  10.496   3.692   3.399  0.6647  0.9788  0.6020
17451SOL     OW56808  10.049   3.276   0.265  0.0279 -0.0777 -0.6491
17451SOL    HW156809  10.103   3.351   0.241 -0.5666 -0.0763 -2.0727
17451SOL    HW256810  10.081   3.250   0.352 -0.6189  2.6374  0.5186
17452SOL     OW56811   8.697  10.411   8.001 -0.2147 -0.1077 -0.4048
17452SOL    HW156812   8.722  10.457   7.921  2.0880 -0.8411 -0.1802
17452SOL    HW256813   8.720  10.470   8.072 -3.0502  0.9124 -0.1838
17453SOL     OW56814   2.750   2.140  10.479 -0.1789 -0.0811  0.4199
17453SOL    HW156815   2.659   2.129  10.453  0.6038 -2.8749 -1.4948
17453SOL    HW256816   2.796   2.159  10.397  0.8874  2.7270  1.5265
17454SOL     OW56817   6.370   6.375   1.349  0.5180 -0.3214 -0.8896
17454SOL    HW156818   6.331   6.442   1.293  2.5350 -0.0391 -2.0840
17454SOL    HW256819   6.309   6.302   1.345 -0.0686  0.2045 -2.3760
17455SOL     OW56820   2.697  10.391   7.698  1.0283  0.1842  0.1891
17455SOL    HW156821   2.694  10.340   7.617  1.7389  0.2920  0.0905
17455SOL    HW256822   2.605  10.406   7.720  0.8190  1.1584 -1.2288
17456SOL     OW56823   3.958   1.165   6.481 -0.2891  0.5124 -0.2219
17456SOL    HW156824   4.032   1.105   6.469 -0.7982 -0.2411  0.3807
17456SOL    HW256825   3.901   1.149   6.406 -0.9529 -0.5478  0.4829
17457SOL     OW56826   2.981  10.640   5.947 -0.5495  0.2101  0.6981
17457SOL    HW156827   2.995  10.638   6.041 -0.4187  1.3481  0.7092
17457SOL    HW256828   3.045  10.703   5.913 -0.3026 -0.5000 -0.2090
17458SOL     OW56829   5.389   3.778  10.681 -0.2855 -0.5827 -0.4699
17458SOL    HW156830   5.394   3.848  10.616  0.3951 -0.5349 -0.3737
17458SOL    HW256831   5.372   3.699  10.630  0.9167 -0.6538 -0.7928
17459SOL     OW56832   7.082   1.364   6.406  0.5487  0.8157 -0.1649
17459SOL    HW156833   7.002   1.382   6.356  1.0473  0.3709 -1.1469
17459SOL    HW256834   7.150   1.414   6.360  1.0715  0.1459 -0.1248
17460SOL     OW56835  10.067   8.487   7.204 -0.8024 -0.3527 -0.4400
17460SOL    HW156836  10.069   8.582   7.192 -0.6426  0.1169  2.5801
17460SOL    HW256837  10.146   8.468   7.254 -1.7290 -1.8230  0.5233
17461SOL     OW56838   1.800   3.756   9.953 -0.2376 -0.3097 -0.7356
17461SOL    HW156839   1.892   3.754   9.928  0.5260  1.8940  1.4416
17461SOL    HW256840   1.799   3.724  10.043 -1.5770 -0.1864 -0.6882
17462SOL     OW56841   9.085   7.859   4.826  0.2590  0.2765  0.3373
17462SOL    HW156842   9.045   7.942   4.850 -0.4360  0.6378 -1.8900
17462SOL    HW256843   9.075   7.853   4.731 -0.3123 -2.6543  0.4863
17463SOL     OW56844   6.736   5.348   7.337  0.3526  0.0889 -0.3203
17463SOL    HW156845   6.736   5.272   7.279  1.4246 -0.2979  0.1602
17463SOL    HW256846   6.751   5.422   7.278 -0.3424 -0.0999 -0.7476
17464SOL     OW56847   0.959   6.223  10.158 -0.1745 -0.0683  0.5403
17464SOL    HW156848   0.909   6.210  10.077  0.9971  2.0101 -0.5965
17464SOL    HW256849   0.912   6.171  10.224 -1.2740 -1.6733 -1.3946
17465SOL     OW56850   4.705   8.682   1.961 -0.7101 -0.0520 -0.4726
17465SOL    HW156851   4.619   8.702   1.926 -1.1572 -1.2198 -0.0896
17465SOL    HW256852   4.725   8.594   1.929 -0.8740 -0.9235  1.6193
17466SOL     OW56853   7.995   1.411   4.711  0.0101 -0.5089  0.1759
17466SOL    HW156854   7.982   1.459   4.630  1.8586  1.2874  0.8673
17466SOL    HW256855   8.047   1.334   4.685  2.0578  0.9094 -0.1957
17467SOL     OW56856   9.909   4.304   8.404 -0.5406  0.1912  0.1099
17467SOL    HW156857   9.926   4.356   8.482 -0.7154  0.2023  0.1421
17467SOL    HW256858   9.828   4.257   8.425 -0.1197 -0.4776  0.2800
17468SOL     OW56859   8.333   6.206   2.370  0.5828 -0.4107  0.4495
17468SOL    HW156860   8.291   6.292   2.363  2.4636  0.8826  3.1009
17468SOL    HW256861   8.427   6.225   2.365  1.1043 -2.0765  2.4410
17469SOL     OW56862   2.992   7.866   0.475 -0.0683  0.5124  0.0005
17469SOL    HW156863   2.907   7.910   0.483 -0.2788 -0.0228  0.7745
17469SOL    HW256864   3.026   7.896   0.390 -0.2225  2.1111  0.4774
17470SOL     OW56865   5.643   4.853   3.666  0.2819 -0.0201 -0.3131
17470SOL    HW156866   5.660   4.851   3.571  0.9918  1.4071 -0.2386
17470SOL    HW256867   5.726   4.880   3.704  0.4863 -2.1007  0.8920
17471SOL     OW56868   1.340   1.016   4.090  0.4643 -0.8019  0.4190
17471SOL    HW156869   1.372   1.051   4.006  2.3778  0.5935  1.6595
17471SOL    HW256870   1.259   0.970   4.067  0.5479  0.1402 -2.0850
17472SOL     OW56871   8.881   1.325   3.435  0.1383 -0.1122 -0.8959
17472SOL    HW156872   8.894   1.262   3.506 -1.4269  0.1568 -0.3405
17472SOL    HW256873   8.892   1.272   3.355 -0.7882 -1.0153 -0.4401
17473SOL     OW56874   9.388   2.616   4.029 -0.3267  0.5271  0.0496
17473SOL    HW156875   9.358   2.694   3.982 -0.7500 -0.3913 -1.2591
17473SOL    HW256876   9.328   2.546   4.000  0.0888 -0.3098  1.1301
17474SOL     OW56877   3.277   5.429   0.629 -0.2249 -0.7832  0.0506
17474SOL    HW156878   3.314   5.406   0.714  0.6687  1.2385  0.2595
17474SOL    HW256879   3.188   5.460   0.649 -0.9231 -2.5439 -0.0842
17475SOL     OW56880   1.441  10.081   8.012  0.4912 -0.2615  0.1667
17475SOL    HW156881   1.466  10.167   8.045  1.8621 -0.2571 -0.7948
17475SOL    HW256882   1.461  10.021   8.084  1.5458 -0.0210  0.0848
17476SOL     OW56883   8.786   9.358   3.941 -0.9661 -0.1879 -0.3280
17476SOL    HW156884   8.792   9.326   4.031 -1.6225 -1.3884 -0.6856
17476SOL    HW256885   8.874   9.345   3.906 -1.0745 -1.0992 -0.2880
17477SOL     OW56886   9.385   7.553   2.131  0.1452  0.3663  0.0214
17477SOL    HW156887   9.317   7.606   2.089  2.1007  0.5086 -3.2191
17477SOL    HW256888   9.456   7.615   2.150  0.2117 -0.1319  1.6023
17478SOL     OW56889   6.640   8.996   7.862 -0.0311  0.3616 -0.1927
17478SOL    HW156890   6.712   8.985   7.924 -0.2249 -1.7216 -0.2678
17478SOL    HW256891   6.563   8.963   7.909 -0.1311 -1.5387 -1.5698
17479SOL     OW56892   4.127   5.090   8.279 -0.7437  0.5577  0.3194
17479SOL    HW156893   4.209   5.049   8.308 -2.5323 -1.4208  3.1342
17479SOL    HW256894   4.107   5.155   8.346 -0.7499  2.2158 -1.2097
17480SOL     OW56895   3.870   3.892   4.918 -0.0032  0.3765  0.2307
17480SOL    HW156896   3.964   3.876   4.926  0.9050  2.5734 -3.4646
17480SOL    HW256897   3.832   3.805   4.902  1.8350 -0.3040 -0.7519
17481SOL     OW56898  10.412   1.289   7.714  0.3070  0.7615  0.2104
17481SOL    HW156899  10.426   1.250   7.801 -1.9593 -5.5460 -1.6578
17481SOL    HW256900  10.489   1.261   7.663 -0.4504  0.3995 -0.7663
17482SOL     OW56901   7.392   1.707   8.868 -0.2929  0.1541 -0.1043
17482SOL    HW156902   7.406   1.706   8.962 -0.0037  1.2179 -0.1165
17482SOL    HW256903   7.410   1.798   8.842  0.5932 -0.3249 -1.3126
17483SOL     OW56904   2.048   3.191  10.007 -0.3472  0.2774 -0.0205
17483SOL    HW156905   1.996   3.232   9.938 -0.9561  0.1788  0.3714
17483SOL    HW256906   2.106   3.130   9.960 -0.0940  0.8957 -0.5184
17484SOL     OW56907   7.028   5.402  10.369  0.4533 -0.1613 -0.0631
17484SOL    HW156908   6.980   5.484  10.360  0.3652  0.0924  2.0563
17484SOL    HW256909   7.086   5.400  10.294  1.2835  2.4365  0.3923
17485SOL     OW56910   0.037   4.750   4.231 -0.3582  0.2082  0.3057
17485SOL    HW156911   0.029   4.738   4.325 -1.5518  0.4889  0.2600
17485SOL    HW256912   0.068   4.666   4.198 -2.0281 -0.6198  0.7267
17486SOL     OW56913   3.488  10.419   5.784  0.3011  0.1773  0.4103
17486SOL    HW156914   3.400  10.445   5.810 -0.2105 -0.9025 -0.1827
17486SOL    HW256915   3.478  10.330   5.752  1.4807  0.3102 -0.3768
17487SOL     OW56916   3.508   4.274   0.136 -0.2698 -0.1218  0.0166
17487SOL    HW156917   3.590   4.310   0.171  0.3913 -0.7667 -0.8020
17487SOL    HW256918   3.472   4.221   0.207  0.0019  0.2025  0.4007
17488SOL     OW56919   4.472   5.857   9.630  0.4948 -0.5531  0.3742
17488SOL    HW156920   4.530   5.929   9.655  0.1501 -0.1505  0.0155
17488SOL    HW256921   4.394   5.869   9.683 -0.9325  1.2556 -1.9596
17489SOL     OW56922   8.111   2.395   5.707 -0.1662 -0.2137  0.6279
17489SOL    HW156923   8.028   2.440   5.691  0.0204  0.0992  0.5198
17489SOL    HW256924   8.128   2.410   5.800 -1.1562 -1.8693  1.1077
17490SOL     OW56925   6.489   3.644   1.629  0.0848  0.0321 -0.6524
17490SOL    HW156926   6.408   3.688   1.602 -0.9570 -0.3672  1.5788
17490SOL    HW256927   6.488   3.561   1.583 -1.3255 -0.3876  0.0864
17491SOL     OW56928   5.482   7.670   7.127 -0.0036 -0.2348 -0.0425
17491SOL    HW156929   5.523   7.587   7.149 -0.4549 -0.1696  1.1092
17491SOL    HW256930   5.492   7.724   7.206  0.3139  0.8192 -0.7777
17492SOL     OW56931  11.069   2.178   4.397 -0.7297  0.9318  0.5002
17492SOL    HW156932  11.051   2.098   4.348  1.5166  0.9263 -0.3817
17492SOL    HW256933  11.017   2.168   4.477 -2.3667 -0.2754 -0.6422
17493SOL     OW56934  10.767   9.460   6.110 -0.2727  0.2078  0.3346
17493SOL    HW156935  10.855   9.450   6.074 -0.5252  0.7736 -0.4666
17493SOL    HW256936  10.780   9.473   6.203  0.3780 -1.6869  0.5354
17494SOL     OW56937   5.679   9.144  10.975 -0.0534 -0.0010 -0.1081
17494SOL    HW156938   5.716   9.075  10.920 -1.4695  0.2218 -1.3931
17494SOL    HW256939   5.715   9.225  10.938  0.0889  0.0718  0.1882
17495SOL     OW56940   2.672   3.367   4.282 -0.3600 -0.0867  0.1767
17495SOL    HW156941   2.611   3.371   4.208  0.2834 -0.9499 -0.4224
17495SOL    HW256942   2.662   3.279   4.317  1.1877 -0.5681 -0.5176
17496SOL     OW56943   4.076   0.730   6.756  0.2902 -0.2412 -0.6618
17496SOL    HW156944   4.079   0.638   6.730  2.1098  0.0094 -1.4521
17496SOL    HW256945   4.116   0.777   6.684  2.4789  0.8080  1.1078
17497SOL     OW56946   1.764   5.282   1.231 -0.0428  0.4848  0.0399
17497SOL    HW156947   1.746   5.373   1.251  1.1861  0.8582 -0.4513
17497SOL    HW256948   1.682   5.236   1.252 -0.9323  1.7936 -0.4381
17498SOL     OW56949   8.510  10.078   6.308  0.1924 -0.4291 -0.5534
17498SOL    HW156950   8.460  10.019   6.251 -0.2655 -0.5149 -0.0717
17498SOL    HW256951   8.523  10.157   6.257  1.5201 -1.2233 -1.5274
17499SOL     OW56952   8.722   7.475   1.604  0.4383 -0.1636  0.5183
17499SOL    HW156953   8.736   7.385   1.574 -0.6962 -0.5222  0.9997
17499SOL    HW256954   8.768   7.530   1.540  1.2973 -1.0935  0.3243
17500SOL     OW56955   1.832   7.414   0.439  0.3970 -0.2756 -0.6928
17500SOL    HW156956   1.835   7.442   0.530  2.2377  2.3720 -1.4586
17500SOL    HW256957   1.898   7.345   0.433 -0.5003 -1.2364  0.1606
17501SOL     OW56958   8.115   2.535   6.916  0.5096 -0.3923 -0.1321
17501SOL    HW156959   8.108   2.439   6.913 -0.1776 -0.3487 -0.0719
17501SOL    HW256960   8.092   2.558   7.006  0.9199 -0.1876 -0.0793
17502SOL     OW56961   7.558   2.560   5.034 -0.7269 -0.1391  0.1350
17502SOL    HW156962   7.486   2.616   5.005 -1.6128 -1.2178  0.1963
17502SOL    HW256963   7.636   2.598   4.992 -1.3151  1.0359  0.0680
17503SOL     OW56964   6.705   7.381   1.199 -0.2866  0.0280  0.1819
17503SOL    HW156965   6.650   7.434   1.142  0.5724  1.2353  0.4330
17503SOL    HW256966   6.647   7.354   1.271 -0.9961 -0.2703 -0.4945
17504SOL     OW56967   9.945  10.574   3.608 -0.2122  0.6373  0.2069
17504SOL    HW156968   9.908  10.640   3.549 -0.0479  1.1130  0.6349
17504SOL    HW256969   9.948  10.616   3.693 -0.3902 -0.0307  0.5495
17505SOL     OW56970  10.972   0.036  10.279  0.1090 -0.5340  0.7110
17505SOL    HW156971  10.876   0.032  10.283  0.0034 -0.5595 -0.9950
17505SOL    HW256972  10.990   0.077  10.194  1.6254 -1.6260  0.4744
17506SOL     OW56973   1.005   0.416   4.561 -0.1712  0.3539  0.3081
17506SOL    HW156974   1.068   0.423   4.489 -0.5127  0.1505 -0.0140
17506SOL    HW256975   0.920   0.409   4.518 -0.5590  1.9007  0.7391
17507SOL     OW56976   4.682   6.020   7.497  0.4612 -0.1724  0.0915
17507SOL    HW156977   4.736   6.070   7.435 -0.8338  0.7761 -0.3192
17507SOL    HW256978   4.643   5.951   7.443 -2.0513  1.6898 -0.6499
17508SOL     OW56979   1.348   9.302   2.873  0.3502 -0.8334  0.4804
17508SOL    HW156980   1.413   9.284   2.805 -2.1036 -3.7526 -1.3195
17508SOL    HW256981   1.301   9.379   2.842 -0.3040 -1.7412 -0.8623
17509SOL     OW56982   3.557   6.830   0.740  0.1786 -0.0986 -0.4166
17509SOL    HW156983   3.463   6.811   0.738  0.0037  0.4641  1.2001
17509SOL    HW256984   3.563   6.912   0.788  1.4544  0.2482 -1.1517
17510SOL     OW56985  10.904   9.820   7.008  0.2711  0.2787  0.0020
17510SOL    HW156986  10.897   9.892   6.945 -2.7241  0.3958  0.3188
17510SOL    HW256987  10.816   9.784   7.013  0.8094 -0.8981  2.8051
17511SOL     OW56988   6.929   9.402   1.939  0.1571 -0.1437  0.4313
17511SOL    HW156989   6.841   9.379   1.909 -0.9642  3.4245  0.4795
17511SOL    HW256990   6.920   9.411   2.034 -0.0769  2.2217  0.2468
17512SOL     OW56991   6.758   6.150   0.800 -0.0299 -0.0110 -0.4200
17512SOL    HW156992   6.698   6.164   0.872  0.1968  0.4866 -0.3236
17512SOL    HW256993   6.712   6.089   0.742 -1.2572  1.4695 -1.0765
17513SOL     OW56994   7.121   6.475   7.748 -0.3927 -0.3125  0.2592
17513SOL    HW156995   7.184   6.476   7.820  0.1054 -0.1577 -0.1669
17513SOL    HW256996   7.036   6.477   7.790 -0.2580 -3.9897  1.0004
17514SOL     OW56997   7.001   0.010   5.602  0.1415  0.1072 -0.4735
17514SOL    HW156998   6.929  -0.030   5.553 -0.8056  1.3265 -0.1248
17514SOL    HW256999   7.001  -0.034   5.686  1.0281 -1.1854 -1.1069
17515SOL     OW57000   9.139   7.128   9.315  0.2007 -0.3815 -1.4380
17515SOL    HW157001   9.085   7.049   9.325  0.6344 -0.7205 -1.7341
17515SOL    HW257002   9.177   7.119   9.228  1.3271 -0.5149 -0.9447
17516SOL     OW57003   9.612  10.268  10.558 -0.4954 -0.2618 -0.2522
17516SOL    HW157004   9.693  10.220  10.540  0.4963  1.2287  0.0733
17516SOL    HW257005   9.601  10.262  10.653 -0.5194 -0.0814 -0.2441
17517SOL     OW57006   5.483   8.579   2.085  0.3517  0.7815  0.8923
17517SOL    HW157007   5.527   8.661   2.062  1.5830 -0.5074 -1.8197
17517SOL    HW257008   5.541   8.511   2.052 -2.1076 -1.1239  0.2358
17518SOL     OW57009   7.575   8.462   6.670 -0.3586 -0.1483  0.1947
17518SOL    HW157010   7.561   8.432   6.760  0.5727  0.1625  0.4514
17518SOL    HW257011   7.534   8.395   6.616 -2.2414  0.3853  0.8764
17519SOL     OW57012   5.642   4.240   1.290  0.3390 -0.4119  0.2242
17519SOL    HW157013   5.601   4.186   1.358  1.8443 -0.1188  1.4326
17519SOL    HW257014   5.700   4.299   1.339  3.1786 -1.6718 -1.4065
17520SOL     OW57015   9.690   8.592   4.289 -0.2836 -0.3681  0.6114
17520SOL    HW157016   9.695   8.558   4.200  0.5939  0.2263  0.4149
17520SOL    HW257017   9.606   8.560   4.323 -0.3403 -1.1228 -0.2021
17521SOL     OW57018   6.086   8.912   0.808  0.6284  0.1129 -0.2014
17521SOL    HW157019   6.059   8.986   0.753  2.8814 -0.7174 -2.6587
17521SOL    HW257020   6.153   8.948   0.865  0.3707  0.3717 -0.0614
17522SOL     OW57021   0.704   4.875   5.295  0.1209  0.0899  0.3614
17522SOL    HW157022   0.753   4.851   5.216  0.3537 -0.9263  0.7981
17522SOL    HW257023   0.657   4.795   5.319 -0.6084  0.6335  0.7826
17523SOL     OW57024   7.478   2.679   1.965  0.6289 -0.1350 -0.2771
17523SOL    HW157025   7.510   2.626   2.038  1.2147 -1.3906 -1.3970
17523SOL    HW257026   7.541   2.662   1.894  0.3901  1.4671 -0.9260
17524SOL     OW57027   2.809   4.110   0.015 -0.1475  0.1485 -0.3611
17524SOL    HW157028   2.800   4.197   0.054 -1.6659 -0.5319  0.8823
17524SOL    HW257029   2.793   4.049   0.086  1.4267 -1.2041 -1.0895
17525SOL     OW57030   1.542   3.707   6.917 -0.2539  0.1944  0.2405
17525SOL    HW157031   1.481   3.648   6.962 -1.0940  1.7883  1.2734
17525SOL    HW257032   1.492   3.743   6.844 -0.0656  0.3584  0.1902
17526SOL     OW57033   5.989   7.820   3.098 -0.6269  0.1043  0.7349
17526SOL    HW157034   6.039   7.750   3.057  0.8715  0.3288  2.0711
17526SOL    HW257035   5.909   7.826   3.047  0.0301 -1.3337 -0.5254
17527SOL     OW57036   6.350   8.545   0.841  0.1900  0.1443 -0.0736
17527SOL    HW157037   6.381   8.633   0.820 -1.0431  0.2401 -1.6230
17527SOL    HW257038   6.379   8.531   0.931  1.3254  1.7081 -0.1475
17528SOL     OW57039  10.270   1.332   7.996  0.1766 -0.5025  0.5237
17528SOL    HW157040  10.208   1.259   8.007  0.7786 -1.0777  0.1877
17528SOL    HW257041  10.227   1.391   7.934 -0.9210  0.1300  1.8233
17529SOL     OW57042   9.052  10.511  10.182  0.0323  0.5738  0.9352
17529SOL    HW157043   8.980  10.502  10.119  0.6940  2.2769 -0.1570
17529SOL    HW257044   9.128  10.535  10.128  0.7528  1.5910  2.3266
17530SOL     OW57045  10.604   5.777   6.713 -0.3884  0.3081  0.2145
17530SOL    HW157046  10.578   5.733   6.794 -2.0915  0.8085 -0.0346
17530SOL    HW257047  10.540   5.748   6.648  0.9680 -0.1190 -0.9935
17531SOL     OW57048   5.486  10.998   9.356  0.1177  0.4035  0.5699
17531SOL    HW157049   5.492  10.930   9.288 -3.0225  2.1790 -1.7797
17531SOL    HW257050   5.558  11.057   9.338  0.6321 -0.3157  0.2166
17532SOL     OW57051   5.936   7.792   3.640 -0.1657  0.2311 -0.1441
17532SOL    HW157052   6.023   7.829   3.628  0.5231 -1.8269 -2.4705
17532SOL    HW257053   5.942   7.739   3.719  1.0355 -0.6645 -0.8113
17533SOL     OW57054   1.821   9.751   2.403  0.1579  0.1401  0.4714
17533SOL    HW157055   1.789   9.817   2.342 -0.4650 -0.2560  0.3644
17533SOL    HW257056   1.888   9.703   2.354 -0.2160 -0.0626  0.1604
17534SOL     OW57057   8.810   6.291   4.146 -0.0781  0.1476 -0.1088
17534SOL    HW157058   8.797   6.200   4.121  2.3860  0.0114 -1.1383
17534SOL    HW257059   8.856   6.331   4.072 -1.5091  2.3888  0.1015
17535SOL     OW57060   5.822   4.524   6.828 -0.5710 -0.3623  0.0036
17535SOL    HW157061   5.820   4.442   6.877 -0.4254 -1.1641 -1.2750
17535SOL    HW257062   5.910   4.527   6.790 -1.1720 -0.5976 -1.5144
17536SOL     OW57063  10.498   6.741   5.640  0.6198 -0.5838  0.7642
17536SOL    HW157064  10.463   6.810   5.584 -0.9089 -2.3615 -0.6328
17536SOL    HW257065  10.593   6.750   5.635  0.4985  0.0124 -1.2578
17537SOL     OW57066   6.364   3.775   3.552  0.2566  0.0791  0.4467
17537SOL    HW157067   6.276   3.750   3.581 -1.2956  0.4602 -3.4287
17537SOL    HW257068   6.403   3.692   3.523  0.8538  0.0770  1.2050
17538SOL     OW57069   9.631   0.344   3.820  0.3990 -0.4331  0.0293
17538SOL    HW157070   9.536   0.331   3.815  0.1222  1.2248  0.1882
17538SOL    HW257071   9.668   0.258   3.801 -1.1064 -0.8738 -1.2058
17539SOL     OW57072   7.571   9.386   1.509  0.2419 -0.5886 -0.5770
17539SOL    HW157073   7.663   9.413   1.505  0.7619 -1.9872  1.0344
17539SOL    HW257074   7.526   9.460   1.549  1.1424 -0.8553  1.0236
17540SOL     OW57075   1.031   8.569  11.011 -0.9573  0.0081  0.1982
17540SOL    HW157076   0.944   8.576  10.972 -0.3569  0.8461 -1.0719
17540SOL    HW257077   1.038   8.645  11.069 -0.1970  1.3981 -1.6140
17541SOL     OW57078   6.660   4.733   5.321 -0.3917 -0.8665 -0.0555
17541SOL    HW157079   6.750   4.751   5.350 -0.8970  2.5751 -0.1985
17541SOL    HW257080   6.610   4.729   5.402 -0.5100  0.1054 -0.0705
17542SOL     OW57081   5.882  10.563   6.671  0.1239  1.0527 -0.2708
17542SOL    HW157082   5.904  10.470   6.665 -0.3459  1.0285 -2.3959
17542SOL    HW257083   5.956  10.608   6.631 -0.5076  1.4596 -0.9949
17543SOL     OW57084   5.467   6.519   9.763 -0.3132  0.0282 -0.0491
17543SOL    HW157085   5.557   6.553   9.762 -0.6971  1.1762  1.4222
17543SOL    HW257086   5.417   6.584   9.714 -0.6956  0.5387  0.9938
17544SOL     OW57087   6.437  10.283   4.359  0.6569  0.2695 -0.4350
17544SOL    HW157088   6.406  10.328   4.437 -0.3409 -1.2323  0.0713
17544SOL    HW257089   6.500  10.344   4.320 -0.3315  1.9058  0.4148
17545SOL     OW57090   1.547   2.639   7.119 -0.1266 -0.6435  0.0163
17545SOL    HW157091   1.455   2.653   7.144 -0.1753 -0.3686 -0.3053
17545SOL    HW257092   1.586   2.727   7.122  0.3733 -0.8948  1.1124
17546SOL     OW57093   1.220   0.187   7.517 -0.2866 -0.6125 -0.6343
17546SOL    HW157094   1.130   0.164   7.537  0.1746 -0.7606  1.5069
17546SOL    HW257095   1.273   0.121   7.562  0.9371  1.6957  1.6089
17547SOL     OW57096   2.200   1.490   6.557  0.9535 -0.1386 -0.3538
17547SOL    HW157097   2.205   1.499   6.652  2.4484  0.2381 -0.4464
17547SOL    HW257098   2.108   1.506   6.536  0.7923  0.7542  0.9351
17548SOL     OW57099   2.041   0.959   8.529 -0.4840 -0.2003 -0.1374
17548SOL    HW157100   2.037   1.051   8.556 -1.2174 -0.7682  1.8990
17548SOL    HW257101   1.980   0.952   8.456  0.0542  1.0372 -0.7270
17549SOL     OW57102   7.730   7.543  10.166  0.2507  0.5396 -0.7282
17549SOL    HW157103   7.763   7.618  10.215 -0.5013  1.9063 -2.1845
17549SOL    HW257104   7.666   7.581  10.105 -0.6613 -1.3890 -1.0578
17550SOL     OW57105   7.911   3.355   3.258 -0.0282 -0.0725 -0.0942
17550SOL    HW157106   7.979   3.338   3.194 -0.3074  1.1519 -0.7640
17550SOL    HW257107   7.837   3.302   3.230 -0.2016  0.5813 -0.8974
17551SOL     OW57108   7.419   8.012   8.707 -0.1326  0.1010 -0.2152
17551SOL    HW157109   7.368   7.968   8.774  1.1555  0.1688  0.8579
17551SOL    HW257110   7.499   7.960   8.699 -0.6435 -0.4451 -2.4057
17552SOL     OW57111  10.008   3.748   4.437  0.1496  0.4374 -0.3978
17552SOL    HW157112   9.936   3.713   4.490  0.3269 -1.0064 -1.0602
17552SOL    HW257113  10.079   3.762   4.500 -0.5196  1.3839  0.1762
17553SOL     OW57114   8.109   9.470   0.955 -0.1472  0.2827 -0.6687
17553SOL    HW157115   8.131   9.562   0.941  0.0975  0.2473 -0.5351
17553SOL    HW257116   8.018   9.471   0.983  0.5372  0.7149  1.7842
17554SOL     OW57117   0.605   4.536   1.698 -0.1500  0.9051  0.6854
17554SOL    HW157118   0.635   4.445   1.703 -3.1821 -0.3486 -1.1429
17554SOL    HW257119   0.684   4.587   1.679  1.5286 -1.4159  1.0694
17555SOL     OW57120   7.188  10.422  11.049  0.3967  0.3298 -0.1440
17555SOL    HW157121   7.271  10.463  11.023  1.8857 -1.9560  0.7579
17555SOL    HW257122   7.208  10.329  11.058 -2.3265 -0.3392 -0.0249
17556SOL     OW57123   4.844   2.768   4.521 -0.0530  0.7249 -0.2445
17556SOL    HW157124   4.869   2.791   4.611 -1.4990 -0.8248  0.6037
17556SOL    HW257125   4.772   2.706   4.531  0.4352 -0.2974 -2.4741
17557SOL     OW57126   6.213  10.137   4.719 -0.0673 -0.3818 -0.4540
17557SOL    HW157127   6.258  10.111   4.639 -0.2532  0.5059 -0.8651
17557SOL    HW257128   6.121  10.145   4.693 -0.2625 -0.9422  0.0627
17558SOL     OW57129   8.774   5.465   6.112 -0.1842 -0.5982  0.2077
17558SOL    HW157130   8.779   5.426   6.025 -1.6747 -0.5023  0.0538
17558SOL    HW257131   8.786   5.559   6.097 -1.6333 -0.4318 -0.0787
17559SOL     OW57132   5.163   5.173   8.947 -0.5623  0.5723  0.8467
17559SOL    HW157133   5.249   5.212   8.958  0.7391 -1.7101 -0.4128
17559SOL    HW257134   5.126   5.170   9.035  0.7723  1.2618  1.4579
17560SOL     OW57135   9.773   2.513   4.285  0.4498 -0.5424  0.5159
17560SOL    HW157136   9.859   2.492   4.251  0.5808 -0.0794  0.5504
17560SOL    HW257137   9.777   2.490   4.378 -0.0061 -2.1022  0.1790
17561SOL     OW57138   5.659   6.631   7.106 -0.2372 -0.4170 -0.3377
17561SOL    HW157139   5.596   6.565   7.134 -0.9719  0.2455 -0.3996
17561SOL    HW257140   5.661   6.624   7.011 -2.0545  1.1588 -0.5496
17562SOL     OW57141   0.783   6.363   1.322 -0.3935 -0.0550 -0.0069
17562SOL    HW157142   0.820   6.287   1.278 -0.7208 -1.2961  1.7730
17562SOL    HW257143   0.811   6.355   1.413 -1.3954  1.3397  0.4694
17563SOL     OW57144   2.120   3.072   3.966  0.1279  0.2796  0.0066
17563SOL    HW157145   2.171   3.151   3.947 -0.5312  0.6948 -0.0936
17563SOL    HW257146   2.165   3.031   4.040  1.4946 -0.2145 -1.0717
17564SOL     OW57147   2.173   2.154   5.532  0.2719  0.3259  0.9707
17564SOL    HW157148   2.078   2.165   5.538 -0.1709  0.3932 -3.1564
17564SOL    HW257149   2.185   2.060   5.515  0.6471  0.6659 -0.8737
17565SOL     OW57150   2.891   2.942   1.733  0.3715 -0.0930  0.3195
17565SOL    HW157151   2.803   2.928   1.699  0.9145 -1.2323 -0.6667
17565SOL    HW257152   2.941   2.865   1.706  1.8524  0.8271  0.2898
17566SOL     OW57153   1.915   4.021   3.072 -0.0077  0.1569  0.1851
17566SOL    HW157154   1.981   4.019   3.003 -1.1266  0.2551 -0.9214
17566SOL    HW257155   1.878   4.109   3.068 -2.2925 -0.7638 -1.3133
17567SOL     OW57156   4.313   3.460   9.272  0.2981  0.0853 -0.4819
17567SOL    HW157157   4.359   3.409   9.338 -2.6923 -2.5242 -0.1677
17567SOL    HW257158   4.317   3.406   9.193 -0.2075  0.9315 -1.1063
17568SOL     OW57159   9.112   3.779   9.624 -0.1222 -0.1048 -0.1523
17568SOL    HW157160   9.041   3.716   9.613  1.2801 -1.8966  0.4203
17568SOL    HW257161   9.161   3.773   9.541  1.4436 -1.7494  0.8093
17569SOL     OW57162   3.475   3.711   0.908 -0.0310 -0.1654 -0.0693
17569SOL    HW157163   3.398   3.702   0.963 -0.7202 -0.1263 -0.9964
17569SOL    HW257164   3.541   3.750   0.965 -0.5441 -0.6323  0.8657
17570SOL     OW57165   7.572   1.437   8.433  0.1748  0.1497  0.0122
17570SOL    HW157166   7.530   1.470   8.512  1.8961  2.3257  0.1238
17570SOL    HW257167   7.514   1.461   8.362 -1.4982 -2.0148  0.5368
17571SOL     OW57168   7.745   5.259   1.804  0.0564 -0.7780  0.2899
17571SOL    HW157169   7.736   5.273   1.898 -0.3776  0.3560  0.0984
17571SOL    HW257170   7.801   5.183   1.796  2.0312  0.4714  1.4561
17572SOL     OW57171   6.792   0.811   2.245 -0.3933  0.2879  0.1972
17572SOL    HW157172   6.756   0.886   2.294  0.8538  0.4861  0.8253
17572SOL    HW257173   6.750   0.735   2.284 -1.9601  0.6382 -0.6849
17573SOL     OW57174   5.961   9.765   4.789 -0.1840 -0.1141  0.1183
17573SOL    HW157175   5.979   9.727   4.874  1.0115  0.5731  0.1831
17573SOL    HW257176   5.895   9.832   4.806 -0.6167 -0.5880  0.3474
17574SOL     OW57177   3.783  10.436  10.807 -0.1138 -0.2522 -0.5180
17574SOL    HW157178   3.701  10.480  10.785  0.3296  1.1365  0.4502
17574SOL    HW257179   3.851  10.498  10.780  0.5752 -0.8914 -0.2754
17575SOL     OW57180   6.395   8.930   1.746 -0.2210 -0.5062  0.4239
17575SOL    HW157181   6.343   9.010   1.740 -0.3188 -0.5140  1.0260
17575SOL    HW257182   6.484   8.956   1.724 -0.0359  0.0214  1.6922
17576SOL     OW57183   8.501   0.348   9.454 -0.3914 -0.5219  0.2150
17576SOL    HW157184   8.580   0.303   9.422 -0.0080  0.8992 -0.9252
17576SOL    HW257185   8.531   0.436   9.476 -1.5933 -0.0556  0.0634
17577SOL     OW57186  10.705   8.190   7.589  0.3079  0.2916  0.0448
17577SOL    HW157187  10.758   8.252   7.539 -0.0051  0.9447  0.5112
17577SOL    HW257188  10.615   8.221   7.579 -0.2278 -1.6652 -1.9942
17578SOL     OW57189   7.479  11.043   9.273 -0.0339  0.1373  0.6842
17578SOL    HW157190   7.554  11.102   9.273  0.3287 -0.2438 -1.5232
17578SOL    HW257191   7.498  10.979   9.205 -1.9215 -0.5494  0.7345
17579SOL     OW57192   9.211   1.721   0.701 -0.8266 -0.3291 -0.6047
17579SOL    HW157193   9.246   1.810   0.706 -0.3793 -0.5240 -0.1747
17579SOL    HW257194   9.257   1.682   0.627  1.0346 -1.0685  0.8733
17580SOL     OW57195   5.137   6.982   0.676  0.4417 -0.0197  0.1627
17580SOL    HW157196   5.188   7.003   0.755  2.6716  1.3210 -1.5100
17580SOL    HW257197   5.071   7.051   0.672 -0.0898 -0.4507  1.1581
17581SOL     OW57198   4.840   4.226   0.120 -0.1666  0.0172  0.0931
17581SOL    HW157199   4.904   4.293   0.144 -0.8493  1.1159 -0.9988
17581SOL    HW257200   4.883   4.177   0.049 -1.0876  1.8430 -1.8438
17582SOL     OW57201   9.127   3.451   9.761  0.2868 -0.2747 -0.2939
17582SOL    HW157202   9.202   3.400   9.728  0.5431  1.0749 -1.8721
17582SOL    HW257203   9.072   3.467   9.685 -1.2126 -0.4989  0.6887
17583SOL     OW57204   7.425   2.443   5.674  0.1573  0.5891 -0.7366
17583SOL    HW157205   7.338   2.482   5.683 -0.1013  0.3596 -2.0270
17583SOL    HW257206   7.412   2.351   5.694  1.0873  1.2556  4.0496
17584SOL     OW57207   4.194  10.450   5.825  0.3494 -0.2798  0.1019
17584SOL    HW157208   4.131  10.495   5.881  1.4240  0.3025  0.8798
17584SOL    HW257209   4.162  10.360   5.819  0.2886 -0.4065  1.8028
17585SOL     OW57210   3.078   3.315   4.374 -0.2330  0.3346 -0.0136
17585SOL    HW157211   3.008   3.380   4.374 -0.2262  0.3446 -0.2470
17585SOL    HW257212   3.033   3.231   4.387 -0.3274  0.3034 -0.5347
17586SOL     OW57213  10.017   6.541   1.780 -0.1350 -0.4454 -0.6846
17586SOL    HW157214   9.993   6.480   1.711  0.2867  0.1255 -1.3447
17586SOL    HW257215  10.091   6.498   1.825  1.0612  0.1678 -2.0074
17587SOL     OW57216   9.202   3.329  10.669 -0.3489  0.2706  0.1603
17587SOL    HW157217   9.251   3.251  10.642 -1.0032  0.0511 -0.4197
17587SOL    HW257218   9.212   3.332  10.764  0.7753  0.2296  0.0590
17588SOL     OW57219   4.472   2.619   6.833  0.6885  0.2360 -0.3401
17588SOL    HW157220   4.497   2.627   6.925  0.0878 -1.0672 -0.0388
17588SOL    HW257221   4.383   2.654   6.829  0.8211  0.5599 -0.4875
17589SOL     OW57222   2.897   2.270   1.529 -0.0671 -0.4162  0.7725
17589SOL    HW157223   2.803   2.256   1.519  0.3408 -1.9724 -1.6120
17589SOL    HW257224   2.924   2.205   1.595 -0.5075 -0.6693  0.7061
17590SOL     OW57225   5.993   2.203   0.129 -0.0919 -0.0460 -0.5350
17590SOL    HW157226   6.055   2.150   0.077 -0.1759 -0.3852 -0.2921
17590SOL    HW257227   5.994   2.162   0.216  2.1165  2.1120  0.5854
17591SOL     OW57228  10.666   8.576   4.170 -0.0129 -0.1231 -0.4555
17591SOL    HW157229  10.621   8.610   4.093 -0.3718  0.3027 -0.0643
17591SOL    HW257230  10.680   8.484   4.151 -1.5849 -0.4114 -0.3432
17592SOL     OW57231   6.745   4.011   1.728 -0.0753 -0.4339 -0.1184
17592SOL    HW157232   6.761   4.020   1.822 -0.2175 -0.0778 -0.1282
17592SOL    HW257233   6.674   4.072   1.709  0.7480  0.3789 -0.6734
17593SOL     OW57234   1.427   3.936   3.270 -0.1729  0.5022  0.0734
17593SOL    HW157235   1.363   3.952   3.339  0.1442 -0.8483  0.7196
17593SOL    HW257236   1.376   3.927   3.190 -0.6350  1.0230  0.3058
17594SOL     OW57237   0.553   7.729   2.238 -0.2650  0.0520  0.2513
17594SOL    HW157238   0.477   7.672   2.227 -2.0305  2.3917 -0.4438
17594SOL    HW257239   0.590   7.737   2.151  0.3327 -0.4513  0.4511
17595SOL     OW57240  10.794   2.407   1.374 -0.6127 -0.2513  0.0691
17595SOL    HW157241  10.743   2.369   1.303  0.7078 -0.9468 -0.5433
17595SOL    HW257242  10.738   2.398   1.451 -1.1803 -1.5588 -0.4633
17596SOL     OW57243   4.107  10.717   5.696  0.3482 -0.1728 -0.2811
17596SOL    HW157244   4.162  10.638   5.693  1.9305  0.8922 -1.8044
17596SOL    HW257245   4.152  10.779   5.638 -1.0408  1.7314  0.5717
17597SOL     OW57246   6.462   2.976   5.717 -0.1014 -0.2782 -0.0648
17597SOL    HW157247   6.385   3.026   5.743 -0.2674 -0.5721  0.0235
17597SOL    HW257248   6.428   2.888   5.699  0.4281 -0.8375  1.5040
17598SOL     OW57249   3.946   3.533   8.969  0.4094 -0.2175  0.3209
17598SOL    HW157250   4.025   3.565   8.926  0.7230 -1.4519 -0.0870
17598SOL    HW257251   3.954   3.563   9.060  1.1234  0.0653  0.1744
17599SOL     OW57252   2.097   3.513   2.939 -0.0981  0.3068  0.1407
17599SOL    HW157253   2.190   3.525   2.954 -0.3310  1.0438  1.0967
17599SOL    HW257254   2.083   3.548   2.850  0.4363  0.7228  0.2120
17600SOL     OW57255   3.783   5.965   5.457  0.2240  0.0763  0.0018
17600SOL    HW157256   3.855   5.917   5.416 -0.8474 -0.8229 -0.8908
17600SOL    HW257257   3.788   5.943   5.549  1.6491  0.7795  0.1174
17601SOL     OW57258   7.435   6.689   3.702 -0.8670  0.1871 -0.4507
17601SOL    HW157259   7.476   6.775   3.705 -1.6634  0.5691 -0.2559
17601SOL    HW257260   7.500   6.630   3.741 -0.4038  0.7289 -0.3916
17602SOL     OW57261   7.326   2.431   8.729  0.8212  0.2568 -0.2148
17602SOL    HW157262   7.231   2.444   8.730  0.8869  0.9885  1.5421
17602SOL    HW257263   7.342   2.364   8.796  1.5693  0.5951 -0.0369
17603SOL     OW57264   2.558   7.975  10.189  0.2472 -0.1320 -0.1034
17603SOL    HW157265   2.470   7.942  10.172  0.0713  0.4580 -0.3502
17603SOL    HW257266   2.546   8.042  10.257  0.8041 -1.7035  1.6337
17604SOL     OW57267   6.293   5.331   8.221 -0.2634 -0.2849  0.1103
17604SOL    HW157268   6.235   5.255   8.215 -2.5864  1.4107 -0.0891
17604SOL    HW257269   6.291   5.370   8.134 -1.4509  1.5883  0.9212
17605SOL     OW57270   9.785   4.617   2.623 -0.1436 -0.2990  0.0124
17605SOL    HW157271   9.721   4.581   2.685  0.1626 -0.7236  0.0907
17605SOL    HW257272   9.743   4.696   2.589 -0.9114 -0.8181 -0.2886
17606SOL     OW57273   4.603   1.977   4.517 -0.0090 -0.6130 -0.2239
17606SOL    HW157274   4.621   2.070   4.508  0.5851 -0.5925  1.0286
17606SOL    HW257275   4.665   1.946   4.583  0.7168 -2.1826 -1.5754
17607SOL     OW57276   4.199   2.029   7.633 -0.0902 -0.2659 -0.5949
17607SOL    HW157277   4.276   2.071   7.596  0.1623 -1.7766 -1.9146
17607SOL    HW257278   4.233   1.965   7.696 -0.3294 -0.1051 -0.2982
17608SOL     OW57279   4.337   8.672   6.476  0.6857  0.0302 -0.1747
17608SOL    HW157280   4.286   8.642   6.401  0.8488 -1.6210  0.3297
17608SOL    HW257281   4.421   8.698   6.439  0.8747 -1.0682 -0.5564
17609SOL     OW57282   2.316   9.530   2.244 -0.3898  0.4369  0.2598
17609SOL    HW157283   2.232   9.493   2.269  0.7695 -1.9633  0.9501
17609SOL    HW257284   2.354   9.562   2.326  0.8543 -1.8531  0.6423
17610SOL     OW57285   6.677   5.821   2.371  0.1262  0.2205  0.6637
17610SOL    HW157286   6.592   5.778   2.378  0.1452  0.2878  1.3846
17610SOL    HW257287   6.694   5.854   2.459  0.7877  0.4201  0.4642
17611SOL     OW57288   1.349   4.392   4.190 -0.0323 -0.0915 -0.3267
17611SOL    HW157289   1.274   4.452   4.193 -0.6156 -0.8160  0.1869
17611SOL    HW257290   1.422   4.443   4.224 -0.7011  0.0939  0.8874
17612SOL     OW57291   5.325   2.833   7.750 -0.3388 -0.2116  0.0705
17612SOL    HW157292   5.239   2.811   7.787  0.3688 -1.1433  1.2404
17612SOL    HW257293   5.330   2.928   7.756 -0.5409 -0.2655  1.8295
17613SOL     OW57294   2.776   7.313   5.702  0.2176  0.1248 -0.0970
17613SOL    HW157295   2.698   7.268   5.735  0.3315 -0.1192 -0.1555
17613SOL    HW257296   2.756   7.334   5.611 -0.0670  0.7290  0.1020
17614SOL     OW57297   4.793  10.955   9.744  0.2896 -0.0340  0.2143
17614SOL    HW157298   4.827  10.894   9.678  0.5520  0.1776  0.1524
17614SOL    HW257299   4.776  11.036   9.696  0.1672  0.0173  0.3422
17615SOL     OW57300   7.194   7.983   2.765 -0.0551 -0.4823  1.0539
17615SOL    HW157301   7.120   8.013   2.712  0.6608 -0.4282  0.0478
17615SOL    HW257302   7.154   7.939   2.840 -1.1029 -0.5514  0.4760
17616SOL     OW57303   1.225   4.943   8.448 -0.5127  0.0359 -0.7026
17616SOL    HW157304   1.292   4.998   8.490 -0.8244 -0.1843  0.1160
17616SOL    HW257305   1.246   4.946   8.355  0.7230 -0.1418 -0.4493
17617SOL     OW57306   5.040   4.522  10.843 -0.7081  0.0524 -0.3889
17617SOL    HW157307   5.086   4.444  10.812  0.7130  0.3148  0.9686
17617SOL    HW257308   4.957   4.489  10.877 -0.2937 -0.8275 -0.2029
17618SOL     OW57309   0.421   6.947   3.980 -0.4891 -0.0961 -0.4577
17618SOL    HW157310   0.514   6.970   3.981 -0.2636 -0.9486 -0.8355
17618SOL    HW257311   0.381   7.008   4.042  0.4022 -0.0587  0.1081
17619SOL     OW57312   3.408   7.270   8.762 -0.2111 -0.1521 -0.4450
17619SOL    HW157313   3.469   7.252   8.832  0.7265  1.3815 -0.8070
17619SOL    HW257314   3.447   7.344   8.715 -0.7665 -1.1533 -2.6170
17620SOL     OW57315   5.496   0.948   8.491  0.0313  0.4519  0.2794
17620SOL    HW157316   5.583   0.967   8.526  0.2535  0.8456 -0.4707
17620SOL    HW257317   5.473   1.025   8.439 -0.9455  0.5244  0.8011
17621SOL     OW57318  10.434   2.119   2.397  0.2374 -0.0908  0.2591
17621SOL    HW157319  10.349   2.080   2.374 -0.5010 -0.2029  2.7836
17621SOL    HW257320  10.472   2.146   2.314 -2.8068  1.0281 -0.9086
17622SOL     OW57321   0.963   1.669   8.271  0.8559 -0.9773 -0.5822
17622SOL    HW157322   0.891   1.691   8.329  0.9162  0.5948 -1.0655
17622SOL    HW257323   1.039   1.714   8.307  0.8513  0.1945 -1.9498
17623SOL     OW57324   5.120   2.570   2.779  0.1028  0.0155 -0.4227
17623SOL    HW157325   5.071   2.651   2.765  1.1385  0.5668 -0.9790
17623SOL    HW257326   5.193   2.596   2.835  0.7399 -0.4213 -1.0305
17624SOL     OW57327   3.080   5.190   2.216  0.8280  0.4806  0.3270
17624SOL    HW157328   3.131   5.269   2.198  1.9926  0.1100  1.7491
17624SOL    HW257329   3.140   5.118   2.194  0.6404  0.0258  1.2462
17625SOL     OW57330  10.786   9.873  10.851  0.6836  0.3194 -0.0647
17625SOL    HW157331  10.827   9.905  10.931  0.0530  1.2667 -0.1120
17625SOL    HW257332  10.824   9.786  10.838  0.7686  0.1422  1.2773
17626SOL     OW57333   8.536   3.007   0.438 -0.0216  0.2453  0.2589
17626SOL    HW157334   8.536   2.974   0.528  1.8814 -1.6297 -0.3405
17626SOL    HW257335   8.474   2.950   0.391  0.0306  0.3095  0.1095
17627SOL     OW57336   1.338   6.057   7.341  0.8031 -0.3236  0.3256
17627SOL    HW157337   1.407   6.082   7.280  0.1642  0.2629 -0.1796
17627SOL    HW257338   1.371   5.979   7.385  0.5445 -1.9256 -2.1016
17628SOL     OW57339   8.389   3.493  10.378 -0.3721  0.3574 -0.0947
17628SOL    HW157340   8.393   3.587  10.365  1.0012  0.4300  0.5970
17628SOL    HW257341   8.457   3.458  10.321 -0.7110 -0.1886 -0.1737
17629SOL     OW57342   3.110   8.440   5.429  0.1507 -0.7355 -0.2001
17629SOL    HW157343   3.037   8.423   5.369  0.1928 -1.8992  0.0634
17629SOL    HW257344   3.160   8.510   5.387  0.2171 -1.5655 -1.5475
17630SOL     OW57345   9.286   3.482   4.140  0.2140  0.2542 -0.2648
17630SOL    HW157346   9.341   3.544   4.093  0.7543 -0.8827 -1.1858
17630SOL    HW257347   9.330   3.469   4.224 -0.0895  1.3570  0.0785
17631SOL     OW57348   2.184   9.385   3.603  0.3167 -0.0075  0.5762
17631SOL    HW157349   2.095   9.404   3.574  1.9179  1.3969 -4.1959
17631SOL    HW257350   2.206   9.457   3.662 -0.8981  0.9209 -0.0685
17632SOL     OW57351   0.332   2.894   7.347 -0.4233  0.6233  0.1719
17632SOL    HW157352   0.416   2.939   7.353  0.2024 -0.5799  0.8637
17632SOL    HW257353   0.352   2.802   7.368 -1.6160 -0.0303 -1.2983
17633SOL     OW57354   8.923   7.441   5.358 -0.4050 -0.2187 -0.4554
17633SOL    HW157355   8.853   7.388   5.396 -0.8824  0.4677 -0.3640
17633SOL    HW257356   8.924   7.521   5.411  0.1690 -0.0441 -0.7236
17634SOL     OW57357   3.745   8.245   5.218 -0.0605 -0.5320 -0.2259
17634SOL    HW157358   3.825   8.228   5.267 -0.2149 -1.1235 -0.1669
17634SOL    HW257359   3.753   8.191   5.139  1.0284  1.8010 -1.7971
17635SOL     OW57360   2.729   3.100  10.235 -0.2220  0.3894  0.4614
17635SOL    HW157361   2.732   3.108  10.330 -1.4169 -0.0978  0.5482
17635SOL    HW257362   2.737   3.190  10.203 -1.9842  0.8053  1.0882
17636SOL     OW57363   0.963   6.781   6.107 -0.0114 -0.0176  0.5277
17636SOL    HW157364   0.988   6.861   6.153 -0.0099 -0.1374  0.7368
17636SOL    HW257365   0.933   6.722   6.176 -2.8863  0.8241  0.1276
17637SOL     OW57366   7.243   7.856   0.505  0.0778 -0.4139 -0.6782
17637SOL    HW157367   7.221   7.814   0.422 -2.0359 -1.4304  0.3141
17637SOL    HW257368   7.187   7.812   0.569  0.7890  1.1463  1.0904
17638SOL     OW57369   0.035   7.251  10.109  0.6059 -0.4672  0.1536
17638SOL    HW157370   0.021   7.159  10.085  0.9854 -0.4976  0.0497
17638SOL    HW257371   0.037   7.298  10.026  1.6400 -0.5353  0.1334
17639SOL     OW57372  10.388   7.251   1.104 -0.3220  0.5416 -0.2880
17639SOL    HW157373  10.318   7.201   1.063 -0.1797 -0.1677  0.3100
17639SOL    HW257374  10.398   7.212   1.191 -0.3798  1.7793  0.2930
17640SOL     OW57375   3.438   0.236   2.964  0.1331 -0.0047 -0.2768
17640SOL    HW157376   3.466   0.163   3.019 -0.0927  0.5136  0.5481
17640SOL    HW257377   3.467   0.212   2.876  1.6492 -0.2871  0.2572
17641SOL     OW57378   5.921   1.974  10.452  0.3496  0.3473  0.2400
17641SOL    HW157379   5.959   1.891  10.483 -1.0733 -1.0603 -1.5648
17641SOL    HW257380   5.834   1.976  10.491  0.5286  1.2232  0.6054
17642SOL     OW57381   2.562   3.093   8.863  0.4708 -0.3228  0.2062
17642SOL    HW157382   2.576   3.084   8.768  2.2579 -2.9749  0.6352
17642SOL    HW257383   2.606   3.174   8.886  0.2311  0.2272 -1.1666
17643SOL     OW57384   5.761   4.582   1.617  0.5541  0.1567  0.0737
17643SOL    HW157385   5.815   4.503   1.614 -0.4647 -0.5203 -2.5843
17643SOL    HW257386   5.824   4.654   1.608  1.2462 -0.4916 -0.4428
17644SOL     OW57387   4.253   2.538   1.230  0.2703  0.0837 -0.1863
17644SOL    HW157388   4.219   2.450   1.212  0.4089 -0.7568  2.9868
17644SOL    HW257389   4.175   2.593   1.234  0.1246  0.0049 -1.5291
17645SOL     OW57390   8.925   7.765   3.471  0.5381 -0.6044 -0.2919
17645SOL    HW157391   8.893   7.696   3.413  0.7585 -0.9989  0.0502
17645SOL    HW257392   8.852   7.784   3.529 -0.5302  1.4696 -2.1766
17646SOL     OW57393   7.247   2.329   5.028 -0.3641 -0.1640  0.0540
17646SOL    HW157394   7.319   2.272   5.054 -1.7152 -1.4167  1.2647
17646SOL    HW257395   7.170   2.272   5.027 -1.6625  1.4727  0.5604
17647SOL     OW57396   9.199   0.824  10.792 -0.5935  0.3961  0.0243
17647SOL    HW157397   9.181   0.825  10.886  1.0078 -1.8365  0.4527
17647SOL    HW257398   9.255   0.900  10.777 -1.5787  1.2741  0.6852
17648SOL     OW57399   3.023   8.747   5.552 -0.1100  0.8541  0.4459
17648SOL    HW157400   3.072   8.675   5.593 -1.2575  0.6375  1.5169
17648SOL    HW257401   2.988   8.796   5.626  0.0398  2.0955 -0.2905
17649SOL     OW57402   1.883   2.355   8.961  1.0116 -0.1387 -0.1652
17649SOL    HW157403   1.824   2.413   9.008 -0.5811  0.4240 -2.6286
17649SOL    HW257404   1.854   2.267   8.986 -0.9394  0.1223 -1.2460
17650SOL     OW57405   1.171   5.008   9.788  0.2269 -0.4293  0.1584
17650SOL    HW157406   1.120   5.089   9.793 -0.5320 -0.9494  1.0329
17650SOL    HW257407   1.131   4.958   9.716  0.7549 -0.0096 -0.4439
17651SOL     OW57408   6.202   5.323   6.080 -0.2184  0.3427 -0.3454
17651SOL    HW157409   6.121   5.298   6.124  0.2663 -1.0086 -0.1854
17651SOL    HW257410   6.184   5.309   5.987 -0.1480  0.0013 -0.3066
17652SOL     OW57411   6.400   4.153   5.941  0.2942  0.7076  0.2914
17652SOL    HW157412   6.491   4.172   5.919  0.5197  1.2977  1.6382
17652SOL    HW257413   6.352   4.167   5.860  1.2122  1.7624 -0.0966
17653SOL     OW57414   9.179   1.496   2.622  0.4059  0.5676  0.3335
17653SOL    HW157415   9.240   1.565   2.598 -0.9828  1.7134 -0.0127
17653SOL    HW257416   9.235   1.423   2.648  1.9346  1.1151 -1.2234
17654SOL     OW57417   3.774   6.281   7.387 -0.1239 -0.3791  0.2256
17654SOL    HW157418   3.739   6.197   7.417 -0.2264 -0.5785 -0.4304
17654SOL    HW257419   3.712   6.345   7.422 -1.5604 -0.7746 -1.4492
17655SOL     OW57420   5.400   4.662   0.931 -0.1084  0.1621  0.1585
17655SOL    HW157421   5.429   4.572   0.924 -0.6574 -0.0575  0.6488
17655SOL    HW257422   5.412   4.684   1.023  0.1901  0.6539  0.0099
17656SOL     OW57423   5.318   2.368  10.116  0.2823 -0.3793 -0.1943
17656SOL    HW157424   5.373   2.300  10.154 -0.2332 -1.1010 -0.7199
17656SOL    HW257425   5.277   2.411  10.190 -1.6553 -2.5398  0.0831
17657SOL     OW57426   5.158   1.668   9.439  0.1608  0.6004  0.0459
17657SOL    HW157427   5.202   1.585   9.457  1.0915  1.0703  0.0122
17657SOL    HW257428   5.215   1.735   9.478 -1.4466  1.1271  1.6220
17658SOL     OW57429   6.363   9.810   6.342  0.2109  0.2480  0.2729
17658SOL    HW157430   6.452   9.777   6.327 -0.1833 -0.7612  0.0592
17658SOL    HW257431   6.338   9.774   6.427  0.7088  2.1367  1.2654
17659SOL     OW57432   9.445   6.974   7.784  0.1555 -0.3612  0.7643
17659SOL    HW157433   9.508   6.954   7.853  0.1350 -0.2572  0.8129
17659SOL    HW257434   9.481   6.930   7.706  1.8208  1.9820  0.0638
17660SOL     OW57435   2.451   8.539   4.786  0.4867 -0.0201  0.1571
17660SOL    HW157436   2.357   8.532   4.773  0.7253 -2.0127 -0.8815
17660SOL    HW257437   2.468   8.486   4.865  0.9972 -2.0756 -1.2416
17661SOL     OW57438   9.274   8.168   0.368 -0.0278 -0.1503  0.2447
17661SOL    HW157439   9.234   8.091   0.327  0.0578  0.1080 -0.3451
17661SOL    HW257440   9.313   8.135   0.449 -2.0148 -0.2763  1.2074
17662SOL     OW57441   1.655  10.491   4.336 -0.1786  0.3039 -0.2920
17662SOL    HW157442   1.599  10.420   4.303 -0.7671  0.4137  0.4612
17662SOL    HW257443   1.703  10.520   4.258  2.5463 -3.0610 -0.1509
17663SOL     OW57444   9.182   9.402   2.100 -0.1433 -0.1293 -0.3539
17663SOL    HW157445   9.263   9.417   2.149 -0.4953 -0.8400  0.4701
17663SOL    HW257446   9.210   9.353   2.023  0.1813 -0.6002  0.0583
17664SOL     OW57447   0.828   5.721   6.317  0.2631 -0.9163  0.5220
17664SOL    HW157448   0.737   5.695   6.302  0.3199 -0.3270 -1.0548
17664SOL    HW257449   0.833   5.812   6.287  0.7840 -0.0266  3.0675
17665SOL     OW57450   3.657   3.510   5.963 -0.8777  0.4137  0.0277
17665SOL    HW157451   3.624   3.595   5.992  0.0532  1.2120 -1.1459
17665SOL    HW257452   3.750   3.511   5.987 -1.0419 -0.6391  0.7787
17666SOL     OW57453   6.245   0.785   6.346  0.1949 -0.2077  0.3363
17666SOL    HW157454   6.313   0.825   6.402  0.6159 -0.1678 -0.1889
17666SOL    HW257455   6.294   0.750   6.272 -0.3095 -0.6707  0.2228
17667SOL     OW57456   2.038   5.393   8.358  0.4738 -0.4387 -0.3747
17667SOL    HW157457   2.025   5.460   8.291 -1.4506 -0.8071 -0.4321
17667SOL    HW257458   1.950   5.375   8.391  1.2919 -0.7898  1.7578
17668SOL     OW57459   8.427   6.318   2.070 -0.2633 -0.6011  0.5717
17668SOL    HW157460   8.378   6.285   1.995 -2.0293  0.4559  1.2016
17668SOL    HW257461   8.471   6.241   2.106 -0.3025 -1.3190 -0.8583
17669SOL     OW57462   6.885   3.212   1.213  0.9705  0.0442  0.3484
17669SOL    HW157463   6.941   3.205   1.290  0.7122 -1.2241  0.4460
17669SOL    HW257464   6.798   3.187   1.244  0.1581  2.5469  0.3349
17670SOL     OW57465   0.319   1.291   6.186  0.2515  0.6449 -0.1001
17670SOL    HW157466   0.391   1.247   6.232 -0.1277  1.0937  0.9429
17670SOL    HW257467   0.316   1.248   6.101  1.5982  0.4510 -0.0704
17671SOL     OW57468   1.239   5.549  10.809 -0.5121  0.6537  0.2352
17671SOL    HW157469   1.264   5.489  10.739  0.2259  1.2536 -0.0426
17671SOL    HW257470   1.152   5.522  10.836  0.2604 -1.2993  0.9475
17672SOL     OW57471   7.110   1.517  10.947  0.1976 -0.1677 -0.0568
17672SOL    HW157472   7.182   1.510  10.884 -1.2748 -0.5142 -1.7722
17672SOL    HW257473   7.107   1.431  10.989  2.6101  0.7425  2.1995
17673SOL     OW57474   5.107   2.994   7.286  0.2246  0.0999  0.0107
17673SOL    HW157475   5.144   3.005   7.198 -0.3877 -1.3098 -0.4559
17673SOL    HW257476   5.060   2.911   7.281 -0.0274  0.1280  1.6130
17674SOL     OW57477   6.818   9.132   8.842 -0.1017  0.3664 -0.6233
17674SOL    HW157478   6.749   9.192   8.872 -1.9130 -1.8852 -0.0020
17674SOL    HW257479   6.795   9.112   8.751 -0.1397 -0.1891 -0.4954
17675SOL     OW57480   0.838  10.215   4.645 -0.4013  0.3333  0.0027
17675SOL    HW157481   0.846  10.279   4.574 -0.3077 -1.6414 -1.8725
17675SOL    HW257482   0.746  10.218   4.669 -0.2731  1.6111  0.4304
17676SOL     OW57483  10.757   8.734   4.917  0.1797 -0.3619 -0.0593
17676SOL    HW157484  10.729   8.642   4.923 -0.0131 -0.2457  0.9919
17676SOL    HW257485  10.777   8.747   4.824 -0.1742 -1.3561 -0.2872
17677SOL     OW57486   1.201   2.563   6.674 -0.3548  0.4935  0.7466
17677SOL    HW157487   1.217   2.475   6.640  0.9053  0.7897  0.5189
17677SOL    HW257488   1.188   2.550   6.768  0.3707  0.1099  0.8019
17678SOL     OW57489   4.094   7.019   3.515 -1.3328 -0.3440  0.2993
17678SOL    HW157490   4.028   7.087   3.531 -1.3048 -0.2456  0.0091
17678SOL    HW257491   4.127   6.998   3.602 -2.3327 -0.9914  0.5417
17679SOL     OW57492   9.800  11.016   8.115 -0.6391  0.4914  0.3204
17679SOL    HW157493   9.844  11.049   8.037 -0.6660  0.7290  0.4048
17679SOL    HW257494   9.712  10.991   8.085 -0.6400  0.5564  0.2686
17680SOL     OW57495   9.859   9.605  10.238  0.7406 -0.6951  0.0196
17680SOL    HW157496   9.817   9.573  10.318  0.0847  0.4839  0.1726
17680SOL    HW257497   9.951   9.583  10.248  0.7174 -0.2977  1.2553
17681SOL     OW57498  10.643   0.724   7.964  0.4160  0.3543 -0.2263
17681SOL    HW157499  10.662   0.654   7.901  1.8271 -0.5343  1.1314
17681SOL    HW257500  10.729   0.750   7.997 -0.3346  0.0291  2.1297
17682SOL     OW57501   1.102   2.345   7.972  0.2721  0.1004 -0.0576
17682SOL    HW157502   1.072   2.355   7.882  0.4386  1.5203  0.0178
17682SOL    HW257503   1.036   2.390   8.024  1.3771  1.3785  0.2945
17683SOL     OW57504  10.427   1.457   1.184 -0.3577 -0.4103 -0.0450
17683SOL    HW157505  10.501   1.518   1.185 -2.0945  1.8240 -0.1308
17683SOL    HW257506  10.420   1.430   1.092 -0.3292  0.2879 -0.2633
17684SOL     OW57507   7.787   9.818   9.490  0.1588  0.3939 -0.4015
17684SOL    HW157508   7.819   9.728   9.481 -1.0993 -0.1039 -0.0483
17684SOL    HW257509   7.783   9.851   9.400 -0.2787 -0.2337 -0.6204
17685SOL     OW57510   3.832   5.368   6.432 -0.4291  0.2019  0.3160
17685SOL    HW157511   3.900   5.305   6.458  1.7717  0.6639 -3.6052
17685SOL    HW257512   3.770   5.317   6.380  0.5485  0.9095 -1.6099
17686SOL     OW57513   9.085   7.236   6.617 -0.0688 -0.5884  0.2664
17686SOL    HW157514   9.118   7.249   6.528 -1.3445  0.0885 -0.1453
17686SOL    HW257515   9.018   7.304   6.628  0.0826 -0.6420  1.7615
17687SOL     OW57516   8.651   2.216   4.636 -0.3395 -0.1066  0.3641
17687SOL    HW157517   8.604   2.296   4.663 -0.5803  0.2275 -0.9638
17687SOL    HW257518   8.734   2.220   4.684  0.3410  1.7930 -0.8180
17688SOL     OW57519   5.778   8.080   4.745 -0.3770 -0.1507 -0.4876
17688SOL    HW157520   5.826   8.133   4.682  2.8385 -1.1835  0.9193
17688SOL    HW257521   5.749   8.142   4.812 -0.3256  0.3888 -0.9569
17689SOL     OW57522   1.052   3.442   3.117 -0.0418 -0.2553  0.3349
17689SOL    HW157523   1.135   3.396   3.111  0.1342 -0.2738  2.2270
17689SOL    HW257524   1.038   3.479   3.030  1.1699 -1.5349 -0.4457
17690SOL     OW57525   4.582   5.765   5.415  0.1980  0.0503  0.4072
17690SOL    HW157526   4.640   5.688   5.413  1.5746  0.9065  2.8814
17690SOL    HW257527   4.524   5.749   5.489 -1.0335  0.4180 -0.4499
17691SOL     OW57528   3.290   7.092   8.173  0.3728 -0.3277  0.2685
17691SOL    HW157529   3.316   7.031   8.104 -0.5428  1.0989 -1.4025
17691SOL    HW257530   3.354   7.077   8.243  2.8216 -0.2434 -1.7910
17692SOL     OW57531   6.922   8.055   9.586 -0.0888 -0.2367 -0.0023
17692SOL    HW157532   6.933   7.995   9.660 -1.3433 -0.5079 -0.0103
17692SOL    HW257533   7.011   8.075   9.558  0.3756 -1.5580  0.4387
17693SOL     OW57534   6.833  11.054   0.202  0.1604  0.0503  0.0334
17693SOL    HW157535   6.918  11.060   0.245 -0.3919 -0.4688  1.2355
17693SOL    HW257536   6.776  11.113   0.252 -0.5627 -0.7763  0.1981
17694SOL     OW57537   3.072   5.957   3.110 -0.2727  0.0071 -0.1247
17694SOL    HW157538   3.000   5.919   3.161 -1.6218  1.9366 -0.4922
17694SOL    HW257539   3.063   5.917   3.024  0.7098 -1.6636  0.5025
17695SOL     OW57540   9.423   0.667   3.741  0.5557 -0.5026  0.4729
17695SOL    HW157541   9.431   0.572   3.736  4.0815 -0.2879 -2.0462
17695SOL    HW257542   9.368   0.690   3.666  1.3151 -0.5140 -0.1038
17696SOL     OW57543   6.706   8.388   5.449 -0.0730  0.0955  0.4570
17696SOL    HW157544   6.795   8.411   5.476  0.1793 -1.6483  1.2148
17696SOL    HW257545   6.653   8.463   5.476  1.4009  2.1743 -1.9026
17697SOL     OW57546   9.115   3.410   5.807  0.1824 -0.1687  0.0485
17697SOL    HW157547   9.069   3.464   5.872  3.0209  0.8644  1.3903
17697SOL    HW257548   9.125   3.467   5.731  1.1631  0.4432  0.6107
17698SOL     OW57549  10.451   7.417   1.783  0.2495  0.0197 -0.2446
17698SOL    HW157550  10.442   7.425   1.688 -1.5853  0.0456 -0.0974
17698SOL    HW257551  10.406   7.335   1.805  1.6493 -0.5912  0.4951
17699SOL     OW57552   5.202   3.998   4.667  0.0314  0.9709  0.4792
17699SOL    HW157553   5.297   3.999   4.658  0.2004 -1.6188  1.3537
17699SOL    HW257554   5.173   3.924   4.614 -1.0603 -0.5648  3.0132
17700SOL     OW57555   9.581   0.949  10.214 -0.3842  0.2647  0.2607
17700SOL    HW157556   9.526   1.009  10.163 -1.6143 -0.2091  0.9687
17700SOL    HW257557   9.659   0.937  10.161 -1.7712 -0.5094 -1.7506
17701SOL     OW57558   2.564   4.964   0.594  0.3337  0.2448 -0.2973
17701SOL    HW157559   2.470   4.959   0.578  0.2026 -1.0862  0.6735
17701SOL    HW257560   2.572   4.985   0.687  0.9815 -0.6929 -0.1252
17702SOL     OW57561   8.269   8.987   2.932  0.1299  0.3431 -0.1990
17702SOL    HW157562   8.276   8.920   3.000  0.8140 -0.0970 -0.6855
17702SOL    HW257563   8.232   8.941   2.857  0.3309  0.5843 -0.4478
17703SOL     OW57564   8.464   8.487   8.588  0.7468 -0.3992  0.1633
17703SOL    HW157565   8.420   8.403   8.577 -0.8127  0.4286 -0.2085
17703SOL    HW257566   8.425   8.544   8.522 -0.2250  1.3752  2.1384
17704SOL     OW57567   0.839   7.901   5.665  0.6772 -0.3296 -0.5236
17704SOL    HW157568   0.763   7.896   5.724 -0.4609  1.1562 -1.7740
17704SOL    HW257569   0.891   7.824   5.687  0.4934  0.3006  2.6317
17705SOL     OW57570   4.977   1.803   5.302  0.6652 -0.3556  0.3767
17705SOL    HW157571   4.932   1.724   5.276 -2.7085  1.1722  1.0376
17705SOL    HW257572   4.966   1.863   5.229 -0.2901  0.7219  1.3514
17706SOL     OW57573   4.476   3.633   2.558  0.3680 -0.6061 -1.0325
17706SOL    HW157574   4.445   3.724   2.561 -1.1979 -1.1040 -1.1954
17706SOL    HW257575   4.431   3.596   2.482 -0.3832 -1.9876  0.0427
17707SOL     OW57576   7.220   3.080   4.626 -0.3650 -0.1641  0.2355
17707SOL    HW157577   7.249   3.163   4.664  2.0855  0.3829 -2.5218
17707SOL    HW257578   7.300   3.029   4.614 -1.6178 -2.2743  0.2477
17708SOL     OW57579   8.186   0.125   8.117  0.1082  0.3102 -0.3857
17708SOL    HW157580   8.263   0.167   8.155  0.3777  0.0944 -0.6895
17708SOL    HW257581   8.207   0.118   8.024  0.3223 -1.0785 -0.2405
17709SOL     OW57582   7.307  10.427   7.114 -0.3993  0.2295  0.4759
17709SOL    HW157583   7.273  10.351   7.067 -2.2569  0.6770  0.9974
17709SOL    HW257584   7.392  10.445   7.073 -1.1487 -0.4682 -1.4944
17710SOL     OW57585  10.413   3.108   1.035  0.0231 -0.3889 -0.4296
17710SOL    HW157586  10.324   3.140   1.024  0.5465  0.6609 -2.1143
17710SOL    HW257587  10.411   3.019   1.002 -0.5006 -0.5250 -0.0302
17711SOL     OW57588   9.479   4.327  10.405 -0.3288 -0.1307  0.8039
17711SOL    HW157589   9.480   4.321  10.500 -1.3708  1.5620  0.9564
17711SOL    HW257590   9.417   4.397  10.385  0.5224  0.1638 -1.0949
17712SOL     OW57591   7.613   7.328   8.247  0.6403  0.0991 -0.1609
17712SOL    HW157592   7.632   7.415   8.283  4.7999 -0.9339  0.6577
17712SOL    HW257593   7.635   7.268   8.318  1.9793 -1.7658 -2.0539
17713SOL     OW57594   4.196   6.551   2.357 -0.3008  0.1743  0.9814
17713SOL    HW157595   4.291   6.541   2.360 -0.1782  0.7613 -0.4114
17713SOL    HW257596   4.164   6.471   2.316 -0.7498 -1.4976  4.2395
17714SOL     OW57597   2.204   3.635   1.707 -0.6243  0.1801 -0.2265
17714SOL    HW157598   2.194   3.717   1.657 -0.2270 -1.9012 -4.0787
17714SOL    HW257599   2.151   3.571   1.659  0.3728 -2.2352  1.6891
17715SOL     OW57600   7.699   2.188   6.180 -0.5900 -0.3820 -0.2970
17715SOL    HW157601   7.677   2.204   6.272 -2.2280 -0.7692 -0.5904
17715SOL    HW257602   7.709   2.276   6.142  0.5879 -0.2173  0.3214
17716SOL     OW57603   1.481   4.438   2.202 -0.3062  0.1296  0.2111
17716SOL    HW157604   1.405   4.409   2.150 -0.0617  1.6463 -1.0822
17716SOL    HW257605   1.443   4.481   2.278 -0.6762 -1.6317  1.0931
17717SOL     OW57606   0.345   7.236   5.787  0.4923 -0.4560 -0.2844
17717SOL    HW157607   0.289   7.268   5.858  0.4841  0.7413 -0.8154
17717SOL    HW257608   0.286   7.226   5.713  0.7744 -0.3156 -0.5262
17718SOL     OW57609   1.565   6.577   2.451  0.4507  0.1194 -0.2218
17718SOL    HW157610   1.626   6.503   2.445 -0.3969 -0.5776 -0.2988
17718SOL    HW257611   1.555   6.606   2.360 -2.5802 -2.4628 -0.8792
17719SOL     OW57612   9.286   0.355   5.055  0.1238  0.1855 -0.2115
17719SOL    HW157613   9.380   0.372   5.055 -0.0653  1.3133 -1.0914
17719SOL    HW257614   9.265   0.339   5.148  0.7596  2.4393  0.3745
17720SOL     OW57615   1.540   5.209  10.541 -0.4279  0.1324 -0.2471
17720SOL    HW157616   1.483   5.134  10.556 -1.5118  0.6032 -1.6789
17720SOL    HW257617   1.581   5.226  10.625  0.8852 -2.8452 -0.1841
17721SOL     OW57618   0.092   1.278   7.237 -0.6165  0.3498  0.3521
17721SOL    HW157619   0.022   1.271   7.302  0.1147  0.5299  1.1794
17721SOL    HW257620   0.062   1.345   7.176 -0.6361  1.3235  1.3994
17722SOL     OW57621   9.441  11.021   0.386 -0.3702 -0.0619  0.8434
17722SOL    HW157622   9.405  10.938   0.418 -0.5829 -0.5184 -0.4872
17722SOL    HW257623   9.370  11.084   0.397 -0.2010 -0.0369  1.8833
17723SOL     OW57624   1.671   4.151   0.668  0.0665  0.4865 -0.1825
17723SOL    HW157625   1.616   4.170   0.592 -0.1456 -0.4653 -0.2767
17723SOL    HW257626   1.665   4.056   0.679  0.1520  0.5984  0.9750
17724SOL     OW57627   7.897   3.549   9.243 -0.0645 -0.6484 -0.5117
17724SOL    HW157628   7.929   3.626   9.290 -2.0215  0.4753 -0.9518
17724SOL    HW257629   7.963   3.533   9.175  1.5551 -0.8308  1.0142
17725SOL     OW57630   2.531   0.977   6.402 -0.4043 -0.2054  0.7868
17725SOL    HW157631   2.490   0.998   6.318 -2.2927 -0.6991  1.5216
17725SOL    HW257632   2.566   1.060   6.433  1.3331 -0.2084 -0.9402
17726SOL     OW57633   1.177   4.662  10.293  0.3834 -0.0562  0.2233
17726SOL    HW157634   1.272   4.651  10.297  0.5171  0.8521 -0.2005
17726SOL    HW257635   1.161   4.705  10.208 -0.1156  2.3473  1.4417
17727SOL     OW57636  10.365   9.902   1.883 -0.0304  0.6410  0.8342
17727SOL    HW157637  10.401   9.968   1.942 -0.2515  2.6765 -1.1757
17727SOL    HW257638  10.271   9.907   1.896 -0.0456  0.7118  0.6959
17728SOL     OW57639   5.406   2.969   2.845  0.0682  0.7742  0.1942
17728SOL    HW157640   5.410   2.954   2.939  2.3326  0.5857  0.1238
17728SOL    HW257641   5.362   3.054   2.836  2.2674  2.1760  1.6354
17729SOL     OW57642   3.195   3.444   2.250  0.2494  0.2375  0.2933
17729SOL    HW157643   3.283   3.477   2.271  0.7776 -0.9920  0.1122
17729SOL    HW257644   3.194   3.440   2.155 -0.5753  1.6781  0.2110
17730SOL     OW57645  10.505   2.303   4.827 -0.3627  0.3845 -0.2272
17730SOL    HW157646  10.577   2.239   4.821 -0.0564  0.4378  1.9027
17730SOL    HW257647  10.448   2.283   4.753  0.8655 -0.9167 -0.8639
17731SOL     OW57648   7.225   3.982   8.946 -0.1320  0.8344 -0.3466
17731SOL    HW157649   7.301   3.937   8.985 -0.2000 -0.3670 -1.5114
17731SOL    HW257650   7.207   4.055   9.005  2.4540  1.6667 -0.4780
17732SOL     OW57651   8.020   8.272   3.753 -0.1133  0.1476  0.0471
17732SOL    HW157652   8.096   8.225   3.786  1.3400  2.4131  0.1221
17732SOL    HW257653   8.028   8.268   3.658  1.3960  2.1798  0.0142
17733SOL     OW57654  10.711   2.231   1.086  0.3744 -0.9531  0.2202
17733SOL    HW157655  10.650   2.224   1.159 -0.0720 -1.0109 -0.1561
17733SOL    HW257656  10.683   2.164   1.025 -1.1395  1.0024 -1.3808
17734SOL     OW57657   3.765   8.253   9.021 -0.3734 -0.0267  0.2779
17734SOL    HW157658   3.859   8.269   9.012 -0.4781  0.8640  0.7439
17734SOL    HW257659   3.743   8.284   9.109 -1.1329 -0.0786  0.1125
17735SOL     OW57660   1.549   9.182   4.469 -0.3243 -0.4542 -0.0634
17735SOL    HW157661   1.462   9.220   4.481  0.0864  1.3437 -2.1505
17735SOL    HW257662   1.571   9.200   4.378  1.3924 -2.7589 -0.1937
17736SOL     OW57663   4.201   9.063   2.411 -0.2839 -0.6521 -0.5951
17736SOL    HW157664   4.247   9.077   2.493 -0.6920  0.4565 -0.5274
17736SOL    HW257665   4.178   8.970   2.411 -0.3693 -0.6454  0.5870
17737SOL     OW57666   3.943   2.688   2.373  0.0732 -0.3326 -0.0626
17737SOL    HW157667   3.883   2.630   2.327  1.2000 -1.3811 -0.2657
17737SOL    HW257668   3.916   2.685   2.464  0.4409 -1.6296  0.0239
17738SOL     OW57669   6.775   8.065   2.349  0.6946 -0.1947  0.3646
17738SOL    HW157670   6.779   8.078   2.254  2.0854  1.4055  0.5946
17738SOL    HW257671   6.852   8.012   2.369 -0.2389 -1.5373  0.4873
17739SOL     OW57672   9.904   0.465   7.718  0.0904 -0.0331  0.1567
17739SOL    HW157673   9.852   0.434   7.792  0.5685  1.5823  1.2151
17739SOL    HW257674   9.853   0.537   7.681  0.0391 -0.5825 -0.8708
17740SOL     OW57675   0.365   9.887   8.422 -0.2351 -0.4637  0.4263
17740SOL    HW157676   0.299   9.833   8.465 -1.0528  0.3848  0.2914
17740SOL    HW257677   0.388   9.839   8.342 -1.3101 -0.4042  0.0545
17741SOL     OW57678   0.630   0.280   7.838  0.3388  0.3088 -0.5482
17741SOL    HW157679   0.691   0.353   7.836 -0.9391  1.4180 -1.8799
17741SOL    HW257680   0.660   0.221   7.769  1.9501 -0.9977  1.1741
17742SOL     OW57681   8.828   6.016   2.858 -0.6534 -0.3034  0.6146
17742SOL    HW157682   8.881   6.088   2.824 -0.4437  0.0392  1.6390
17742SOL    HW257683   8.884   5.939   2.851 -0.8994 -0.3999 -0.5368
17743SOL     OW57684   9.622   5.279   4.872 -0.0800  0.2406 -0.4727
17743SOL    HW157685   9.631   5.246   4.783 -0.9520 -3.1772  0.5398
17743SOL    HW257686   9.532   5.260   4.896  0.3961  0.1532  1.4519
17744SOL     OW57687   5.047   9.376   7.023  0.3194 -0.6213 -0.5605
17744SOL    HW157688   5.002   9.450   7.063 -1.5426 -0.7802 -2.2063
17744SOL    HW257689   5.113   9.416   6.966 -0.7737 -0.1584 -1.5558
17745SOL     OW57690   4.773   0.748  10.636  0.8408  0.0739  0.0586
17745SOL    HW157691   4.766   0.657  10.664  1.7281 -0.5071 -1.5240
17745SOL    HW257692   4.692   0.765  10.587  1.5238 -0.4870 -1.3011
17746SOL     OW57693   0.157  10.941   9.117 -0.2776 -0.0524 -0.1023
17746SOL    HW157694   0.142  11.033   9.138  1.6384  0.0740  0.9802
17746SOL    HW257695   0.163  10.938   9.021 -2.9661  0.4509 -0.3554
17747SOL     OW57696   6.859   9.556   5.383  0.0323 -0.4390  0.0654
17747SOL    HW157697   6.798   9.604   5.328  0.1195  2.3074  2.1196
17747SOL    HW257698   6.806   9.527   5.458  1.0832  2.3488  2.0904
17748SOL     OW57699  10.477   7.102   8.963  0.0154  0.0329 -0.4081
17748SOL    HW157700  10.403   7.119   8.903 -1.0150 -0.4742  0.6807
17748SOL    HW257701  10.492   7.187   9.005 -0.8248 -0.1603  0.3082
17749SOL     OW57702   4.076   6.918   2.559 -0.3358 -0.3727  1.0230
17749SOL    HW157703   4.168   6.945   2.559  0.2028 -2.0104 -0.7786
17749SOL    HW257704   4.027   7.000   2.571  1.3052  0.7301  0.5312
17750SOL     OW57705   1.264   5.150   7.152  0.4374  0.0134 -0.3471
17750SOL    HW157706   1.249   5.204   7.230  0.3230  0.3055 -0.5708
17750SOL    HW257707   1.321   5.203   7.097 -0.9102  0.5627 -1.2573
17751SOL     OW57708   8.674   0.568   9.096 -0.2951 -0.0783 -0.0597
17751SOL    HW157709   8.740   0.637   9.103 -0.4941  0.1786 -0.6931
17751SOL    HW257710   8.723   0.487   9.111  0.1123  0.1325 -0.2366
17752SOL     OW57711   6.600   1.462   9.937  0.1919 -1.1491  0.2073
17752SOL    HW157712   6.685   1.464   9.892  1.0271 -1.8315  1.6884
17752SOL    HW257713   6.622   1.443  10.028 -1.5143 -0.6072  0.7586
17753SOL     OW57714   2.837   0.504   2.411  0.4291  0.6594  0.0841
17753SOL    HW157715   2.757   0.473   2.367  1.0444  0.3847 -0.8749
17753SOL    HW257716   2.829   0.470   2.500 -0.2816  0.1884 -0.1423
17754SOL     OW57717   5.524   0.332   8.511  0.5659 -0.5239  0.1389
17754SOL    HW157718   5.510   0.305   8.421  0.0602  1.9944 -0.5922
17754SOL    HW257719   5.579   0.410   8.505  0.9057 -0.5555  2.0484
17755SOL     OW57720   4.914   7.311   8.102  0.1058 -0.4366 -0.2191
17755SOL    HW157721   4.826   7.309   8.140  0.5932  1.5255  1.1972
17755SOL    HW257722   4.913   7.242   8.036 -2.7551  0.0275 -0.8231
17756SOL     OW57723   7.578   3.689   0.843 -0.1016  0.3275 -0.0637
17756SOL    HW157724   7.486   3.713   0.836 -0.3886 -0.1516  1.5709
17756SOL    HW257725   7.624   3.756   0.793 -1.3261  0.5667 -0.9092
17757SOL     OW57726  10.567   0.176   0.723  0.5935 -0.5979  0.2821
17757SOL    HW157727  10.635   0.232   0.686  1.7026 -2.2929 -0.3146
17757SOL    HW257728  10.614   0.105   0.766 -0.7822 -2.4592 -1.1587
17758SOL     OW57729   8.725   7.768   0.600  0.0975 -0.1940 -0.0047
17758SOL    HW157730   8.677   7.770   0.683 -1.5009 -3.3506 -0.6588
17758SOL    HW257731   8.814   7.744   0.624 -0.1312 -0.1764  0.8883
17759SOL     OW57732   0.723   8.955   9.889  0.4899  0.4132 -0.2002
17759SOL    HW157733   0.664   8.880   9.883 -0.3279  1.1412 -3.7533
17759SOL    HW257734   0.676   9.018   9.945 -2.1000  0.8190 -2.5973
17760SOL     OW57735  10.730   2.290   5.218  0.1325 -0.1118  0.3639
17760SOL    HW157736  10.727   2.212   5.274  1.5408 -0.4685 -0.0127
17760SOL    HW257737  10.687   2.264   5.137  1.0126 -0.6655  0.0644
17761SOL     OW57738   7.437   1.130   1.295  0.6606 -0.2299 -0.2908
17761SOL    HW157739   7.520   1.176   1.306 -1.1906  3.5171 -0.2420
17761SOL    HW257740   7.406   1.116   1.385  0.4506  0.0525 -0.3166
17762SOL     OW57741   2.813   9.091   2.405 -0.3820  0.2917 -0.5431
17762SOL    HW157742   2.887   9.152   2.412 -1.7427  2.1332 -1.3959
17762SOL    HW257743   2.850   9.006   2.428  1.9791  1.1583 -0.8664
17763SOL     OW57744   9.561   8.432   6.600  0.0803  0.2345 -0.1329
17763SOL    HW157745   9.546   8.491   6.526 -0.5561  0.7992  0.4358
17763SOL    HW257746   9.542   8.485   6.677  1.6266 -0.0682  0.4919
17764SOL     OW57747   0.649   1.504   3.020  0.1818 -0.4081 -0.4417
17764SOL    HW157748   0.591   1.428   3.027 -1.2530  0.7412  0.8088
17764SOL    HW257749   0.651   1.541   3.109  3.8933 -1.0943 -0.1010
17765SOL     OW57750  10.599   5.802   8.265 -0.4876  1.4823 -0.3113
17765SOL    HW157751  10.661   5.866   8.230  0.3073  1.9837  1.8582
17765SOL    HW257752  10.606   5.812   8.360 -0.1510 -2.0063  0.1363
17766SOL     OW57753   5.134   0.797   1.817  0.0460 -0.2379  0.5473
17766SOL    HW157754   5.159   0.849   1.894  1.3473 -0.3313  0.2089
17766SOL    HW257755   5.050   0.758   1.841  0.4440 -0.3063  1.9572
17767SOL     OW57756   2.159   6.177   7.577 -0.2073  0.2096  0.1100
17767SOL    HW157757   2.222   6.241   7.545  0.3064 -0.9253 -1.2387
17767SOL    HW257758   2.189   6.158   7.666  1.1259  0.0216 -0.3439
17768SOL     OW57759   1.459   9.516   1.018 -0.4001  0.9736 -0.6653
17768SOL    HW157760   1.513   9.549   0.946 -0.2224  0.3872 -0.8066
17768SOL    HW257761   1.523   9.495   1.087 -0.5686  1.5336 -0.3328
17769SOL     OW57762   6.075   1.643   5.076  0.1405  0.2803  0.1439
17769SOL    HW157763   5.993   1.605   5.106  0.1060 -0.0807 -0.3942
17769SOL    HW257764   6.141   1.577   5.098  0.5348  1.2366  2.0302
17770SOL     OW57765   4.218   6.431  10.311 -0.0178  0.5733 -0.0308
17770SOL    HW157766   4.273   6.382  10.249 -1.7162  1.1868 -2.1686
17770SOL    HW257767   4.273   6.505  10.338  0.9066  0.0743 -0.4923
17771SOL     OW57768   1.983   1.308   3.865  0.4379  0.5523 -0.1790
17771SOL    HW157769   2.006   1.401   3.856  0.1664  0.5638 -0.8895
17771SOL    HW257770   2.021   1.281   3.949 -0.7039  1.6669  0.7233
17772SOL     OW57771   9.297   4.555   0.231 -0.4527  0.4525  0.1947
17772SOL    HW157772   9.242   4.628   0.259 -0.2255 -0.0168  2.0196
17772SOL    HW257773   9.374   4.560   0.287  0.5393  0.0121 -1.0755
17773SOL     OW57774   0.166   0.017   9.521 -0.5667  0.0350  0.1142
17773SOL    HW157775   0.172   0.097   9.470 -1.6884  0.1343  0.1164
17773SOL    HW257776   0.253  -0.022   9.516  1.0636  2.8737  2.7919
17774SOL     OW57777   0.308   7.322   0.535  0.1302 -0.1823 -0.0317
17774SOL    HW157778   0.377   7.326   0.468  0.7249 -0.0596  0.5756
17774SOL    HW257779   0.226   7.324   0.485  0.5129  1.9415 -0.6945
17775SOL     OW57780   4.652   1.694   0.799  0.4403 -0.5597  0.0817
17775SOL    HW157781   4.643   1.603   0.769  1.2342 -0.3664 -0.7998
17775SOL    HW257782   4.732   1.725   0.757  0.4133  0.4164  0.7278
17776SOL     OW57783   0.635  10.326   3.970  0.6082  0.1637  0.0924
17776SOL    HW157784   0.673  10.252   4.018  1.4909  0.3862 -0.2271
17776SOL    HW257785   0.544  10.301   3.954  1.1436 -1.3073 -0.8715
17777SOL     OW57786   4.206   1.271   0.683 -0.1887 -0.0067 -0.2674
17777SOL    HW157787   4.157   1.272   0.765 -0.1932  0.1953 -0.2723
17777SOL    HW257788   4.144   1.304   0.618  0.2010  1.0176 -0.1334
17778SOL     OW57789  10.520   9.309   2.554  0.0358 -0.2577 -0.0357
17778SOL    HW157790  10.459   9.364   2.504  0.6886  0.5529  0.0360
17778SOL    HW257791  10.599   9.305   2.499  0.9364  1.0229  1.1068
17779SOL     OW57792   3.182   9.499   4.279 -0.1707 -0.2095  0.7211
17779SOL    HW157793   3.220   9.581   4.249  0.6188 -1.4050 -1.8626
17779SOL    HW257794   3.089   9.518   4.293 -0.2757  0.8128 -1.1651
17780SOL     OW57795   0.579   5.981   0.685  0.3066 -0.4306 -0.1987
17780SOL    HW157796   0.610   5.948   0.601 -0.9901  0.4116 -1.0522
17780SOL    HW257797   0.624   5.928   0.750  0.8834 -1.5091 -1.4343
17781SOL     OW57798   9.117   3.440   6.409  0.1691 -0.1915  0.1296
17781SOL    HW157799   9.086   3.374   6.347 -0.4152 -0.0626  0.2767
17781SOL    HW257800   9.146   3.512   6.354 -0.3805 -0.0640 -0.0063
17782SOL     OW57801   5.830   0.894   8.078  0.3397  1.2872  0.0290
17782SOL    HW157802   5.788   0.941   8.005 -0.8166  2.0088  1.1128
17782SOL    HW257803   5.906   0.948   8.099  1.4284  0.3896 -1.4455
17783SOL     OW57804   6.966   9.930   9.240 -0.0842 -0.3660 -0.5304
17783SOL    HW157805   7.013   9.989   9.181 -1.5260 -0.6279 -2.0066
17783SOL    HW257806   7.029   9.910   9.310  0.7090  2.2454 -0.4132
17784SOL     OW57807  10.235   6.604   0.852 -0.1037  0.3529  0.0453
17784SOL    HW157808  10.221   6.667   0.922  1.1120 -0.6464  1.2364
17784SOL    HW257809  10.314   6.635   0.806 -1.1087  1.2176 -1.1831
17785SOL     OW57810   3.319   2.256   0.684  0.1877 -0.1788  0.8283
17785SOL    HW157811   3.252   2.310   0.641 -1.0705 -1.2004  1.4359
17785SOL    HW257812   3.348   2.308   0.759 -0.8518 -0.2158  1.2791
17786SOL     OW57813   1.922   7.217   5.843  0.5586 -0.1633  0.1145
17786SOL    HW157814   1.986   7.157   5.805 -0.2031  0.0015 -1.4736
17786SOL    HW257815   1.838   7.189   5.807  0.1412  1.6048 -0.3684
17787SOL     OW57816   6.306  10.253   3.295 -0.2167  0.4759  0.4012
17787SOL    HW157817   6.380  10.254   3.234  0.2072 -0.5851  0.8581
17787SOL    HW257818   6.346  10.262   3.381 -0.6090 -0.0878  0.6509
17788SOL     OW57819   7.692   4.866   6.928 -0.5049  0.1546 -0.4551
17788SOL    HW157820   7.650   4.844   6.845 -0.7370  0.3726 -0.3982
17788SOL    HW257821   7.714   4.959   6.920  0.5511 -0.1116 -0.7324
17789SOL     OW57822   9.698   7.015   1.104 -0.3865 -0.2738  0.3412
17789SOL    HW157823   9.640   7.059   1.166 -0.5615 -1.1371  0.8124
17789SOL    HW257824   9.785   7.051   1.122 -0.7705  1.0867 -0.4243
17790SOL     OW57825   8.024   8.274   4.866  0.5157 -0.0288 -0.3474
17790SOL    HW157826   8.086   8.267   4.939  1.0952 -0.6545 -0.9000
17790SOL    HW257827   8.036   8.194   4.816 -0.1576  0.2231 -0.9240
17791SOL     OW57828   4.980   6.677   4.247  0.2489  0.4844  0.1675
17791SOL    HW157829   4.958   6.592   4.284  1.9574 -0.3494 -0.5967
17791SOL    HW257830   4.990   6.735   4.322  0.6994 -0.4122  0.8057
17792SOL     OW57831   9.593   3.476   9.824 -0.4019 -0.3407 -0.0466
17792SOL    HW157832   9.534   3.551   9.832 -2.2029 -1.8238  1.7259
17792SOL    HW257833   9.600   3.460   9.730  0.5102  2.3315 -0.5216
17793SOL     OW57834  10.097   0.672   2.186  0.2581  0.6246  0.7596
17793SOL    HW157835  10.025   0.612   2.204 -0.9513  1.4631 -0.9813
17793SOL    HW257836  10.154   0.666   2.263  0.4775 -3.0579  0.4625
17794SOL     OW57837   1.308   5.794   6.185 -0.2892  0.1123  1.0049
17794SOL    HW157838   1.387   5.756   6.225 -0.2315 -1.3697 -0.3704
17794SOL    HW257839   1.246   5.721   6.183 -0.5851  0.3688 -0.7053
17795SOL     OW57840   3.092   0.885   1.733  0.3431 -0.1158 -0.0528
17795SOL    HW157841   3.086   0.980   1.727  0.6090 -0.1711 -1.8479
17795SOL    HW257842   3.172   0.863   1.685  1.4626 -1.1203  2.1472
17796SOL     OW57843   3.068   6.689   8.750 -0.1114  0.4556  0.3858
17796SOL    HW157844   3.142   6.687   8.688 -0.1866 -0.3679  0.3060
17796SOL    HW257845   3.082   6.769   8.800  0.7154  0.4371  0.2154
17797SOL     OW57846   0.095   7.347   8.040  0.2045  0.1395  0.7775
17797SOL    HW157847   0.064   7.420   7.987 -1.8496 -0.5913  0.8795
17797SOL    HW257848   0.121   7.281   7.976 -2.7194 -0.9278  0.5466
17798SOL     OW57849   5.440   3.090   3.284  0.6044 -0.4583  0.3512
17798SOL    HW157850   5.385   3.166   3.304  1.1715  0.2443 -0.6893
17798SOL    HW257851   5.446   3.043   3.367 -0.8595 -0.0941  0.6944
17799SOL     OW57852   2.835   1.514   9.049 -0.1754  0.0030  0.2025
17799SOL    HW157853   2.749   1.552   9.038 -0.7433 -1.2720  0.0048
17799SOL    HW257854   2.820   1.438   9.105  0.5534 -1.0935 -1.0307
17800SOL     OW57855   1.229   0.201   2.647  0.0510  0.2805 -0.8216
17800SOL    HW157856   1.161   0.147   2.686  0.2023 -0.3498 -1.4111
17800SOL    HW257857   1.303   0.142   2.635  1.2856  1.2806  1.2095
17801SOL     OW57858   2.953   7.915  10.457 -0.1869  0.0932  0.5603
17801SOL    HW157859   2.866   7.888  10.427 -0.9827  3.6741 -0.7905
17801SOL    HW257860   2.936   7.972  10.532  0.9607  0.7937  0.3085
17802SOL     OW57861   5.638  10.668  10.105  0.1751  0.6440  0.5591
17802SOL    HW157862   5.682  10.589  10.136  1.3104  1.1900  0.4001
17802SOL    HW257863   5.615  10.715  10.186 -3.7767 -1.4320  0.8953
17803SOL     OW57864   5.131   1.089   1.063 -0.2879  0.4440  0.6186
17803SOL    HW157865   5.038   1.071   1.050 -0.3845  1.0422  0.4788
17803SOL    HW257866   5.169   1.003   1.084 -0.9817  0.3037  1.3495
17804SOL     OW57867   7.597   1.921   7.447 -0.1503  0.0117  0.0612
17804SOL    HW157868   7.604   2.016   7.447 -1.5996  0.2356  3.1086
17804SOL    HW257869   7.687   1.890   7.449  0.4370  1.1294 -2.9579
17805SOL     OW57870   6.417   4.570   6.279  0.0533 -0.0575  0.0528
17805SOL    HW157871   6.416   4.660   6.246  1.1573  0.2338  0.7647
17805SOL    HW257872   6.327   4.554   6.307  0.1343  1.3364  1.2351
17806SOL     OW57873   3.074   0.242   2.619 -0.3045 -1.1650  0.1124
17806SOL    HW157874   3.129   0.318   2.601 -1.2954 -0.8604 -1.9661
17806SOL    HW257875   2.996   0.277   2.661 -2.9835 -0.0695 -4.9821
17807SOL     OW57876   3.545   2.688   0.620 -0.4804  0.9264 -0.0761
17807SOL    HW157877   3.580   2.616   0.567 -0.4630  0.9299 -0.0695
17807SOL    HW257878   3.477   2.727   0.565 -1.8064 -0.2741  0.6766
17808SOL     OW57879   9.107   7.713   0.407  0.3460 -0.3072  0.2108
17808SOL    HW157880   9.086   7.807   0.412  1.2954 -0.1379  2.1398
17808SOL    HW257881   9.191   7.706   0.453  0.2080 -2.1397  0.2297
17809SOL     OW57882   5.841  10.021   6.143 -0.5105 -0.2804 -0.1393
17809SOL    HW157883   5.934  10.003   6.152 -0.5070 -0.8079 -1.0563
17809SOL    HW257884   5.805   9.940   6.105 -0.9992  0.6023 -1.6575
17810SOL     OW57885   3.637   7.956   2.168 -0.5325 -0.4533 -0.2889
17810SOL    HW157886   3.623   7.989   2.079  0.6597 -0.1541 -0.3862
17810SOL    HW257887   3.638   8.034   2.223 -0.2564 -0.5438 -0.1610
17811SOL     OW57888  10.936   1.829   9.972 -0.0218 -0.1529  0.2462
17811SOL    HW157889  10.953   1.894  10.041 -1.7387 -0.4126  0.9811
17811SOL    HW257890  10.867   1.868   9.919  0.8955 -0.2016 -1.0346
17812SOL     OW57891   2.940   2.791   0.034 -0.1399 -0.6546  0.2916
17812SOL    HW157892   2.988   2.722   0.080 -1.4454 -1.0311  1.1696
17812SOL    HW257893   2.874   2.820   0.097 -1.0701 -0.1880 -0.8516
17813SOL     OW57894   4.085   1.424   6.536  0.9680 -0.3647 -0.2838
17813SOL    HW157895   4.046   1.337   6.549  0.1439  0.1998  1.2030
17813SOL    HW257896   4.083   1.464   6.622  0.5733  1.4468 -1.0903
17814SOL     OW57897   8.766   4.684  10.091 -0.1877 -0.4184  0.9195
17814SOL    HW157898   8.826   4.630  10.041 -0.5835 -0.8766  0.9352
17814SOL    HW257899   8.820   4.756  10.125 -0.1829  0.7586 -1.4011
17815SOL     OW57900   9.656   8.979   4.231  0.4405 -0.1097 -0.2016
17815SOL    HW157901   9.675   8.928   4.309  1.2847  0.2282 -0.1726
17815SOL    HW257902   9.623   8.915   4.168  1.0909 -0.6254 -0.0313
17816SOL     OW57903   8.617   8.283   3.548 -0.3830  0.5846 -0.5515
17816SOL    HW157904   8.648   8.309   3.635 -1.5548  0.5322 -0.1021
17816SOL    HW257905   8.697   8.267   3.498  0.3481 -1.2002  1.0700
17817SOL     OW57906  10.553   8.482  10.589 -0.4931 -0.5181 -0.0728
17817SOL    HW157907  10.556   8.437  10.673 -1.9268  0.8853  0.7619
17817SOL    HW257908  10.626   8.544  10.592 -0.1994 -0.8557 -0.1153
17818SOL     OW57909   9.884   4.855   0.356 -0.7631  0.1704  0.1210
17818SOL    HW157910   9.962   4.865   0.410 -0.1129  2.0728 -1.0663
17818SOL    HW257911   9.910   4.888   0.270 -3.1692  2.0180 -0.0079
17819SOL     OW57912   7.262   2.840   5.290  0.4652  0.1167  0.0303
17819SOL    HW157913   7.349   2.824   5.255  0.3825 -0.9936  0.3051
17819SOL    HW257914   7.213   2.760   5.271 -0.6898  0.9569 -0.6826
17820SOL     OW57915   9.466   9.918   0.598  0.0031 -0.0216  0.2495
17820SOL    HW157916   9.456   9.848   0.662  0.2858  0.3030  0.6572
17820SOL    HW257917   9.381   9.964   0.600 -0.8166 -1.3719 -1.2813
17821SOL     OW57918   4.352  10.939   7.073 -0.1265  0.0210 -0.1137
17821SOL    HW157919   4.273  10.965   7.025 -1.3513 -1.4665  0.9775
17821SOL    HW257920   4.342  10.980   7.159  0.8109  0.6215 -0.2724
17822SOL     OW57921   6.030   7.712   9.836 -0.0644 -0.2705  0.0413
17822SOL    HW157922   5.936   7.702   9.824 -0.0895  0.3517 -0.3139
17822SOL    HW257923   6.068   7.634   9.796 -0.5422 -1.8979  2.4990
17823SOL     OW57924   4.973   1.983   7.699  0.3095 -0.1177 -0.6532
17823SOL    HW157925   5.060   1.947   7.716 -0.6450 -1.7235  1.3454
17823SOL    HW257926   4.934   1.992   7.786 -1.8322 -0.2529 -1.5488
17824SOL     OW57927   9.278   8.069   9.984 -0.1244 -0.0503 -0.1591
17824SOL    HW157928   9.359   8.048  10.032 -0.5377 -0.9773  0.1622
17824SOL    HW257929   9.215   8.093  10.051 -0.2455  0.2353 -0.3724
17825SOL     OW57930   0.143   3.670   4.999  0.7391  0.2474 -0.8668
17825SOL    HW157931   0.204   3.641   4.931 -2.0169 -1.8585 -2.6595
17825SOL    HW257932   0.166   3.618   5.076  0.8266 -1.0210 -1.7156
17826SOL     OW57933   4.620   1.776   6.366  0.3227 -0.4858  0.6253
17826SOL    HW157934   4.712   1.749   6.369  0.5521  0.1466 -0.2978
17826SOL    HW257935   4.623   1.871   6.361 -0.3253 -0.5177 -0.8191
17827SOL     OW57936   1.100  10.476   2.033 -0.2961 -0.5835  0.4277
17827SOL    HW157937   1.026  10.462   2.092 -0.2931  1.1757  0.9129
17827SOL    HW257938   1.174  10.496   2.091  0.4516 -1.7557 -0.0747
17828SOL     OW57939   3.314  10.904   4.789 -0.3050  0.2467  0.3005
17828SOL    HW157940   3.317  10.826   4.733  2.4271  0.6448 -0.2721
17828SOL    HW257941   3.318  10.977   4.728  2.8665  0.6883  0.8460
17829SOL     OW57942   0.574   9.488   1.025 -0.1277  0.2904  0.4983
17829SOL    HW157943   0.518   9.519   1.096 -0.8586  2.6907 -0.9839
17829SOL    HW257944   0.640   9.557   1.016  0.3279 -0.2844 -0.6871
17830SOL     OW57945   7.412   3.006  10.462  0.2602 -0.0973  0.4879
17830SOL    HW157946   7.400   3.100  10.455  0.0891 -0.0414  1.4177
17830SOL    HW257947   7.505   2.995  10.484  0.1403 -0.1072  1.0004
17831SOL     OW57948   6.132   6.597   6.251  0.4490 -0.2396  0.0449
17831SOL    HW157949   6.058   6.645   6.286 -0.1875 -0.8438 -0.4423
17831SOL    HW257950   6.105   6.571   6.163  1.6799  0.5100 -0.5857
17832SOL     OW57951   2.154   9.840   3.348 -0.2699  0.2138 -0.4196
17832SOL    HW157952   2.119   9.926   3.326  0.3298  0.8071  0.8698
17832SOL    HW257953   2.200   9.811   3.269  0.4858  1.5841 -0.5062
17833SOL     OW57954   1.845   5.103   2.480 -0.5097  0.3442 -0.0554
17833SOL    HW157955   1.911   5.173   2.480 -0.7150  0.5856  1.9064
17833SOL    HW257956   1.762   5.148   2.470 -0.5535  0.2691 -0.0286
17834SOL     OW57957   1.584   7.488   4.088  0.2036  0.8728 -0.4032
17834SOL    HW157958   1.503   7.525   4.124 -2.2135 -3.3335 -0.8014
17834SOL    HW257959   1.572   7.493   3.993  0.5887  0.6035 -0.4672
17835SOL     OW57960   2.325  10.459   1.241  0.2833  0.1637 -0.3060
17835SOL    HW157961   2.269  10.502   1.306 -0.1782 -3.5296  2.0471
17835SOL    HW257962   2.406  10.440   1.289 -0.1918 -2.9620 -0.5221
17836SOL     OW57963   1.284   1.791   3.268  0.5067  0.1007 -0.5179
17836SOL    HW157964   1.219   1.729   3.301  0.6216 -0.4997 -1.3799
17836SOL    HW257965   1.233   1.862   3.230  0.3667 -0.0132 -0.5428
17837SOL     OW57966   5.155   1.029   8.781  0.8240  0.1832 -0.2604
17837SOL    HW157967   5.171   1.120   8.807 -0.6769  0.2329  0.5739
17837SOL    HW257968   5.225   0.979   8.823  0.9940  0.8088  0.2045
17838SOL     OW57969   2.242   8.923   1.836 -0.3473  0.0332  0.4691
17838SOL    HW157970   2.293   8.971   1.770 -1.5377  0.1849 -0.3762
17838SOL    HW257971   2.159   8.902   1.792 -0.0915 -2.3622  0.9649
17839SOL     OW57972   8.254   9.854   4.091 -0.0296  0.1690 -0.6385
17839SOL    HW157973   8.345   9.869   4.064  0.3465  0.2151  0.6234
17839SOL    HW257974   8.259   9.826   4.182 -1.3691  1.4449 -0.1260
17840SOL     OW57975   5.667   8.656   2.802 -0.1154  0.5344  0.4994
17840SOL    HW157976   5.711   8.733   2.766  2.3074 -0.4151  1.2740
17840SOL    HW257977   5.611   8.691   2.872 -0.1763  1.7197 -0.1178
17841SOL     OW57978   1.361   9.686   5.365 -0.2349  0.6859  0.2568
17841SOL    HW157979   1.388   9.758   5.422 -0.9523  1.2517 -0.1120
17841SOL    HW257980   1.293   9.723   5.309 -0.3633 -0.1815 -0.1800
17842SOL     OW57981   5.104   6.064   3.566  0.1095  0.0190 -0.3269
17842SOL    HW157982   5.101   6.155   3.594  1.1488 -0.1225  0.3138
17842SOL    HW257983   5.197   6.044   3.559 -0.1112 -0.8557 -0.9353
17843SOL     OW57984   1.531   0.479   2.987  0.0289  0.2867 -0.3222
17843SOL    HW157985   1.506   0.568   2.964 -1.5664  0.2558  1.0507
17843SOL    HW257986   1.576   0.488   3.071  0.2911 -0.1457 -0.4134
17844SOL     OW57987   0.456   3.653   2.297 -0.5749 -0.0008  0.5383
17844SOL    HW157988   0.397   3.693   2.232  1.3200 -0.6098 -1.6602
17844SOL    HW257989   0.438   3.559   2.291 -0.6456 -0.0354  1.2087
17845SOL     OW57990   2.056   3.920   3.971 -0.2074 -0.3928  0.1098
17845SOL    HW157991   2.121   3.868   4.019  0.0527 -1.5485 -1.4123
17845SOL    HW257992   1.992   3.855   3.940 -1.6167  0.6152  0.7884
17846SOL     OW57993   6.171   9.842   2.267 -0.1286 -0.0193 -0.3254
17846SOL    HW157994   6.139   9.881   2.349 -0.1657 -1.7802  0.5596
17846SOL    HW257995   6.161   9.911   2.202  0.1387  1.5422  1.1971
17847SOL     OW57996   7.738   4.301   0.144  0.0787  0.2858  0.0267
17847SOL    HW157997   7.652   4.342   0.156  0.2133  0.2453  1.2464
17847SOL    HW257998   7.736   4.225   0.201  0.8801  0.2113 -0.0399
17848SOL     OW57999  11.044   7.286   5.864  0.0626 -0.1894  0.1387
17848SOL    HW158000  10.995   7.229   5.923 -0.5561  0.4419  0.2552
17848SOL    HW258001  11.116   7.320   5.917  0.6330 -1.1179 -0.0299
17849SOL     OW58002  10.094  10.712   9.691 -0.7684  0.1914  0.2703
17849SOL    HW158003  10.014  10.665   9.668 -0.0494 -1.5164  1.0706
17849SOL    HW258004  10.157  10.687   9.623 -0.6886  0.9547  0.0484
17850SOL     OW58005   2.226   3.277   7.528  0.3410  0.1011  0.2009
17850SOL    HW158006   2.161   3.340   7.496  1.0970 -0.9013 -3.8935
17850SOL    HW258007   2.293   3.331   7.569 -1.5614  1.3817  1.8787
17851SOL     OW58008   6.067   5.562   3.703  0.1647 -0.0638 -0.3155
17851SOL    HW158009   5.992   5.503   3.698  0.6616 -0.9665  1.8188
17851SOL    HW258010   6.077   5.596   3.614 -0.9442 -2.1903 -1.3207
17852SOL     OW58011   5.290   8.244   0.835  0.1846  0.2239  0.3286
17852SOL    HW158012   5.224   8.276   0.898 -0.8067 -1.1983  0.0789
17852SOL    HW258013   5.245   8.245   0.751  1.7464  2.8398 -0.5844
17853SOL     OW58014   4.220   5.266   5.541  0.7049 -0.1224  0.3482
17853SOL    HW158015   4.196   5.267   5.633  0.5100 -0.5242  0.3021
17853SOL    HW258016   4.183   5.348   5.506 -1.3921 -1.1203  0.0963
17854SOL     OW58017   1.229   5.563   4.202 -0.9592  0.2772 -0.0366
17854SOL    HW158018   1.296   5.497   4.184  1.3093  1.7441  2.2701
17854SOL    HW258019   1.216   5.607   4.117 -0.2956 -1.1580 -0.9258
17855SOL     OW58020   3.339  10.465  10.896  0.5548 -0.1877  0.1656
17855SOL    HW158021   3.344  10.372  10.876  0.1267 -0.3620  0.8485
17855SOL    HW258022   3.252  10.491  10.867  0.3600 -0.1881  0.7465
17856SOL     OW58023   5.589   5.274  10.697 -0.1546  0.1271 -0.0661
17856SOL    HW158024   5.505   5.286  10.653 -0.3916 -0.8236  0.1032
17856SOL    HW258025   5.605   5.357  10.742 -0.4820  0.6918 -0.9766
17857SOL     OW58026   8.350   2.293   5.939  0.0165  0.6000  0.8683
17857SOL    HW158027   8.387   2.229   5.878 -0.7464  1.4769 -0.5970
17857SOL    HW258028   8.321   2.241   6.014  0.4080 -0.6220  0.2063
17858SOL     OW58029   5.519   4.525   7.511  0.4430  0.0386  0.2910
17858SOL    HW158030   5.501   4.446   7.561  0.2559  0.6050  1.1334
17858SOL    HW258031   5.527   4.594   7.577  1.8403  0.5033 -0.3288
17859SOL     OW58032   5.377   0.493   4.516  0.7250 -0.1339  0.0636
17859SOL    HW158033   5.460   0.523   4.554  1.2822  1.4847 -2.1804
17859SOL    HW258034   5.321   0.570   4.518  0.2421 -0.4451 -0.9207
17860SOL     OW58035   3.969  10.504   9.354 -0.1572 -0.1609 -0.2367
17860SOL    HW158036   3.941  10.439   9.419  0.4739  0.7366  0.9767
17860SOL    HW258037   3.891  10.556   9.338 -0.0353  0.3704  0.7608
17861SOL     OW58038   7.458   0.685   4.173  0.0231  1.1175 -0.8564
17861SOL    HW158039   7.544   0.724   4.184  0.4797 -0.1473  0.3512
17861SOL    HW258040   7.435   0.652   4.260 -1.0160  0.1284 -1.4715
17862SOL     OW58041   8.344   4.486   7.553 -0.3783  0.0080  0.2472
17862SOL    HW158042   8.411   4.538   7.597 -0.2753 -0.2128  0.3530
17862SOL    HW258043   8.305   4.546   7.490 -0.6104  0.3569  0.7198
17863SOL     OW58044   3.331   6.827   6.382 -0.2714 -0.3331 -0.5932
17863SOL    HW158045   3.303   6.803   6.294  1.2894  0.1788 -1.2776
17863SOL    HW258046   3.374   6.748   6.415  2.2411  0.4666 -1.7006
17864SOL     OW58047   9.154   7.615   1.328 -0.4043  0.1877 -0.1551
17864SOL    HW158048   9.248   7.618   1.344 -0.3595 -1.0325 -0.0843
17864SOL    HW258049   9.144   7.562   1.249 -1.0169  0.7351 -0.4667
17865SOL     OW58050   1.153   1.653   4.895 -0.3071 -0.0938 -0.3448
17865SOL    HW158051   1.184   1.585   4.836 -0.2137 -0.8293  0.5317
17865SOL    HW258052   1.135   1.608   4.977 -0.8573  0.8295  0.0654
17866SOL     OW58053   0.861   4.015   5.990  0.3432 -0.0862 -0.6640
17866SOL    HW158054   0.818   4.090   5.950  0.0369  0.0159 -0.1626
17866SOL    HW258055   0.937   3.997   5.935  1.1371  1.3725 -0.0958
17867SOL     OW58056   0.316   4.863   6.573 -0.3663  0.5705  0.5316
17867SOL    HW158057   0.332   4.857   6.479  0.3727  0.9202  0.6267
17867SOL    HW258058   0.238   4.810   6.588  1.2011 -2.0117  0.1793
17868SOL     OW58059   9.216   3.876   7.189  0.0569 -0.1322 -0.2166
17868SOL    HW158060   9.139   3.882   7.132 -0.5608 -0.2524  0.5907
17868SOL    HW258061   9.230   3.782   7.201 -0.1434 -0.1006  0.2661
17869SOL     OW58062   9.445   2.866   5.126 -0.1147 -0.2727 -0.4391
17869SOL    HW158063   9.523   2.909   5.159 -0.1714 -1.3210  1.1295
17869SOL    HW258064   9.376   2.931   5.135  0.1119 -0.1452  0.4438
17870SOL     OW58065   8.053   4.626   1.752 -0.1089  0.3763  0.4834
17870SOL    HW158066   7.986   4.597   1.689 -2.1267  1.0583  2.1869
17870SOL    HW258067   8.094   4.545   1.782  0.8018  0.0290 -1.5318
17871SOL     OW58068   3.709   1.428   1.957 -0.6155  0.0088  0.6593
17871SOL    HW158069   3.651   1.352   1.966  2.1268 -2.2611  0.5292
17871SOL    HW258070   3.728   1.455   2.046 -0.1031 -0.7373  0.7885
17872SOL     OW58071   8.987   7.045   6.795  0.6932  0.1271  0.4127
17872SOL    HW158072   9.019   7.117   6.741  2.0513 -0.0704  0.9085
17872SOL    HW258073   8.899   7.027   6.762  1.2310  0.4326 -1.2990
17873SOL     OW58074   0.822   8.277   8.906 -0.4039 -0.5862  0.2828
17873SOL    HW158075   0.782   8.355   8.868  0.6454 -0.5640 -0.8007
17873SOL    HW258076   0.783   8.271   8.994 -0.3401  1.2628  0.4644
17874SOL     OW58077   0.236   5.756  10.358 -0.1143 -0.0797 -0.2795
17874SOL    HW158078   0.145   5.732  10.370  0.2675 -0.9744  0.9481
17874SOL    HW258079   0.261   5.799  10.439  0.1822  1.4674 -1.1439
17875SOL     OW58080   1.565  10.100   2.063 -0.7644  0.0414 -0.2949
17875SOL    HW158081   1.590  10.099   1.970  1.5340 -0.0868  0.2757
17875SOL    HW258082   1.568  10.193   2.087 -0.5767  0.0015 -0.1630
17876SOL     OW58083   4.418   5.414   0.510 -0.3384 -0.1871 -0.3066
17876SOL    HW158084   4.447   5.328   0.478  1.2043  0.3570 -0.4604
17876SOL    HW258085   4.323   5.407   0.514 -0.2910 -1.6711 -0.9813
17877SOL     OW58086   4.001   3.306   0.604  0.5551 -0.7861  0.0414
17877SOL    HW158087   3.927   3.248   0.586 -0.9102  0.5945  1.2566
17877SOL    HW258088   4.041   3.321   0.519 -0.3470 -1.8543 -0.6016
17878SOL     OW58089   6.400  10.829   4.164  0.6693  0.0007 -0.4417
17878SOL    HW158090   6.480  10.880   4.178  1.1073 -0.7030 -0.3233
17878SOL    HW258091   6.352  10.878   4.097  1.1577  0.4792 -0.4484
17879SOL     OW58092   7.067   1.074   1.181  0.0547 -0.0130 -0.6181
17879SOL    HW158093   7.100   0.995   1.224  0.9432  0.5892 -0.1493
17879SOL    HW258094   6.975   1.056   1.165  0.3588 -1.3576 -1.0167
17880SOL     OW58095   8.400   8.707   0.371 -0.4616 -0.8255 -0.3428
17880SOL    HW158096   8.426   8.731   0.460 -0.3474  0.7463 -0.7766
17880SOL    HW258097   8.320   8.655   0.382 -1.2971  0.5969  0.6180
17881SOL     OW58098   2.706   8.421   0.058  0.5592  0.0552 -0.3461
17881SOL    HW158099   2.687   8.450   0.147 -1.4170 -1.8936 -0.0481
17881SOL    HW258100   2.705   8.325   0.063  1.0875 -0.1032 -2.3427
17882SOL     OW58101  10.122   7.394   8.280  0.5502 -0.0709 -0.7038
17882SOL    HW158102  10.087   7.397   8.191  1.4816  2.8854 -1.0728
17882SOL    HW258103  10.064   7.451   8.330  1.8591  0.8607 -0.1969
17883SOL     OW58104   6.590   7.301   1.747 -1.1359 -0.9220  0.7564
17883SOL    HW158105   6.637   7.310   1.831 -1.7679 -0.3032  1.0476
17883SOL    HW258106   6.626   7.370   1.692 -1.3197 -0.7878  0.8032
17884SOL     OW58107   2.223   2.634   6.294 -0.1956 -0.1720  0.1911
17884SOL    HW158108   2.144   2.613   6.244 -0.2717 -0.8946  0.6006
17884SOL    HW258109   2.286   2.662   6.228 -0.6943  0.1120 -0.1744
17885SOL     OW58110   2.750   2.813   4.766 -0.0387  0.0326 -0.2754
17885SOL    HW158111   2.760   2.812   4.861  2.5053 -0.4569 -0.4866
17885SOL    HW258112   2.742   2.721   4.741 -3.1506  0.2373 -0.4154
17886SOL     OW58113   7.587   2.240   3.523  0.2281  0.3959  0.1904
17886SOL    HW158114   7.594   2.192   3.605  0.4454  0.8989  0.4705
17886SOL    HW258115   7.515   2.301   3.537  0.1080  0.3140 -0.0771
17887SOL     OW58116   1.834   1.017   0.766 -0.0342  0.2816  0.1549
17887SOL    HW158117   1.856   1.092   0.821 -1.3576 -0.4258  1.7180
17887SOL    HW258118   1.882   1.033   0.684  0.5169  2.2989  0.8098
17888SOL     OW58119   7.741  10.730   9.535 -0.2596  0.5512 -0.0167
17888SOL    HW158120   7.818  10.699   9.488  0.8245  0.2112  1.8835
17888SOL    HW258121   7.713  10.808   9.487  1.3158  0.7457 -0.6817
17889SOL     OW58122   9.605   9.692   5.202 -0.5030  0.1417  0.5139
17889SOL    HW158123   9.566   9.621   5.151  0.7767 -0.1737 -0.0504
17889SOL    HW258124   9.599   9.769   5.144  3.7192 -0.8029 -1.6164
17890SOL     OW58125  10.939   9.292   2.862 -0.2656 -0.0837  0.3721
17890SOL    HW158126  10.861   9.345   2.880 -1.6401 -2.4027  1.7446
17890SOL    HW258127  10.922   9.252   2.777 -0.1820  0.0486  0.2924
17891SOL     OW58128   8.176   5.513   7.158  0.1668 -0.3304 -0.6780
17891SOL    HW158129   8.264   5.525   7.195 -0.9742  1.5857  1.6475
17891SOL    HW258130   8.156   5.421   7.174  1.0440 -0.3471  0.4522
17892SOL     OW58131   8.302  10.499  10.980  0.3595  0.1030  0.0614
17892SOL    HW158132   8.267  10.503  11.069 -1.6144 -0.2949 -0.6603
17892SOL    HW258133   8.361  10.574  10.974  0.5075  0.1540  1.6750
17893SOL     OW58134   9.594   5.283   6.812 -0.0006  0.0796 -1.2112
17893SOL    HW158135   9.527   5.343   6.845 -0.6590 -1.2358 -0.0359
17893SOL    HW258136   9.636   5.248   6.890 -1.1045 -2.5849 -1.6951
17894SOL     OW58137   9.825   0.004   5.286 -0.4400  0.3038 -0.3800
17894SOL    HW158138   9.833  -0.070   5.226  1.5837  1.3483 -1.4962
17894SOL    HW258139   9.792   0.075   5.231 -2.2731  0.3207  0.6603
17895SOL     OW58140   3.120   1.179   9.216  0.9235  0.0241  0.0639
17895SOL    HW158141   3.134   1.171   9.121  1.5090 -1.3861  0.2517
17895SOL    HW258142   3.107   1.273   9.230 -0.2995  0.1353 -1.5574
17896SOL     OW58143  10.876   9.724   1.759 -0.6210  1.1342 -0.6785
17896SOL    HW158144  10.911   9.810   1.736 -1.2339  0.8136 -3.0746
17896SOL    HW258145  10.786   9.742   1.785  0.3322  1.6117  2.6948
17897SOL     OW58146   8.103   9.021   2.393  0.1228  0.2581 -0.0517
17897SOL    HW158147   8.039   8.997   2.460 -0.3957  1.3089 -0.1479
17897SOL    HW258148   8.056   9.013   2.310 -0.0962  1.5874 -0.0841
17898SOL     OW58149   2.419   4.640   3.991 -0.3518 -0.1167 -0.0352
17898SOL    HW158150   2.405   4.640   3.897 -0.0792  0.6415 -0.0738
17898SOL    HW258151   2.337   4.674   4.028 -0.4267 -0.3341  0.0066
17899SOL     OW58152   3.677   8.388   6.829  0.0136 -0.3504 -0.6298
17899SOL    HW158153   3.722   8.320   6.779  1.1254 -1.0398  1.2163
17899SOL    HW258154   3.746   8.428   6.881 -1.3025 -0.6987  1.4762
17900SOL     OW58155   9.888   7.948   0.639  0.5149  0.2355 -0.2536
17900SOL    HW158156   9.884   7.961   0.544  0.4547  0.8040 -0.1776
17900SOL    HW258157   9.897   8.037   0.675 -0.5540  0.1226  0.3270
17901SOL     OW58158   3.379   0.340   4.835  0.0110 -0.2638 -0.8797
17901SOL    HW158159   3.345   0.385   4.758  0.0375 -0.5616 -1.0693
17901SOL    HW258160   3.437   0.273   4.799  2.2800  1.3971 -0.5298
17902SOL     OW58161   4.592   7.507   9.105  0.2173  0.5395 -0.0398
17902SOL    HW158162   4.555   7.592   9.082  1.0087  1.5267  2.0893
17902SOL    HW258163   4.516   7.449   9.111 -0.3382  1.0787 -1.4325
17903SOL     OW58164   0.022   3.710   6.413 -0.2895  0.5072 -0.2320
17903SOL    HW158165   0.080   3.687   6.485 -0.0649  0.2965 -0.4779
17903SOL    HW258166  -0.062   3.730   6.455  0.2038  1.7513  0.2293
17904SOL     OW58167   3.135  10.389   2.966 -0.2776  0.7916 -0.3655
17904SOL    HW158168   3.198  10.461   2.959  0.1857  0.3155 -1.3654
17904SOL    HW258169   3.188  10.310   2.955 -0.9409  0.3526 -0.4867
17905SOL     OW58170  10.167   7.658   7.516  0.2298  0.0874  0.1148
17905SOL    HW158171  10.177   7.563   7.513 -2.8478 -0.3518  0.8863
17905SOL    HW258172  10.125   7.680   7.433 -1.6949  0.3180  1.0965
17906SOL     OW58173   3.789   1.091   4.414  0.0412 -0.2076  0.4801
17906SOL    HW158174   3.877   1.125   4.429 -0.1541  0.4732  0.1038
17906SOL    HW258175   3.759   1.063   4.501  0.3772  0.1763  0.7221
17907SOL     OW58176   8.735   7.287   0.300 -0.1243 -0.1307 -0.7201
17907SOL    HW158177   8.758   7.291   0.207  0.5263  1.4925 -0.5230
17907SOL    HW258178   8.782   7.361   0.340 -0.7642 -0.5106  0.8202
17908SOL     OW58179   3.766  10.149   7.027  0.2146 -0.0408  0.6818
17908SOL    HW158180   3.800  10.062   7.004  0.2616  0.2509 -0.4418
17908SOL    HW258181   3.842  10.207   7.019 -0.2955  0.4613 -0.9140
17909SOL     OW58182  10.678   2.020   2.142  0.0350 -0.2708 -0.5218
17909SOL    HW158183  10.691   1.973   2.224  0.2667 -0.7004 -0.7993
17909SOL    HW258184  10.586   2.045   2.143 -0.3928 -1.7380 -0.8789
17910SOL     OW58185   9.407   1.739   8.504  0.0597 -0.1154  0.0369
17910SOL    HW158186   9.349   1.726   8.430  1.6999 -0.1541 -1.3042
17910SOL    HW258187   9.495   1.743   8.466  0.7243  3.9458  1.4400
17911SOL     OW58188  10.422   2.007   7.053  1.0497 -0.1290 -0.4087
17911SOL    HW158189  10.465   1.924   7.033 -1.2090 -1.3291 -0.6596
17911SOL    HW258190  10.358   2.018   6.983 -0.5200  0.4209  1.0397
17912SOL     OW58191   4.876   3.610   3.515  0.1159 -0.4774  0.1218
17912SOL    HW158192   4.787   3.621   3.549 -0.1807 -1.4762 -0.3090
17912SOL    HW258193   4.921   3.691   3.541  0.1431 -1.4308  3.5079
17913SOL     OW58194   6.898   6.524   2.902 -0.0106 -0.0898  0.5454
17913SOL    HW158195   6.976   6.515   2.957 -1.0896 -1.6884  1.9535
17913SOL    HW258196   6.887   6.437   2.863 -1.3522 -0.0373  0.7734
17914SOL     OW58197   4.278   3.950   7.756  0.0873 -0.0859  1.0356
17914SOL    HW158198   4.192   3.977   7.785 -0.7820 -0.6463 -0.8584
17914SOL    HW258199   4.281   3.856   7.773 -0.5090 -0.4570 -0.7630
17915SOL     OW58200   0.183   4.451   1.609 -0.1591 -0.5774 -0.2133
17915SOL    HW158201   0.265   4.498   1.593 -0.0747 -1.0661 -1.3317
17915SOL    HW258202   0.119   4.496   1.553 -0.4324 -0.8112 -0.0905
17916SOL     OW58203   1.470   0.397   5.059 -0.6666 -0.2042 -0.1819
17916SOL    HW158204   1.510   0.332   5.001  0.7903  0.1135  0.4186
17916SOL    HW258205   1.404   0.440   5.005 -1.2946 -1.7984 -0.7516
17917SOL     OW58206   9.263   1.036   6.866 -0.0848  0.1280 -0.3264
17917SOL    HW158207   9.170   1.017   6.860  0.2379 -1.2098 -2.2557
17917SOL    HW258208   9.305   0.970   6.810  1.5997  3.5968 -3.6837
17918SOL     OW58209   2.668   0.690   8.470  0.4043 -0.1316  0.0140
17918SOL    HW158210   2.638   0.751   8.537 -0.4580 -1.1757  0.6024
17918SOL    HW258211   2.733   0.636   8.515  0.9437  0.1391 -0.4229
17919SOL     OW58212   7.571   9.167   3.098 -0.1507  0.3740  0.1173
17919SOL    HW158213   7.529   9.230   3.040 -1.0962 -1.8282 -1.7767
17919SOL    HW258214   7.656   9.149   3.057 -0.4016 -0.4587 -0.0632
17920SOL     OW58215   0.725  10.944   4.196  0.3114 -0.3993  0.7685
17920SOL    HW158216   0.798  10.986   4.243 -0.0336 -0.1076  1.0466
17920SOL    HW258217   0.672  11.017   4.165  0.3853 -0.5988  0.1587
17921SOL     OW58218   9.101   1.833   2.599 -0.7289 -0.1341 -0.8125
17921SOL    HW158219   9.030   1.792   2.648 -0.9730 -1.5377 -2.2593
17921SOL    HW258220   9.057   1.889   2.535 -0.4671  0.3162 -0.6055
17922SOL     OW58221   0.293   7.621   3.634  0.1920  0.5142  0.0129
17922SOL    HW158222   0.287   7.715   3.648 -1.6978  0.5421 -0.6516
17922SOL    HW258223   0.232   7.584   3.698  0.2393 -0.1942 -0.3467
17923SOL     OW58224   7.924   5.583   2.140  0.5132 -0.3747 -0.3783
17923SOL    HW158225   7.967   5.528   2.206 -0.8794 -0.1660  0.7639
17923SOL    HW258226   7.995   5.632   2.099  1.3552  0.3404  1.7923
17924SOL     OW58227  10.655   8.940   6.831 -0.4596 -0.3242 -0.0334
17924SOL    HW158228  10.741   8.977   6.849 -1.2042  2.4637 -1.5378
17924SOL    HW258229  10.601   8.970   6.904 -0.0537 -2.8753  1.4222
17925SOL     OW58230   9.787   0.532   3.171 -0.4890 -0.2052 -0.3705
17925SOL    HW158231   9.799   0.461   3.233 -0.4357 -0.3638 -0.5627
17925SOL    HW258232   9.793   0.612   3.224  0.1521 -0.3200 -0.2706
17926SOL     OW58233  10.481   0.983   7.180 -0.0619  0.4969  0.3183
17926SOL    HW158234  10.501   0.959   7.271  0.9444 -1.5143 -0.3820
17926SOL    HW258235  10.435   1.066   7.188  0.4458  0.6438  2.6387
17927SOL     OW58236   6.949   1.338   8.103 -0.0424 -0.1929  0.8423
17927SOL    HW158237   6.882   1.361   8.040  1.3226  0.1746 -0.5336
17927SOL    HW258238   6.959   1.416   8.158  0.4734  0.3914 -0.0678
17928SOL     OW58239   1.693   3.023   0.909 -0.1826  0.5383 -0.8959
17928SOL    HW158240   1.612   3.057   0.948  0.8422  2.2315 -0.1461
17928SOL    HW258241   1.669   2.936   0.877 -2.4965  1.2712 -1.3628
17929SOL     OW58242   6.762   1.826   7.703 -0.3308  0.5229 -0.3175
17929SOL    HW158243   6.750   1.901   7.761 -0.3099 -0.9491  1.6971
17929SOL    HW258244   6.856   1.808   7.705 -0.3476  0.3711 -0.7089
17930SOL     OW58245   7.341  10.424   9.127 -0.4591  0.1455 -0.0939
17930SOL    HW158246   7.281  10.369   9.177  0.0496 -1.1576 -0.8724
17930SOL    HW258247   7.285  10.487   9.082 -0.9459  1.2327  1.9190
17931SOL     OW58248   3.598  10.542   8.496 -0.6654  0.0013 -0.3322
17931SOL    HW158249   3.641  10.625   8.516  0.5299 -1.1076  2.2068
17931SOL    HW258250   3.530  10.534   8.563  0.6976 -2.0138  0.9156
17932SOL     OW58251   8.421   5.011   4.961 -0.7804 -0.4531 -0.3462
17932SOL    HW158252   8.502   4.969   4.933 -2.1089 -2.1432 -1.8195
17932SOL    HW258253   8.446   5.103   4.977  1.6953 -1.2273  0.6950
17933SOL     OW58254   2.437   7.325   7.507  0.2339  0.0053  0.3497
17933SOL    HW158255   2.511   7.265   7.501 -0.2658 -0.5745 -0.1088
17933SOL    HW258256   2.415   7.326   7.600 -1.0320 -2.1156  0.1268
17934SOL     OW58257   7.005   7.476   5.640 -0.2075  0.4552  1.0006
17934SOL    HW158258   7.080   7.534   5.629 -0.2713  0.1778 -1.5333
17934SOL    HW258259   7.041   7.399   5.683  0.7590  0.7564  0.7696
17935SOL     OW58260   1.282   6.965   0.813 -0.3560  0.0056 -0.1365
17935SOL    HW158261   1.287   6.953   0.908  0.8400 -0.9778 -0.3083
17935SOL    HW258262   1.266   6.877   0.779 -0.3218  0.2872 -0.8880
17936SOL     OW58263   9.789   2.342   7.679  0.4295 -0.2380 -0.3098
17936SOL    HW158264   9.790   2.370   7.771 -1.1708 -0.5661 -0.1601
17936SOL    HW258265   9.859   2.277   7.673 -1.0492 -2.1178  1.3496
17937SOL     OW58266   0.103   7.069   2.565  0.3968 -0.3030 -0.1830
17937SOL    HW158267   0.165   7.116   2.621  0.0788  0.2036 -0.2565
17937SOL    HW258268   0.020   7.075   2.612  0.5366 -1.6309  0.2984
17938SOL     OW58269   5.578   2.527   8.890 -0.3268  0.0933  0.6574
17938SOL    HW158270   5.635   2.461   8.930 -0.3369  1.4344  3.1483
17938SOL    HW258271   5.604   2.529   8.798  0.8218 -2.1443  0.8582
17939SOL     OW58272   1.693   5.763   3.715  0.5174 -0.1420  0.2879
17939SOL    HW158273   1.689   5.835   3.778  0.9653  0.9773 -0.9205
17939SOL    HW258274   1.754   5.701   3.754  1.9566  1.2111  0.3217
17940SOL     OW58275   6.874  10.872   4.715 -0.1293 -0.0132  0.3356
17940SOL    HW158276   6.800  10.931   4.729 -0.2016 -0.0473  0.0920
17940SOL    HW258277   6.899  10.844   4.804  0.9746  1.6844  0.5933
17941SOL     OW58278   0.268   5.235   6.954  0.3694  0.3080  0.1862
17941SOL    HW158279   0.214   5.311   6.931  1.7162  1.0395 -0.7030
17941SOL    HW258280   0.297   5.200   6.869  0.5749 -0.6082  0.6190
17942SOL     OW58281   3.197   7.378   7.903 -0.2201  0.1610  0.4541
17942SOL    HW158282   3.206   7.394   7.997 -1.9361 -1.5604  0.9751
17942SOL    HW258283   3.284   7.349   7.876 -0.2078 -1.4301  2.0162
17943SOL     OW58284   2.899  10.528   1.876 -0.4305  0.3484  0.1948
17943SOL    HW158285   2.886  10.566   1.789  0.2268 -0.5825 -0.3213
17943SOL    HW258286   2.989  10.495   1.874 -1.6166 -3.2380 -0.1797
17944SOL     OW58287   0.703   7.566   6.220  0.3951  0.0602 -0.1911
17944SOL    HW158288   0.757   7.559   6.141  0.8037  1.5278 -0.0902
17944SOL    HW258289   0.614   7.576   6.188  0.3834 -0.7190 -0.4141
17945SOL     OW58290   3.602   3.687   5.380 -0.2785 -0.1788 -0.2617
17945SOL    HW158291   3.666   3.635   5.331 -2.7584 -0.8453 -3.0669
17945SOL    HW258292   3.590   3.766   5.327 -0.3276  0.9054  1.2925
17946SOL     OW58293   2.915   7.396   5.441  0.2468 -0.6839  0.9602
17946SOL    HW158294   2.892   7.459   5.510 -0.9118 -1.8773  1.7006
17946SOL    HW258295   2.903   7.444   5.359 -1.0705 -0.0607  1.4921
17947SOL     OW58296   4.190   3.162  10.126  0.1283 -0.0683  0.0031
17947SOL    HW158297   4.261   3.181  10.187 -0.0790 -0.8629  0.4975
17947SOL    HW258298   4.168   3.070  10.142 -1.3828  0.3152  0.2481
17948SOL     OW58299   4.540   9.340   2.742 -0.3402  0.1848  0.4758
17948SOL    HW158300   4.502   9.348   2.829 -0.3719  0.1457  0.4657
17948SOL    HW258301   4.618   9.396   2.744 -0.8710  0.9488  0.2219
17949SOL     OW58302  10.262   2.687   2.775  0.0327 -0.3948  0.0607
17949SOL    HW158303  10.341   2.660   2.821 -0.3207  0.0293  0.9327
17949SOL    HW258304  10.198   2.703   2.844 -0.8959 -0.9751 -0.6526
17950SOL     OW58305   3.343   2.948   9.156  0.3850  0.1004  0.6195
17950SOL    HW158306   3.252   2.967   9.133  0.5228 -0.3157 -0.3145
17950SOL    HW258307   3.371   2.882   9.092  1.4504  0.4674  0.6806
17951SOL     OW58308   0.358   5.916   0.843 -0.5578  0.4327 -0.3112
17951SOL    HW158309   0.407   5.953   0.770  0.5758  0.6991  0.5654
17951SOL    HW258310   0.323   5.834   0.808  1.0314 -0.0766 -0.8020
17952SOL     OW58311   2.239   3.872   7.576 -0.5727  0.2031  0.1633
17952SOL    HW158312   2.288   3.824   7.642 -0.9820  1.2332  1.2440
17952SOL    HW258313   2.257   3.964   7.594 -1.4356  0.5322 -0.5635
17953SOL     OW58314   1.980   2.832   2.449  0.3895  0.3343 -0.1374
17953SOL    HW158315   2.029   2.823   2.368  0.7337 -0.7339  0.1675
17953SOL    HW258316   2.026   2.900   2.498  0.9567  0.0558 -0.2830
17954SOL     OW58317   8.636   5.355   3.071 -0.3662 -0.3144  0.5199
17954SOL    HW158318   8.656   5.415   3.142 -0.7958  0.1995  0.2179
17954SOL    HW258319   8.556   5.390   3.032 -0.7081 -1.1716  0.4320
17955SOL     OW58320   6.870   6.902  10.610 -0.1719  0.6375 -0.3460
17955SOL    HW158321   6.858   6.810  10.632 -1.9938  1.0662  0.6724
17955SOL    HW258322   6.871   6.904  10.514 -1.0901 -0.3420 -0.3890
17956SOL     OW58323   1.982   5.611  10.839  0.4129  0.4560  0.1527
17956SOL    HW158324   1.886   5.614  10.834  0.1587 -2.3842  1.5203
17956SOL    HW258325   2.004   5.520  10.819  2.9401  1.2061 -0.9028
17957SOL     OW58326   4.009   3.529   3.437  0.5346  0.3731  0.5914
17957SOL    HW158327   4.032   3.551   3.528 -0.1617 -2.7836  1.6316
17957SOL    HW258328   3.934   3.471   3.444 -0.9623  1.7539 -2.1999
17958SOL     OW58329   8.038   1.997   2.081  0.3248 -0.1264  0.2294
17958SOL    HW158330   7.952   1.957   2.065 -0.7834  1.4140  1.9281
17958SOL    HW258331   8.038   2.076   2.028 -0.1032  0.8273  1.5953
17959SOL     OW58332   0.118   7.668  10.497 -0.1993 -0.4440  0.1013
17959SOL    HW158333   0.211   7.691  10.505 -0.1101 -0.6322 -0.3792
17959SOL    HW258334   0.093   7.637  10.584 -0.2065  1.0437  0.6711
17960SOL     OW58335   2.203   0.341   9.172  0.6062 -0.0064 -0.4143
17960SOL    HW158336   2.286   0.307   9.137  0.9159  1.1401 -0.8438
17960SOL    HW258337   2.198   0.306   9.261  1.5329 -0.1296 -0.4005
17961SOL     OW58338   4.882  10.459   9.734  0.0807 -0.0320 -0.4777
17961SOL    HW158339   4.833  10.433   9.812  0.1136 -1.4879 -0.9185
17961SOL    HW258340   4.940  10.529   9.765 -0.2077 -0.2919  0.7033
17962SOL     OW58341   9.819   6.532   4.892 -0.8283  0.2423  0.1775
17962SOL    HW158342   9.737   6.580   4.886 -2.2356 -2.0169  0.1916
17962SOL    HW258343   9.858   6.541   4.805 -1.2869  0.9885  0.0401
17963SOL     OW58344  10.339   6.028   4.143 -0.2819 -0.0337 -0.2908
17963SOL    HW158345  10.264   5.983   4.106 -0.3100 -0.3200  0.1110
17963SOL    HW258346  10.400   5.959   4.167 -1.1992 -0.0557  2.2843
17964SOL     OW58347   1.545   4.408   0.289  0.0058 -0.6710 -0.1954
17964SOL    HW158348   1.552   4.318   0.257 -1.0010 -1.9195  2.7037
17964SOL    HW258349   1.590   4.406   0.374 -1.8519  0.9842  0.9030
17965SOL     OW58350   5.825   6.869   9.040 -0.1714  0.4212 -0.5384
17965SOL    HW158351   5.737   6.836   9.061  0.8242 -2.3349 -0.2902
17965SOL    HW258352   5.848   6.924   9.115 -1.4995  0.8364 -0.3989
17966SOL     OW58353   3.891   9.139  11.050  0.2128  0.4325 -0.0264
17966SOL    HW158354   3.974   9.141  11.003  0.0338  1.8103 -0.3307
17966SOL    HW258355   3.859   9.050  11.039  1.1385  0.1826 -0.8157
17967SOL     OW58356   8.734   5.958   5.613  0.5638  0.1638 -0.0581
17967SOL    HW158357   8.648   5.990   5.587  0.4404  0.0408  0.1872
17967SOL    HW258358   8.794   6.031   5.599  0.3739  0.3299  0.0037
17968SOL     OW58359   1.098   1.824   8.046  0.2117 -0.3090 -0.3646
17968SOL    HW158360   1.008   1.829   8.079 -0.2628 -2.4214 -1.2239
17968SOL    HW258361   1.152   1.821   8.125 -0.7094 -2.3040  0.2391
17969SOL     OW58362   1.708   8.887  10.300 -0.0746 -0.3276  0.3063
17969SOL    HW158363   1.692   8.841  10.382  0.1565  0.1685  0.6286
17969SOL    HW258364   1.660   8.969  10.308 -2.7180 -1.5437 -1.2994
17970SOL     OW58365   9.612   0.376   5.414  0.0534  0.6885  0.3550
17970SOL    HW158366   9.680   0.320   5.451 -1.1380  0.7547  2.8089
17970SOL    HW258367   9.655   0.460   5.402  1.1744 -0.0294 -0.9918
17971SOL     OW58368   6.306   6.510  10.768  0.1271 -0.6116  0.7469
17971SOL    HW158369   6.308   6.415  10.781  3.3764 -0.7537 -0.0405
17971SOL    HW258370   6.378   6.543  10.822 -1.3978  1.5705  1.6143
17972SOL     OW58371   9.192   6.854   6.831  0.5918  0.0414 -0.2054
17972SOL    HW158372   9.154   6.771   6.862 -0.3492  0.7372  0.5605
17972SOL    HW258373   9.118   6.904   6.799  0.9013  1.2428  0.8601
17973SOL     OW58374   3.130   6.830  10.786  0.3294 -0.0235  0.3090
17973SOL    HW158375   3.148   6.859  10.697 -2.6551  0.9258 -0.0737
17973SOL    HW258376   3.169   6.898  10.841  0.3130  0.5110 -0.3264
17974SOL     OW58377   2.967   5.690   0.534  0.0898 -0.0703  0.1015
17974SOL    HW158378   2.935   5.600   0.524  2.2650 -0.7856 -1.0850
17974SOL    HW258379   3.023   5.686   0.612  1.8245 -0.3147 -1.1000
17975SOL     OW58380   6.690   1.330   7.153 -0.2054  0.3670 -0.0642
17975SOL    HW158381   6.686   1.425   7.140  0.4716  0.0002 -4.0265
17975SOL    HW258382   6.612   1.296   7.109  1.2618 -1.0807 -1.6570
17976SOL     OW58383   0.188   7.805   0.822 -0.7443 -0.5736  0.0096
17976SOL    HW158384   0.149   7.891   0.802 -0.8192 -0.3854  0.9275
17976SOL    HW258385   0.173   7.753   0.743  1.5066  1.0069 -1.6009
17977SOL     OW58386  10.378   9.383   1.483 -0.3567 -0.1956 -0.2549
17977SOL    HW158387  10.293   9.424   1.472 -0.6690 -0.9521 -0.7168
17977SOL    HW258388  10.435   9.429   1.422 -1.2974 -2.0953 -2.7534
17978SOL     OW58389   1.721   9.495   3.243  0.3284  0.0369  0.4223
17978SOL    HW158390   1.644   9.532   3.285 -1.1805  0.4700 -2.4478
17978SOL    HW258391   1.721   9.403   3.271 -0.9154  0.1598  0.9042
17979SOL     OW58392   1.899   7.082   0.727 -0.3645 -1.0890 -0.3096
17979SOL    HW158393   1.961   7.154   0.743  0.8967 -1.6877 -2.1238
17979SOL    HW258394   1.893   7.037   0.811  0.0367  0.2198  0.4535
17980SOL     OW58395   5.434   0.756  10.888  0.5117  0.1213  0.5756
17980SOL    HW158396   5.522   0.725  10.866  0.5593  0.2084  0.6444
17980SOL    HW258397   5.435   0.769  10.983  0.6532  0.8335  0.4817
17981SOL     OW58398   1.448   3.256   9.208  0.1377  0.3606 -0.0366
17981SOL    HW158399   1.425   3.185   9.267 -0.9370  0.0293 -0.8375
17981SOL    HW258400   1.371   3.313   9.208  0.6603  1.0790 -0.0700
17982SOL     OW58401  10.673   4.451   2.751  0.0780  0.0757  0.2337
17982SOL    HW158402  10.596   4.441   2.695 -0.7673  0.1696  1.3323
17982SOL    HW258403  10.735   4.502   2.699 -0.6933  0.1910 -0.5918
17983SOL     OW58404   2.221   7.642   1.469 -0.0312  0.1503 -0.3033
17983SOL    HW158405   2.202   7.682   1.554  0.7352 -0.0609 -0.0198
17983SOL    HW258406   2.316   7.627   1.471 -0.5013 -3.4862  0.4135
17984SOL     OW58407   4.285  10.117   9.140 -0.1145  0.1648  0.0304
17984SOL    HW158408   4.198  10.089   9.110 -0.2720  0.8082 -0.1326
17984SOL    HW258409   4.342  10.106   9.064 -0.2797  0.7271 -0.1849
17985SOL     OW58410   7.476   2.007   8.357 -0.0320  0.3964 -0.3044
17985SOL    HW158411   7.553   2.036   8.405 -0.1402  0.3690 -0.1158
17985SOL    HW258412   7.461   2.076   8.292  1.8052 -0.8634 -2.2277
17986SOL     OW58413   0.972   5.421   5.077  0.4899  0.1820  0.2352
17986SOL    HW158414   1.007   5.423   4.988 -0.4279 -0.9587 -0.1751
17986SOL    HW258415   0.891   5.372   5.070  0.2600  0.3129  1.6646
17987SOL     OW58416   6.746   3.164   2.575 -0.2141 -0.3054 -0.1270
17987SOL    HW158417   6.823   3.163   2.632 -1.1044 -1.2862  1.1224
17987SOL    HW258418   6.702   3.082   2.594 -0.5653 -0.6540 -2.2644
17988SOL     OW58419   3.993  10.220   8.731 -0.0659  0.3170  0.0752
17988SOL    HW158420   3.927  10.271   8.683 -1.8383  0.8598  2.8421
17988SOL    HW258421   4.064  10.281   8.747 -0.4767  0.7917  0.1060
17989SOL     OW58422  10.502   5.626   0.290  0.2047  0.1942  0.2827
17989SOL    HW158423  10.586   5.594   0.322 -0.7283 -1.6430  1.0032
17989SOL    HW258424  10.496   5.595   0.199  0.2029  0.1355  0.3033
17990SOL     OW58425   7.202   6.823   8.293 -0.4601  0.2383 -0.2611
17990SOL    HW158426   7.182   6.857   8.206  2.2169  0.7558 -0.7617
17990SOL    HW258427   7.283   6.773   8.281  0.5385  1.1541  2.0862
17991SOL     OW58428   5.253   3.473   8.305  0.3652 -0.1042  0.6556
17991SOL    HW158429   5.263   3.442   8.396  2.1666  1.7886  1.1692
17991SOL    HW258430   5.322   3.539   8.294 -0.9765  1.0521 -1.5193
17992SOL     OW58431   4.853   1.250   3.004 -0.0576  0.1275 -0.6118
17992SOL    HW158432   4.932   1.243   3.058 -0.5854  0.2533  0.1976
17992SOL    HW258433   4.854   1.172   2.949 -1.0742 -1.6848  1.7706
17993SOL     OW58434   6.165   0.722   8.757 -0.2726 -0.2558 -0.1513
17993SOL    HW158435   6.257   0.742   8.777 -0.1053 -1.1988  0.0705
17993SOL    HW258436   6.149   0.638   8.800 -1.6319  0.5259  0.9518
17994SOL     OW58437   7.635   1.693   3.973  0.1072  0.3841  0.0790
17994SOL    HW158438   7.615   1.781   4.007  0.9138  0.0533  1.5381
17994SOL    HW258439   7.711   1.665   4.025 -0.0683 -1.1324 -0.4326
17995SOL     OW58440   9.134   0.334   3.307 -0.1257 -0.5252 -0.0076
17995SOL    HW158441   9.192   0.270   3.349  1.3046  0.4308 -0.4587
17995SOL    HW258442   9.192   0.388   3.254 -1.2718  1.2809  0.5091
17996SOL     OW58443   4.582   7.794   6.062  0.1996  0.1007  0.1604
17996SOL    HW158444   4.513   7.768   6.123 -1.5746  2.7232 -0.5545
17996SOL    HW258445   4.567   7.887   6.047  1.2533 -0.1361 -3.3547
17997SOL     OW58446   0.490   3.558   6.683 -0.1546  0.0232 -0.3475
17997SOL    HW158447   0.550   3.591   6.750  0.0186  1.5380 -1.2221
17997SOL    HW258448   0.532   3.477   6.652  0.9333  0.5303 -0.2535
17998SOL     OW58449   2.509   0.843   7.054  0.4217 -0.0071  0.1629
17998SOL    HW158450   2.422   0.830   7.092  0.7978 -0.0948  1.0237
17998SOL    HW258451   2.569   0.810   7.121  1.0780 -1.2406 -0.9725
17999SOL     OW58452   9.251   5.785   3.765  0.5298  0.0832 -0.4061
17999SOL    HW158453   9.297   5.865   3.741  0.9390  0.3603  1.1372
17999SOL    HW258454   9.301   5.715   3.723  1.5577  0.4955  0.0775
18000SOL     OW58455  10.889  10.608   1.854 -0.0246 -0.4430 -0.1302
18000SOL    HW158456  10.958  10.543   1.837  0.8978  0.6763 -0.8650
18000SOL    HW258457  10.831  10.566   1.918 -1.0129 -3.0656 -2.5460
18001SOL     OW58458   4.042   6.326   2.346 -0.4654  0.1983 -0.0578
18001SOL    HW158459   4.002   6.361   2.425 -1.8798 -1.0207 -0.1744
18001SOL    HW258460   4.122   6.283   2.376  0.0824  1.5056  0.3922
18002SOL     OW58461   5.390   1.030   3.209 -0.8658 -0.2271  0.2874
18002SOL    HW158462   5.359   1.104   3.157 -1.0936 -0.1498  0.5351
18002SOL    HW258463   5.396   0.958   3.145  0.0733  0.1806 -0.1125
18003SOL     OW58464   6.242   6.293   6.264  0.0689 -0.2478  0.4512
18003SOL    HW158465   6.171   6.342   6.305  0.8768  0.8916  0.5292
18003SOL    HW258466   6.272   6.233   6.332 -0.3976 -0.2864  0.6259
18004SOL     OW58467   1.467   0.804   6.818  0.7008 -0.4727  0.2335
18004SOL    HW158468   1.445   0.817   6.910 -1.5394  0.4344 -0.3700
18004SOL    HW258469   1.452   0.710   6.803  1.0066 -0.6113  0.7716
18005SOL     OW58470   8.934   1.855  10.812 -0.3044  0.1508 -0.5087
18005SOL    HW158471   9.025   1.884  10.809 -0.1094 -0.3917 -0.0317
18005SOL    HW258472   8.933   1.784  10.877 -0.9341 -0.3025 -0.9989
18006SOL     OW58473   7.946   0.073   9.706  0.2092 -0.0785  0.1930
18006SOL    HW158474   7.996   0.113   9.635  0.1745 -0.0052  0.2094
18006SOL    HW258475   7.969  -0.020   9.703 -1.0217 -0.3718 -0.9376
18007SOL     OW58476   6.979   4.379   8.133  0.1836 -0.0550 -0.7239
18007SOL    HW158477   6.968   4.409   8.042 -0.2461  0.1854 -0.5963
18007SOL    HW258478   6.972   4.284   8.127 -1.6617  0.0402 -0.7275
18008SOL     OW58479   8.078   8.952   1.906 -0.1518 -0.1170 -0.0912
18008SOL    HW158480   8.028   8.887   1.955 -2.4902  0.9643 -0.8710
18008SOL    HW258481   8.044   9.036   1.936  0.2302  0.6395 -1.6575
18009SOL     OW58482   8.244   2.463   5.100  0.4392 -0.1079 -0.1395
18009SOL    HW158483   8.152   2.438   5.090 -0.3190  2.3734 -0.1188
18009SOL    HW258484   8.275   2.478   5.011  0.0761  1.3489 -0.0445
18010SOL     OW58485   9.980   4.529   6.000 -0.2300 -0.8689  0.6223
18010SOL    HW158486   9.944   4.491   6.080  1.2844 -0.6500  1.4504
18010SOL    HW258487  10.050   4.468   5.974 -1.1195 -1.2796 -0.9179
18011SOL     OW58488   4.808   6.040   9.967 -0.3748  0.5000 -0.1914
18011SOL    HW158489   4.781   6.132   9.959 -0.1205  0.5574 -0.3765
18011SOL    HW258490   4.901   6.044   9.990 -0.3818  0.2913 -0.1284
18012SOL     OW58491   3.979   3.661   7.823 -0.3580 -0.2285 -0.0720
18012SOL    HW158492   4.002   3.711   7.901 -2.9815 -0.8614  1.2086
18012SOL    HW258493   4.008   3.572   7.842 -1.8065 -0.5784  0.6372
18013SOL     OW58494   8.076   3.571  10.681 -0.0276  0.2825 -0.4347
18013SOL    HW158495   8.056   3.619  10.761 -0.9157 -0.6476 -0.0710
18013SOL    HW258496   8.086   3.480  10.710 -1.1119 -0.1884 -1.4642
18014SOL     OW58497   7.197   9.186  10.368 -0.0927 -0.0472  0.0561
18014SOL    HW158498   7.214   9.145  10.453 -1.3164  0.4998  0.5823
18014SOL    HW258499   7.269   9.248  10.357 -1.3666  1.9404  2.0562
18015SOL     OW58500   1.063   4.711  10.806  0.0601  0.1566  0.4582
18015SOL    HW158501   1.101   4.732  10.721 -0.1007  0.8935  0.5625
18015SOL    HW258502   1.123   4.749  10.870 -1.3897  2.3984  0.6097
18016SOL     OW58503   4.391   2.931   2.335 -0.1002  0.2176 -0.1131
18016SOL    HW158504   4.436   2.846   2.333  1.6607  1.1061 -0.0227
18016SOL    HW258505   4.413   2.968   2.421  0.5202  1.4523 -0.7798
18017SOL     OW58506  10.908   5.670   4.877 -0.2943  0.6075 -0.4985
18017SOL    HW158507  10.966   5.611   4.925 -0.0464  0.7738 -0.5887
18017SOL    HW258508  10.933   5.758   4.908  1.3822  0.9055 -2.4806
18018SOL     OW58509   5.025   4.966   8.804  0.0295 -0.2967  0.0255
18018SOL    HW158510   5.024   4.881   8.848 -0.6416  0.3177  1.2647
18018SOL    HW258511   5.058   5.027   8.870  0.4210  0.4353 -0.8157
18019SOL     OW58512   6.245   6.092   1.466 -0.4012 -0.7222 -0.1172
18019SOL    HW158513   6.301   6.027   1.509  3.0699  0.9868 -1.6599
18019SOL    HW258514   6.267   6.084   1.373  0.6648  2.9508 -0.3161
18020SOL     OW58515  10.656   3.023   5.184 -0.1039 -0.4377  0.0956
18020SOL    HW158516  10.601   3.011   5.107  0.7661  1.1433 -0.8248
18020SOL    HW258517  10.695   2.936   5.199 -1.4350 -1.1256 -0.3132
18021SOL     OW58518   7.689   4.996   9.932 -0.2886 -0.6817  0.0768
18021SOL    HW158519   7.661   4.936   9.863 -1.0729  1.1095 -1.2638
18021SOL    HW258520   7.782   4.980   9.943 -0.3967 -1.8090 -0.5541
18022SOL     OW58521   7.572   0.289   3.562  0.2181  0.3930 -0.3657
18022SOL    HW158522   7.571   0.204   3.519  1.4496  0.1828 -0.0318
18022SOL    HW258523   7.559   0.269   3.655 -0.3175  0.6561 -0.3783
18023SOL     OW58524  10.354   2.430   0.596  0.3306  0.4535  0.0274
18023SOL    HW158525  10.445   2.420   0.566 -0.0482  0.6024 -1.2089
18023SOL    HW258526  10.360   2.426   0.691  1.6977  0.9381 -0.0179
18024SOL     OW58527   8.060   5.016   2.107  0.0349 -0.5823  0.2059
18024SOL    HW158528   8.029   4.971   2.028  2.4423 -0.6320 -0.7808
18024SOL    HW258529   8.108   4.948   2.155  0.6194  0.0537  0.5260
18025SOL     OW58530   6.151   5.617   0.110 -0.3749  0.0774  0.1831
18025SOL    HW158531   6.223   5.610   0.048 -0.6915 -0.5013 -0.1331
18025SOL    HW258532   6.183   5.571   0.188  0.0174  0.7939  0.4577
18026SOL     OW58533   3.519   1.741   2.984  0.2982  0.0045 -0.5251
18026SOL    HW158534   3.574   1.800   2.932  1.4091  0.9002  1.5126
18026SOL    HW258535   3.430   1.777   2.975  0.3762 -0.1398 -2.0991
18027SOL     OW58536   6.443   9.698   5.159 -0.4954  0.3840  0.5393
18027SOL    HW158537   6.505   9.716   5.230  0.8903 -2.8606  0.3337
18027SOL    HW258538   6.481   9.743   5.083  0.5781  0.0351  0.8446
18028SOL     OW58539   2.700   5.356   2.206 -0.1309 -0.0163 -0.0393
18028SOL    HW158540   2.739   5.353   2.119  0.5753 -0.5538  0.2871
18028SOL    HW258541   2.608   5.330   2.191 -0.3880  1.2615 -0.8022
18029SOL     OW58542   0.414   0.382   8.945  0.6923 -0.0318  0.2270
18029SOL    HW158543   0.405   0.431   9.026  0.0353  0.4282 -0.1170
18029SOL    HW258544   0.352   0.423   8.885  0.9108 -0.5967 -0.3977
18030SOL     OW58545   8.273   9.235   5.261 -0.2569  0.3952 -0.1023
18030SOL    HW158546   8.211   9.306   5.244  1.0520  1.7413  0.4771
18030SOL    HW258547   8.344   9.249   5.198 -0.5389 -1.1607 -0.8091
18031SOL     OW58548   6.010  10.506   3.290  0.2224 -0.0550 -0.3153
18031SOL    HW158549   5.952  10.469   3.357  1.1291 -1.3669 -0.2008
18031SOL    HW258550   6.098  10.496   3.326  0.6285  0.4810 -1.1239
18032SOL     OW58551   9.036   8.913   9.442  0.5848 -0.5352  1.0427
18032SOL    HW158552   9.110   8.853   9.434  1.2234  0.4573 -1.8478
18032SOL    HW258553   8.981   8.894   9.366 -0.0290  1.4343  0.9394
18033SOL     OW58554   3.084   4.513   1.649  0.4251  0.5113  0.9341
18033SOL    HW158555   3.029   4.492   1.573 -0.3390  0.9867  1.3500
18033SOL    HW258556   3.025   4.506   1.724  1.1764  0.0493  1.4932
18034SOL     OW58557   3.175   9.210   0.883 -0.2098  0.4194 -0.2127
18034SOL    HW158558   3.229   9.139   0.847 -2.4775  0.3106 -3.8699
18034SOL    HW258559   3.217   9.290   0.852 -0.4486  0.4590 -0.4337
18035SOL     OW58560   2.343   8.058   3.947  0.1269  0.0205  0.0642
18035SOL    HW158561   2.391   8.139   3.966 -0.4119 -0.2151  2.8759
18035SOL    HW258562   2.340   8.054   3.852  2.3276  2.0089 -0.1827
18036SOL     OW58563   4.025   3.069   9.866  0.2639 -0.1358 -0.8334
18036SOL    HW158564   4.052   3.097   9.779  3.1759 -0.4391 -0.1249
18036SOL    HW258565   4.078   3.120   9.927 -1.1778 -0.4324  0.7840
18037SOL     OW58566   9.314   9.810  10.172  0.4740  0.5841 -0.1591
18037SOL    HW158567   9.264   9.858  10.239 -0.4205 -0.2529 -0.2137
18037SOL    HW258568   9.377   9.874  10.140  1.3741  0.8170  1.9458
18038SOL     OW58569   4.431  10.001   6.907  0.5651 -0.2594 -0.0101
18038SOL    HW158570   4.512  10.048   6.890  0.7874 -0.8958 -0.7404
18038SOL    HW258571   4.407   9.962   6.823 -0.9795  0.6481 -0.0308
18039SOL     OW58572   5.548   5.224   4.442 -0.5531 -0.2513 -0.0980
18039SOL    HW158573   5.517   5.285   4.375 -0.1863 -0.4077 -0.4123
18039SOL    HW258574   5.574   5.146   4.393 -0.2625 -0.3577  0.2245
18040SOL     OW58575  10.714   5.561   8.216 -0.4488 -0.0869  0.5039
18040SOL    HW158576  10.632   5.513   8.203 -0.9107  1.1296 -1.4909
18040SOL    HW258577  10.687   5.652   8.225  0.5744  0.1068  1.7695
18041SOL     OW58578   5.906   6.356   0.570  0.1787  0.1884  0.7437
18041SOL    HW158579   5.935   6.270   0.539  2.0243  0.4463  1.5731
18041SOL    HW258580   5.962   6.418   0.522 -0.7721  0.8987  0.5396
18042SOL     OW58581   5.060   0.192   7.738 -0.2315  0.1435  0.4346
18042SOL    HW158582   5.077   0.245   7.660 -1.8051  1.2681  0.8304
18042SOL    HW258583   5.143   0.195   7.787 -0.6492  3.4695  1.1612
18043SOL     OW58584   8.102   8.213  10.268  0.2016 -0.0828 -0.0143
18043SOL    HW158585   8.194   8.199  10.244  0.3395  0.7527 -0.0219
18043SOL    HW258586   8.063   8.253  10.190  0.0774  0.4586  0.3169
18044SOL     OW58587   9.612   7.587   8.514 -0.3944 -0.1369  0.3471
18044SOL    HW158588   9.637   7.517   8.453 -1.8213  0.0764 -0.5284
18044SOL    HW258589   9.546   7.547   8.571 -2.3363  0.8119 -1.1020
18045SOL     OW58590   2.741  10.555   3.367 -0.1028  0.3514 -0.4705
18045SOL    HW158591   2.832  10.581   3.360 -0.1012  0.4920  0.0283
18045SOL    HW258592   2.743  10.469   3.410 -0.2406  0.7166  0.2826
18046SOL     OW58593   3.857   7.150   3.506 -0.4632 -0.3006  0.0228
18046SOL    HW158594   3.783   7.173   3.451  1.1616  1.2714 -1.6512
18046SOL    HW258595   3.854   7.213   3.578 -0.0613  0.5937 -0.7263
18047SOL     OW58596   6.136   8.006  10.439 -0.3455 -0.6739 -0.1791
18047SOL    HW158597   6.082   7.978  10.366 -0.0197  0.8748 -1.0563
18047SOL    HW258598   6.222   8.022  10.401 -0.2329  0.3767  0.4829
18048SOL     OW58599   2.061   4.977   6.042 -0.5050 -0.4379 -0.0845
18048SOL    HW158600   2.046   5.039   5.971  0.4654  0.0776  0.1490
18048SOL    HW258601   1.995   4.909   6.029 -0.6165 -0.1223 -1.2116
18049SOL     OW58602   9.334   1.207   9.580  0.3057 -0.3573  0.2400
18049SOL    HW158603   9.242   1.234   9.581  0.2021 -0.6484 -0.7282
18049SOL    HW258604   9.333   1.120   9.539  0.9839 -0.4933  0.5001
18050SOL     OW58605   5.657   8.584   4.043 -0.0710  0.3486  0.1800
18050SOL    HW158606   5.698   8.665   4.014 -0.7437  0.2717 -1.0537
18050SOL    HW258607   5.649   8.594   4.138  1.6473  0.8745  0.2994
18051SOL     OW58608   8.623   7.943   0.796 -0.2628  0.0712  0.2225
18051SOL    HW158609   8.667   7.956   0.711  0.2566 -2.8232 -0.0683
18051SOL    HW258610   8.560   8.015   0.802  0.1607  0.7503 -2.3112
18052SOL     OW58611  10.139  10.007   5.702  0.0052 -0.5079 -0.3371
18052SOL    HW158612  10.216  10.050   5.666 -1.0023  0.2789 -1.6517
18052SOL    HW258613  10.071  10.075   5.702 -0.9000 -1.3865  0.0260
18053SOL     OW58614   1.566  10.268   4.208 -0.0508  0.5340  0.1749
18053SOL    HW158615   1.541  10.186   4.166 -0.5081 -0.2878  1.9712
18053SOL    HW258616   1.540  10.336   4.145  0.7522 -0.6738 -1.5474
18054SOL     OW58617  10.002   7.151   5.147 -0.6443  0.2726  0.0611
18054SOL    HW158618  10.070   7.188   5.203 -0.9034  1.4311 -0.3682
18054SOL    HW258619   9.933   7.125   5.208 -1.5186  2.7816  0.2552
18055SOL     OW58620   4.189   7.575   4.938  0.1528  0.6939  0.2343
18055SOL    HW158621   4.158   7.654   4.983 -0.5549  0.1416  0.7411
18055SOL    HW258622   4.228   7.522   5.007  0.4806  0.5309 -0.0744
18056SOL     OW58623   5.339   0.252   2.323 -0.2243  0.1959  0.2265
18056SOL    HW158624   5.308   0.339   2.298  1.0009  0.9196  1.1053
18056SOL    HW258625   5.410   0.269   2.385  1.4702 -1.3583 -1.1422
18057SOL     OW58626   5.129   2.301   4.189 -0.4060 -0.5177 -0.7839
18057SOL    HW158627   5.220   2.290   4.161 -0.2126  0.4113 -0.5410
18057SOL    HW258628   5.134   2.312   4.284 -0.9297 -2.1133 -0.5265
18058SOL     OW58629   3.140   0.973   7.100  0.2125  0.4420 -0.7577
18058SOL    HW158630   3.113   0.976   7.008  0.9279  0.8252 -0.9645
18058SOL    HW258631   3.133   0.881   7.124  1.3602  0.1094 -1.6221
18059SOL     OW58632   5.270   9.648   2.759  0.7020  0.0516 -0.6616
18059SOL    HW158633   5.240   9.559   2.773 -0.5624  0.3343 -1.3615
18059SOL    HW258634   5.209   9.684   2.693  0.1962  1.9170  0.7200
18060SOL     OW58635   7.773  10.715   6.843  0.1909 -0.1157 -0.5136
18060SOL    HW158636   7.816  10.662   6.910 -2.4621 -2.0286 -0.1470
18060SOL    HW258637   7.827  10.705   6.765  2.0887  0.2533  0.7013
18061SOL     OW58638  10.186   3.338   5.713  0.2310  0.5308 -0.3856
18061SOL    HW158639  10.145   3.259   5.749 -1.2381  1.4229 -0.0232
18061SOL    HW258640  10.166   3.406   5.777  1.3125  1.2535 -0.7935
18062SOL     OW58641   2.431   1.710   6.709  0.1989  0.2115  0.0938
18062SOL    HW158642   2.358   1.658   6.744 -0.7928 -0.1907 -2.3727
18062SOL    HW258643   2.495   1.645   6.680  0.0893  0.4483 -0.6922
18063SOL     OW58644   3.747   8.946   8.464  0.7240  0.2222 -0.1941
18063SOL    HW158645   3.656   8.925   8.443  0.3743  0.6197  0.8434
18063SOL    HW258646   3.786   8.862   8.490  0.8606 -0.0721 -1.2955
18064SOL     OW58647   9.699   8.874  10.258  0.0348 -0.1653  0.8321
18064SOL    HW158648   9.635   8.861  10.189  1.2104 -2.0822  0.0247
18064SOL    HW258649   9.691   8.796  10.313  1.6105 -0.4210  0.7396
18065SOL     OW58650   2.046   0.817   9.987 -0.1544 -0.1277  0.0974
18065SOL    HW158651   2.028   0.724  10.003 -0.5384 -0.3371 -1.4108
18065SOL    HW258652   2.095   0.818   9.904  0.5298  0.9706  0.4905
18066SOL     OW58653  10.399   4.179   6.854 -0.5963  0.3000  0.1618
18066SOL    HW158654  10.484   4.158   6.814 -1.0113 -0.3488 -0.4030
18066SOL    HW258655  10.420   4.239   6.925  0.2011  1.3428 -0.9027
18067SOL     OW58656   7.737   0.651   5.998  0.6904  0.1169 -0.4408
18067SOL    HW158657   7.750   0.688   5.911  1.5787 -0.4992 -0.5794
18067SOL    HW258658   7.815   0.598   6.015 -0.1049 -0.9357  0.1338
18068SOL     OW58659   8.362   3.848   7.784 -0.5823 -0.0703  0.7817
18068SOL    HW158660   8.283   3.898   7.764 -0.2284  1.1210  2.1652
18068SOL    HW258661   8.430   3.887   7.730 -0.5707  0.1205  0.9333
18069SOL     OW58662   2.745  10.549   4.124 -0.0515  0.3751  0.0730
18069SOL    HW158663   2.761  10.635   4.163  2.8195  0.1479 -0.4270
18069SOL    HW258664   2.724  10.493   4.199  1.0270  0.8986  0.7947
18070SOL     OW58665   8.914   3.708   6.243  0.1528 -0.3530  0.1230
18070SOL    HW158666   9.005   3.680   6.248  0.3138 -0.1245 -1.1572
18070SOL    HW258667   8.918   3.803   6.247 -0.1105 -0.3704  0.9534
18071SOL     OW58668   8.824   6.654   7.077  0.2742  0.1420 -0.1057
18071SOL    HW158669   8.799   6.563   7.091  0.0805  0.0732 -0.8919
18071SOL    HW258670   8.917   6.652   7.059  0.3459  0.1435  0.2447
18072SOL     OW58671   6.753   3.298   5.693 -0.0258 -0.3407  0.7378
18072SOL    HW158672   6.669   3.331   5.661  0.5599  0.5591  0.0859
18072SOL    HW258673   6.771   3.350   5.771 -0.8864 -1.7320  1.9212
18073SOL     OW58674   4.480   6.554   5.131 -0.6681 -0.5598 -0.2852
18073SOL    HW158675   4.473   6.507   5.214  0.0466  1.0009  0.7180
18073SOL    HW258676   4.413   6.622   5.136  0.1184  0.2457 -0.4796
18074SOL     OW58677   6.786   2.199   0.272 -0.3848 -0.2469  0.4093
18074SOL    HW158678   6.737   2.139   0.216 -0.7727  0.3989  0.0412
18074SOL    HW258679   6.760   2.287   0.242  2.4565  0.1898 -1.1387
18075SOL     OW58680   9.110   3.758   3.336  0.5212  0.3917  0.4357
18075SOL    HW158681   9.069   3.696   3.396  1.0564  0.0953  0.5035
18075SOL    HW258682   9.185   3.791   3.384  0.8018  0.3467  0.0285
18076SOL     OW58683   2.994   1.874  10.258  0.0753 -0.2375 -0.4875
18076SOL    HW158684   3.026   1.789  10.286 -1.3602 -0.0214  2.0791
18076SOL    HW258685   2.913   1.855  10.211  0.1756 -0.3174 -0.6298
18077SOL     OW58686   2.139  10.567   7.011  0.0554 -0.5191  0.3825
18077SOL    HW158687   2.227  10.536   6.987  0.8271 -0.4525  2.8572
18077SOL    HW258688   2.141  10.660   6.991  0.8662 -0.3496  1.1589
18078SOL     OW58689  10.580   9.915   7.760 -0.2356  0.3009 -0.1653
18078SOL    HW158690  10.567   9.922   7.854 -1.9922 -0.7292 -0.2860
18078SOL    HW258691  10.646   9.847   7.749  0.4912  0.9155  0.3219
18079SOL     OW58692   5.052   1.471   3.247 -0.6896  0.6573  0.0125
18079SOL    HW158693   5.118   1.460   3.179  1.8789  0.7612  2.2876
18079SOL    HW258694   5.026   1.382   3.270  0.8288  0.4190  0.9675
18080SOL     OW58695  10.990   0.898   6.559  0.2136  0.0381 -0.0509
18080SOL    HW158696  10.906   0.852   6.562  0.5627 -0.6338 -0.2890
18080SOL    HW258697  11.039   0.864   6.634 -0.0652  1.1162  0.6352
18081SOL     OW58698  10.434   5.491   1.404 -0.1807  0.6239 -0.4367
18081SOL    HW158699  10.376   5.457   1.336 -1.6481  0.8552  0.6377
18081SOL    HW258700  10.500   5.423   1.416 -0.6802  0.0026 -1.1721
18082SOL     OW58701   5.177   6.445   2.256  0.2607  0.2258  0.4932
18082SOL    HW158702   5.194   6.397   2.336  2.0178 -3.8792 -2.0170
18082SOL    HW258703   5.092   6.413   2.226  1.9473 -2.5766 -1.7828
18083SOL     OW58704  10.753   3.812   3.979  0.5392 -0.1766 -0.3110
18083SOL    HW158705  10.782   3.902   3.971  2.1110 -0.4060  1.8111
18083SOL    HW258706  10.814   3.762   3.924 -0.5510  0.0558 -1.7679
18084SOL     OW58707   7.535  10.369   9.875  0.7199  0.0267  0.2183
18084SOL    HW158708   7.564  10.278   9.883  0.0983 -0.0693  1.5627
18084SOL    HW258709   7.595  10.407   9.811 -0.2312 -1.8341 -1.9249
18085SOL     OW58710  10.188   6.705   7.780 -0.3299  0.3250  1.0495
18085SOL    HW158711  10.120   6.771   7.769  0.2915  0.9327  0.7881
18085SOL    HW258712  10.252   6.725   7.712 -0.1715 -0.5928  0.9263
18086SOL     OW58713   5.267   2.233   7.910  0.2584  0.1733  0.3595
18086SOL    HW158714   5.345   2.274   7.946  1.1902 -1.5815  0.4492
18086SOL    HW258715   5.294   2.201   7.824 -0.1376 -1.0734  0.6819
18087SOL     OW58716   7.237   1.699   4.613  0.1784 -0.2610 -0.5859
18087SOL    HW158717   7.182   1.644   4.557 -0.5811  0.9212 -1.0510
18087SOL    HW258718   7.301   1.737   4.553  0.2834 -0.1304 -0.3920
18088SOL     OW58719   0.983   3.157   6.851  0.0301  0.5319  0.0908
18088SOL    HW158720   0.889   3.172   6.860 -0.2156 -0.3675 -0.8147
18088SOL    HW258721   0.993   3.117   6.765  0.7366 -3.0925  1.6740
18089SOL     OW58722   1.596   5.983   3.952  0.8598  0.1358  0.3416
18089SOL    HW158723   1.679   5.954   3.991  1.6472  1.6601 -0.1083
18089SOL    HW258724   1.622   6.043   3.882 -0.5926 -0.8712 -1.1228
18090SOL     OW58725  10.309   2.308   5.959 -0.0266  0.0439  0.2507
18090SOL    HW158726  10.220   2.293   5.928  0.3770 -0.7528 -0.5729
18090SOL    HW258727  10.360   2.236   5.921  0.7278 -0.2688  1.7902
18091SOL     OW58728   0.458   6.653   4.022  0.1222 -0.4085 -0.4981
18091SOL    HW158729   0.428   6.736   3.984 -1.8068 -1.1239 -0.6330
18091SOL    HW258730   0.401   6.586   3.983  0.1122 -1.5306  1.3136
18092SOL     OW58731   0.064   2.874   9.167 -0.2901 -0.1849 -0.2316
18092SOL    HW158732   0.026   2.923   9.094 -1.0263 -1.1239 -0.4977
18092SOL    HW258733  -0.007   2.863   9.229 -0.6379 -2.3169 -0.9204
18093SOL     OW58734   3.833   3.705   3.107  0.0695  0.0502 -0.5030
18093SOL    HW158735   3.921   3.668   3.116 -0.4897 -1.1634  0.4339
18093SOL    HW258736   3.846   3.790   3.066  1.7239  0.1145  0.0876
18094SOL     OW58737   5.533   2.503   3.134  0.2967  0.6878 -0.1812
18094SOL    HW158738   5.597   2.435   3.117 -0.3209  0.6643 -2.8111
18094SOL    HW258739   5.478   2.468   3.205 -0.9917 -2.3571 -2.4554
18095SOL     OW58740   4.927   2.341   5.792  0.5477  0.4434 -0.2499
18095SOL    HW158741   4.881   2.425   5.793  0.9840  0.7010  1.0649
18095SOL    HW258742   5.017   2.363   5.771  0.8581  0.4454  0.9976
18096SOL     OW58743   9.272   3.697   2.264 -0.1564 -0.3207 -0.1457
18096SOL    HW158744   9.249   3.646   2.187 -0.1905 -1.8838  0.8623
18096SOL    HW258745   9.348   3.653   2.301 -0.8087 -0.2791  1.3351
18097SOL     OW58746   0.372   1.280   3.990 -0.0933 -0.2761 -0.1457
18097SOL    HW158747   0.433   1.347   4.022 -0.5809 -0.9402  2.4132
18097SOL    HW258748   0.416   1.197   4.008 -1.1754 -0.7254  0.5035
18098SOL     OW58749   8.357   8.831  10.978  0.7474  0.4734 -0.0071
18098SOL    HW158750   8.422   8.898  10.998 -0.1343  1.3008  0.1984
18098SOL    HW258751   8.332   8.848  10.887 -0.3570  1.2374  0.4066
18099SOL     OW58752   7.569   4.004   5.105  0.2984  0.1900 -0.0604
18099SOL    HW158753   7.627   4.079   5.093  0.9026  0.2038  2.4212
18099SOL    HW258754   7.627   3.928   5.107 -0.0908 -0.1258 -0.4439
18100SOL     OW58755   3.373   0.027   2.679 -0.2960 -0.2061 -0.7605
18100SOL    HW158756   3.362  -0.046   2.740  2.2044  0.1842  0.2755
18100SOL    HW258757   3.435  -0.004   2.614  0.2586  0.7566 -0.7049
18101SOL     OW58758   2.785   8.892   6.183 -0.1735 -0.3870  0.6560
18101SOL    HW158759   2.819   8.803   6.179  0.3107 -0.1603 -1.1665
18101SOL    HW258760   2.849   8.944   6.134  0.6574  1.3570  3.3955
18102SOL     OW58761   4.063   5.385   4.132 -0.0730  0.2025  0.3584
18102SOL    HW158762   4.080   5.352   4.220  0.5535 -0.4564  0.0023
18102SOL    HW258763   4.041   5.307   4.081  1.6107  0.2901 -0.5464
18103SOL     OW58764   4.375   1.481   0.725 -0.2501 -0.3903 -0.5390
18103SOL    HW158765   4.321   1.402   0.732  0.6381 -0.8827  1.3941
18103SOL    HW258766   4.347   1.537   0.797  0.3107  0.3102 -0.8512
18104SOL     OW58767   0.199   6.478   4.008 -0.1974 -0.3639 -0.3605
18104SOL    HW158768   0.206   6.413   4.078  3.1834 -0.6925 -0.8333
18104SOL    HW258769   0.212   6.428   3.927  1.1789  0.6618 -0.8171
18105SOL     OW58770  10.903   5.648   0.687  0.1108  0.3144 -0.1763
18105SOL    HW158771  10.936   5.658   0.597  2.0138 -1.0146  0.3028
18105SOL    HW258772  10.962   5.584   0.726  0.1216  1.7832  2.4174
18106SOL     OW58773   5.079   1.406   6.470  0.6450  0.2904  0.0339
18106SOL    HW158774   5.168   1.374   6.484  0.1796 -0.5327  1.2905
18106SOL    HW258775   5.074   1.485   6.525  0.3981 -0.0428  0.4937
18107SOL     OW58776   1.381   5.422   2.513  0.0347  0.0617  0.2872
18107SOL    HW158777   1.383   5.470   2.597  1.0697  0.5421  0.0007
18107SOL    HW258778   1.334   5.481   2.454  0.3303  0.2361  0.2252
18108SOL     OW58779   3.416   4.746   4.363  0.3642  0.0807 -0.2056
18108SOL    HW158780   3.454   4.797   4.292  0.8099 -0.9269 -0.7198
18108SOL    HW258781   3.471   4.667   4.367 -0.2629 -0.3271  0.5956
18109SOL     OW58782   3.373   5.793   4.726  0.1945  0.2522 -0.1408
18109SOL    HW158783   3.278   5.793   4.715 -0.0082 -0.8058  1.3045
18109SOL    HW258784   3.389   5.727   4.793  2.1564 -1.3514 -2.0348
18110SOL     OW58785   6.475   6.930   3.097 -0.2964 -0.0451  0.0816
18110SOL    HW158786   6.436   6.963   3.178  0.5396  2.4054 -0.4587
18110SOL    HW258787   6.562   6.899   3.124  0.1501  1.1655  0.0798
18111SOL     OW58788   7.874   4.639   0.171  0.1098  0.2909  0.4394
18111SOL    HW158789   7.867   4.571   0.238 -1.2538  0.3353  0.3814
18111SOL    HW258790   7.792   4.632   0.122  2.2210 -1.7189 -3.1888
18112SOL     OW58791   6.392   1.674   6.181  0.2670  0.0509  0.4030
18112SOL    HW158792   6.352   1.733   6.117 -2.7686 -0.3431  1.8090
18112SOL    HW258793   6.436   1.733   6.243 -2.3549  0.9589  1.5531
18113SOL     OW58794  10.924   9.705  10.211  0.6178  0.3072 -0.0054
18113SOL    HW158795  10.894   9.675  10.297  1.1011  0.2604  0.1506
18113SOL    HW258796  10.879   9.789  10.198  2.0829  1.3392  1.2181
18114SOL     OW58797   9.714   2.208   0.307 -0.0278 -0.2176  0.4307
18114SOL    HW158798   9.626   2.233   0.278 -0.9134 -2.9649  0.4954
18114SOL    HW258799   9.769   2.283   0.283 -2.2404  1.3164 -0.1934
18115SOL     OW58800   6.640   3.729   7.790 -0.3208 -0.0869 -0.2615
18115SOL    HW158801   6.638   3.796   7.722 -0.2944  0.9028  0.6705
18115SOL    HW258802   6.608   3.775   7.868 -2.1967 -1.6718 -0.0251
18116SOL     OW58803   1.454   3.137   6.075  0.1492 -0.2745  0.4452
18116SOL    HW158804   1.517   3.119   6.145  1.0629 -1.7758 -0.6772
18116SOL    HW258805   1.506   3.180   6.007 -0.8842  1.8329  0.9273
18117SOL     OW58806   5.356   2.455   7.147 -0.3549  0.2326  0.3478
18117SOL    HW158807   5.404   2.511   7.086  1.2310  0.1934  1.4942
18117SOL    HW258808   5.381   2.366   7.122  0.2390  0.2143  0.9716
18118SOL     OW58809   8.315   8.234   8.566  0.1710 -0.1568 -0.0429
18118SOL    HW158810   8.365   8.152   8.564 -1.8071 -1.5526  2.4127
18118SOL    HW258811   8.232   8.212   8.524  0.9270  1.7295 -2.7703
18119SOL     OW58812   1.095   2.226   4.975 -0.2181  0.2884 -0.0225
18119SOL    HW158813   1.057   2.200   5.060 -2.4615 -0.4603 -1.1673
18119SOL    HW258814   1.066   2.157   4.915  0.6659  1.2227 -1.5512
18120SOL     OW58815   8.344   1.147   7.810 -0.3403 -0.0426  0.0959
18120SOL    HW158816   8.258   1.131   7.848 -0.4650 -0.0692 -0.1963
18120SOL    HW258817   8.375   1.227   7.853 -1.9953  1.9984 -2.2657
18121SOL     OW58818   7.623   6.775   5.835  0.4989 -0.0130 -0.2866
18121SOL    HW158819   7.613   6.710   5.766  1.0044 -1.1951  0.7086
18121SOL    HW258820   7.714   6.766   5.863  0.6923  1.4179 -0.3909
18122SOL     OW58821   3.338   3.358   4.303 -0.3382  0.7619  0.3238
18122SOL    HW158822   3.378   3.291   4.247  0.8491 -0.9999  3.0752
18122SOL    HW258823   3.257   3.318   4.335  0.3252  0.6125  1.9087
18123SOL     OW58824   9.759   3.861   5.943  0.8199  0.2175 -0.0970
18123SOL    HW158825   9.796   3.773   5.939  0.0831 -0.0904 -0.3579
18123SOL    HW258826   9.834   3.918   5.956  1.2940 -0.4620  0.2166
18124SOL     OW58827   5.778   9.335   2.691  0.3385  0.2914  0.2200
18124SOL    HW158828   5.828   9.355   2.612 -2.1361 -0.6451 -1.6915
18124SOL    HW258829   5.802   9.245   2.713  0.6475  0.3801  0.2483
18125SOL     OW58830   2.030  10.876   1.825  0.5923  0.1648  0.7883
18125SOL    HW158831   2.015  10.792   1.782 -1.4706  1.7254 -1.8301
18125SOL    HW258832   1.984  10.868   1.909  0.3333 -1.2561  0.5435
18126SOL     OW58833   2.285   3.888   3.631  0.5645  0.3603 -0.4584
18126SOL    HW158834   2.218   3.952   3.655  0.6192  0.6550 -1.0597
18126SOL    HW258835   2.262   3.810   3.680 -1.0326  0.0074 -1.6586
18127SOL     OW58836   4.671   2.841   1.202 -0.1401  0.5528  0.3376
18127SOL    HW158837   4.585   2.879   1.183  0.3128  1.6850  0.4680
18127SOL    HW258838   4.652   2.755   1.240 -1.2489  1.1572  1.2090
18128SOL     OW58839   3.871  10.605   9.684 -0.4059  0.0897  0.3250
18128SOL    HW158840   3.880  10.519   9.725  1.7642  0.2637  0.3353
18128SOL    HW258841   3.792  10.598   9.631 -1.1765 -1.3690  1.5991
18129SOL     OW58842   8.887   2.769   2.502 -0.0209  0.3192  0.2100
18129SOL    HW158843   8.973   2.775   2.459  0.4058 -0.2065  0.9739
18129SOL    HW258844   8.888   2.685   2.547 -0.4712  0.8476  1.2333
18130SOL     OW58845   5.012   6.869   6.797  0.1272 -0.0375  0.1374
18130SOL    HW158846   5.095   6.916   6.788  0.5717 -0.9356 -0.6637
18130SOL    HW258847   4.971   6.907   6.875  0.2566  1.9843 -0.7067
18131SOL     OW58848   1.260   2.998  10.072  0.4028  0.1902  0.3900
18131SOL    HW158849   1.282   2.951   9.991 -0.2141 -1.2751  1.0405
18131SOL    HW258850   1.309   3.080  10.065  1.9034 -0.7177 -0.6016
18132SOL     OW58851   2.434  10.501   5.934  0.2868  0.6468  0.5972
18132SOL    HW158852   2.412  10.489   5.842 -0.7618  1.5008  0.7255
18132SOL    HW258853   2.474  10.587   5.939  0.7984  0.4010  0.8753
18133SOL     OW58854   1.832   1.234   2.895 -0.1415 -0.2956 -0.1511
18133SOL    HW158855   1.830   1.319   2.938 -0.7033  0.2119 -1.1415
18133SOL    HW258856   1.922   1.203   2.907  0.0998  0.4857  0.1202
18134SOL     OW58857   6.102  11.055   3.767 -0.5365 -0.5100 -0.4107
18134SOL    HW158858   6.031  11.117   3.750  0.6051  0.0481 -4.3890
18134SOL    HW258859   6.181  11.109   3.770  0.1842 -1.4895 -1.0074
18135SOL     OW58860   0.363   9.939   9.168  0.1305  0.5673 -0.0914
18135SOL    HW158861   0.376   9.863   9.110 -2.5672 -0.1565  0.1073
18135SOL    HW258862   0.357   9.901   9.256 -0.4579  1.0824  0.0967
18136SOL     OW58863   5.402   5.310   1.479  0.1853  0.0184  0.4959
18136SOL    HW158864   5.484   5.261   1.468  0.0800 -0.4585  1.6853
18136SOL    HW258865   5.411   5.351   1.565 -0.6502  0.3051  0.4499
18137SOL     OW58866   4.560   3.759   3.355  0.0692 -0.0011  0.0111
18137SOL    HW158867   4.602   3.763   3.441 -1.9678  1.5233  1.0262
18137SOL    HW258868   4.510   3.841   3.349 -4.0395 -2.2603 -0.3225
18138SOL     OW58869   8.389   0.741   4.209 -0.0854 -0.4368  0.6686
18138SOL    HW158870   8.297   0.737   4.234  0.1751 -0.0815  1.7114
18138SOL    HW258871   8.399   0.824   4.163 -0.4269 -0.7954 -0.0681
18139SOL     OW58872   9.421   0.003   3.666  0.0787  0.5007  0.5319
18139SOL    HW158873   9.455   0.011   3.755 -0.4924  2.6883  0.6186
18139SOL    HW258874   9.472   0.067   3.615  0.4964 -0.8111 -0.7646
18140SOL     OW58875   9.008   5.935   1.343 -0.0830 -0.0039 -0.7463
18140SOL    HW158876   9.026   5.931   1.249  0.7040 -1.9156 -0.5652
18140SOL    HW258877   9.062   5.866   1.380  0.8068  1.7282  1.3464
18141SOL     OW58878   7.241   6.951   2.816 -0.2912 -0.3124 -0.0745
18141SOL    HW158879   7.192   6.925   2.738  0.7978 -0.0593 -0.8575
18141SOL    HW258880   7.209   6.892   2.885 -1.6896 -0.1537 -0.5523
18142SOL     OW58881   1.637   4.573   1.768  0.5465 -0.0844 -0.0295
18142SOL    HW158882   1.711   4.522   1.801  1.4720  1.3960  0.2936
18142SOL    HW258883   1.562   4.544   1.820  1.2103 -0.5089  0.7101
18143SOL     OW58884   4.757   1.749   1.860 -0.1583  0.1384 -0.3460
18143SOL    HW158885   4.719   1.748   1.772 -0.0263  0.0738 -0.4043
18143SOL    HW258886   4.836   1.803   1.851 -0.6844  0.9698 -0.0319
18144SOL     OW58887   6.128  10.505   2.260  0.0070 -0.0302 -0.0118
18144SOL    HW158888   6.129  10.545   2.347  2.6097 -0.4014  0.2127
18144SOL    HW258889   6.103  10.576   2.201 -0.8676  0.4656  0.9298
18145SOL     OW58890   6.077   2.128   7.219 -0.3484  0.0350 -0.1126
18145SOL    HW158891   6.049   2.199   7.276 -1.6210 -0.6650  0.1808
18145SOL    HW258892   6.009   2.061   7.229 -0.0154 -0.5681 -1.5815
18146SOL     OW58893   2.684   6.696   0.354  0.6420  0.6295  0.2234
18146SOL    HW158894   2.684   6.779   0.401  0.7348  0.5929  0.2880
18146SOL    HW258895   2.592   6.669   0.353  0.4995  1.1063 -0.4548
18147SOL     OW58896   8.019   7.688   0.619 -0.3589 -0.5661 -0.0319
18147SOL    HW158897   8.091   7.663   0.561 -0.5550 -1.2903  0.0277
18147SOL    HW258898   8.011   7.616   0.681 -1.1383 -0.4989 -0.0381
18148SOL     OW58899   6.724   0.388   4.219 -0.3116 -0.4787 -0.4554
18148SOL    HW158900   6.803   0.360   4.266 -1.0074 -1.9583 -0.0877
18148SOL    HW258901   6.752   0.460   4.164  0.5158  1.6391  2.4800
18149SOL     OW58902   2.307   4.169   9.185 -0.3329 -0.7826 -0.1076
18149SOL    HW158903   2.401   4.167   9.204 -0.4203 -0.0847  0.4671
18149SOL    HW258904   2.297   4.112   9.109  0.7956  0.3355 -1.1607
18150SOL     OW58905   7.739   5.615  10.994 -0.5876 -0.4307  0.2684
18150SOL    HW158906   7.680   5.671  11.046 -1.0942  0.5166 -1.2738
18150SOL    HW258907   7.744   5.534  11.044 -3.6317 -0.7575  0.2304
18151SOL     OW58908   4.988   7.232   0.827 -0.1052 -0.5972 -0.3445
18151SOL    HW158909   5.063   7.266   0.875 -0.0501  0.0231 -0.8625
18151SOL    HW258910   5.019   7.220   0.738  0.2124 -3.0984  0.0123
18152SOL     OW58911   6.783   8.038   1.028 -0.2578  0.0490 -0.7338
18152SOL    HW158912   6.871   8.001   1.034  0.3604  1.4969 -0.2500
18152SOL    HW258913   6.772   8.058   0.935 -0.9861 -2.1274 -1.1717
18153SOL     OW58914   8.732   0.445   9.573  0.1015 -0.3083 -0.6683
18153SOL    HW158915   8.786   0.490   9.509  0.3616 -0.2067 -0.3829
18153SOL    HW258916   8.660   0.506   9.591 -1.0860 -1.1541 -2.3422
18154SOL     OW58917   0.905   9.008   0.797 -0.1994 -0.5129 -0.0606
18154SOL    HW158918   0.920   9.102   0.805  1.6853 -0.8473  0.7923
18154SOL    HW258919   0.839   9.000   0.728 -0.5467  1.4301 -0.0040
18155SOL     OW58920   9.397   4.148   1.343 -0.2212 -0.2566  0.0992
18155SOL    HW158921   9.340   4.100   1.404  0.5830 -0.3316  0.8080
18155SOL    HW258922   9.440   4.080   1.292  0.8273 -0.3245  1.0219
18156SOL     OW58923   9.217   6.887   2.915 -0.5480  0.0130 -0.0674
18156SOL    HW158924   9.136   6.844   2.887 -0.5961  0.8900 -1.3874
18156SOL    HW258925   9.196   6.981   2.912  0.4966  0.2462 -0.4142
18157SOL     OW58926   6.255   9.440   0.109  0.2590  0.3491  0.1586
18157SOL    HW158927   6.299   9.395   0.037  1.4220  0.9903  0.4409
18157SOL    HW258928   6.307   9.519   0.122 -1.4577  1.5463 -0.0068
18158SOL     OW58929   0.380   9.028   0.421  0.3664 -0.0184 -0.0402
18158SOL    HW158930   0.389   8.980   0.338 -0.1106  0.1917 -0.2164
18158SOL    HW258931   0.363   9.118   0.395  1.3317  0.2758  0.2945
18159SOL     OW58932   8.973   5.202   5.169 -0.1533  0.2374  0.1197
18159SOL    HW158933   8.915   5.197   5.093  1.2895  0.5601 -1.0430
18159SOL    HW258934   8.934   5.143   5.233 -0.8064 -0.9009 -1.2859
18160SOL     OW58935   1.830   0.720   9.415 -0.3189  0.6341  0.7623
18160SOL    HW158936   1.743   0.703   9.378 -0.3431 -0.4154  1.2520
18160SOL    HW258937   1.882   0.751   9.340 -0.3561 -1.4893 -0.2190
18161SOL     OW58938   9.765   3.202   5.612  0.4145  0.0705 -0.0045
18161SOL    HW158939   9.761   3.227   5.705  2.4295  0.1790  0.0913
18161SOL    HW258940   9.751   3.284   5.565  1.6349  0.4320  0.2452
18162SOL     OW58941   1.022   1.826   4.287  0.0419  0.3109  0.0392
18162SOL    HW158942   1.079   1.750   4.277 -0.6669  0.0007 -2.0360
18162SOL    HW258943   0.973   1.808   4.367  1.6002 -0.2241  0.9165
18163SOL     OW58944   9.161   7.234   0.453 -0.0605 -0.9449  0.0133
18163SOL    HW158945   9.214   7.279   0.388  2.2254 -0.7805  1.8469
18163SOL    HW258946   9.142   7.301   0.519 -1.5159 -1.3179  0.0096
18164SOL     OW58947   2.203  10.731   2.977  0.0144 -0.7077 -0.2594
18164SOL    HW158948   2.274  10.794   2.977 -0.7843  0.4025 -3.7231
18164SOL    HW258949   2.244  10.648   2.999  2.1637  0.0933 -1.0328
18165SOL     OW58950   6.339  10.898   6.634 -0.5448 -0.0466 -0.2809
18165SOL    HW158951   6.348  10.820   6.688 -1.0609  0.5448  0.6927
18165SOL    HW258952   6.419  10.948   6.651 -0.6371  0.0678 -0.1783
18166SOL     OW58953   9.534  10.590  10.025  0.0424  0.2878 -0.1727
18166SOL    HW158954   9.593  10.539   9.969  3.1532  0.4266  2.6743
18166SOL    HW258955   9.545  10.681   9.995  0.0403  0.1327 -0.6534
18167SOL     OW58956   6.081   4.730   7.679  0.0116  0.2951 -0.0440
18167SOL    HW158957   6.106   4.767   7.594 -1.3490  0.0132 -0.5804
18167SOL    HW258958   6.051   4.641   7.659  0.3012 -0.0055  0.8266
18168SOL     OW58959   4.781   2.858   2.980  0.3064  0.2403  0.0303
18168SOL    HW158960   4.770   2.846   2.886  1.4376 -0.5546 -0.0294
18168SOL    HW258961   4.709   2.915   3.006  0.3777  1.0384 -1.4277
18169SOL     OW58962  10.162   2.335   7.980  0.3260  0.2712  0.1378
18169SOL    HW158963  10.233   2.282   8.016 -1.1640 -1.2320  1.0010
18169SOL    HW258964  10.112   2.363   8.056 -1.2384 -0.5460 -0.5457
18170SOL     OW58965   2.735   3.616   4.596 -0.0486 -0.5255 -0.7583
18170SOL    HW158966   2.808   3.672   4.569 -0.7851  1.7664  1.5793
18170SOL    HW258967   2.766   3.574   4.677 -0.8153 -0.6235 -0.5059
18171SOL     OW58968   5.134   7.007  10.112 -0.2663  0.4763  0.0419
18171SOL    HW158969   5.159   6.946  10.043 -0.9273  0.9011 -0.5879
18171SOL    HW258970   5.196   7.080  10.103  0.9709 -0.3839  1.2411
18172SOL     OW58971   1.611   8.056   4.714 -0.2107 -0.5800  0.2612
18172SOL    HW158972   1.679   8.122   4.726  0.9742 -1.3746 -1.6350
18172SOL    HW258973   1.548   8.096   4.655 -1.6235  0.2481  2.2052
18173SOL     OW58974  10.986   5.708   4.042 -0.1532  0.3818 -0.4473
18173SOL    HW158975  11.037   5.688   4.120  0.6449 -1.2457 -1.3346
18173SOL    HW258976  11.049   5.704   3.970 -1.1711  0.1646 -1.3597
18174SOL     OW58977   5.397   1.243   7.272  0.8112 -0.1157 -0.2659
18174SOL    HW158978   5.392   1.296   7.192  1.1180 -0.6081 -0.6191
18174SOL    HW258979   5.358   1.159   7.248  2.1588 -0.7573 -0.3244
18175SOL     OW58980   2.017   0.184   2.532  0.1005  0.2572 -0.0588
18175SOL    HW158981   2.064   0.101   2.526  0.1866  0.3952 -3.3074
18175SOL    HW258982   1.929   0.165   2.498 -0.3908  1.1963  0.6120
18176SOL     OW58983   1.570   8.465   3.769 -0.5346  0.5513  0.5275
18176SOL    HW158984   1.551   8.554   3.800  0.1428  1.5460 -1.6297
18176SOL    HW258985   1.663   8.452   3.789 -0.4876  0.5752  0.3311
18177SOL     OW58986   7.882   2.626   9.396  0.2437 -0.1786 -0.0076
18177SOL    HW158987   7.862   2.717   9.375 -0.8949 -0.5670 -0.6785
18177SOL    HW258988   7.812   2.598   9.455  0.7206 -0.5581  0.3973
18178SOL     OW58989   0.431  10.820   6.424  0.1911  0.8713 -0.2354
18178SOL    HW158990   0.464  10.731   6.432  2.4216  1.5461 -1.1706
18178SOL    HW258991   0.354  10.823   6.482  0.2252 -1.5452  0.0167
18179SOL     OW58992  10.688   5.806   2.409  0.1871  0.3511  0.0930
18179SOL    HW158993  10.781   5.789   2.420  0.5776  0.9946 -1.8249
18179SOL    HW258994  10.684   5.888   2.360 -1.3673 -0.0551 -0.5257
18180SOL     OW58995   7.180   4.823  10.307  0.1439 -0.2851 -0.9788
18180SOL    HW158996   7.085   4.836  10.300  0.2093  2.1643  1.0672
18180SOL    HW258997   7.214   4.853  10.223 -0.8160  0.1900 -1.2151
18181SOL     OW58998   4.254  10.284  10.301  0.4237  0.9088 -0.4020
18181SOL    HW158999   4.180  10.341  10.279 -0.9265 -0.6578 -0.0474
18181SOL    HW259000   4.288  10.319  10.383 -0.2650  1.3192 -0.2845
18182SOL     OW59001  11.069  10.878   9.466  0.4603 -0.0912  0.2338
18182SOL    HW159002  10.986  10.880   9.515  1.7509 -0.5706  2.5888
18182SOL    HW259003  11.113  10.960   9.489  0.7036  0.1205 -0.9298
18183SOL     OW59004   8.750  10.664   2.647 -0.3639 -0.1367 -0.3994
18183SOL    HW159005   8.669  10.626   2.615 -0.0966  0.4057 -1.7785
18183SOL    HW259006   8.789  10.595   2.701 -1.9287 -0.2440  0.6585
18184SOL     OW59007   6.778   6.511   3.134 -0.2912 -0.1978  0.5567
18184SOL    HW159008   6.804   6.424   3.164 -0.7375 -0.6108 -0.2041
18184SOL    HW259009   6.809   6.515   3.043  1.4759  1.2060  1.1769
18185SOL     OW59010   4.118  10.363   4.068 -1.0530 -0.1210 -0.3602
18185SOL    HW159011   4.034  10.322   4.087  0.3975 -3.7041 -0.9223
18185SOL    HW259012   4.177  10.329   4.135  0.1170  1.8271 -0.3472
18186SOL     OW59013   7.203   7.688   9.968 -0.7983  0.0360  0.7660
18186SOL    HW159014   7.122   7.695   9.918 -0.7335  2.2631  0.8488
18186SOL    HW259015   7.212   7.774  10.011  2.7050  0.7633 -0.9766
18187SOL     OW59016   6.593   0.890   7.727 -0.2325 -0.5707 -0.4953
18187SOL    HW159017   6.668   0.906   7.670 -0.2792  0.8222 -0.1875
18187SOL    HW259018   6.628   0.899   7.816 -0.6783 -0.3331 -0.3399
18188SOL     OW59019  10.880   1.484   9.968  0.0785 -0.2152 -0.3343
18188SOL    HW159020  10.953   1.527   9.923 -0.3841  2.2303  1.0574
18188SOL    HW259021  10.802   1.529   9.937 -0.5493 -0.7031  0.4901
18189SOL     OW59022   3.619   2.248   0.497  0.1590 -0.6949  0.2291
18189SOL    HW159023   3.671   2.289   0.566  2.7209 -2.4798 -0.4967
18189SOL    HW259024   3.661   2.277   0.415  0.4908 -2.6936 -0.3532
18190SOL     OW59025   6.443   8.468   4.141 -0.2910  0.3286 -0.1522
18190SOL    HW159026   6.512   8.533   4.127  0.0225  0.0841  0.2070
18190SOL    HW259027   6.416   8.443   4.053 -1.4439  1.9956 -0.3218
18191SOL     OW59028   2.428   3.699   7.954  0.4391 -0.5427 -0.4675
18191SOL    HW159029   2.447   3.631   8.018  1.8904 -1.5045 -1.8237
18191SOL    HW259030   2.511   3.745   7.943 -0.7704  2.3272  1.2826
18192SOL     OW59031   7.941   3.491   3.723 -0.2243 -0.9500 -0.4010
18192SOL    HW159032   7.852   3.480   3.754 -0.6648  0.5125 -1.0418
18192SOL    HW259033   7.948   3.432   3.648  0.3672 -3.3497  1.4341
18193SOL     OW59034   1.080   1.491   6.225  0.4107 -0.3284 -0.0778
18193SOL    HW159035   1.022   1.559   6.260  1.1453 -0.1448  0.8338
18193SOL    HW259036   1.077   1.421   6.291  0.5580 -0.6850 -0.4447
18194SOL     OW59037   7.630   0.871   3.446 -0.0597 -0.4216  0.6088
18194SOL    HW159038   7.565   0.837   3.383  0.2050 -0.3794  0.3122
18194SOL    HW259039   7.580   0.929   3.503 -0.2048 -0.0552  0.1167
18195SOL     OW59040   1.198   8.777  10.821  0.6893 -0.4241  0.3525
18195SOL    HW159041   1.221   8.697  10.868 -0.8729 -0.7969  0.5356
18195SOL    HW259042   1.219   8.758  10.730  1.5933 -0.5264  0.5680
18196SOL     OW59043   0.265   5.903   6.762  0.3562  1.0361  0.1642
18196SOL    HW159044   0.245   5.973   6.699 -0.3145  1.8771  1.2619
18196SOL    HW259045   0.359   5.911   6.778  0.4808  0.9902 -0.5240
18197SOL     OW59046   8.754   6.579  10.122 -0.2590  0.0955 -0.3929
18197SOL    HW159047   8.678   6.635  10.103  1.1503  2.2821  0.1048
18197SOL    HW259048   8.742   6.552  10.213 -0.6882 -0.0192 -0.4774
18198SOL     OW59049   3.324   8.595   9.311  0.2438 -0.0212 -0.5072
18198SOL    HW159050   3.401   8.579   9.256 -0.0005  0.3849 -0.9747
18198SOL    HW259051   3.344   8.552   9.394  2.3740  2.8454  0.5788
18199SOL     OW59052   2.411   9.411   0.753 -0.2368  0.2724 -0.4108
18199SOL    HW159053   2.379   9.495   0.786  0.6454 -0.1243  1.6438
18199SOL    HW259054   2.426   9.425   0.660 -3.8289  1.2179 -0.9859
18200SOL     OW59055   1.318   2.391   3.747  0.4669 -0.1515 -0.2490
18200SOL    HW159056   1.229   2.375   3.779  1.1673 -0.7610  1.4814
18200SOL    HW259057   1.310   2.386   3.652 -1.7562  1.9302 -0.2704
18201SOL     OW59058   7.093   0.587   9.598 -0.0169  0.2428  0.7311
18201SOL    HW159059   7.157   0.650   9.566 -0.2296  0.0529 -0.0775
18201SOL    HW259060   7.133   0.551   9.678  0.9999 -0.0651  0.1029
18202SOL     OW59061   4.005   3.279   9.353 -0.2795  0.5824 -0.5272
18202SOL    HW159062   3.921   3.251   9.316 -0.7274  1.3619 -0.1287
18202SOL    HW259063   4.046   3.330   9.283 -1.5808  2.9337  0.3276
18203SOL     OW59064   4.137   7.804   4.461 -0.4876  0.3575 -0.5987
18203SOL    HW159065   4.155   7.874   4.524 -0.9636  0.6132 -0.7472
18203SOL    HW259066   4.160   7.724   4.508  2.5388  0.7069 -1.2507
18204SOL     OW59067  10.438   7.169   1.931 -0.5517 -0.9886 -0.3794
18204SOL    HW159068  10.455   7.215   2.013  2.5830 -1.0148 -0.8752
18204SOL    HW259069  10.353   7.126   1.944 -0.6544 -0.1268  2.4093
18205SOL     OW59070   7.268   7.021  11.003  0.2893  0.5615  0.1413
18205SOL    HW159071   7.264   6.984  10.915  0.9568  0.7690  0.0241
18205SOL    HW259072   7.329   7.094  10.996  0.5892  0.3845  0.8534
18206SOL     OW59073   7.969   1.305   6.273 -0.6724  0.3650  0.2605
18206SOL    HW159074   7.963   1.225   6.221  1.2550  0.3232  0.0331
18206SOL    HW259075   8.010   1.277   6.355 -0.4631  1.0272  0.3893
18207SOL     OW59076   2.118   1.676   3.019 -0.5177  0.0227 -0.0384
18207SOL    HW159077   2.136   1.763   3.055  1.7962 -0.1162 -0.7325
18207SOL    HW259078   2.040   1.647   3.066 -1.2127  2.3701  0.3599
18208SOL     OW59079   2.272   3.374   7.883  0.3062 -0.1494 -0.3467
18208SOL    HW159080   2.233   3.351   7.967  1.6756 -1.0783  0.0666
18208SOL    HW259081   2.222   3.323   7.819 -0.0818 -0.2138 -0.0011
18209SOL     OW59082   8.441   4.660  10.402 -0.5516 -0.5868  0.5684
18209SOL    HW159083   8.372   4.711  10.361 -1.5623 -1.2916  1.3192
18209SOL    HW259084   8.466   4.595  10.337  0.8075  0.8524 -0.4247
18210SOL     OW59085   3.380   6.938   5.317 -0.6234  0.1439 -0.0326
18210SOL    HW159086   3.323   6.862   5.314 -1.9058  1.0149  0.7939
18210SOL    HW259087   3.469   6.903   5.308 -1.3084 -1.1311 -2.6924
18211SOL     OW59088   1.148   6.936   7.511 -0.3332 -0.2726 -0.1375
18211SOL    HW159089   1.061   6.941   7.471 -0.5979 -1.0116  0.3271
18211SOL    HW259090   1.145   6.856   7.564  0.4974 -0.0851  0.1979
18212SOL     OW59091   6.758   1.982  10.910 -0.0059 -0.5595 -0.6526
18212SOL    HW159092   6.837   2.031  10.931 -0.6660  0.7190 -0.9821
18212SOL    HW259093   6.788   1.907  10.859  0.9845 -0.0814 -0.7950
18213SOL     OW59094   3.830   6.937  10.099 -0.2982 -0.4963  0.4267
18213SOL    HW159095   3.825   6.903  10.010 -0.2492 -1.2201  0.6946
18213SOL    HW259096   3.843   7.031  10.088  1.3848 -0.7719 -0.3620
18214SOL     OW59097   4.009   9.399   2.194 -0.3486 -0.2651  0.1806
18214SOL    HW159098   4.080   9.345   2.228 -0.2749 -0.5758 -0.4477
18214SOL    HW259099   4.053   9.474   2.154 -0.2789 -1.0465 -1.2759
18215SOL     OW59100  10.401   8.428  10.337 -0.3710 -0.3356  1.1221
18215SOL    HW159101  10.390   8.511  10.290 -4.6673 -1.4339 -0.2565
18215SOL    HW259102  10.427   8.454  10.425  0.5105  2.2812  0.1976
18216SOL     OW59103   7.210   3.389   6.134 -0.0200 -0.0848 -0.2276
18216SOL    HW159104   7.181   3.437   6.211 -1.7348 -0.9109 -0.3028
18216SOL    HW259105   7.304   3.405   6.129  0.0728  0.2591  1.8311
18217SOL     OW59106   3.030   8.017  10.227  0.6118  0.0487 -0.1507
18217SOL    HW159107   2.955   8.027  10.169  1.0255  0.6453 -0.6013
18217SOL    HW259108   2.995   7.975  10.306 -0.0341 -0.4084 -0.6684
18218SOL     OW59109   2.252   3.655  10.567  0.3042  0.0597  0.3577
18218SOL    HW159110   2.230   3.743  10.599 -1.1341 -0.3387  0.5573
18218SOL    HW259111   2.339   3.637  10.602  0.7336  1.5105  0.0829
18219SOL     OW59112   8.151   5.438   3.421  0.6037 -0.0697 -0.5788
18219SOL    HW159113   8.208   5.486   3.362  0.2044 -0.8133 -1.5996
18219SOL    HW259114   8.075   5.415   3.368  1.2240 -2.7107 -0.4645
18220SOL     OW59115   6.597   7.228   9.232  0.2715 -0.0403  0.6015
18220SOL    HW159116   6.640   7.159   9.282  0.1269 -1.1234 -0.7142
18220SOL    HW259117   6.544   7.181   9.167 -1.4797  1.2630  0.9972
18221SOL     OW59118   2.535   8.779   8.556  0.3301 -0.2947  0.1637
18221SOL    HW159119   2.572   8.707   8.607  0.8346 -0.2556 -0.1404
18221SOL    HW259120   2.453   8.800   8.601  0.4010 -0.7517  0.5227
18222SOL     OW59121   2.834   6.426   8.492  0.1096 -0.0646 -0.6318
18222SOL    HW159122   2.742   6.453   8.501  0.0782 -0.4793  0.4971
18222SOL    HW259123   2.847   6.418   8.398 -0.4377  1.8949 -0.9264
18223SOL     OW59124  10.147   5.815  10.589 -0.3898 -0.2493 -0.3011
18223SOL    HW159125  10.122   5.820  10.497 -1.7294  4.4682  0.1043
18223SOL    HW259126  10.075   5.768  10.631 -0.5918 -0.9240 -1.3430
18224SOL     OW59127   1.471   8.022   2.376 -0.4752 -0.4556 -0.1520
18224SOL    HW159128   1.417   8.093   2.342 -0.6075 -1.1307 -1.3949
18224SOL    HW259129   1.443   7.944   2.328  1.6540 -0.8130 -0.9402
18225SOL     OW59130   3.181   6.674  10.416  0.1116  0.0525  0.0052
18225SOL    HW159131   3.145   6.591  10.382  0.4528 -0.1130  0.0438
18225SOL    HW259132   3.104   6.726  10.437 -0.1320 -0.7689  1.2553
18226SOL     OW59133  11.028   7.065   2.951 -0.3108  0.1381  0.0171
18226SOL    HW159134  11.096   7.129   2.933  0.9751 -0.3347  2.7949
18226SOL    HW259135  11.075   6.985   2.974 -1.7187 -0.0800  2.4804
18227SOL     OW59136   9.924   3.578   9.680  0.3534 -0.8059 -0.0096
18227SOL    HW159137   9.851   3.617   9.633 -0.1018 -1.7697 -0.1249
18227SOL    HW259138   9.950   3.644   9.744  1.4049  0.8126 -1.9924
18228SOL     OW59139  10.860   2.976   4.560  0.3224 -0.3655  0.2220
18228SOL    HW159140  10.869   3.066   4.527 -0.7838 -0.1680  0.4310
18228SOL    HW259141  10.768   2.955   4.547  0.4670 -1.2979  0.6404
18229SOL     OW59142   6.849   0.329   4.754 -0.7119 -0.4364 -0.6029
18229SOL    HW159143   6.938   0.341   4.787 -1.1327 -0.2670  0.5280
18229SOL    HW259144   6.854   0.352   4.662 -0.4810  4.0321  0.3068
18230SOL     OW59145   9.274   6.838   1.013 -0.4934 -0.1123  0.4088
18230SOL    HW159146   9.332   6.909   0.987  0.7826 -1.6666 -1.1884
18230SOL    HW259147   9.187   6.879   1.016  0.2953  1.6753  0.3042
18231SOL     OW59148   9.117   2.556   6.921  0.1538  0.5801  0.4369
18231SOL    HW159149   9.055   2.489   6.893 -2.2203  1.9294  2.0933
18231SOL    HW259150   9.085   2.636   6.880  2.3065  0.9375 -0.6524
18232SOL     OW59151   0.995   7.208   9.662  0.5370  0.2045 -0.1801
18232SOL    HW159152   0.972   7.301   9.661  1.0027  0.3184 -1.0524
18232SOL    HW259153   1.023   7.190   9.573 -0.9533 -1.1264 -0.4317
18233SOL     OW59154   6.626   4.792  10.257 -0.0390 -0.4008  0.5604
18233SOL    HW159155   6.562   4.770  10.325 -1.1031  1.7174  0.3485
18233SOL    HW259156   6.627   4.888  10.256  1.7687 -0.3795 -0.7590
18234SOL     OW59157   8.014   6.417   7.096  0.7030 -0.2652 -0.4351
18234SOL    HW159158   7.938   6.419   7.037  1.2133 -0.9582 -1.1470
18234SOL    HW259159   7.977   6.404   7.183  0.0163 -1.0623 -0.8286
18235SOL     OW59160   0.207   8.076   7.350 -0.2044  0.3771 -0.3602
18235SOL    HW159161   0.219   8.024   7.270 -0.5607 -0.7051  0.2627
18235SOL    HW259162   0.120   8.113   7.341  0.5181  1.9320 -1.3766
18236SOL     OW59163   9.161   3.185   7.800  0.2273  0.4768 -0.1886
18236SOL    HW159164   9.154   3.249   7.729 -0.1710 -0.1049 -0.6854
18236SOL    HW259165   9.087   3.126   7.787 -0.0809  0.5949  0.9547
18237SOL     OW59166   2.458   6.369   2.102 -0.3808  0.3996  0.4170
18237SOL    HW159167   2.442   6.455   2.062 -0.8360 -0.4984 -1.4451
18237SOL    HW259168   2.492   6.316   2.030 -0.6813 -1.1599  1.3898
18238SOL     OW59169   3.042  10.525  10.915 -0.0532  0.4250 -0.4522
18238SOL    HW159170   3.033  10.616  10.886  2.7919  1.0372  0.2647
18238SOL    HW259171   2.986  10.519  10.992  0.0604  1.7202 -0.2402
18239SOL     OW59172   8.742   1.944   2.076 -0.1182  0.1270 -0.8598
18239SOL    HW159173   8.722   1.853   2.054 -0.2948  0.1826 -0.9315
18239SOL    HW259174   8.837   1.951   2.065 -0.0024 -0.2385 -0.1459
18240SOL     OW59175   2.944   5.487   3.035 -0.2589  0.3122  0.4686
18240SOL    HW159176   2.891   5.420   3.078 -0.1462 -0.9006 -1.1868
18240SOL    HW259177   3.004   5.517   3.104 -1.1848 -0.3281  1.6004
18241SOL     OW59178   3.426   2.103   9.572  0.3520 -0.0785 -0.3622
18241SOL    HW159179   3.488   2.126   9.504 -0.2621  0.9236 -0.5968
18241SOL    HW259180   3.396   2.015   9.548  2.9709 -1.3753  0.7380
18242SOL     OW59181   6.068   6.996   7.072  0.0322  0.0916 -0.8270
18242SOL    HW159182   6.040   7.080   7.036  1.3296  0.5231 -0.8521
18242SOL    HW259183   6.151   7.014   7.115  0.0477 -1.0699 -0.3283
18243SOL     OW59184   8.450   4.939   5.744 -0.0801  0.2033 -0.1189
18243SOL    HW159185   8.491   4.901   5.822 -0.1485  2.1994  0.9604
18243SOL    HW259186   8.358   4.950   5.768 -0.1257  0.7360 -0.5091
18244SOL     OW59187   9.677   5.439   2.841  0.5559 -0.2682  0.3783
18244SOL    HW159188   9.596   5.491   2.844  0.1796 -0.7554 -0.6985
18244SOL    HW259189   9.692   5.413   2.932  0.0210  0.6213  0.7317
18245SOL     OW59190   0.225   4.376   0.131  0.3813  0.0651  0.1650
18245SOL    HW159191   0.279   4.341   0.060 -0.8529  2.8709 -2.3795
18245SOL    HW259192   0.288   4.415   0.192  1.4002  1.4963 -1.7076
18246SOL     OW59193   9.664   7.643  10.721  0.5164 -0.2176  0.3556
18246SOL    HW159194   9.643   7.550  10.709 -0.3800  0.0039  0.0623
18246SOL    HW259195   9.757   7.650  10.702  0.5932 -1.0598  0.3950
18247SOL     OW59196   3.170   5.659  10.188  0.3467  0.2692  0.3307
18247SOL    HW159197   3.110   5.662  10.263  0.1826  0.3025  0.1980
18247SOL    HW259198   3.113   5.666  10.111  0.4261 -0.7467  0.1672
18248SOL     OW59199   2.678   9.447  10.765  0.7212 -0.0572 -0.2551
18248SOL    HW159200   2.714   9.472  10.850 -0.4968  0.2003  0.2054
18248SOL    HW259201   2.717   9.362  10.746  1.6343  0.2625  0.1663
18249SOL     OW59202   9.171   2.951   0.722 -0.2328 -0.3604 -0.0791
18249SOL    HW159203   9.116   2.917   0.793 -0.8881  0.7190 -0.0473
18249SOL    HW259204   9.184   3.043   0.744  2.5682 -0.8127  0.5000
18250SOL     OW59205   1.067   9.634   3.215 -0.5460  0.2793 -0.0180
18250SOL    HW159206   1.045   9.541   3.221 -1.0103  0.3217 -0.9173
18250SOL    HW259207   1.112   9.643   3.131  1.5168  0.4932  1.0415
18251SOL     OW59208   2.544   3.928   6.573 -0.4697 -0.1779 -0.1989
18251SOL    HW159209   2.495   3.924   6.491  1.3420  0.1878 -1.3715
18251SOL    HW259210   2.599   3.849   6.571 -2.3223 -1.6531  2.0305
18252SOL     OW59211   8.884   3.273   9.638  0.4118  0.3201  0.7068
18252SOL    HW159212   8.896   3.266   9.733 -0.3918 -0.6094  0.7625
18252SOL    HW259213   8.972   3.281   9.603  0.7575  0.0745  1.5012
18253SOL     OW59214   8.856   1.733   3.666 -0.2110 -0.0453  0.5716
18253SOL    HW159215   8.876   1.669   3.598 -1.9241 -1.6296  1.4535
18253SOL    HW259216   8.804   1.800   3.622  0.6808  0.2093 -0.1338
18254SOL     OW59217   6.049   2.056   4.618  0.3760 -0.2085  0.6943
18254SOL    HW159218   6.058   2.130   4.558  0.3578 -0.2707  0.6150
18254SOL    HW259219   6.102   1.986   4.579  0.2451 -0.2966  0.6733
18255SOL     OW59220   9.923   1.683   5.289  0.3838  0.6882  0.2666
18255SOL    HW159221   9.887   1.595   5.280  0.3090  0.8527 -1.4962
18255SOL    HW259222  10.017   1.672   5.275  0.5006  0.7673  0.9744
18256SOL     OW59223   9.302   5.310   2.313 -0.0908 -0.1194 -0.0484
18256SOL    HW159224   9.385   5.267   2.291 -0.2949 -0.3997 -0.2864
18256SOL    HW259225   9.327   5.398   2.340  0.1892  0.2006 -1.2625
18257SOL     OW59226   0.133   9.145   9.568 -0.0831 -0.8192 -0.3911
18257SOL    HW159227   0.202   9.124   9.505  1.6433 -0.8818  1.4121
18257SOL    HW259228   0.168   9.218   9.619 -1.7383 -0.2648  0.0203
18258SOL     OW59229   1.861   4.111   5.882 -0.3038 -0.0717  0.0155
18258SOL    HW159230   1.798   4.109   5.810 -1.1819 -1.1762  0.7717
18258SOL    HW259231   1.928   4.046   5.857 -0.6058 -0.4515  0.1858
18259SOL     OW59232   4.804   4.140   4.653  0.0534  0.5541  0.2196
18259SOL    HW159233   4.875   4.177   4.601  0.6402  0.3108  0.8388
18259SOL    HW259234   4.801   4.048   4.627 -1.0213  0.8652 -0.8877
18260SOL     OW59235   6.810   9.051   0.880  0.2971 -0.3928  0.2662
18260SOL    HW159236   6.738   9.071   0.820  0.1629 -0.0500  0.5370
18260SOL    HW259237   6.791   9.103   0.958  0.1161 -1.3474  0.8672
18261SOL     OW59238   3.958   3.934   3.823  0.0856  0.1035  0.2583
18261SOL    HW159239   3.931   3.856   3.776  0.8770  0.2452 -0.4374
18261SOL    HW259240   3.902   3.935   3.901 -1.9935  0.4395 -1.1544
18262SOL     OW59241   1.731   9.235   8.506  0.0255 -0.0447 -0.7916
18262SOL    HW159242   1.640   9.260   8.496 -0.6159 -1.7701  0.2406
18262SOL    HW259243   1.762   9.283   8.583 -0.4694 -0.5482 -0.2689
18263SOL     OW59244  10.969   6.628  10.568 -0.0530 -0.1171 -0.4360
18263SOL    HW159245  10.990   6.562  10.634 -0.3562  0.7753  0.5750
18263SOL    HW259246  10.913   6.583  10.505 -2.2507 -0.2278  1.4988
18264SOL     OW59247   8.594   3.330   9.486 -0.2373  0.4014  0.2989
18264SOL    HW159248   8.572   3.263   9.422 -0.0375  1.4220 -0.8744
18264SOL    HW259249   8.688   3.321   9.499 -0.3443 -0.0821  0.7958
18265SOL     OW59250   5.308   5.216   5.263 -0.9289  0.0970 -0.4435
18265SOL    HW159251   5.246   5.148   5.237 -1.1894  0.8134 -1.7350
18265SOL    HW259252   5.388   5.195   5.216 -0.2115 -0.6997  1.0516
18266SOL     OW59253   8.245   9.268   0.848 -0.5591  0.7076  0.0516
18266SOL    HW159254   8.198   9.206   0.904 -2.3912  1.3165 -0.7204
18266SOL    HW259255   8.194   9.349   0.854 -0.8930  0.7763 -2.5259
18267SOL     OW59256   9.505   2.496   4.513 -0.8490  0.3141 -0.0679
18267SOL    HW159257   9.475   2.415   4.471  1.7266 -0.7768  0.0036
18267SOL    HW259258   9.436   2.517   4.577 -1.7426 -1.6177 -0.3209
18268SOL     OW59259   1.643   2.788   7.942 -0.3110  0.4388 -0.3141
18268SOL    HW159260   1.685   2.784   8.027  1.6869  1.5190 -1.1807
18268SOL    HW259261   1.714   2.807   7.881 -1.3208 -2.2093 -2.5183
18269SOL     OW59262   2.732   6.435   8.056 -0.6442 -0.0904 -0.2873
18269SOL    HW159263   2.768   6.354   8.091  0.6597  1.2751  1.7874
18269SOL    HW259264   2.638   6.428   8.071 -0.4056 -0.7182  1.0734
18270SOL     OW59265   6.715   6.499   3.398 -0.0805  0.2357  0.4066
18270SOL    HW159266   6.660   6.520   3.474  0.3635 -2.2031  1.4783
18270SOL    HW259267   6.678   6.418   3.364 -1.6881  2.3300 -3.4931
18271SOL     OW59268   6.879   0.272   7.502 -0.2541  0.0519 -0.3761
18271SOL    HW159269   6.793   0.276   7.543 -0.7539  1.6906 -1.4951
18271SOL    HW259270   6.900   0.363   7.482  3.2655  0.1976  2.8631
18272SOL     OW59271  10.555  10.740   7.574 -0.5024 -0.0778 -0.3962
18272SOL    HW159272  10.593  10.662   7.533  1.1537  0.5294 -0.0668
18272SOL    HW259273  10.606  10.813   7.541  0.0371  0.5615  1.6614
18273SOL     OW59274   5.078   7.546   1.474  0.1376 -0.5866 -0.7963
18273SOL    HW159275   5.026   7.518   1.550  1.4302 -1.4421 -0.1986
18273SOL    HW259276   5.013   7.578   1.411 -1.1149 -1.6406 -0.0829
18274SOL     OW59277   8.826   6.769   0.978  0.3241  0.1387  0.0437
18274SOL    HW159278   8.834   6.856   1.019  1.7657  0.3809 -0.6989
18274SOL    HW259279   8.738   6.740   1.002  0.1056  1.4617  0.9770
18275SOL     OW59280   8.856   2.666   4.307 -0.1837 -0.4130 -0.4192
18275SOL    HW159281   8.828   2.757   4.310  1.1396  0.0026 -0.0468
18275SOL    HW259282   8.781   2.617   4.339 -0.0321  0.7690  1.9406
18276SOL     OW59283   0.377   0.713   5.643 -0.4750 -0.1489 -0.5669
18276SOL    HW159284   0.434   0.719   5.567  0.1283 -1.7687 -0.2891
18276SOL    HW259285   0.289   0.729   5.608 -0.3542 -1.9545 -1.8569
18277SOL     OW59286   0.421   4.497   6.117 -0.0061  0.4114 -0.1045
18277SOL    HW159287   0.470   4.450   6.185 -0.9851 -0.0897  0.2686
18277SOL    HW259288   0.440   4.589   6.134 -2.3670  0.5591  2.6402
18278SOL     OW59289   8.915   5.985   6.205  0.5694  0.2703 -0.8574
18278SOL    HW159290   8.865   5.916   6.250  2.7528 -0.0074  1.3947
18278SOL    HW259291   8.877   6.067   6.237  1.4791  0.0648  0.8608
18279SOL     OW59292   2.825   4.702   7.924  0.3575  0.0130 -0.7245
18279SOL    HW159293   2.751   4.761   7.908 -0.0958 -0.3736 -0.1098
18279SOL    HW259294   2.901   4.760   7.926 -0.1186  0.6299  0.1867
18280SOL     OW59295  10.524   2.085   7.438 -0.2547  0.6290  0.1608
18280SOL    HW159296  10.588   2.122   7.499  0.2487  1.4242 -0.8226
18280SOL    HW259297  10.445   2.073   7.490  0.3065  0.8329  1.0825
18281SOL     OW59298  11.000   8.758   1.869 -0.3965  0.0184  0.2213
18281SOL    HW159299  10.946   8.795   1.799  0.5414  0.1445 -0.4564
18281SOL    HW259300  11.072   8.820   1.879 -1.1214  0.6101  2.1313
18282SOL     OW59301  10.781   4.290   3.126 -0.7896 -0.0831  0.4650
18282SOL    HW159302  10.806   4.366   3.073 -2.0745 -0.6125 -0.9762
18282SOL    HW259303  10.708   4.322   3.180 -0.6045  0.0086  0.6587
18283SOL     OW59304   2.660   5.625   3.052 -0.1173  0.0002 -0.5393
18283SOL    HW159305   2.626   5.701   3.101 -0.3783 -2.0800  2.8670
18283SOL    HW259306   2.725   5.662   2.992 -1.0825  3.0106  0.0754
18284SOL     OW59307   5.740   2.629   0.423  0.0549  0.2996  0.1419
18284SOL    HW159308   5.759   2.595   0.511 -2.1572 -1.4254  0.0499
18284SOL    HW259309   5.790   2.571   0.365 -0.6108 -0.3200  0.1700
18285SOL     OW59310   5.153   7.647   7.185 -0.3877  0.2356  0.0360
18285SOL    HW159311   5.132   7.684   7.270  0.4491  1.4068 -0.2458
18285SOL    HW259312   5.248   7.654   7.178 -0.4379  0.1364 -0.9789
18286SOL     OW59313   0.761  10.214   3.181 -0.4545 -0.4753  0.3634
18286SOL    HW159314   0.805  10.132   3.158 -0.3216 -0.0285 -1.0807
18286SOL    HW259315   0.754  10.261   3.098 -4.2750 -0.7817  0.3395
18287SOL     OW59316   6.160   7.666   2.121 -0.5396  0.0252 -0.0372
18287SOL    HW159317   6.164   7.571   2.128 -0.9185  0.0488  0.5526
18287SOL    HW259318   6.250   7.692   2.101 -0.4561 -0.4616 -0.3122
18288SOL     OW59319   7.154  10.250   3.209  0.1418  0.1714 -0.3600
18288SOL    HW159320   7.222  10.314   3.191  0.8952 -0.4570  0.1812
18288SOL    HW259321   7.075  10.286   3.168  0.5491  1.4262 -0.0712
18289SOL     OW59322   1.943   3.719   3.518 -0.2901 -0.1665 -0.1109
18289SOL    HW159323   1.923   3.761   3.435 -3.6368  0.2777  0.7787
18289SOL    HW259324   1.950   3.791   3.581 -4.4599 -0.5901  1.1201
18290SOL     OW59325   1.146   1.152   4.400  0.3019  0.3829  0.0939
18290SOL    HW159326   1.181   1.190   4.320 -0.5391 -1.3592 -1.1502
18290SOL    HW259327   1.204   1.079   4.420 -1.0615 -0.8871 -0.4992
18291SOL     OW59328   5.069   8.100   1.304  0.3835  0.2875 -0.0152
18291SOL    HW159329   5.104   8.116   1.391 -1.0321  0.2735  0.5853
18291SOL    HW259330   5.146   8.101   1.246  1.2945  0.6623  1.1675
18292SOL     OW59331   3.830   9.489   8.465  0.2093 -0.5460 -0.1087
18292SOL    HW159332   3.803   9.542   8.390 -1.8394 -0.3464  0.7096
18292SOL    HW259333   3.876   9.549   8.523 -0.3816 -0.1129 -0.0824
18293SOL     OW59334  10.874  10.033   2.399 -0.1801  0.3529  0.9270
18293SOL    HW159335  10.788  10.007   2.434 -0.9159 -1.3162 -1.8077
18293SOL    HW259336  10.917   9.951   2.377  1.6791  1.2165  1.1663
18294SOL     OW59337   8.038   7.260   3.644 -0.1028 -0.2207 -0.6397
18294SOL    HW159338   8.073   7.171   3.637 -1.8592 -0.9277 -1.0343
18294SOL    HW259339   8.001   7.264   3.732  1.2819  0.6752 -0.0554
18295SOL     OW59340   0.872   9.672   4.188 -1.0271 -0.6848  0.2802
18295SOL    HW159341   0.967   9.660   4.195 -1.1980 -2.5865  0.0713
18295SOL    HW259342   0.861   9.737   4.120  0.1368 -0.1153  0.6119
18296SOL     OW59343   9.726   1.852   1.115  0.2134  0.0009  0.7989
18296SOL    HW159344   9.693   1.860   1.205  0.9093  0.0516  1.0580
18296SOL    HW259345   9.656   1.887   1.061 -0.2117 -0.0164  1.3220
18297SOL     OW59346   9.432   5.821   1.117 -0.2540 -0.1839 -0.3247
18297SOL    HW159347   9.460   5.737   1.154  0.5352  0.5114  0.7312
18297SOL    HW259348   9.507   5.850   1.065  0.1348  0.6099  0.6435
18298SOL     OW59349  10.475   5.472   1.712 -0.0732  0.3137 -0.5418
18298SOL    HW159350  10.571   5.478   1.716 -0.1161  0.7770 -0.1910
18298SOL    HW259351  10.459   5.395   1.657  0.5024 -0.4515  0.3333
18299SOL     OW59352   8.552   5.426   0.235  0.1240 -0.0655  0.3216
18299SOL    HW159353   8.578   5.335   0.222  0.5229 -0.0552  1.0290
18299SOL    HW259354   8.633   5.471   0.256 -0.0878  0.4414  0.0743
18300SOL     OW59355  10.416   2.655   4.173 -0.5209  0.2069  0.2997
18300SOL    HW159356  10.439   2.562   4.170  1.6887  0.7142  0.1238
18300SOL    HW259357  10.415   2.676   4.267  1.4722  0.5246  0.2935
18301SOL     OW59358   1.133   7.194   9.216 -0.2692  0.3229 -0.4459
18301SOL    HW159359   1.109   7.277   9.256 -0.3614  0.7727 -1.4129
18301SOL    HW259360   1.091   7.195   9.130 -0.4904 -0.8384 -0.3748
18302SOL     OW59361   4.156   1.498   0.325 -0.3221 -0.2099  0.2070
18302SOL    HW159362   4.228   1.443   0.295 -0.5791 -0.5315  0.1727
18302SOL    HW259363   4.186   1.588   0.311 -0.0042 -0.3458  0.0185
18303SOL     OW59364   5.712   0.952   2.894  0.2700  0.3168 -0.7606
18303SOL    HW159365   5.664   0.964   2.812 -2.1370 -0.9266  0.3619
18303SOL    HW259366   5.717   1.039   2.932 -0.9216  0.5306 -1.0460
18304SOL     OW59367  10.503   7.761   9.062  0.2991  0.4430  0.1362
18304SOL    HW159368  10.502   7.667   9.043 -1.0191  0.2798  0.9078
18304SOL    HW259369  10.569   7.797   9.003  3.7522 -1.5035  2.4769
18305SOL     OW59370   2.233  10.139   0.610 -0.4499  0.4970  0.1671
18305SOL    HW159371   2.321  10.107   0.591 -0.6372  0.4039 -0.5545
18305SOL    HW259372   2.201  10.081   0.679 -0.4960 -0.3926 -0.5870
18306SOL     OW59373   8.247   0.518  10.524 -0.4277  0.4319  0.1460
18306SOL    HW159374   8.322   0.467  10.492 -0.1070  0.0299  1.4533
18306SOL    HW259375   8.259   0.519  10.619 -2.5277 -0.3531  0.4683
18307SOL     OW59376   5.915   8.306   8.416 -0.5389  0.1671  0.1309
18307SOL    HW159377   5.896   8.370   8.348  0.9195  0.9262  0.4006
18307SOL    HW259378   5.893   8.351   8.498 -0.8752 -0.1987  0.2438
18308SOL     OW59379   7.294   9.746   9.225 -0.4480 -0.0446 -0.2873
18308SOL    HW159380   7.222   9.687   9.246  1.1194 -1.2503  2.2159
18308SOL    HW259381   7.316   9.788   9.308  2.0243 -0.1496 -0.7999
18309SOL     OW59382   0.719   6.475  10.171 -0.1812 -0.7794 -0.1703
18309SOL    HW159383   0.704   6.388  10.208  1.1861 -1.1029 -0.3079
18309SOL    HW259384   0.771   6.459  10.092  2.5464  0.2512  1.2553
18310SOL     OW59385   0.080   8.687   9.950 -0.6288 -0.2407  0.4282
18310SOL    HW159386   0.001   8.651   9.991 -0.4081  0.8012  1.8367
18310SOL    HW259387   0.075   8.781   9.967  0.6489 -0.0890  0.0595
18311SOL     OW59388   0.204   3.603   0.243  0.3448  0.4983  0.2702
18311SOL    HW159389   0.284   3.632   0.289  0.7831  0.7459 -0.6259
18311SOL    HW259390   0.228   3.604   0.150 -0.4308 -0.2966  0.0455
18312SOL     OW59391   2.300   7.826   0.030  0.1763  0.5575  0.3578
18312SOL    HW159392   2.240   7.767   0.077  0.4607  0.5281  0.6862
18312SOL    HW259393   2.387   7.795   0.054  0.3263  0.3260 -0.4637
18313SOL     OW59394   6.616   9.246   6.213 -0.2012  0.0851  0.4091
18313SOL    HW159395   6.607   9.226   6.306 -0.8009 -0.4537  0.2429
18313SOL    HW259396   6.674   9.177   6.179  1.0503  1.0011  0.6144
18314SOL     OW59397   0.471   7.254   3.449  0.2364 -0.8170  0.0336
18314SOL    HW159398   0.382   7.250   3.414  0.3004  0.0262 -0.2487
18314SOL    HW259399   0.460   7.242   3.543  0.0168 -2.5865 -0.1978
18315SOL     OW59400   8.044   5.694   1.114 -0.0571  0.4117  0.1799
18315SOL    HW159401   8.000   5.755   1.054 -0.9007  0.6246  0.9790
18315SOL    HW259402   7.998   5.611   1.102  0.1628  0.3003  0.1068
18316SOL     OW59403   0.827   8.456   3.550  0.7744 -0.0114 -0.0309
18316SOL    HW159404   0.882   8.534   3.553  1.7762 -0.7183  0.8079
18316SOL    HW259405   0.823   8.432   3.458  1.9451  0.0196 -0.1046
18317SOL     OW59406   3.466   1.372   6.858  0.0323 -0.0675  0.1420
18317SOL    HW159407   3.512   1.441   6.811  0.0827  0.0581  0.3775
18317SOL    HW259408   3.513   1.292   6.835 -0.2134 -0.0667 -0.3757
18318SOL     OW59409   4.157   2.088  10.898 -0.2031  0.1612 -0.2423
18318SOL    HW159410   4.201   2.008  10.928 -0.9181 -0.6730 -1.3553
18318SOL    HW259411   4.203   2.158  10.944  0.7583 -0.8429  0.4014
18319SOL     OW59412  10.590   6.879   0.579 -0.7499  0.2625 -0.2458
18319SOL    HW159413  10.686   6.875   0.582 -0.7994 -0.3699  0.6363
18319SOL    HW259414  10.570   6.882   0.485  0.1217  0.1473 -0.4482
18320SOL     OW59415   6.690   6.180   9.276  0.8800  0.4223  0.3468
18320SOL    HW159416   6.662   6.202   9.187 -2.0914 -2.1335  0.4985
18320SOL    HW259417   6.763   6.120   9.264  0.1159 -0.3749 -0.4169
18321SOL     OW59418   2.696   6.401   7.481 -0.1923 -0.2175  0.8996
18321SOL    HW159419   2.673   6.429   7.569  0.9224  0.5126  0.9801
18321SOL    HW259420   2.647   6.320   7.468 -0.6045 -0.1751  2.0698
18322SOL     OW59421   6.969  10.208   3.521  0.2338 -0.1861  0.1291
18322SOL    HW159422   7.027  10.135   3.499  1.8151  1.1287 -0.2620
18322SOL    HW259423   7.011  10.285   3.483 -1.1627  1.0101  0.8799
18323SOL     OW59424  10.494  10.273   8.310  0.0626 -0.1676  0.5435
18323SOL    HW159425  10.560  10.211   8.342  0.1736 -1.1335 -1.4070
18323SOL    HW259426  10.537  10.321   8.240 -0.5926  0.8761  0.8328
18324SOL     OW59427  10.337   0.281   0.827 -0.3356  0.5979 -0.8334
18324SOL    HW159428  10.349   0.374   0.848  0.3956  0.1129  1.1557
18324SOL    HW259429  10.425   0.251   0.801 -0.2142  0.1548  0.0317
18325SOL     OW59430   4.384   6.211   4.153  0.1551  0.0914 -0.0188
18325SOL    HW159431   4.410   6.125   4.187  0.1616 -0.1745 -0.6824
18325SOL    HW259432   4.322   6.245   4.218  1.7888  0.5453  1.3606
18326SOL     OW59433   7.665   2.512   4.711  0.5405  0.1871  0.4762
18326SOL    HW159434   7.645   2.595   4.667  1.6423  0.5850  0.6904
18326SOL    HW259435   7.581   2.482   4.745 -0.1528  0.4116 -0.9758
18327SOL     OW59436   9.798   8.785   9.232  0.4156 -0.2841  0.0857
18327SOL    HW159437   9.767   8.864   9.276  1.2837 -1.3928  2.8985
18327SOL    HW259438   9.718   8.743   9.198 -0.3644  0.4414  0.9717
18328SOL     OW59439   4.635   9.581   5.807 -0.6098 -0.4875  0.1967
18328SOL    HW159440   4.637   9.657   5.749  1.8240 -1.0133 -0.5147
18328SOL    HW259441   4.559   9.531   5.778 -0.8230  0.4524 -0.9500
18329SOL     OW59442   4.728   8.424   2.147  0.2097 -0.5299  0.2276
18329SOL    HW159443   4.769   8.507   2.170 -0.2905 -0.5373  1.2167
18329SOL    HW259444   4.635   8.437   2.164  0.1738 -1.4106  0.7954
18330SOL     OW59445   8.611   4.446   1.148  0.0919  0.0407 -0.1850
18330SOL    HW159446   8.662   4.408   1.076 -1.8990 -1.1743 -1.0420
18330SOL    HW259447   8.677   4.477   1.210  1.9003  0.8669 -2.3488
18331SOL     OW59448   9.908   4.901   9.117  0.6115  0.5772  0.1845
18331SOL    HW159449   9.855   4.827   9.087  1.1915  0.7671 -1.3900
18331SOL    HW259450   9.997   4.865   9.126  0.8736  1.0299 -0.4702
18332SOL     OW59451   2.658   6.938   0.466  0.5701 -0.7546  0.9261
18332SOL    HW159452   2.582   6.992   0.489  2.6520  2.0283  1.8079
18332SOL    HW259453   2.689   6.974   0.383  0.5352 -2.3272  0.2135
18333SOL     OW59454   3.916   9.222  10.714 -0.0479  0.2396 -0.5486
18333SOL    HW159455   3.975   9.212  10.788 -0.7095 -0.1884 -0.0699
18333SOL    HW259456   3.857   9.147  10.719 -0.4613  0.5090 -1.1757
18334SOL     OW59457   4.618   1.387   1.163 -0.2141  0.0557  0.1967
18334SOL    HW159458   4.561   1.363   1.236  0.1862  1.5279  1.0215
18334SOL    HW259459   4.632   1.481   1.173  0.1759  0.2127 -1.5538
18335SOL     OW59460   0.347  10.210   9.159 -0.1690  0.3828  0.6168
18335SOL    HW159461   0.341  10.121   9.193  0.6524 -0.1881 -0.6655
18335SOL    HW259462   0.331  10.202   9.065 -1.9547  1.8665  0.7282
18336SOL     OW59463   6.509  10.323   8.090  0.0278  0.1651 -0.3236
18336SOL    HW159464   6.523  10.408   8.131 -0.9220 -0.0774  0.5423
18336SOL    HW259465   6.492  10.263   8.163  0.4911 -0.7382 -0.9322
18337SOL     OW59466   9.512   2.928   6.923 -0.3007  0.0662 -0.3272
18337SOL    HW159467   9.425   2.947   6.888 -1.0850 -0.9093  0.9901
18337SOL    HW259468   9.495   2.898   7.013  1.4106 -0.0649 -0.0205
18338SOL     OW59469   9.717   4.966   1.243 -0.1656 -0.1864  0.0481
18338SOL    HW159470   9.812   4.956   1.241 -0.3411 -2.7866  0.9370
18338SOL    HW259471   9.699   5.011   1.325  0.3019  0.4227 -0.1803
18339SOL     OW59472  10.321   7.493   9.352 -0.0065 -0.7396  0.1515
18339SOL    HW159473  10.369   7.557   9.404 -1.2037  1.0002 -0.7696
18339SOL    HW259474  10.301   7.423   9.413  2.5069 -0.9335  0.8756
18340SOL     OW59475   4.303  10.284   8.288 -0.2950  0.6050  0.2010
18340SOL    HW159476   4.320  10.375   8.314 -1.1077  1.2192 -1.2500
18340SOL    HW259477   4.254  10.247   8.361  1.0131  0.9622  1.3134
18341SOL     OW59478   5.704  10.133   4.160 -0.0880 -0.0338 -0.0544
18341SOL    HW159479   5.774  10.114   4.221 -1.9776 -0.8792  1.9873
18341SOL    HW259480   5.743  10.121   4.073  2.1705 -0.7119  0.9969
18342SOL     OW59481   1.295   2.412   7.179 -0.3118  0.3577  0.2786
18342SOL    HW159482   1.232   2.467   7.227 -0.7523  1.3706 -1.3522
18342SOL    HW259483   1.353   2.377   7.246 -1.4066  1.0191  1.6236
18343SOL     OW59484   8.049   8.998   4.996  0.6392 -0.1844  0.1028
18343SOL    HW159485   7.961   9.014   5.029 -0.1256 -0.4712 -1.6891
18343SOL    HW259486   8.077   9.083   4.960  0.7846 -0.2737  0.0037
18344SOL     OW59487   0.650   4.537   0.827  0.0207  0.5312 -0.4423
18344SOL    HW159488   0.608   4.618   0.798 -1.1570  0.3791  0.7702
18344SOL    HW259489   0.585   4.494   0.882  1.7401  0.2667  1.5128
18345SOL     OW59490  10.383   8.166   6.298 -0.2080  0.2195 -0.0921
18345SOL    HW159491  10.367   8.115   6.378 -0.0874  0.0852 -0.1507
18345SOL    HW259492  10.339   8.249   6.312  1.1584  0.8388  0.8050
18346SOL     OW59493   4.437   9.983   5.063 -0.2460 -0.1704  0.1486
18346SOL    HW159494   4.433   9.894   5.027 -1.3650 -0.6323  1.3633
18346SOL    HW259495   4.486   9.973   5.145 -1.4225  0.1147  0.8972
18347SOL     OW59496   6.910   6.139   0.207 -0.1596 -0.3405  0.3711
18347SOL    HW159497   6.910   6.127   0.112 -1.9540 -0.4443  0.3594
18347SOL    HW259498   6.933   6.231   0.219 -0.8285 -0.0887 -0.2143
18348SOL     OW59499   1.406  10.848   7.606 -0.2448 -0.2171  0.5429
18348SOL    HW159500   1.334  10.876   7.549 -0.5438  0.5305  1.2705
18348SOL    HW259501   1.464  10.798   7.548 -0.6640  0.3141 -0.3628
18349SOL     OW59502  10.874   7.662   3.004 -0.1587 -0.0143 -0.2269
18349SOL    HW159503  10.783   7.689   2.997  0.1200  2.0769  2.4450
18349SOL    HW259504  10.922   7.723   2.948 -0.2558 -0.1924 -0.5057
18350SOL     OW59505   9.550   5.686  10.564 -0.2591  0.2300  0.2180
18350SOL    HW159506   9.456   5.684  10.548 -0.0116 -1.4027 -1.4386
18350SOL    HW259507   9.581   5.761  10.513 -0.6849  0.9812  1.0445
18351SOL     OW59508   5.645   1.647   6.215 -0.1105  0.0895 -0.1149
18351SOL    HW159509   5.564   1.697   6.204  1.7584  3.6310  0.8033
18351SOL    HW259510   5.659   1.647   6.310  1.8098  1.1205 -0.3628
18352SOL     OW59511  10.145   4.317   5.930 -0.2641  0.0875  0.5865
18352SOL    HW159512  10.090   4.239   5.930 -1.3231  0.7368 -2.0021
18352SOL    HW259513  10.205   4.304   5.857  0.1958  1.2514  0.7407
18353SOL     OW59514   7.330   3.199   9.198  0.6338 -0.2931  0.4920
18353SOL    HW159515   7.364   3.189   9.109  0.2086  0.8764  0.1908
18353SOL    HW259516   7.339   3.292   9.217  1.1788 -0.6015  1.8685
18354SOL     OW59517  10.027   8.512   2.276  0.1287  0.9107  0.2664
18354SOL    HW159518   9.971   8.499   2.199  1.9721  0.3013 -1.0452
18354SOL    HW259519  10.000   8.443   2.337  0.5998 -0.5130 -1.0706
18355SOL     OW59520   3.694   4.967   9.064 -0.4546  0.3006 -0.4062
18355SOL    HW159521   3.701   5.014   9.147 -1.4280 -1.4068  0.6951
18355SOL    HW259522   3.670   4.878   9.089  0.9170 -0.7032 -2.4370
18356SOL     OW59523   1.150   2.729  10.918 -0.1923  0.6180 -0.6451
18356SOL    HW159524   1.226   2.692  10.962  0.5467  1.7599 -0.9122
18356SOL    HW259525   1.152   2.689  10.831 -0.1954  0.2560 -0.4806
18357SOL     OW59526   9.814  10.696   2.749 -0.2701 -0.0211 -0.1454
18357SOL    HW159527   9.841  10.693   2.658 -0.1537 -2.4550 -0.1067
18357SOL    HW259528   9.722  10.668   2.747 -0.5223  0.7295  0.4250
18358SOL     OW59529   9.029   2.536   3.259 -0.3813  0.1927 -0.0565
18358SOL    HW159530   9.082   2.527   3.180 -0.8541  0.9807 -0.4797
18358SOL    HW259531   9.061   2.468   3.318 -0.1844 -0.5592 -1.0166
18359SOL     OW59532   9.490   7.933   6.214  0.3847  0.7559 -0.5629
18359SOL    HW159533   9.453   7.851   6.245  2.0800 -0.5415 -1.7438
18359SOL    HW259534   9.516   7.979   6.294 -1.4843  0.6447  0.1650
18360SOL     OW59535   0.657   7.580   4.146 -0.6350  0.5129 -0.0903
18360SOL    HW159536   0.569   7.613   4.134 -0.1603  2.0590  0.4632
18360SOL    HW259537   0.669   7.577   4.241 -1.5957 -3.9857  0.1322
18361SOL     OW59538   4.949   8.313   5.463  0.0878 -0.1105  0.0482
18361SOL    HW159539   4.855   8.296   5.452  0.4462 -1.5876 -1.0479
18361SOL    HW259540   4.991   8.237   5.424  1.7664  0.7476  0.1248
18362SOL     OW59541   1.199   4.320   3.565 -0.9383 -0.1686 -0.3640
18362SOL    HW159542   1.206   4.414   3.546  0.0173 -0.1893 -0.1775
18362SOL    HW259543   1.203   4.314   3.660 -3.8590 -0.2074 -0.1666
18363SOL     OW59544   7.436   3.062   0.345 -0.1371 -0.1976 -0.1730
18363SOL    HW159545   7.433   3.140   0.289 -0.0571  1.6533  2.2463
18363SOL    HW259546   7.345   3.049   0.373  0.1322  0.2918  1.0029
18364SOL     OW59547   6.555   6.878   1.344 -0.2541 -0.3962  0.1290
18364SOL    HW159548   6.555   6.789   1.379 -1.6836 -0.5073 -0.1093
18364SOL    HW259549   6.467   6.890   1.308 -0.2404  1.2614  0.5548
18365SOL     OW59550   5.491   6.633   4.940  0.6376 -0.0411 -0.1893
18365SOL    HW159551   5.520   6.706   4.886  1.5870  0.8543  1.4581
18365SOL    HW259552   5.570   6.602   4.983 -0.1666 -0.2980  1.1711
18366SOL     OW59553  10.134   4.828   2.890  0.3785 -0.6031  0.5383
18366SOL    HW159554  10.098   4.859   2.806  2.5588  1.6461  0.3110
18366SOL    HW259555  10.105   4.893   2.954  2.5506  0.3871  0.6145
18367SOL     OW59556   4.776   0.899   4.970  0.3968  1.0571  0.2337
18367SOL    HW159557   4.830   0.944   5.035  0.7441  0.6362  0.2452
18367SOL    HW259558   4.824   0.818   4.952  0.0431  0.9351 -0.1677
18368SOL     OW59559   4.395   0.528   3.255  0.3809 -0.2141 -0.1321
18368SOL    HW159560   4.447   0.605   3.235  0.1204  0.3353  1.1685
18368SOL    HW259561   4.322   0.531   3.193  1.9068 -1.0748 -2.0664
18369SOL     OW59562   4.528   5.783  10.650 -0.1774  0.7435  0.2876
18369SOL    HW159563   4.524   5.702  10.700  0.2489  0.8572  0.5132
18369SOL    HW259564   4.543   5.755  10.560 -0.1270  0.5639  0.3509
18370SOL     OW59565   9.024   3.672   7.972  0.2547 -0.1171 -0.4059
18370SOL    HW159566   9.059   3.607   8.032  0.7952  0.1509 -0.4238
18370SOL    HW259567   9.090   3.681   7.904  0.1141  0.3337 -0.4904
18371SOL     OW59568   8.429   7.425   6.789 -0.5615 -0.0573 -0.0276
18371SOL    HW159569   8.413   7.459   6.877 -1.2411  0.0869 -0.2003
18371SOL    HW259570   8.358   7.461   6.736  1.0015  1.5915 -1.1051
18372SOL     OW59571   4.354   1.905   7.851 -0.1162 -0.0730  0.0639
18372SOL    HW159572   4.381   1.835   7.910 -1.3373 -0.2978  0.3946
18372SOL    HW259573   4.430   1.920   7.795  1.1493  0.2531  1.7694
18373SOL     OW59574   2.260   0.649   3.053  0.1164  0.2967  0.6045
18373SOL    HW159575   2.170   0.660   3.082  0.6855  0.2465  2.4983
18373SOL    HW259576   2.309   0.716   3.100  1.0142  0.7065 -0.8440
18374SOL     OW59577   6.374   1.466   5.288 -0.3856 -0.5204  0.2835
18374SOL    HW159578   6.322   1.408   5.233 -1.9820  0.0077  1.1725
18374SOL    HW259579   6.412   1.530   5.227 -2.8731  0.6397 -0.1930
18375SOL     OW59580  10.265   7.143   2.575 -0.3966 -0.1338  0.3298
18375SOL    HW159581  10.264   7.234   2.546  0.5007 -0.0871  0.4062
18375SOL    HW259582  10.197   7.138   2.642 -0.6589  0.4008  0.1067
18376SOL     OW59583  10.192  10.589   1.427  0.4937 -0.0398 -0.0574
18376SOL    HW159584  10.155  10.510   1.388 -0.6875 -0.3689  1.6565
18376SOL    HW259585  10.207  10.567   1.519 -0.1851  1.8264  0.5565
18377SOL     OW59586   8.127   9.546   6.510 -0.1409  0.4528 -0.2930
18377SOL    HW159587   8.092   9.600   6.439  1.1995 -0.7639 -1.9885
18377SOL    HW259588   8.179   9.607   6.563 -2.6010  1.7466  0.7986
18378SOL     OW59589   6.029   1.267   2.684  0.2690 -0.1715  0.0132
18378SOL    HW159590   5.985   1.217   2.615  1.2214  0.1263 -0.8194
18378SOL    HW259591   6.009   1.359   2.664  0.1535 -0.1066  0.4132
18379SOL     OW59592  10.267   9.206   4.084 -0.3387 -0.3976  0.0778
18379SOL    HW159593  10.322   9.281   4.107 -0.9358  0.3261 -0.7601
18379SOL    HW259594  10.237   9.171   4.168  0.2285  0.0846  0.4905
18380SOL     OW59595   1.765   5.334   4.943  0.5263 -0.0638  0.5568
18380SOL    HW159596   1.859   5.352   4.951  0.6356  0.4985 -1.3655
18380SOL    HW259597   1.758   5.281   4.863 -0.8679  0.7395  0.1191
18381SOL     OW59598   0.544   8.725   0.302 -0.1908 -0.4138  0.4158
18381SOL    HW159599   0.514   8.634   0.310 -0.7547 -0.1947  0.7932
18381SOL    HW259600   0.528   8.763   0.388  1.2444 -0.3040  0.6734
18382SOL     OW59601  10.475   8.788   7.246  0.6158  0.2337  0.3368
18382SOL    HW159602  10.482   8.721   7.178  0.4649 -0.1225  0.6641
18382SOL    HW259603  10.500   8.742   7.327  0.6439  0.6091  0.5437
18383SOL     OW59604   3.912   6.414   9.948  0.5351 -0.3497 -0.0354
18383SOL    HW159605   3.942   6.476  10.015  0.6121 -0.1875 -0.2227
18383SOL    HW259606   3.988   6.399   9.893  0.6344 -0.9226  0.2440
18384SOL     OW59607   5.621  10.173   3.382 -0.0540 -0.1660 -0.7136
18384SOL    HW159608   5.664  10.215   3.307 -0.5477 -1.8113 -1.9628
18384SOL    HW259609   5.635  10.079   3.368 -0.8373 -0.5450  0.8536
18385SOL     OW59610   9.731   9.719   2.555 -0.6981 -0.3703 -0.8114
18385SOL    HW159611   9.732   9.625   2.573 -0.1524 -0.0677  1.0296
18385SOL    HW259612   9.648   9.750   2.591 -1.0038 -0.1932 -1.6651
18386SOL     OW59613   2.047   2.637   2.236 -0.5145  0.0792 -0.4584
18386SOL    HW159614   1.990   2.644   2.160  1.0605  0.7885 -1.6311
18386SOL    HW259615   2.110   2.569   2.212  0.5110  0.8969 -0.1779
18387SOL     OW59616   1.681   2.757   3.471  0.3654  0.2020  0.2292
18387SOL    HW159617   1.630   2.687   3.430  0.8364  0.5869 -1.0766
18387SOL    HW259618   1.618   2.828   3.484 -0.0293 -0.3181  1.2006
18388SOL     OW59619   8.517   5.593   6.144  0.8397  0.4683 -0.2501
18388SOL    HW159620   8.464   5.573   6.221 -0.4863 -0.4857 -1.3515
18388SOL    HW259621   8.594   5.537   6.152  0.6693  0.3182  0.3377
18389SOL     OW59622   0.402   2.709   6.842 -0.6861 -0.5626 -0.3115
18389SOL    HW159623   0.331   2.651   6.816 -0.5774 -1.3362  0.9980
18389SOL    HW259624   0.358   2.791   6.866 -1.0382 -0.7114 -0.4421
18390SOL     OW59625  10.596   5.247   2.742 -0.3802 -0.1438  0.0939
18390SOL    HW159626  10.632   5.303   2.673  2.1515 -1.0616  0.5547
18390SOL    HW259627  10.525   5.199   2.699 -0.4147  1.0017 -1.2007
18391SOL     OW59628   4.281   3.040   6.910 -0.2536  0.1077  0.3926
18391SOL    HW159629   4.209   3.062   6.852  0.7936  0.6653 -0.7296
18391SOL    HW259630   4.300   2.948   6.892  0.5680  0.4829 -0.7353
18392SOL     OW59631   8.965   9.452   6.375 -0.8522  0.5709  0.4142
18392SOL    HW159632   8.976   9.357   6.371  0.1107  0.7016 -0.4908
18392SOL    HW259633   8.933   9.476   6.288 -0.7217  1.1184  0.5141
18393SOL     OW59634  10.299   6.780   9.486 -0.0792 -0.6647 -0.1337
18393SOL    HW159635  10.230   6.715   9.476 -1.6351  0.9427 -0.2429
18393SOL    HW259636  10.279   6.847   9.421  1.0294  0.3064  0.4864
18394SOL     OW59637   5.184   5.924   3.045  0.6748 -0.4495 -0.2063
18394SOL    HW159638   5.274   5.894   3.039  0.6384 -0.3869 -1.2139
18394SOL    HW259639   5.178   5.967   3.131  1.3241 -1.3228  0.2889
18395SOL     OW59640  10.134   2.623   7.607  0.6186  0.4073  0.1788
18395SOL    HW159641  10.137   2.673   7.526  1.3742  2.3478  1.3201
18395SOL    HW259642  10.049   2.646   7.646 -0.5868 -1.9572 -0.8373
18396SOL     OW59643   0.142   3.922   7.336 -0.0481  0.0795 -0.3308
18396SOL    HW159644   0.079   3.987   7.368 -2.5008 -1.2402 -2.1436
18396SOL    HW259645   0.191   3.968   7.268 -0.0218  0.7127  0.1026
18397SOL     OW59646   6.660   2.929   1.927  0.1181  0.4384 -0.2891
18397SOL    HW159647   6.578   2.942   1.974 -0.8678 -1.2076 -1.4374
18397SOL    HW259648   6.713   2.875   1.986 -0.4864 -0.2724 -0.3697
18398SOL     OW59649   3.056  10.865   7.987 -0.0460  0.8556 -0.2473
18398SOL    HW159650   3.066  10.769   7.988 -1.5453  0.6765  0.6614
18398SOL    HW259651   3.027  10.887   8.076 -1.3455  1.9584 -0.9157
18399SOL     OW59652   3.167   0.130   0.417  0.3708  0.3379  0.7659
18399SOL    HW159653   3.146   0.091   0.332  1.8000  2.5963 -0.7431
18399SOL    HW259654   3.084   0.128   0.466 -0.2081 -2.0494 -0.1851
18400SOL     OW59655   5.648   7.165   5.708 -0.0102 -0.0621  0.0505
18400SOL    HW159656   5.638   7.252   5.670  1.3517 -0.3104 -0.9368
18400SOL    HW259657   5.624   7.176   5.800  0.5991  1.4492  0.0522
18401SOL     OW59658   5.327   1.202   2.998 -0.0642 -0.3331 -0.0974
18401SOL    HW159659   5.395   1.242   2.943  2.2100 -1.1781  1.9464
18401SOL    HW259660   5.273   1.152   2.936  0.5942  1.0957 -1.9147
18402SOL     OW59661   8.215   9.356   0.294  0.3357 -0.0050  0.0616
18402SOL    HW159662   8.225   9.265   0.320  1.8470  0.5309  1.5538
18402SOL    HW259663   8.210   9.405   0.377 -1.3436  1.2132 -0.6933
18403SOL     OW59664   3.161   0.635   7.775 -0.3466 -0.8005 -0.0504
18403SOL    HW159665   3.170   0.541   7.762  1.3646 -0.5003 -1.4117
18403SOL    HW259666   3.221   0.655   7.848  0.4314 -0.5888 -0.7290
18404SOL     OW59667   1.067   5.842  11.039  0.4253 -0.8827 -0.1701
18404SOL    HW159668   1.020   5.873  11.116 -0.0676 -2.0099  0.0163
18404SOL    HW259669   1.109   5.761  11.068  1.7597 -0.3710 -0.5897
18405SOL     OW59670   9.147   0.943   8.706 -0.6920 -0.3712 -0.0739
18405SOL    HW159671   9.213   0.906   8.647 -0.0826 -0.5451  0.6990
18405SOL    HW259672   9.151   1.038   8.689 -1.5411 -0.5285 -1.3243
18406SOL     OW59673   5.727  10.893   9.720  0.3363  0.3217 -0.0725
18406SOL    HW159674   5.783  10.831   9.765  0.9818  0.2667 -0.9281
18406SOL    HW259675   5.777  10.920   9.643 -0.6847  0.4980 -0.7016
18407SOL     OW59676   2.407   5.237   1.071  0.1073  0.4745 -0.2562
18407SOL    HW159677   2.364   5.287   1.140 -1.3521 -0.6677 -0.2702
18407SOL    HW259678   2.424   5.300   1.001 -0.6162  1.1710  0.1869
18408SOL     OW59679  10.788   7.562   3.511  0.4475  0.4647 -0.1898
18408SOL    HW159680  10.857   7.606   3.461  1.8532 -1.4861 -0.0732
18408SOL    HW259681  10.780   7.476   3.470 -1.3470  0.3361  0.3528
18409SOL     OW59682   2.232   2.915   2.307 -0.1644  0.5220 -0.2908
18409SOL    HW159683   2.224   2.958   2.392 -2.4082 -2.1341  1.0157
18409SOL    HW259684   2.321   2.879   2.307  0.8312  2.8202 -0.3343
18410SOL     OW59685   5.799   9.127   4.353  0.5412 -0.2889  0.6098
18410SOL    HW159686   5.879   9.154   4.400  0.5439  0.6345  0.1026
18410SOL    HW259687   5.728   9.152   4.412  0.5232  1.2535 -0.0100
18411SOL     OW59688   0.222   1.027   0.100  0.4394  0.2495  0.1984
18411SOL    HW159689   0.221   0.981   0.017 -1.3671 -2.0087  1.3739
18411SOL    HW259690   0.170   1.106   0.085 -1.8186 -1.2632 -0.3005
18412SOL     OW59691   3.195   5.085   4.576 -0.4730  0.5595  0.1250
18412SOL    HW159692   3.209   5.003   4.529  1.6092 -0.3016  2.0439
18412SOL    HW259693   3.228   5.153   4.517  0.5047 -0.3009 -0.3491
18413SOL     OW59694   6.238   7.767   3.968 -0.1908  0.4522  0.1916
18413SOL    HW159695   6.241   7.791   4.060  2.3859  0.9680  0.0373
18413SOL    HW259696   6.324   7.791   3.934 -0.4727 -1.2961 -1.9607
18414SOL     OW59697   2.184  10.680   2.069  0.1639  0.3729  0.4528
18414SOL    HW159698   2.212  10.694   1.978  2.5160  1.2178  1.2240
18414SOL    HW259699   2.132  10.757   2.090 -0.5130  0.1041 -0.2109
18415SOL     OW59700   8.609   9.977   6.603  0.8152 -0.2461  0.2312
18415SOL    HW159701   8.666   9.927   6.661  0.1077 -2.1735 -0.6391
18415SOL    HW259702   8.664   9.996   6.527  0.9040 -0.2908  0.2838
18416SOL     OW59703   0.162   4.292   3.594 -0.1860  0.9433  0.1447
18416SOL    HW159704   0.256   4.278   3.593 -0.2445  0.5398 -0.4702
18416SOL    HW259705   0.145   4.339   3.676  0.5728  1.2183  0.1512
18417SOL     OW59706   0.097   4.145   3.933  0.2823  0.5078 -0.1870
18417SOL    HW159707   0.097   4.240   3.944 -1.1741  0.6186 -0.8876
18417SOL    HW259708   0.005   4.120   3.943  0.5569 -0.7578 -0.6097
18418SOL     OW59709   0.916   8.511   9.177  0.4318  0.1840  0.1256
18418SOL    HW159710   0.826   8.518   9.146  0.8189 -1.5142 -1.5476
18418SOL    HW259711   0.908   8.475   9.266 -0.5489  1.1562  0.4565
18419SOL     OW59712   1.134   3.658   8.179 -0.0619 -0.0939 -0.2770
18419SOL    HW159713   1.095   3.714   8.246  1.5338 -0.4333  0.9720
18419SOL    HW259714   1.094   3.572   8.193 -1.3451  0.3113 -1.2028
18420SOL     OW59715   8.303   3.951   2.896  1.0354  0.6107  0.3958
18420SOL    HW159716   8.275   3.943   2.987 -0.2577  0.4251  0.0045
18420SOL    HW259717   8.311   3.861   2.866 -1.8099  0.5603 -0.5789
18421SOL     OW59718   4.313   7.403   4.381 -0.5068  0.2709  0.6659
18421SOL    HW159719   4.223   7.411   4.411 -0.6515  0.5671  0.1544
18421SOL    HW259720   4.311   7.427   4.289 -0.3097 -2.0165  0.0126
18422SOL     OW59721   7.970   9.236   1.928  0.0446  0.0859 -0.2103
18422SOL    HW159722   8.020   9.288   1.865 -0.9316  1.1438 -0.1279
18422SOL    HW259723   7.951   9.296   2.000 -1.7852 -0.1317 -0.4734
18423SOL     OW59724   6.073   1.227   0.638 -0.0792  0.0791 -0.0588
18423SOL    HW159725   6.103   1.173   0.712 -1.2007  0.1483  0.4759
18423SOL    HW259726   6.115   1.188   0.561  0.0388 -0.8521  0.4585
18424SOL     OW59727   4.587   0.875   2.323 -0.7884 -0.4070  0.0931
18424SOL    HW159728   4.625   0.903   2.406 -1.2760  0.7607 -0.0507
18424SOL    HW259729   4.493   0.867   2.341 -0.7378 -1.4298 -0.0268
18425SOL     OW59730  10.185   1.389   0.462 -0.0483  0.1116 -0.5729
18425SOL    HW159731  10.260   1.434   0.501 -0.4255 -0.0254  0.3397
18425SOL    HW259732  10.214   1.366   0.374  0.7529  0.6214 -0.4540
18426SOL     OW59733   2.744   1.650   4.030  0.2199 -0.0478 -0.5592
18426SOL    HW159734   2.725   1.569   3.984 -0.3477 -0.2120 -0.0509
18426SOL    HW259735   2.824   1.632   4.079 -1.7226 -1.5572  2.3746
18427SOL     OW59736   4.497   9.079   7.391  0.0817  0.0620 -0.6460
18427SOL    HW159737   4.554   9.026   7.337 -0.6884 -0.8531 -0.5867
18427SOL    HW259738   4.553   9.111   7.462  1.1548  1.4872 -2.0852
18428SOL     OW59739   9.604   0.161   0.880 -0.3102  0.6675 -0.4133
18428SOL    HW159740   9.684   0.109   0.882 -0.5068  0.3453 -0.8414
18428SOL    HW259741   9.633   0.250   0.900 -0.0716  0.2831  1.1307
18429SOL     OW59742  11.016   7.704   1.962  0.2989  0.0732 -0.1152
18429SOL    HW159743  11.056   7.621   1.987  0.0318 -0.4548 -1.3679
18429SOL    HW259744  11.091   7.759   1.935  0.4766  0.2720  0.7417
18430SOL     OW59745   3.423   2.297   4.087 -0.1146  0.2607  0.4429
18430SOL    HW159746   3.394   2.385   4.113  0.1389  0.8584 -1.2134
18430SOL    HW259747   3.501   2.282   4.140 -0.2224  0.9868  0.8286
18431SOL     OW59748  11.032   2.784   2.107 -0.4614 -0.4424  0.4270
18431SOL    HW159749  10.938   2.799   2.105 -0.1240  1.9524 -1.4169
18431SOL    HW259750  11.071   2.872   2.113  1.6689 -1.2615 -0.3278
18432SOL     OW59751   7.665  10.630   8.115 -0.2679 -0.1581 -0.4883
18432SOL    HW159752   7.743  10.637   8.169 -2.4067  2.1541  2.6800
18432SOL    HW259753   7.668  10.707   8.058  0.2637 -0.6815 -1.1835
18433SOL     OW59754   4.071  10.510   4.930 -0.5150  0.5907 -0.3574
18433SOL    HW159755   4.031  10.508   4.843  0.1192  0.0110 -0.6436
18433SOL    HW259756   4.162  10.537   4.914 -0.9580  2.7282  0.3692
18434SOL     OW59757   7.246   1.188   7.536 -0.3030  0.4167 -0.1365
18434SOL    HW159758   7.266   1.254   7.469  0.6194  0.2145 -0.0719
18434SOL    HW259759   7.331   1.159   7.568 -0.6677 -1.0590 -0.4095
18435SOL     OW59760   7.382   5.339   6.188 -0.1891 -0.0408 -0.2858
18435SOL    HW159761   7.379   5.425   6.147  1.3314  0.0743 -0.2297
18435SOL    HW259762   7.302   5.335   6.241  0.6976  2.2220  1.3814
18436SOL     OW59763   0.904   5.958   5.023 -0.1961 -0.4694  0.5202
18436SOL    HW159764   0.825   5.908   5.003 -1.9481  2.0744  0.5969
18436SOL    HW259765   0.941   5.980   4.938 -0.8160  0.1155  0.3873
18437SOL     OW59766   4.745   9.311   3.450  0.2746  0.1212  0.6091
18437SOL    HW159767   4.774   9.272   3.367  1.3840  2.0488  0.0242
18437SOL    HW259768   4.666   9.360   3.427  0.6211  0.7115  0.6628
18438SOL     OW59769   2.364   0.739   8.237  0.4332 -0.4896 -0.4215
18438SOL    HW159770   2.359   0.757   8.331  0.9686 -0.3717 -0.4153
18438SOL    HW259771   2.446   0.778   8.209  0.3316 -0.6267 -0.9195
18439SOL     OW59772  10.354   2.705   2.334 -0.0994  0.2310 -0.2065
18439SOL    HW159773  10.439   2.695   2.376 -0.4650  0.1426  0.5327
18439SOL    HW259774  10.296   2.647   2.383 -0.4844 -0.0809 -1.0083
18440SOL     OW59775   8.669   0.412   0.121 -0.0242  0.4464 -0.3895
18440SOL    HW159776   8.703   0.343   0.065 -0.2557  0.9948 -1.2129
18440SOL    HW259777   8.574   0.399   0.122  0.0006  0.2895  0.0739
18441SOL     OW59778   2.426   6.982   3.057  0.3283  0.1859  0.1773
18441SOL    HW159779   2.487   6.944   2.994 -1.6780 -2.3323 -0.4140
18441SOL    HW259780   2.384   7.054   3.010 -0.9179 -1.4655 -1.3672
18442SOL     OW59781   4.653   2.439   3.881 -0.5823  0.5239 -0.0381
18442SOL    HW159782   4.645   2.373   3.812 -0.0739  0.0528  0.3377
18442SOL    HW259783   4.673   2.388   3.960  1.7688  1.2385 -0.1030
18443SOL     OW59784   1.781   2.514  10.430  0.1343 -0.1144 -0.1587
18443SOL    HW159785   1.760   2.429  10.392 -0.5853 -0.8775  1.8185
18443SOL    HW259786   1.705   2.534  10.485  0.3603  1.7529 -0.4760
18444SOL     OW59787   8.384   1.438   0.475  0.1243 -0.3449  0.1734
18444SOL    HW159788   8.443   1.412   0.405  0.1029 -0.4696  0.2012
18444SOL    HW259789   8.298   1.441   0.434  0.0512 -0.8167  0.2909
18445SOL     OW59790  10.059  10.562   4.981 -0.5459 -0.3314 -0.0210
18445SOL    HW159791  10.039  10.550   5.074 -1.8506 -0.0852 -0.2471
18445SOL    HW259792  10.121  10.635   4.979 -0.4117 -0.4180  0.6578
18446SOL     OW59793   6.307   8.408   3.235 -0.4842 -0.2661 -0.1267
18446SOL    HW159794   6.245   8.393   3.163 -0.4277  0.1738 -0.2705
18446SOL    HW259795   6.351   8.324   3.246 -1.4017 -0.7111  0.2670
18447SOL     OW59796  10.583   1.596   3.231 -0.4066  0.2128  0.4371
18447SOL    HW159797  10.543   1.679   3.207 -2.7224 -0.9733 -0.0771
18447SOL    HW259798  10.544   1.532   3.172  2.7049 -1.0361 -0.4762
18448SOL     OW59799   5.451   5.802  10.796  0.0329  0.5469  0.2304
18448SOL    HW159800   5.546   5.800  10.780 -0.0393 -0.5267 -0.1218
18448SOL    HW259801   5.412   5.817  10.710 -0.1610 -0.1521  0.1953
18449SOL     OW59802   1.284   3.744   7.962 -0.1584 -0.7904 -1.1016
18449SOL    HW159803   1.190   3.762   7.958 -0.2132 -0.7482  0.0069
18449SOL    HW259804   1.292   3.670   8.023  0.5859 -0.3300 -0.6263
18450SOL     OW59805   7.204   0.867   9.906 -0.1709  0.5049 -1.0511
18450SOL    HW159806   7.119   0.848   9.865 -1.8347  4.1851  0.1943
18450SOL    HW259807   7.186   0.942   9.963  3.6206  0.3632  0.6125
18451SOL     OW59808   9.722   5.988   7.104  0.1489  0.3790  0.3666
18451SOL    HW159809   9.720   5.895   7.126  0.2338  0.3392  0.2109
18451SOL    HW259810   9.710   5.990   7.009  0.2978  0.5184  0.3496
18452SOL     OW59811   9.223   5.717   8.757  0.1250 -0.3879  0.1743
18452SOL    HW159812   9.254   5.779   8.823 -0.4468 -0.9440  0.9802
18452SOL    HW259813   9.153   5.763   8.712  1.2621  0.4164 -0.8314
18453SOL     OW59814   3.697   9.701   7.661 -0.0888  0.1003 -0.0920
18453SOL    HW159815   3.789   9.673   7.657 -0.2216 -0.4418  0.5496
18453SOL    HW259816   3.689   9.766   7.591  0.5613 -0.5076 -0.7469
18454SOL     OW59817   1.742   9.478   5.277  0.2831 -0.3092  0.4673
18454SOL    HW159818   1.774   9.398   5.319  1.9242  0.5251  0.8889
18454SOL    HW259819   1.647   9.469   5.277  0.4351 -2.3066  0.3912
18455SOL     OW59820   3.885   9.918   6.884 -0.0750  0.1582  0.1440
18455SOL    HW159821   3.965   9.909   6.934 -0.4203 -1.8134  0.4262
18455SOL    HW259822   3.909   9.970   6.807  1.8387 -1.5321 -0.4873
18456SOL     OW59823   5.977   9.266   7.303  0.6977 -0.2212  0.4825
18456SOL    HW159824   6.018   9.287   7.387 -0.3703  1.8805  0.5338
18456SOL    HW259825   5.884   9.285   7.316  0.6734  1.3166 -1.5053
18457SOL     OW59826   2.399   2.632   7.712  0.2486  0.3827 -0.2221
18457SOL    HW159827   2.421   2.545   7.680  0.4782  0.5285 -0.4660
18457SOL    HW259828   2.348   2.616   7.791 -1.0713 -0.0010 -1.1107
18458SOL     OW59829   9.769   3.993   3.559 -0.0306  0.4193 -0.7482
18458SOL    HW159830   9.794   3.915   3.609 -1.9491  0.0055 -0.3551
18458SOL    HW259831   9.787   3.970   3.468 -0.2009 -0.3334 -0.5979
18459SOL     OW59832   6.603   2.397   8.097 -0.6100 -0.2451  0.0896
18459SOL    HW159833   6.693   2.421   8.116 -0.7824  0.2921  0.2419
18459SOL    HW259834   6.555   2.415   8.179 -0.8481 -0.5653  0.0249
18460SOL     OW59835   2.040   7.269   2.606 -0.5738  0.1954  0.0977
18460SOL    HW159836   2.029   7.213   2.683  2.1425  2.8402  2.6654
18460SOL    HW259837   2.059   7.207   2.535  0.2024 -2.2877  2.2883
18461SOL     OW59838   4.638   1.943  10.423  0.1048 -0.0180 -0.1362
18461SOL    HW159839   4.650   2.010  10.356  0.3289 -0.3663 -0.4511
18461SOL    HW259840   4.629   1.991  10.505  0.1844  0.3965 -0.3715
18462SOL     OW59841   0.251   7.112   6.761 -0.1592  0.2351 -0.3293
18462SOL    HW159842   0.278   7.195   6.799  1.6564  0.9430 -2.8194
18462SOL    HW259843   0.329   7.056   6.768 -0.5588 -0.4067 -0.8180
18463SOL     OW59844   5.819   8.169   3.735  0.2128 -0.1336 -0.4736
18463SOL    HW159845   5.899   8.137   3.774  0.0732  0.4238  0.2897
18463SOL    HW259846   5.760   8.185   3.809 -0.9360 -1.4076 -1.0769
18464SOL     OW59847   8.202   2.418   4.797  0.9379  0.4669  0.5748
18464SOL    HW159848   8.245   2.335   4.817  0.3403 -0.1527 -0.6139
18464SOL    HW259849   8.112   2.395   4.777  0.8241  1.3656 -0.0200
18465SOL     OW59850   4.201   4.773   0.688  0.1411  0.2500 -0.5154
18465SOL    HW159851   4.151   4.699   0.653 -0.7460  1.1715 -1.2452
18465SOL    HW259852   4.143   4.848   0.678  1.7772  1.4144 -1.6810
18466SOL     OW59853   6.001   2.377   5.769 -0.5579 -0.3741  0.2507
18466SOL    HW159854   6.067   2.309   5.755  0.4410  0.3000  1.4634
18466SOL    HW259855   5.934   2.360   5.703 -0.0620 -2.1903  0.1779
18467SOL     OW59856   4.037   1.439   4.323 -1.0308 -0.2295 -0.0723
18467SOL    HW159857   4.022   1.534   4.332  0.2614 -0.0748  0.8087
18467SOL    HW259858   4.063   1.428   4.231  2.5206  0.9170  0.6408
18468SOL     OW59859  10.292   8.255   7.320 -0.3178  0.3730 -0.0707
18468SOL    HW159860  10.341   8.222   7.395  1.4814  1.3360 -0.7715
18468SOL    HW259861  10.322   8.345   7.309 -0.3154  0.1701 -2.0963
18469SOL     OW59862   0.676   9.312   0.873  0.1437  0.3325  0.0544
18469SOL    HW159863   0.635   9.372   0.935 -0.7797 -1.4269  1.2280
18469SOL    HW259864   0.769   9.310   0.898  0.2629  1.5049 -0.2391
18470SOL     OW59865   3.385   9.447   5.777 -0.4051  0.3443 -0.1615
18470SOL    HW159866   3.422   9.404   5.854  2.0180  0.1553 -1.3262
18470SOL    HW259867   3.454   9.439   5.711 -2.0741  1.2320 -2.0935
18471SOL     OW59868   4.976   9.237   2.040 -0.3345  0.0478 -0.2725
18471SOL    HW159869   4.914   9.207   2.107 -1.1223 -0.0189 -1.0039
18471SOL    HW259870   4.976   9.332   2.049 -0.9248  0.0827 -0.5771
18472SOL     OW59871   0.253   0.027   7.335 -0.6130  0.2976 -0.0240
18472SOL    HW159872   0.323   0.054   7.276 -0.1340  0.3342  0.5482
18472SOL    HW259873   0.261  -0.068   7.341 -1.4934  0.1441 -1.0369
18473SOL     OW59874   2.995   7.453   2.418  0.3183  0.0482  0.6906
18473SOL    HW159875   2.941   7.515   2.468  0.1775  0.6381 -0.1770
18473SOL    HW259876   3.067   7.507   2.385  1.1834 -0.6228  1.4063
18474SOL     OW59877   3.589   1.929   5.084 -1.0255 -0.2601 -0.3869
18474SOL    HW159878   3.520   1.863   5.087 -1.5891  0.3001 -0.7249
18474SOL    HW259879   3.615   1.941   5.176 -1.7963 -0.0516 -0.1885
18475SOL     OW59880   6.519   9.040   2.317 -0.0578 -0.2471 -0.0971
18475SOL    HW159881   6.601   9.063   2.360  0.6994 -0.8316 -1.1869
18475SOL    HW259882   6.489   8.961   2.362  0.3087 -0.3999 -0.1231
18476SOL     OW59883   2.120   1.596   7.888  0.1205  0.5568  0.0842
18476SOL    HW159884   2.180   1.651   7.940  2.0004 -2.1477  0.9882
18476SOL    HW259885   2.050   1.573   7.950  0.4511  0.2546  0.3521
18477SOL     OW59886  10.404   0.085   2.530  0.1606  0.2569 -0.4413
18477SOL    HW159887  10.425   0.168   2.573  0.1993  0.1475 -0.2517
18477SOL    HW259888  10.390   0.109   2.438  0.4563  0.4276 -0.4409
18478SOL     OW59889   2.209   9.923   4.956 -0.6574 -0.0565 -0.4374
18478SOL    HW159890   2.164   9.840   4.972  0.5106 -0.7341 -0.6161
18478SOL    HW259891   2.196   9.973   5.037 -0.2424 -0.9361  0.1818
18479SOL     OW59892   9.399  11.010   5.502 -0.0003 -0.0855  0.5027
18479SOL    HW159893   9.406  11.105   5.517  2.4193  0.2583 -2.0093
18479SOL    HW259894   9.468  10.972   5.557 -0.6178 -0.3542  1.1014
18480SOL     OW59895   4.665   7.554   3.572 -0.0282  0.7215 -0.0361
18480SOL    HW159896   4.749   7.538   3.529 -0.8420 -0.4787 -1.2836
18480SOL    HW259897   4.611   7.478   3.547 -0.7966  0.3366  2.5307
18481SOL     OW59898  10.998   7.358  10.589  0.1437 -0.8208 -0.2057
18481SOL    HW159899  11.081   7.368  10.543 -0.8827  0.2477 -1.9333
18481SOL    HW259900  10.942   7.313  10.526 -1.1495  0.2134  0.1743
18482SOL     OW59901   0.930   6.936   7.363  0.2629  0.1762  0.2044
18482SOL    HW159902   0.841   6.971   7.368  0.1816  0.1249 -0.8033
18482SOL    HW259903   0.959   6.955   7.274  2.0069  1.9796  1.0783
18483SOL     OW59904   3.479   5.186   0.936  0.0204 -0.0015 -0.2429
18483SOL    HW159905   3.386   5.167   0.922  0.0592 -0.4304  0.0588
18483SOL    HW259906   3.483   5.281   0.939 -0.5116  0.0107  0.4015
18484SOL     OW59907  10.616   0.293   9.979  0.8311 -0.4341  0.3037
18484SOL    HW159908  10.607   0.199   9.995  0.4736 -0.3832  0.4115
18484SOL    HW259909  10.683   0.299   9.911  1.7447 -0.7008  1.1496
18485SOL     OW59910   9.872   1.034  10.800 -0.2588  0.1358 -0.3796
18485SOL    HW159911   9.893   1.030  10.893 -1.3746 -0.6353 -0.1397
18485SOL    HW259912   9.946   0.993  10.756 -1.1637 -2.5576  0.4336
18486SOL     OW59913   9.337  10.323   6.785 -0.0744 -0.2930 -0.5977
18486SOL    HW159914   9.413  10.359   6.740  0.3843 -0.5484 -0.0498
18486SOL    HW259915   9.372  10.289   6.868 -0.8342 -0.1320 -0.1942
18487SOL     OW59916   1.223   6.333   3.294 -0.5896  0.1335  0.0080
18487SOL    HW159917   1.224   6.308   3.202  1.0464  1.2855 -0.3340
18487SOL    HW259918   1.266   6.260   3.339  0.6258  0.5607 -0.4466
18488SOL     OW59919   2.637   2.341   1.312  0.0041  0.2885 -0.2931
18488SOL    HW159920   2.694   2.299   1.248  1.9683 -1.1694  2.2182
18488SOL    HW259921   2.622   2.429   1.278  0.7217 -0.5004 -2.8286
18489SOL     OW59922   8.400   5.163   4.311 -0.1175  0.4931 -0.3389
18489SOL    HW159923   8.346   5.205   4.243 -0.9737  0.1769  0.1360
18489SOL    HW259924   8.401   5.071   4.287  1.5340  0.6932 -1.2211
18490SOL     OW59925   5.770  10.845   9.119 -0.0444 -0.4174 -0.0959
18490SOL    HW159926   5.718  10.767   9.135 -0.3452 -0.4282 -1.0763
18490SOL    HW259927   5.845  10.836   9.178 -1.2179 -0.3024  1.4884
18491SOL     OW59928   1.279   8.540   1.859 -0.0684 -0.4565 -0.4427
18491SOL    HW159929   1.225   8.587   1.922  0.8042 -1.3933  1.0574
18491SOL    HW259930   1.241   8.562   1.774 -1.3982  0.6864  0.4063
18492SOL     OW59931   0.142   7.824   3.336 -0.0733 -0.1142  0.3627
18492SOL    HW159932   0.098   7.825   3.421 -0.0421 -1.1445  0.4008
18492SOL    HW259933   0.074   7.846   3.273 -0.4375 -0.7725  0.5190
18493SOL     OW59934   4.771   4.472  10.603  0.3751  0.5596  0.8275
18493SOL    HW159935   4.852   4.438  10.639  0.1867  0.3670  1.0707
18493SOL    HW259936   4.704   4.451  10.668 -0.0052  0.0214  0.2739
18494SOL     OW59937   9.879   6.756   5.434  0.3314  0.3549 -0.2689
18494SOL    HW159938   9.848   6.666   5.449  1.6163 -0.1133 -0.3329
18494SOL    HW259939   9.826   6.809   5.494  0.5879 -0.6315  0.8753
18495SOL     OW59940   1.998   4.888   0.102 -0.3233  0.2609 -0.0007
18495SOL    HW159941   2.002   4.853   0.012 -1.2920 -0.8482  0.3598
18495SOL    HW259942   1.917   4.939   0.104 -2.3004 -2.6680  1.1761
18496SOL     OW59943   1.063   8.333   5.331  0.2186 -0.0157  0.4269
18496SOL    HW159944   1.092   8.335   5.422 -0.0374  0.4663  0.4992
18496SOL    HW259945   1.041   8.424   5.310 -0.8614 -0.2956  0.2570
18497SOL     OW59946   3.063   4.625   3.331  0.0326 -0.0926  0.4607
18497SOL    HW159947   3.102   4.541   3.355  0.6315  0.1168  0.2419
18497SOL    HW259948   3.050   4.619   3.237 -0.2460 -0.0642  0.4950
18498SOL     OW59949   2.933   9.900   3.775  0.0985  0.1966 -0.4874
18498SOL    HW159950   2.913   9.978   3.724  1.0676 -0.8188 -2.5381
18498SOL    HW259951   2.861   9.840   3.757  1.4081 -0.9003 -2.3465
18499SOL     OW59952   7.923   4.774  10.384 -0.5949  0.4546 -0.5207
18499SOL    HW159953   7.875   4.736  10.458 -0.5414 -0.2297 -0.8287
18499SOL    HW259954   7.892   4.725  10.308 -0.0603  0.6178 -0.8473
18500SOL     OW59955   6.439  10.361  10.053  0.1158 -0.3454  0.1737
18500SOL    HW159956   6.534  10.369  10.060  0.0370 -0.0139  1.0363
18500SOL    HW259957   6.421  10.268  10.067  0.3345 -0.4588 -0.3016
18501SOL     OW59958   1.571   3.849   0.604  0.1626 -0.0289  0.5914
18501SOL    HW159959   1.586   3.838   0.511  0.6799 -2.4315  0.8822
18501SOL    HW259960   1.487   3.806   0.620  0.3520 -0.1554  1.3155
18502SOL     OW59961   7.275   8.456   1.788 -0.8020 -0.4670 -0.1451
18502SOL    HW159962   7.322   8.418   1.715 -1.2173 -1.8445  0.2650
18502SOL    HW259963   7.184   8.461   1.758 -0.7311  0.3403 -0.2385
18503SOL     OW59964   9.375   8.058   4.730 -0.1480 -0.2455 -0.3718
18503SOL    HW159965   9.290   8.098   4.711 -0.5808 -1.0150 -0.1037
18503SOL    HW259966   9.417   8.048   4.645 -0.8641 -1.0304 -0.6345
18504SOL     OW59967   6.713   2.140   8.502  0.1585 -0.4822 -0.2580
18504SOL    HW159968   6.678   2.225   8.527  1.5539 -0.1733  0.7579
18504SOL    HW259969   6.744   2.152   8.412 -0.6101 -0.2294 -0.4912
18505SOL     OW59970   1.879   8.199   1.208 -0.0001 -0.1199  0.7408
18505SOL    HW159971   1.811   8.248   1.163  0.3615 -0.2738  0.0081
18505SOL    HW259972   1.834   8.154   1.279 -0.5593  0.2129  0.5997
18506SOL     OW59973   0.912   0.979   1.954 -0.3927  0.4833 -0.5058
18506SOL    HW159974   0.978   0.941   1.895 -0.8482 -0.2969 -0.5300
18506SOL    HW259975   0.905   0.916   2.025 -0.4982  0.9850 -0.0676
18507SOL     OW59976   2.846   1.801   5.545 -0.0150 -0.1711  0.2046
18507SOL    HW159977   2.786   1.804   5.470  1.1839  0.0355 -0.7676
18507SOL    HW259978   2.800   1.848   5.615 -0.7235  0.5180 -0.7150
18508SOL     OW59979   2.354   4.038   8.936 -0.3443  0.1019  0.5697
18508SOL    HW159980   2.376   4.116   8.887 -2.1115  0.2223 -0.1164
18508SOL    HW259981   2.340   3.970   8.870 -3.1747  0.3751  0.7673
18509SOL     OW59982   6.720   4.309   8.339 -0.1601 -0.5539 -0.3251
18509SOL    HW159983   6.780   4.330   8.410 -0.7851 -1.0963  0.3807
18509SOL    HW259984   6.751   4.361   8.265  1.0326 -0.6518  0.0866
18510SOL     OW59985   8.269   4.398   9.082  0.0456 -0.4649 -0.4504
18510SOL    HW159986   8.317   4.327   9.124 -0.5518 -0.9980 -0.6591
18510SOL    HW259987   8.177   4.379   9.099 -0.0940  1.2655  1.0954
18511SOL     OW59988   3.565   3.833   3.068  0.6570 -0.1136 -0.0671
18511SOL    HW159989   3.649   3.796   3.095  0.6876 -0.6619 -0.8789
18511SOL    HW259990   3.587   3.921   3.037  1.0201 -0.4519 -0.7851
18512SOL     OW59991   1.323   3.739   0.623 -0.4581  0.1656  0.2112
18512SOL    HW159992   1.244   3.716   0.574 -0.0895 -1.9174  0.4996
18512SOL    HW259993   1.324   3.678   0.697  0.4398  1.4253  1.2881
18513SOL     OW59994   8.101   8.500   5.182  0.0416  0.0594 -0.2277
18513SOL    HW159995   8.072   8.583   5.143  1.1318  0.4992 -0.1457
18513SOL    HW259996   8.020   8.459   5.214 -0.4804  1.2481  0.0343
18514SOL     OW59997   9.055  10.427   8.522  0.2832 -0.6681  0.3309
18514SOL    HW159998   9.108  10.478   8.583  0.1750  2.2587 -1.8128
18514SOL    HW259999   8.984  10.392   8.576  0.7279  0.9351  2.0583
18515SOL     OW60000   1.527   1.789   8.554 -0.2605  0.4623  0.1769
18515SOL    HW160001   1.564   1.774   8.467  1.3573  0.7202  0.7741
18515SOL    HW260002   1.517   1.701   8.591 -1.7480  0.2939 -0.5341
18516SOL     OW60003   6.469   4.462   4.151  0.5170  0.1803 -0.1286
18516SOL    HW160004   6.546   4.419   4.113  0.7661  1.0372 -0.6097
18516SOL    HW260005   6.505   4.512   4.225  0.3352  0.1493 -0.0191
18517SOL     OW60006   6.062   2.309   3.859  0.0440  0.1207 -0.1116
18517SOL    HW160007   6.129   2.378   3.863 -0.6140  0.7052  1.1009
18517SOL    HW260008   5.980   2.356   3.847 -0.2220 -0.5744 -1.1198
18518SOL     OW60009   1.695   1.784   9.822  0.2025 -0.4205  0.0107
18518SOL    HW160010   1.698   1.813   9.914 -1.4193  0.7064 -0.2368
18518SOL    HW260011   1.665   1.693   9.826  0.2663 -0.4191  0.6051
18519SOL     OW60012   1.081   0.868   4.640  0.1145 -0.4201  0.2283
18519SOL    HW160013   1.114   0.958   4.636  1.1964 -0.7821  0.6346
18519SOL    HW260014   0.986   0.877   4.642  0.2017  0.6962 -0.1268
18520SOL     OW60015   8.999   4.107   4.616  0.7143  0.0440 -0.0790
18520SOL    HW160016   8.954   4.073   4.539 -0.1425 -1.0224  0.8335
18520SOL    HW260017   9.020   4.029   4.667 -1.0543  0.8049  1.9730
18521SOL     OW60018   0.157   5.644   5.980  0.4072 -0.8339  0.6085
18521SOL    HW160019   0.212   5.717   6.009 -0.1235  0.7917 -2.1206
18521SOL    HW260020   0.076   5.654   6.030  1.4834 -1.6096  2.6409
18522SOL     OW60021   1.926   2.736   5.632 -0.4474 -0.3436  0.7885
18522SOL    HW160022   1.940   2.829   5.648 -1.3783  0.1405 -0.9571
18522SOL    HW260023   1.915   2.698   5.719  0.5523  1.0613  1.5607
18523SOL     OW60024   8.951   4.922  10.472 -0.4664  0.0096  0.1932
18523SOL    HW160025   8.958   4.939  10.566  0.4601 -1.5253  0.4379
18523SOL    HW260026   9.037   4.946  10.437  0.3854 -2.4934  0.3305
18524SOL     OW60027   3.520   7.638   7.603  0.2432 -0.0086 -0.3672
18524SOL    HW160028   3.562   7.692   7.537  2.0229 -0.4267  0.3606
18524SOL    HW260029   3.534   7.548   7.574 -1.8789 -0.1719 -1.0857
18525SOL     OW60030   6.577   9.414   3.969  0.0811  0.2928 -0.3664
18525SOL    HW160031   6.619   9.492   4.004 -0.2149 -0.6954  2.5009
18525SOL    HW260032   6.534   9.443   3.889  1.9837  2.4597 -0.6890
18526SOL     OW60033   4.837   5.229   9.533  0.5198  0.2314  0.3071
18526SOL    HW160034   4.827   5.287   9.458 -1.1849 -1.2649 -0.7064
18526SOL    HW260035   4.928   5.198   9.526  0.5176  0.4276 -0.9276
18527SOL     OW60036   9.140   7.187   8.482  0.3525 -0.2697 -0.0513
18527SOL    HW160037   9.076   7.117   8.478  1.5986 -1.4849  0.5407
18527SOL    HW260038   9.181   7.187   8.396  1.2868 -1.2037  0.3780
18528SOL     OW60039   4.417   9.182   7.864 -0.2200  0.1362 -0.3585
18528SOL    HW160040   4.366   9.137   7.797 -0.9650 -0.7646  0.7903
18528SOL    HW260041   4.375   9.268   7.872 -1.0522 -0.2910 -0.0175
18529SOL     OW60042  10.196   4.539   3.928  0.3903 -0.1830 -0.1432
18529SOL    HW160043  10.113   4.585   3.939  0.1773 -0.2116 -1.3973
18529SOL    HW260044  10.235   4.579   3.850  1.5357 -0.1995  0.4050
18530SOL     OW60045   3.669   2.399  10.955 -0.1429  0.3124 -0.2445
18530SOL    HW160046   3.687   2.470  10.893  0.5097  0.0276 -0.3929
18530SOL    HW260047   3.578   2.374  10.938  0.1848 -0.1279 -1.4815
18531SOL     OW60048   6.475   1.609   4.069  0.2123 -0.0467 -0.4137
18531SOL    HW160049   6.521   1.557   4.135  0.8510 -0.9180 -1.5051
18531SOL    HW260050   6.426   1.545   4.018  0.1222  0.5510 -1.0928
18532SOL     OW60051   2.862   4.297   5.369 -0.1702  0.2540  0.0611
18532SOL    HW160052   2.926   4.308   5.439 -0.2897 -0.2283  0.2473
18532SOL    HW260053   2.837   4.386   5.344 -0.3856  0.4236  0.8661
18533SOL     OW60054   8.245   4.000   5.376 -0.0424 -0.0860  0.3084
18533SOL    HW160055   8.157   4.016   5.341 -1.0432 -0.1389  2.6236
18533SOL    HW260056   8.266   3.911   5.348 -1.2881 -0.5517  0.7909
18534SOL     OW60057   9.518   4.834   5.711  0.6188  0.1701  0.5363
18534SOL    HW160058   9.559   4.918   5.691  0.2598  0.7107  1.8952
18534SOL    HW260059   9.440   4.858   5.762  0.0422 -0.9538  0.2055
18535SOL     OW60060   7.971   8.483   8.998 -0.2054 -0.1874  0.4217
18535SOL    HW160061   8.013   8.468   9.083 -0.0344 -0.8387  0.2288
18535SOL    HW260062   7.886   8.521   9.020  1.0303  2.5992  0.7804
18536SOL     OW60063   5.671   7.849   5.567 -0.0245  0.5045  0.8198
18536SOL    HW160064   5.709   7.936   5.564 -0.9842  0.9314  0.6961
18536SOL    HW260065   5.746   7.790   5.563  0.6238  1.3176  0.7062
18537SOL     OW60066   8.933   6.635   7.622 -0.1890 -0.0913 -0.0562
18537SOL    HW160067   8.996   6.563   7.618  1.8999  1.6669 -0.6550
18537SOL    HW260068   8.900   6.633   7.711 -0.5898 -2.0809 -0.2071
18538SOL     OW60069   0.694   2.458   9.724  0.2072  0.4947 -0.2441
18538SOL    HW160070   0.744   2.539   9.727 -2.1996  2.0990 -0.4107
18538SOL    HW260071   0.702   2.428   9.633  0.7038  0.8238 -0.3091
18539SOL     OW60072   6.551   7.008   5.649  0.0529 -0.0536 -0.8393
18539SOL    HW160073   6.554   6.931   5.593  0.6855 -0.6823  0.0288
18539SOL    HW260074   6.600   7.075   5.600  0.1973 -0.4478 -1.2410
18540SOL     OW60075   5.807  10.764   0.703  0.0994  0.0240  0.2420
18540SOL    HW160076   5.790  10.683   0.654  1.1657 -1.7114  2.5350
18540SOL    HW260077   5.891  10.748   0.746  0.2755  2.3390  0.8488
18541SOL     OW60078   5.620   8.756   7.624 -0.2122  0.2949  0.6974
18541SOL    HW160079   5.592   8.822   7.561  0.0073 -0.2965 -0.0407
18541SOL    HW260080   5.662   8.688   7.570  0.3756 -0.0129  1.5247
18542SOL     OW60081   0.935   5.190   1.915  0.0644  0.8424 -0.1141
18542SOL    HW160082   0.956   5.108   1.872  1.3883  0.7304  0.6911
18542SOL    HW260083   0.888   5.165   1.994 -0.8832  0.9629 -0.6197
18543SOL     OW60084   6.827   1.152   1.704  0.1522 -0.5790  0.4316
18543SOL    HW160085   6.851   1.243   1.686 -1.0345 -0.3016  0.1570
18543SOL    HW260086   6.882   1.100   1.646  2.4749 -0.2138  2.1562
18544SOL     OW60087   2.484   2.885   7.428 -0.2474 -0.7154 -0.1748
18544SOL    HW160088   2.507   2.884   7.520  1.9546 -1.6001 -0.6813
18544SOL    HW260089   2.388   2.892   7.427 -0.2370  0.7421  2.1220
18545SOL     OW60090  10.228   3.005   7.279  0.1216 -0.3766  0.2314
18545SOL    HW160091  10.209   3.046   7.194  1.1949 -0.4408 -0.0509
18545SOL    HW260092  10.169   3.049   7.340  0.6548  1.0181 -0.2180
18546SOL     OW60093  10.783   2.322   8.592  0.2013 -0.1370  0.0457
18546SOL    HW160094  10.696   2.286   8.607  1.0148 -1.2872  2.4718
18546SOL    HW260095  10.768   2.399   8.536 -2.0915 -1.4965 -1.3886
18547SOL     OW60096   9.694   0.621   6.255  0.0548  0.1817  0.8531
18547SOL    HW160097   9.629   0.649   6.191 -0.8608  0.1153  1.7371
18547SOL    HW260098   9.768   0.681   6.242  0.2586 -0.3628 -0.8308
18548SOL     OW60099   2.691   0.545   0.498 -0.2314  0.2416 -0.3318
18548SOL    HW160100   2.675   0.631   0.459 -1.4823  1.3020  2.3087
18548SOL    HW260101   2.607   0.500   0.492 -0.0392 -0.1384 -0.1736
18549SOL     OW60102   9.564   2.727   0.191  0.3433  0.2070 -0.0740
18549SOL    HW160103   9.472   2.722   0.165 -0.3364 -0.4330  2.2223
18549SOL    HW260104   9.585   2.820   0.186 -1.5118  0.8928  2.4885
18550SOL     OW60105   3.088   0.750   9.110 -0.9300  0.4113 -0.2016
18550SOL    HW160106   3.090   0.805   9.031 -1.1270  0.5419 -0.1178
18550SOL    HW260107   3.084   0.660   9.076 -2.8518  0.5114 -0.3819
18551SOL     OW60108   6.065  10.866   0.974  0.2228 -0.8204 -0.1215
18551SOL    HW160109   6.142  10.913   1.004 -0.7407 -0.1258  1.3357
18551SOL    HW260110   6.016  10.930   0.922 -1.4140  0.0996  2.3948
18552SOL     OW60111   4.793   9.401   5.943 -0.0264  0.8842 -0.4459
18552SOL    HW160112   4.850   9.397   5.867  0.0180  2.1334 -0.4956
18552SOL    HW260113   4.741   9.481   5.931 -0.8763  0.4617  0.2378
18553SOL     OW60114   0.040   5.733   7.829  0.1179 -0.1323  0.7914
18553SOL    HW160115  -0.049   5.701   7.844  0.2105  0.0248  1.7291
18553SOL    HW260116   0.091   5.654   7.815 -0.2114 -0.2103 -0.0506
18554SOL     OW60117   0.094   1.593   0.128 -0.0148  0.8376  0.1056
18554SOL    HW160118   0.074   1.638   0.046  0.1310  0.1551 -0.3122
18554SOL    HW260119   0.096   1.663   0.194 -1.7669  1.1888 -0.1752
18555SOL     OW60120   5.099   6.236   4.852 -0.1744  0.3413  0.8809
18555SOL    HW160121   5.019   6.282   4.827  0.7513  0.6927 -1.7798
18555SOL    HW260122   5.088   6.148   4.816  0.4566  0.2863  0.8121
18556SOL     OW60123   0.750   2.319   2.538 -0.3682 -0.3134 -0.7899
18556SOL    HW160124   0.672   2.300   2.486 -0.2282 -0.9106 -0.7914
18556SOL    HW260125   0.717   2.337   2.626 -0.3882 -2.7592 -0.2234
18557SOL     OW60126   6.627   5.135   4.971 -0.2607  0.1884  0.1253
18557SOL    HW160127   6.649   5.228   4.979  0.9702 -0.1463  0.7996
18557SOL    HW260128   6.697   5.098   4.918 -0.1821 -0.5459  0.7244
18558SOL     OW60129  10.719   0.005   0.838 -0.1391 -0.1824  0.0429
18558SOL    HW160130  10.678  -0.082   0.835 -1.0505  0.1327  1.9409
18558SOL    HW260131  10.728   0.024   0.931  3.1998  0.3511 -0.2617
18559SOL     OW60132   3.502   1.594   0.271  0.2709 -0.0194 -0.1314
18559SOL    HW160133   3.465   1.506   0.272  0.2454 -0.0145  0.9972
18559SOL    HW260134   3.586   1.585   0.227  1.3894 -1.1118  2.0385
18560SOL     OW60135   7.917   0.390   7.924 -0.0126  0.2704  0.3578
18560SOL    HW160136   7.932   0.296   7.936  0.7438  0.5330  1.6806
18560SOL    HW260137   7.994   0.421   7.875 -1.0613 -0.0524 -1.6038
18561SOL     OW60138   8.608   3.770   1.054 -0.2552 -0.3115 -0.3166
18561SOL    HW160139   8.690   3.774   1.102  0.3433  0.7523 -1.3792
18561SOL    HW260140   8.634   3.766   0.962 -1.3770  0.8778 -0.7210
18562SOL     OW60141   1.089   9.752   8.211  0.3263 -0.1923 -0.4252
18562SOL    HW160142   1.120   9.838   8.184  1.0255  0.0876  1.1571
18562SOL    HW260143   1.012   9.736   8.156  0.7135  1.0359 -1.3631
18563SOL     OW60144   2.172   2.642   9.315 -0.3497 -0.2987  0.2372
18563SOL    HW160145   2.152   2.584   9.388  1.7739  0.4969  1.5190
18563SOL    HW260146   2.266   2.656   9.320 -0.2394  0.3215 -2.2858
18564SOL     OW60147   6.223   1.564   6.751 -0.3578 -0.8676 -0.0285
18564SOL    HW160148   6.310   1.599   6.767 -0.1593 -0.5632 -1.6146
18564SOL    HW260149   6.238   1.474   6.723 -0.5410 -0.8182 -0.2930
18565SOL     OW60150   8.771   1.315   5.643  0.5824  0.3120  0.7981
18565SOL    HW160151   8.692   1.332   5.592  1.1114 -0.1690 -0.2002
18565SOL    HW260152   8.818   1.248   5.594  1.5982  0.5565  1.3996
18566SOL     OW60153   3.173   0.001   6.006 -0.6880 -0.2841  0.6900
18566SOL    HW160154   3.228  -0.002   6.084 -2.6667 -0.3149  2.1752
18566SOL    HW260155   3.125  -0.082   6.007 -2.3614  0.6342  0.7350
18567SOL     OW60156   1.365   4.193   1.040 -0.3189 -0.0586  0.0383
18567SOL    HW160157   1.337   4.190   0.948  0.6579  0.3006 -0.2818
18567SOL    HW260158   1.410   4.109   1.053 -1.6980 -0.7402  0.6202
18568SOL     OW60159   7.034   1.055   7.672  0.3159  0.1571  0.5056
18568SOL    HW160160   7.088   1.095   7.604  0.8533  0.2149  0.9556
18568SOL    HW260161   7.085   0.980   7.703 -0.6074 -0.7954 -0.2113
18569SOL     OW60162   6.091   8.379   7.524  0.0792  0.1281  0.0950
18569SOL    HW160163   6.088   8.475   7.533  0.2755  0.2132 -0.6698
18569SOL    HW260164   6.004   8.356   7.489  0.3595  0.1338 -0.6157
18570SOL     OW60165   9.950   7.537   5.285  0.2821 -0.4787 -0.0358
18570SOL    HW160166   9.975   7.556   5.194 -2.6360  0.5445 -0.7480
18570SOL    HW260167   9.901   7.614   5.313  0.4042 -1.1291  2.1417
18571SOL     OW60168   1.835   6.016   1.735  0.0622 -0.4266 -1.0270
18571SOL    HW160169   1.774   6.044   1.667  1.1633 -0.0807 -1.8965
18571SOL    HW260170   1.823   6.080   1.806 -0.7478 -0.5087 -1.0812
18572SOL     OW60171   3.162   4.729   6.603  0.5545 -0.1316 -0.6969
18572SOL    HW160172   3.154   4.635   6.621 -1.2322  0.5496  2.9051
18572SOL    HW260173   3.229   4.760   6.664  0.0341  1.1696 -0.7602
18573SOL     OW60174   8.275   8.974   5.497  0.2670 -0.3315 -0.2997
18573SOL    HW160175   8.367   8.984   5.520 -0.0263  1.7251  0.1053
18573SOL    HW260176   8.228   8.985   5.580 -0.4224  0.1852 -0.7458
18574SOL     OW60177   0.562   2.739   2.581 -0.1964  0.2881  0.4773
18574SOL    HW160178   0.472   2.770   2.598  0.2129  1.3917  0.7269
18574SOL    HW260179   0.573   2.664   2.640 -0.8632  0.3100  0.6401
18575SOL     OW60180  10.688   9.855   0.350  0.3085  0.1245 -0.3493
18575SOL    HW160181  10.649   9.779   0.307 -1.3369  0.2315  0.8853
18575SOL    HW260182  10.717   9.822   0.435 -1.7348  1.1268  0.8056
18576SOL     OW60183   1.312   0.511   3.617  0.8438  0.2024  0.0105
18576SOL    HW160184   1.330   0.561   3.696 -0.4851 -0.0912  0.5328
18576SOL    HW260185   1.391   0.460   3.602  0.9252 -0.1471  1.4860
18577SOL     OW60186   9.242   2.364   5.916 -0.4544  0.2602 -0.2932
18577SOL    HW160187   9.184   2.344   5.842 -1.9105 -1.9958  1.3155
18577SOL    HW260188   9.207   2.445   5.953 -1.2511  0.0883 -0.6435
18578SOL     OW60189   7.623   2.340   1.255 -0.3449 -0.2633 -0.2788
18578SOL    HW160190   7.647   2.404   1.323 -2.2960  0.4522 -0.2057
18578SOL    HW260191   7.678   2.363   1.180  1.0870 -0.4013  0.6869
18579SOL     OW60192   2.026   3.691   8.521 -0.3778  0.0889  0.1702
18579SOL    HW160193   2.004   3.718   8.431 -0.0116  0.8919  0.3142
18579SOL    HW260194   1.989   3.603   8.529  1.2499 -0.8108 -1.4200
18580SOL     OW60195   5.845   1.795   3.449  0.2950 -0.3507 -0.2403
18580SOL    HW160196   5.897   1.795   3.530  2.3550 -0.8841 -1.4911
18580SOL    HW260197   5.813   1.885   3.441 -0.9918 -0.5642  1.7555
18581SOL     OW60198   8.795   4.449   0.083 -0.5760 -0.1897  0.7531
18581SOL    HW160199   8.780   4.539   0.112  1.6736  1.1797 -1.8649
18581SOL    HW260200   8.850   4.411   0.151  3.2306  2.3848 -0.5776
18582SOL     OW60201   0.016   8.477   9.650 -0.4072  0.6279  0.0686
18582SOL    HW160202  -0.064   8.471   9.702  0.3004 -0.5504  1.0960
18582SOL    HW260203   0.086   8.455   9.712  0.6969  1.4522 -0.8467
18583SOL     OW60204   0.316   9.382   0.795 -0.5926 -0.0994 -1.0037
18583SOL    HW160205   0.380   9.385   0.723  1.0211  0.4122  0.3737
18583SOL    HW260206   0.362   9.422   0.869 -2.5935  0.4117  0.0281
18584SOL     OW60207   5.592   9.766   8.796  0.8789 -0.3242 -0.4899
18584SOL    HW160208   5.586   9.684   8.845  1.3630  0.4392  0.9089
18584SOL    HW260209   5.565   9.833   8.859  3.8483  0.9641 -0.4532
18585SOL     OW60210   5.517   4.327   6.719  0.6039 -0.2685 -0.2906
18585SOL    HW160211   5.473   4.243   6.707  1.9444 -0.8343 -1.5951
18585SOL    HW260212   5.487   4.358   6.804 -1.6582 -0.9878 -0.7516
18586SOL     OW60213   2.236   1.738   3.884  0.3025 -0.3873  0.1999
18586SOL    HW160214   2.219   1.832   3.899 -0.0385 -0.3165 -0.5740
18586SOL    HW260215   2.232   1.699   3.972 -1.9060 -0.0454  0.3178
18587SOL     OW60216   7.131   0.667   7.199 -0.4164  0.5553 -0.3885
18587SOL    HW160217   7.125   0.685   7.106 -0.7198  0.9346 -0.3001
18587SOL    HW260218   7.111   0.751   7.241 -2.2252 -0.0463  0.0448
18588SOL     OW60219   6.783   3.337   7.972 -0.1654 -0.5560 -0.0817
18588SOL    HW160220   6.761   3.302   8.058 -1.3460 -0.1941 -0.2129
18588SOL    HW260221   6.722   3.293   7.912 -1.1404  1.0840 -0.3520
18589SOL     OW60222   3.274   8.815   5.748 -0.0536 -0.0614  0.2083
18589SOL    HW160223   3.240   8.726   5.742  1.2110 -0.5679  0.2787
18589SOL    HW260224   3.332   8.824   5.673 -1.2457  1.2021 -0.5960
18590SOL     OW60225   9.630   3.117   6.210 -0.6104 -0.6879  0.6301
18590SOL    HW160226   9.573   3.100   6.135  0.8189 -0.1301 -0.6390
18590SOL    HW260227   9.619   3.210   6.228 -0.1878 -0.6010  0.4489
18591SOL     OW60228   2.439   5.400   6.241  1.0973 -0.2351  0.0691
18591SOL    HW160229   2.469   5.313   6.265 -0.1998 -1.3334 -1.9689
18591SOL    HW260230   2.353   5.408   6.283  0.5421 -0.5818 -0.9779
18592SOL     OW60231   8.819   8.398   1.339 -0.0497 -0.1093  0.1615
18592SOL    HW160232   8.738   8.418   1.291 -0.0205 -0.0550  0.1326
18592SOL    HW260233   8.814   8.305   1.358 -0.8845  0.1775  1.5638
18593SOL     OW60234  10.858   4.346   5.902  0.3669 -0.7749 -0.5928
18593SOL    HW160235  10.797   4.390   5.844  2.2316 -0.0664 -2.1098
18593SOL    HW260236  10.919   4.302   5.844  3.0633  0.9866  0.7157
18594SOL     OW60237   7.312   0.087   3.288 -0.5465 -0.1632 -0.4219
18594SOL    HW160238   7.361   0.088   3.371 -2.2091 -1.7425  0.6685
18594SOL    HW260239   7.368   0.038   3.228  0.6768  0.9944 -0.2770
18595SOL     OW60240   5.974   7.963  10.234  0.1373 -0.4040  0.0326
18595SOL    HW160241   6.016   7.922  10.158  0.0011 -0.5969  0.0599
18595SOL    HW260242   5.932   8.042  10.199 -0.3755 -0.7671 -0.1979
18596SOL     OW60243   6.818   3.052   8.967 -0.0118 -0.7373  1.0611
18596SOL    HW160244   6.871   3.129   8.989 -0.6525 -0.0634  0.2942
18596SOL    HW260245   6.878   2.993   8.922 -0.0383  0.3098 -0.4098
18597SOL     OW60246   7.862   8.690  10.298  0.2475 -0.3199 -1.0388
18597SOL    HW160247   7.879   8.705  10.205  0.0418  1.2369 -0.8613
18597SOL    HW260248   7.943   8.719  10.342 -0.7468  2.0018 -0.5633
18598SOL     OW60249   1.434  10.401   6.042  0.8244 -0.2721  0.3622
18598SOL    HW160250   1.388  10.318   6.038  0.2717  0.0693 -0.6239
18598SOL    HW260251   1.375  10.464   6.001  0.1376  1.1501  3.2170
18599SOL     OW60252   9.886   3.588   8.565 -0.7020 -0.3022 -0.1428
18599SOL    HW160253   9.981   3.589   8.581 -0.5181 -1.4480 -1.0026
18599SOL    HW260254   9.865   3.495   8.555 -2.3988 -0.3211  2.6121
18600SOL     OW60255   9.231   0.684   9.050  0.4460 -0.2253 -0.2588
18600SOL    HW160256   9.271   0.630   9.119 -0.9061 -2.8600 -1.3988
18600SOL    HW260257   9.280   0.661   8.971 -1.8736 -1.9785 -1.2818
18601SOL     OW60258   0.622   0.472  10.651  0.4346 -0.1088 -0.0806
18601SOL    HW160259   0.611   0.567  10.651  0.7377 -0.0723 -0.1357
18601SOL    HW260260   0.631   0.449  10.559 -1.1936 -0.3808 -0.1962
18602SOL     OW60261   6.630   4.068   5.478  0.5223  0.1606  0.4765
18602SOL    HW160262   6.618   3.974   5.493  2.2827  0.2007  2.5633
18602SOL    HW260263   6.541   4.102   5.466 -0.1839 -1.6806  0.2522
18603SOL     OW60264   0.992  10.920   2.658 -0.3660 -0.2108  0.3481
18603SOL    HW160265   0.991  11.015   2.670 -0.1426 -0.1562 -0.0461
18603SOL    HW260266   0.917  10.902   2.601 -0.2062 -0.2283  0.1403
18604SOL     OW60267   1.491   2.018   0.756 -0.2777  0.1543 -0.4007
18604SOL    HW160268   1.491   2.076   0.832 -0.9523  1.0995 -1.0918
18604SOL    HW260269   1.583   2.001   0.739 -0.0206  1.6329 -0.6163
18605SOL     OW60270   9.910   9.852   6.695 -0.2891  0.2479  0.6557
18605SOL    HW160271   9.982   9.794   6.720 -0.6082  0.2414  1.6008
18605SOL    HW260272   9.920   9.928   6.752 -0.4528  0.6926  0.1001
18606SOL     OW60273   4.135   7.354   7.232 -0.0210 -0.5414  0.0156
18606SOL    HW160274   4.172   7.310   7.308 -0.0481 -0.6099 -0.0108
18606SOL    HW260275   4.042   7.334   7.235 -0.0344 -0.4797  0.0082
18607SOL     OW60276   2.468  10.518   0.982  0.5508  0.0021  0.4386
18607SOL    HW160277   2.519  10.439   0.965  1.0276  0.2851  0.5471
18607SOL    HW260278   2.395  10.488   1.037  0.3278 -0.4854 -0.1053
18608SOL     OW60279   4.692   3.991   0.183  0.3524 -0.1107  0.2148
18608SOL    HW160280   4.736   4.072   0.159 -1.2694  0.8554  0.3810
18608SOL    HW260281   4.730   3.925   0.125  0.0357  1.2191 -1.5817
18609SOL     OW60282   5.384   1.923  10.729 -0.2175 -0.5368 -0.0407
18609SOL    HW160283   5.405   1.979  10.803 -1.0240  0.5292 -0.5978
18609SOL    HW260284   5.383   1.981  10.654  1.2021 -1.7060 -1.0197
18610SOL     OW60285   9.622   8.220   3.106  0.2194  0.3433  0.4742
18610SOL    HW160286   9.670   8.164   3.166 -1.5253 -1.3203  0.4213
18610SOL    HW260287   9.649   8.191   3.019 -1.5086 -1.2738  0.4273
18611SOL     OW60288   1.550   6.544   1.172 -0.0450  0.3712 -0.0699
18611SOL    HW160289   1.568   6.454   1.198 -0.7713  0.5979  1.2802
18611SOL    HW260290   1.623   6.567   1.114  0.2590 -1.0027 -0.2649
18612SOL     OW60291   8.732   7.026   2.951  0.6029 -0.3035 -0.0681
18612SOL    HW160292   8.746   6.953   2.890  0.5098 -0.6487  0.3178
18612SOL    HW260293   8.805   7.019   3.013  0.2749 -0.4157  0.3056
18613SOL     OW60294   8.200   8.249   5.053  0.1835 -0.2618  0.1977
18613SOL    HW160295   8.263   8.181   5.077  0.8067 -0.0789 -0.8673
18613SOL    HW260296   8.202   8.311   5.126  1.0535 -0.3939  0.2983
18614SOL     OW60297   1.965   8.712   2.594  0.6623 -0.0992 -0.2447
18614SOL    HW160298   2.012   8.751   2.520  0.1564  0.3888 -0.3195
18614SOL    HW260299   1.885   8.765   2.602  0.2281 -0.7792  0.0147
18615SOL     OW60300   8.093   5.782   1.780 -0.7224  0.4951 -0.5192
18615SOL    HW160301   8.090   5.875   1.801  1.9267  0.7316 -0.8404
18615SOL    HW260302   8.113   5.739   1.863  0.0195  0.4194 -0.7367
18616SOL     OW60303  10.198   9.699  10.369  0.2621 -0.2007 -0.1304
18616SOL    HW160304  10.167   9.612  10.341 -0.0944 -0.2352  0.3637
18616SOL    HW260305  10.268   9.720  10.307  1.2353 -1.4126  0.5098
18617SOL     OW60306  10.191  11.001   9.695  0.1224 -0.1252  0.6092
18617SOL    HW160307  10.175  10.913   9.727 -0.4194 -0.4983 -0.6428
18617SOL    HW260308  10.107  11.046   9.705  0.3488  0.2088  1.0761
18618SOL     OW60309   6.538   2.450   1.509 -0.3918 -0.0650 -0.5770
18618SOL    HW160310   6.573   2.433   1.421 -3.4159 -1.2490 -1.6991
18618SOL    HW260311   6.605   2.417   1.568  1.6662  0.5870 -2.3905
18619SOL     OW60312  10.840   7.220   6.395 -0.6234 -0.4268  0.1974
18619SOL    HW160313  10.832   7.284   6.466  0.7419 -0.9845  0.8909
18619SOL    HW260314  10.816   7.137   6.435 -1.1821 -0.5519 -0.3760
18620SOL     OW60315   2.506   8.566   6.398 -0.0950  0.0853  0.6944
18620SOL    HW160316   2.462   8.586   6.316 -0.6270 -0.0519  0.9390
18620SOL    HW260317   2.598   8.555   6.374 -0.2496  0.0090  0.1117
18621SOL     OW60318   5.332   8.993   9.547  0.3563 -0.1381 -0.4236
18621SOL    HW160319   5.260   9.053   9.533 -0.1565 -0.5500  0.3735
18621SOL    HW260320   5.297   8.907   9.523  1.5494  0.0353 -3.0501
18622SOL     OW60321   2.369   4.342   4.565 -0.0469 -0.1130  0.2305
18622SOL    HW160322   2.372   4.378   4.477  1.3291 -0.8603 -0.0407
18622SOL    HW260323   2.312   4.265   4.558  1.2042 -1.0081 -0.3354
18623SOL     OW60324  10.355   7.562   1.183 -0.1236 -0.2424 -0.2309
18623SOL    HW160325  10.345   7.468   1.164 -1.3328 -0.2821  0.4590
18623SOL    HW260326  10.307   7.574   1.265  0.8627  0.8049  0.2198
18624SOL     OW60327   1.851   3.558   7.615 -0.4287  0.5734 -0.3580
18624SOL    HW160328   1.895   3.512   7.687  1.4798 -0.7882 -2.2732
18624SOL    HW260329   1.866   3.651   7.634  0.1663  0.2360  0.9362
18625SOL     OW60330   6.359  10.470   2.980  0.6699 -0.1889  0.2936
18625SOL    HW160331   6.368  10.533   2.908 -0.4862  0.3098  0.5651
18625SOL    HW260332   6.394  10.515   3.056 -1.8445  0.9088  0.8895
18626SOL     OW60333   9.345  10.519   7.471  0.1926  0.7179 -0.3213
18626SOL    HW160334   9.256  10.484   7.470  0.7682 -0.7931 -0.8335
18626SOL    HW260335   9.370  10.524   7.379  0.9820  0.1750 -0.1450
18627SOL     OW60336   6.082  10.217   2.293 -0.2408 -0.6209  0.4145
18627SOL    HW160337   6.107  10.164   2.369 -1.2902 -0.2343  1.0439
18627SOL    HW260338   6.075  10.306   2.327 -1.2154 -0.5249 -0.0114
18628SOL     OW60339   4.308   0.401   9.013  0.3375 -0.2469 -0.3695
18628SOL    HW160340   4.399   0.430   9.018  0.0819  0.8822 -1.4175
18628SOL    HW260341   4.280   0.389   9.104  1.9147 -1.9839 -0.0656
18629SOL     OW60342  10.287   3.487   3.952  0.3922  0.5109 -0.3317
18629SOL    HW160343  10.373   3.527   3.962  0.1297  0.8385  0.7109
18629SOL    HW260344  10.303   3.393   3.958  0.4505  0.6205  1.9481
18630SOL     OW60345   5.902   2.011   8.087  0.2495  0.0208 -0.3007
18630SOL    HW160346   5.917   2.051   8.173  0.5378 -2.9637  1.1980
18630SOL    HW260347   5.990   1.987   8.056  0.2137  1.6387 -1.8199
18631SOL     OW60348   7.762   5.505   5.203  0.0810  0.3032  0.0103
18631SOL    HW160349   7.728   5.585   5.162  2.7030  1.5601  0.0339
18631SOL    HW260350   7.712   5.496   5.284 -0.5788  1.6774 -0.2171
18632SOL     OW60351   0.054   7.158   2.320  0.4420 -0.2616 -0.3548
18632SOL    HW160352  -0.034   7.134   2.292  0.6372 -0.7055 -0.5964
18632SOL    HW260353   0.069   7.106   2.399  0.5742 -0.3521 -0.4403
18633SOL     OW60354   4.794   9.983   6.968  0.0339 -0.0723 -0.2112
18633SOL    HW160355   4.712  10.032   6.967  0.5628  0.8586 -1.4012
18633SOL    HW260356   4.857  10.043   7.007  0.0293 -1.0283  1.3058
18634SOL     OW60357   1.478   0.635   9.914 -0.3058  0.1574 -0.3284
18634SOL    HW160358   1.566   0.662   9.940 -0.5716  0.6273  0.0853
18634SOL    HW260359   1.463   0.679   9.830 -0.6400  1.1086  0.2188
18635SOL     OW60360   6.250   2.902   1.307 -0.2839 -0.3235 -0.1845
18635SOL    HW160361   6.170   2.858   1.336 -0.2416  0.0752  0.5745
18635SOL    HW260362   6.315   2.877   1.372 -0.6957  2.2891  1.3563
18636SOL     OW60363   3.665   1.456   5.910 -0.0185  0.2981  0.0539
18636SOL    HW160364   3.598   1.445   5.977 -0.7962  1.6522 -0.4472
18636SOL    HW260365   3.731   1.512   5.951  0.8186 -0.9821  0.5251
18637SOL     OW60366   0.045   9.269   1.414 -0.3397 -0.6761 -0.1895
18637SOL    HW160367   0.043   9.179   1.447  0.7093 -0.3689  0.7306
18637SOL    HW260368   0.136   9.297   1.424 -0.3825  0.0784 -1.6136
18638SOL     OW60369   6.864   0.972   3.661 -0.5526  0.6466  0.1166
18638SOL    HW160370   6.872   1.040   3.594  0.2678 -0.2890 -0.7570
18638SOL    HW260371   6.777   0.985   3.698 -1.5507  0.3884 -2.0077
18639SOL     OW60372   6.527   2.927  10.981  0.0996 -0.1234 -0.1692
18639SOL    HW160373   6.507   3.014  10.945 -2.0461 -0.3521  0.3247
18639SOL    HW260374   6.620   2.914  10.963  0.1001  1.6008 -1.7000
18640SOL     OW60375   0.414   7.631   8.843 -0.6371 -0.0097  0.0583
18640SOL    HW160376   0.334   7.682   8.855 -0.9333  0.5811 -3.3772
18640SOL    HW260377   0.471   7.687   8.791  1.3202 -1.1100  0.9022
18641SOL     OW60378   9.294   4.777   6.938 -0.4426 -0.5695 -0.6467
18641SOL    HW160379   9.274   4.687   6.911 -1.9503 -0.3148 -0.4684
18641SOL    HW260380   9.312   4.770   7.032  1.9382 -1.0171 -1.0593
18642SOL     OW60381   2.981   1.890  10.590  0.1339  0.0601 -0.2218
18642SOL    HW160382   3.071   1.886  10.621  0.6646  0.6591 -1.5963
18642SOL    HW260383   2.989   1.910  10.496 -1.3468 -2.4043 -0.9605
18643SOL     OW60384   1.186   4.860  10.101 -0.2681 -0.2926 -0.4572
18643SOL    HW160385   1.252   4.893  10.163 -0.9299  2.5245 -1.0867
18643SOL    HW260386   1.236   4.840  10.021  0.0815 -0.1148 -0.2847
18644SOL     OW60387  10.756   8.645   0.685 -1.0852  0.4007  0.1790
18644SOL    HW160388  10.707   8.615   0.608 -1.3136 -0.8676  0.7942
18644SOL    HW260389  10.694   8.635   0.757 -0.4623  0.3792  0.7132
18645SOL     OW60390   7.837   1.447  10.937  0.5498  0.0119  0.0048
18645SOL    HW160391   7.828   1.356  10.967  0.5035 -0.3603 -1.0755
18645SOL    HW260392   7.804   1.445  10.847  0.0243  1.2227  0.1578
18646SOL     OW60393   9.576   8.792   1.139  0.4876  0.3066  0.3580
18646SOL    HW160394   9.661   8.747   1.135  2.0004  2.7958  1.7586
18646SOL    HW260395   9.573   8.829   1.228 -1.5312  1.2816 -0.0702
18647SOL     OW60396   3.396   7.640   3.361 -0.1174 -0.1748 -0.2668
18647SOL    HW160397   3.303   7.661   3.357  0.0861  0.9392  0.4758
18647SOL    HW260398   3.430   7.695   3.431  0.7281 -2.0312  0.8510
18648SOL     OW60399  10.401   9.438   9.213 -0.5658 -0.2558 -0.8072
18648SOL    HW160400  10.435   9.468   9.297 -0.1001 -0.3751 -0.9497
18648SOL    HW260401  10.437   9.499   9.149 -1.5922  0.3387 -0.8444
18649SOL     OW60402  10.248   0.185   1.885 -0.1836 -0.5709 -0.4037
18649SOL    HW160403  10.270   0.252   1.950  1.4165 -0.5607 -0.9290
18649SOL    HW260404  10.287   0.215   1.804  0.0266 -1.8212 -0.7948
18650SOL     OW60405   6.645   4.573  10.467  0.5932 -0.6653  0.5363
18650SOL    HW160406   6.649   4.522  10.387 -0.0450  1.0393 -0.6310
18650SOL    HW260407   6.552   4.583  10.485  0.6859  0.5793  0.4008
18651SOL     OW60408   2.344   9.003   3.304 -0.3314 -0.3695  0.2791
18651SOL    HW160409   2.269   9.042   3.349  0.2846  0.8128  0.3304
18651SOL    HW260410   2.411   8.994   3.373  0.3092  0.6165 -0.1979
18652SOL     OW60411   9.022   9.317   3.831 -0.2522 -0.4664  0.5737
18652SOL    HW160412   9.055   9.344   3.746 -0.3720 -0.7270  0.4422
18652SOL    HW260413   9.069   9.236   3.851  0.5842  0.1821  1.2635
18653SOL     OW60414   6.452   7.288   4.258 -0.2144  0.4968  0.0465
18653SOL    HW160415   6.455   7.192   4.263 -0.3054  0.4906 -0.0235
18653SOL    HW260416   6.359   7.309   4.256 -0.2017  0.5232 -1.2376
18654SOL     OW60417   2.248   6.450   7.055  0.0901 -0.7174  0.3030
18654SOL    HW160418   2.303   6.438   6.978  0.2109  0.6873  0.1274
18654SOL    HW260419   2.172   6.394   7.040  1.0089 -1.9384  0.0880
18655SOL     OW60420   2.495   5.746   8.239 -0.3716  0.9155  0.0614
18655SOL    HW160421   2.540   5.798   8.172 -0.7349  0.5881 -0.4377
18655SOL    HW260422   2.402   5.766   8.226 -0.7353 -1.4334 -1.5227
18656SOL     OW60423   1.667  10.974   2.146 -0.4224 -0.3017 -0.3115
18656SOL    HW160424   1.618  11.056   2.137 -0.1575 -0.1751 -0.6310
18656SOL    HW260425   1.685  10.967   2.239 -1.6747 -0.7169 -0.0914
18657SOL     OW60426   1.315   6.861   8.290  0.4223  0.6655  0.5472
18657SOL    HW160427   1.228   6.898   8.279 -0.5747 -0.7066  3.1192
18657SOL    HW260428   1.303   6.785   8.347  3.0940 -0.5209 -0.2704
18658SOL     OW60429   7.401  10.879   1.504 -0.5401 -0.0458  0.1957
18658SOL    HW160430   7.313  10.880   1.541 -0.3560  3.9254  0.9223
18658SOL    HW260431   7.448  10.949   1.550  2.2273 -0.2776 -1.9693
18659SOL     OW60432  10.344  10.654  10.229 -0.2306  0.0716 -0.8631
18659SOL    HW160433  10.400  10.588  10.188  0.2918 -0.5383  0.7531
18659SOL    HW260434  10.405  10.715  10.271 -0.7430  0.8307 -1.1852
18660SOL     OW60435   8.689   6.977  10.152 -0.2782  0.4966  0.0454
18660SOL    HW160436   8.672   7.040  10.222  1.1665 -0.9765  1.8089
18660SOL    HW260437   8.784   6.969  10.148 -0.4055 -2.2051  0.5425
18661SOL     OW60438   5.432   8.827   1.781  0.0448  0.0913 -0.0953
18661SOL    HW160439   5.496   8.814   1.851 -1.1842 -0.8565  0.9054
18661SOL    HW260440   5.476   8.799   1.701  1.9547  2.4385  0.0098
18662SOL     OW60441   7.906   6.783   7.035 -0.1460  0.3081 -0.0113
18662SOL    HW160442   7.919   6.689   7.036 -1.2423  0.1544 -0.0423
18662SOL    HW260443   7.831   6.799   7.091  0.7000  1.2866  0.8974
18663SOL     OW60444   0.786   8.570   2.796  0.2471 -0.7372 -0.2050
18663SOL    HW160445   0.785   8.497   2.735 -1.9965 -1.2718  0.3857
18663SOL    HW260446   0.700   8.570   2.836  0.2729  2.0160  0.1051
18664SOL     OW60447   4.232   1.118   8.497 -0.3562  0.6764 -0.9952
18664SOL    HW160448   4.290   1.045   8.475  1.7734  0.2720  4.4591
18664SOL    HW260449   4.279   1.196   8.465  2.0362  0.1369  0.9150
18665SOL     OW60450   2.928   7.339   7.811 -0.0130 -0.3473  0.2169
18665SOL    HW160451   2.894   7.398   7.878  0.3633 -0.4836  0.5336
18665SOL    HW260452   3.020   7.328   7.833  0.8999  1.9360 -2.0272
18666SOL     OW60453   7.824  10.454   9.080 -0.7695  0.1499  0.5113
18666SOL    HW160454   7.773  10.527   9.114 -1.6046 -0.0358 -0.2821
18666SOL    HW260455   7.855  10.484   8.994 -2.0239 -0.7706 -0.3074
18667SOL     OW60456  10.508   2.544  10.215  0.0721  0.3474  0.2276
18667SOL    HW160457  10.564   2.488  10.161 -2.1960 -0.1970 -1.7616
18667SOL    HW260458  10.535   2.633  10.192 -1.1058  0.1493 -2.2917
18668SOL     OW60459   2.332   1.259   1.528 -0.1356 -0.6329  0.5643
18668SOL    HW160460   2.423   1.242   1.550 -0.2585  0.5002  2.1112
18668SOL    HW260461   2.335   1.333   1.467  0.0064 -1.3782 -0.3687
18669SOL     OW60462  10.363   1.702   7.367 -0.4492  0.2842 -0.0850
18669SOL    HW160463  10.293   1.651   7.407 -1.4128 -0.1331 -2.2095
18669SOL    HW260464  10.323   1.787   7.347  1.0873  1.9829  3.2597
18670SOL     OW60465   8.285   2.908   8.282 -0.0327 -0.3151 -0.8546
18670SOL    HW160466   8.353   2.879   8.343 -0.7878  0.2228  0.2958
18670SOL    HW260467   8.319   2.988   8.244  0.5564 -0.7893 -1.3420
18671SOL     OW60468   5.244   5.552   6.350  0.1921  0.3860 -0.0624
18671SOL    HW160469   5.204   5.566   6.436 -1.1609 -0.2128 -0.5611
18671SOL    HW260470   5.170   5.547   6.290  1.1386  1.4673 -1.3854
18672SOL     OW60471   7.183   6.425   2.504  0.6110  0.1620 -0.0307
18672SOL    HW160472   7.222   6.434   2.417 -1.7478  2.2926 -1.0052
18672SOL    HW260473   7.239   6.479   2.561 -0.0283  2.0306 -1.0981
18673SOL     OW60474   3.157   9.979   6.500  0.7660 -0.4884 -0.4957
18673SOL    HW160475   3.182  10.018   6.584  0.9265 -0.6792 -0.4558
18673SOL    HW260476   3.225  10.008   6.439 -1.0949  2.5433 -1.3757
18674SOL     OW60477   9.129   9.144   5.315 -0.8070 -0.1388  0.0828
18674SOL    HW160478   9.131   9.071   5.253 -0.2012  1.0451 -1.3238
18674SOL    HW260479   9.144   9.222   5.262 -1.4193  1.0341  1.5579
18675SOL     OW60480   1.053   0.400   2.998  0.3410  0.4676  0.4844
18675SOL    HW160481   0.972   0.352   3.017 -0.5619  1.4511 -0.7371
18675SOL    HW260482   1.122   0.333   2.999 -1.0461 -1.1863 -2.5311
18676SOL     OW60483   5.007   4.094   9.571 -0.0794  0.7518 -0.5463
18676SOL    HW160484   5.064   4.024   9.540 -0.0265  0.3487  0.4332
18676SOL    HW260485   5.066   4.166   9.592  0.0806  0.3687  0.3738
18677SOL     OW60486   9.840   7.687   8.644 -0.4597 -0.1614 -0.0037
18677SOL    HW160487   9.769   7.639   8.600 -0.0764 -0.1020 -0.6972
18677SOL    HW260488   9.917   7.633   8.631 -0.4326 -0.3889  1.0436
18678SOL     OW60489   0.610   1.457   9.808  0.1637 -0.4115  0.6160
18678SOL    HW160490   0.616   1.531   9.869  0.8932  0.4516 -0.4619
18678SOL    HW260491   0.517   1.434   9.807 -0.2274  1.0634  0.3276
18679SOL     OW60492   2.493   8.405   9.136 -0.7520 -0.3887 -0.2180
18679SOL    HW160493   2.469   8.469   9.202 -2.1519 -0.2367 -0.8428
18679SOL    HW260494   2.501   8.455   9.055  2.0863 -0.3636 -0.0448
18680SOL     OW60495  10.741   3.862   4.924  0.1893 -0.0692 -0.3091
18680SOL    HW160496  10.753   3.833   5.014  0.1112 -0.3182 -0.3769
18680SOL    HW260497  10.697   3.947   4.931 -0.5763 -0.4715 -0.1292
18681SOL     OW60498   9.999   9.811   4.222 -0.1020  0.3648 -0.0832
18681SOL    HW160499   9.988   9.905   4.210  0.0802  0.3201 -0.6213
18681SOL    HW260500  10.032   9.779   4.138 -0.6404 -0.2596 -0.0724
18682SOL     OW60501   0.598   4.813   0.347 -0.0245  0.1035  0.2010
18682SOL    HW160502   0.580   4.793   0.255 -2.4053  0.6459  0.4907
18682SOL    HW260503   0.533   4.879   0.371  0.7258  0.1944  2.2069
18683SOL     OW60504   1.456   9.444   6.521 -0.4582 -0.3289 -0.4115
18683SOL    HW160505   1.476   9.519   6.577 -1.8288 -0.6293  0.5199
18683SOL    HW260506   1.441   9.371   6.581  0.3413 -1.2559 -1.2824
18684SOL     OW60507   8.221  10.190   6.185  0.6491 -0.1115 -0.9299
18684SOL    HW160508   8.242  10.278   6.217 -2.3972  0.6527 -0.6522
18684SOL    HW260509   8.190  10.204   6.096 -2.5251 -0.3409 -0.0101
18685SOL     OW60510  10.231   2.650  10.343  0.0681 -0.3273 -0.4492
18685SOL    HW160511  10.204   2.612  10.259  3.9012  0.3041 -2.1710
18685SOL    HW260512  10.307   2.599  10.369  2.2031  2.7311 -0.1672
18686SOL     OW60513   9.673   8.242   7.176  0.1026  0.0613  0.5581
18686SOL    HW160514   9.761   8.258   7.209  0.0124 -0.4111  1.0522
18686SOL    HW260515   9.615   8.281   7.242 -0.0584  1.0894 -0.1612
18687SOL     OW60516   2.525   0.300   2.114  1.1013 -0.4431  0.4551
18687SOL    HW160517   2.568   0.352   2.182  0.9056 -0.9705  0.9921
18687SOL    HW260518   2.441   0.275   2.153  0.4521  0.2782 -0.4458
18688SOL     OW60519   5.435   3.505   9.169  0.2916  0.5394 -0.0119
18688SOL    HW160520   5.367   3.465   9.223  0.9229  0.5789  0.8419
18688SOL    HW260521   5.502   3.437   9.160  0.8827  1.0316  0.5480
18689SOL     OW60522  10.069   3.308   4.878  0.0591  0.5366 -0.1982
18689SOL    HW160523  10.104   3.319   4.966 -1.8001 -1.1212  0.8224
18689SOL    HW260524  10.108   3.227   4.847 -1.4999 -0.4365  0.2976
18690SOL     OW60525   4.281   4.334   5.499  0.0207  0.3701  0.2057
18690SOL    HW160526   4.276   4.242   5.525 -0.6987  0.4798  0.4802
18690SOL    HW260527   4.360   4.367   5.543 -2.4053  1.1875  4.4563
18691SOL     OW60528   3.318   0.470   9.361 -0.1073  0.2010 -0.3890
18691SOL    HW160529   3.390   0.406   9.358  0.6159  0.9314  0.6561
18691SOL    HW260530   3.311   0.501   9.271  0.8163  0.0258 -0.5341
18692SOL     OW60531   9.206   3.236   7.105 -0.5483 -0.3223 -0.0865
18692SOL    HW160532   9.131   3.294   7.117  0.0545 -0.0933  4.4424
18692SOL    HW260533   9.272   3.290   7.062 -1.0854  1.3652  1.0932
18693SOL     OW60534   1.733  10.711   1.699  0.0294 -0.7166 -0.1661
18693SOL    HW160535   1.730  10.741   1.608 -3.5339 -0.2679 -0.0416
18693SOL    HW260536   1.708  10.787   1.751  0.3030 -1.4046  1.0179
18694SOL     OW60537   9.685   4.367   5.103  0.2764  0.4805  0.2442
18694SOL    HW160538   9.774   4.372   5.139  0.3166 -0.0766  0.2255
18694SOL    HW260539   9.649   4.454   5.118  0.5226  0.4581  1.0434
18695SOL     OW60540   9.190   2.923   7.997 -0.0274 -0.1344 -0.1050
18695SOL    HW160541   9.252   2.856   7.967  1.3038  1.4371 -1.0878
18695SOL    HW260542   9.240   3.005   7.994 -1.7947  1.0257  0.3377
18696SOL     OW60543   2.265   7.775   3.039  0.1370 -0.1096  0.0263
18696SOL    HW160544   2.318   7.791   2.960 -1.1280  1.0520 -0.6295
18696SOL    HW260545   2.221   7.692   3.022  0.0584  0.0155 -0.3854
18697SOL     OW60546   9.683   1.460   7.311  0.0675  0.2642  0.2772
18697SOL    HW160547   9.722   1.519   7.246  0.1310 -0.4020 -0.3002
18697SOL    HW260548   9.755   1.440   7.371  0.3763 -0.1947 -0.2339
18698SOL     OW60549   2.268   8.100   3.121  0.5667 -0.2218 -0.3202
18698SOL    HW160550   2.190   8.130   3.075  0.3587 -0.5319 -0.1714
18698SOL    HW260551   2.326   8.067   3.052 -0.4952 -2.4078 -0.2221
18699SOL     OW60552   7.896   8.971   0.776  0.1742  0.3671  0.1113
18699SOL    HW160553   7.906   8.959   0.682 -0.2365 -2.7556  0.3497
18699SOL    HW260554   7.986   8.973   0.809  0.3182 -0.4833 -0.1987
18700SOL     OW60555   0.413   4.981   6.978 -0.5353 -0.3334  0.1992
18700SOL    HW160556   0.498   5.018   7.000 -1.8318  1.3392  2.9741
18700SOL    HW260557   0.377   5.040   6.912  0.7140 -1.5536 -1.6646
18701SOL     OW60558   8.555   4.290   0.777  0.2302 -0.0508 -0.7001
18701SOL    HW160559   8.492   4.339   0.724 -0.1567  0.6370  0.3525
18701SOL    HW260560   8.505   4.218   0.814 -0.0414  0.6549  0.3591
18702SOL     OW60561   0.182   8.905   1.169 -0.3148  0.1644  0.4428
18702SOL    HW160562   0.168   8.896   1.264  0.0487  1.2665  0.6106
18702SOL    HW260563   0.275   8.890   1.157  0.1736  2.6359  0.6386
18703SOL     OW60564   4.763   1.458   1.665 -0.1219 -0.1183  0.1290
18703SOL    HW160565   4.788   1.451   1.573  0.1631  1.1466  0.0897
18703SOL    HW260566   4.766   1.368   1.698 -0.8193 -0.6717 -1.2419
18704SOL     OW60567   9.209   8.400   2.393 -0.1076  0.3979 -0.4937
18704SOL    HW160568   9.300   8.426   2.378 -0.4072  1.1597 -1.0812
18704SOL    HW260569   9.171   8.471   2.444  0.1752 -0.9349  1.6696
18705SOL     OW60570   3.329   9.723   2.487  0.2121  0.4273  0.9355
18705SOL    HW160571   3.422   9.734   2.509  0.9713 -1.3128 -1.0430
18705SOL    HW260572   3.296   9.662   2.553  1.3453 -1.3960 -0.0852
18706SOL     OW60573   9.877   8.733   7.394 -0.3309  0.0281 -0.4109
18706SOL    HW160574   9.818   8.808   7.396  0.3978  0.6005  1.6416
18706SOL    HW260575   9.921   8.740   7.308 -0.0711  2.1406 -0.1636
18707SOL     OW60576   7.921   0.077   3.018  1.0106  0.3733 -0.5508
18707SOL    HW160577   7.839   0.121   3.041 -0.1025 -1.0798 -1.6046
18707SOL    HW260578   7.935   0.098   2.926  0.6211 -1.1744 -0.9876
18708SOL     OW60579   0.011   9.784   3.883  0.6273 -0.1658  0.0378
18708SOL    HW160580  -0.024   9.771   3.795  1.5258  0.5029 -0.4404
18708SOL    HW260581  -0.044   9.730   3.939 -0.7788  0.3774 -0.7506
18709SOL     OW60582   8.026   4.566   0.815 -0.8412  0.6344  0.6309
18709SOL    HW160583   7.995   4.636   0.872  0.1130  0.5837  1.2351
18709SOL    HW260584   8.086   4.608   0.754  2.7299 -0.0712  3.3110
18710SOL     OW60585   3.195   0.710   2.817  0.0190 -0.1051  0.2898
18710SOL    HW160586   3.214   0.798   2.786 -2.5050  0.4623  0.1120
18710SOL    HW260587   3.250   0.699   2.895 -1.1524  2.4817  1.5834
18711SOL     OW60588   5.090   2.468   5.278 -0.2743  0.2771 -0.1268
18711SOL    HW160589   5.028   2.487   5.207 -1.0968 -1.9434 -0.0860
18711SOL    HW260590   5.171   2.446   5.232 -0.8666 -1.3779 -0.4535
18712SOL     OW60591   4.112   5.842   2.852 -0.0831  0.5250 -0.5371
18712SOL    HW160592   4.083   5.766   2.801 -0.4339  0.8971 -0.8995
18712SOL    HW260593   4.031   5.889   2.873 -0.3194 -1.1189  2.8463
18713SOL     OW60594  10.153   9.726   4.889 -0.2605  0.4834  0.4781
18713SOL    HW160595  10.208   9.670   4.835  0.4150  0.3639  1.2779
18713SOL    HW260596  10.089   9.763   4.827  0.1371 -0.0874 -0.2931
18714SOL     OW60597   7.779   8.166   3.850 -0.0791 -0.6869  0.2832
18714SOL    HW160598   7.706   8.212   3.892 -0.6975  0.2344 -1.6955
18714SOL    HW260599   7.853   8.228   3.856 -1.0914  1.0810 -3.0148
18715SOL     OW60600  10.700   3.321   1.352 -0.5349 -0.2989  0.4681
18715SOL    HW160601  10.754   3.296   1.426  1.7186  0.3732 -0.8436
18715SOL    HW260602  10.678   3.238   1.309  0.0778 -0.5450  0.6229
18716SOL     OW60603   7.737   1.709  10.203  0.0899 -0.2804  0.2159
18716SOL    HW160604   7.804   1.652  10.167 -0.3883 -1.6040  1.3159
18716SOL    HW260605   7.658   1.688  10.153  0.1973  0.4079 -0.2675
18717SOL     OW60606   9.353  10.179   2.569 -0.3183  0.2178 -0.5290
18717SOL    HW160607   9.276  10.225   2.535 -0.1315  0.5804 -0.4651
18717SOL    HW260608   9.329  10.087   2.565 -1.0488  0.3634  0.1993
18718SOL     OW60609   9.156   6.008   5.072 -0.1236  0.1335 -0.7523
18718SOL    HW160610   9.066   5.998   5.041 -0.6028  3.2483 -0.7333
18718SOL    HW260611   9.157   5.967   5.159 -1.0508 -1.2688 -1.3648
18719SOL     OW60612   1.586   0.424   6.610  0.3672  0.0805 -0.1507
18719SOL    HW160613   1.533   0.394   6.536  0.9029 -0.0652 -0.4897
18719SOL    HW260614   1.619   0.344   6.650  1.4798  0.1787 -0.8159
18720SOL     OW60615   6.356   8.586   6.409 -0.2869  0.3693 -0.1329
18720SOL    HW160616   6.315   8.572   6.324  1.1018 -2.5907 -0.4640
18720SOL    HW260617   6.429   8.644   6.391  0.6200 -1.0446 -1.2390
18721SOL     OW60618   5.536   2.077   4.254  0.2733 -0.0003  0.0684
18721SOL    HW160619   5.609   2.036   4.207 -0.5821  0.2116 -1.5370
18721SOL    HW260620   5.515   2.015   4.324  2.7017  0.4843  1.3269
18722SOL     OW60621   1.896   6.100   1.268  0.1801  0.4002 -0.1902
18722SOL    HW160622   1.840   6.172   1.240 -0.0171 -0.1743 -1.3207
18722SOL    HW260623   1.979   6.141   1.292 -0.4066  1.1552  0.6169
18723SOL     OW60624   8.092   5.122   2.605 -0.0643 -0.2727 -0.6503
18723SOL    HW160625   8.016   5.113   2.664 -0.6687 -2.0128 -1.6173
18723SOL    HW260626   8.086   5.046   2.547  3.6457 -1.7299  0.5839
18724SOL     OW60627   6.154   0.396   7.364  0.1683  0.3438 -0.6158
18724SOL    HW160628   6.154   0.402   7.268  0.0825 -0.5981 -0.6936
18724SOL    HW260629   6.138   0.485   7.394 -0.3041  0.5683 -1.4879
18725SOL     OW60630   2.528   1.319   5.638  0.5116 -0.3054  0.1525
18725SOL    HW160631   2.548   1.295   5.729  0.5513 -0.8208  0.0150
18725SOL    HW260632   2.612   1.322   5.594  0.4954 -0.0178  0.1423
18726SOL     OW60633   7.633   8.879   0.787  0.3068  0.2984  0.2068
18726SOL    HW160634   7.700   8.937   0.823  1.0631 -0.6309  0.3398
18726SOL    HW260635   7.625   8.906   0.696  1.5253 -0.1376 -0.0575
18727SOL     OW60636   3.120   3.168   6.636  0.6459  0.2226 -0.4701
18727SOL    HW160637   3.197   3.207   6.678 -1.4882  2.9464  1.3027
18727SOL    HW260638   3.132   3.186   6.543  1.6274  1.6271 -0.1080
18728SOL     OW60639   2.963   5.402   8.349  0.1689 -0.2012  0.3051
18728SOL    HW160640   3.040   5.457   8.359 -0.7634  1.4580 -1.0764
18728SOL    HW260641   2.892   5.453   8.388 -0.5936 -0.7106 -0.3793
18729SOL     OW60642   4.882   5.863   7.329 -0.2168 -0.0757  0.3612
18729SOL    HW160643   4.852   5.773   7.326  0.9532 -0.4985  0.6067
18729SOL    HW260644   4.937   5.867   7.408 -0.9127  1.0680  0.8155
18730SOL     OW60645   4.082   4.698   1.371  0.1129  0.2951 -0.2381
18730SOL    HW160646   4.071   4.696   1.276  0.6999  0.4772 -0.3102
18730SOL    HW260647   4.139   4.772   1.387  1.5569 -0.8434  0.0873
18731SOL     OW60648   8.785   6.590   5.903 -0.5996 -0.1426  0.4304
18731SOL    HW160649   8.715   6.534   5.869 -0.5946  0.4027 -0.5304
18731SOL    HW260650   8.825   6.539   5.973  0.5028 -2.1134 -1.4926
18732SOL     OW60651   5.165   7.036   5.940 -0.0016 -0.2343  0.3777
18732SOL    HW160652   5.182   7.008   5.850  0.6164  1.3065 -0.0182
18732SOL    HW260653   5.220   6.979   5.993  1.9744  0.8034 -0.4650
18733SOL     OW60654   8.659   7.529  10.801 -0.9243  0.6140  0.2411
18733SOL    HW160655   8.571   7.508  10.831  0.3315 -2.4560  2.3625
18733SOL    HW260656   8.685   7.453  10.748 -0.3264  2.5449 -2.4072
18734SOL     OW60657   1.641   4.316   9.708  0.4616 -0.0186  0.2447
18734SOL    HW160658   1.706   4.245   9.709  1.8251  1.1847  0.6976
18734SOL    HW260659   1.563   4.278   9.748  2.1383 -0.4055  3.4662
18735SOL     OW60660   3.917   1.409  10.788 -0.8433  0.0564 -0.4036
18735SOL    HW160661   3.946   1.360  10.865 -0.0671 -2.2548 -2.0689
18735SOL    HW260662   3.957   1.495  10.798 -0.9959 -0.0736  1.8880
18736SOL     OW60663   7.615   2.603   9.562  0.1482 -0.0357  0.2938
18736SOL    HW160664   7.646   2.685   9.601  0.5882 -0.3589  0.6490
18736SOL    HW260665   7.539   2.628   9.511 -0.6954  0.3581  1.6783
18737SOL     OW60666   1.584   2.223   9.373  0.4846 -0.7381 -0.0729
18737SOL    HW160667   1.617   2.211   9.284  1.9738 -2.2418  0.6081
18737SOL    HW260668   1.524   2.151   9.386  1.3206 -1.3412  0.5614
18738SOL     OW60669   4.382   3.249   5.283 -0.6439 -0.0844  0.6316
18738SOL    HW160670   4.340   3.207   5.208 -0.0557  2.0411 -1.0176
18738SOL    HW260671   4.337   3.333   5.292  0.5852  0.5258  1.3831
18739SOL     OW60672   6.250   7.741   0.812 -0.4310  0.2161 -0.6902
18739SOL    HW160673   6.181   7.808   0.810 -1.1181 -0.3339  1.6325
18739SOL    HW260674   6.304   7.765   0.888 -0.1197 -1.2925 -0.4105
18740SOL     OW60675   2.066  10.254   1.454  0.1601  0.2493 -0.3173
18740SOL    HW160676   2.030  10.169   1.428  0.6754  0.3370 -1.3759
18740SOL    HW260677   2.001  10.318   1.426  0.6718  0.3367 -1.3646
18741SOL     OW60678   8.051   2.905   7.705  0.2737  0.5399  0.0305
18741SOL    HW160679   8.044   2.813   7.733 -0.2821  0.1521 -1.2652
18741SOL    HW260680   7.999   2.954   7.768  0.0635 -0.1207  0.3818
18742SOL     OW60681   0.945   1.660   0.470  0.2367 -0.0028 -0.4595
18742SOL    HW160682   0.978   1.715   0.541 -0.1211  0.7218 -0.8427
18742SOL    HW260683   0.901   1.587   0.514  1.3316 -0.3803  0.0568
18743SOL     OW60684  10.323   9.378   5.964 -0.0374  0.3156  0.5468
18743SOL    HW160685  10.407   9.352   6.003  0.7722  0.8179 -0.8191
18743SOL    HW260686  10.331   9.472   5.950 -1.5379  0.7198  2.0117
18744SOL     OW60687   1.845   5.104   7.044  0.4428  0.0719 -0.5465
18744SOL    HW160688   1.897   5.061   6.977  0.8973  0.9133 -0.7518
18744SOL    HW260689   1.867   5.059   7.125  1.2402  0.2006 -0.6859
18745SOL     OW60690   0.082   4.976   8.061 -0.3199 -0.0556  0.2443
18745SOL    HW160691   0.050   5.065   8.076  1.4901  0.7071 -0.2313
18745SOL    HW260692   0.012   4.934   8.011 -1.0140  1.2243  0.0870
18746SOL     OW60693   3.398   6.839  10.605  0.3540 -0.1842  0.1909
18746SOL    HW160694   3.349   6.759  10.589  0.8730 -1.0282  2.3900
18746SOL    HW260695   3.377   6.897  10.531 -4.1418 -0.3407  1.1013
18747SOL     OW60696   4.768   0.585   9.171  0.4279  0.6496 -0.2170
18747SOL    HW160697   4.765   0.561   9.264  2.8218  1.0565  0.0287
18747SOL    HW260698   4.818   0.666   9.169  0.1182  0.8235 -1.8588
18748SOL     OW60699   4.703   8.897   0.358 -0.1361  0.1052  0.5466
18748SOL    HW160700   4.739   8.819   0.315 -1.9373 -0.3996 -0.1357
18748SOL    HW260701   4.613   8.874   0.378 -0.9581  2.2813 -0.3700
18749SOL     OW60702   7.425   5.996   8.778  0.1997  0.1832  0.3380
18749SOL    HW160703   7.449   6.078   8.736  0.1680 -0.5756 -1.2419
18749SOL    HW260704   7.333   6.007   8.802  0.2689  0.6917  0.3864
18750SOL     OW60705   2.948   2.515   2.994  0.1675  0.3136  0.0644
18750SOL    HW160706   2.900   2.495   2.914  0.7312 -1.4118  0.1140
18750SOL    HW260707   2.999   2.593   2.972  0.3209 -0.1322 -1.2701
18751SOL     OW60708   7.972   8.308   4.235  0.5270 -0.3587  0.2794
18751SOL    HW160709   7.966   8.321   4.330 -0.5112  2.7856 -0.0895
18751SOL    HW260710   8.033   8.377   4.206  2.7443 -2.7504 -1.1815
18752SOL     OW60711   4.389   4.695   8.408 -0.5754 -0.1987 -0.1746
18752SOL    HW160712   4.307   4.677   8.455 -0.0196 -1.9749  0.1763
18752SOL    HW260713   4.458   4.675   8.471  0.1494 -0.5999 -1.0787
18753SOL     OW60714   3.662   8.204   6.447 -0.2913 -0.3154 -1.0017
18753SOL    HW160715   3.706   8.264   6.387 -0.0499  0.0681 -0.4562
18753SOL    HW260716   3.641   8.127   6.394 -1.5968  0.6834 -1.9833
18754SOL     OW60717   6.315   9.223   7.690 -0.3901 -0.4298  0.5236
18754SOL    HW160718   6.348   9.139   7.723 -1.9900 -1.5789 -0.6606
18754SOL    HW260719   6.334   9.285   7.761  1.2931 -1.6551  1.2228
18755SOL     OW60720   9.077   7.924   6.330 -0.1813 -0.4409 -0.3751
18755SOL    HW160721   9.129   7.944   6.408 -2.1851  2.0721  0.4348
18755SOL    HW260722   9.134   7.945   6.257  1.2267 -1.4223  0.4022
18756SOL     OW60723  10.760   6.185   4.550  0.3926 -0.2119 -0.2213
18756SOL    HW160724  10.738   6.213   4.461 -1.7692 -0.3147  0.2268
18756SOL    HW260725  10.773   6.090   4.542 -2.2951 -0.6748 -0.0837
18757SOL     OW60726   5.963   4.259   3.230  0.4537  0.1630 -0.5839
18757SOL    HW160727   5.921   4.322   3.171 -0.5129 -0.6741 -0.8270
18757SOL    HW260728   5.905   4.183   3.229  1.6093 -0.7560 -0.3256
18758SOL     OW60729   8.988   6.012   4.126 -0.5745  0.3745 -0.2119
18758SOL    HW160730   9.004   6.019   4.220  2.3371  0.2443 -0.5909
18758SOL    HW260731   9.027   5.928   4.102 -1.7065  0.1787 -1.4858
18759SOL     OW60732   9.070   9.883   4.532  0.0964  0.3279 -0.0706
18759SOL    HW160733   9.024   9.822   4.590 -0.4850 -0.5893 -1.4548
18759SOL    HW260734   9.147   9.910   4.583  0.5827 -1.8528  0.4696
18760SOL     OW60735   9.990   2.599   3.742 -0.1169 -0.1238 -0.3188
18760SOL    HW160736   9.923   2.656   3.778  0.3089  0.9832 -1.2206
18760SOL    HW260737  10.072   2.646   3.759  0.6292 -2.0473  1.9589
18761SOL     OW60738   1.692   9.254   3.355  0.2183  0.0508  0.2865
18761SOL    HW160739   1.771   9.201   3.353  0.9019  1.0495  0.0357
18761SOL    HW260740   1.692   9.295   3.441  0.0901  0.2170  0.2085
18762SOL     OW60741  10.644   2.037   7.838  0.1118  0.4259 -0.2979
18762SOL    HW160742  10.682   2.010   7.922 -0.4957 -0.1217 -0.1921
18762SOL    HW260743  10.719   2.038   7.778  0.2835 -0.8275 -0.1333
18763SOL     OW60744   2.482   0.258   7.395 -0.4139 -0.2091  0.4156
18763SOL    HW160745   2.490   0.269   7.490  0.3124 -0.6304  0.4069
18763SOL    HW260746   2.441   0.340   7.365  2.0753  1.2822  0.7358
18764SOL     OW60747   6.298   4.532   5.781 -0.5076 -0.0918 -0.1257
18764SOL    HW160748   6.223   4.585   5.754 -0.0262  1.0921  0.7769
18764SOL    HW260749   6.295   4.533   5.877  0.9208  0.3573 -0.0736
18765SOL     OW60750   7.901   3.033   4.783 -0.0855 -0.2410 -0.1464
18765SOL    HW160751   7.811   3.009   4.807 -0.0726 -1.2193 -1.0428
18765SOL    HW260752   7.931   2.963   4.726  1.1241  0.2740 -0.1761
18766SOL     OW60753   0.873   9.485  10.379 -0.4351  0.3454 -0.8987
18766SOL    HW160754   0.797   9.445  10.337 -0.9131  0.1933  0.0876
18766SOL    HW260755   0.917   9.411  10.422 -1.3086  0.8271  0.9151
18767SOL     OW60756   4.285   7.669   7.099  0.4311 -0.5994  0.0212
18767SOL    HW160757   4.356   7.617   7.135  0.1279 -0.1758  1.2941
18767SOL    HW260758   4.241   7.611   7.036  0.8633 -1.4374  0.4840
18768SOL     OW60759   6.124   4.942   1.979 -0.3623  0.1427  0.1827
18768SOL    HW160760   6.085   4.900   2.056 -1.2102  1.6703  0.6361
18768SOL    HW260761   6.082   5.028   1.975 -0.0347  0.2520 -1.7689
18769SOL     OW60762   8.068   1.219   3.543  0.0631  0.0827  0.2376
18769SOL    HW160763   8.137   1.247   3.482  1.4712 -1.8306  0.8835
18769SOL    HW260764   7.986   1.233   3.494  0.9472  1.4159 -0.9373
18770SOL     OW60765   3.120   7.229   5.224  0.1509  0.3052  0.4704
18770SOL    HW160766   3.080   7.313   5.201  1.3780  0.8277  0.1694
18770SOL    HW260767   3.047   7.167   5.224 -0.8011  1.3900  0.8347
18771SOL     OW60768   8.994   8.083   3.558 -0.1461  0.0822  0.1580
18771SOL    HW160769   8.942   8.102   3.636  1.0964  3.0489  0.3932
18771SOL    HW260770   9.041   8.002   3.580  0.2554  0.8789  2.5542
18772SOL     OW60771   7.996   9.992   9.599  0.2981  0.3101  0.0968
18772SOL    HW160772   7.922   9.947   9.560  0.8831 -1.3535  0.8326
18772SOL    HW260773   7.973  10.085   9.595 -0.4494  0.0841 -2.4999
18773SOL     OW60774   5.060   3.613   7.081 -0.3417  0.1740  0.2790
18773SOL    HW160775   5.134   3.552   7.081  1.1174  1.8404  0.0971
18773SOL    HW260776   5.033   3.616   6.989 -0.0063  0.2419  0.1779
18774SOL     OW60777   0.949   4.835   5.798 -0.0241  0.2565 -0.0328
18774SOL    HW160778   0.937   4.903   5.732 -1.9936  0.1245  0.1162
18774SOL    HW260779   0.867   4.786   5.797  0.8937 -1.3826  0.7085
18775SOL     OW60780   1.828   6.776   3.081 -0.3329 -0.4608  0.0932
18775SOL    HW160781   1.833   6.790   2.986  1.9994 -0.3901  0.1594
18775SOL    HW260782   1.822   6.864   3.118 -0.4020 -0.4422  0.0383
18776SOL     OW60783   4.201   9.172   6.699  0.8108  0.0938  0.1605
18776SOL    HW160784   4.114   9.212   6.694 -0.3045 -1.7149  2.8991
18776SOL    HW260785   4.239   9.208   6.779  1.6453 -0.8778  0.2097
18777SOL     OW60786   8.391   0.218   9.679 -0.6140 -0.2264  0.1063
18777SOL    HW160787   8.406   0.305   9.641 -0.8056 -1.5765 -3.4241
18777SOL    HW260788   8.312   0.229   9.732 -1.2153  1.5636 -1.0610
18778SOL     OW60789   0.382   3.723   8.423  0.1062  0.5844 -0.4301
18778SOL    HW160790   0.405   3.792   8.486 -1.4959  0.4889  0.3273
18778SOL    HW260791   0.388   3.765   8.338  1.0811  1.0909 -0.1221
18779SOL     OW60792   6.904   1.929   2.949  0.1093 -0.3427  0.0445
18779SOL    HW160793   6.884   2.023   2.948  1.1949 -0.1014 -0.9706
18779SOL    HW260794   6.818   1.887   2.948 -0.3939  0.6306  0.3299
18780SOL     OW60795   6.914   4.250   6.080 -0.0032  0.1618 -0.0556
18780SOL    HW160796   6.894   4.333   6.036  1.0265  0.2190 -0.4610
18780SOL    HW260797   6.921   4.272   6.172  0.1269  0.5050 -0.1464
18781SOL     OW60798   7.499   1.657  10.040 -0.0105  0.0301  0.2625
18781SOL    HW160799   7.493   1.648   9.945  2.0171  1.3698 -0.0564
18781SOL    HW260800   7.458   1.741  10.059  0.6131  0.3094  0.4054
18782SOL     OW60801   7.686   2.537   8.782  0.7275  0.3855  0.3901
18782SOL    HW160802   7.742   2.531   8.860 -0.5030  1.3137  1.3708
18782SOL    HW260803   7.637   2.455   8.782  2.4489 -0.7251 -0.8260
18783SOL     OW60804   5.294  10.972   0.189 -0.1158 -0.0030  0.2815
18783SOL    HW160805   5.359  11.033   0.225 -0.1496 -0.9878  2.1685
18783SOL    HW260806   5.290  10.993   0.096  0.0621  2.6599  0.8031
18784SOL     OW60807   1.228   4.988   8.166 -0.1374 -0.4276 -0.0311
18784SOL    HW160808   1.176   4.920   8.124 -0.6300 -0.3897  0.5165
18784SOL    HW260809   1.247   5.050   8.095 -2.4787  0.5721  0.0938
18785SOL     OW60810  11.015   9.381   3.119 -0.6572  0.0811 -0.1796
18785SOL    HW160811  10.978   9.350   3.037 -0.4253 -2.1165  0.4933
18785SOL    HW260812  11.037   9.473   3.102 -2.8209  0.3835 -1.7879
18786SOL     OW60813   3.216   3.469   7.551 -0.0293 -0.0004  0.7851
18786SOL    HW160814   3.207   3.380   7.518 -2.6376  0.8965 -1.2586
18786SOL    HW260815   3.303   3.496   7.522 -0.1305 -1.1054 -0.6742
18787SOL     OW60816   3.571   2.673   2.035  0.4502 -0.3752  0.2152
18787SOL    HW160817   3.557   2.767   2.025  1.3349 -0.0940  1.4486
18787SOL    HW260818   3.633   2.651   1.966  1.3317  0.2389  0.7840
18788SOL     OW60819   9.094   6.340  10.001  0.2787  0.5601  0.0829
18788SOL    HW160820   9.090   6.433  10.019  1.3757  0.4660  0.9181
18788SOL    HW260821   9.093   6.298  10.087  1.4085 -0.1048 -0.1973
18789SOL     OW60822   0.752   0.941  10.727 -0.5230 -0.2042  0.0713
18789SOL    HW160823   0.769   1.013  10.666 -0.1947 -0.3136  0.0303
18789SOL    HW260824   0.706   0.982  10.801  0.4161  0.2139  0.4428
18790SOL     OW60825   0.192   5.514   7.694  0.2981 -0.0803 -0.3012
18790SOL    HW160826   0.194   5.423   7.665 -1.2172 -0.6681  1.2347
18790SOL    HW260827   0.154   5.561   7.621  0.7858 -0.7324 -0.9884
18791SOL     OW60828   1.659   7.392   6.588 -0.1549  0.5016  0.1320
18791SOL    HW160829   1.590   7.455   6.607 -0.5797 -0.3277  1.4453
18791SOL    HW260830   1.615   7.322   6.540  0.1395  0.7897 -0.5673
18792SOL     OW60831   9.748   8.069   1.993  0.4807  0.5579 -0.0247
18792SOL    HW160832   9.659   8.044   2.020  1.2618 -1.0531  1.2119
18792SOL    HW260833   9.735   8.117   1.911 -1.3743 -1.9584 -1.3662
18793SOL     OW60834   3.912   4.725  10.127  0.2417  0.4449  0.0659
18793SOL    HW160835   3.875   4.771  10.051  1.4406 -0.3533 -1.0528
18793SOL    HW260836   3.877   4.637  10.121  1.1477  0.0843 -0.1871
18794SOL     OW60837   5.519   3.100  10.259 -0.1777 -0.1785  0.1102
18794SOL    HW160838   5.465   3.024  10.279 -1.0719 -0.1080 -1.7689
18794SOL    HW260839   5.599   3.087  10.310 -1.2302 -1.2092  1.5537
18795SOL     OW60840   4.256   0.305   8.435  0.0436 -0.7653  0.1860
18795SOL    HW160841   4.264   0.210   8.444  1.5950 -0.7819 -0.9167
18795SOL    HW260842   4.321   0.340   8.497  0.8205 -0.5121 -0.7423
18796SOL     OW60843   6.598   6.261   1.260  0.4270  0.0228  0.6427
18796SOL    HW160844   6.645   6.344   1.256 -1.1227  0.8755 -2.6073
18796SOL    HW260845   6.517   6.281   1.307 -0.3422  0.6466 -0.8836
18797SOL     OW60846   5.156   0.298   3.707  0.1331  0.5162 -0.3421
18797SOL    HW160847   5.235   0.342   3.737 -0.2284  1.4115 -0.6780
18797SOL    HW260848   5.187   0.218   3.665  0.6804 -0.7841  2.2990
18798SOL     OW60849   4.877   5.443   4.827  0.0418 -0.0571  0.2211
18798SOL    HW160850   4.793   5.440   4.781 -0.2872 -0.3206  0.8268
18798SOL    HW260851   4.862   5.394   4.908  0.8750 -0.3775  0.1867
18799SOL     OW60852   0.372   9.378   5.777 -0.7531 -0.6480  0.2141
18799SOL    HW160853   0.318   9.299   5.772 -0.8979 -0.5403  0.0738
18799SOL    HW260854   0.385   9.403   5.686 -0.6569 -0.5444  0.2573
18800SOL     OW60855   2.286   6.709  10.595 -0.6513 -0.8210  0.6215
18800SOL    HW160856   2.325   6.739  10.677 -0.2734  0.3493  0.0422
18800SOL    HW260857   2.284   6.613  10.603  1.1880 -0.8546  1.1868
18801SOL     OW60858   1.316   0.874   3.346  1.2026 -0.8579 -0.6984
18801SOL    HW160859   1.329   0.780   3.338 -0.4667 -1.0072 -2.2687
18801SOL    HW260860   1.396   0.913   3.312  1.2006 -1.7227 -1.7387
18802SOL     OW60861   1.667   4.469   9.332 -0.1553 -0.1900 -0.2256
18802SOL    HW160862   1.719   4.389   9.343  0.5517  0.2426 -0.3234
18802SOL    HW260863   1.686   4.520   9.411  1.1105  0.8081 -1.1290
18803SOL     OW60864   5.623   7.440   9.537  0.1324  0.3371  0.1740
18803SOL    HW160865   5.677   7.415   9.613 -0.1754  1.2325  0.7003
18803SOL    HW260866   5.538   7.400   9.556  0.3623 -0.3938 -0.2671
18804SOL     OW60867   0.584   1.716   0.491  0.4878  0.3600  0.0501
18804SOL    HW160868   0.574   1.770   0.413  0.6361  0.3813  0.0440
18804SOL    HW260869   0.612   1.777   0.559 -4.2420  1.3310  1.4688
18805SOL     OW60870   8.453   3.133   9.316 -0.2005  0.1621 -0.4785
18805SOL    HW160871   8.515   3.061   9.329  1.7867  2.0564  1.2678
18805SOL    HW260872   8.398   3.131   9.394  1.3465  1.8094  0.7436
18806SOL     OW60873   8.134   4.428   8.051  0.1971  0.3019  0.3171
18806SOL    HW160874   8.227   4.408   8.061 -0.4303 -2.3981  1.6492
18806SOL    HW260875   8.113   4.482   8.127  0.6069  0.7215  0.1361
18807SOL     OW60876   0.772   3.777   7.452  0.0884 -0.5263 -0.1095
18807SOL    HW160877   0.776   3.735   7.366 -0.6821 -2.6619  0.8289
18807SOL    HW260878   0.863   3.794   7.474  0.3419 -0.6299 -1.0303
18808SOL     OW60879   4.519   8.237  10.983  0.7349 -0.5724 -0.5947
18808SOL    HW160880   4.468   8.156  10.979  0.3688 -0.5151  1.5123
18808SOL    HW260881   4.454   8.306  10.992  1.0106 -0.5841  3.2410
18809SOL     OW60882   9.414  10.175   7.757  0.6434  0.3025 -0.4413
18809SOL    HW160883   9.345  10.200   7.697 -0.2475 -0.0502  0.4163
18809SOL    HW260884   9.417  10.080   7.753 -0.7434  0.1202  1.4531
18810SOL     OW60885   0.793   8.937   9.279  0.3917  0.2659 -0.2788
18810SOL    HW160886   0.826   9.027   9.288  1.1032 -0.1077  1.1453
18810SOL    HW260887   0.871   8.885   9.260  0.3670 -0.3479  1.1422
18811SOL     OW60888   2.123   6.088   5.454  0.4990  0.0558 -0.6568
18811SOL    HW160889   2.153   6.012   5.405  0.7085  0.3474 -0.9928
18811SOL    HW260890   2.149   6.163   5.400  2.1573  0.4671  0.6539
18812SOL     OW60891   1.752   5.675   6.635  0.6293  0.0447  0.2023
18812SOL    HW160892   1.791   5.708   6.716  2.0232 -1.3677  0.1712
18812SOL    HW260893   1.808   5.710   6.566 -1.0562  1.9512 -0.2722
18813SOL     OW60894   9.535   7.310   2.346  0.1654 -0.4021 -0.5289
18813SOL    HW160895   9.540   7.326   2.252  1.2254 -0.2544 -0.4624
18813SOL    HW260896   9.471   7.239   2.355  1.0447 -1.3401 -1.4756
18814SOL     OW60897  10.691   4.060   8.433 -0.0862  0.2887 -0.1367
18814SOL    HW160898  10.731   3.990   8.381 -0.4782  0.6519 -0.9288
18814SOL    HW260899  10.704   4.032   8.524 -1.0461 -1.2848 -0.4432
18815SOL     OW60900   8.528   8.795  10.717  0.0193  0.1543 -0.1296
18815SOL    HW160901   8.544   8.890  10.714  0.1357  0.1475  0.2641
18815SOL    HW260902   8.565   8.763  10.635  3.2489 -0.0208  1.2351
18816SOL     OW60903   6.495   1.531   9.299 -0.1025 -0.3309 -0.9043
18816SOL    HW160904   6.524   1.581   9.375  1.6402 -0.1670 -1.6388
18816SOL    HW260905   6.421   1.479   9.331  0.7667 -0.4863  0.9705
18817SOL     OW60906   0.305   9.451  10.057 -0.6681  0.5436  0.1003
18817SOL    HW160907   0.211   9.471  10.055 -0.3774  2.4477  1.9079
18817SOL    HW260908   0.316   9.396  10.134 -0.5137 -1.2381 -1.1524
18818SOL     OW60909  10.131   1.831   8.163  0.0901 -0.3652 -0.6420
18818SOL    HW160910  10.064   1.801   8.225  0.9381 -1.2862 -0.1364
18818SOL    HW260911  10.098   1.807   8.077 -0.7720  0.2684 -0.4953
18819SOL     OW60912   4.890   7.589   2.229  0.5055 -0.8992  0.3731
18819SOL    HW160913   4.908   7.651   2.300  1.2034 -1.3671  0.6133
18819SOL    HW260914   4.829   7.527   2.267  0.2303 -0.6739  0.3022
18820SOL     OW60915   3.966   1.330   1.111  0.0287 -0.7361  0.3481
18820SOL    HW160916   3.924   1.297   1.190  0.1509  0.2186  0.8171
18820SOL    HW260917   3.930   1.276   1.040 -1.8967 -0.0114  0.7374
18821SOL     OW60918   0.767   1.397   2.802  0.2147 -0.1467  0.3023
18821SOL    HW160919   0.748   1.409   2.895  2.7846  0.2926  0.8494
18821SOL    HW260920   0.781   1.303   2.792  1.5687 -0.0019  0.7385
18822SOL     OW60921   0.803   8.847  11.035  0.7275  0.6574 -0.3461
18822SOL    HW160922   0.763   8.930  11.059  2.6936  1.8141 -0.9105
18822SOL    HW260923   0.742   8.809  10.972 -0.5994  1.2507  0.5305
18823SOL     OW60924   3.806   6.681  10.458 -0.1630 -0.2515  0.0890
18823SOL    HW160925   3.767   6.749  10.513  2.2266  0.5564  0.9206
18823SOL    HW260926   3.829   6.611  10.520  0.9427 -0.0941 -0.1149
18824SOL     OW60927   6.551   3.591   3.434 -0.2497 -0.2016 -0.0408
18824SOL    HW160928   6.586   3.612   3.348 -3.6503 -2.5276 -2.2435
18824SOL    HW260929   6.598   3.513   3.462 -0.0988 -0.2625 -0.4723
18825SOL     OW60930   6.109   2.248   6.882 -0.1393 -0.3262  0.3094
18825SOL    HW160931   6.097   2.251   6.976  0.1171  1.7123  0.3073
18825SOL    HW260932   6.193   2.204   6.870 -0.6714 -1.5683  0.9460
18826SOL     OW60933   2.984  10.368   0.655  0.5493  0.1176 -0.2503
18826SOL    HW160934   2.949  10.414   0.732  2.9819  1.5535  0.1052
18826SOL    HW260935   2.963  10.425   0.581  0.3127 -0.0760 -0.3346
18827SOL     OW60936  10.924  10.811   5.382 -0.2548  0.3192  0.0944
18827SOL    HW160937  10.859  10.813   5.311 -0.7201 -0.0813  0.5007
18827SOL    HW260938  10.874  10.827   5.461  0.1266 -0.0768  0.4234
18828SOL     OW60939   9.839   5.235   7.292 -0.0573 -0.5150  0.0589
18828SOL    HW160940   9.925   5.224   7.331 -0.5583 -3.3462  0.5950
18828SOL    HW260941   9.852   5.298   7.222  2.7918 -1.9075 -0.8070
18829SOL     OW60942   2.997   1.168   3.456 -0.1803  0.0005 -0.0795
18829SOL    HW160943   3.022   1.222   3.531 -0.4840  0.4748 -0.3207
18829SOL    HW260944   3.072   1.175   3.396  0.0825 -0.4161  0.1976
18830SOL     OW60945   0.121   8.481   5.846  0.1126  0.3265 -0.0249
18830SOL    HW160946   0.086   8.420   5.910 -1.2916  0.7447 -0.3408
18830SOL    HW260947   0.070   8.464   5.767  1.5965  0.0356 -0.9590
18831SOL     OW60948   6.256   8.709   3.049 -0.0719 -0.3129 -0.3898
18831SOL    HW160949   6.326   8.646   3.030 -0.9462 -1.7894  0.9864
18831SOL    HW260950   6.198   8.703   2.973  1.1421  0.7617 -1.4416
18832SOL     OW60951   9.479   8.460  10.523  0.1997  0.4447  0.3285
18832SOL    HW160952   9.398   8.465  10.574 -0.6944 -0.6736 -0.8997
18832SOL    HW260953   9.511   8.371  10.540 -1.0352 -0.6063 -2.2649
18833SOL     OW60954   6.640   9.978  10.127  0.3518  0.0862 -0.4626
18833SOL    HW160955   6.691  10.014  10.054  0.4578 -0.6711 -0.7668
18833SOL    HW260956   6.668  10.029  10.203  0.1505  0.9717 -0.9677
18834SOL     OW60957   9.992   5.178   0.079  0.1552  0.2166  0.2429
18834SOL    HW160958   9.942   5.192   0.160  2.2723 -1.7883  2.0458
18834SOL    HW260959  10.068   5.236   0.088  2.2081 -2.4634  1.5127
18835SOL     OW60960   8.338   4.671   1.632  0.3831  0.0733 -0.1318
18835SOL    HW160961   8.279   4.743   1.608 -0.4379 -0.5147  0.0673
18835SOL    HW260962   8.287   4.618   1.694  0.4392 -1.4420 -1.3245
18836SOL     OW60963   5.715   9.953   9.079 -0.0482 -0.4476 -0.2533
18836SOL    HW160964   5.725  10.043   9.110  1.7580 -1.3199  2.0088
18836SOL    HW260965   5.799   9.933   9.036 -0.4887 -1.0162 -0.8704
18837SOL     OW60966   8.612   4.333   8.925 -0.1257 -0.5889  0.1368
18837SOL    HW160967   8.554   4.327   9.001 -0.8519 -1.1991 -0.4425
18837SOL    HW260968   8.690   4.284   8.949  0.4353  0.7521  1.1596
18838SOL     OW60969   6.380   7.284   1.187  0.6351 -0.1978  0.3978
18838SOL    HW160970   6.432   7.261   1.264 -0.5608  0.6004  1.4944
18838SOL    HW260971   6.395   7.377   1.174 -1.3269  0.3222  1.4465
18839SOL     OW60972   0.731   8.341   1.326  0.0295 -0.1628  0.3546
18839SOL    HW160973   0.798   8.397   1.285 -1.5831  2.5878  1.1681
18839SOL    HW260974   0.781   8.286   1.387  1.6551  1.7501  0.9139
18840SOL     OW60975  10.351   9.808   5.708  0.1277 -0.1604 -0.3787
18840SOL    HW160976  10.387   9.800   5.619  0.7332  1.0199 -0.2616
18840SOL    HW260977  10.275   9.865   5.698 -0.4527 -0.8901 -0.2830
18841SOL     OW60978   5.118   6.643   6.181  0.4849 -0.0023  0.8564
18841SOL    HW160979   5.062   6.596   6.119 -0.4207  1.4660  0.4936
18841SOL    HW260980   5.201   6.655   6.135  0.2627 -0.0639  0.4349
18842SOL     OW60981   3.369   0.986   0.479  0.3915 -0.6592 -0.1336
18842SOL    HW160982   3.337   1.044   0.410  1.2683 -0.9817 -0.8306
18842SOL    HW260983   3.292   0.969   0.534 -0.4432 -0.7880 -1.3056
18843SOL     OW60984   3.280   8.225   3.154 -0.0049  0.1843 -0.5389
18843SOL    HW160985   3.359   8.275   3.132  0.0895  0.3368  0.1214
18843SOL    HW260986   3.210   8.268   3.105  0.0392  1.1151  0.1805
18844SOL     OW60987   3.673   7.098   7.295 -0.5477  0.4112 -0.2306
18844SOL    HW160988   3.656   7.014   7.337  0.8303  0.7019  1.0093
18844SOL    HW260989   3.631   7.091   7.210 -0.4734 -1.5273 -0.1578
18845SOL     OW60990   7.438   5.375   4.395  0.1074  0.1863 -0.1519
18845SOL    HW160991   7.365   5.360   4.457  0.3886 -2.4427 -0.3460
18845SOL    HW260992   7.408   5.337   4.313  1.2576  0.1514 -0.5713
18846SOL     OW60993  10.039   6.226   5.914 -0.0535 -0.0149 -0.6702
18846SOL    HW160994   9.954   6.217   5.956  0.4231 -3.0169 -0.1179
18846SOL    HW260995  10.025   6.194   5.825  0.5446 -0.7885 -0.4915
18847SOL     OW60996   5.135   4.199   2.218 -0.2337  0.5705  0.8472
18847SOL    HW160997   5.137   4.168   2.127 -1.8951 -2.7400  1.7809
18847SOL    HW260998   5.212   4.159   2.258 -0.4347  0.5793  1.2492
18848SOL     OW60999   2.008   1.151   6.146 -0.9021  0.8826  0.0298
18848SOL    HW161000   2.010   1.205   6.067 -2.8656  1.6736  0.4652
18848SOL    HW261001   1.916   1.127   6.157 -0.5436  0.0816  1.6169
18849SOL     OW61002   5.228   3.147   4.560  0.1103 -0.1356 -0.1450
18849SOL    HW161003   5.317   3.167   4.531 -0.2935 -1.3738 -2.5503
18849SOL    HW261004   5.179   3.227   4.545  0.5625  0.1565 -0.0731
18850SOL     OW61005   1.703   6.332   1.659 -0.2710 -0.1742 -0.8192
18850SOL    HW161006   1.688   6.411   1.608  1.1319  1.0409  0.5565
18850SOL    HW261007   1.662   6.262   1.608 -3.5381  1.7115 -1.0026
18851SOL     OW61008  10.839   9.444   7.789  0.3004  0.5080 -0.1322
18851SOL    HW161009  10.923   9.481   7.763  1.8784 -0.7414  2.7138
18851SOL    HW261010  10.832   9.363   7.739  0.6213  0.7971 -0.6521
18852SOL     OW61011   3.263  10.489   7.173 -0.0906  0.7224 -0.9586
18852SOL    HW161012   3.250  10.518   7.083 -1.4622 -0.4962 -1.1823
18852SOL    HW261013   3.331  10.422   7.167 -2.0141 -1.2788 -1.5306
18853SOL     OW61014   2.083  10.030   0.794  0.3520  0.0804  0.0074
18853SOL    HW161015   2.078  10.078   0.877 -0.4210  2.4513 -1.2999
18853SOL    HW261016   1.992  10.020   0.766  0.6144 -0.3587 -0.7177
18854SOL     OW61017   9.122   4.272   5.236  0.2403 -0.0743  0.5379
18854SOL    HW161018   9.156   4.313   5.315 -0.7067  1.1412  0.3507
18854SOL    HW261019   9.134   4.338   5.167  1.3651 -1.2359 -0.4324
18855SOL     OW61020   8.090   3.906  11.037  0.5879 -0.0478  0.8858
18855SOL    HW161021   8.034   3.886  10.962 -0.6438 -1.6382  2.1711
18855SOL    HW261022   8.126   3.821  11.062 -0.4765  0.1249  3.2085
18856SOL     OW61023   9.996   1.645   9.977  0.5534 -0.3107  0.1868
18856SOL    HW161024  10.012   1.723  10.032  2.2113 -0.2729 -0.3028
18856SOL    HW261025  10.083   1.620   9.946 -0.1128 -1.6537 -0.6471
18857SOL     OW61026   6.362   5.392   3.742 -0.3248  0.0971 -0.1984
18857SOL    HW161027   6.333   5.303   3.761 -1.9719  0.3416 -1.3662
18857SOL    HW261028   6.304   5.448   3.795  0.4849  0.5083  0.2807
18858SOL     OW61029   4.114   6.765   8.131  0.1842  0.2109 -0.5402
18858SOL    HW161030   4.139   6.762   8.038  2.5670  0.1333  0.0371
18858SOL    HW261031   4.195   6.787   8.177 -0.8312 -0.2181  1.5804
18859SOL     OW61032   9.479   3.714   7.648  1.3251  0.3029  0.7434
18859SOL    HW161033   9.507   3.650   7.583 -0.7515 -2.2392  2.1505
18859SOL    HW261034   9.558   3.733   7.699  2.2619 -0.1012 -0.5162
18860SOL     OW61035  10.183   6.085   9.367  0.4308 -0.0432 -0.3019
18860SOL    HW161036  10.241   6.011   9.385 -0.1706 -0.0967  1.7002
18860SOL    HW261037  10.095   6.047   9.363  0.3347  0.2704 -1.5995
18861SOL     OW61038   0.270   9.896   4.336 -0.3112  0.2480  0.2449
18861SOL    HW161039   0.324   9.835   4.386  3.1162  2.0505 -0.9059
18861SOL    HW261040   0.221   9.841   4.276  0.8551 -1.5082  0.8174
18862SOL     OW61041  10.035   4.537   3.539 -0.2556  0.1166 -0.2219
18862SOL    HW161042   9.992   4.517   3.456 -0.1849  3.2439 -1.1610
18862SOL    HW261043  10.123   4.565   3.514  0.4388 -0.7722  1.1240
18863SOL     OW61044   1.547   9.831   2.660 -0.0224  0.6493  0.0695
18863SOL    HW161045   1.575   9.876   2.580  0.8154 -1.4642 -0.9084
18863SOL    HW261046   1.610   9.860   2.727  2.3594 -1.1284 -1.2232
18864SOL     OW61047   6.487   8.498   2.083  0.2135  0.7402  0.3666
18864SOL    HW161048   6.570   8.489   2.129  0.2762  0.6095  0.2287
18864SOL    HW261049   6.509   8.542   2.001  0.6253 -1.8052 -0.9952
18865SOL     OW61050   6.409   1.539   8.888 -0.0253 -0.5857  0.2099
18865SOL    HW161051   6.470   1.466   8.893  1.0194  0.3108  0.8084
18865SOL    HW261052   6.456   1.613   8.925 -1.0682  0.3996 -0.3588
18866SOL     OW61053   1.563   8.529   8.861 -0.4328  0.0076  0.7803
18866SOL    HW161054   1.652   8.533   8.826 -0.1363  1.0363  1.6035
18866SOL    HW261055   1.513   8.482   8.794  0.2772  1.2269 -0.6761
18867SOL     OW61056   3.175   8.570  10.493  0.0690  0.0551  0.7420
18867SOL    HW161057   3.239   8.600  10.557  0.6226 -1.1523  0.7887
18867SOL    HW261058   3.151   8.648  10.443  1.0608  0.6477  1.1798
18868SOL     OW61059   3.838   5.720   1.111  0.0301  0.2486  0.7030
18868SOL    HW161060   3.791   5.799   1.139 -0.8556 -0.0424  0.0857
18868SOL    HW261061   3.922   5.753   1.080 -0.3717  0.9772  0.3487
18869SOL     OW61062  10.695   1.771   4.628 -0.3594 -0.2863  0.4691
18869SOL    HW161063  10.709   1.688   4.583 -0.9791  0.8267 -1.9019
18869SOL    HW261064  10.784   1.805   4.641 -0.1753  0.4160 -2.0913
18870SOL     OW61065   0.093   4.401   8.642  0.0432 -0.3095  0.1131
18870SOL    HW161066   0.095   4.311   8.609  0.9075 -0.1249 -0.3839
18870SOL    HW261067   0.003   4.414   8.673 -0.1542 -1.2589 -0.0421
18871SOL     OW61068   2.656   7.285   8.073  0.0842  0.3303 -0.1521
18871SOL    HW161069   2.628   7.208   8.023 -0.4740  0.4238  0.0020
18871SOL    HW261070   2.648   7.259   8.164 -1.6027  1.0489 -0.0568
18872SOL     OW61071   0.555   5.179   0.998 -0.0099  0.7595  0.1789
18872SOL    HW161072   0.621   5.166   0.929 -0.7762 -0.8216 -0.3089
18872SOL    HW261073   0.550   5.274   1.009  0.8983  0.9997 -1.1992
18873SOL     OW61074   8.140   4.716   3.640 -0.7353 -0.6633  0.0285
18873SOL    HW161075   8.117   4.654   3.710 -1.0594 -1.2619 -0.6005
18873SOL    HW261076   8.056   4.747   3.608 -0.6088 -0.9632 -0.6017
18874SOL     OW61077   4.025   4.804   8.842  0.5400 -0.6673 -0.1683
18874SOL    HW161078   4.056   4.817   8.752 -0.5705 -0.0530 -0.4827
18874SOL    HW261079   4.081   4.861   8.895  0.2707  0.0601 -0.6548
18875SOL     OW61080  10.506   8.531   9.897 -0.0436  0.5854  0.0435
18875SOL    HW161081  10.464   8.536   9.983 -0.6689 -0.4687 -0.1780
18875SOL    HW261082  10.440   8.563   9.836  0.1040  0.5723 -0.1240
18876SOL     OW61083   7.539   3.678   1.532 -0.1963 -0.0818  0.4806
18876SOL    HW161084   7.501   3.713   1.613  2.8147  2.5562  0.9886
18876SOL    HW261085   7.622   3.640   1.560 -0.4535 -1.8926 -1.0510
18877SOL     OW61086   2.658   2.385   0.008  0.5326  0.2569  0.2811
18877SOL    HW161087   2.713   2.321   0.053  0.9350  0.9193  0.7603
18877SOL    HW261088   2.577   2.338  -0.011  1.8332 -1.2757 -1.9274
18878SOL     OW61089   7.716   7.551   3.891  0.3412  0.2834 -0.1696
18878SOL    HW161090   7.746   7.638   3.864  1.7147 -0.5862 -1.6013
18878SOL    HW261091   7.785   7.518   3.949 -0.6553  0.5048  1.2045
18879SOL     OW61092  10.167   4.848   8.800 -0.0361 -0.4373  0.0400
18879SOL    HW161093  10.182   4.769   8.748 -0.2352 -1.2219  1.1488
18879SOL    HW261094  10.076   4.841   8.829 -0.8267  1.3435 -1.7125
18880SOL     OW61095   5.096   3.806   0.483 -0.7443  0.1904  0.8245
18880SOL    HW161096   5.047   3.756   0.547 -1.9190  1.5599  1.0515
18880SOL    HW261097   5.170   3.843   0.532 -1.3595  0.8225  1.3000
18881SOL     OW61098   9.096   9.256  10.574 -0.2773  0.1389 -0.1221
18881SOL    HW161099   9.132   9.318  10.637  0.0889  1.5219 -1.6398
18881SOL    HW261100   9.002   9.259  10.588 -0.2334  0.7856  0.0483
18882SOL     OW61101   4.168   3.999   4.168 -0.0720 -0.0937 -0.4477
18882SOL    HW161102   4.204   3.947   4.239  0.1018 -0.0508 -0.5045
18882SOL    HW261103   4.108   3.940   4.122 -0.3075 -0.0717 -0.1678
18883SOL     OW61104   7.887   6.228   8.109  0.1032  0.1375  0.2344
18883SOL    HW161105   7.819   6.165   8.132 -1.7301  1.6680 -0.7891
18883SOL    HW261106   7.903   6.277   8.190  0.3280 -0.5022  0.5873
18884SOL     OW61107   6.746   1.574   8.361  0.0324  0.1828 -0.5567
18884SOL    HW161108   6.722   1.663   8.386 -0.0012  0.7056 -2.3239
18884SOL    HW261109   6.720   1.567   8.269  0.6507 -1.4335 -0.6390
18885SOL     OW61110  10.335   7.994   6.082  0.2283  0.4761  0.0455
18885SOL    HW161111  10.389   8.061   6.126 -0.7410  1.6528 -0.5091
18885SOL    HW261112  10.250   8.000   6.126  0.2793 -0.7681  0.3330
18886SOL     OW61113   8.945   8.703   7.536 -0.2175  0.4174 -0.4072
18886SOL    HW161114   8.850   8.690   7.537  0.0661 -2.0487  0.4133
18886SOL    HW261115   8.964   8.732   7.446 -1.7679  1.5501 -0.4101
18887SOL     OW61116   2.037   8.405   1.077  0.8033 -0.0668  0.2873
18887SOL    HW161117   1.983   8.330   1.101  1.7084 -0.5186  0.9566
18887SOL    HW261118   2.126   8.370   1.071  0.8987  0.4114 -1.9418
18888SOL     OW61119   1.657   1.503   7.302 -0.2346 -0.1702  0.4516
18888SOL    HW161120   1.649   1.511   7.397  1.1048 -0.9771  0.6667
18888SOL    HW261121   1.692   1.587   7.273 -1.0758  0.2370  0.6086
18889SOL     OW61122   9.999   4.652   8.019 -0.0750 -0.1817 -0.0375
18889SOL    HW161123   9.995   4.721   8.084 -0.9373  1.3143 -1.5935
18889SOL    HW261124  10.002   4.571   8.070 -0.4095  0.9226  1.8340
18890SOL     OW61125   1.892   1.081   4.382  0.2312  1.0598 -0.6761
18890SOL    HW161126   1.860   1.164   4.419  1.4477  1.1735  0.1829
18890SOL    HW261127   1.840   1.068   4.303 -2.7052  0.6606  1.1788
18891SOL     OW61128   4.112   1.506   5.735 -0.3819 -0.1775  0.1333
18891SOL    HW161129   4.051   1.433   5.743 -0.6277 -0.3133 -2.3223
18891SOL    HW261130   4.079   1.557   5.662  0.6868  1.5335  0.7959
18892SOL     OW61131   3.618  10.160   0.885 -0.6065  0.5117 -0.2572
18892SOL    HW161132   3.708  10.185   0.905  0.0380 -0.8946 -1.2579
18892SOL    HW261133   3.597  10.092   0.949 -1.7310  2.2358  1.3095
18893SOL     OW61134   2.203   3.002   2.564 -0.3072  0.2761  0.4284
18893SOL    HW161135   2.203   2.962   2.651 -0.0531 -0.2402  0.1962
18893SOL    HW261136   2.259   3.079   2.572  0.0212  0.0172  0.6263
18894SOL     OW61137   9.690   5.923  10.083 -0.0046  0.3599  0.0571
18894SOL    HW161138   9.630   5.996  10.098 -0.8815 -0.0621 -1.2826
18894SOL    HW261139   9.770   5.949  10.129 -0.3620  2.0758 -0.2191
18895SOL     OW61140   4.617   6.344   2.999 -0.0936  0.6456  0.0845
18895SOL    HW161141   4.625   6.416   2.936 -1.1433  0.3312 -0.4285
18895SOL    HW261142   4.574   6.273   2.950  1.3372 -0.5156  0.4435
18896SOL     OW61143   6.034   6.325   7.173  0.0589  0.3775 -0.1644
18896SOL    HW161144   6.124   6.314   7.140 -0.4590 -0.0625 -1.5134
18896SOL    HW261145   6.007   6.236   7.195 -0.0535  0.5115  0.2441
18897SOL     OW61146   8.413   0.210   8.944 -0.0168  0.3687  0.4865
18897SOL    HW161147   8.401   0.280   8.880 -0.8131  0.4597  0.7318
18897SOL    HW261148   8.344   0.146   8.925  2.2790 -1.7538 -1.5128
18898SOL     OW61149   9.953  10.491   0.616 -0.4782  0.2774  0.1193
18898SOL    HW161150   9.887  10.500   0.685 -1.0656 -0.9879 -0.2549
18898SOL    HW261151   9.951  10.399   0.592  4.3695 -0.9154  2.9726
18899SOL     OW61152   3.214  10.568   6.895 -0.2562 -0.6598 -0.5264
18899SOL    HW161153   3.288  10.607   6.849  0.3285 -2.5596 -1.2876
18899SOL    HW261154   3.137  10.604   6.850  0.2007  0.4227 -0.4831
18900SOL     OW61155   3.745   4.818   5.346  0.4682 -0.1662 -0.1779
18900SOL    HW161156   3.690   4.740   5.338 -0.3424  0.3020  0.6578
18900SOL    HW261157   3.753   4.851   5.257  1.6518 -1.7441 -0.6897
18901SOL     OW61158   5.204   3.192   8.126  0.2787 -0.8884 -0.2509
18901SOL    HW161159   5.167   3.273   8.161  1.8156 -0.4593  0.4392
18901SOL    HW261160   5.189   3.127   8.195  1.3563 -0.5583  0.3139
18902SOL     OW61161   6.295   4.258   4.127 -0.2450 -0.0682 -0.2648
18902SOL    HW161162   6.350   4.337   4.128 -0.7563  0.3065  0.9560
18902SOL    HW261163   6.239   4.267   4.205 -0.8743 -1.2494 -0.5527
18903SOL     OW61164   9.300   2.737   0.049  0.5501 -0.5530  0.4352
18903SOL    HW161165   9.333   2.767  -0.035  0.2292 -1.0528  0.1236
18903SOL    HW261166   9.286   2.817   0.100 -1.8925  0.0237 -0.9659
18904SOL     OW61167   5.179   7.159   8.511  0.2684  0.2084 -0.1281
18904SOL    HW161168   5.244   7.182   8.445  1.1248 -0.9240  0.2920
18904SOL    HW261169   5.095   7.186   8.473  0.8618  0.5904 -1.1930
18905SOL     OW61170   7.090   5.988   6.293 -0.5295 -0.5916 -0.1490
18905SOL    HW161171   7.106   6.080   6.268 -0.7429  0.0803  1.9722
18905SOL    HW261172   6.998   5.986   6.318 -0.7564 -1.6304 -1.0203
18906SOL     OW61173   0.410   3.432   0.120  0.4409 -0.6134  0.0884
18906SOL    HW161174   0.364   3.428   0.204  1.3126 -1.1554  0.5474
18906SOL    HW261175   0.456   3.348   0.113  0.5212 -0.5054 -0.8521
18907SOL     OW61176   0.896   7.463   8.092  0.1845 -0.0128  0.3433
18907SOL    HW161177   0.894   7.454   8.187 -0.3035 -1.6153  0.2004
18907SOL    HW261178   0.939   7.383   8.061  0.1086  0.3729 -0.8012
18908SOL     OW61179   4.422   9.661   8.085 -0.2985  0.5494 -0.6070
18908SOL    HW161180   4.364   9.704   8.149  1.4487  2.2082 -0.0397
18908SOL    HW261181   4.507   9.657   8.130  0.7554  0.9410 -2.4736
18909SOL     OW61182   1.352   8.530   2.993  0.0048 -0.2158  0.3612
18909SOL    HW161183   1.393   8.608   3.029  0.6994 -0.8278  0.9266
18909SOL    HW261184   1.313   8.559   2.911 -0.3853  0.8861  0.9197
18910SOL     OW61185   2.540   4.348  10.480  0.1689 -0.6119 -0.1276
18910SOL    HW161186   2.631   4.360  10.507  0.8367 -1.6687 -1.7314
18910SOL    HW261187   2.540   4.264  10.434 -1.5065 -0.3755 -0.6126
18911SOL     OW61188   8.491  10.178   7.461  0.3181 -0.4026  0.1870
18911SOL    HW161189   8.418  10.241   7.467  0.8645  0.4089 -1.1806
18911SOL    HW261190   8.466  10.107   7.520 -0.4241  0.9930  1.6356
18912SOL     OW61191   4.972   1.026   5.096  0.1975  0.0442 -0.5017
18912SOL    HW161192   5.000   1.052   5.184 -1.2071  0.8340 -0.2549
18912SOL    HW261193   4.952   1.108   5.051 -0.0456 -0.3963 -1.2259
18913SOL     OW61194   4.241   5.535   9.482  0.1216  0.6477 -0.2703
18913SOL    HW161195   4.204   5.477   9.416 -1.2617  1.2010 -0.0117
18913SOL    HW261196   4.320   5.571   9.441  0.3946 -0.5528 -0.8348
18914SOL     OW61197   0.812  11.053   6.970 -0.4021 -0.3421  0.0855
18914SOL    HW161198   0.826  11.146   6.985 -3.1021  0.3944 -1.3723
18914SOL    HW261199   0.884  11.027   6.912  0.5142  0.7287  0.6924
18915SOL     OW61200  10.944   2.712   4.493  0.3911 -0.3403  0.3928
18915SOL    HW161201  10.914   2.681   4.408  1.2055 -1.0676  0.3560
18915SOL    HW261202  10.900   2.796   4.505 -0.4075 -0.6374 -0.3492
18916SOL     OW61203   3.098   5.856   2.856  0.5981  0.4596 -0.0803
18916SOL    HW161204   3.141   5.927   2.807  0.9457  1.4241  1.5630
18916SOL    HW261205   3.154   5.780   2.842  1.1073  0.9078 -0.5480
18917SOL     OW61206   0.102   6.030   0.287  0.3112  0.2172  0.2558
18917SOL    HW161207   0.182   5.979   0.295 -0.4321 -0.8202  1.6711
18917SOL    HW261208   0.075   6.047   0.377 -2.5813 -2.0168 -0.0239
18918SOL     OW61209   7.666   6.717   7.807  0.1351 -0.1392  0.2229
18918SOL    HW161210   7.637   6.771   7.733 -0.3464  1.3948  1.4740
18918SOL    HW261211   7.724   6.774   7.857 -0.9344 -0.4915  1.9606
18919SOL     OW61212   0.879   1.161   5.899  0.4093  0.2823  0.7823
18919SOL    HW161213   0.902   1.087   5.843 -0.4938  0.9157 -0.4724
18919SOL    HW261214   0.942   1.157   5.971  1.1149 -1.0049  0.1318
18920SOL     OW61215  10.035   7.593   0.315  0.9309  0.0012  0.5868
18920SOL    HW161216   9.943   7.612   0.295  1.0899  0.4166  0.2309
18920SOL    HW261217  10.080   7.676   0.301  1.7008 -0.6715 -1.3205
18921SOL     OW61218  10.544  10.701   5.689 -0.3054 -0.2456  0.3394
18921SOL    HW161219  10.474  10.732   5.632 -1.3090  1.2392  2.2665
18921SOL    HW261220  10.620  10.754   5.665 -1.0824  1.3399  1.2327
18922SOL     OW61221   8.078   1.065   2.927 -0.1727  0.1199  0.2383
18922SOL    HW161222   7.994   1.065   2.881  0.7981 -1.6128 -1.6538
18922SOL    HW261223   8.065   1.007   3.001  0.0634 -2.4602 -1.6243
18923SOL     OW61224   1.471   7.541   8.204 -0.3402  0.2163 -0.4990
18923SOL    HW161225   1.388   7.574   8.238 -0.5128 -1.6328  1.0452
18923SOL    HW261226   1.502   7.480   8.271  2.0900  0.5696 -1.2098
18924SOL     OW61227   2.171   1.209   3.688  0.3101  0.4039  0.4175
18924SOL    HW161228   2.160   1.269   3.614 -0.4429  0.8128  0.8504
18924SOL    HW261229   2.103   1.234   3.750  0.8399 -0.0300  1.1940
18925SOL     OW61230   0.500   1.568  10.066 -0.0591 -0.4209 -0.2320
18925SOL    HW161231   0.453   1.647  10.093  0.4932 -0.2720  0.3255
18925SOL    HW261232   0.590   1.598  10.050 -0.5216 -0.3218 -3.1562
18926SOL     OW61233   6.983  10.066   5.860 -0.2041  0.1364  0.1204
18926SOL    HW161234   6.991  10.148   5.812 -0.0032  0.3072  0.4427
18926SOL    HW261235   6.940  10.006   5.798 -1.7283  0.9013  0.4041
18927SOL     OW61236   7.689   7.944   8.385  0.2849 -0.8666  0.1751
18927SOL    HW161237   7.651   8.026   8.354  1.5410 -0.0219  0.7828
18927SOL    HW261238   7.640   7.923   8.464 -1.2298 -1.6798 -0.9379
18928SOL     OW61239   6.912   9.045   3.620  0.3152  0.0051 -0.4147
18928SOL    HW161240   6.846   9.115   3.615  0.0516 -0.2121 -0.0389
18928SOL    HW261241   6.978   9.078   3.680 -0.8426 -0.8824  1.4610
18929SOL     OW61242   7.743   1.945   5.072  0.2764  0.0417  0.2215
18929SOL    HW161243   7.687   1.891   5.129  1.3533 -0.4898  0.7994
18929SOL    HW261244   7.772   2.017   5.128  0.9546 -0.2186  0.2093
18930SOL     OW61245   1.805   1.371   5.050  0.3617 -0.1446  0.2580
18930SOL    HW161246   1.824   1.404   4.962  1.0784 -0.4722  0.2770
18930SOL    HW261247   1.840   1.439   5.109 -0.9131  0.4960  0.2988
18931SOL     OW61248   9.987   4.544   6.953 -0.5041 -0.4076 -0.7187
18931SOL    HW161249   9.998   4.632   6.989 -0.4832 -0.9040  0.5470
18931SOL    HW261250   9.899   4.518   6.979 -1.1619 -0.1471 -2.5320
18932SOL     OW61251   9.239  10.362  10.951  0.1931  0.4102  0.3164
18932SOL    HW161252   9.325  10.403  10.949 -0.4762  1.8342 -1.2980
18932SOL    HW261253   9.242  10.296  10.882  0.5006 -0.7451  1.3816
18933SOL     OW61254   7.703   1.911   4.189  0.1069  0.7370  0.1206
18933SOL    HW161255   7.752   1.855   4.249  1.3539  0.0712 -1.4349
18933SOL    HW261256   7.771   1.960   4.141 -0.6887 -0.1807 -2.0670
18934SOL     OW61257   5.543  10.897  10.244 -0.3377  0.5549  0.0450
18934SOL    HW161258   5.612  10.924  10.305  0.4882 -0.3842 -0.4559
18934SOL    HW261259   5.559  10.949  10.165 -1.3713  1.7271  0.5643
18935SOL     OW61260   6.945   3.155   2.121 -0.1270  0.0201 -0.0530
18935SOL    HW161261   6.896   3.103   2.184 -0.9187 -0.8472 -1.3482
18935SOL    HW261262   6.976   3.093   2.056 -0.3000  1.0246 -1.1374
18936SOL     OW61263   6.852   0.213   6.256 -0.1679 -0.3021 -0.4901
18936SOL    HW161264   6.848   0.137   6.314  0.4542  1.5403  2.1853
18936SOL    HW261265   6.767   0.257   6.269  0.0726  0.2572 -0.7848
18937SOL     OW61266   5.545   2.491   4.441  0.0742  0.1886  0.3891
18937SOL    HW161267   5.592   2.514   4.361  2.6216  0.0655  1.7292
18937SOL    HW261268   5.533   2.574   4.487 -0.1637  0.0947  0.5025
18938SOL     OW61269   8.410   8.905   1.700 -0.0593 -0.3061 -0.3515
18938SOL    HW161270   8.411   8.871   1.790 -2.1689 -1.5150 -0.7296
18938SOL    HW261271   8.390   8.999   1.711 -0.6286 -0.5025  0.4509
18939SOL     OW61272   5.409   9.181   4.023  0.1752 -0.5579  0.0716
18939SOL    HW161273   5.483   9.132   4.058  0.4306 -0.2196  0.0069
18939SOL    HW261274   5.353   9.198   4.098 -0.9591 -2.7347 -0.2162
18940SOL     OW61275  10.491   0.415   6.168 -0.2128  0.1476  0.3744
18940SOL    HW161276  10.508   0.339   6.222  0.1248 -1.0043 -1.2747
18940SOL    HW261277  10.551   0.483   6.202 -0.8859 -0.1146  2.1827
18941SOL     OW61278   1.719   7.396   2.793 -0.4910 -0.8156  0.9282
18941SOL    HW161279   1.688   7.455   2.724 -0.0324 -1.1448  0.4338
18941SOL    HW261280   1.640   7.378   2.845 -0.7953 -0.3849  0.6323
18942SOL     OW61281   3.638   8.536   5.782  0.0106 -0.3541 -0.1748
18942SOL    HW161282   3.620   8.601   5.714 -1.9989 -0.1319  0.5071
18942SOL    HW261283   3.610   8.453   5.744  1.6707 -0.7161 -0.6819
18943SOL     OW61284   6.215   9.942   5.458 -0.0183 -0.0365 -0.4738
18943SOL    HW161285   6.153   9.994   5.508 -0.7729  0.2119 -1.6164
18943SOL    HW261286   6.293   9.998   5.450 -0.3942  0.4527 -0.7183
18944SOL     OW61287   8.162   2.059   0.238  0.1041 -0.1127 -0.2620
18944SOL    HW161288   8.246   2.105   0.240  0.0002  0.1130 -0.9628
18944SOL    HW261289   8.186   1.966   0.235  0.3121 -0.1807  1.8131
18945SOL     OW61290   6.852  10.660  10.563 -0.4972 -0.2411  0.8905
18945SOL    HW161291   6.853  10.737  10.505  0.3829  0.3593  1.6549
18945SOL    HW261292   6.847  10.585  10.504 -1.4477  0.4063  0.1265
18946SOL     OW61293   1.498   2.450   2.232 -0.2543  0.0678  0.3306
18946SOL    HW161294   1.585   2.485   2.250 -0.1633  0.2301 -0.4064
18946SOL    HW261295   1.494   2.442   2.137 -0.1208 -2.2799  0.4557
18947SOL     OW61296   0.772   9.022   2.502  0.3746 -0.1073 -0.0302
18947SOL    HW161297   0.777   8.959   2.573 -0.5131 -0.7626 -0.5211
18947SOL    HW261298   0.862   9.050   2.487  0.5852 -0.0832  1.2328
18948SOL     OW61299   9.258   3.834   3.543 -0.2562  0.6810 -0.4580
18948SOL    HW161300   9.189   3.783   3.586 -1.6924  0.8377 -2.4207
18948SOL    HW261301   9.219   3.920   3.530  1.5279  1.8360  1.2455
18949SOL     OW61302   3.584   6.918  10.242  0.1483  0.0936  0.0951
18949SOL    HW161303   3.652   6.851  10.242 -0.3182 -0.4038 -0.6948
18949SOL    HW261304   3.502   6.869  10.242 -0.2267  0.5601 -2.3159
18950SOL     OW61305   7.987   1.512   4.424  0.9031  0.1840  0.1355
18950SOL    HW161306   7.988   1.418   4.409  1.8379  0.2909 -0.5572
18950SOL    HW261307   7.965   1.550   4.339  0.2975  0.5849  0.4672
18951SOL     OW61308   2.763   7.403   9.077 -0.2053  0.0071  0.0309
18951SOL    HW161309   2.840   7.348   9.064 -0.5589 -0.1728 -1.4549
18951SOL    HW261310   2.741   7.434   8.989 -2.3450 -0.6412  0.2939
18952SOL     OW61311   6.415   6.109   7.399 -0.3041  0.2880  0.3081
18952SOL    HW161312   6.452   6.164   7.329  1.2731  1.0020  1.6385
18952SOL    HW261313   6.369   6.040   7.352 -1.0042  1.8391 -1.4347
18953SOL     OW61314   5.073   5.980   6.727 -0.1706 -0.4803  0.3237
18953SOL    HW161315   5.091   5.965   6.635  0.5574  1.6655  0.0622
18953SOL    HW261316   4.990   6.027   6.729  1.2075  2.1400  0.4545
18954SOL     OW61317   6.171   7.430   7.615  0.0938  1.2922 -0.5755
18954SOL    HW161318   6.195   7.347   7.573  2.2830  0.7944  1.4141
18954SOL    HW261319   6.236   7.492   7.584 -0.3645  1.7835 -0.5610
18955SOL     OW61320   3.729   3.026   7.654  0.5549  0.4072  0.1131
18955SOL    HW161321   3.663   2.975   7.699  0.6295  0.8028  0.6722
18955SOL    HW261322   3.779   2.961   7.604  1.6023 -0.3077  1.9773
18956SOL     OW61323   8.759   2.500   7.402 -0.3641 -0.2706 -0.2081
18956SOL    HW161324   8.753   2.409   7.373  1.3394 -0.1374 -1.0829
18956SOL    HW261325   8.699   2.547   7.344  0.7278 -0.4688 -1.5529
18957SOL     OW61326  10.875   7.417   6.962 -0.3596  0.1302 -0.1411
18957SOL    HW161327  10.828   7.390   7.041  1.7456 -1.8880  0.5562
18957SOL    HW261328  10.902   7.335   6.921  1.3842  1.1606 -1.1729
18958SOL     OW61329   6.188   6.454   3.501  0.1639 -0.0877 -0.2254
18958SOL    HW161330   6.100   6.445   3.465  0.2069 -1.4593 -0.0186
18958SOL    HW261331   6.241   6.390   3.453  0.3614 -1.5270  1.7698
18959SOL     OW61332   5.706   2.430   9.140  0.0794 -0.4967 -0.0865
18959SOL    HW161333   5.739   2.506   9.091  0.2445  1.2978  2.6209
18959SOL    HW261334   5.760   2.357   9.109 -0.3695  0.3257 -3.0809
18960SOL     OW61335  10.115   7.433   9.902 -0.3883 -0.2195 -0.0451
18960SOL    HW161336  10.207   7.433   9.929 -0.1763 -0.4022 -0.7451
18960SOL    HW261337  10.116   7.466   9.812 -0.7285 -2.3618 -0.9053
18961SOL     OW61338   3.846   0.083   1.244 -0.1137  0.0472 -1.7388
18961SOL    HW161339   3.902   0.160   1.251  0.3852 -0.4755  2.3697
18961SOL    HW261340   3.771   0.103   1.299  0.3700 -2.5695  0.0751
18962SOL     OW61341   6.765   4.782   9.067 -0.2583 -0.1920  0.4609
18962SOL    HW161342   6.799   4.871   9.053 -0.4303 -0.3177 -0.8955
18962SOL    HW261343   6.844   4.727   9.073 -0.0827  0.2108  2.9036
18963SOL     OW61344   7.620   3.043   7.808  0.1269 -0.0274  0.1016
18963SOL    HW161345   7.565   3.057   7.885  0.3310  0.7753  0.1010
18963SOL    HW261346   7.595   3.111   7.746  0.0042 -0.6291 -0.5347
18964SOL     OW61347   6.632   9.271   7.800  0.2886 -0.0445  0.1282
18964SOL    HW161348   6.656   9.180   7.820  0.8096 -0.2920 -1.4901
18964SOL    HW261349   6.715   9.312   7.777 -0.2027  0.3251 -1.0352
18965SOL     OW61350   9.896   0.029   7.886  0.0315 -0.3038 -0.9519
18965SOL    HW161351   9.977   0.074   7.908 -1.2323  0.6449  2.3635
18965SOL    HW261352   9.861   0.078   7.812  1.0126  1.2297 -0.4428
18966SOL     OW61353   1.232   3.842  10.611  0.2042  0.1753  0.1884
18966SOL    HW161354   1.142   3.813  10.622  0.4884 -0.1716  1.8069
18966SOL    HW261355   1.236   3.872  10.520 -1.3356 -0.4734 -0.1277
18967SOL     OW61356   1.356   1.447   6.364 -0.1629 -0.4594  0.0051
18967SOL    HW161357   1.307   1.383   6.414  0.7398 -0.5965  0.7350
18967SOL    HW261358   1.400   1.500   6.430  0.9881 -0.5991 -0.6325
18968SOL     OW61359   5.416   5.924   5.861  0.6317 -0.1944  0.0244
18968SOL    HW161360   5.461   5.873   5.794 -0.2158 -0.5258 -0.3065
18968SOL    HW261361   5.416   6.014   5.827  2.3267  0.0943  0.7136
18969SOL     OW61362   6.531   4.857   0.974 -0.2481  0.4633  0.0952
18969SOL    HW161363   6.569   4.810   0.899 -1.3835 -0.8397  0.2965
18969SOL    HW261364   6.452   4.898   0.939 -0.4031  0.4385  0.4203
18970SOL     OW61365   2.102   8.036   2.571  0.4220 -0.2549 -0.0917
18970SOL    HW161366   2.169   8.090   2.527  0.6902 -0.1541  0.4272
18970SOL    HW261367   2.056   8.098   2.628  0.2446 -0.4300 -0.0461
18971SOL     OW61368   1.003   3.050   5.356 -0.7765  0.3386  0.5786
18971SOL    HW161369   1.083   3.007   5.326 -1.2210 -0.6210  0.7355
18971SOL    HW261370   0.988   3.014   5.443 -3.1361 -2.0735 -0.6564
18972SOL     OW61371   6.538  10.098   6.230  0.4346  0.0830  0.3825
18972SOL    HW161372   6.576  10.185   6.218 -0.0865  0.4418  1.2160
18972SOL    HW261373   6.570  10.069   6.316 -0.2655 -0.0847  0.5912
18973SOL     OW61374   9.842   8.876   3.713 -0.2839 -0.6113  0.1339
18973SOL    HW161375   9.779   8.816   3.752  1.0142 -2.3169 -0.2866
18973SOL    HW261376   9.886   8.825   3.645 -0.2307  1.2990 -1.3837
18974SOL     OW61377   4.225   9.549   4.724  0.3151 -0.2436  0.2881
18974SOL    HW161378   4.270   9.521   4.804  1.0954 -2.1467 -0.7520
18974SOL    HW261379   4.292   9.598   4.676  0.2179 -0.1296  0.2699
18975SOL     OW61380  10.704   6.245   7.285 -0.3863 -0.3226  0.0700
18975SOL    HW161381  10.689   6.194   7.205 -2.0920 -0.7239  0.6014
18975SOL    HW261382  10.617   6.253   7.325  0.4233 -0.0868  1.8696
18976SOL     OW61383   8.591   3.573   1.298  0.3571  0.3272  0.2663
18976SOL    HW161384   8.608   3.623   1.219 -0.1279 -0.3919 -0.3082
18976SOL    HW261385   8.555   3.490   1.267 -0.2063  0.1799  1.2537
18977SOL     OW61386   3.866   5.595   2.940  0.4782 -0.2270  0.4079
18977SOL    HW161387   3.778   5.557   2.935  0.5114 -0.2296 -0.3834
18977SOL    HW261388   3.900   5.566   3.024 -0.7729  0.8796  1.3373
18978SOL     OW61389   0.561  10.028   2.428 -0.1217 -0.1059  0.2844
18978SOL    HW161390   0.500  10.069   2.489 -0.3737 -0.1150  0.0419
18978SOL    HW261391   0.576  10.095   2.360 -1.2026 -0.6980 -0.5722
18979SOL     OW61392   3.251   4.504   4.874  0.1631 -0.6397  0.3757
18979SOL    HW161393   3.158   4.508   4.852  0.0195 -2.2225  0.5595
18979SOL    HW261394   3.296   4.511   4.789 -0.2093 -1.8870  0.0613
18980SOL     OW61395   3.817   5.849   2.840  0.2363  0.2665 -0.8140
18980SOL    HW161396   3.811   5.758   2.869  0.7371  0.5692  0.2941
18980SOL    HW261397   3.743   5.892   2.883  0.0037  0.3940 -1.3301
18981SOL     OW61398  10.161   1.377   6.262 -0.1428  0.6970 -0.0196
18981SOL    HW161399  10.116   1.428   6.329  0.4136 -0.5711  1.3837
18981SOL    HW261400  10.101   1.304   6.244  0.8833 -0.5153  1.2177
18982SOL     OW61401   1.481   9.750   9.893  0.0337  0.0594 -0.5497
18982SOL    HW161402   1.402   9.695   9.894 -0.6616  0.9709 -1.6348
18982SOL    HW261403   1.554   9.688   9.889 -0.6701 -0.7955 -0.3963
18983SOL     OW61404   6.743   9.768   2.084 -0.1009 -0.0891 -0.6024
18983SOL    HW161405   6.722   9.850   2.129 -0.1094 -1.0902  1.3033
18983SOL    HW261406   6.796   9.795   2.009  0.5310  1.6074  0.4009
18984SOL     OW61407   2.276   6.047   0.051 -0.1013  0.2423 -0.1626
18984SOL    HW161408   2.244   6.132   0.081 -0.3440 -0.1371  0.6690
18984SOL    HW261409   2.371   6.058   0.047 -0.1010  0.4378  0.3175
18985SOL     OW61410   7.080   6.500   3.932  0.2169  0.9286 -0.3515
18985SOL    HW161411   7.086   6.427   3.993 -0.8792  0.9095 -0.2481
18985SOL    HW261412   7.046   6.572   3.984 -0.0232  1.1172 -0.7618
18986SOL     OW61413   0.009   8.334   7.602 -0.0812  0.4237  0.4296
18986SOL    HW161414  -0.035   8.347   7.518 -1.3964 -1.1708  0.8192
18986SOL    HW261415  -0.061   8.336   7.667  0.3622 -2.0563  1.0846
18987SOL     OW61416  10.137   0.256   6.980 -0.8499  0.1648  0.5356
18987SOL    HW161417  10.074   0.327   6.967 -0.5634  0.2287 -0.6277
18987SOL    HW261418  10.216   0.300   7.010 -0.8534  0.2744  0.3884
18988SOL     OW61419   2.935   0.432   0.474 -0.1912 -0.6232 -0.2306
18988SOL    HW161420   2.844   0.459   0.478  0.4404  1.7874 -0.5131
18988SOL    HW261421   2.985   0.510   0.498  1.8051 -1.8982  0.0255
18989SOL     OW61422   1.366   8.857   1.830 -0.1661 -0.0171 -0.1540
18989SOL    HW161423   1.287   8.843   1.882  0.4491  1.0582  1.1284
18989SOL    HW261424   1.419   8.917   1.883  0.7936  0.5670 -1.7255
18990SOL     OW61425   7.326   8.784  10.791  0.6327 -0.0966 -0.5061
18990SOL    HW161426   7.341   8.878  10.802  0.1579 -0.1233  0.4495
18990SOL    HW261427   7.339   8.769  10.698  1.7431  0.7360 -0.5125
18991SOL     OW61428   1.406   4.889   3.711  0.3221 -0.1011  0.0679
18991SOL    HW161429   1.478   4.828   3.727 -0.2776 -0.5752  1.0914
18991SOL    HW261430   1.407   4.948   3.786 -1.0622 -0.8444  0.7133
18992SOL     OW61431   5.473   1.488   4.596 -0.0786  0.0913 -0.0984
18992SOL    HW161432   5.451   1.439   4.675  1.2419 -0.6585 -0.1716
18992SOL    HW261433   5.419   1.567   4.602 -1.2173 -0.6988  0.7183
18993SOL     OW61434   0.860   9.894   1.853  0.4149 -0.4294  0.1338
18993SOL    HW161435   0.787   9.853   1.899  0.6888 -1.2794 -0.1760
18993SOL    HW261436   0.877   9.837   1.778 -0.8875  1.5721 -1.8660
18994SOL     OW61437   7.674   8.328   1.827 -0.0875  0.3198  0.0991
18994SOL    HW161438   7.616   8.274   1.772 -0.3782 -0.7561  1.4045
18994SOL    HW261439   7.755   8.334   1.777 -1.1731  1.5910 -1.6289
18995SOL     OW61440   7.429   1.484   6.722  0.4203 -0.0844 -0.2329
18995SOL    HW161441   7.334   1.479   6.716  0.4914 -2.6708 -0.5401
18995SOL    HW261442   7.445   1.545   6.794 -1.3011  3.3773 -2.5544
18996SOL     OW61443   9.536   8.920   3.100  0.4059 -1.0832 -0.7841
18996SOL    HW161444   9.566   9.009   3.121 -0.8039 -1.0133  0.8243
18996SOL    HW261445   9.447   8.916   3.134  0.8786 -3.3245  0.3455
18997SOL     OW61446   4.698   7.671   1.096  0.4519  0.8174  0.3740
18997SOL    HW161447   4.737   7.629   1.020  1.9209  1.0684  0.9542
18997SOL    HW261448   4.675   7.759   1.066 -0.8413  0.2689 -0.3082
18998SOL     OW61449   6.136   3.120  10.839 -0.2438  0.2390  0.0093
18998SOL    HW161450   6.224   3.095  10.866 -0.2757  0.6404  0.4911
18998SOL    HW261451   6.134   3.103  10.745  1.0565  2.1643 -0.4326
18999SOL     OW61452   8.827   4.069  10.104 -0.4190 -0.0435  0.0696
18999SOL    HW161453   8.780   3.990  10.078  3.4151 -2.0345 -1.7969
18999SOL    HW261454   8.854   4.052  10.194 -0.7789 -0.2191  0.1469
19000SOL     OW61455   9.335   6.685   1.495  0.6790 -0.0868 -0.7337
19000SOL    HW161456   9.317   6.655   1.584  0.2236  2.0023 -0.0487
19000SOL    HW261457   9.418   6.644   1.472  0.4596 -1.2269  0.3786
19001SOL     OW61458   1.067  10.098   3.518 -0.1442 -0.1962  0.7749
19001SOL    HW161459   1.108  10.177   3.481  1.9144 -0.8657  1.4900
19001SOL    HW261460   1.043  10.046   3.442  2.3541 -0.7323  0.2576
19002SOL     OW61461   1.601   6.864   5.473  0.1808  0.6507 -0.1724
19002SOL    HW161462   1.648   6.933   5.427 -2.1465  1.0563 -2.1156
19002SOL    HW261463   1.513   6.900   5.489 -0.5732 -1.2390  0.3047
19003SOL     OW61464   0.130   1.118   9.201 -0.6610  0.4595 -0.5614
19003SOL    HW161465   0.093   1.204   9.181 -1.5962  0.1624 -0.1644
19003SOL    HW261466   0.061   1.073   9.250  0.0511 -0.2918 -0.2244
19004SOL     OW61467   0.164   7.121   6.255 -0.5014  0.0190 -0.0276
19004SOL    HW161468   0.173   7.146   6.347 -0.6898  2.4130 -0.5865
19004SOL    HW261469   0.077   7.151   6.229 -0.3455 -0.3516 -1.0617
19005SOL     OW61470   7.091   9.755   1.310 -0.1686  0.3543  0.0858
19005SOL    HW161471   7.157   9.806   1.357 -0.3858  0.2939  0.4584
19005SOL    HW261472   7.031   9.725   1.378 -0.0391 -0.4030 -0.1276
19006SOL     OW61473   7.654   7.756  10.560  0.0232 -0.2367 -0.0655
19006SOL    HW161474   7.647   7.677  10.614 -1.5485 -0.4144 -0.4648
19006SOL    HW261475   7.657   7.828  10.623  0.0316 -0.5446  0.2890
19007SOL     OW61476   0.891  10.317   9.994  0.1916 -0.7291 -0.4737
19007SOL    HW161477   0.848  10.231   9.997  0.4556 -0.8326  1.3883
19007SOL    HW261478   0.826  10.375   9.954 -0.5072 -1.5058 -0.4933
19008SOL     OW61479   0.938   4.786   1.429 -0.0855 -0.2147  0.6730
19008SOL    HW161480   0.926   4.803   1.336 -2.8916  0.1316  1.0302
19008SOL    HW261481   0.934   4.690   1.436  2.2320 -0.4058  0.2682
19009SOL     OW61482   7.282   9.271   7.917 -0.1828 -0.1411 -0.2232
19009SOL    HW161483   7.313   9.347   7.866  0.7825  0.9325  1.8416
19009SOL    HW261484   7.197   9.298   7.950  0.3849  0.2953  0.9362
19010SOL     OW61485  10.246  10.337   9.656 -0.1386  0.0956  0.0586
19010SOL    HW161486  10.299  10.360   9.580 -1.0389  0.6909 -0.4019
19010SOL    HW261487  10.254  10.242   9.663 -0.8788 -0.0962 -1.4200
19011SOL     OW61488   1.772   8.265   5.464 -0.6211 -0.0560  0.3638
19011SOL    HW161489   1.852   8.224   5.432  0.4176 -0.1630  2.8649
19011SOL    HW261490   1.801   8.323   5.535 -2.6372  0.8704  0.5221
19012SOL     OW61491   7.380   0.564   3.933  0.4454  0.3654 -0.0302
19012SOL    HW161492   7.413   0.475   3.921  0.3205  0.5230 -1.8754
19012SOL    HW261493   7.415   0.592   4.018 -0.6027 -1.8845  1.2324
19013SOL     OW61494   0.452   9.529   8.464 -0.1254 -0.0678 -0.6432
19013SOL    HW161495   0.477   9.608   8.416  0.2316  0.2494  0.0468
19013SOL    HW261496   0.531   9.503   8.511 -0.4844 -0.3206 -0.1683
19014SOL     OW61497   2.832   9.560   0.140  0.3901  0.1665 -0.5415
19014SOL    HW161498   2.741   9.574   0.115 -0.5688 -1.3732  1.8023
19014SOL    HW261499   2.842   9.608   0.223  1.0158 -1.5460  0.4173
19015SOL     OW61500   0.724   1.638   8.517 -0.6222 -0.7064 -0.6865
19015SOL    HW161501   0.661   1.579   8.559  0.3699 -2.6439 -1.7527
19015SOL    HW261502   0.754   1.695   8.587 -2.0384 -1.0965  0.2877
19016SOL     OW61503   3.078  10.346   6.956  0.1492  0.5679 -0.1583
19016SOL    HW161504   3.000  10.380   7.000 -0.9349  0.1678 -1.6961
19016SOL    HW261505   3.133  10.423   6.941 -1.0151  1.2475 -1.1272
19017SOL     OW61506   7.872   7.730   9.881 -0.2195 -0.0226 -0.5774
19017SOL    HW161507   7.785   7.745   9.842 -0.5296 -0.4781 -0.0875
19017SOL    HW261508   7.873   7.784   9.960  0.3113  0.7045 -1.0684
19018SOL     OW61509   6.487   4.484   3.389  0.3792 -0.0047  0.4622
19018SOL    HW161510   6.422   4.416   3.373  1.6205 -0.9601 -0.8001
19018SOL    HW261511   6.497   4.486   3.484 -1.3934  0.1155  0.6773
19019SOL     OW61512   7.796   4.332   2.639 -0.3883 -0.1379 -0.7145
19019SOL    HW161513   7.735   4.383   2.691  0.0469  0.1728 -0.5011
19019SOL    HW261514   7.768   4.346   2.548 -0.5758  0.0691 -0.6241
19020SOL     OW61515   2.072   4.694   8.921  0.4508  0.0185  0.4886
19020SOL    HW161516   2.059   4.609   8.880  1.4404 -0.3850  0.9758
19020SOL    HW261517   2.055   4.757   8.851  0.3704 -0.6034 -0.0639
19021SOL     OW61518   8.347   5.325   9.548 -0.4541 -0.0392 -0.1174
19021SOL    HW161519   8.374   5.303   9.458  0.5717  0.9572 -0.0725
19021SOL    HW261520   8.307   5.411   9.540 -0.5140 -0.0248  0.3614
19022SOL     OW61521   5.652   6.717   4.586  0.3531  0.6101 -0.0639
19022SOL    HW161522   5.692   6.708   4.499  0.2021  0.0959 -0.0827
19022SOL    HW261523   5.598   6.639   4.595  2.4040 -0.7473  1.5747
19023SOL     OW61524   5.516  11.021   2.911  0.0879 -0.4151  0.1006
19023SOL    HW161525   5.449  11.090   2.918  2.1803  1.5598  2.5409
19023SOL    HW261526   5.491  10.956   2.976  0.3490  0.1712  0.7991
19024SOL     OW61527   1.163   4.616   2.611  0.1996  0.0884 -0.0229
19024SOL    HW161528   1.193   4.579   2.694 -0.4006  0.1648  0.2360
19024SOL    HW261529   1.093   4.557   2.582 -0.7811  0.9952  0.4032
19025SOL     OW61530   5.457   0.690   9.447 -0.3392 -0.0666  0.3708
19025SOL    HW161531   5.464   0.690   9.542  0.0416 -0.6088  0.3455
19025SOL    HW261532   5.451   0.783   9.423  0.0746  0.0967  0.8847
19026SOL     OW61533   8.047   6.670   2.843 -0.4110  0.4446 -0.1592
19026SOL    HW161534   8.051   6.726   2.766 -1.3050 -0.0869 -0.6009
19026SOL    HW261535   7.955   6.673   2.871 -0.2877 -0.1005  0.3291
19027SOL     OW61536   5.232   3.853   0.729  0.1977  0.3294  0.3030
19027SOL    HW161537   5.173   3.887   0.796  1.4823  1.5295  0.8481
19027SOL    HW261538   5.239   3.759   0.749 -0.5976  0.3912  0.9205
19028SOL     OW61539   0.895   8.024   6.013  0.1457 -0.0021 -0.4894
19028SOL    HW161540   0.968   8.083   5.996  0.1688 -0.4488 -2.1173
19028SOL    HW261541   0.845   8.066   6.083  1.2599  0.9316 -0.2385
19029SOL     OW61542   6.165   9.786   5.223 -0.2595 -0.0820  0.1228
19029SOL    HW161543   6.170   9.830   5.308 -1.0822 -1.1382  0.7315
19029SOL    HW261544   6.256   9.764   5.202  0.1165  1.4053  0.0455
19030SOL     OW61545   4.534   0.885   5.463 -0.1230  0.3070  0.0230
19030SOL    HW161546   4.486   0.899   5.382 -1.3601  0.8446  0.8110
19030SOL    HW261547   4.626   0.883   5.437 -0.5607 -2.9823 -1.8944
19031SOL     OW61548  10.709  10.669   9.377  0.3091 -0.1151 -0.0056
19031SOL    HW161549  10.673  10.758   9.376  0.9511  0.1534 -0.3151
19031SOL    HW261550  10.804  10.682   9.377  0.4136 -0.8010  0.7255
19032SOL     OW61551   9.174   6.041  10.902  0.5867 -0.1755  0.1117
19032SOL    HW161552   9.110   5.972  10.883 -1.1733  1.6079 -0.9435
19032SOL    HW261553   9.121   6.121  10.906  2.6295  1.2297  0.4773
19033SOL     OW61554   6.100   5.741   7.002 -0.1182  0.1771  0.4178
19033SOL    HW161555   6.172   5.681   6.984  1.7787  2.0438  1.2951
19033SOL    HW261556   6.079   5.727   7.094 -2.9383 -2.3335 -0.4613
19034SOL     OW61557   8.762   5.761   6.336 -0.3264 -0.5120 -0.4492
19034SOL    HW161558   8.803   5.743   6.252  1.4477 -1.9848  0.6564
19034SOL    HW261559   8.747   5.675   6.375  0.0086  0.1483  1.2345
19035SOL     OW61560   6.081   0.736   3.522  0.1479  0.1585  0.1490
19035SOL    HW161561   6.070   0.712   3.430  0.3575  0.2581  0.0971
19035SOL    HW261562   6.035   0.819   3.531 -0.4367 -0.1769  0.2900
19036SOL     OW61563   3.654   9.574   0.965 -0.4284  0.8315 -0.1630
19036SOL    HW161564   3.666   9.514   0.891  0.3320  3.2507 -2.1504
19036SOL    HW261565   3.572   9.620   0.945 -0.4809  1.1604  0.7782
19037SOL     OW61566   1.432   2.862   7.807  0.2264  0.2323  0.2217
19037SOL    HW161567   1.519   2.843   7.843  0.0576 -1.0916 -0.0078
19037SOL    HW261568   1.438   2.838   7.715 -0.7167 -1.0711  0.4726
19038SOL     OW61569   2.667  10.274   5.457  0.3364  0.0220 -0.4905
19038SOL    HW161570   2.693  10.197   5.507  1.7774  0.3123 -0.7488
19038SOL    HW261571   2.747  10.303   5.413  0.3332  2.8180  1.1125
19039SOL     OW61572   2.760   3.405   2.298  0.1006  0.3667  0.0915
19039SOL    HW161573   2.715   3.458   2.232  1.8692  0.8386 -0.8099
19039SOL    HW261574   2.808   3.469   2.351  0.3039 -0.1653  0.5538
19040SOL     OW61575   4.146   8.237   0.492  0.0623  0.2694  0.0815
19040SOL    HW161576   4.062   8.281   0.506  0.3394  0.3424  1.6693
19040SOL    HW261577   4.183   8.280   0.415 -1.4449  0.0674 -0.7962
19041SOL     OW61578   6.022   0.192   7.501  0.5821 -0.0408  0.3515
19041SOL    HW161579   6.078   0.255   7.455  0.4662 -0.1250  0.0905
19041SOL    HW261580   6.040   0.206   7.594  2.1335 -1.0558  0.2429
19042SOL     OW61581   3.379   2.517   4.528 -0.1571 -0.2568  0.5523
19042SOL    HW161582   3.349   2.517   4.619  0.3807 -0.9771  0.7364
19042SOL    HW261583   3.464   2.472   4.530 -0.5778 -1.1290 -0.4475
19043SOL     OW61584   7.230   7.839  10.585  0.2059 -0.1454 -0.5805
19043SOL    HW161585   7.236   7.765  10.646  0.4349 -0.1162 -0.5649
19043SOL    HW261586   7.145   7.829  10.543  0.4712 -0.7526 -0.9972
19044SOL     OW61587   4.359   8.162   8.547 -0.5092  0.6973 -0.2033
19044SOL    HW161588   4.284   8.122   8.591  1.0891 -0.6712  1.3964
19044SOL    HW261589   4.379   8.103   8.475  0.0252  0.1933  0.3558
19045SOL     OW61590   1.877   7.463   5.124  0.7825  0.1220  0.5192
19045SOL    HW161591   1.807   7.518   5.158  0.2862  0.5989 -1.1738
19045SOL    HW261592   1.953   7.484   5.179  0.1823  1.2948  0.9295
19046SOL     OW61593   5.088   3.047   8.313 -0.6396  0.0173  0.2826
19046SOL    HW161594   5.051   2.968   8.273 -0.6138  1.1423 -2.1350
19046SOL    HW261595   5.017   3.082   8.368 -0.5308 -1.8190  1.6835
19047SOL     OW61596   4.543   7.348   5.605  0.6599  0.1368 -0.3303
19047SOL    HW161597   4.561   7.300   5.685 -0.3769  1.6759  0.8956
19047SOL    HW261598   4.506   7.283   5.545  1.5415 -1.0514  0.3709
19048SOL     OW61599   7.733   5.340   3.482  0.2167  0.2180 -0.1170
19048SOL    HW161600   7.717   5.356   3.575 -0.2384 -0.3007 -0.0989
19048SOL    HW261601   7.645   5.337   3.444  0.3455 -0.7892 -0.3529
19049SOL     OW61602   7.402   4.468   2.552 -0.1925 -0.6070  0.1285
19049SOL    HW161603   7.426   4.411   2.625  0.9650  0.2272  0.4233
19049SOL    HW261604   7.479   4.524   2.539 -0.9937  0.3317 -0.6872
19050SOL     OW61605   9.363   3.577   7.903  0.5969 -0.2000 -0.4087
19050SOL    HW161606   9.429   3.624   7.851  2.0893 -1.8176 -0.1096
19050SOL    HW261607   9.299   3.547   7.838 -0.7693  2.6632 -0.5317
19051SOL     OW61608   4.487   6.147   0.455 -0.6068  0.5683  0.5748
19051SOL    HW161609   4.478   6.209   0.382  0.1902  1.1154  0.9213
19051SOL    HW261610   4.429   6.074   0.433  0.2332  0.3474 -1.0040
19052SOL     OW61611   0.749   3.684   5.189  0.1568  0.2524  0.8291
19052SOL    HW161612   0.707   3.618   5.134 -0.4037  1.9082 -0.8759
19052SOL    HW261613   0.837   3.651   5.203 -0.8538 -2.0816  2.3138
19053SOL     OW61614  10.128   1.887   3.151  0.1203  0.2242  0.1182
19053SOL    HW161615  10.055   1.859   3.206  0.2237 -0.6993 -0.2056
19053SOL    HW261616  10.114   1.981   3.138 -0.2403  0.3351  1.2119
19054SOL     OW61617   7.282   0.274   0.835 -0.4340  0.2887  0.5222
19054SOL    HW161618   7.285   0.369   0.827 -0.8641  0.1744 -1.4585
19054SOL    HW261619   7.374   0.248   0.844 -0.2110  0.8417 -0.0437
19055SOL     OW61620   0.887   5.101   0.412 -0.1901  0.7419  0.5751
19055SOL    HW161621   0.864   5.019   0.456  0.7427  0.8905  1.3790
19055SOL    HW261622   0.809   5.124   0.362 -0.7906 -0.1630  1.0649
19056SOL     OW61623   2.398   1.312   7.672  0.4729  0.0231  0.2312
19056SOL    HW161624   2.448   1.385   7.710  0.8105  0.1982 -0.5347
19056SOL    HW261625   2.307   1.341   7.677  0.3387 -0.5867  2.2816
19057SOL     OW61626   7.982   2.386   4.322 -0.2600 -0.5683  0.2869
19057SOL    HW161627   8.057   2.354   4.273  0.4888  1.3835  0.0543
19057SOL    HW261628   7.917   2.315   4.318  0.5964 -1.2853 -1.6586
19058SOL     OW61629   7.092   3.161   9.071 -0.0810  0.1190  0.3362
19058SOL    HW161630   7.170   3.139   9.122  1.8562  1.9178 -1.6012
19058SOL    HW261631   7.122   3.161   8.980 -1.9708  2.1627 -0.3836
19059SOL     OW61632  10.617   0.095  10.584 -0.4191  0.4121  0.3595
19059SOL    HW161633  10.542   0.148  10.613 -0.5588  0.5335 -0.1969
19059SOL    HW261634  10.645   0.048  10.662 -0.9896  0.4772  0.6115
19060SOL     OW61635   1.433   9.321   0.028 -0.2799 -0.4110  0.2427
19060SOL    HW161636   1.448   9.366  -0.055  0.8038 -0.9667  0.1253
19060SOL    HW261637   1.520   9.310   0.066 -0.7668  0.0351  1.5771
19061SOL     OW61638  10.477   4.975   0.259  0.5537 -0.0511  0.0553
19061SOL    HW161639  10.568   5.004   0.262  0.9966 -0.9446 -2.1895
19061SOL    HW261640  10.483   4.880   0.248 -0.6430 -0.1262 -0.0797
19062SOL     OW61641   2.242   4.120   0.149  0.0068  0.6492 -0.2234
19062SOL    HW161642   2.227   4.159   0.235  0.7612 -3.9811  2.3292
19062SOL    HW261643   2.166   4.064   0.135  1.4626 -1.3214 -0.7650
19063SOL     OW61644   0.750   9.858   9.237 -0.1555  0.3761  0.0029
19063SOL    HW161645   0.804   9.787   9.202  0.4482  0.6872  0.3010
19063SOL    HW261646   0.674   9.813   9.274  1.2151 -0.3268  2.1259
19064SOL     OW61647   4.232   1.423   1.039 -0.0842  0.1089 -0.6392
19064SOL    HW161648   4.229   1.430   1.134  0.5282  0.9798 -0.6752
19064SOL    HW261649   4.235   1.513   1.008 -0.2382 -0.1659 -1.4878
19065SOL     OW61650   3.545   0.172   6.308  0.1673 -0.2219 -0.1253
19065SOL    HW161651   3.574   0.261   6.330 -1.7662 -0.0641  2.2306
19065SOL    HW261652   3.618   0.116   6.333  1.0893  0.6178 -0.8638
19066SOL     OW61653   8.477   6.066   5.670  0.1952  0.1307 -0.1091
19066SOL    HW161654   8.387   6.039   5.688  0.6038 -0.3776  1.2824
19066SOL    HW261655   8.516   6.083   5.756  1.0328  1.7355 -0.7486
19067SOL     OW61656   8.106   9.440   5.157  0.3951 -0.5924  0.7482
19067SOL    HW161657   8.016   9.467   5.172  0.9693 -0.0632  3.9088
19067SOL    HW261658   8.154   9.521   5.140  0.4317 -0.7869 -0.1214
19068SOL     OW61659   9.064   2.779   5.354 -0.1458 -0.4296  0.4336
19068SOL    HW161660   8.988   2.793   5.297 -0.5526 -1.3146  0.7503
19068SOL    HW261661   9.119   2.856   5.339 -2.1977  1.4520  1.9637
19069SOL     OW61662   2.148   3.772   8.010 -0.5648  0.3394 -0.2426
19069SOL    HW161663   2.226   3.739   7.966 -0.9417 -1.4226  0.3040
19069SOL    HW261664   2.171   3.860   8.040  1.2745 -0.2151  0.0744
19070SOL     OW61665   1.559   2.938   4.295 -0.1824  0.1289 -0.1398
19070SOL    HW161666   1.605   2.857   4.319 -0.4199 -0.0391 -0.2470
19070SOL    HW261667   1.511   2.962   4.375  1.3692  1.1997  0.5024
19071SOL     OW61668   9.612  10.554   7.074  0.5161 -0.0948  0.6049
19071SOL    HW161669   9.604  10.462   7.049  0.1232  0.0226  0.2902
19071SOL    HW261670   9.703  10.564   7.103  0.7918 -0.3797 -0.1664
19072SOL     OW61671   1.847   6.987   9.163 -0.2311 -0.1046 -0.2064
19072SOL    HW161672   1.861   7.030   9.078  0.2994  0.0804 -0.0254
19072SOL    HW261673   1.789   6.913   9.143  0.4428 -0.4713 -0.8443
19073SOL     OW61674   9.151   1.019   3.421 -0.6386  0.1736 -0.4274
19073SOL    HW161675   9.235   0.981   3.449  0.7768  1.9476 -1.9464
19073SOL    HW261676   9.132   1.085   3.488 -0.3571  0.3469 -0.5139
19074SOL     OW61677   7.823   3.289   4.740  0.4980 -0.4050 -0.3149
19074SOL    HW161678   7.750   3.288   4.802 -0.4646 -1.7808 -1.4080
19074SOL    HW261679   7.876   3.213   4.762  0.6137 -0.4235 -0.6452
19075SOL     OW61680   8.223   0.036   4.064  0.0034  0.1368  0.1374
19075SOL    HW161681   8.155   0.023   4.130  0.9803 -3.2439  0.6630
19075SOL    HW261682   8.177   0.031   3.981 -0.8317  1.4743  0.4948
19076SOL     OW61683   6.035   7.253   6.497  0.2401  0.0875 -0.5032
19076SOL    HW161684   6.095   7.196   6.448  0.1093 -0.0601 -0.4910
19076SOL    HW261685   6.031   7.333   6.445  1.9964  0.8782  0.4962
19077SOL     OW61686   3.621   7.387   1.847 -0.4510  0.0919 -0.1200
19077SOL    HW161687   3.531   7.363   1.825 -0.1147 -0.9874 -0.3909
19077SOL    HW261688   3.642   7.332   1.923 -1.1392  2.7746  2.1773
19078SOL     OW61689   0.046   8.623   4.933 -0.1390 -0.1510 -0.0484
19078SOL    HW161690   0.014   8.690   4.993  0.5361 -0.6236  0.8574
19078SOL    HW261691  -0.027   8.609   4.873 -0.1940  1.5624 -0.4164
19079SOL     OW61692   5.476   8.640   4.991 -0.4553  0.2603  0.0354
19079SOL    HW161693   5.386   8.639   4.958 -0.3603 -0.3368 -0.2155
19079SOL    HW261694   5.467   8.630   5.086 -0.7533  2.4744  0.2798
19080SOL     OW61695   5.744   2.327   0.333  0.2474 -0.1392  0.0953
19080SOL    HW161696   5.832   2.347   0.363  0.1231 -2.1939  2.1052
19080SOL    HW261697   5.746   2.233   0.314 -2.0829 -0.8865  2.8152
19081SOL     OW61698   6.440   3.533   4.376  0.3313 -0.2056 -0.2763
19081SOL    HW161699   6.405   3.609   4.329  1.2545  0.1411 -0.4209
19081SOL    HW261700   6.362   3.488   4.410 -0.3051  0.0462 -1.3460
19082SOL     OW61701  10.078   8.052   8.578 -0.0077 -0.4570  0.1836
19082SOL    HW161702  10.012   8.097   8.629 -0.9372 -1.7503  0.1672
19082SOL    HW261703  10.155   8.047   8.635 -0.4618 -0.3704  0.7999
19083SOL     OW61704   8.673   8.745   9.851 -0.0315 -0.6244 -0.0284
19083SOL    HW161705   8.737   8.732   9.781  0.3535 -0.4127  0.2792
19083SOL    HW261706   8.687   8.670   9.910  0.5094 -0.1356  0.4726
19084SOL     OW61707   8.401  10.396   9.938  0.1397  1.4247 -1.0059
19084SOL    HW161708   8.451  10.319   9.911 -1.9403 -0.9115  1.2454
19084SOL    HW261709   8.468  10.463   9.956  2.1401 -0.2933 -1.6001
19085SOL     OW61710   0.041   2.169   3.397  0.1720  0.9640 -0.0017
19085SOL    HW161711   0.134   2.178   3.419 -0.3493  3.0266  1.7093
19085SOL    HW261712   0.011   2.096   3.450  0.7765  0.4140 -0.4106
19086SOL     OW61713   6.863   5.182   8.515  0.5566 -0.0367  0.5465
19086SOL    HW161714   6.940   5.239   8.520  0.7801 -0.4246  2.1760
19086SOL    HW261715   6.849   5.154   8.606 -1.1300 -0.4737  0.1767
19087SOL     OW61716   3.246   3.195   4.735 -0.1252  0.1197  0.3605
19087SOL    HW161717   3.273   3.173   4.824  0.2232 -0.0853  0.2076
19087SOL    HW261718   3.326   3.184   4.682 -0.6934 -1.2722 -0.2360
19088SOL     OW61719   5.938   4.471   3.421  0.1066  0.7850 -0.2504
19088SOL    HW161720   5.872   4.509   3.363 -0.9974 -0.1314  0.3526
19088SOL    HW261721   5.977   4.400   3.370 -1.2925 -0.4201  0.2908
19089SOL     OW61722   5.673   1.763  10.575  0.3372 -0.4592  0.2743
19089SOL    HW161723   5.650   1.782  10.484 -0.2607 -0.0444  0.5052
19089SOL    HW261724   5.630   1.832  10.626 -0.4300 -1.4283  0.9798
19090SOL     OW61725   3.305   0.618   2.327 -0.3774  0.5398 -0.2335
19090SOL    HW161726   3.381   0.625   2.385  0.1497 -1.9046 -0.5053
19090SOL    HW261727   3.286   0.708   2.301  0.5735  1.5253  2.1588
19091SOL     OW61728   1.643   0.972   1.451 -0.0147  0.0196  0.6641
19091SOL    HW161729   1.559   0.990   1.409 -0.5052 -1.5745  0.8739
19091SOL    HW261730   1.647   1.033   1.525 -0.6100  0.6721  0.1585
19092SOL     OW61731   6.500   8.078   6.110  0.4576 -0.2233  0.3587
19092SOL    HW161732   6.564   8.145   6.087  0.4558 -1.2217 -3.0503
19092SOL    HW261733   6.545   8.024   6.175  0.5376  2.7483  3.0621
19093SOL     OW61734   6.581   9.204   4.676  0.0568 -0.1286  0.0878
19093SOL    HW161735   6.580   9.300   4.683  3.4559 -0.0632  2.0562
19093SOL    HW261736   6.612   9.175   4.762  0.4133 -2.9368 -0.9108
19094SOL     OW61737   9.365   1.837   4.080 -0.3336  0.2131 -0.2501
19094SOL    HW161738   9.361   1.746   4.110 -0.5936  0.3253  0.0607
19094SOL    HW261739   9.316   1.886   4.145  1.3008  0.8422  0.5600
19095SOL     OW61740   0.852   0.255   4.915  0.0247  0.1406  0.3017
19095SOL    HW161741   0.857   0.168   4.875  1.9998  1.0751 -1.6904
19095SOL    HW261742   0.767   0.257   4.959 -0.4698 -2.4357 -0.3871
19096SOL     OW61743   9.234   7.739  10.740 -0.9649 -0.2358  0.3419
19096SOL    HW161744   9.257   7.663  10.687 -2.1703 -1.9190  2.1150
19096SOL    HW261745   9.162   7.780  10.691 -0.0985  0.0131 -0.7847
19097SOL     OW61746   2.627   2.813   3.876  0.6442 -0.0206  0.1250
19097SOL    HW161747   2.669   2.878   3.933  2.2174 -1.8467  1.1605
19097SOL    HW261748   2.688   2.739   3.874 -0.3721 -0.8902 -2.2511
19098SOL     OW61749   2.788   2.481   7.001  0.5141  0.1394  0.0947
19098SOL    HW161750   2.714   2.465   7.059  0.3871 -1.1574 -0.3967
19098SOL    HW261751   2.836   2.553   7.042 -1.2903  1.3872  0.1538
19099SOL     OW61752   1.671   0.081   4.141 -0.0531 -0.1288  0.4351
19099SOL    HW161753   1.710   0.027   4.073  0.4061 -0.1960  0.7456
19099SOL    HW261754   1.638   0.018   4.205  1.1418 -0.0527  1.1636
19100SOL     OW61755   8.485   1.187   7.561  0.0341 -0.3932 -0.0458
19100SOL    HW161756   8.424   1.180   7.488 -0.0952  0.8968 -0.0918
19100SOL    HW261757   8.435   1.158   7.637 -0.2454 -0.5195 -0.2749
19101SOL     OW61758   2.781   2.818   0.302  0.4431  0.2235 -0.5073
19101SOL    HW161759   2.852   2.849   0.357  0.5022  0.2762 -0.6134
19101SOL    HW261760   2.704   2.816   0.359  0.5216  0.2041 -0.4041
19102SOL     OW61761   7.227   2.500   2.942 -0.4537 -0.1339 -0.1466
19102SOL    HW161762   7.299   2.440   2.959  0.2904  1.2110  1.7817
19102SOL    HW261763   7.157   2.470   2.999 -1.3398 -1.1605 -1.6849
19103SOL     OW61764   2.167   2.471   0.820 -0.4844  0.4827  0.0978
19103SOL    HW161765   2.091   2.524   0.841 -0.8990 -0.1884  0.3232
19103SOL    HW261766   2.135   2.405   0.758 -0.2265 -0.1495  0.6178
19104SOL     OW61767   1.877   0.836   7.847  0.1458 -0.3319 -0.3243
19104SOL    HW161768   1.883   0.835   7.751 -1.0239 -1.2953 -0.4154
19104SOL    HW261769   1.822   0.760   7.868  0.0868  0.0778  1.0923
19105SOL     OW61770   4.270   0.383   9.301 -0.2142  0.2018  0.3631
19105SOL    HW161771   4.355   0.415   9.333  0.8650 -2.9769  1.0460
19105SOL    HW261772   4.211   0.395   9.374 -0.6026  2.9182 -0.2834
19106SOL     OW61773  10.619   4.226   7.861  0.3607  0.2291  0.3643
19106SOL    HW161774  10.614   4.256   7.770  1.8417  1.3146  0.5959
19106SOL    HW261775  10.555   4.155   7.867  0.3149  0.0657 -1.5489
19107SOL     OW61776   8.812   2.755   7.626  0.2885 -0.1797  0.1051
19107SOL    HW161777   8.881   2.703   7.585  0.9213  0.4983  0.2851
19107SOL    HW261778   8.823   2.739   7.720  0.6801  0.4837  0.1843
19108SOL     OW61779   5.070   1.403   8.140 -0.0308  0.1001  0.1380
19108SOL    HW161780   5.071   1.334   8.205 -0.3123 -0.0983 -0.0666
19108SOL    HW261781   5.016   1.369   8.069  1.4837 -0.2900 -0.8720
19109SOL     OW61782   9.852   9.780   2.308 -0.5268 -0.0065  0.4682
19109SOL    HW161783   9.814   9.739   2.385 -0.1890  0.2957  0.8031
19109SOL    HW261784   9.785   9.771   2.240 -0.7748 -0.3881  0.7594
19110SOL     OW61785   6.405   1.449   1.867 -0.3645  0.2781  0.5458
19110SOL    HW161786   6.402   1.494   1.783  0.1253 -0.4213  0.1383
19110SOL    HW261787   6.347   1.499   1.923  0.2225  1.4550  0.1422
19111SOL     OW61788   1.614   4.567   0.838  0.1632  0.2792 -0.1333
19111SOL    HW161789   1.554   4.525   0.899 -0.0177 -0.5207 -0.8409
19111SOL    HW261790   1.588   4.535   0.752  0.3958  1.3971 -0.6494
19112SOL     OW61791   0.901   5.955   8.479 -0.0323  0.1740 -0.0089
19112SOL    HW161792   0.914   6.005   8.559  1.5669 -1.1465  0.6126
19112SOL    HW261793   0.817   5.985   8.445  1.0530  3.6696 -0.0214
19113SOL     OW61794   9.624   7.442  10.927 -0.2274  0.3943  0.1965
19113SOL    HW161795   9.545   7.390  10.916  0.2495 -0.6510  1.5013
19113SOL    HW261796   9.598   7.511  10.989 -0.4237  0.7859 -0.3092
19114SOL     OW61797   6.416   7.055   5.343 -0.7356 -0.1179 -0.3226
19114SOL    HW161798   6.475   6.982   5.360  0.0861  0.6305  0.0571
19114SOL    HW261799   6.394   7.046   5.250  0.9589  0.2999 -0.7922
19115SOL     OW61800  10.571   2.221   1.713 -0.5115 -1.0268  0.1268
19115SOL    HW161801  10.527   2.236   1.630 -0.5033 -1.6043  0.0125
19115SOL    HW261802  10.659   2.256   1.701 -1.3300  1.5355  0.8511
19116SOL     OW61803   8.256   4.610  10.140 -0.6620  0.2558  0.1331
19116SOL    HW161804   8.230   4.682  10.197 -1.0966  1.0387 -1.0378
19116SOL    HW261805   8.194   4.540  10.160 -1.4912  0.9031 -0.1570
19117SOL     OW61806  10.874   7.485   5.100 -0.1787 -0.2379  0.2989
19117SOL    HW161807  10.778   7.481   5.102 -0.1978  0.1529  0.2254
19117SOL    HW261808  10.902   7.395   5.114 -0.6076 -1.0682 -3.2791
19118SOL     OW61809   2.962   4.514   1.297  0.1380  0.5193 -0.3502
19118SOL    HW161810   3.017   4.454   1.347  0.1090  0.5450 -0.2876
19118SOL    HW261811   2.874   4.476   1.301 -0.1831  1.3380  0.9498
19119SOL     OW61812   9.846   9.203   6.067 -0.0383 -0.5458  0.0425
19119SOL    HW161813   9.762   9.163   6.042 -0.1905 -0.9423  1.1220
19119SOL    HW261814   9.910   9.134   6.053  0.3455  0.1452 -2.0077
19120SOL     OW61815   9.587   8.216   9.773  0.4253 -0.4283  0.0021
19120SOL    HW161816   9.640   8.254   9.703 -0.1136  0.4707  0.0680
19120SOL    HW261817   9.514   8.174   9.728 -0.4318  0.9626  0.0451
19121SOL     OW61818   6.079   9.480   2.041  0.0638 -0.2032  0.2060
19121SOL    HW161819   6.162   9.449   2.077 -0.3191 -0.1876  1.1263
19121SOL    HW261820   6.082   9.455   1.948  0.8198 -0.7651  0.3740
19122SOL     OW61821   8.291   2.409   3.013 -0.6007  0.1583  0.6447
19122SOL    HW161822   8.273   2.323   3.051  0.4792 -0.2770  0.2032
19122SOL    HW261823   8.209   2.457   3.023 -1.5440 -1.2479 -0.0054
19123SOL     OW61824   6.726   7.921   7.923 -0.0811  0.2093 -0.1160
19123SOL    HW161825   6.716   7.849   7.862  0.1942  1.5344 -1.8095
19123SOL    HW261826   6.702   7.885   8.008  1.3472 -2.2302 -0.6508
19124SOL     OW61827   8.904   6.014  10.072  0.5700 -0.0268 -0.5725
19124SOL    HW161828   8.856   5.932  10.060 -0.7163  0.5603  0.3299
19124SOL    HW261829   8.868   6.073  10.004 -1.1261  0.8730  1.0187
19125SOL     OW61830   6.671   8.160   0.466  0.2593  0.0257  0.2107
19125SOL    HW161831   6.592   8.213   0.466 -0.0635 -0.4547  0.1689
19125SOL    HW261832   6.739   8.219   0.434 -0.6056 -0.3203 -2.5255
19126SOL     OW61833   1.349  10.220   9.244 -0.6216  0.4979  0.3814
19126SOL    HW161834   1.308  10.251   9.163 -0.0684  0.3563  0.0392
19126SOL    HW261835   1.279  10.222   9.309 -0.3234  3.9105  0.7831
19127SOL     OW61836   9.291   6.142   4.869 -0.1891 -0.2918 -0.3891
19127SOL    HW161837   9.333   6.059   4.846 -0.5065 -0.7973  0.7630
19127SOL    HW261838   9.228   6.118   4.937  1.4395  1.2345  1.8115
19128SOL     OW61839   4.033   9.161   6.973 -0.2069  0.0657 -0.0691
19128SOL    HW161840   4.111   9.216   6.964 -0.2227  0.0122 -0.5679
19128SOL    HW261841   3.979   9.183   6.897  0.0239 -1.0011 -0.5694
19129SOL     OW61842   8.791   3.183   9.069  0.5399 -0.2540  0.2740
19129SOL    HW161843   8.812   3.116   9.004 -0.6450 -1.2748  0.9007
19129SOL    HW261844   8.768   3.133   9.148 -0.6277  0.8774  0.6854
19130SOL     OW61845   1.949   5.020  10.635 -0.0134  0.0957  0.1042
19130SOL    HW161846   2.007   4.998  10.708  0.1606 -1.2437 -0.4215
19130SOL    HW261847   1.889   4.946  10.628 -0.6189  0.6286 -0.5282
19131SOL     OW61848   7.026   7.231   3.349  0.0215  0.0274  0.0255
19131SOL    HW161849   7.087   7.245   3.277  0.8354 -0.6082  0.5632
19131SOL    HW261850   7.078   7.248   3.428 -0.6803  0.1113  0.4761
19132SOL     OW61851   5.287   9.184   6.835 -0.1630 -0.3690  0.0493
19132SOL    HW161852   5.290   9.169   6.929  0.1876 -1.1916 -0.0877
19132SOL    HW261853   5.376   9.168   6.805 -0.4018 -0.6800 -0.5046
19133SOL     OW61854   6.811   0.145   8.504 -0.1850  0.7129 -0.0374
19133SOL    HW161855   6.874   0.129   8.573 -2.5161  1.3270  2.4329
19133SOL    HW261856   6.832   0.233   8.472  2.7177 -0.6743 -2.3290
19134SOL     OW61857   2.646   8.879   3.790 -0.2789  0.0835 -0.2714
19134SOL    HW161858   2.636   8.863   3.697 -0.4531  0.2979 -0.2888
19134SOL    HW261859   2.696   8.803   3.822  1.0051  0.6956 -0.7799
19135SOL     OW61860   6.747   6.519   2.525  0.1238  0.0651  0.5183
19135SOL    HW161861   6.717   6.516   2.434  0.3962  0.4032  0.4179
19135SOL    HW261862   6.666   6.518   2.576 -0.0310 -0.1346  0.2759
19136SOL     OW61863   9.302   1.969   2.862 -0.3211 -0.9207  0.2103
19136SOL    HW161864   9.207   1.976   2.850  0.0838  2.4141 -2.5073
19136SOL    HW261865   9.316   1.991   2.954 -2.0845  0.5279  0.1932
19137SOL     OW61866   7.234   3.137   3.184  0.7341 -0.0929 -0.2650
19137SOL    HW161867   7.252   3.200   3.114 -0.3089 -0.4071 -0.8285
19137SOL    HW261868   7.173   3.074   3.145 -1.8617  1.0785  1.5957
19138SOL     OW61869   4.324   2.456   0.947  0.8436 -0.1361 -0.1434
19138SOL    HW161870   4.304   2.513   1.021 -0.1848  0.4425 -0.8484
19138SOL    HW261871   4.401   2.407   0.976  1.1844  0.9172  0.8507
19139SOL     OW61872   2.445   0.830   7.424  0.1987  0.2825  0.0557
19139SOL    HW161873   2.392   0.798   7.351 -0.0831  0.8608  0.0016
19139SOL    HW261874   2.434   0.764   7.493 -0.4980  0.3366  0.0005
19140SOL     OW61875   9.134   8.270   5.030 -0.7016  0.5527  0.1692
19140SOL    HW161876   9.145   8.203   5.097 -2.9222  1.1649  1.2482
19140SOL    HW261877   9.073   8.232   4.967  0.0642  0.6063 -0.6148
19141SOL     OW61878   1.190   6.594   2.095  0.1899 -0.1204  0.4742
19141SOL    HW161879   1.236   6.635   2.169  0.1542  0.3187  0.2592
19141SOL    HW261880   1.255   6.593   2.024  0.3724 -0.9702  0.6523
19142SOL     OW61881   8.245   7.096   2.287 -0.5654  0.9384  0.2030
19142SOL    HW161882   8.175   7.096   2.353  1.1253 -1.1154  2.1464
19142SOL    HW261883   8.253   7.005   2.260 -0.9016  1.6522 -2.6626
19143SOL     OW61884   1.129   8.936   4.979 -0.4236 -0.0358  0.5481
19143SOL    HW161885   1.188   8.971   4.912 -1.1669  0.7911  0.3052
19143SOL    HW261886   1.095   8.855   4.941 -0.7474  0.3628 -0.0254
19144SOL     OW61887   6.781   1.928  10.396 -0.2566  0.0661  0.4885
19144SOL    HW161888   6.872   1.940  10.423 -0.0579 -1.2848  0.4892
19144SOL    HW261889   6.787   1.896  10.306 -0.7558  0.4449  0.3153
19145SOL     OW61890   1.489   1.681   1.181 -0.9138 -0.4472 -0.1149
19145SOL    HW161891   1.512   1.767   1.147 -1.9996 -0.3314 -0.6208
19145SOL    HW261892   1.544   1.619   1.132  0.1362 -0.0292  0.5162
19146SOL     OW61893   8.116   1.211   9.887  0.2678  0.2427 -0.2565
19146SOL    HW161894   8.027   1.209   9.851 -0.5735  2.1455  1.4676
19146SOL    HW261895   8.171   1.241   9.815 -0.9537  1.6454 -0.6634
19147SOL     OW61896   0.160   7.802   6.958 -0.4111 -0.0051  0.1232
19147SOL    HW161897   0.151   7.898   6.956  0.6535  0.1106 -1.7089
19147SOL    HW261898   0.072   7.770   6.941 -0.6098  0.6851 -0.2023
19148SOL     OW61899   6.121   7.295   1.125  0.9083 -0.1661  0.5085
19148SOL    HW161900   6.149   7.354   1.055  1.3664  0.0721  0.8846
19148SOL    HW261901   6.202   7.271   1.169  0.5762  0.0938  1.2778
19149SOL     OW61902   6.522   1.882   1.956 -0.0734 -0.3772 -0.2839
19149SOL    HW161903   6.494   1.876   2.048 -2.2865 -0.6173 -0.9118
19149SOL    HW261904   6.440   1.884   1.907  1.0634 -1.4860 -2.3435
19150SOL     OW61905   2.901  10.589   4.411  0.3088 -0.2936  0.3573
19150SOL    HW161906   2.823  10.535   4.401 -1.7876  2.6550 -0.5457
19150SOL    HW261907   2.946  10.552   4.488 -1.6785 -2.3990  0.6161
19151SOL     OW61908   6.153   6.161   3.153  0.0762 -0.0217  0.0466
19151SOL    HW161909   6.059   6.154   3.172 -0.1812 -0.5957 -1.3785
19151SOL    HW261910   6.193   6.176   3.239 -1.3889  1.0896  0.5852
19152SOL     OW61911   2.884  10.827   8.205 -0.2224  0.3116 -0.4206
19152SOL    HW161912   2.905  10.837   8.298  0.1591  1.7032 -0.6270
19152SOL    HW261913   2.876  10.733   8.192  0.3386  0.0608  0.8929
19153SOL     OW61914   1.424   5.317   4.159  0.5220 -0.2322  0.0182
19153SOL    HW161915   1.516   5.312   4.134  0.8233  0.6881  0.8957
19153SOL    HW261916   1.423   5.299   4.253 -0.1253  0.3645  0.1338
19154SOL     OW61917   8.817   7.200   9.834  0.5444 -0.1289  0.0106
19154SOL    HW161918   8.803   7.112   9.866 -0.5225 -1.1485 -2.8928
19154SOL    HW261919   8.904   7.197   9.793  0.2871 -0.0243 -0.5589
19155SOL     OW61920   4.532   5.832   3.309  0.2232 -0.1034 -0.1822
19155SOL    HW161921   4.610   5.792   3.270 -0.6048 -1.4633 -0.5274
19155SOL    HW261922   4.523   5.916   3.265  0.9398 -0.3565 -0.8455
19156SOL     OW61923   4.808   7.506   1.610 -0.5464  0.0156  0.1819
19156SOL    HW161924   4.762   7.589   1.602 -0.5673  0.0194  0.3576
19156SOL    HW261925   4.759   7.457   1.676 -0.9005 -0.3798 -0.3627
19157SOL     OW61926   6.047   4.171   2.644  0.1231  0.2502  0.5433
19157SOL    HW161927   6.028   4.235   2.712  0.5443  3.9672 -2.4840
19157SOL    HW261928   6.141   4.179   2.628 -0.0194 -0.2243 -0.7001
19158SOL     OW61929   2.127   6.938   3.284  0.0172 -0.2834  0.4826
19158SOL    HW161930   2.181   6.973   3.213 -1.8284  1.8760  0.0226
19158SOL    HW261931   2.074   7.013   3.313 -0.5866 -1.5504  2.9296
19159SOL     OW61932   1.747   2.687  10.874  0.4112  0.4131  0.4687
19159SOL    HW161933   1.712   2.776  10.870 -0.3287  0.2176  1.7700
19159SOL    HW261934   1.671   2.631  10.857  1.0873  0.0098 -1.4746
19160SOL     OW61935   8.224   5.321   5.191 -0.0755 -0.2263 -0.0908
19160SOL    HW161936   8.143   5.366   5.166 -1.8688 -2.6703  0.9022
19160SOL    HW261937   8.254   5.367   5.269 -0.5897  0.6285 -0.3849
19161SOL     OW61938  10.867   1.551   7.154 -0.0055 -0.1442 -0.3905
19161SOL    HW161939  10.781   1.574   7.118 -0.6473 -1.3264  0.3188
19161SOL    HW261940  10.876   1.607   7.231 -0.1983 -0.1030 -0.3954
19162SOL     OW61941   4.420   0.877   5.712  0.0601 -0.3045  0.0565
19162SOL    HW161942   4.331   0.880   5.679  1.0121  1.6988 -2.7158
19162SOL    HW261943   4.474   0.911   5.640  2.9909 -0.6771  1.8819
19163SOL     OW61944   0.032   0.467   5.770  0.4258 -0.8391 -0.3839
19163SOL    HW161945  -0.031   0.538   5.766 -1.1079 -2.0820  0.5431
19163SOL    HW261946   0.038   0.434   5.680 -0.6200 -0.9964 -0.4053
19164SOL     OW61947   3.536   0.960   9.215 -0.1945 -0.5518 -0.2965
19164SOL    HW161948   3.618   1.007   9.232  0.2701 -1.6476  0.6416
19164SOL    HW261949   3.473   1.001   9.274 -0.5592  0.8174 -1.5736
19165SOL     OW61950   1.594   5.992   8.626  0.2922 -0.7531  0.2863
19165SOL    HW161951   1.535   5.948   8.565 -1.8876  2.4338 -0.2254
19165SOL    HW261952   1.657   6.038   8.571  0.9856 -1.2500  0.6560
19166SOL     OW61953   1.713   0.708   5.838  0.0742 -0.1883  0.2573
19166SOL    HW161954   1.764   0.634   5.872  0.6063 -0.1886 -0.5214
19166SOL    HW261955   1.741   0.717   5.747  0.8828  1.7120  0.6407
19167SOL     OW61956   3.554   3.758   1.741  0.5659  0.5466  0.4444
19167SOL    HW161957   3.555   3.687   1.677  0.5215  1.0482 -0.1208
19167SOL    HW261958   3.513   3.831   1.695 -0.1139  0.7069  1.2764
19168SOL     OW61959  10.096   7.018   2.998 -0.2559 -0.2023  0.3155
19168SOL    HW161960  10.138   7.081   3.057 -0.2409  0.1977 -0.1138
19168SOL    HW261961  10.079   6.942   3.053  1.4418 -0.5577  0.4125
19169SOL     OW61962   9.149   4.565   5.956  0.0214  0.0524  0.4316
19169SOL    HW161963   9.161   4.488   5.900 -2.4488 -0.2098  0.1451
19169SOL    HW261964   9.178   4.536   6.042 -0.0378 -0.9385  0.1391
19170SOL     OW61965   2.465   5.999   2.814  0.4493  0.0617  0.1522
19170SOL    HW161966   2.518   5.980   2.891 -1.9336 -0.7916  1.7006
19170SOL    HW261967   2.438   5.913   2.781 -1.9645  0.4322  0.9679
19171SOL     OW61968   6.078   4.157   3.579 -0.2453 -0.4094 -0.1519
19171SOL    HW161969   6.108   4.240   3.616 -0.2818 -0.9499  1.1505
19171SOL    HW261970   6.059   4.177   3.487 -1.3208  1.2882  0.3955
19172SOL     OW61971   1.116   4.838   2.952 -0.5050 -0.1216 -0.9557
19172SOL    HW161972   1.028   4.805   2.932 -1.1641  1.0027 -0.0024
19172SOL    HW261973   1.137   4.896   2.879 -0.5368 -0.4288 -1.2097
19173SOL     OW61974  10.773   3.066  10.597  0.0106  0.2905  0.1901
19173SOL    HW161975  10.700   3.100  10.546 -2.6488 -2.2663  1.9437
19173SOL    HW261976  10.796   3.138  10.656 -0.5492  1.4113 -0.8985
19174SOL     OW61977   5.858   3.409   6.943 -0.3130 -0.0158  0.4703
19174SOL    HW161978   5.838   3.409   6.849 -0.0336 -0.2830  0.4097
19174SOL    HW261979   5.821   3.326   6.974  0.5570 -0.4437  0.3865
19175SOL     OW61980   1.334   2.893   6.842  0.3675  0.5370  0.7029
19175SOL    HW161981   1.405   2.837   6.873 -0.5421 -0.2195  1.5108
19175SOL    HW261982   1.369   2.935   6.763  1.6755  0.1496  1.0462
19176SOL     OW61983   1.917   4.525   1.133  0.2216 -0.0480  0.0151
19176SOL    HW161984   1.991   4.481   1.175  0.2503  1.1393  1.2894
19176SOL    HW261985   1.956   4.582   1.068  0.2156 -1.4653 -1.2904
19177SOL     OW61986   4.252   1.504   7.647 -0.5513  0.4101 -0.0598
19177SOL    HW161987   4.315   1.452   7.596 -1.5808 -0.1873 -0.7810
19177SOL    HW261988   4.291   1.511   7.734  0.4298 -0.0870 -0.4416
19178SOL     OW61989   5.046   2.040   2.568  0.5811  0.5095  0.6088
19178SOL    HW161990   5.063   2.108   2.633  2.6732 -0.3891  1.0855
19178SOL    HW261991   5.045   1.959   2.618  2.0170 -0.1790 -0.4070
19179SOL     OW61992   5.133   8.318   1.035  0.0056 -0.3234  0.3832
19179SOL    HW161993   5.164   8.360   1.116  1.7847 -2.5124  0.9525
19179SOL    HW261994   5.048   8.281   1.059  0.2968 -0.5416  1.1241
19180SOL     OW61995   9.578  10.705   0.188  0.1176  0.3288  0.2606
19180SOL    HW161996   9.495  10.751   0.173  0.8332  2.5107  2.3627
19180SOL    HW261997   9.645  10.772   0.175  1.3361 -0.5474  1.7577
19181SOL     OW61998  10.975   6.847   2.561 -0.5876 -0.2864 -0.1424
19181SOL    HW161999  10.894   6.844   2.510 -0.2962 -0.4999 -0.5959
19181SOL    HW262000  10.963   6.922   2.620 -0.2145  1.0533 -1.7073
19182SOL     OW62001  10.527   9.367   7.405  0.2693 -0.5311 -0.3765
19182SOL    HW162002  10.495   9.457   7.408  0.0001 -0.5828 -1.2847
19182SOL    HW262003  10.482   9.329   7.330 -0.1651 -1.6401  0.4208
19183SOL     OW62004   6.979   3.604   4.350 -0.1597  0.0571 -0.4763
19183SOL    HW162005   6.998   3.559   4.269 -0.6475  1.1699 -1.2401
19183SOL    HW262006   6.883   3.605   4.355 -0.1443  0.5159 -0.2033
19184SOL     OW62007   7.111   4.255  10.266  0.0329 -1.0164 -0.1606
19184SOL    HW162008   7.150   4.320  10.207 -4.0481  2.8844  0.9328
19184SOL    HW262009   7.060   4.198  10.208  1.4437 -1.6010 -0.8841
19185SOL     OW62010   3.651   7.949  10.069  0.4522  0.4759 -0.3257
19185SOL    HW162011   3.576   7.975  10.016  1.2517 -0.2322 -1.8743
19185SOL    HW262012   3.617   7.943  10.158 -1.3203  0.1572 -0.9897
19186SOL     OW62013   5.149   0.619   0.524 -0.2475 -0.8201 -0.6304
19186SOL    HW162014   5.244   0.625   0.511 -0.0746 -1.9986 -0.0696
19186SOL    HW262015   5.119   0.556   0.459 -0.3618 -1.7722  0.3118
19187SOL     OW62016  10.069   6.591   2.164 -0.1198 -0.0761  0.0412
19187SOL    HW162017  10.130   6.584   2.238 -1.6679  0.9794  1.4833
19187SOL    HW262018  10.105   6.662   2.110 -0.4727  1.1426  1.3436
19188SOL     OW62019   2.871  10.743   1.133  0.1581  0.1620  0.1287
19188SOL    HW162020   2.872  10.748   1.228 -0.0567  0.0381  0.1387
19188SOL    HW262021   2.872  10.835   1.104 -0.9060  0.2315  0.2677
19189SOL     OW62022   0.356   1.620   0.159 -0.5389  0.1052 -0.0335
19189SOL    HW162023   0.347   1.539   0.209 -0.7108  0.1850  0.0649
19189SOL    HW262024   0.267   1.643   0.135 -0.3748 -0.5643 -1.3809
19190SOL     OW62025   7.974  10.712   1.678  0.2985 -0.7819  0.1360
19190SOL    HW162026   8.040  10.780   1.692 -0.9781  0.3908  0.6096
19190SOL    HW262027   7.960  10.712   1.583 -0.7884  0.7168  0.2643
19191SOL     OW62028   5.169   4.837  10.030 -0.1265  0.0031 -0.1130
19191SOL    HW162029   5.164   4.864  10.122  0.4480  1.7445 -0.5424
19191SOL    HW262030   5.252   4.873  10.000 -0.9865  0.7788 -1.6954
19192SOL     OW62031   7.784   9.070   8.240  0.4693  0.0222 -0.1210
19192SOL    HW162032   7.783   8.975   8.254 -3.0694  0.1558  1.6539
19192SOL    HW262033   7.776   9.107   8.328  0.9650  1.9792 -0.8469
19193SOL     OW62034   4.611   1.744   1.642  0.1901  0.3862  0.5522
19193SOL    HW162035   4.543   1.801   1.678 -0.6278  0.3003 -0.7838
19193SOL    HW262036   4.572   1.657   1.640  1.0340 -0.0373  1.5284
19194SOL     OW62037   8.274   7.599   5.425  0.1335 -0.2553 -0.0286
19194SOL    HW162038   8.254   7.587   5.332 -0.9563  0.1865  0.1314
19194SOL    HW262039   8.227   7.528   5.469 -0.1928  0.1305  0.2593
19195SOL     OW62040   8.146   0.283   8.590 -0.3486 -0.0733  0.0963
19195SOL    HW162041   8.105   0.203   8.621 -1.8041  0.4210 -0.4506
19195SOL    HW262042   8.110   0.296   8.503  2.1337 -0.3726 -1.0556
19196SOL     OW62043   4.593   5.993   2.300 -0.0619  0.0099  0.3561
19196SOL    HW162044   4.613   5.908   2.339  0.6666  0.8137  1.8448
19196SOL    HW262045   4.613   6.056   2.369 -1.5802  1.3352 -0.3514
19197SOL     OW62046   5.685   3.492   1.489  0.1187 -0.3160 -0.8585
19197SOL    HW162047   5.637   3.435   1.430  1.0087 -0.4286 -1.4749
19197SOL    HW262048   5.638   3.576   1.485 -0.0821 -0.4544 -1.3769
19198SOL     OW62049   3.965   9.579   9.002 -0.6365  0.1886  0.3710
19198SOL    HW162050   4.058   9.563   9.011 -0.3174  1.9930  0.6310
19198SOL    HW262051   3.937   9.522   8.931  0.9424  0.5823 -0.6054
19199SOL     OW62052   0.206   0.158   9.034  0.3565 -0.2249 -0.1959
19199SOL    HW162053   0.278   0.207   9.072 -1.6766  0.5577  3.0483
19199SOL    HW262054   0.153   0.224   8.989 -0.0211 -0.1964  0.2777
19200SOL     OW62055   1.859   1.743   2.476 -0.5956  0.0853  0.3396
19200SOL    HW162056   1.954   1.751   2.465 -0.5035  1.1928  1.6928
19200SOL    HW262057   1.822   1.811   2.420 -0.4876  0.8353  1.1607
19201SOL     OW62058  10.612  10.424   5.169  0.2446  0.2555 -0.0100
19201SOL    HW162059  10.611  10.434   5.264 -1.4084 -0.1987  0.0395
19201SOL    HW262060  10.662  10.500   5.138 -1.1244  1.6799  1.1030
19202SOL     OW62061   3.228   5.831   7.415 -0.1991 -0.2633 -0.7506
19202SOL    HW162062   3.187   5.776   7.481  0.0902  0.4673  0.0474
19202SOL    HW262063   3.297   5.776   7.377 -1.5790 -1.3558 -1.8131
19203SOL     OW62064   0.960   4.566   0.639 -0.3822 -0.0560  0.0646
19203SOL    HW162065   0.897   4.628   0.676 -0.5474 -0.3427  0.2608
19203SOL    HW262066   0.924   4.545   0.552 -0.9871 -0.8386  0.4885
19204SOL     OW62067   0.840   4.593   7.583  0.2531 -0.8683 -0.4355
19204SOL    HW162068   0.806   4.509   7.551  1.7325 -1.0638 -1.6090
19204SOL    HW262069   0.933   4.576   7.599  0.6301  0.6118 -0.9524
19205SOL     OW62070   2.275   3.759   2.279  0.4943  0.4475 -0.6856
19205SOL    HW162071   2.291   3.709   2.199  0.0974  0.7322 -0.9436
19205SOL    HW262072   2.208   3.710   2.326  1.3783 -0.2163 -0.0748
19206SOL     OW62073   5.764   6.552   8.299 -0.6150  0.1191 -0.2895
19206SOL    HW162074   5.733   6.484   8.359 -0.8260 -2.2024 -2.8598
19206SOL    HW262075   5.858   6.557   8.315 -0.3682 -1.7731 -0.9540
19207SOL     OW62076   2.751   4.898   7.580 -0.2738  0.1774  0.0847
19207SOL    HW162077   2.707   4.845   7.645  0.0313 -0.3792 -0.1591
19207SOL    HW262078   2.788   4.836   7.518  0.2840  0.6550 -0.0802
19208SOL     OW62079   2.299   4.911   5.714 -0.0438  0.2796  0.1202
19208SOL    HW162080   2.215   4.956   5.719  0.3407  1.1498 -0.9168
19208SOL    HW262081   2.311   4.872   5.801 -1.6626 -0.1506  0.1841
19209SOL     OW62082   8.433   5.331   7.358 -0.4711  0.4355  0.2209
19209SOL    HW162083   8.427   5.417   7.316 -2.2744  0.3419  0.2004
19209SOL    HW262084   8.374   5.275   7.306 -1.0890 -0.2258  1.5845
19210SOL     OW62085   9.293   7.916   5.051 -0.0378 -0.3363  0.2966
19210SOL    HW162086   9.389   7.908   5.048  0.0172 -0.1150  1.1400
19210SOL    HW262087   9.266   7.920   4.959  0.8091  0.1334  0.0574
19211SOL     OW62088   8.745   9.255   3.003  0.0450 -0.0715 -0.2818
19211SOL    HW162089   8.781   9.240   3.091  0.7392 -1.4417 -0.7637
19211SOL    HW262090   8.650   9.252   3.014  0.1022  0.8428  0.5782
19212SOL     OW62091   3.459   4.449   2.758 -0.2414 -0.0395 -0.7328
19212SOL    HW162092   3.535   4.407   2.720 -0.4602  0.8187 -2.1819
19212SOL    HW262093   3.487   4.539   2.776 -0.5780 -0.0336 -0.2114
19213SOL     OW62094   0.914   2.894   5.012 -0.0440 -0.8802 -0.3339
19213SOL    HW162095   0.882   2.980   5.040  0.6314  0.2366 -2.7820
19213SOL    HW262096   0.936   2.849   5.094  0.7754  1.7255  0.9779
19214SOL     OW62097   9.591   6.365   8.188  0.1443  0.4415  0.0828
19214SOL    HW162098   9.505   6.406   8.181  1.0076  2.1388 -1.0770
19214SOL    HW262099   9.652   6.429   8.153  1.9114 -0.7354  0.8434
19215SOL     OW62100   5.265   7.240   7.764  0.0779 -0.2710  0.0042
19215SOL    HW162101   5.198   7.308   7.772 -0.6312 -1.1560  2.4851
19215SOL    HW262102   5.335   7.269   7.823  1.2338 -0.1729 -1.3381
19216SOL     OW62103   2.497   8.882   0.706  0.2324 -0.4836 -0.5308
19216SOL    HW162104   2.551   8.845   0.776 -0.0296 -0.8208 -0.5043
19216SOL    HW262105   2.413   8.900   0.748  0.7838  1.5030 -0.1668
19217SOL     OW62106   1.914   0.147   7.356  0.2403  0.2630  0.2209
19217SOL    HW162107   2.007   0.153   7.379  0.5746 -1.6355 -0.4423
19217SOL    HW262108   1.890   0.056   7.375 -1.0041  0.2280 -1.2766
19218SOL     OW62109   0.737   4.685   5.689 -0.0595  0.4425 -0.1185
19218SOL    HW162110   0.717   4.629   5.765  2.8043 -1.6742 -0.7639
19218SOL    HW262111   0.681   4.651   5.620  2.4509 -2.6867 -0.8322
19219SOL     OW62112   9.045   7.958   0.092  0.1506  0.0714  0.3907
19219SOL    HW162113   9.095   7.904   0.031 -0.6406 -2.2430  1.6372
19219SOL    HW262114   8.956   7.957   0.057 -0.0831 -0.3419  0.9893
19220SOL     OW62115   2.775  10.678  10.178  0.5039 -0.1376  0.9410
19220SOL    HW162116   2.731  10.615  10.121  1.7994 -1.0668  0.9277
19220SOL    HW262117   2.705  10.712  10.235 -0.5162 -0.3288 -0.1696
19221SOL     OW62118   0.271   9.967   2.126 -0.3275  0.0702  0.1799
19221SOL    HW162119   0.200   9.944   2.066  1.1010 -0.5506 -1.3481
19221SOL    HW262120   0.305  10.050   2.093  0.4709 -0.2762  0.1031
19222SOL     OW62121   7.704   6.469   5.978  0.3184 -0.1830  0.2526
19222SOL    HW162122   7.731   6.561   5.986  0.4768 -0.1605 -0.4850
19222SOL    HW262123   7.630   6.461   6.038  0.9647  0.1542  1.1214
19223SOL     OW62124   8.343   8.898   7.602  0.4720 -0.0833 -0.5048
19223SOL    HW162125   8.339   8.830   7.668 -0.4367 -0.3911 -0.8645
19223SOL    HW262126   8.437   8.913   7.589  0.6666  0.0643  0.9107
19224SOL     OW62127   3.782   3.927   7.525  0.2906  0.2005  0.0179
19224SOL    HW162128   3.754   3.898   7.612  0.0686 -1.6397 -0.6218
19224SOL    HW262129   3.822   3.850   7.486  0.1691  0.9203 -1.6029
19225SOL     OW62130  10.246   8.175   0.258 -0.6551 -0.2712 -0.8018
19225SOL    HW162131  10.204   8.144   0.178 -1.8768 -2.2374  0.5340
19225SOL    HW262132  10.176   8.175   0.324  0.2677  1.4889  0.2692
19226SOL     OW62133  10.273   4.212  10.408  0.1249 -0.0612  0.1451
19226SOL    HW162134  10.191   4.207  10.358 -0.1541  1.6280  0.3695
19226SOL    HW262135  10.273   4.300  10.445  0.9879 -0.7889  1.9971
19227SOL     OW62136   4.699   6.393  10.978  0.3894  0.4708  0.7137
19227SOL    HW162137   4.788   6.410  11.010  0.9956 -1.0575 -0.0354
19227SOL    HW262138   4.645   6.391  11.057  1.6972 -2.3588  1.6694
19228SOL     OW62139   3.952  10.128   4.049  0.0124 -0.4048 -0.5154
19228SOL    HW162140   3.886  10.149   4.115  1.7842  0.7729  0.9816
19228SOL    HW262141   3.934  10.190   3.978 -0.3060  0.1052  0.0023
19229SOL     OW62142   1.929   9.928   8.430 -0.3356  0.3104  0.3445
19229SOL    HW162143   1.933   9.980   8.511 -0.4368  0.7742  0.0545
19229SOL    HW262144   1.895   9.843   8.458  0.0338  0.3231  0.8606
19230SOL     OW62145   7.473   3.874   9.015 -0.1515 -0.0640  0.2870
19230SOL    HW162146   7.550   3.870   8.958 -0.5794 -2.8927 -0.2263
19230SOL    HW262147   7.505   3.845   9.100 -0.8674 -2.8422 -0.3059
19231SOL     OW62148  10.252   5.982   3.251 -0.5628  0.7835 -0.4092
19231SOL    HW162149  10.240   6.043   3.178 -0.9479  0.4634 -0.6183
19231SOL    HW262150  10.167   5.982   3.296 -0.4902  0.5809 -0.2737
19232SOL     OW62151   7.368   2.123   3.949  0.4607  0.1752 -0.2380
19232SOL    HW162152   7.451   2.135   3.903  0.5977 -1.1990 -0.4132
19232SOL    HW262153   7.323   2.055   3.898 -0.0323 -0.3032  0.8178
19233SOL     OW62154   2.202   3.621   8.713  0.0101 -0.1104  0.1570
19233SOL    HW162155   2.215   3.527   8.723 -0.0200 -0.1449 -0.1441
19233SOL    HW262156   2.156   3.631   8.630 -1.0684  0.0787  0.7545
19234SOL     OW62157   1.384   6.824   8.619 -0.2801  0.3366  0.0692
19234SOL    HW162158   1.294   6.793   8.607 -0.2736  1.0171 -2.1708
19234SOL    HW262159   1.376   6.919   8.625  0.0182  0.2680  3.5644
19235SOL     OW62160   8.962   5.743   4.319  0.1702 -0.2376 -0.9244
19235SOL    HW162161   8.947   5.675   4.253 -0.1512 -1.3190  0.2305
19235SOL    HW262162   9.019   5.701   4.384  0.1254  0.6625 -0.2955
19236SOL     OW62163  10.392   7.424   6.193 -0.0863 -0.0588  0.3896
19236SOL    HW162164  10.311   7.399   6.149 -0.3122 -0.9946  1.3030
19236SOL    HW262165  10.383   7.517   6.210  0.2058  0.4681 -1.9291
19237SOL     OW62166   7.531   3.084   6.982 -0.3054 -0.0424 -0.3543
19237SOL    HW162167   7.574   3.015   7.032 -0.1650 -0.7687 -1.4492
19237SOL    HW262168   7.535   3.161   7.039 -0.0357 -0.8016  0.6869
19238SOL     OW62169   0.206  10.629   6.179  0.4329  0.2745  0.1077
19238SOL    HW162170   0.154  10.646   6.257  1.8226 -0.1004  1.1552
19238SOL    HW262171   0.152  10.661   6.107 -1.1157  0.1562  1.1515
19239SOL     OW62172   2.058   8.802  11.028 -0.1413 -0.4216  0.3930
19239SOL    HW162173   2.035   8.893  11.009  0.9110 -0.2580 -0.1428
19239SOL    HW262174   2.109   8.806  11.108  0.1153 -0.5150  0.2334
19240SOL     OW62175   3.869  10.737   9.143 -0.4906  0.4637  0.3528
19240SOL    HW162176   3.852  10.775   9.229 -1.5798 -1.9888  1.3213
19240SOL    HW262177   3.799  10.673   9.131  1.2649 -1.3320 -1.0576
19241SOL     OW62178   2.680   6.603   3.559 -0.1115  0.0676  0.4462
19241SOL    HW162179   2.744   6.546   3.600  0.5879  1.1456  0.9024
19241SOL    HW262180   2.731   6.664   3.507 -0.7911  0.6521  0.4437
19242SOL     OW62181   9.890   2.141   3.268 -0.4442 -0.3539 -0.2923
19242SOL    HW162182   9.914   2.151   3.360 -0.0942 -0.3340 -0.3833
19242SOL    HW262183   9.814   2.083   3.269  0.7406 -1.9961 -0.1088
19243SOL     OW62184   2.451  10.577  10.876  0.3379 -0.2278  0.2457
19243SOL    HW162185   2.430  10.509  10.940 -0.8433  0.0707  0.1895
19243SOL    HW262186   2.399  10.554  10.799  1.1430 -0.1353 -0.3449
19244SOL     OW62187   5.149   9.764   3.012  0.4163  0.1938 -0.3816
19244SOL    HW162188   5.181   9.848   3.045  0.3166 -0.1578  0.6164
19244SOL    HW262189   5.206   9.746   2.937  0.2980  1.2520 -0.7458
19245SOL     OW62190   0.658   9.466   6.805  0.1732 -0.7921  0.1210
19245SOL    HW162191   0.629   9.374   6.801  0.3606 -0.8763  0.5720
19245SOL    HW262192   0.750   9.460   6.831 -0.2906 -0.4241  1.9674
19246SOL     OW62193   6.201   7.578   5.257  0.3688 -0.7944  0.3586
19246SOL    HW162194   6.228   7.670   5.256 -4.5305  0.9462  0.2448
19246SOL    HW262195   6.180   7.558   5.166 -0.3699 -1.4019  0.6508
19247SOL     OW62196  10.587   9.088   9.047 -0.4982 -0.0391 -0.5500
19247SOL    HW162197  10.611   9.146   9.118 -0.8195 -0.0606 -0.4224
19247SOL    HW262198  10.508   9.044   9.077 -1.2742  0.7591 -1.3670
19248SOL     OW62199   8.550  10.774   7.835  0.4990 -0.0176 -0.1203
19248SOL    HW162200   8.567  10.856   7.788 -2.1196  0.4582 -0.4038
19248SOL    HW262201   8.495  10.799   7.909  0.5841 -1.3854  0.4471
19249SOL     OW62202   1.057   0.760   7.345  0.3550 -0.1686  0.5803
19249SOL    HW162203   1.083   0.788   7.258 -1.8262 -1.8251 -0.7004
19249SOL    HW262204   1.090   0.828   7.403  0.7471  1.6695 -1.6586
19250SOL     OW62205   8.463   4.204   9.165 -0.2598  0.0191  0.3733
19250SOL    HW162206   8.530   4.237   9.224 -0.2261 -2.2623  1.7103
19250SOL    HW262207   8.405   4.151   9.220 -1.5029 -0.4190 -1.2586
19251SOL     OW62208   4.052   8.972   7.421  0.1485 -0.6766  0.2978
19251SOL    HW162209   4.051   8.937   7.332 -2.0891 -1.5670  0.6170
19251SOL    HW262210   4.099   9.056   7.413  0.5252 -1.0173 -1.5748
19252SOL     OW62211   2.791   0.509   2.008  0.8798  0.5075  0.6488
19252SOL    HW162212   2.790   0.539   1.917 -0.7739  0.7028  0.7052
19252SOL    HW262213   2.755   0.582   2.058 -0.0747 -0.3121  1.1986
19253SOL     OW62214   7.379   5.477   8.494 -0.4007  0.1560 -0.3681
19253SOL    HW162215   7.466   5.477   8.532 -0.5328 -0.5502 -0.0473
19253SOL    HW262216   7.335   5.553   8.532 -0.6678 -0.7597  1.2211
19254SOL     OW62217   0.089   7.563   5.667 -0.3904 -0.1614 -0.2725
19254SOL    HW162218   0.184   7.573   5.679 -0.1009  0.2779 -2.4246
19254SOL    HW262219   0.071   7.472   5.690  0.5772 -0.2781  0.0548
19255SOL     OW62220   5.730   1.902   6.577 -0.4150 -0.5001 -0.0526
19255SOL    HW162221   5.811   1.948   6.597 -1.1358  0.3873  0.9682
19255SOL    HW262222   5.757   1.811   6.566  0.4728 -0.6207  2.4266
19256SOL     OW62223   4.757   7.513   7.962 -0.0390  0.1700 -0.0761
19256SOL    HW162224   4.826   7.452   7.984  0.2647  0.7411  0.6160
19256SOL    HW262225   4.705   7.469   7.895 -0.6271 -1.3956  1.3535
19257SOL     OW62226   4.584   4.224   7.680 -0.0429 -0.2450 -0.0958
19257SOL    HW162227   4.625   4.140   7.702 -1.8182 -1.4897 -1.3108
19257SOL    HW262228   4.505   4.226   7.734 -0.1035  0.5766 -0.2142
19258SOL     OW62229   5.061   0.674   8.880  0.0447  0.1258  0.1029
19258SOL    HW162230   5.050   0.726   8.800 -0.7889 -0.8518 -0.4513
19258SOL    HW262231   4.978   0.627   8.888  0.7728 -1.0892  0.5966
19259SOL     OW62232   8.307   4.070   9.351 -0.3293  0.4346  0.1954
19259SOL    HW162233   8.323   3.976   9.352 -1.2175  0.2549 -1.1371
19259SOL    HW262234   8.276   4.089   9.440  1.8540 -0.1268  1.1385
19260SOL     OW62235   4.706   5.427   3.803 -0.6968 -0.0531  0.3316
19260SOL    HW162236   4.782   5.398   3.853 -0.5138 -0.1585 -0.0018
19260SOL    HW262237   4.662   5.490   3.860  1.0708  2.0192 -0.4557
19261SOL     OW62238   3.389   2.867   3.583  0.0067 -0.1958 -0.2866
19261SOL    HW162239   3.339   2.873   3.502 -0.3035  0.7012 -0.0369
19261SOL    HW262240   3.376   2.951   3.626 -0.1412 -0.7859  0.8801
19262SOL     OW62241  10.823   7.453   1.636  0.3848 -0.0611 -0.6285
19262SOL    HW162242  10.868   7.536   1.620  1.7595 -1.0023 -1.9344
19262SOL    HW262243  10.754   7.451   1.570  0.6804 -0.1740 -0.9384
19263SOL     OW62244   0.272   5.815  10.634  0.0797  0.8221  0.8643
19263SOL    HW162245   0.216   5.886  10.603 -0.3272  1.7586  3.5305
19263SOL    HW262246   0.218   5.767  10.697  1.3213 -0.0789  1.2903
19264SOL     OW62247   5.467   0.665   6.431  0.5987 -0.4293  0.3519
19264SOL    HW162248   5.412   0.732   6.471 -1.1559  0.4497 -3.1743
19264SOL    HW262249   5.435   0.583   6.469  0.0022  0.4067  1.7396
19265SOL     OW62250  10.568   8.694   1.187  0.0051 -0.4092 -0.0734
19265SOL    HW162251  10.483   8.735   1.207  0.7826  0.4507  1.6388
19265SOL    HW262252  10.615   8.761   1.138  0.3634 -0.1846  0.5728
19266SOL     OW62253   1.622   7.556   1.252 -0.8756 -0.7562  0.2387
19266SOL    HW162254   1.586   7.631   1.204 -1.1936 -0.6891  0.5765
19266SOL    HW262255   1.613   7.482   1.192 -0.0222 -0.4197 -0.3209
19267SOL     OW62256   7.905  10.074   7.497 -0.2109 -0.5045  0.0797
19267SOL    HW162257   7.983  10.030   7.461  1.4555  1.5310  0.9723
19267SOL    HW262258   7.904  10.049   7.589  0.8643  1.3427  0.6417
19268SOL     OW62259   0.977   8.019   2.311  0.2342 -0.3420 -0.1878
19268SOL    HW162260   0.927   7.937   2.317 -1.7751  0.8637  0.4275
19268SOL    HW262261   1.012   8.032   2.399 -1.0124  0.3746  0.2177
19269SOL     OW62262   4.142   6.361  10.554 -0.3837  0.8279 -0.0634
19269SOL    HW162263   4.160   6.393  10.466  0.1806 -0.7392 -0.5470
19269SOL    HW262264   4.205   6.407  10.610 -0.4472  1.4948 -0.5201
19270SOL     OW62265   3.999   2.675   2.038 -0.7519  0.0496 -0.2867
19270SOL    HW162266   3.956   2.759   2.052 -1.1643 -0.1369 -0.4094
19270SOL    HW262267   4.038   2.681   1.951 -1.0341  0.0090 -0.4172
19271SOL     OW62268   0.764   4.824   3.284  0.2176  0.1093 -0.0125
19271SOL    HW162269   0.738   4.915   3.303 -0.6872 -0.4165  1.4965
19271SOL    HW262270   0.721   4.773   3.353 -0.4664 -1.6349 -1.6667
19272SOL     OW62271   1.914   5.744   0.053 -0.3844 -0.0872  0.2675
19272SOL    HW162272   1.838   5.694   0.082 -0.4407 -1.1159 -1.4936
19272SOL    HW262273   1.942   5.700  -0.028  1.2253  1.1199  0.1193
19273SOL     OW62274   2.839   3.143   7.585  0.0309 -0.1361  0.0579
19273SOL    HW162275   2.869   3.183   7.504 -0.7781  0.9519  0.2567
19273SOL    HW262276   2.906   3.079   7.608  0.0677 -0.7505 -1.6699
19274SOL     OW62277   8.088   1.471   5.823 -0.5144 -0.2692 -0.2992
19274SOL    HW162278   8.011   1.527   5.832 -0.4645 -0.0929 -0.9777
19274SOL    HW262279   8.111   1.448   5.913  0.0676  1.5942  0.0693
19275SOL     OW62280  10.683   7.075   4.615 -0.3033  0.3659  0.1219
19275SOL    HW162281  10.646   7.014   4.679 -0.2316 -0.5299 -0.6720
19275SOL    HW262282  10.722   7.019   4.548 -1.5837  1.2300 -1.4300
19276SOL     OW62283   8.053   6.899   8.807  0.3932  0.2357 -0.1481
19276SOL    HW162284   8.067   6.991   8.828 -0.3319  0.4097 -0.4012
19276SOL    HW262285   7.968   6.878   8.845  1.9049 -1.2352  2.7700
19277SOL     OW62286   3.716   5.132   5.441  0.4073 -0.0404  0.6071
19277SOL    HW162287   3.752   5.048   5.468  1.1287  0.4285  1.1388
19277SOL    HW262288   3.622   5.118   5.437  0.5831 -1.1571 -0.3314
19278SOL     OW62289   7.776   1.626   6.805 -0.3875  1.4171  0.5659
19278SOL    HW162290   7.852   1.681   6.790 -0.2170  0.9461 -0.4083
19278SOL    HW262291   7.810   1.550   6.852 -0.5662  1.9649  1.6176
19279SOL     OW62292   5.445   7.341   2.387  0.8208  0.2344  0.0281
19279SOL    HW162293   5.456   7.287   2.309  0.5516 -0.6376  0.5647
19279SOL    HW262294   5.517   7.404   2.384  2.4029 -1.4641  0.3855
19280SOL     OW62295   1.561   4.743   8.274  0.7818 -0.2809 -0.2450
19280SOL    HW162296   1.505   4.681   8.227  1.5660 -1.2668  0.0632
19280SOL    HW262297   1.651   4.715   8.253  1.1502 -0.1002  0.9831
19281SOL     OW62298  10.566   5.629   5.878 -0.1275 -0.4202  0.5177
19281SOL    HW162299  10.546   5.679   5.958  0.8008 -2.0683  1.8420
19281SOL    HW262300  10.496   5.564   5.873 -1.7797  1.3374 -1.6320
19282SOL     OW62301   3.753   5.471   3.947  0.1869 -0.3397 -0.6776
19282SOL    HW162302   3.796   5.549   3.982  0.6522 -0.7541 -0.3104
19282SOL    HW262303   3.720   5.424   4.023  0.0451 -0.5760 -0.8816
19283SOL     OW62304   2.424   3.051   0.881  0.4710  0.3775  0.6699
19283SOL    HW162305   2.363   2.993   0.835  1.2965  0.5070 -0.6099
19283SOL    HW262306   2.371   3.126   0.906  0.2222  0.7766 -0.9802
19284SOL     OW62307   4.203   2.898  10.153 -0.6503 -0.3511  0.2340
19284SOL    HW162308   4.201   2.802  10.153  0.2923 -0.3864 -0.0483
19284SOL    HW262309   4.271   2.920  10.216  0.7403  0.0465 -1.3268
19285SOL     OW62310  11.073   2.047   0.540 -0.4848  0.4328  0.3318
19285SOL    HW162311  11.093   1.954   0.550 -1.7501  0.0796 -0.3192
19285SOL    HW262312  11.151   2.091   0.574  0.3228 -0.8600  0.2444
19286SOL     OW62313   8.410   4.291  10.660  0.1377 -0.3632 -0.3875
19286SOL    HW162314   8.464   4.368  10.643 -1.1724  0.4828 -0.9245
19286SOL    HW262315   8.407   4.284  10.756 -1.8996  1.9545 -0.1686
19287SOL     OW62316   8.155   4.144   2.485  0.0929 -0.6096  0.0348
19287SOL    HW162317   8.217   4.083   2.445  0.2793 -0.8206  0.6342
19287SOL    HW262318   8.117   4.191   2.411 -0.3955 -1.7680 -0.4683
19288SOL     OW62319   4.270   8.301  10.676  0.1450 -0.0520 -0.0649
19288SOL    HW162320   4.178   8.278  10.691 -0.6712  3.1458  0.4735
19288SOL    HW262321   4.287   8.373  10.737  2.5016  0.6284 -1.4039
19289SOL     OW62322   9.576   6.583   1.425 -0.3421  0.0627 -0.1047
19289SOL    HW162323   9.579   6.541   1.339  0.7288  0.0007 -0.0502
19289SOL    HW262324   9.668   6.597   1.448 -0.6284  0.4437  0.8546
19290SOL     OW62325   6.950  10.559   8.847  0.1747  0.2372 -0.2889
19290SOL    HW162326   6.896  10.636   8.861 -1.5096 -0.6608 -1.5588
19290SOL    HW262327   6.888  10.488   8.830  1.6655 -1.4526  0.9544
19291SOL     OW62328   3.502   8.848   8.359 -0.0457  0.3455 -0.1420
19291SOL    HW162329   3.544   8.801   8.287  0.9240  1.3509 -0.2641
19291SOL    HW262330   3.499   8.785   8.430  0.3012 -0.2168 -0.6168
19292SOL     OW62331   3.106   7.483   2.019  0.3642 -0.3402 -0.0387
19292SOL    HW162332   3.081   7.575   2.010  0.4448 -0.3479 -0.3643
19292SOL    HW262333   3.201   7.485   2.034  0.0141 -0.2371  2.5387
19293SOL     OW62334   2.070   8.970   8.708  0.3016  0.4076  0.4466
19293SOL    HW162335   1.992   8.918   8.727  1.7827 -1.5024  1.5865
19293SOL    HW262336   2.095   9.008   8.792 -0.2656  2.4066 -0.2113
19294SOL     OW62337   5.566   5.507   3.290 -0.0172  0.5441 -0.0302
19294SOL    HW162338   5.585   5.421   3.328 -0.3862  0.5562  0.1837
19294SOL    HW262339   5.515   5.486   3.211 -4.4463  0.6659  2.4949
19295SOL     OW62340   3.642   8.099   3.269  0.3441 -0.1836 -0.0999
19295SOL    HW162341   3.691   8.109   3.187 -0.9533  0.5549 -0.8081
19295SOL    HW262342   3.691   8.032   3.317  2.5090  1.0537 -0.4088
19296SOL     OW62343   5.990   0.800   0.834 -0.2891  0.0139  0.3169
19296SOL    HW162344   6.083   0.791   0.818 -0.1123  2.5692 -0.4590
19296SOL    HW262345   5.980   0.885   0.877 -2.2059 -0.4853  0.9980
19297SOL     OW62346   3.724  10.782   0.866 -0.0700 -0.7727  0.8615
19297SOL    HW162347   3.783  10.750   0.798 -0.8393 -1.2536  0.4059
19297SOL    HW262348   3.740  10.725   0.941  0.8202 -0.2053  1.1238
19298SOL     OW62349  10.033   5.231  10.519  0.2689  0.2827  0.3076
19298SOL    HW162350  10.026   5.306  10.578  1.4151 -0.4095  1.3639
19298SOL    HW262351  10.107   5.181  10.552  0.0241 -0.9098 -0.8598
19299SOL     OW62352   4.953   8.928  10.584 -0.2334 -0.1072 -0.4044
19299SOL    HW162353   4.992   8.854  10.537 -0.8017 -1.1541  0.7392
19299SOL    HW262354   5.023   8.993  10.589  0.6342 -1.0267 -0.4150
19300SOL     OW62355   9.571   6.159  10.460 -0.0393  0.4323  0.2023
19300SOL    HW162356   9.661   6.135  10.483  0.2758  0.5816 -0.8263
19300SOL    HW262357   9.524   6.075  10.456  0.2446  0.2812 -0.0169
19301SOL     OW62358   1.968   6.008   8.217 -0.2958 -0.1995  0.0296
19301SOL    HW162359   2.001   6.098   8.212 -0.3245 -0.1339  0.9258
19301SOL    HW262360   1.923   5.994   8.134 -1.7728  1.1910  0.5559
19302SOL     OW62361   1.272   6.733   6.122  0.0956  0.0194  0.0498
19302SOL    HW162362   1.185   6.712   6.156 -0.0362  0.9111  0.2875
19302SOL    HW262363   1.312   6.648   6.104 -0.4213 -0.4225  0.9443
19303SOL     OW62364   3.064   5.166   2.622  0.5834  0.5263 -0.2415
19303SOL    HW162365   3.007   5.168   2.546  1.9418 -0.3841 -1.3500
19303SOL    HW262366   3.114   5.248   2.617 -0.3769  1.1801  0.5563
19304SOL     OW62367   0.259   8.988   5.763 -0.1019 -0.6010  0.2315
19304SOL    HW162368   0.247   8.894   5.772 -0.2076 -0.4580  1.7620
19304SOL    HW262369   0.243   9.023   5.850  1.1212  0.7177 -0.0346
19305SOL     OW62370  10.122   1.924   3.760  0.4491  0.2973  0.2515
19305SOL    HW162371  10.131   1.838   3.721  0.8222 -0.2453  1.4767
19305SOL    HW262372  10.199   1.972   3.729  0.8635 -0.2018  0.4858
19306SOL     OW62373   4.392   4.345   2.310  0.0509  0.4157 -0.1268
19306SOL    HW162374   4.424   4.391   2.232 -0.3250  0.4798 -0.2450
19306SOL    HW262375   4.469   4.337   2.366  0.2701  0.5869 -0.3992
19307SOL     OW62376   8.790   3.475   5.702  0.4244  0.3906 -0.0596
19307SOL    HW162377   8.824   3.493   5.615 -0.0044  1.8886  0.0497
19307SOL    HW262378   8.697   3.496   5.696  0.4899  1.0452  0.8720
19308SOL     OW62379   4.032   7.706   0.445  0.3266 -0.4624  0.8475
19308SOL    HW162380   4.026   7.760   0.366 -0.1045 -1.3179  0.2883
19308SOL    HW262381   4.117   7.728   0.483  0.6990 -0.3280 -0.0532
19309SOL     OW62382   1.930   3.783   4.472 -0.0441  0.0887  0.7734
19309SOL    HW162383   1.926   3.834   4.392 -2.0313 -0.4697  0.4693
19309SOL    HW262384   1.972   3.701   4.447 -1.7240 -0.5650 -0.0103
19310SOL     OW62385   2.844   6.484   0.976  0.0657  0.5922 -0.1679
19310SOL    HW162386   2.804   6.434   0.905 -0.2024 -1.1328  1.1510
19310SOL    HW262387   2.822   6.436   1.056  0.5922  2.3239  1.0841
19311SOL     OW62388   2.700   9.283   8.044 -0.2725 -0.1597  0.1974
19311SOL    HW162389   2.669   9.329   8.122 -0.6118  1.9585 -1.0892
19311SOL    HW262390   2.621   9.267   7.992  0.0167 -1.0099 -0.0005
19312SOL     OW62391   2.665   7.132   8.338 -0.0655 -0.8092 -0.0193
19312SOL    HW162392   2.598   7.196   8.361  0.0236  0.1021 -2.0930
19312SOL    HW262393   2.744   7.164   8.382  0.0051  0.6127 -1.1117
19313SOL     OW62394   3.657   1.261  10.038  0.0547  0.0343 -0.6931
19313SOL    HW162395   3.605   1.341  10.026 -1.3602 -0.2719  2.3602
19313SOL    HW262396   3.711   1.279  10.115  0.3819 -1.5959 -0.5017
19314SOL     OW62397   1.559   2.483  10.877 -0.5271  0.1910  0.9375
19314SOL    HW162398   1.635   2.426  10.867  0.3053  1.5488 -1.4168
19314SOL    HW262399   1.486   2.431  10.844  0.0046  0.0173 -0.0131
19315SOL     OW62400   3.203   3.205   0.327  0.1020  0.1292  0.0389
19315SOL    HW162401   3.271   3.156   0.282  1.1052  1.2745  0.2425
19315SOL    HW262402   3.143   3.234   0.258 -0.4947 -1.3165 -0.0798
19316SOL     OW62403   4.923   2.117  10.484 -0.1247  0.2015 -0.0835
19316SOL    HW162404   4.866   2.052  10.523  1.6479  0.2270  2.8393
19316SOL    HW262405   4.878   2.201  10.498  0.6078  0.2550  2.4482
19317SOL     OW62406   8.279   1.095   4.399 -0.5635 -0.0898  0.4435
19317SOL    HW162407   8.236   1.173   4.433  2.3302  1.8585 -0.0710
19317SOL    HW262408   8.247   1.088   4.309 -4.1718 -2.2196  1.6598
19318SOL     OW62409   7.721   6.662   0.211  0.4220 -0.4631  0.2267
19318SOL    HW162410   7.664   6.657   0.287  0.0097 -1.7939 -0.1498
19318SOL    HW262411   7.809   6.674   0.247  0.0217  0.8120  0.8371
19319SOL     OW62412   8.712   3.715   3.063 -0.2337 -0.0274 -0.1157
19319SOL    HW162413   8.737   3.793   3.013  0.5481 -0.2158 -0.0232
19319SOL    HW262414   8.746   3.731   3.151 -0.9956 -0.0130  0.1897
19320SOL     OW62415   3.889   5.156   7.340  0.3603 -0.4383 -0.3523
19320SOL    HW162416   3.830   5.215   7.387  0.3504 -0.5175 -0.2653
19320SOL    HW262417   3.849   5.144   7.254  0.8361  0.4280 -0.7074
19321SOL     OW62418   8.757   2.214   0.575 -0.0281  0.2383  0.2042
19321SOL    HW162419   8.830   2.161   0.609  0.4237 -0.0747 -1.1455
19321SOL    HW262420   8.726   2.165   0.499  0.0629  1.6506 -0.7867
19322SOL     OW62421   1.806   5.413   3.025  0.0551  0.4176  0.2057
19322SOL    HW162422   1.730   5.355   3.034  1.6597 -1.5047  2.6277
19322SOL    HW262423   1.881   5.354   3.023  1.6597  2.3422  0.3964
19323SOL     OW62424   9.320  10.541   5.872 -0.2911  0.1646 -0.4433
19323SOL    HW162425   9.327  10.596   5.950  0.0605 -0.6120  0.0864
19323SOL    HW262426   9.248  10.482   5.891 -1.9350  1.6187 -1.7861
19324SOL     OW62427   2.508   3.232   7.986  0.2096  0.3852  0.1081
19324SOL    HW162428   2.432   3.283   7.957  0.3298 -0.4019 -1.7161
19324SOL    HW262429   2.553   3.208   7.905  2.4664  0.8938  1.1432
19325SOL     OW62430   2.447   4.471   3.063 -1.0232 -0.1563 -0.3619
19325SOL    HW162431   2.468   4.409   2.993 -0.3984 -1.8860  1.2796
19325SOL    HW262432   2.362   4.507   3.038 -0.3080  0.1501 -2.5666
19326SOL     OW62433   9.922   9.540   9.639 -0.2996  0.0661 -0.1289
19326SOL    HW162434   9.857   9.589   9.589 -0.4127  0.4616  0.3977
19326SOL    HW262435   9.876   9.460   9.665 -0.1906 -0.2126 -0.7860
19327SOL     OW62436  10.957   3.021   7.796  0.6403  0.0568  0.8343
19327SOL    HW162437  10.892   3.052   7.858 -0.5827  1.0559 -0.8663
19327SOL    HW262438  10.915   3.029   7.710  2.2311 -1.3261 -0.1491
19328SOL     OW62439   5.463   8.024   9.485 -0.7713 -0.2627  0.5965
19328SOL    HW162440   5.405   7.967   9.435 -0.0293  1.0000 -1.8486
19328SOL    HW262441   5.411   8.050   9.561 -2.6008 -0.9130 -0.3758
19329SOL     OW62442   4.660   3.195  10.578  0.3140  0.7493  0.2564
19329SOL    HW162443   4.637   3.278  10.537 -0.8220 -0.4038 -1.5874
19329SOL    HW262444   4.747   3.210  10.616  0.3812  2.5800 -0.5160
19330SOL     OW62445   7.836  10.933   4.755  0.0993  0.5459  0.2700
19330SOL    HW162446   7.751  10.908   4.719 -0.6074  2.2918  0.6335
19330SOL    HW262447   7.893  10.941   4.678 -0.7194  1.7090 -0.2494
19331SOL     OW62448   5.147   7.111   6.896  0.0027 -0.4818 -0.0060
19331SOL    HW162449   5.105   7.192   6.869  1.2536 -0.0915 -0.8811
19331SOL    HW262450   5.232   7.138   6.930 -0.2232 -1.2905  1.2417
19332SOL     OW62451   3.141   6.392   4.949 -0.1591  0.5414  0.3217
19332SOL    HW162452   3.114   6.445   5.024  1.8668  0.3821  1.2424
19332SOL    HW262453   3.156   6.455   4.879 -0.2312  0.9063  0.6309
19333SOL     OW62454   7.048   5.978   4.944 -0.7377 -0.8559  0.5606
19333SOL    HW162455   7.084   5.938   5.024  2.4228 -1.0466 -0.8014
19333SOL    HW262456   7.076   5.920   4.874 -0.1028  1.2545 -1.0271
19334SOL     OW62457   3.023   2.544   2.379  0.0271 -0.2338 -0.1850
19334SOL    HW162458   2.996   2.632   2.404 -2.2713 -0.9820  0.1383
19334SOL    HW262459   2.944   2.503   2.344  1.4050 -1.6933 -1.7617
19335SOL     OW62460   6.235   6.578   2.392  0.2548 -0.1964  0.6312
19335SOL    HW162461   6.255   6.561   2.484 -0.2290 -0.4577  0.6874
19335SOL    HW262462   6.144   6.552   2.382  0.0705  0.5794  0.2661
19336SOL     OW62463   6.071   9.645   4.551  0.1492  0.7010 -0.5715
19336SOL    HW162464   6.069   9.720   4.492 -1.0781 -0.2603 -1.8114
19336SOL    HW262465   6.014   9.669   4.624  0.5026  1.3134 -0.4909
19337SOL     OW62466   8.105   8.658   0.069 -0.5528 -0.2054 -0.4556
19337SOL    HW162467   8.154   8.711   0.007 -3.6213  1.1296 -1.9615
19337SOL    HW262468   8.163   8.650   0.145  1.8806  1.2621 -2.0196
19338SOL     OW62469   7.768   3.867  10.608 -0.4905 -0.3178 -0.2352
19338SOL    HW162470   7.700   3.861  10.542 -0.0696 -0.3083 -0.6728
19338SOL    HW262471   7.722   3.893  10.688 -1.1469 -1.3540 -0.2689
19339SOL     OW62472   5.874   8.839   8.868 -0.0896 -0.2085  0.1322
19339SOL    HW162473   5.949   8.817   8.922  0.3706 -1.2178 -0.8613
19339SOL    HW262474   5.802   8.787   8.904 -0.1606  0.2639  0.6816
19340SOL     OW62475   5.624   9.602   7.332 -0.5691 -0.1315  0.2520
19340SOL    HW162476   5.540   9.625   7.372 -1.6240 -1.6610 -0.9542
19340SOL    HW262477   5.623   9.506   7.329  0.7916 -0.1379 -0.6935
19341SOL     OW62478   3.782  10.121  10.150  0.2195  0.1587 -0.0880
19341SOL    HW162479   3.862  10.174  10.149 -0.6488  1.7444  2.6147
19341SOL    HW262480   3.813  10.030  10.157  1.7420  0.4943 -1.9525
19342SOL     OW62481   3.587   7.969   3.542 -0.0007 -0.3441  0.7005
19342SOL    HW162482   3.584   7.990   3.449 -1.2229 -2.0136  0.3299
19342SOL    HW262483   3.610   8.052   3.584  0.7889  0.3990 -1.0756
19343SOL     OW62484   4.012   0.678   1.755  0.3252  0.1459  0.2541
19343SOL    HW162485   4.059   0.711   1.678 -0.0864  0.6389  0.2064
19343SOL    HW262486   3.926   0.654   1.720  0.3137 -0.1100  0.4646
19344SOL     OW62487   3.696   0.911   7.910  0.0467 -0.2548  0.1604
19344SOL    HW162488   3.630   0.968   7.870  0.2472 -0.3760 -0.3477
19344SOL    HW262489   3.733   0.861   7.837 -0.1078 -1.0207  0.6015
19345SOL     OW62490   7.482   3.018   3.730 -0.2218  0.6300 -0.4037
19345SOL    HW162491   7.551   2.989   3.790 -0.6022  1.9177  0.7046
19345SOL    HW262492   7.412   3.050   3.788 -1.5630 -0.2020 -1.5045
19346SOL     OW62493   5.108   3.576   1.390  0.1686  0.1782 -0.1882
19346SOL    HW162494   5.140   3.597   1.302  0.4580 -1.8650 -0.6116
19346SOL    HW262495   5.051   3.500   1.377  0.4960 -0.3728  1.4427
19347SOL     OW62496   1.679   4.224   6.362  0.1465 -0.2993 -0.5732
19347SOL    HW162497   1.684   4.317   6.342 -0.2634 -0.5563 -2.0229
19347SOL    HW262498   1.744   4.210   6.431 -0.5154  1.2254  0.4226
19348SOL     OW62499   2.234   3.139   3.641  0.2176  0.0866  0.1094
19348SOL    HW162500   2.155   3.093   3.615  0.6459 -0.7813  0.2989
19348SOL    HW262501   2.292   3.070   3.673  1.0146  0.7163  0.0527
19349SOL     OW62502   2.486   5.633   4.351 -0.4736  0.4101 -0.0976
19349SOL    HW162503   2.457   5.549   4.315 -1.1071  0.1074  1.0993
19349SOL    HW262504   2.522   5.679   4.275  0.9012 -1.3488 -0.6052
19350SOL     OW62505   3.223   5.566   4.410 -0.3145 -0.1858  0.0300
19350SOL    HW162506   3.231   5.606   4.324  0.4046 -0.9199 -0.2580
19350SOL    HW262507   3.128   5.559   4.425 -0.4529 -0.7452 -1.0331
19351SOL     OW62508   7.378   5.345   3.624  0.1980  0.4736 -0.1550
19351SOL    HW162509   7.316   5.285   3.583 -1.1178  1.3602  0.4848
19351SOL    HW262510   7.378   5.423   3.569  0.2550  0.7280  0.1976
19352SOL     OW62511   8.619   6.321   1.298 -0.2861 -0.2228 -0.4294
19352SOL    HW162512   8.589   6.300   1.210 -2.6418  0.4728  0.1250
19352SOL    HW262513   8.542   6.307   1.354  0.8276  0.3952  1.3554
19353SOL     OW62514   5.195   7.286   6.498 -0.3610  0.0708  0.3865
19353SOL    HW162515   5.183   7.378   6.525 -0.4390  0.1457  0.1011
19353SOL    HW262516   5.175   7.286   6.404  0.8076 -0.0153  0.1211
19354SOL     OW62517   8.501   3.171   4.801  0.1143 -0.2812 -0.3521
19354SOL    HW162518   8.581   3.209   4.766 -0.0601 -1.0762 -1.6740
19354SOL    HW262519   8.515   3.168   4.895  1.0363  0.9337 -0.4196
19355SOL     OW62520   4.140   7.837   5.095  0.5060 -0.3967  0.1048
19355SOL    HW162521   4.051   7.805   5.083  0.4892 -1.2859  2.1561
19355SOL    HW262522   4.130   7.931   5.108 -0.1048 -0.4392 -0.0202
19356SOL     OW62523   6.856   1.075   7.132 -0.0410 -0.0338  0.0451
19356SOL    HW162524   6.776   1.128   7.127 -0.0445 -0.1301 -1.4719
19356SOL    HW262525   6.848   1.014   7.059  0.4835 -1.4106  1.1044
19357SOL     OW62526   0.755   5.548   7.863  0.4157  0.3830  0.0916
19357SOL    HW162527   0.683   5.611   7.865  0.5566  0.6072 -1.1543
19357SOL    HW262528   0.712   5.463   7.871 -0.0559  0.4868 -1.1287
19358SOL     OW62529   3.079   8.500   8.429 -0.0427  0.1231  0.3462
19358SOL    HW162530   3.130   8.566   8.382 -1.4358  0.9699 -0.0268
19358SOL    HW262531   3.027   8.457   8.361  1.8755 -2.4123  0.3466
19359SOL     OW62532   7.675   6.048   6.439  0.1221  0.6246  0.1076
19359SOL    HW162533   7.711   6.121   6.387  0.0270  2.1306  2.0492
19359SOL    HW262534   7.648   6.089   6.521 -2.9946 -1.0239  0.0330
19360SOL     OW62535   5.452   5.546   1.222  0.6151  0.0469  0.3245
19360SOL    HW162536   5.425   5.619   1.166 -0.5774 -1.2321 -0.8573
19360SOL    HW262537   5.547   5.545   1.217  0.5646  0.5254 -0.9336
19361SOL     OW62538   2.886   9.978   3.224 -0.0742 -0.3214 -0.2392
19361SOL    HW162539   2.968   9.965   3.177  1.4508  2.0164  1.5456
19361SOL    HW262540   2.819   9.986   3.156  1.9195  2.3752 -2.0721
19362SOL     OW62541   2.688   3.647   3.214 -0.4165  0.3056 -0.0924
19362SOL    HW162542   2.769   3.650   3.163 -0.7191 -1.6738 -0.7769
19362SOL    HW262543   2.662   3.555   3.212 -1.3465  0.4515  2.2581
19363SOL     OW62544   9.331   4.334   4.896  0.0072  0.4898 -0.8096
19363SOL    HW162545   9.405   4.284   4.932  0.1761  1.9824  1.1175
19363SOL    HW262546   9.369   4.418   4.870 -0.9748  1.3833  0.4650
19364SOL     OW62547   3.148   0.553   3.848  0.0753 -0.2609 -0.7495
19364SOL    HW162548   3.179   0.620   3.909  0.4517  0.0337 -1.2585
19364SOL    HW262549   3.145   0.473   3.900 -1.3907  0.3369  0.1559
19365SOL     OW62550   7.626  10.951   8.454 -0.4895  0.4203 -0.0912
19365SOL    HW162551   7.538  10.960   8.417 -0.3158  0.2487 -0.5550
19365SOL    HW262552   7.649  10.859   8.439  0.0977  0.6590 -0.7388
19366SOL     OW62553   8.734   9.228   8.677 -0.1694  0.5249 -0.0059
19366SOL    HW162554   8.757   9.314   8.710  0.5811  0.2946  0.0746
19366SOL    HW262555   8.800   9.208   8.611  1.3464 -1.1523  1.8982
19367SOL     OW62556   4.586   0.378   9.057 -0.0505 -0.2575  0.0356
19367SOL    HW162557   4.633   0.308   9.104  1.1195  0.7207  0.3842
19367SOL    HW262558   4.597   0.455   9.113 -1.3681  0.1999 -0.3143
19368SOL     OW62559   8.778   4.371   0.924  0.5526 -0.2389  0.1057
19368SOL    HW162560   8.848   4.394   0.863  0.2906 -0.7553 -0.4018
19368SOL    HW262561   8.703   4.351   0.868  0.3741 -0.9507  0.5808
19369SOL     OW62562   5.200   8.201   7.902  0.1176 -0.2134  0.3124
19369SOL    HW162563   5.263   8.149   7.953  0.3754  1.9400  2.3606
19369SOL    HW262564   5.255   8.263   7.855 -0.3346 -0.0130  0.0543
19370SOL     OW62565   8.819   4.691   3.801  0.3398 -0.3913  0.7580
19370SOL    HW162566   8.783   4.778   3.786  0.5855 -0.4463 -0.2379
19370SOL    HW262567   8.906   4.707   3.839  0.7795 -0.1673 -0.3137
19371SOL     OW62568   5.327   2.639   2.959 -0.0465  1.0397 -0.6331
19371SOL    HW162569   5.353   2.716   3.010  2.8972  0.3378 -0.9047
19371SOL    HW262570   5.378   2.567   2.995  0.0513 -0.0307 -2.7437
19372SOL     OW62571   2.057   3.638   2.663  0.6629 -0.1640  0.3718
19372SOL    HW162572   2.001   3.715   2.667  0.1405 -0.5547  0.7945
19372SOL    HW262573   2.146   3.673   2.659  0.4657  0.4596  1.1148
19373SOL     OW62574   5.625   7.092   9.289 -0.3808  0.3276 -0.3529
19373SOL    HW162575   5.583   7.065   9.207  1.3978  0.7115 -1.4480
19373SOL    HW262576   5.640   7.010   9.336  0.9063 -0.2127 -1.6132
19374SOL     OW62577   5.062   0.386   2.012 -0.1849  0.4817 -0.2794
19374SOL    HW162578   5.089   0.295   2.006 -0.0923  0.3859  1.1595
19374SOL    HW262579   4.970   0.382   2.037  0.5080  0.6857  2.7087
19375SOL     OW62580   3.111   9.971   4.229  0.0368  0.6110  0.2963
19375SOL    HW162581   3.168   9.895   4.237 -1.6570 -0.6378  1.1592
19375SOL    HW262582   3.171  10.046   4.225  1.7185 -0.6648  0.5889
19376SOL     OW62583   1.386   4.917   4.776  0.0483 -0.3702  0.4150
19376SOL    HW162584   1.391   4.850   4.844 -2.8080 -2.4359 -1.1852
19376SOL    HW262585   1.453   4.893   4.712  0.8767 -0.0514  1.1563
19377SOL     OW62586   1.190   5.876   1.321 -0.0261 -0.0805 -0.0104
19377SOL    HW162587   1.157   5.830   1.243 -1.0856 -0.6749  0.7724
19377SOL    HW262588   1.145   5.960   1.321 -1.0532 -0.6197  0.6850
19378SOL     OW62589  10.575   9.167   6.322 -0.3035 -0.2675 -0.2716
19378SOL    HW162590  10.569   9.072   6.325 -0.8361 -0.2256  0.2885
19378SOL    HW262591  10.632   9.190   6.395 -3.1474  0.0316  2.0420
19379SOL     OW62592   3.687   7.957   7.995 -0.3210  0.6621  0.3044
19379SOL    HW162593   3.725   7.876   7.961  0.0589  1.6353 -1.7478
19379SOL    HW262594   3.705   7.954   8.089  0.8075 -1.0414  0.0871
19380SOL     OW62595   5.221  10.570   5.700  0.0986 -0.0441 -1.0480
19380SOL    HW162596   5.188  10.580   5.610 -0.1430  0.0089 -0.9527
19380SOL    HW262597   5.226  10.659   5.734 -0.4964 -0.1089 -0.7646
19381SOL     OW62598   1.882   7.533   3.561 -0.6034 -0.1317  0.3867
19381SOL    HW162599   1.807   7.516   3.617  0.2183 -0.8983  1.2948
19381SOL    HW262600   1.858   7.496   3.476 -1.7251  0.7417  0.3118
19382SOL     OW62601   9.833   3.890  10.201 -0.0988  0.1483 -0.2504
19382SOL    HW162602   9.788   3.916  10.281  1.2175  2.9852 -0.2790
19382SOL    HW262603   9.896   3.824  10.228  1.6611  2.3935  1.5602
19383SOL     OW62604   8.845   3.714   0.350  0.0990 -0.1332  0.9074
19383SOL    HW162605   8.826   3.777   0.420 -0.0481  0.9775 -0.1072
19383SOL    HW262606   8.777   3.729   0.285  0.2427 -1.1454  0.5006
19384SOL     OW62607   3.783   7.919   3.962 -0.4173  0.3177 -0.8924
19384SOL    HW162608   3.690   7.905   3.943  0.2100 -0.1492 -4.2072
19384SOL    HW262609   3.804   7.856   4.030 -2.2972 -0.2504 -0.7868
19385SOL     OW62610   1.598   8.588   4.637  0.3542 -0.4637 -0.1687
19385SOL    HW162611   1.511   8.554   4.613 -1.6891  3.5730  0.5260
19385SOL    HW262612   1.615   8.553   4.724  0.3612 -2.6946 -0.9946
19386SOL     OW62613   4.848   8.242   0.496  0.2814  0.3784  0.3051
19386SOL    HW162614   4.864   8.336   0.490 -0.5255  0.4434 -2.9378
19386SOL    HW262615   4.859   8.221   0.589  3.2923  3.1117  0.7242
19387SOL     OW62616   2.783   4.595   5.161 -0.0903  0.2471 -0.6186
19387SOL    HW162617   2.709   4.571   5.218 -0.6756 -0.2922 -1.5702
19387SOL    HW262618   2.747   4.661   5.103  0.1943  0.0388 -1.0355
19388SOL     OW62619   2.164   5.626   8.888 -0.3345  0.0079 -0.7409
19388SOL    HW162620   2.108   5.668   8.823 -0.9664  0.4894  0.0934
19388SOL    HW262621   2.169   5.534   8.860 -1.1825  0.0543 -1.0803
19389SOL     OW62622   2.249   8.952   0.752 -0.2659 -0.5548 -0.0295
19389SOL    HW162623   2.158   8.960   0.783 -1.0700  0.2607 -2.4240
19389SOL    HW262624   2.259   9.023   0.689  2.6220  0.4397  1.3821
19390SOL     OW62625   1.746  10.863   8.848 -0.5831 -0.5126 -0.0671
19390SOL    HW162626   1.810  10.931   8.827  0.1892 -1.3457 -0.4969
19390SOL    HW262627   1.782  10.819   8.925 -1.4297 -0.0112  0.6446
19391SOL     OW62628   2.752   3.353  10.126  0.1118  0.0134 -0.2576
19391SOL    HW162629   2.842   3.326  10.105  0.0398 -1.1325  0.7911
19391SOL    HW262630   2.763   3.432  10.179  0.5151 -0.2423  0.0498
19392SOL     OW62631  10.640   3.230   0.196 -0.0120  0.2552 -0.3113
19392SOL    HW162632  10.560   3.223   0.143  0.8334 -0.7214 -1.5306
19392SOL    HW262633  10.683   3.145   0.186  1.6084  1.0462 -0.4226
19393SOL     OW62634   8.730  10.637   5.043  0.2971  0.4877  0.2365
19393SOL    HW162635   8.674  10.586   5.102  1.1181  0.8886  1.4099
19393SOL    HW262636   8.680  10.644   4.962 -1.2944  0.7134  1.1929
19394SOL     OW62637   5.393   5.042   3.405 -0.1703 -0.1005 -0.5054
19394SOL    HW162638   5.455   5.115   3.416 -0.2304 -0.0737 -0.3305
19394SOL    HW262639   5.408   4.987   3.482 -0.0086 -0.3618 -0.7213
19395SOL     OW62640   6.192   7.120   4.145 -0.4472  0.6193  0.0002
19395SOL    HW162641   6.240   7.041   4.172 -1.2865  0.9421  2.7399
19395SOL    HW262642   6.189   7.174   4.224 -2.5464  2.0127 -0.9581
19396SOL     OW62643   6.406   4.997   2.542  0.1553 -0.0060  0.1658
19396SOL    HW162644   6.395   5.091   2.555 -2.5337 -0.3578  1.0327
19396SOL    HW262645   6.327   4.958   2.579 -0.1690 -2.4140 -2.6599
19397SOL     OW62646   9.440   4.192   3.425  0.0447  0.0549  0.0832
19397SOL    HW162647   9.440   4.115   3.367  0.4215  0.4802 -0.4931
19397SOL    HW262648   9.383   4.255   3.380  1.4927  0.9406 -0.5856
19398SOL     OW62649   2.816   1.059   1.526  0.0467  0.2923  0.5433
19398SOL    HW162650   2.878   0.989   1.508  0.1674  0.8434 -1.4111
19398SOL    HW262651   2.868   1.139   1.521 -0.2464  0.5949  1.9647
19399SOL     OW62652   2.242  10.809   0.597  0.1863  0.2047 -0.0272
19399SOL    HW162653   2.218  10.893   0.556  0.2701  0.3475  0.2161
19399SOL    HW262654   2.316  10.831   0.654 -0.5750  0.1873  0.9779
19400SOL     OW62655   9.027   3.714   3.702  0.1902 -0.0144 -0.0359
19400SOL    HW162656   8.942   3.672   3.716 -0.2248  0.4646 -1.0496
19400SOL    HW262657   9.056   3.740   3.790  0.3994 -2.2564  0.6248
19401SOL     OW62658   2.751   6.691   3.846  0.1555  0.3011  0.4534
19401SOL    HW162659   2.719   6.634   3.916  0.4194  0.6792  0.8890
19401SOL    HW262660   2.704   6.662   3.768 -1.3702  0.9175  1.0871
19402SOL     OW62661   9.987   4.665   4.991 -0.4862 -0.0129  0.3518
19402SOL    HW162662   9.973   4.593   5.053 -0.1469  0.5956  1.1501
19402SOL    HW262663   9.903   4.712   4.991 -0.5390 -0.1055  0.2205
19403SOL     OW62664   2.966   3.184   7.330 -0.4008  0.1351  0.2630
19403SOL    HW162665   2.927   3.101   7.303  0.4481 -0.4955  0.9120
19403SOL    HW262666   2.907   3.251   7.296 -0.3841 -0.6742 -1.4854
19404SOL     OW62667   5.027   5.087   0.594  0.8722  0.4975 -0.5256
19404SOL    HW162668   5.029   5.056   0.684  0.2965  1.3683 -0.1976
19404SOL    HW262669   5.089   5.160   0.592  0.6059  0.7206 -0.7391
19405SOL     OW62670   7.986   8.783   3.590 -0.1451 -0.3813  0.1179
19405SOL    HW162671   8.054   8.846   3.612  0.5734 -0.4701 -1.7127
19405SOL    HW262672   8.030   8.698   3.592 -0.0112 -0.3905 -1.6013
19406SOL     OW62673   3.049   9.339   8.041 -0.1114 -0.2101 -1.0393
19406SOL    HW162674   3.090   9.416   8.004  0.7306  0.4785  1.1652
19406SOL    HW262675   3.080   9.336   8.132 -1.9039 -1.8524 -0.3955
19407SOL     OW62676   0.507  10.877   7.077 -0.0644 -0.0957 -1.0023
19407SOL    HW162677   0.436  10.817   7.101 -0.2526  0.4501 -0.1770
19407SOL    HW262678   0.573  10.864   7.145  0.6519 -0.6082 -1.7723
19408SOL     OW62679   9.987   8.530   3.643  0.1184 -0.2370 -0.2094
19408SOL    HW162680  10.072   8.500   3.610  1.4754  3.3512 -0.4074
19408SOL    HW262681   9.955   8.590   3.575 -2.0819 -0.5911  0.4122
19409SOL     OW62682   8.480   6.587   5.326 -0.9904  0.5368  0.2660
19409SOL    HW162683   8.467   6.682   5.327 -0.4379  0.6433 -0.9187
19409SOL    HW262684   8.458   6.559   5.415 -0.2944  1.8935  0.9052
19410SOL     OW62685   5.738   1.615   1.532  0.4844 -0.0968 -0.2464
19410SOL    HW162686   5.807   1.658   1.584 -1.5892  2.9223  0.2833
19410SOL    HW262687   5.667   1.602   1.594 -0.1238 -1.3911 -1.2001
19411SOL     OW62688   8.650   1.855   1.262  0.2150 -0.7515  0.3903
19411SOL    HW162689   8.639   1.788   1.329  1.0449 -1.1152  0.1731
19411SOL    HW262690   8.723   1.824   1.208  0.5062  0.2299  0.1862
19412SOL     OW62691   4.639   3.457   1.186 -0.1213 -0.5602  0.0263
19412SOL    HW162692   4.688   3.398   1.129  2.1483  1.6930 -0.5526
19412SOL    HW262693   4.547   3.437   1.167  0.5389 -2.8418 -1.1857
19413SOL     OW62694   7.854   1.647   2.029  0.3698 -0.1727 -0.3487
19413SOL    HW162695   7.828   1.737   2.051  2.6252  0.3776  0.3213
19413SOL    HW262696   7.864   1.603   2.113  1.2089 -0.4474 -0.5797
19414SOL     OW62697   5.519   1.167   9.984 -0.1202  0.0160 -0.0155
19414SOL    HW162698   5.474   1.161  10.068 -0.7271 -0.3066 -0.3585
19414SOL    HW262699   5.457   1.211   9.927  0.3228  0.3017 -0.2762
19415SOL     OW62700  10.523   3.831   4.617 -0.1236 -0.0974 -0.6106
19415SOL    HW162701  10.524   3.769   4.690  1.4516  0.6122  0.0158
19415SOL    HW262702  10.590   3.896   4.640 -0.8582  1.1359 -1.8470
19416SOL     OW62703   0.645   8.807   3.046  0.1465 -0.0471  0.2874
19416SOL    HW162704   0.582   8.792   3.117  0.3206 -1.1669  0.2298
19416SOL    HW262705   0.716   8.745   3.064  1.1138  0.9898  0.1942
19417SOL     OW62706   6.920   0.613   4.985 -0.0913 -0.5052  0.4250
19417SOL    HW162707   6.990   0.624   5.049  0.3784 -0.5496 -0.0736
19417SOL    HW262708   6.851   0.565   5.032  0.4947 -1.0751  0.7175
19418SOL     OW62709   8.276   2.318   5.508  0.6126  0.1097 -0.0683
19418SOL    HW162710   8.352   2.372   5.529 -0.9052  2.2589  0.1953
19418SOL    HW262711   8.216   2.333   5.580 -1.9548  2.2696 -2.4210
19419SOL     OW62712   9.831   9.335   3.235 -0.0271  0.2233  0.1013
19419SOL    HW162713   9.869   9.296   3.157 -1.0633  0.8056 -0.7258
19419SOL    HW262714   9.905   9.348   3.295  0.7987 -0.1295 -0.8252
19420SOL     OW62715   7.935  10.814   6.569 -0.5202  0.1714  0.4413
19420SOL    HW162716   7.901  10.887   6.516  1.2565 -0.0639 -1.1132
19420SOL    HW262717   8.001  10.855   6.626 -0.3535 -0.0369  0.3986
19421SOL     OW62718   0.621   4.288  10.580  0.5716  0.1924 -0.2109
19421SOL    HW162719   0.640   4.205  10.536  0.7454 -0.9159  1.8332
19421SOL    HW262720   0.530   4.279  10.608 -0.0096  1.4936 -1.5323
19422SOL     OW62721   7.169   6.169  10.669 -0.4812  0.7213 -0.1994
19422SOL    HW162722   7.246   6.112  10.671 -0.5286  0.6774  1.0874
19422SOL    HW262723   7.167   6.203  10.580  0.3850 -0.1469 -0.5710
19423SOL     OW62724   1.431   0.481   6.167 -0.3924 -0.1142  0.2305
19423SOL    HW162725   1.393   0.532   6.239 -1.2579  0.4895 -0.6219
19423SOL    HW262726   1.438   0.543   6.095  1.3020 -0.4812  0.0356
19424SOL     OW62727   6.296   3.406  10.170  0.1660  0.1379  0.4976
19424SOL    HW162728   6.253   3.440  10.249  0.0656  0.5314  0.2789
19424SOL    HW262729   6.266   3.465  10.100  0.0339 -0.3804  0.1177
19425SOL     OW62730   9.120   0.394   0.336 -0.2334  0.1761 -0.2894
19425SOL    HW162731   9.183   0.322   0.330  0.0196  0.2972  0.7749
19425SOL    HW262732   9.174   0.471   0.353 -0.7637 -0.0835  3.2864
19426SOL     OW62733  10.077   4.661   9.109 -0.0026  0.3563 -0.1218
19426SOL    HW162734  10.076   4.606   9.030  0.2092  2.2978 -1.5715
19426SOL    HW262735  10.143   4.622   9.165 -0.5787 -1.4395 -0.6173
19427SOL     OW62736   5.109   4.808   6.509  0.2463 -0.0225 -0.4196
19427SOL    HW162737   5.032   4.864   6.498  0.9207  0.6920 -1.7372
19427SOL    HW262738   5.180   4.869   6.529  0.5765 -0.6331  0.3013
19428SOL     OW62739   1.268   2.685   8.918  0.4472  0.0678 -0.3188
19428SOL    HW162740   1.214   2.661   8.842  1.6553 -0.9257 -0.9093
19428SOL    HW262741   1.243   2.621   8.985 -0.2605  0.6310 -0.0348
19429SOL     OW62742   0.818  10.179   5.128  0.2949  0.4131  0.0525
19429SOL    HW162743   0.891  10.125   5.097  0.4648  0.6763 -0.0114
19429SOL    HW262744   0.805  10.244   5.059 -1.3469 -0.8695 -0.9062
19430SOL     OW62745   0.497   7.835  10.480 -0.2309  0.2585  0.1366
19430SOL    HW162746   0.583   7.861  10.447  0.0257 -2.1880 -1.3343
19430SOL    HW262747   0.436   7.897  10.439  0.5446  0.0167 -1.4876
19431SOL     OW62748   3.028   8.584   8.676 -0.7530  0.2130 -0.0964
19431SOL    HW162749   3.048   8.535   8.596  1.5279  0.1570  0.4347
19431SOL    HW262750   3.015   8.517   8.743  1.3411  0.2395  0.4037
19432SOL     OW62751   3.542   2.659  10.270 -0.1975  0.0573  0.4929
19432SOL    HW162752   3.515   2.619  10.352 -0.1994 -0.0390  0.4455
19432SOL    HW262753   3.540   2.753  10.287  0.3469  0.0213  0.7758
19433SOL     OW62754   7.403   0.636   6.333 -0.3416  0.4764  0.7474
19433SOL    HW162755   7.345   0.711   6.337 -1.1398  0.0090 -0.9422
19433SOL    HW262756   7.443   0.641   6.246 -0.9532 -1.3962  0.2924
19434SOL     OW62757   3.147   6.120   6.323 -0.0619 -0.5636  0.3091
19434SOL    HW162758   3.190   6.146   6.241 -2.3413 -3.2447 -1.9630
19434SOL    HW262759   3.188   6.037   6.347 -0.6122 -0.6672  0.9132
19435SOL     OW62760   5.957   1.577   7.954 -0.3576  0.0047 -0.6976
19435SOL    HW162761   5.919   1.612   7.874  0.5941  2.2413 -0.2476
19435SOL    HW262762   5.900   1.608   8.024 -0.5810 -1.0240 -0.4076
19436SOL     OW62763   2.047  10.819   6.914 -0.1501 -0.3269 -0.2479
19436SOL    HW162764   2.113  10.803   6.847 -0.0697  0.3498 -0.3325
19436SOL    HW262765   1.964  10.810   6.867 -0.1333 -1.2179 -0.1325
19437SOL     OW62766   8.421   5.818   8.061 -0.1972  0.7477  0.4075
19437SOL    HW162767   8.517   5.820   8.056 -0.2025  0.0931 -0.2398
19437SOL    HW262768   8.400   5.866   8.140  0.7018  0.3573  0.9028
19438SOL     OW62769   0.810   6.439   6.116  0.9969 -0.0163  0.4085
19438SOL    HW162770   0.774   6.514   6.163  0.0837  0.1748 -0.5395
19438SOL    HW262771   0.864   6.393   6.180  0.7620  0.8969  1.2788
19439SOL     OW62772   2.961   7.675   8.628 -0.2179 -0.2857 -0.5032
19439SOL    HW162773   2.973   7.607   8.562 -1.6637  1.7042 -2.9728
19439SOL    HW262774   2.866   7.676   8.644 -0.1359  0.7192 -0.0267
19440SOL     OW62775  10.290   5.564   9.424  0.5163  0.2375  0.0824
19440SOL    HW162776  10.206   5.539   9.463  1.1731  0.6667  1.8794
19440SOL    HW262777  10.266   5.618   9.348 -0.8331  0.8315  0.8910
19441SOL     OW62778   8.334   1.807   3.398 -0.3740 -0.0150 -0.1149
19441SOL    HW162779   8.267   1.769   3.455 -0.6260  0.5122 -0.0559
19441SOL    HW262780   8.299   1.892   3.372 -0.4127 -0.3906 -1.3438
19442SOL     OW62781   2.158   0.838   3.448 -0.1950 -0.7359  0.3192
19442SOL    HW162782   2.158   0.919   3.396  1.3738 -0.8171  0.1302
19442SOL    HW262783   2.204   0.861   3.529 -0.7615 -1.1509  0.7675
19443SOL     OW62784   7.836   6.630   8.714 -0.8503 -0.1009 -0.2004
19443SOL    HW162785   7.825   6.536   8.727 -0.3281  0.0046  1.2278
19443SOL    HW262786   7.802   6.669   8.795  2.0514  0.7044  0.7713
19444SOL     OW62787   9.765  10.910   9.696  0.3977 -0.2081  0.1079
19444SOL    HW162788   9.812  10.827   9.687 -1.2093 -1.0120 -1.4367
19444SOL    HW262789   9.768  10.949   9.610 -0.2832  0.5412  0.4150
19445SOL     OW62790   5.706   5.931   7.813 -0.0147  0.2725  0.2607
19445SOL    HW162791   5.703   5.884   7.730  1.3820 -1.0905  0.9230
19445SOL    HW262792   5.791   5.975   7.814  0.7162 -1.0577  1.5949
19446SOL     OW62793   6.636   3.478   2.852 -0.0581  0.1436 -0.1102
19446SOL    HW162794   6.573   3.466   2.781 -0.2835 -0.7231  0.2264
19446SOL    HW262795   6.684   3.395   2.856  0.1271  0.2804  0.5865
19447SOL     OW62796   2.349  11.020   4.403 -0.1597 -0.1516 -0.0543
19447SOL    HW162797   2.336  11.114   4.386  1.6108 -0.2018 -1.9556
19447SOL    HW262798   2.260  10.984   4.402 -0.8114  1.3558 -0.1643
19448SOL     OW62799   5.871   5.107   5.474 -0.0412 -0.4651 -0.2305
19448SOL    HW162800   5.920   5.077   5.550  1.9318  3.9054  0.5131
19448SOL    HW262801   5.895   5.045   5.405  1.8599 -1.8748  1.5590
19449SOL     OW62802   0.059   8.044   0.793  0.3058 -0.3556  0.5933
19449SOL    HW162803  -0.020   8.091   0.819 -0.0020 -0.5573  0.0421
19449SOL    HW262804   0.131   8.097   0.826 -0.0437  0.2689  0.3619
19450SOL     OW62805   6.913   6.015   7.872  0.0350  0.0401 -0.4821
19450SOL    HW162806   6.990   6.002   7.927  1.2482  1.2303 -1.8213
19450SOL    HW262807   6.944   6.003   7.783 -1.6172 -0.6251 -1.0087
19451SOL     OW62808   2.731   5.943   2.676  0.2188 -0.8645 -0.0271
19451SOL    HW162809   2.771   5.892   2.605  0.7270  1.3265 -1.4186
19451SOL    HW262810   2.637   5.942   2.656  0.0643 -2.2792  0.6903
19452SOL     OW62811   6.224  10.891   8.647 -0.2897 -0.0066  0.0789
19452SOL    HW162812   6.220  10.856   8.558  0.2863 -0.7224  0.3212
19452SOL    HW262813   6.150  10.850   8.692 -1.4868  1.4867 -0.4300
19453SOL     OW62814   3.942   2.967   8.034  0.2149 -0.1192  0.1457
19453SOL    HW162815   3.964   3.032   7.967  0.0753  1.8539  1.9096
19453SOL    HW262816   4.027   2.931   8.060  0.2889 -0.7299 -0.9002
19454SOL     OW62817  10.400   1.883   8.220 -0.4456 -0.1580 -0.1322
19454SOL    HW162818  10.456   1.838   8.156 -0.6737 -1.1875  0.3589
19454SOL    HW262819  10.311   1.866   8.189 -0.5131  0.6417 -0.3767
19455SOL     OW62820   2.143   7.978   7.717 -0.0980  0.0440 -0.7525
19455SOL    HW162821   2.142   7.883   7.722  1.2623  0.0768  1.3659
19455SOL    HW262822   2.199   7.998   7.642  0.1559 -0.8286 -0.8005
19456SOL     OW62823   0.311   6.068  10.035 -0.4581  0.1142  0.4119
19456SOL    HW162824   0.340   5.995   9.982  1.2988  0.8262  0.3453
19456SOL    HW262825   0.227   6.039  10.071 -1.5002 -0.5919 -2.3106
19457SOL     OW62826  10.961   1.924   8.040 -0.4558  0.1464  0.2278
19457SOL    HW162827  11.049   1.946   8.071  0.0283 -1.1920 -0.1106
19457SOL    HW262828  10.903   1.950   8.112  0.1763  1.2203  0.3735
19458SOL     OW62829   9.659   7.635   1.559 -0.0211 -0.2247 -0.0352
19458SOL    HW162830   9.631   7.673   1.642 -0.5266 -1.5100  0.4035
19458SOL    HW262831   9.750   7.665   1.548  0.0464 -0.0333  0.9594
19459SOL     OW62832   3.045   7.796   9.401  0.1754 -0.1926 -0.1101
19459SOL    HW162833   3.058   7.884   9.365 -0.7032  0.2890  0.7058
19459SOL    HW262834   3.025   7.742   9.325  0.4420  0.3716 -0.5879
19460SOL     OW62835   1.672   5.330   1.611  0.4268  0.2186  0.3110
19460SOL    HW162836   1.603   5.377   1.565  2.7296  0.9342 -2.7529
19460SOL    HW262837   1.705   5.393   1.675  0.0393  0.8469 -0.0918
19461SOL     OW62838   0.957   2.435   8.742 -0.7096 -0.4122 -0.3119
19461SOL    HW162839   0.900   2.465   8.813  0.1471 -2.6279  1.4329
19461SOL    HW262840   0.970   2.512   8.687 -3.6334  0.7011  0.3819
19462SOL     OW62841   7.503   5.888   6.055  0.3427  0.3562  0.3014
19462SOL    HW162842   7.593   5.920   6.059  1.0752 -1.6491  1.2808
19462SOL    HW262843   7.499   5.838   5.973 -0.3398  1.5812 -0.4517
19463SOL     OW62844   8.515   5.749   9.172 -0.0854  0.4603 -0.3900
19463SOL    HW162845   8.520   5.836   9.134  1.1248  0.3073 -0.5986
19463SOL    HW262846   8.466   5.698   9.108 -0.5940  0.9147 -0.3735
19464SOL     OW62847   8.140  10.662   6.864  0.3093  0.4755 -0.2925
19464SOL    HW162848   8.117  10.754   6.850  0.6840  0.5548 -0.3894
19464SOL    HW262849   8.067  10.627   6.916  0.3305  0.9141  0.0412
19465SOL     OW62850   1.608   0.311   1.511  0.2152  0.0029 -0.4069
19465SOL    HW162851   1.612   0.321   1.416  2.7642 -0.2014 -0.3861
19465SOL    HW262852   1.634   0.397   1.545  0.6600 -0.3245  0.0821
19466SOL     OW62853   4.519   6.492   6.537 -0.6161 -0.2669 -0.2317
19466SOL    HW162854   4.429   6.488   6.506 -0.9495 -1.8153  0.8313
19466SOL    HW262855   4.570   6.511   6.459 -1.9210  1.7673 -0.6806
19467SOL     OW62856   4.018   7.512   5.500 -0.2593  0.1527  0.4008
19467SOL    HW162857   3.936   7.543   5.539  0.1146 -0.9816  2.1774
19467SOL    HW262858   4.067   7.593   5.482 -0.6806  0.7516  1.8016
19468SOL     OW62859   6.726   1.721   6.516  0.2486 -0.3965 -0.2415
19468SOL    HW162860   6.818   1.699   6.534  1.0371  1.1917 -1.9821
19468SOL    HW262861   6.726   1.754   6.426 -1.7152  1.3359  0.3067
19469SOL     OW62862   5.074  10.640   9.856 -0.5902 -0.6997 -0.6476
19469SOL    HW162863   5.148  10.701   9.851 -0.5698 -0.7031 -0.4178
19469SOL    HW262864   5.011  10.685   9.913  0.0044 -1.4936  0.6758
19470SOL     OW62865   9.665   8.665   3.819  0.0826 -0.6395  0.0748
19470SOL    HW162866   9.610   8.653   3.742  0.9012  0.4184 -0.7115
19470SOL    HW262867   9.733   8.598   3.811  1.5655  0.9409 -1.4632
19471SOL     OW62868   4.166   0.000  10.666 -0.1788  0.1501 -0.1275
19471SOL    HW162869   4.101  -0.004  10.596  1.2145  0.3273 -1.4790
19471SOL    HW262870   4.248  -0.026  10.625  0.8232  0.9188  1.2750
19472SOL     OW62871  10.738   1.329   2.390 -0.6448 -0.0279  0.2614
19472SOL    HW162872  10.651   1.355   2.360 -1.0501 -0.7888  0.7354
19472SOL    HW262873  10.726   1.308   2.483  0.0781  0.0162  0.3691
19473SOL     OW62874  11.016   1.367  10.966  0.0771 -0.5016 -0.0242
19473SOL    HW162875  11.015   1.452  10.922 -0.8712  0.0031  0.9260
19473SOL    HW262876  11.064   1.309  10.906 -1.3167  0.1057 -1.8199
19474SOL     OW62877   3.016   4.885   9.554  0.6120 -0.1665  0.1025
19474SOL    HW162878   3.060   4.814   9.601  1.0733 -0.2755 -0.4871
19474SOL    HW262879   2.971   4.843   9.482 -1.1442 -0.1539  1.1377
19475SOL     OW62880  10.525   3.791   1.280  0.2710 -0.3848 -0.0828
19475SOL    HW162881  10.543   3.775   1.188  0.3933  1.5899 -0.4301
19475SOL    HW262882  10.610   3.779   1.323  0.5407  0.1816 -0.4503
19476SOL     OW62883   4.705   8.745   1.446  0.3773  0.0861  0.2344
19476SOL    HW162884   4.707   8.827   1.496  2.5943 -0.8360  1.8330
19476SOL    HW262885   4.644   8.689   1.493  0.6310  0.0418  0.5122
19477SOL     OW62886   4.069   6.194   6.369  0.4699  0.2522  0.2068
19477SOL    HW162887   4.146   6.184   6.424  0.3377 -0.5827  0.2468
19477SOL    HW262888   4.036   6.105   6.355 -0.5895  0.5988  0.3421
19478SOL     OW62889   2.316   5.491   4.938  0.2995  0.7156  0.4362
19478SOL    HW162890   2.287   5.448   5.018 -0.1856  2.7565  1.4206
19478SOL    HW262891   2.357   5.421   4.887 -0.2394 -0.8356  2.0238
19479SOL     OW62892   6.015   0.216   9.504  0.0302  0.9038  0.5326
19479SOL    HW162893   5.996   0.209   9.410  1.2598  2.1841  0.1372
19479SOL    HW262894   5.930   0.215   9.546 -0.6439  1.7558 -0.7359
19480SOL     OW62895   8.283   2.272   2.774 -0.3157 -0.1445  0.1702
19480SOL    HW162896   8.310   2.336   2.839 -0.5719  1.5961 -1.3463
19480SOL    HW262897   8.191   2.256   2.792 -0.9119  1.8122 -0.8628
19481SOL     OW62898  10.285   4.316   9.324 -0.1621 -0.3360  0.2655
19481SOL    HW162899  10.292   4.256   9.398 -1.1253 -0.9602 -0.1301
19481SOL    HW262900  10.372   4.316   9.284 -0.3081 -1.9363 -0.0845
19482SOL     OW62901   4.410   8.169   7.207  0.5985  0.4644  0.0093
19482SOL    HW162902   4.465   8.102   7.166 -1.7663 -0.4970 -1.8817
19482SOL    HW262903   4.361   8.121   7.274 -0.5891  0.3867 -0.8723
19483SOL     OW62904  10.406   3.758   0.654  0.1225  0.3038  0.0807
19483SOL    HW162905  10.410   3.828   0.719 -1.0356  1.4015 -0.9891
19483SOL    HW262906  10.492   3.759   0.612 -0.2569  1.9470 -0.7488
19484SOL     OW62907   2.841  10.080   4.677 -0.3393 -0.3351 -0.1938
19484SOL    HW162908   2.750  10.054   4.689 -0.5143 -0.8607 -2.3426
19484SOL    HW262909   2.892  10.004   4.707 -0.6375 -0.5221 -0.1581
19485SOL     OW62910   2.802   5.789   2.897 -0.0151  0.4506 -0.8207
19485SOL    HW162911   2.893   5.774   2.870 -0.1142 -0.2271 -0.8158
19485SOL    HW262912   2.781   5.877   2.866  1.0079  1.0795  0.2049
19486SOL     OW62913   9.589   8.447   1.311 -0.2984 -0.5102  0.0053
19486SOL    HW162914   9.613   8.483   1.226 -1.6646 -0.2030 -0.2864
19486SOL    HW262915   9.640   8.367   1.319  0.0022 -0.4345 -1.0191
19487SOL     OW62916  10.086   1.641  10.497  0.6389  0.1190 -0.1840
19487SOL    HW162917  10.156   1.629  10.561 -0.2997 -0.4001  0.7967
19487SOL    HW262918  10.037   1.717  10.528  0.2640 -0.0428 -0.3634
19488SOL     OW62919   5.862   1.287   4.504  0.1626 -0.3814  0.3076
19488SOL    HW162920   5.854   1.376   4.539 -0.7243 -0.9106  1.5454
19488SOL    HW262921   5.796   1.282   4.435 -0.4554 -0.3721  0.8944
19489SOL     OW62922   0.469  10.463   1.227 -0.0029 -0.4185 -0.0735
19489SOL    HW162923   0.512  10.463   1.312 -0.7660  1.5651  0.3539
19489SOL    HW262924   0.513  10.533   1.178 -0.9713 -0.1137 -0.5393
19490SOL     OW62925   6.264   0.904  10.638  0.0149 -0.0522 -0.2502
19490SOL    HW162926   6.203   0.852  10.586 -0.8372  0.1144  0.5558
19490SOL    HW262927   6.208   0.962  10.690  0.9263  2.1842 -1.5934
19491SOL     OW62928   0.436   2.702   8.146 -0.1387  0.0217 -0.0020
19491SOL    HW162929   0.511   2.755   8.173 -0.3669  0.6839 -0.6314
19491SOL    HW262930   0.370   2.716   8.214  0.1247 -0.1661  0.2927
19492SOL     OW62931   6.994  10.585   3.166 -0.3885  0.4203  0.2698
19492SOL    HW162932   6.970  10.593   3.258 -1.3787 -1.0725  0.1646
19492SOL    HW262933   7.041  10.667   3.146  0.1509  0.6172  2.1724
19493SOL     OW62934   5.250   6.083   5.547 -0.1211  0.2222 -0.3065
19493SOL    HW162935   5.297   6.096   5.465  0.1294  1.0212 -0.0388
19493SOL    HW262936   5.290   6.145   5.609 -1.1858  0.5669  0.0605
19494SOL     OW62937   2.437   0.519  10.072  0.1977 -0.4924 -0.0623
19494SOL    HW162938   2.365   0.540  10.130 -0.0753 -1.0417 -0.1991
19494SOL    HW262939   2.396   0.500   9.988  0.4273 -1.5308  0.0455
19495SOL     OW62940   1.753   9.288   9.267 -0.6267 -0.5246 -0.4988
19495SOL    HW162941   1.777   9.341   9.343 -2.6900 -0.0783 -0.0892
19495SOL    HW262942   1.781   9.199   9.289 -0.2619 -0.2106  0.3282
19496SOL     OW62943  10.190   1.672  10.786  0.2892  0.7946 -0.2601
19496SOL    HW162944  10.121   1.729  10.821  0.1080  0.1816  0.4323
19496SOL    HW262945  10.272   1.716  10.809  0.1434  1.2831 -0.6517
19497SOL     OW62946   2.650   9.744   3.313  0.2957 -0.1108 -0.1447
19497SOL    HW162947   2.702   9.822   3.333  2.1655 -1.8690  2.6215
19497SOL    HW262948   2.583   9.741   3.380 -0.7511 -0.1305 -1.1562
19498SOL     OW62949   5.711   4.267   8.207  0.1644  0.6673  0.3741
19498SOL    HW162950   5.622   4.275   8.242 -1.1666 -2.0784 -2.0229
19498SOL    HW262951   5.750   4.197   8.258 -0.0712 -0.0100 -0.3507
19499SOL     OW62952   9.385  10.928   7.100  0.1849  0.0852  0.0254
19499SOL    HW162953   9.471  10.892   7.078  0.6726  1.1866  0.0935
19499SOL    HW262954   9.404  11.001   7.159 -0.8924 -0.7358  1.4861
19500SOL     OW62955   3.346   7.119   3.806 -0.1128  0.1263 -0.3792
19500SOL    HW162956   3.394   7.165   3.738  0.7752 -1.7102 -1.0712
19500SOL    HW262957   3.282   7.065   3.759 -0.8389  0.3147  0.3671
19501SOL     OW62958   7.921   1.056  10.327 -0.2095 -0.3318 -0.0554
19501SOL    HW162959   7.943   1.128  10.267 -0.4953  0.5893  0.9154
19501SOL    HW262960   7.827   1.042  10.315 -1.4136  2.9836  3.2911
19502SOL     OW62961   1.631   2.295   6.187  0.5457 -0.3910 -0.6482
19502SOL    HW162962   1.726   2.306   6.179  0.5892 -0.2122  0.0334
19502SOL    HW262963   1.600   2.378   6.223  0.1936 -0.6068 -0.4426
19503SOL     OW62964  10.065   4.073   8.480  0.0377  0.1279  0.1408
19503SOL    HW162965  10.145   4.122   8.502  1.6062 -0.5614 -3.3287
19503SOL    HW262966  10.008   4.138   8.438 -0.7236  0.3225  1.4219
19504SOL     OW62967   7.339   0.999   5.172  0.3433 -0.1782  0.0405
19504SOL    HW162968   7.428   1.027   5.151  0.6859 -0.4402  1.0581
19504SOL    HW262969   7.296   1.078   5.204  0.2992 -0.1136 -0.1779
19505SOL     OW62970   5.758   6.011   8.191  0.1659 -0.6524 -0.1308
19505SOL    HW162971   5.837   5.959   8.175 -0.5284 -1.4653 -1.0971
19505SOL    HW262972   5.790   6.097   8.217  1.4225 -0.4906 -2.0071
19506SOL     OW62973   5.840   2.289  10.055  0.2051  0.5878  0.1862
19506SOL    HW162974   5.825   2.279   9.961 -0.4453  0.9428  0.2467
19506SOL    HW262975   5.911   2.229  10.074  0.0336  0.1710 -0.4545
19507SOL     OW62976   6.255   0.608   0.613  0.1018 -0.2038  0.1986
19507SOL    HW162977   6.239   0.554   0.535  0.6615  1.2846 -1.0025
19507SOL    HW262978   6.225   0.695   0.588 -0.3743  0.1703  1.9375
19508SOL     OW62979   4.356   0.895   7.736  0.2249 -0.1103  0.7877
19508SOL    HW162980   4.436   0.903   7.685 -1.2071  3.5110 -1.3560
19508SOL    HW262981   4.307   0.825   7.693  1.1409 -0.5333  0.4123
19509SOL     OW62982   4.581   0.624   5.586 -0.2298  0.0428 -0.3294
19509SOL    HW162983   4.514   0.681   5.548  0.0830  0.3679 -0.3960
19509SOL    HW262984   4.548   0.535   5.571 -0.1563  0.1665 -1.2832
19510SOL     OW62985  11.012   0.615   5.412 -0.1165 -0.1704  0.0028
19510SOL    HW162986  11.066   0.555   5.361 -1.0973 -0.6886 -0.4653
19510SOL    HW262987  10.935   0.563   5.436 -1.1804  0.9926 -0.7542
19511SOL     OW62988   7.938   6.342   9.992  0.1111 -0.0046  0.0063
19511SOL    HW162989   7.868   6.282   9.968 -1.2009  1.5992 -0.3963
19511SOL    HW262990   7.903   6.390  10.067  0.2101  1.6926 -0.9792
19512SOL     OW62991   7.328   8.691  10.535  0.3205  0.0753  0.0959
19512SOL    HW162992   7.394   8.736  10.481  2.4125 -1.5560  1.1143
19512SOL    HW262993   7.275   8.643  10.472  1.4172 -0.1819 -0.6742
19513SOL     OW62994   5.424   2.847   3.526 -0.1168 -0.1223  0.1645
19513SOL    HW162995   5.367   2.782   3.484  0.1672  0.6884 -1.5700
19513SOL    HW262996   5.380   2.868   3.608 -1.0544 -1.2971 -0.0070
19514SOL     OW62997   7.884   5.739  10.465 -0.5808  0.2310 -0.9404
19514SOL    HW162998   7.910   5.675  10.531 -0.6914  0.9746 -0.1569
19514SOL    HW262999   7.960   5.745  10.406 -0.3537 -0.1902 -0.6980
19515SOL     OW63000   7.925  10.899   7.957  0.2527  0.3413 -0.1918
19515SOL    HW163001   7.935  10.841   7.882  1.3537  1.5140 -0.9862
19515SOL    HW263002   8.005  10.887   8.008 -0.1218  0.1743  0.3745
19516SOL     OW63003   1.254   1.067   6.943 -0.2361 -0.5486  0.1707
19516SOL    HW163004   1.328   1.091   6.999 -0.1444  0.9768 -0.5551
19516SOL    HW263005   1.288   1.073   6.854 -1.2382  0.2366 -0.1754
19517SOL     OW63006   7.437   2.349   8.473 -0.0214  0.4354 -0.0313
19517SOL    HW163007   7.431   2.370   8.566 -0.5465  0.1902 -0.0049
19517SOL    HW263008   7.354   2.381   8.436  0.7019  1.6846 -0.6550
19518SOL     OW63009   0.629   0.914   1.779  0.5499 -0.2887 -0.3233
19518SOL    HW163010   0.670   0.828   1.786  0.9577 -0.2426 -1.8135
19518SOL    HW263011   0.596   0.917   1.690 -0.6568  0.5953  0.1299
19519SOL     OW63012  10.123   8.992   0.991 -0.1029  0.1511 -0.0355
19519SOL    HW163013  10.120   9.077   0.947 -1.9917  0.3146  0.3240
19519SOL    HW263014  10.037   8.984   1.032  0.1226 -1.8544  0.1150
19520SOL     OW63015   1.721   4.434   4.775  0.1200 -0.2080 -0.2624
19520SOL    HW163016   1.761   4.443   4.688  0.8314  1.6401  0.2200
19520SOL    HW263017   1.634   4.400   4.757  0.2285  0.1956 -1.7239
19521SOL     OW63018   6.321   8.757   1.400 -0.2761  0.0646  0.4470
19521SOL    HW163019   6.416   8.742   1.402  0.1452  2.1562 -1.0552
19521SOL    HW263020   6.294   8.752   1.492  1.5495  0.9699  1.0759
19522SOL     OW63021   0.776   5.692   0.674  0.1765 -0.8443 -0.2074
19522SOL    HW163022   0.850   5.743   0.708 -1.3299  1.3037  0.0088
19522SOL    HW263023   0.767   5.620   0.737  0.6371  0.1866  1.0868
19523SOL     OW63024   5.883   7.332   5.805 -0.1108  0.1482 -0.8773
19523SOL    HW163025   5.969   7.291   5.818 -0.3692  0.2538  1.6421
19523SOL    HW263026   5.821   7.262   5.825 -0.5558  0.9105  0.5993
19524SOL     OW63027   5.612   5.680   5.988 -0.1970 -0.4214  0.3535
19524SOL    HW163028   5.590   5.766   5.951  2.4723 -0.2196 -1.0953
19524SOL    HW263029   5.570   5.678   6.073 -2.3666  1.2884 -0.5846
19525SOL     OW63030   8.155   7.599   4.799  0.7195  0.1672 -0.1027
19525SOL    HW163031   8.125   7.509   4.809  1.0055 -0.0256 -0.9388
19525SOL    HW263032   8.230   7.606   4.858 -0.9834  0.6991  2.1360
19526SOL     OW63033   7.278   9.615   9.660 -0.1525 -0.1794 -0.3509
19526SOL    HW163034   7.310   9.704   9.676  1.4052 -0.5763 -0.9812
19526SOL    HW263035   7.185   9.625   9.639 -0.0322  1.2788 -0.2499
19527SOL     OW63036   6.729   8.521   2.223 -0.0950  0.1399  0.4463
19527SOL    HW163037   6.694   8.444   2.268 -1.1038 -0.5115 -1.3354
19527SOL    HW263038   6.722   8.591   2.287  1.4835 -1.3439  2.3601
19528SOL     OW63039   1.542   7.352   1.111 -0.2333 -0.0568 -0.3949
19528SOL    HW163040   1.459   7.383   1.075 -0.3424  0.9716  0.6915
19528SOL    HW263041   1.521   7.267   1.150 -0.6208 -0.1216 -0.7362
19529SOL     OW63042   8.355   8.541   1.426 -0.2360 -0.1631  0.5665
19529SOL    HW163043   8.302   8.595   1.484  0.1110 -0.2494  0.9712
19529SOL    HW263044   8.436   8.526   1.475  0.2257  0.0985 -0.1011
19530SOL     OW63045   4.965   0.357   0.904 -0.6577  0.1161  0.5157
19530SOL    HW163046   4.920   0.366   0.820 -1.6577  1.8229  1.1780
19530SOL    HW263047   5.042   0.303   0.884 -1.1283  0.0468 -1.3701
19531SOL     OW63048   7.057   3.286  10.694  0.5163  0.9856  0.0513
19531SOL    HW163049   7.151   3.285  10.708  0.5039 -0.1576  0.1352
19531SOL    HW263050   7.019   3.260  10.779  0.0860  2.1454  0.2326
19532SOL     OW63051   4.472   9.805   5.367  0.0312 -0.1874  0.2523
19532SOL    HW163052   4.491   9.769   5.454  2.4223  0.5715  0.1160
19532SOL    HW263053   4.470   9.729   5.309  3.8283 -0.4072  0.1603
19533SOL     OW63054   8.736   7.711   9.581  0.1587  0.3992 -0.4955
19533SOL    HW163055   8.824   7.685   9.555 -0.5800  0.2010 -3.0979
19533SOL    HW263056   8.692   7.628   9.602 -0.1301  0.1909 -1.8121
19534SOL     OW63057   0.328   4.878  11.037  0.3767  0.1773  0.7559
19534SOL    HW163058   0.291   4.874  10.948  0.5215  0.6419  0.6730
19534SOL    HW263059   0.390   4.805  11.039  0.5598  0.3175  0.3889
19535SOL     OW63060   7.559   6.523   8.934 -0.0028  0.1636 -0.0147
19535SOL    HW163061   7.591   6.491   9.019 -1.5486 -0.6332  0.3194
19535SOL    HW263062   7.467   6.543   8.950 -0.4967 -0.6114 -1.6638
19536SOL     OW63063   5.187   3.727   5.495  0.0229 -0.0067  0.5575
19536SOL    HW163064   5.123   3.672   5.449  0.8189 -0.1534 -0.4198
19536SOL    HW263065   5.188   3.809   5.445 -0.2253  0.4383  1.2581
19537SOL     OW63066   2.624   5.639   9.597 -0.5532  0.3003 -0.4758
19537SOL    HW163067   2.575   5.564   9.631  1.1371 -1.2745 -1.3107
19537SOL    HW263068   2.611   5.708   9.663 -2.0700 -0.7397  0.3803
19538SOL     OW63069   1.776   4.113   4.837 -0.5066  0.5054  0.1409
19538SOL    HW163070   1.795   4.031   4.790  1.5687  1.1154 -0.1976
19538SOL    HW263071   1.697   4.147   4.795 -0.5456 -0.5903 -0.7196
19539SOL     OW63072   6.041   0.947   6.692  0.4809  0.7506  0.2086
19539SOL    HW163073   6.135   0.965   6.703  1.1769 -1.5897 -1.1590
19539SOL    HW263074   6.020   0.985   6.606  0.4223  0.4236  0.0781
19540SOL     OW63075   6.963   6.715   8.438  0.6663 -0.5598 -0.2711
19540SOL    HW163076   6.937   6.648   8.375  0.8048  0.4088 -1.3930
19540SOL    HW263077   7.044   6.752   8.402  1.3847 -0.7359  1.0571
19541SOL     OW63078  10.935   5.581   8.051  0.1426  0.4155 -0.6611
19541SOL    HW163079  10.855   5.565   8.101 -0.5011  1.1056 -1.4394
19541SOL    HW263080  10.972   5.661   8.089 -0.8348  1.4602 -1.8523
19542SOL     OW63081   9.021   3.565   5.076 -0.1403 -0.6319  0.1662
19542SOL    HW163082   9.085   3.574   5.005  0.8017 -0.6664  0.9947
19542SOL    HW263083   8.941   3.539   5.031  0.6680 -1.5874 -0.8101
19543SOL     OW63084  10.445   5.492   7.717  0.2484  0.3521  0.4559
19543SOL    HW163085  10.422   5.402   7.696 -2.1723  0.5931  1.6718
19543SOL    HW263086  10.426   5.541   7.637 -2.9711  0.3789  1.1005
19544SOL     OW63087   7.120   4.355   8.794 -0.3139  0.1582  0.0838
19544SOL    HW163088   7.121   4.392   8.705 -0.0513  1.0579  0.4509
19544SOL    HW263089   7.198   4.301   8.798  0.0661  0.6940  0.0022
19545SOL     OW63090   7.208   3.882   7.715 -0.3148  0.2938  0.8479
19545SOL    HW163091   7.117   3.913   7.711 -0.4696 -0.2744 -0.9629
19545SOL    HW263092   7.200   3.791   7.741 -0.6389 -0.8211 -2.6024
19546SOL     OW63093   7.890   5.861   2.694  0.0909 -0.2983 -0.0664
19546SOL    HW163094   7.913   5.870   2.601  1.1445 -1.7747  0.0100
19546SOL    HW263095   7.921   5.942   2.734 -2.0399  1.1943 -1.2614
19547SOL     OW63096   1.590   1.158   5.338  0.6273 -0.0183  0.1041
19547SOL    HW163097   1.672   1.201   5.361  1.3559 -0.8206 -0.8767
19547SOL    HW263098   1.553   1.212   5.268  0.3085  0.3430  0.5456
19548SOL     OW63099   4.423   9.513   4.068  0.4656 -0.2635 -0.2863
19548SOL    HW163100   4.511   9.537   4.096  0.1380  0.0598  0.5156
19548SOL    HW263101   4.415   9.547   3.979  0.9077  0.3238 -0.1048
19549SOL     OW63102   0.546   2.622   0.371  0.1601  0.4654 -0.3444
19549SOL    HW163103   0.531   2.528   0.359  1.4912 -0.1029  1.8064
19549SOL    HW263104   0.508   2.663   0.293 -1.1286 -1.7804 -0.9900
19550SOL     OW63105   7.167   1.556   6.770 -0.0518  0.6466 -0.7996
19550SOL    HW163106   7.180   1.650   6.784 -0.5712  0.7956 -1.2908
19550SOL    HW263107   7.098   1.551   6.704 -0.7803 -0.0831 -0.0172
19551SOL     OW63108   9.660   1.764   8.362 -0.0221  0.3539  0.1438
19551SOL    HW163109   9.745   1.739   8.398  0.3413  1.3298 -0.0035
19551SOL    HW263110   9.652   1.714   8.280 -1.2536 -2.5860  1.9018
19552SOL     OW63111   0.728   9.201  11.027  0.6688 -0.2163  0.1651
19552SOL    HW163112   0.784   9.200  11.105  2.1451  0.1281 -0.8451
19552SOL    HW263113   0.697   9.291  11.021 -0.8948 -0.6359  1.3003
19553SOL     OW63114   4.858  10.705   8.927  0.3097 -0.9706 -0.1252
19553SOL    HW163115   4.811  10.762   8.988  0.7540  0.8492 -1.3798
19553SOL    HW263116   4.951  10.719   8.949  0.4153 -1.3831 -0.3005
19554SOL     OW63117   4.727   5.508   4.111  0.5471 -0.1869  0.5130
19554SOL    HW163118   4.719   5.577   4.177  1.6410 -0.0415  0.5051
19554SOL    HW263119   4.794   5.540   4.051  0.1736 -0.7057 -0.1929
19555SOL     OW63120   7.105   3.674   1.202 -0.1609  0.3403 -0.0418
19555SOL    HW163121   7.036   3.608   1.192 -1.9202  1.5472  2.7662
19555SOL    HW263122   7.185   3.624   1.215 -1.2662 -1.2593  0.9156
19556SOL     OW63123  11.019   6.961   1.547  0.2351 -0.1376 -0.1133
19556SOL    HW163124  10.959   6.969   1.474 -0.6633  0.3231  0.6505
19556SOL    HW263125  11.051   7.050   1.562  0.2645 -0.1944  0.1703
19557SOL     OW63126   6.742   1.396  10.171  0.4057 -0.3608  0.0295
19557SOL    HW163127   6.704   1.470  10.219 -0.0561  0.2623 -1.2226
19557SOL    HW263128   6.831   1.390  10.203 -0.1215 -0.5053  1.5404
19558SOL     OW63129   3.819   0.251   4.468 -0.2763  0.1628 -0.2399
19558SOL    HW163130   3.809   0.287   4.556  0.4095 -0.7555  0.2232
19558SOL    HW263131   3.747   0.290   4.418 -0.0105  1.5663  0.4275
19559SOL     OW63132   1.100   4.011   6.251 -0.1810  0.3900 -0.3806
19559SOL    HW163133   1.058   3.945   6.197 -0.8831 -0.4687  1.1310
19559SOL    HW263134   1.154   3.961   6.312 -0.5495  1.1981  0.6508
19560SOL     OW63135   6.123   6.813   1.404 -0.3760 -0.0995 -0.1081
19560SOL    HW163136   6.134   6.718   1.407 -1.3605 -0.2052  2.1952
19560SOL    HW263137   6.209   6.848   1.424 -0.3638 -0.5595  0.6968
19561SOL     OW63138   4.224   9.487   8.369  0.1116  0.1787  0.3663
19561SOL    HW163139   4.234   9.577   8.337  3.3593 -0.3262 -0.4617
19561SOL    HW263140   4.192   9.438   8.293  2.3798 -0.0060 -0.5658
19562SOL     OW63141   3.526   1.337   4.539  0.1593  0.0313 -0.3098
19562SOL    HW163142   3.612   1.372   4.564  0.2660 -0.5362  0.1277
19562SOL    HW263143   3.479   1.413   4.504 -0.4824  1.2240  2.8400
19563SOL     OW63144   2.020   9.015   0.283 -0.1896 -0.0471 -0.1413
19563SOL    HW163145   2.062   9.094   0.316 -2.1877  0.6829  0.8102
19563SOL    HW263146   2.025   9.024   0.188 -0.1582  1.0923 -0.0456
19564SOL     OW63147   2.198   4.882  10.887 -0.4694 -0.1625  0.4860
19564SOL    HW163148   2.278   4.902  10.935  0.6179 -0.7184 -1.0055
19564SOL    HW263149   2.207   4.931  10.805 -1.0882 -1.1558 -0.2035
19565SOL     OW63150   0.816   2.391  10.307  0.7091 -0.1049 -0.7999
19565SOL    HW163151   0.722   2.375  10.316  0.4318  1.4628 -0.6840
19565SOL    HW263152   0.856   2.304  10.314 -0.5592 -0.5885  1.4255
19566SOL     OW63153  10.719   6.184   2.499 -0.3101 -0.4238  0.1601
19566SOL    HW163154  10.721   6.276   2.472  1.4553 -0.3334  0.5058
19566SOL    HW263155  10.708   6.136   2.417 -1.9111  0.0769  0.0334
19567SOL     OW63156   6.813   8.245   5.226  0.1640  0.1918 -0.0227
19567SOL    HW163157   6.875   8.183   5.263  1.9657  0.9906 -1.5131
19567SOL    HW263158   6.769   8.283   5.301  2.7481  0.8353  1.2790
19568SOL     OW63159   6.874   6.534  10.102 -0.4030 -0.0893 -0.1591
19568SOL    HW163160   6.875   6.540  10.007  0.6874 -0.6066 -0.1972
19568SOL    HW263161   6.928   6.607  10.132 -0.2395 -0.2861  0.0329
19569SOL     OW63162   8.442   4.871   8.295 -0.2528  0.4490  0.1442
19569SOL    HW163163   8.438   4.965   8.316  0.4733  0.5895 -0.3388
19569SOL    HW263164   8.535   4.851   8.290 -0.2970 -0.8762  2.7240
19570SOL     OW63165   3.526   0.486   3.029  0.9116 -0.6018 -0.0482
19570SOL    HW163166   3.621   0.493   3.022  1.1690 -0.3060  2.8309
19570SOL    HW263167   3.509   0.392   3.026  1.3166 -0.6732 -0.2336
19571SOL     OW63168   2.827  10.498   5.752  0.6441  0.3661  0.5774
19571SOL    HW163169   2.864  10.524   5.836  0.1659  0.7734  0.6641
19571SOL    HW263170   2.799  10.580   5.712  0.8119  0.1668  0.0427
19572SOL     OW63171   1.743   9.420   9.655 -0.3649  0.1931  0.0295
19572SOL    HW163172   1.782   9.469   9.728 -1.8137  3.1272 -0.9954
19572SOL    HW263173   1.664   9.382   9.693  0.1921 -0.4617  0.5698
19573SOL     OW63174   8.828   1.643   1.166  0.0674 -0.2096 -0.1890
19573SOL    HW163175   8.793   1.558   1.194  0.5573  0.1917  1.8290
19573SOL    HW263176   8.813   1.645   1.072  0.4304 -2.7161 -0.3728
19574SOL     OW63177   1.523   4.620   4.302 -0.6831  0.4215  0.5622
19574SOL    HW163178   1.509   4.681   4.375  0.6087  2.6296 -0.9173
19574SOL    HW263179   1.459   4.646   4.236  1.1664  1.6652 -0.8812
19575SOL     OW63180   6.554  10.506   6.242  0.4212  0.3365  0.0257
19575SOL    HW163181   6.614  10.432   6.243 -0.1174 -0.1221 -0.5219
19575SOL    HW263182   6.564  10.547   6.328 -0.0672 -1.0151  0.7587
19576SOL     OW63183   5.038   9.191   3.620 -0.2363 -0.0065  0.1712
19576SOL    HW163184   4.965   9.233   3.666 -0.1473  2.6459 -1.8464
19576SOL    HW263185   5.098   9.164   3.689 -0.5540  2.8483  1.7041
19577SOL     OW63186   4.671   3.275   3.365  0.3699  0.2127  0.0854
19577SOL    HW163187   4.585   3.270   3.409  0.7095 -1.5708  0.6203
19577SOL    HW263188   4.669   3.360   3.320 -1.4316  0.4957  0.5810
19578SOL     OW63189   8.685   8.428   4.741 -0.5986 -0.2304  0.3626
19578SOL    HW163190   8.657   8.474   4.662 -3.2168 -0.4142  1.0678
19578SOL    HW263191   8.693   8.497   4.807 -0.0241 -0.2741  0.3448
19579SOL     OW63192   7.408   6.629   9.245 -0.6166 -0.1581 -0.2421
19579SOL    HW163193   7.417   6.713   9.291 -2.6783  0.5692 -1.0362
19579SOL    HW263194   7.489   6.620   9.195  1.6783 -0.9288  3.2711
19580SOL     OW63195  10.561   3.050   8.889 -0.9187 -0.1239 -0.6003
19580SOL    HW163196  10.639   3.069   8.941 -1.0636  0.5454 -0.6284
19580SOL    HW263197  10.511   2.988   8.942  0.5621 -2.1578 -1.4030
19581SOL     OW63198   8.073   9.752   0.925 -0.3918 -0.1149 -0.1693
19581SOL    HW163199   8.119   9.826   0.965 -0.9604 -0.0281  0.3218
19581SOL    HW263200   8.001   9.733   0.984  0.0300 -1.3836 -0.0362
19582SOL     OW63201   8.323   8.715   4.016  0.3993  0.3873  0.2928
19582SOL    HW163202   8.399   8.697   4.072  1.2143  1.2172 -0.5112
19582SOL    HW263203   8.326   8.809   4.001 -1.2410  0.5558  0.8492
19583SOL     OW63204   2.482  10.925   7.794 -0.0545 -0.4784  0.5597
19583SOL    HW163205   2.509  10.862   7.861 -1.0465 -0.1947  1.2642
19583SOL    HW263206   2.530  10.899   7.715  2.9697  0.5778  1.9000
19584SOL     OW63207   7.148   8.284   6.974  0.2719 -0.3728  0.0415
19584SOL    HW163208   7.121   8.197   7.004 -0.4595  0.4393  1.9561
19584SOL    HW263209   7.243   8.278   6.964  0.1065 -1.6689 -0.9548
19585SOL     OW63210   6.458   3.381   1.520  0.5216  0.3561 -0.2807
19585SOL    HW163211   6.478   3.287   1.523 -0.6986  0.0812 -0.0124
19585SOL    HW263212   6.424   3.395   1.432 -2.0806 -0.1145  0.5515
19586SOL     OW63213   5.931   6.367   6.695 -0.2658  0.3463  0.3485
19586SOL    HW163214   5.887   6.332   6.772 -0.5815 -1.1582 -0.4884
19586SOL    HW263215   6.024   6.353   6.713 -0.2573  1.0894  0.9505
19587SOL     OW63216   6.181   6.750   3.629  0.1933 -0.1340  0.6657
19587SOL    HW163217   6.179   6.679   3.565 -0.4546  0.6138 -0.1705
19587SOL    HW263218   6.241   6.815   3.592 -1.4555  1.0505 -0.0532
19588SOL     OW63219   7.018   9.453   3.661  0.4599  0.4855  0.2186
19588SOL    HW163220   6.979   9.505   3.731 -2.2011  1.3403 -1.7644
19588SOL    HW263221   7.108   9.486   3.654 -0.1528  2.5233  1.2114
19589SOL     OW63222   7.115   4.007   0.499  0.0499  0.2551 -0.2141
19589SOL    HW163223   7.057   3.931   0.497  1.0160 -0.4864 -0.7868
19589SOL    HW263224   7.119   4.037   0.408  1.4073 -0.3866 -0.3985
19590SOL     OW63225  10.789   9.338   7.457  0.1660  0.4475 -0.6727
19590SOL    HW163226  10.836   9.377   7.383 -0.0515  1.2184 -0.4092
19590SOL    HW263227  10.697   9.352   7.437  0.0329 -0.9947 -1.1468
19591SOL     OW63228   3.708   4.832   6.932  0.1135  0.5890 -0.1388
19591SOL    HW163229   3.658   4.898   6.885 -1.2533 -0.2591  0.0567
19591SOL    HW263230   3.669   4.831   7.020  0.4659 -0.0993  0.0164
19592SOL     OW63231   8.254   6.816   2.263 -0.1810  0.2674 -0.0935
19592SOL    HW163232   8.328   6.758   2.243 -0.6987 -0.6598  0.6180
19592SOL    HW263233   8.177   6.762   2.250 -0.7823  1.3057 -1.0965
19593SOL     OW63234  10.588  10.256   6.268  0.3950 -0.6022 -0.5050
19593SOL    HW163235  10.529  10.185   6.291 -0.0500  0.1464  0.7510
19593SOL    HW263236  10.582  10.262   6.172 -0.1188 -1.7508 -0.5569
19594SOL     OW63237  10.183   3.911   1.160 -0.1898 -0.3857  0.0501
19594SOL    HW163238  10.119   3.963   1.111 -1.5531 -1.4159  0.6693
19594SOL    HW263239  10.153   3.915   1.251 -0.6829 -2.6949  0.0400
19595SOL     OW63240   9.502   1.044   2.947  0.3122 -0.3059  0.3079
19595SOL    HW163241   9.420   1.017   2.991 -0.4806  0.3845 -0.7031
19595SOL    HW263242   9.506   1.138   2.961  0.7186 -0.2773 -0.0181
19596SOL     OW63243   0.941  10.000   0.015  0.4769 -0.0556 -0.0646
19596SOL    HW163244   0.982   9.964   0.094 -0.4779 -0.6327  0.1874
19596SOL    HW263245   0.926  10.092   0.036  1.2353  0.0657 -0.0064
19597SOL     OW63246   0.291   1.826   1.824  0.6251 -0.1047  0.5350
19597SOL    HW163247   0.203   1.861   1.815  1.1699  1.1231 -0.2461
19597SOL    HW263248   0.299   1.805   1.918 -0.4131 -0.0414  0.6423
19598SOL     OW63249   5.504   7.660   6.849  0.0268 -0.2674 -0.1238
19598SOL    HW163250   5.568   7.590   6.861  0.1494 -0.2342 -0.5451
19598SOL    HW263251   5.461   7.669   6.934 -1.6569 -2.4687 -0.6431
19599SOL     OW63252   3.085   7.802   5.004  0.3640  0.3024  0.6568
19599SOL    HW163253   3.150   7.818   4.934 -0.8667  0.2764 -0.5287
19599SOL    HW263254   3.064   7.890   5.036 -1.1341  0.5793 -0.9683
19600SOL     OW63255   1.864  10.909   3.247 -0.0530  0.6991  0.0304
19600SOL    HW163256   1.833  10.933   3.334 -2.3708 -0.0996 -0.5216
19600SOL    HW263257   1.803  10.842   3.217  1.6397 -0.1915 -1.5910
19601SOL     OW63258   7.094   8.613   0.429  0.6998  0.0285 -0.1017
19601SOL    HW163259   7.019   8.576   0.383 -0.6913  2.4847  0.0760
19601SOL    HW263260   7.081   8.587   0.521 -0.3187  0.9896  0.0396
19602SOL     OW63261   3.428   0.217   0.465  0.0198  0.0069 -0.3289
19602SOL    HW163262   3.340   0.197   0.433 -0.1320  0.3148 -0.1028
19602SOL    HW263263   3.414   0.256   0.551  0.3094  1.1733 -0.8043
19603SOL     OW63264   3.806   2.905   8.566 -0.2008 -0.3130 -0.3933
19603SOL    HW163265   3.715   2.883   8.549 -0.6537  1.0545  0.1047
19603SOL    HW263266   3.818   2.888   8.660  0.3680 -1.4445 -0.6490
19604SOL     OW63267   2.432   2.225   0.727 -0.9786 -0.1879 -0.2373
19604SOL    HW163268   2.386   2.303   0.696 -3.1270 -0.8783  1.0004
19604SOL    HW263269   2.485   2.197   0.652 -1.3013  1.5900 -1.1802
19605SOL     OW63270   4.704   9.395   6.246 -0.0189 -0.4966  0.1036
19605SOL    HW163271   4.742   9.473   6.288 -1.3196  0.1907  0.0877
19605SOL    HW263272   4.695   9.420   6.154 -2.4783  0.2467  0.4683
19606SOL     OW63273   2.754   4.983   1.680  0.2073 -0.7015 -0.4871
19606SOL    HW163274   2.818   4.916   1.658 -0.7935 -1.3234 -1.6796
19606SOL    HW263275   2.670   4.945   1.652 -0.5091  0.6149 -0.1883
19607SOL     OW63276   4.612   2.144   1.766 -0.0932  0.2451  0.0852
19607SOL    HW163277   4.561   2.063   1.762  0.7128 -0.3207  0.7316
19607SOL    HW263278   4.696   2.121   1.727  0.7929  0.2194  1.8977
19608SOL     OW63279   8.792  10.347   1.224 -0.1495 -0.1401  0.2829
19608SOL    HW163280   8.792  10.363   1.318 -1.3260 -0.3395  0.3421
19608SOL    HW263281   8.857  10.407   1.189  1.7773 -1.4730  1.4124
19609SOL     OW63282  10.264   7.274   4.237  0.2708 -0.0312 -0.1194
19609SOL    HW163283  10.274   7.211   4.309 -1.0400  2.3546  2.3184
19609SOL    HW263284  10.334   7.252   4.176  0.7876 -2.8512  1.3336
19610SOL     OW63285   7.665   2.249   4.907  0.4907  0.2373 -0.4549
19610SOL    HW163286   7.743   2.303   4.912  0.9045 -0.4249  0.7876
19610SOL    HW263287   7.600   2.303   4.863  2.0163  0.3222 -2.7314
19611SOL     OW63288   5.160   3.464   0.281 -0.1401 -0.0229  0.3243
19611SOL    HW163289   5.215   3.469   0.202 -2.5199  0.8818 -1.3914
19611SOL    HW263290   5.147   3.555   0.307 -0.5927 -0.2390  0.8639
19612SOL     OW63291  10.872   8.586   7.639  0.5199  0.0886  0.1907
19612SOL    HW163292  10.803   8.540   7.688  0.7989  0.8991  1.3980
19612SOL    HW263293  10.872   8.544   7.553  0.3222 -1.7297  1.0180
19613SOL     OW63294   3.509   3.441  10.860  0.4796  0.4076 -0.2547
19613SOL    HW163295   3.552   3.370  10.908 -0.1217  0.7827  0.8716
19613SOL    HW263296   3.564   3.518  10.876 -0.2776  0.7596  0.7039
19614SOL     OW63297   6.276   9.996   9.004 -0.0092 -0.9709 -0.6473
19614SOL    HW163298   6.354  10.051   8.998  0.0945 -1.2256 -1.8137
19614SOL    HW263299   6.271   9.973   9.097  0.2825  0.5021 -0.2335
19615SOL     OW63300   1.648   1.498   4.197 -0.4079  1.0866  0.1312
19615SOL    HW163301   1.656   1.557   4.272 -0.9163  2.0591 -0.5554
19615SOL    HW263302   1.733   1.504   4.153  0.6741 -1.0987  1.7227
19616SOL     OW63303   6.390   1.432   0.976 -0.1993 -0.1556 -0.1585
19616SOL    HW163304   6.481   1.419   0.949 -0.1646  2.2416 -1.4897
19616SOL    HW263305   6.345   1.458   0.895 -1.6031  0.7139  0.8524
19617SOL     OW63306   4.801  10.414   2.504  0.0818 -0.4199 -0.0834
19617SOL    HW163307   4.717  10.388   2.541  0.1222  0.5906  0.7487
19617SOL    HW263308   4.778  10.453   2.419 -0.2449 -0.5069 -0.0370
19618SOL     OW63309  10.625   9.719   0.110 -0.1396  0.4268 -0.4181
19618SOL    HW163310  10.623   9.625   0.095  0.4871  0.1288  1.1524
19618SOL    HW263311  10.535   9.748   0.094 -0.0473 -0.1696 -2.2602
19619SOL     OW63312   8.630   9.634   6.031 -0.3875 -0.0150  0.1366
19619SOL    HW163313   8.649   9.629   6.124  1.1053  0.5509 -0.1095
19619SOL    HW263314   8.653   9.724   6.006 -0.0599 -0.3689 -0.9059
19620SOL     OW63315   0.111   6.622   9.571  0.0313  0.0485  0.3739
19620SOL    HW163316   0.099   6.582   9.484 -0.6460  1.0574 -0.0197
19620SOL    HW263317   0.204   6.610   9.590  0.0554 -0.8051 -0.1721
19621SOL     OW63318   3.442   0.297   2.597 -0.3555  0.6503  0.0799
19621SOL    HW163319   3.365   0.353   2.598  0.0926  1.2851 -0.2521
19621SOL    HW263320   3.408   0.209   2.613 -1.0729  1.0019  0.5592
19622SOL     OW63321   2.751   6.586   6.347 -0.2313 -0.3037  0.3744
19622SOL    HW163322   2.810   6.587   6.423 -0.9492  0.5528  0.9426
19622SOL    HW263323   2.800   6.632   6.279  0.1496 -0.4809  0.5215
19623SOL     OW63324   0.092   7.931   2.177  0.6736  0.3711 -0.4680
19623SOL    HW163325   0.115   7.861   2.239  0.5856  0.7648  0.0200
19623SOL    HW263326   0.135   7.906   2.096 -2.4844 -2.2882 -1.5190
19624SOL     OW63327   5.240   0.225   6.636  0.0841 -0.3410  0.0327
19624SOL    HW163328   5.163   0.236   6.581  1.0467 -0.7487 -1.4505
19624SOL    HW263329   5.269   0.314   6.655 -0.3979 -0.1951  0.0834
19625SOL     OW63330   5.890   4.826   4.599  0.0850  0.4136 -0.1305
19625SOL    HW163331   5.894   4.812   4.694 -2.6622  0.0484  0.0012
19625SOL    HW263332   5.964   4.775   4.565 -0.6987 -2.0794  1.5947
19626SOL     OW63333   4.932   1.203   6.838  0.9154  0.0903  0.3557
19626SOL    HW163334   5.010   1.151   6.817  0.7545 -0.2811  0.6530
19626SOL    HW263335   4.888   1.215   6.754 -0.4497 -2.5605  0.5739
19627SOL     OW63336   9.301   4.537  10.411 -0.2496  0.1711 -0.0063
19627SOL    HW163337   9.249   4.504  10.484 -1.5274  1.8598 -0.0991
19627SOL    HW263338   9.244   4.529  10.335  1.6835 -3.2927 -1.3384
19628SOL     OW63339   7.557   5.831   2.558 -0.3023  0.1828  0.3041
19628SOL    HW163340   7.634   5.814   2.502 -1.5817 -3.0057 -0.7247
19628SOL    HW263341   7.594   5.864   2.640  2.0444  0.0799 -0.6258
19629SOL     OW63342   5.061   0.012   5.433 -0.3324  0.2965  0.2920
19629SOL    HW163343   5.152  -0.017   5.437  0.1783  1.7737  0.0300
19629SOL    HW263344   5.016  -0.056   5.384  0.4115 -0.9427  1.2749
19630SOL     OW63345   7.260   6.514   2.755 -0.2231 -0.2623  0.8219
19630SOL    HW163346   7.238   6.514   2.848 -3.2647  0.0859  0.2074
19630SOL    HW263347   7.239   6.602   2.725 -1.0115 -0.8675 -0.5202
19631SOL     OW63348   0.344   2.649   0.150  0.3234  0.1841  0.4597
19631SOL    HW163349   0.250   2.628   0.156 -0.6777  2.5517 -3.1469
19631SOL    HW263350   0.348   2.742   0.171  1.7449  0.2619 -0.0819
19632SOL     OW63351   4.686   5.775   6.227 -0.5453 -0.0779  0.0230
19632SOL    HW163352   4.708   5.718   6.300  1.6444  0.8526  0.1760
19632SOL    HW263353   4.715   5.727   6.149 -1.0562 -0.2276 -0.0808
19633SOL     OW63354   9.632   1.675   1.682 -0.1072 -0.5909  0.0083
19633SOL    HW163355   9.540   1.652   1.669 -0.3464 -0.3148  1.0970
19633SOL    HW263356   9.657   1.630   1.762  0.8480 -1.0254 -0.5210
19634SOL     OW63357  10.153   7.001   5.384 -0.3130 -0.1304  0.1053
19634SOL    HW163358  10.105   7.022   5.464  1.6113 -0.9249  1.5259
19634SOL    HW263359  10.185   7.086   5.353  1.3011 -0.0678  1.7862
19635SOL     OW63360   7.929   2.924   8.271 -0.5473 -0.2616  0.1377
19635SOL    HW163361   7.979   2.870   8.209 -2.0641 -1.5771  0.0056
19635SOL    HW263362   7.860   2.963   8.217 -2.3636 -2.0313  1.0402
19636SOL     OW63363   5.512   3.399   8.622 -0.1675 -0.2126  0.7500
19636SOL    HW163364   5.565   3.477   8.610 -0.2418  0.4126  3.8514
19636SOL    HW263365   5.423   3.427   8.600 -0.2772  0.7815  2.3319
19637SOL     OW63366   2.379   0.343   1.604 -0.2088 -0.8227  0.2943
19637SOL    HW163367   2.401   0.249   1.607  1.0307 -0.6266 -1.2751
19637SOL    HW263368   2.431   0.381   1.675  1.2563 -0.9973 -0.6488
19638SOL     OW63369   6.562  10.877   7.600 -0.1981 -0.0258 -0.0580
19638SOL    HW163370   6.549  10.962   7.557 -1.5308  1.0788  2.3192
19638SOL    HW263371   6.475  10.838   7.603  0.5109 -1.9162 -1.7911
19639SOL     OW63372   0.778   3.745   1.629 -0.0434  0.4673  0.2537
19639SOL    HW163373   0.702   3.708   1.675 -0.2123  0.7768  0.2242
19639SOL    HW263374   0.824   3.669   1.594 -0.6814  0.3134 -0.2585
19640SOL     OW63375   4.038   4.596  10.440  0.4615  0.2362  0.4808
19640SOL    HW163376   4.005   4.575  10.353  1.1508  0.5375  0.1346
19640SOL    HW263377   4.060   4.512  10.479 -2.5146 -0.1625  1.4936
19641SOL     OW63378   5.191   4.533   5.945  0.3176 -0.2941  0.2123
19641SOL    HW163379   5.158   4.608   5.994  3.6497  2.4926 -1.3694
19641SOL    HW263380   5.228   4.475   6.011 -1.9299 -0.4035  1.4405
19642SOL     OW63381   9.904   0.130   4.829  0.1954  0.0108  0.4628
19642SOL    HW163382   9.854   0.208   4.852  0.7287  0.1829  1.0507
19642SOL    HW263383   9.916   0.083   4.912  2.0778  0.6039  0.5670
19643SOL     OW63384  11.035   4.645  10.642 -0.0548  0.1516 -0.3056
19643SOL    HW163385  11.065   4.725  10.599  1.7069  0.7018  1.7283
19643SOL    HW263386  11.007   4.588  10.571 -0.3543  2.1731 -1.8949
19644SOL     OW63387   9.284   3.349   6.156 -0.2236 -0.6095 -1.1328
19644SOL    HW163388   9.190   3.335   6.141 -0.9065  2.2445 -0.2466
19644SOL    HW263389   9.317   3.265   6.185 -2.6471 -1.5496 -0.8830
19645SOL     OW63390  10.768  10.038   5.714  0.8590 -0.2479  0.0184
19645SOL    HW163391  10.749  10.076   5.628  1.4268 -1.0490 -0.4784
19645SOL    HW263392  10.686   9.997   5.741  0.2745  1.1818  0.5077
19646SOL     OW63393   9.591   6.500   1.129 -0.6469  0.2314  0.0976
19646SOL    HW163394   9.649   6.452   1.069  2.2137  2.6315  0.6989
19646SOL    HW263395   9.576   6.584   1.085 -4.8510 -0.6544 -0.5623
19647SOL     OW63396   2.515   2.048   2.648 -0.0137 -0.0585  0.0411
19647SOL    HW163397   2.586   1.987   2.669  1.3925  1.1461 -0.9310
19647SOL    HW263398   2.491   2.086   2.732 -1.0278 -2.0045  0.6863
19648SOL     OW63399   2.205   5.191   9.677 -0.7093  0.3258  0.5727
19648SOL    HW163400   2.136   5.241   9.633  0.6976  0.2597 -1.8815
19648SOL    HW263401   2.215   5.113   9.623  0.4936 -0.2294  1.5649
19649SOL     OW63402   6.840   1.028   5.130 -0.3493  0.0796  0.4133
19649SOL    HW163403   6.888   1.025   5.213 -0.5706  0.9240  0.5786
19649SOL    HW263404   6.795   1.112   5.131 -1.7650 -0.6398  0.2281
19650SOL     OW63405   0.298   0.308  10.265  0.7463  1.0858  0.0848
19650SOL    HW163406   0.346   0.247  10.322  1.2707  0.5434 -0.9135
19650SOL    HW263407   0.207   0.301  10.293  0.6479 -0.8280 -0.5734
19651SOL     OW63408   5.156   1.079   2.850  0.4418  0.4297  0.0196
19651SOL    HW163409   5.137   1.023   2.925 -1.0290  1.1858  0.2454
19651SOL    HW263410   5.072   1.088   2.804  1.0408  0.9994 -1.0148
19652SOL     OW63411   1.130   5.727   4.806  0.0832  0.2813 -0.2404
19652SOL    HW163412   1.116   5.742   4.713 -0.7755 -0.8341 -0.3034
19652SOL    HW263413   1.051   5.759   4.848 -0.2318 -0.7061 -0.0539
19653SOL     OW63414   7.094   3.667   9.754 -0.3881 -0.1420  0.1456
19653SOL    HW163415   7.139   3.625   9.827  2.4229  0.1109 -1.3092
19653SOL    HW263416   7.058   3.595   9.703 -0.1065 -0.4569  0.3891
19654SOL     OW63417  10.505   2.559   2.875 -0.5748  0.1439  0.0585
19654SOL    HW163418  10.504   2.468   2.905 -0.5298  0.4453  1.0334
19654SOL    HW263419  10.510   2.610   2.956  0.6033  0.9946 -0.5241
19655SOL     OW63420  10.134   0.613   0.951  0.0811  0.6652  0.4406
19655SOL    HW163421  10.094   0.543   0.898  1.4482  0.5023 -0.4411
19655SOL    HW263422  10.156   0.570   1.034  0.7170  0.0744 -0.0155
19656SOL     OW63423  10.820   9.300   9.968  0.3235  0.0322  0.6619
19656SOL    HW163424  10.907   9.317   9.932  0.1975 -0.0691  0.3054
19656SOL    HW263425  10.781   9.236   9.908 -1.3854  2.7410 -1.2950
19657SOL     OW63426   9.497   4.408   6.880 -0.2325  0.2731  0.1733
19657SOL    HW163427   9.532   4.403   6.791  1.8140  0.2508  0.9416
19657SOL    HW263428   9.562   4.459   6.929 -2.1408  1.7797  1.2942
19658SOL     OW63429  10.603   7.363  10.421 -0.3493 -0.3494 -0.5856
19658SOL    HW163430  10.533   7.307  10.388 -0.3688 -0.7977  0.1991
19658SOL    HW263431  10.683   7.327  10.383 -0.4196 -0.5955 -0.5021
19659SOL     OW63432   3.057   9.786   4.000 -0.0115  0.2872  0.2196
19659SOL    HW163433   3.021   9.821   3.918 -3.1438 -0.3611  1.1935
19659SOL    HW263434   3.034   9.851   4.066  0.3083 -0.3527  0.9733
19660SOL     OW63435   5.121   2.091   6.285  0.0491 -0.4783  0.0590
19660SOL    HW163436   5.048   2.087   6.223  0.5509 -0.7277 -0.5202
19660SOL    HW263437   5.118   2.181   6.319 -2.4186 -1.2881  2.3936
19661SOL     OW63438   8.965   4.977   1.087 -0.1341 -0.8748 -0.2722
19661SOL    HW163439   8.966   5.065   1.051 -2.7124 -1.2433 -1.4109
19661SOL    HW263440   8.988   4.989   1.179  0.5493  0.8240 -0.6188
19662SOL     OW63441   3.730   5.606   9.059  0.0295  0.0359 -0.0303
19662SOL    HW163442   3.807   5.571   9.016 -0.0700 -0.9380  0.5535
19662SOL    HW263443   3.697   5.673   8.999  1.0830  0.1706 -0.4708
19663SOL     OW63444   5.029   8.970   0.197 -0.3806 -0.1214 -0.3093
19663SOL    HW163445   5.117   8.933   0.206  0.9638  3.0238  0.7835
19663SOL    HW263446   4.984   8.942   0.277  0.0438 -0.6508 -0.2432
19664SOL     OW63447   7.435   3.661   6.364  0.3864  0.1127 -0.2504
19664SOL    HW163448   7.349   3.619   6.371  1.2833 -1.8910 -0.5346
19664SOL    HW263449   7.472   3.626   6.284  1.7765  0.3345  0.2780
19665SOL     OW63450   2.292   6.948   8.187  0.6206  0.2542 -0.2673
19665SOL    HW163451   2.200   6.926   8.203 -0.0059  1.3780 -2.0026
19665SOL    HW263452   2.292   7.043   8.178  1.4871  0.0908 -2.7423
19666SOL     OW63453   5.057   7.705  10.491 -0.7238 -0.0963 -0.2241
19666SOL    HW163454   5.095   7.617  10.489 -0.8767 -0.1922  0.7256
19666SOL    HW263455   5.133   7.764  10.483 -0.4934 -0.3020  0.4186
19667SOL     OW63456   5.446   3.617   2.952  0.2742 -0.6926  0.4243
19667SOL    HW163457   5.401   3.548   3.001 -0.7895  1.3516  2.5361
19667SOL    HW263458   5.383   3.642   2.884  1.3720 -2.8708 -1.5730
19668SOL     OW63459   5.260   5.461   3.261 -0.5238 -0.4242  0.2218
19668SOL    HW163460   5.310   5.454   3.342 -0.3460  1.5245  0.3370
19668SOL    HW263461   5.169   5.468   3.289 -0.5966 -1.1257  0.1692
19669SOL     OW63462   7.030   2.454   3.973  0.5016 -0.3772 -0.3587
19669SOL    HW163463   7.074   2.458   4.058  1.1500 -0.2421 -0.6967
19669SOL    HW263464   7.098   2.427   3.912 -0.3940 -2.3970 -0.5391
19670SOL     OW63465   5.573   3.160   5.257  0.1400 -0.5685  0.4656
19670SOL    HW163466   5.495   3.111   5.231  1.5448 -1.1551 -3.3273
19670SOL    HW263467   5.622   3.100   5.313  0.2030 -2.3065 -1.3212
19671SOL     OW63468   3.737   2.257   8.868  0.6040  0.3994  0.6313
19671SOL    HW163469   3.673   2.295   8.808 -0.6476 -1.6420  0.5830
19671SOL    HW263470   3.806   2.324   8.875 -1.3746  2.5765  0.5052
19672SOL     OW63471   7.438   7.327   4.991 -0.3661  0.0896  0.2936
19672SOL    HW163472   7.432   7.372   4.907 -1.8268 -0.6471 -0.0306
19672SOL    HW263473   7.527   7.345   5.022 -0.1877  1.3384 -0.8494
19673SOL     OW63474   7.801   4.209   1.998  0.1645 -0.3291 -0.4671
19673SOL    HW163475   7.824   4.140   2.061 -0.3780 -1.2727 -1.2585
19673SOL    HW263476   7.727   4.254   2.039  2.0205  1.4382  1.1776
19674SOL     OW63477   9.982   9.107  10.439  0.1284  0.0835 -0.1913
19674SOL    HW163478   9.979   9.127  10.345 -1.0129  0.2497 -0.1367
19674SOL    HW263479   9.933   9.026  10.447 -2.5453  1.6393  0.6042
19675SOL     OW63480   0.906  10.041   9.756  0.2063 -0.7159  0.3309
19675SOL    HW163481   0.901   9.996   9.672  1.8095  1.7338 -1.2047
19675SOL    HW263482   0.829  10.099   9.757  0.3211 -0.5635  0.4613
19676SOL     OW63483   4.944   2.144   7.486 -0.0763 -0.3598 -0.0858
19676SOL    HW163484   4.942   2.077   7.554 -0.1451 -1.2357 -0.9398
19676SOL    HW263485   4.898   2.105   7.412 -0.4834  0.7874 -0.4602
19677SOL     OW63486   8.296   3.070   6.004 -0.3797 -0.2026  0.1421
19677SOL    HW163487   8.304   3.162   5.978 -0.4937 -0.5249 -1.1021
19677SOL    HW263488   8.229   3.035   5.945 -0.6943 -0.9709  0.9399
19678SOL     OW63489   5.132   6.021   6.466 -0.1212 -0.4654  0.1287
19678SOL    HW163490   5.171   6.103   6.435  1.6053 -1.8186 -1.5037
19678SOL    HW263491   5.040   6.027   6.442  0.4356  0.1057 -2.0222
19679SOL     OW63492   6.290   9.007   9.584  0.4121  0.1682 -0.0201
19679SOL    HW163493   6.272   8.999   9.491  1.1613 -0.8329 -0.1058
19679SOL    HW263494   6.356   8.939   9.601 -0.2395 -0.1510  1.3776
19680SOL     OW63495   5.324   4.324  10.021 -0.0211 -0.1795  0.0661
19680SOL    HW163496   5.418   4.319  10.040  0.1177 -2.5291 -0.9163
19680SOL    HW263497   5.283   4.328  10.107  0.9567  1.5735  0.5015
19681SOL     OW63498  10.556   3.864   5.493 -0.0256  0.4444 -0.4151
19681SOL    HW163499  10.636   3.916   5.505  0.3163 -0.1758  0.0566
19681SOL    HW263500  10.521   3.854   5.581  0.0606 -0.3492 -0.4639
19682SOL     OW63501   0.786   7.807   3.163 -0.5259  0.0213 -0.1501
19682SOL    HW163502   0.802   7.899   3.182  2.1927 -0.3068 -0.3786
19682SOL    HW263503   0.744   7.806   3.077 -0.3820  1.0320 -0.2378
19683SOL     OW63504   6.451   6.531   7.801  0.0993 -0.0198  0.3268
19683SOL    HW163505   6.441   6.475   7.724 -0.4295 -2.5742  2.1373
19683SOL    HW263506   6.546   6.535   7.815  0.3039  1.5561 -1.1189
19684SOL     OW63507   6.978   2.672   9.562 -0.6670  0.8464  0.3274
19684SOL    HW163508   6.958   2.618   9.486  1.6109 -0.1944  0.4006
19684SOL    HW263509   7.010   2.754   9.525  1.0248  0.1224  0.0826
19685SOL     OW63510   8.082   8.216  10.932 -0.4812  0.4460  0.1408
19685SOL    HW163511   8.070   8.149  10.865 -0.7374  0.3166  0.3143
19685SOL    HW263512   8.165   8.195  10.973 -1.2978 -0.7212  1.2715
19686SOL     OW63513   8.858   1.682   2.354  0.0865 -0.2909  0.1278
19686SOL    HW163514   8.896   1.648   2.435 -0.2167  0.7674  0.7325
19686SOL    HW263515   8.764   1.663   2.362 -0.0377  0.3821  0.3264
19687SOL     OW63516   2.165   3.956   1.690 -0.8252  0.3096 -0.1339
19687SOL    HW163517   2.200   4.044   1.675  0.4722  0.5689  3.4157
19687SOL    HW263518   2.070   3.969   1.692 -0.6825  1.5593 -0.1957
19688SOL     OW63519  10.271   6.923   7.455 -0.1005  0.3838  0.1305
19688SOL    HW163520  10.242   6.937   7.365  1.7902  1.3732 -0.3789
19688SOL    HW263521  10.280   7.011   7.492  0.3926  0.0475  0.8499
19689SOL     OW63522   1.900   1.046   6.965  0.6866 -0.0500  0.4051
19689SOL    HW163523   1.900   1.141   6.971 -0.3601  0.0484 -0.8834
19689SOL    HW263524   1.830   1.025   6.904 -0.0131 -1.7213  1.6881
19690SOL     OW63525   1.116   7.728   0.119  0.3688  0.0537  0.5186
19690SOL    HW163526   1.100   7.660   0.053  2.0012  1.0065 -0.9651
19690SOL    HW263527   1.043   7.721   0.179 -0.1909 -2.1468 -0.3148
19691SOL     OW63528   3.725   3.066  10.936  0.1141  0.2287 -0.2580
19691SOL    HW163529   3.722   3.158  10.964  0.4662  0.8157 -1.9935
19691SOL    HW263530   3.730   3.071  10.840  1.0703 -1.5931 -0.3394
19692SOL     OW63531  10.176   1.667   5.198  0.0816 -0.2473 -0.4819
19692SOL    HW163532  10.183   1.653   5.104  0.0140  1.2009 -0.7324
19692SOL    HW263533  10.255   1.715   5.221 -0.2053 -0.0346  0.0843
19693SOL     OW63534   1.810   7.532  10.478  0.1036  0.0730 -0.3641
19693SOL    HW163535   1.843   7.591  10.545 -0.4120  1.4034 -1.2274
19693SOL    HW263536   1.836   7.445  10.507  2.2754  0.8365  0.1832
19694SOL     OW63537   4.383   1.095   2.632 -0.7004 -0.3043 -0.5448
19694SOL    HW163538   4.312   1.153   2.660 -0.2858 -0.0359 -0.0232
19694SOL    HW263539   4.413   1.131   2.549 -0.3819  0.2979 -0.1765
19695SOL     OW63540   9.095   7.553   1.044  0.2562 -0.3658 -0.5223
19695SOL    HW163541   9.019   7.611   1.034  0.2514 -0.1609  0.5898
19695SOL    HW263542   9.170   7.606   1.017  0.0422 -0.4863 -1.3787
19696SOL     OW63543   4.026   4.084   3.611 -0.0672  0.4954 -0.2078
19696SOL    HW163544   3.992   4.041   3.689 -2.1338  3.2660  0.6139
19696SOL    HW263545   4.120   4.066   3.611 -0.5148 -2.2534  1.0554
19697SOL     OW63546   2.812   2.703   8.662  0.0193 -0.2042  0.3078
19697SOL    HW163547   2.898   2.734   8.690 -0.8377  1.1120  1.5750
19697SOL    HW263548   2.784   2.644   8.731 -0.7820  0.6443  0.7235
19698SOL     OW63549   6.689   6.279   0.353  0.0090  0.2507  0.9754
19698SOL    HW163550   6.748   6.330   0.408  1.6608 -3.0544  2.5489
19698SOL    HW263551   6.740   6.260   0.274  0.7797 -1.7654  1.9021
19699SOL     OW63552   4.139  10.789   7.568 -0.0420  0.2171 -0.0898
19699SOL    HW163553   4.119  10.802   7.661 -1.0871  0.2841 -0.3111
19699SOL    HW263554   4.070  10.732   7.536  0.3771  0.0956 -0.8080
19700SOL     OW63555   8.568   6.398   6.416 -0.2773 -0.1829 -0.4809
19700SOL    HW163556   8.585   6.390   6.509 -0.8473  2.8706  0.0145
19700SOL    HW263557   8.518   6.320   6.393  1.0073 -1.6360  1.4338
19701SOL     OW63558   7.905   5.144   0.916  0.1507  0.1526  0.0741
19701SOL    HW163559   7.836   5.077   0.924  0.1562  0.2169  0.7688
19701SOL    HW263560   7.918   5.175   1.006  0.7891  0.4459 -0.1152
19702SOL     OW63561  10.354   1.647   0.246  0.0667  0.6428  0.3852
19702SOL    HW163562  10.409   1.593   0.188 -1.2325 -0.1665 -0.1560
19702SOL    HW263563  10.366   1.609   0.333 -0.8008 -0.5457  0.0170
19703SOL     OW63564   1.068   6.464   8.383 -0.1832 -0.0981  0.1790
19703SOL    HW163565   0.983   6.428   8.407 -1.3393  1.3367 -1.4957
19703SOL    HW263566   1.131   6.414   8.436 -1.9306 -2.0599  0.5454
19704SOL     OW63567  10.549   6.521   7.436  0.7083  0.4709 -0.2755
19704SOL    HW163568  10.502   6.438   7.445 -0.1174  0.5799 -2.8074
19704SOL    HW263569  10.488   6.587   7.469 -0.3923  0.4634 -2.2105
19705SOL     OW63570  10.456   9.393   4.175  0.1408 -0.0686 -0.2544
19705SOL    HW163571  10.458   9.436   4.260 -2.3282  0.5839 -0.4575
19705SOL    HW263572  10.423   9.459   4.115  0.1056 -1.0652 -1.3848
19706SOL     OW63573   4.456   3.749   4.863 -0.9858  0.1233  0.0777
19706SOL    HW163574   4.485   3.694   4.936 -4.5901 -0.3145  1.3816
19706SOL    HW263575   4.521   3.819   4.859  0.2573 -0.7411  2.6018
19707SOL     OW63576   4.306   6.906   3.060 -0.0040  0.1025 -0.1153
19707SOL    HW163577   4.374   6.965   3.025  2.8755 -1.0794  3.0218
19707SOL    HW263578   4.294   6.935   3.150 -3.0537 -0.4275 -0.2570
19708SOL     OW63579   9.131   4.547  10.211 -0.2217 -0.0742 -0.1767
19708SOL    HW163580   9.070   4.508  10.273 -0.3174 -0.7326 -0.6733
19708SOL    HW263581   9.079   4.564  10.133  0.2049 -0.5351 -0.5646
19709SOL     OW63582   2.178  10.352   3.066 -0.1085 -0.1341 -0.1158
19709SOL    HW163583   2.262  10.391   3.041  2.4450 -3.5894  2.1776
19709SOL    HW263584   2.153  10.397   3.146  0.1468  0.1331 -0.1847
19710SOL     OW63585  10.185   0.056   7.734 -0.0948 -0.0776  0.1861
19710SOL    HW163586  10.165  -0.017   7.675 -0.2773  0.1080  0.0174
19710SOL    HW263587  10.170   0.134   7.681 -1.5334  0.1434  0.8637
19711SOL     OW63588   0.034  10.530   0.391  0.2171 -0.2438 -0.9156
19711SOL    HW163589   0.019  10.481   0.472 -0.6408 -0.7877 -1.3864
19711SOL    HW263590   0.014  10.621   0.413 -1.6305 -0.6177 -0.9268
19712SOL     OW63591   8.379   4.334   1.962  0.4530  0.2938  0.1873
19712SOL    HW163592   8.321   4.282   1.907 -0.8948  2.0811 -0.1626
19712SOL    HW263593   8.461   4.285   1.963 -0.5755 -1.5437 -0.5333
19713SOL     OW63594   5.053   2.277  10.113 -0.7673  0.3570  0.3800
19713SOL    HW163595   5.104   2.350  10.150  1.6410  0.8249 -3.3602
19713SOL    HW263596   4.962   2.307  10.118 -0.1014  2.4547  1.3470
19714SOL     OW63597   9.542   3.913   1.222  0.1949  0.2536 -0.4008
19714SOL    HW163598   9.480   3.844   1.247 -0.2334  0.4749 -0.8398
19714SOL    HW263599   9.607   3.913   1.293 -1.2189  1.1771  0.9505
19715SOL     OW63600   3.191   5.755   9.253 -0.3552 -0.1795  0.2006
19715SOL    HW163601   3.159   5.758   9.163  0.1117 -1.9061 -0.0610
19715SOL    HW263602   3.112   5.766   9.307 -0.7991 -0.2680 -0.4215
19716SOL     OW63603   6.970   8.968   1.188 -0.5088  1.0694 -0.2533
19716SOL    HW163604   6.955   8.948   1.095  1.6345  0.3386 -0.4940
19716SOL    HW263605   6.975   9.063   1.191 -0.1946  1.0814 -0.9569
19717SOL     OW63606   3.283   0.185   1.859 -0.2553 -0.0993 -0.2476
19717SOL    HW163607   3.238   0.270   1.862  1.0373  0.6829 -1.5666
19717SOL    HW263608   3.268   0.153   1.770 -1.4969 -1.7340  0.5063
19718SOL     OW63609   3.631   4.610   2.060  0.3756 -0.1384  0.1014
19718SOL    HW163610   3.679   4.545   2.008  0.4863 -1.7803  2.1564
19718SOL    HW263611   3.550   4.566   2.085 -1.8741  2.2050 -2.3802
19719SOL     OW63612   6.861   5.092   8.075 -0.0105 -0.1984  0.5444
19719SOL    HW163613   6.923   5.157   8.041 -0.9941  0.1173 -0.7197
19719SOL    HW263614   6.845   5.120   8.165  0.3536  0.7274  0.3386
19720SOL     OW63615   3.276   0.025   1.622  0.2880  0.2658  0.3975
19720SOL    HW163616   3.292   0.044   1.530 -2.3726 -1.5088 -0.5182
19720SOL    HW263617   3.328  -0.053   1.640 -0.0400 -0.0202  0.0978
19721SOL     OW63618   1.897   8.767   5.019  0.0219 -0.0714 -0.3265
19721SOL    HW163619   1.988   8.794   5.017  0.1156 -0.2602  0.6635
19721SOL    HW263620   1.849   8.841   4.983  0.4568  0.5538  0.3651
19722SOL     OW63621   6.511  10.216  10.821  0.1046  0.1967  0.0008
19722SOL    HW163622   6.461  10.282  10.870  0.9872  2.2924 -1.7315
19722SOL    HW263623   6.455  10.192  10.748 -0.3322 -1.2826  0.7820
19723SOL     OW63624   0.425  10.263   9.460  0.0674 -0.0084 -0.1209
19723SOL    HW163625   0.356  10.219   9.508  0.9714 -3.7074 -1.8394
19723SOL    HW263626   0.416  10.232   9.370  2.1737  1.7161 -1.0383
19724SOL     OW63627  10.269   6.836   7.166  0.6489  0.6005  0.1117
19724SOL    HW163628  10.335   6.837   7.097 -0.5924  1.2603 -1.1178
19724SOL    HW263629  10.230   6.924   7.163 -1.4653 -0.2998 -0.3848
19725SOL     OW63630   2.163   4.566   3.071  0.2137 -0.0723 -0.2134
19725SOL    HW163631   2.132   4.506   3.138 -0.8511  2.1859  1.4798
19725SOL    HW263632   2.085   4.618   3.049  1.3758  1.6101 -0.5192
19726SOL     OW63633   9.881   9.958  10.583 -0.3779  0.3019  0.1195
19726SOL    HW163634   9.810   9.901  10.610 -1.6369  1.3259 -0.9269
19726SOL    HW263635   9.877   9.960  10.488  0.3970  1.1839  0.0841
19727SOL     OW63636   2.357   3.363   2.711 -0.1163  0.4617 -0.1363
19727SOL    HW163637   2.368   3.358   2.806 -0.4162  1.3763 -0.0412
19727SOL    HW263638   2.379   3.275   2.679 -0.1288  0.1166  0.7863
19728SOL     OW63639   5.058   8.805   8.733  0.0415 -0.0086  0.1214
19728SOL    HW163640   5.028   8.868   8.798 -2.9923  1.1806 -2.1904
19728SOL    HW263641   4.991   8.736   8.734  0.1694 -0.1901 -1.3779
19729SOL     OW63642   1.574   4.364   5.222  0.0094  0.1738  0.3124
19729SOL    HW163643   1.496   4.413   5.249 -0.1279  0.3635 -0.4152
19729SOL    HW263644   1.549   4.324   5.139  0.7330  0.3492  0.0067
19730SOL     OW63645   9.218   0.099   2.718  0.0262  0.3091  0.0562
19730SOL    HW163646   9.305   0.066   2.738  0.1795  1.5713  1.5968
19730SOL    HW263647   9.189   0.045   2.644  1.1415 -1.7451  1.0221
19731SOL     OW63648   6.115   4.142   5.298 -0.2086 -0.1426  0.2199
19731SOL    HW163649   6.101   4.047   5.303  0.3524 -0.2618 -0.4202
19731SOL    HW263650   6.045   4.174   5.242 -1.2489  0.0275  1.5580
19732SOL     OW63651   7.935   2.655   5.872 -0.0931 -0.3719  0.4875
19732SOL    HW163652   7.857   2.668   5.925  1.2303  0.6108  2.2789
19732SOL    HW263653   8.004   2.702   5.918  1.6340 -1.4181 -0.9014
19733SOL     OW63654   6.371   0.400   1.879 -0.4284 -0.1130 -0.3254
19733SOL    HW163655   6.459   0.423   1.849 -0.0700 -1.9936 -0.8388
19733SOL    HW263656   6.368   0.431   1.970  1.3044 -1.2734  0.1829
19734SOL     OW63657   4.705   3.203   5.126 -0.0923 -0.4933 -0.3383
19734SOL    HW163658   4.771   3.272   5.115  0.8875 -1.3623 -0.0894
19734SOL    HW263659   4.643   3.218   5.056  0.1819  0.5557 -0.3786
19735SOL     OW63660   4.409   0.975   3.881 -0.3414 -0.7333 -0.9896
19735SOL    HW163661   4.376   1.055   3.838  0.0903 -0.0781 -0.1370
19735SOL    HW263662   4.382   0.904   3.823 -0.1870  0.0822 -2.0985
19736SOL     OW63663   8.708   8.175   4.183  0.2163  0.4529 -0.1712
19736SOL    HW163664   8.639   8.209   4.240 -1.2615  0.2113 -1.7273
19736SOL    HW263665   8.740   8.097   4.228 -0.7054  0.4278  0.4688
19737SOL     OW63666   4.249   4.282   9.889 -0.3310  0.2755 -0.4197
19737SOL    HW163667   4.305   4.285   9.811  1.4522 -0.6817  0.7565
19737SOL    HW263668   4.284   4.351   9.945 -1.2274  0.5693 -0.2115
19738SOL     OW63669   5.922   4.164   1.844  0.1060  0.2487 -0.3125
19738SOL    HW163670   5.917   4.130   1.933  1.2504  1.4318  0.2275
19738SOL    HW263671   5.957   4.091   1.792 -0.6201 -0.4633  0.1758
19739SOL     OW63672   4.386   4.623   9.766  0.1291 -0.4750 -0.1589
19739SOL    HW163673   4.413   4.582   9.684  0.5485  0.1558 -0.3387
19739SOL    HW263674   4.292   4.641   9.755 -0.2059 -1.8712  0.1344
19740SOL     OW63675   6.981   9.368   4.261  0.1143 -0.4236 -0.6096
19740SOL    HW163676   6.913   9.302   4.253  1.2962 -1.7083 -0.3954
19740SOL    HW263677   7.015   9.358   4.350  1.9177 -1.1885 -1.3338
19741SOL     OW63678   5.425   2.879   4.871 -0.1413 -0.5244 -0.0134
19741SOL    HW163679   5.518   2.859   4.882  0.0396 -0.6459 -1.5022
19741SOL    HW263680   5.406   2.944   4.939  1.4638  0.7802 -0.7459
19742SOL     OW63681   2.314   2.468   4.514 -0.1302  0.2142 -0.6042
19742SOL    HW163682   2.304   2.502   4.425 -0.6175 -1.2878 -1.1525
19742SOL    HW263683   2.276   2.380   4.511 -1.9978  0.8234  1.5784
19743SOL     OW63684   1.732   3.165   2.895 -0.0255  0.3282  0.5818
19743SOL    HW163685   1.755   3.155   2.802  0.0071  1.3131  0.4742
19743SOL    HW263686   1.815   3.184   2.938 -0.0110 -0.3242  0.8494
19744SOL     OW63687   6.224   7.889   1.569 -0.2969  0.2713 -0.0396
19744SOL    HW163688   6.213   7.946   1.645  0.1824 -0.2739  0.4504
19744SOL    HW263689   6.183   7.937   1.497  1.7694  2.1128 -0.0800
19745SOL     OW63690   4.870   7.081   9.763 -0.3177  0.8357 -0.2625
19745SOL    HW163691   4.906   7.117   9.844 -1.5222  0.8112  0.3047
19745SOL    HW263692   4.887   7.149   9.697 -0.0808  1.2208  0.1900
19746SOL     OW63693   1.834   6.065   5.503 -0.0247 -0.0075  0.0561
19746SOL    HW163694   1.926   6.057   5.479 -0.3277 -0.2322 -1.0598
19746SOL    HW263695   1.833   6.052   5.598  0.9316 -1.4553 -0.1034
19747SOL     OW63696   4.886   9.676   2.018  0.1283  0.1275  0.2216
19747SOL    HW163697   4.895   9.611   2.088  1.2926 -0.9416 -0.8689
19747SOL    HW263698   4.957   9.739   2.034  1.5837 -1.1258 -0.9758
19748SOL     OW63699   4.510   5.693   6.588 -0.2992  0.1109  0.0026
19748SOL    HW163700   4.518   5.739   6.671  0.8388  1.8377 -0.9926
19748SOL    HW263701   4.465   5.611   6.609 -0.2021  0.5917  2.2561
19749SOL     OW63702   3.587   6.777   5.769 -0.5726 -0.0035  0.2580
19749SOL    HW163703   3.621   6.835   5.700 -3.2192  1.2240 -0.1322
19749SOL    HW263704   3.666   6.737   5.807  1.3648  3.2270  0.0222
19750SOL     OW63705  10.105   2.155   3.993 -0.3527 -0.2018  0.0967
19750SOL    HW163706  10.164   2.220   4.032 -1.2244 -0.2281  1.5029
19750SOL    HW263707  10.070   2.200   3.916  1.1600 -0.0393 -0.5405
19751SOL     OW63708   8.217   2.894   9.254 -0.0513  0.4523 -0.1073
19751SOL    HW163709   8.302   2.930   9.279  0.1005  0.7365 -0.9868
19751SOL    HW263710   8.214   2.808   9.294  0.8271  0.2776 -0.4003
19752SOL     OW63711  10.261  10.023   4.321  0.0654  0.0490  0.5624
19752SOL    HW163712  10.176  10.064   4.306 -0.1807 -1.3789 -2.6789
19752SOL    HW263713  10.324  10.087   4.286  0.0285 -0.3417 -0.2398
19753SOL     OW63714   0.007   1.734  10.986 -0.4814 -0.2862 -0.3559
19753SOL    HW163715  -0.058   1.800  11.010  0.7210  0.5233  0.8924
19753SOL    HW263716   0.062   1.777  10.920 -1.9971 -1.4735 -2.5132
19754SOL     OW63717   4.835   4.255   7.293 -0.0688 -0.5309  0.3514
19754SOL    HW163718   4.872   4.245   7.205 -0.0161 -1.3052  0.4531
19754SOL    HW263719   4.774   4.328   7.286  2.1425  1.4298  0.3953
19755SOL     OW63720   2.267   5.186   2.997  0.0108  0.5896  0.3839
19755SOL    HW163721   2.319   5.179   2.916 -0.5787  1.1583 -0.0488
19755SOL    HW263722   2.332   5.183   3.067  0.5914  0.8291 -0.1325
19756SOL     OW63723   0.622   5.779   6.096 -0.6579 -0.8280  0.4792
19756SOL    HW163724   0.577   5.742   6.020  0.1943 -0.1556 -0.3774
19756SOL    HW263725   0.653   5.703   6.145 -1.3876 -1.2742  0.2681
19757SOL     OW63726   3.328   3.742   2.739  0.6743  0.4981 -0.8421
19757SOL    HW163727   3.421   3.748   2.758  0.9484 -0.4966 -1.7994
19757SOL    HW263728   3.323   3.717   2.647 -0.5038 -0.3541 -0.5819
19758SOL     OW63729   9.908   9.146   4.284  0.5781 -0.4403 -0.1062
19758SOL    HW163730   9.923   9.223   4.229  1.5932  0.9873  2.0346
19758SOL    HW263731   9.853   9.089   4.231  0.6174  1.3121 -2.1574
19759SOL     OW63732  10.102   4.642   5.432  0.0351 -0.4390  0.2492
19759SOL    HW163733  10.137   4.561   5.393  0.0523 -0.9239  1.2263
19759SOL    HW263734  10.158   4.711   5.398  0.2637 -0.8894 -0.3073
19760SOL     OW63735   1.281   4.559   7.489 -0.4438  0.1687  0.2801
19760SOL    HW163736   1.292   4.477   7.440 -0.9854  0.9456 -1.2169
19760SOL    HW263737   1.317   4.541   7.575  0.8456 -1.1811 -0.4964
19761SOL     OW63738   4.548   0.871   8.010  0.2295 -0.7000 -0.0127
19761SOL    HW163739   4.528   0.910   7.925  0.8856  0.5470  0.3810
19761SOL    HW263740   4.618   0.809   7.992  1.3553  0.5822 -0.1884
19762SOL     OW63741   2.524   8.024   7.367 -0.7172  0.1197 -0.5139
19762SOL    HW163742   2.615   8.018   7.397 -0.8407  0.9523  0.0890
19762SOL    HW263743   2.529   8.009   7.273  0.0929  0.4586 -0.5376
19763SOL     OW63744   3.943   4.670   0.273 -0.3690  0.4312  0.0213
19763SOL    HW163745   3.914   4.758   0.249 -1.0922 -0.2264 -1.7026
19763SOL    HW263746   3.907   4.654   0.359 -1.5172  1.2640 -0.2937
19764SOL     OW63747   9.331   0.054  10.729 -0.5347  0.2827  0.3644
19764SOL    HW163748   9.281   0.042  10.810 -0.5661 -0.4777  0.2326
19764SOL    HW263749   9.331  -0.032  10.688  0.2856  0.4475  0.0135
19765SOL     OW63750   6.135   8.625   1.652 -0.6887  0.5291 -0.1445
19765SOL    HW163751   6.127   8.670   1.736 -0.5344  1.3127 -0.5327
19765SOL    HW263752   6.219   8.580   1.657 -1.6360 -1.2270  0.9307
19766SOL     OW63753   0.022   0.384   9.572  0.8437  0.0610 -0.4151
19766SOL    HW163754   0.028   0.476   9.598  2.0414 -0.1038 -0.0618
19766SOL    HW263755   0.063   0.336   9.643 -0.9587 -0.8941  0.0524
19767SOL     OW63756   6.696   1.839   8.424  0.3956  0.5657 -0.3062
19767SOL    HW163757   6.641   1.899   8.374  0.0959  0.6943  0.1711
19767SOL    HW263758   6.777   1.888   8.438  0.3091  0.7027 -0.2761
19768SOL     OW63759   8.111   3.143   4.935 -0.5093  0.4507  0.1323
19768SOL    HW163760   8.168   3.153   4.859 -0.9810 -1.3578 -0.5232
19768SOL    HW263761   8.029   3.108   4.899 -1.6659  1.9414  1.1898
19769SOL     OW63762   0.466   3.739   6.464  0.0310 -0.3620  0.0415
19769SOL    HW163763   0.485   3.674   6.531  1.2839  0.5326  0.6014
19769SOL    HW263764   0.426   3.812   6.511 -3.9389 -1.6603 -0.9296
19770SOL     OW63765   6.201   8.744   3.864  0.5048 -0.6355  0.0398
19770SOL    HW163766   6.130   8.806   3.853  1.1633 -0.1769 -2.3228
19770SOL    HW263767   6.281   8.798   3.859  1.0663 -1.5201 -1.4831
19771SOL     OW63768   0.538   9.798   4.951  0.0620  0.0713  0.0585
19771SOL    HW163769   0.619   9.767   4.990  0.0844  1.5423  1.2884
19771SOL    HW263770   0.551   9.787   4.857  1.5585 -0.0261  0.2564
19772SOL     OW63771   0.753   2.331   2.072  0.1868  0.3156 -0.1073
19772SOL    HW163772   0.763   2.426   2.080 -1.7046  1.0207 -3.7164
19772SOL    HW263773   0.838   2.296   2.097  1.3374  3.0377  0.2294
19773SOL     OW63774  10.737   0.059   1.096 -0.4212 -0.4737 -0.3053
19773SOL    HW163775  10.783  -0.023   1.111 -0.1841 -0.6770 -2.0002
19773SOL    HW263776  10.651   0.046   1.136 -0.5572 -1.7411 -0.9620
19774SOL     OW63777   7.170   2.823   5.927  0.2417  0.1171  0.3390
19774SOL    HW163778   7.231   2.882   5.971  0.9605 -0.1620 -0.2709
19774SOL    HW263779   7.199   2.821   5.836  0.0245 -0.9006  0.2745
19775SOL     OW63780   6.731   2.478   2.808 -0.6380 -0.0686  0.0176
19775SOL    HW163781   6.658   2.515   2.858 -0.0146  0.2651  0.7008
19775SOL    HW263782   6.781   2.554   2.778 -1.5251 -0.2049 -1.9912
19776SOL     OW63783   6.352   8.809   1.061  0.1493  0.0536  0.3679
19776SOL    HW163784   6.315   8.890   1.027 -0.1909  1.3897  3.5836
19776SOL    HW263785   6.438   8.803   1.019 -0.6488  0.9120 -1.5007
19777SOL     OW63786   6.163   0.627   7.148  0.7086 -0.1802  0.0973
19777SOL    HW163787   6.191   0.657   7.234 -0.5720  0.5433  0.2803
19777SOL    HW263788   6.218   0.676   7.087  3.4873 -2.5630  0.4391
19778SOL     OW63789   3.420  10.442   2.631  0.0420 -0.6155 -0.2871
19778SOL    HW163790   3.512  10.453   2.606  0.1843 -1.5216 -0.1916
19778SOL    HW263791   3.417  10.469   2.723  0.1596 -0.3417 -0.3626
19779SOL     OW63792   1.644   6.387   3.619  0.2217 -0.2894  0.3770
19779SOL    HW163793   1.645   6.378   3.524 -1.7557  0.7114  0.2197
19779SOL    HW263794   1.714   6.450   3.637  1.4043 -1.3637 -0.2598
19780SOL     OW63795   6.328  10.579   4.282 -0.6790  0.1692 -0.3490
19780SOL    HW163796   6.320  10.670   4.252  1.5226  0.2688 -0.8060
19780SOL    HW263797   6.278  10.528   4.218 -2.5558  1.0579  0.3151
19781SOL     OW63798  10.422   2.127   5.748 -0.2322  0.2532 -0.0635
19781SOL    HW163799  10.337   2.086   5.761 -0.5341  1.0229  0.4883
19781SOL    HW263800  10.419   2.161   5.658 -0.6139  0.5017  0.0404
19782SOL     OW63801  10.571   3.341   1.039 -0.1937  0.3155  0.2172
19782SOL    HW163802  10.515   3.384   1.103  0.5222  3.1621 -0.9248
19782SOL    HW263803  10.513   3.280   0.993 -1.0526 -0.6892  2.5061
19783SOL     OW63804   2.586  10.836   7.542  0.4733  0.6935 -0.4692
19783SOL    HW163805   2.678  10.822   7.566  0.3905  1.9737  0.6702
19783SOL    HW263806   2.589  10.901   7.473  0.3698  1.9414  0.6626
19784SOL     OW63807   0.324   8.786   5.271 -0.8676  0.0362  0.7051
19784SOL    HW163808   0.296   8.773   5.362  1.6201  0.7362  1.6719
19784SOL    HW263809   0.408   8.740   5.266 -1.2367 -0.4921 -1.4548
19785SOL     OW63810   3.868   1.865   9.904 -0.0706  0.2784  0.2698
19785SOL    HW163811   3.942   1.926   9.897  1.7729 -1.9513 -1.0334
19785SOL    HW263812   3.801   1.904   9.849  1.0053  1.2153 -0.4360
19786SOL     OW63813  10.703   4.238   4.194  0.1733 -0.1724 -0.6568
19786SOL    HW163814  10.663   4.300   4.255  0.8021 -0.4148  0.0208
19786SOL    HW263815  10.661   4.154   4.214  0.7100 -0.3451 -0.2260
19787SOL     OW63816   8.617   2.687  10.085  0.3046  0.0348  0.3727
19787SOL    HW163817   8.621   2.596  10.114 -0.1638  0.2380  1.0800
19787SOL    HW263818   8.705   2.721  10.103  0.4777 -0.2682  0.1186
19788SOL     OW63819   1.506   3.420  11.063  0.6056 -0.0410  0.5935
19788SOL    HW163820   1.501   3.344  11.005  1.2261  1.3303 -1.3221
19788SOL    HW263821   1.414   3.445  11.077  0.4684  0.0395 -0.3951
19789SOL     OW63822   7.794   6.240   4.473  0.1371  0.5453 -0.0046
19789SOL    HW163823   7.857   6.179   4.510  0.9722  0.0711 -2.0888
19789SOL    HW263824   7.839   6.324   4.472 -0.0676  0.6671  0.4536
19790SOL     OW63825   7.120   2.545   7.830  0.5219  0.3796  0.9548
19790SOL    HW163826   7.096   2.549   7.923  0.5235  1.8575  0.9137
19790SOL    HW263827   7.087   2.627   7.793  0.7801 -0.0578 -0.2993
19791SOL     OW63828   2.929   4.011   7.195 -0.9158  0.5617  0.6187
19791SOL    HW163829   2.888   3.941   7.143 -0.7699  0.9441 -0.0214
19791SOL    HW263830   2.970   3.966   7.269  0.2630 -0.1840 -0.4529
19792SOL     OW63831   9.672   5.812   1.542  0.0409 -0.0548  0.1415
19792SOL    HW163832   9.679   5.717   1.531  2.5546 -0.0722  1.3634
19792SOL    HW263833   9.740   5.848   1.486 -1.5254  1.1611 -1.0887
19793SOL     OW63834   5.909   9.357   8.003  0.1533  0.4649 -0.3186
19793SOL    HW163835   5.843   9.295   7.973  1.7865 -1.5087 -0.1071
19793SOL    HW263836   5.900   9.432   7.944 -1.9145  0.0674 -0.5863
19794SOL     OW63837   4.519   9.582   5.214 -0.0347 -0.3938  0.0174
19794SOL    HW163838   4.456   9.546   5.151 -0.3640  0.1172  0.0500
19794SOL    HW263839   4.517   9.521   5.287 -0.6382 -0.2764  0.1021
19795SOL     OW63840  10.451  10.987   0.476  0.3801  0.1337 -0.5625
19795SOL    HW163841  10.490  10.905   0.447 -0.5045 -0.5074  0.0149
19795SOL    HW263842  10.372  10.961   0.524  0.9797  1.2168  1.1033
19796SOL     OW63843  11.033   5.981   7.728 -0.0986 -0.4337 -0.1486
19796SOL    HW163844  11.063   5.901   7.772  0.6911  1.4063  2.9715
19796SOL    HW263845  11.100   5.998   7.662  0.7753 -1.2796  0.4883
19797SOL     OW63846   8.399   0.584   3.273  0.2414 -0.8884  0.3434
19797SOL    HW163847   8.339   0.557   3.203  0.6792  1.1308 -0.8842
19797SOL    HW263848   8.368   0.670   3.299  2.6231  0.2573 -0.3905
19798SOL     OW63849   7.152   4.062   7.080 -0.2411  0.4148  0.2436
19798SOL    HW163850   7.131   3.990   7.139 -1.6250  1.1338  0.6940
19798SOL    HW263851   7.174   4.135   7.138 -0.9475  0.9369 -0.1293
19799SOL     OW63852  10.288  10.776   8.010  0.0943 -0.0222  0.3281
19799SOL    HW163853  10.206  10.763   7.962  0.2296  1.0041 -0.2025
19799SOL    HW263854  10.316  10.864   7.987  1.2233 -0.2614  0.7095
19800SOL     OW63855   2.312   1.999   9.862 -0.4177  0.4005  0.5849
19800SOL    HW163856   2.312   2.085   9.903 -0.5577  0.9624 -0.5335
19800SOL    HW263857   2.401   1.989   9.828 -0.2852 -0.0778  1.0691
19801SOL     OW63858   8.789   4.089   4.153 -0.6391  0.3272 -0.2220
19801SOL    HW163859   8.792   4.171   4.103 -4.2617  0.4772 -0.3948
19801SOL    HW263860   8.792   4.020   4.088 -2.9597  0.4907 -0.5795
19802SOL     OW63861   2.419   1.227   9.479  0.4821  0.0445  0.4282
19802SOL    HW163862   2.497   1.263   9.522  1.2730 -0.3288 -0.6610
19802SOL    HW263863   2.417   1.268   9.393 -0.3018 -0.2709  0.2834
19803SOL     OW63864   7.951   2.377   7.177  0.1180  0.6929  0.3050
19803SOL    HW163865   8.043   2.365   7.201 -0.1185  0.1992  0.9769
19803SOL    HW263866   7.943   2.334   7.092 -0.2931 -2.5319  1.8550
19804SOL     OW63867   9.815   5.410   5.504  0.0868  0.0981 -0.4852
19804SOL    HW163868   9.775   5.472   5.444  1.0190  0.1867 -1.0439
19804SOL    HW263869   9.742   5.372   5.553 -0.6440  0.4018 -1.3176
19805SOL     OW63870   6.626   2.174   1.914  0.3623  0.1672 -0.1207
19805SOL    HW163871   6.580   2.097   1.881  1.4501 -0.1201 -1.0296
19805SOL    HW263872   6.566   2.212   1.978 -1.0179 -0.3264 -1.0727
19806SOL     OW63873   7.821   9.326  10.612  0.2398  0.1213 -0.5220
19806SOL    HW163874   7.909   9.365  10.609  0.3263 -0.0101  0.2453
19806SOL    HW263875   7.818   9.269  10.535  1.0876 -0.4079 -0.1801
19807SOL     OW63876   5.662   9.189   9.656  0.7203 -0.0751  0.4734
19807SOL    HW163877   5.683   9.281   9.638  0.0522  0.6050  2.8689
19807SOL    HW263878   5.713   9.167   9.733 -0.6566 -1.0552  1.1518
19808SOL     OW63879   7.038   6.210   8.391 -0.6880  0.5064  0.2368
19808SOL    HW163880   6.977   6.276   8.426  0.2404  0.5412  1.9272
19808SOL    HW263881   6.985   6.131   8.383 -0.9460  0.4536  1.9679
19809SOL     OW63882   1.801  10.089   0.710  0.0373 -0.5656 -0.1292
19809SOL    HW163883   1.829  10.038   0.634 -1.6980  0.4784 -1.5522
19809SOL    HW263884   1.708  10.070   0.719  0.6483 -2.7636  3.5088
19810SOL     OW63885   7.387   7.562   7.667 -0.7297 -0.1673 -0.3874
19810SOL    HW163886   7.427   7.578   7.753 -0.4217 -0.4143 -0.4827
19810SOL    HW263887   7.361   7.649   7.637 -1.7328 -0.1774  0.3758
19811SOL     OW63888   6.414   8.542   4.764  0.1913  0.1713 -0.1782
19811SOL    HW163889   6.504   8.523   4.739  0.8403  2.1736  0.4620
19811SOL    HW263890   6.411   8.528   4.858 -0.7168 -1.7135 -0.4367
19812SOL     OW63891   3.462   9.915   5.922 -0.0702 -0.0421  0.7356
19812SOL    HW163892   3.375   9.913   5.882  0.4337  3.4647 -0.8465
19812SOL    HW263893   3.486   9.823   5.933 -3.4865 -1.1065  0.2243
19813SOL     OW63894   6.188   8.482  10.258 -0.1273 -0.6151 -0.4786
19813SOL    HW163895   6.099   8.455  10.279  0.1612 -0.6986  0.7087
19813SOL    HW263896   6.237   8.469  10.340  0.8656 -0.1224 -0.9767
19814SOL     OW63897   4.871   6.012   7.714  0.1612  0.1065 -0.0384
19814SOL    HW163898   4.885   6.105   7.732 -0.1556 -0.1901  1.9594
19814SOL    HW263899   4.803   6.011   7.647 -0.5087  1.3063  0.5918
19815SOL     OW63900   8.223   5.932   3.426 -0.1593  0.2858  0.0875
19815SOL    HW163901   8.199   5.962   3.514 -1.6646 -0.4768 -0.0238
19815SOL    HW263902   8.316   5.953   3.418  0.2368 -0.4150  2.2015
19816SOL     OW63903   6.097   6.636   4.504  0.1259  0.6458 -0.0173
19816SOL    HW163904   6.131   6.559   4.457 -1.2930 -0.3290  0.4966
19816SOL    HW263905   6.016   6.658   4.457 -0.1683  0.9927  0.6496
19817SOL     OW63906   4.759  10.161   6.412 -0.1023  0.3420  0.4403
19817SOL    HW163907   4.836  10.184   6.361 -0.3639  0.4419  0.0917
19817SOL    HW263908   4.697  10.126   6.349 -0.0137 -0.5724  0.8492
19818SOL     OW63909   5.161   2.081   1.050  0.3091  0.1719 -0.1830
19818SOL    HW163910   5.083   2.130   1.023  1.2664  2.1274  0.3888
19818SOL    HW263911   5.206   2.060   0.968  1.2875  2.7871 -0.4039
19819SOL     OW63912   1.911   9.023  10.473  0.2613  0.0296 -0.0791
19819SOL    HW163913   1.933   9.065  10.390 -0.5101 -1.9020 -1.3342
19819SOL    HW263914   1.873   8.939  10.448  0.3896 -0.7992  2.2587
19820SOL     OW63915   4.282   6.221   3.320 -0.0275 -0.1213 -0.7707
19820SOL    HW163916   4.295   6.212   3.414 -0.2709 -0.9219 -0.8089
19820SOL    HW263917   4.330   6.148   3.282 -2.1471 -1.4286 -1.0860
19821SOL     OW63918   0.717   2.415   5.775 -0.5386  0.1768 -0.3356
19821SOL    HW163919   0.680   2.478   5.713  1.3346  1.5894 -0.0882
19821SOL    HW263920   0.687   2.330   5.743 -0.8028  0.9679 -2.3358
19822SOL     OW63921   5.536   3.932   8.866 -0.7075 -0.1931  0.2310
19822SOL    HW163922   5.560   3.871   8.796  0.2540  1.3811 -0.8894
19822SOL    HW263923   5.475   3.884   8.922 -1.1135 -1.6612 -1.4227
19823SOL     OW63924   4.226   7.154   4.116  0.0446  0.4344 -0.2784
19823SOL    HW163925   4.144   7.118   4.084 -1.0263 -0.1134  2.7046
19823SOL    HW263926   4.211   7.249   4.118 -1.0102  0.2749  1.2752
19824SOL     OW63927   4.178   7.055   5.672  0.2262 -0.2100  0.3494
19824SOL    HW163928   4.135   7.015   5.748 -3.2370 -2.5835 -2.5118
19824SOL    HW263929   4.111   7.113   5.635  1.0351 -0.6278 -1.9296
19825SOL     OW63930   9.152   8.127   8.792 -0.5818 -0.6538  0.0150
19825SOL    HW163931   9.218   8.168   8.737  0.8107 -2.3887  0.3244
19825SOL    HW263932   9.088   8.197   8.808 -0.1443  0.3814 -2.3235
19826SOL     OW63933  10.342   8.794   9.972  0.1023  0.0570  0.2987
19826SOL    HW163934  10.259   8.839   9.960  0.0862  0.2213  1.0345
19826SOL    HW263935  10.344   8.730   9.900 -1.2073 -0.7718  0.9629
19827SOL     OW63936   6.087   4.194   7.229  0.4187 -0.1605  0.2862
19827SOL    HW163937   6.027   4.139   7.280  0.7311 -1.1450 -0.3805
19827SOL    HW263938   6.060   4.284   7.248 -1.8322 -0.5935 -0.6819
19828SOL     OW63939   6.738   4.233  10.998 -0.1525 -0.3714  0.5515
19828SOL    HW163940   6.703   4.279  11.075 -0.6234 -0.6179  0.4822
19828SOL    HW263941   6.737   4.140  11.023  0.7248 -0.3649  0.6612
19829SOL     OW63942   8.797  11.015   6.292 -0.1563 -0.3573 -0.3221
19829SOL    HW163943   8.835  10.931   6.265  1.4228  0.4419 -0.7023
19829SOL    HW263944   8.795  11.011   6.387  0.4248 -0.6042 -0.3197
19830SOL     OW63945   7.058   0.178   3.243 -0.8751 -0.1365 -0.1146
19830SOL    HW163946   7.082   0.269   3.257  1.0916 -0.2232 -2.3039
19830SOL    HW263947   7.131   0.127   3.278 -1.5773 -0.8344  0.3632
19831SOL     OW63948   9.919   7.586   6.890 -0.1640  0.0519 -0.2147
19831SOL    HW163949   9.900   7.552   6.802 -0.0650  1.9036 -1.0112
19831SOL    HW263950   9.986   7.528   6.925  1.5872  0.6657 -2.3591
19832SOL     OW63951   2.509   2.828   8.926  0.0561 -0.1605 -0.5491
19832SOL    HW163952   2.547   2.915   8.914 -1.2402  0.7677  1.4897
19832SOL    HW263953   2.442   2.821   8.858  0.4122  0.2765 -0.9462
19833SOL     OW63954   8.369   9.622   6.197  0.2436 -0.0536 -0.6413
19833SOL    HW163955   8.287   9.620   6.147 -0.8478  2.8663  0.8498
19833SOL    HW263956   8.407   9.708   6.178  2.4296 -0.8936 -0.3840
19834SOL     OW63957   1.618   7.182   9.677  0.5595  0.0385  0.1679
19834SOL    HW163958   1.659   7.237   9.610  2.8748 -0.3684  1.1380
19834SOL    HW263959   1.678   7.109   9.688 -0.6227 -0.7930  1.4945
19835SOL     OW63960   1.497   5.216   1.322 -0.3278 -0.4481 -0.2199
19835SOL    HW163961   1.438   5.152   1.283 -0.1041  0.5125 -2.2566
19835SOL    HW263962   1.476   5.298   1.278  2.0068  0.0656 -0.4875
19836SOL     OW63963   7.236   0.539   8.995  0.3378 -0.2875 -0.6733
19836SOL    HW163964   7.240   0.507   9.085 -1.4522 -1.4483 -0.9614
19836SOL    HW263965   7.222   0.634   9.004 -3.1358 -0.7588  0.4039
19837SOL     OW63966   5.072   5.395  10.591  0.2532 -0.1313  0.6281
19837SOL    HW163967   5.053   5.349  10.509  2.2163  0.3008 -0.1108
19837SOL    HW263968   5.109   5.479  10.563 -1.0382  0.9342  1.9706
19838SOL     OW63969  10.521   1.087   4.304 -0.1864  0.5004 -0.6180
19838SOL    HW163970  10.462   1.149   4.263 -2.1353 -0.6252  0.3283
19838SOL    HW263971  10.525   1.114   4.396  0.6466  0.4520 -0.6272
19839SOL     OW63972   3.619   4.715   9.643  0.0629  0.3806 -0.2674
19839SOL    HW163973   3.656   4.630   9.622 -0.9772 -0.5196  1.3729
19839SOL    HW263974   3.530   4.713   9.608 -0.6918 -0.0496  1.5585
19840SOL     OW63975  10.157   7.112   3.906  0.1661  0.5509 -0.3292
19840SOL    HW163976  10.125   7.022   3.910 -0.7008  0.7940 -1.3491
19840SOL    HW263977  10.232   7.113   3.966 -0.6218 -0.5006  0.7457
19841SOL     OW63978   3.405   1.065   6.619 -0.1489  0.3495  0.1612
19841SOL    HW163979   3.386   1.100   6.706 -1.4412  1.3542 -0.4691
19841SOL    HW263980   3.401   0.970   6.630 -1.9472  0.4586  0.9092
19842SOL     OW63981   1.168   6.608   2.850 -0.5695 -0.1257  0.3666
19842SOL    HW163982   1.192   6.690   2.808 -1.9419  1.0097  1.6893
19842SOL    HW263983   1.233   6.596   2.919 -0.2186 -0.2985  0.0092
19843SOL     OW63984   6.853   2.647   6.065 -0.1386  0.5545  0.5197
19843SOL    HW163985   6.853   2.638   6.160  2.7040 -0.9850  0.4899
19843SOL    HW263986   6.827   2.561   6.032 -1.2143  1.1029 -0.1396
19844SOL     OW63987   8.021   6.220   5.822  0.0331 -0.1116  0.3498
19844SOL    HW163988   8.045   6.262   5.904 -1.2346  1.6268 -0.1029
19844SOL    HW263989   8.028   6.289   5.756  0.4957 -1.3286 -0.9338
19845SOL     OW63990   2.024   4.280  10.509  0.0007  0.2914  0.2817
19845SOL    HW163991   2.112   4.304  10.539 -1.1038  3.0222  1.5784
19845SOL    HW263992   2.029   4.287  10.414  0.7650  2.1710  0.4272
19846SOL     OW63993  10.225   1.412   2.479 -0.4258  0.1659 -0.4790
19846SOL    HW163994  10.311   1.389   2.443 -0.8855 -0.0243 -1.5038
19846SOL    HW263995  10.229   1.507   2.491 -0.4193  0.3083 -1.5153
19847SOL     OW63996   2.369   1.534   5.712  0.1423  0.1131 -0.1183
19847SOL    HW163997   2.412   1.450   5.694 -1.9228 -0.7784 -1.3168
19847SOL    HW263998   2.354   1.533   5.806  0.3939 -0.7393 -0.0730
19848SOL     OW63999   1.349   9.804   0.525 -0.1013 -0.5431 -0.1098
19848SOL    HW164000   1.302   9.740   0.579 -2.1275  1.0589  0.1547
19848SOL    HW264001   1.330   9.888   0.566  2.2789  0.2994 -0.5944
19849SOL     OW64002   5.332   0.269   1.979  0.1194 -0.1082 -0.9612
19849SOL    HW164003   5.332   0.173   1.972  1.0797 -0.1793 -0.1549
19849SOL    HW264004   5.360   0.287   2.069 -1.1259  0.9221 -0.7607
19850SOL     OW64005   0.343  10.474   1.951  0.0191 -0.0642 -0.0700
19850SOL    HW164006   0.418  10.462   2.008 -0.2847 -1.8432 -0.0013
19850SOL    HW264007   0.283  10.529   2.001  1.5864  2.1535 -0.4796
19851SOL     OW64008   6.825  10.590   3.847  0.1987 -0.3116  0.1187
19851SOL    HW164009   6.851  10.575   3.938 -1.4431 -0.9313  0.5218
19851SOL    HW264010   6.829  10.503   3.807 -0.9483 -0.3875  0.1365
19852SOL     OW64011   8.133   3.404   4.454 -0.6419  0.0943  0.1233
19852SOL    HW164012   8.082   3.459   4.394  0.1315  0.3135 -0.3383
19852SOL    HW264013   8.169   3.466   4.518  2.8352  0.6949 -2.1678
19853SOL     OW64014   5.093   5.921   2.793  0.0073 -0.2980 -0.1052
19853SOL    HW164015   5.086   5.834   2.753 -1.6116  0.1979 -1.0066
19853SOL    HW264016   5.116   5.904   2.884  0.1489 -1.6449 -0.3689
19854SOL     OW64017   7.592   9.068   2.585 -0.0360  0.1091  0.3040
19854SOL    HW164018   7.630   9.022   2.510  0.2378 -0.0695  0.5480
19854SOL    HW264019   7.598   9.005   2.657 -3.1345 -0.9241 -0.1841
19855SOL     OW64020   2.053   6.582   4.055 -0.1532 -0.4572  0.3480
19855SOL    HW164021   1.986   6.572   3.987  1.0270  1.4119 -1.1781
19855SOL    HW264022   2.003   6.581   4.137 -2.0241  0.4707 -0.7055
19856SOL     OW64023   3.268   1.465   0.214  0.1492  0.1968 -0.0093
19856SOL    HW164024   3.296   1.436   0.127 -0.6196 -1.6351  0.3061
19856SOL    HW264025   3.176   1.488   0.203  0.2225  0.5866  0.1851
19857SOL     OW64026   7.166   5.094   6.329 -0.4177 -0.7755  0.8639
19857SOL    HW164027   7.153   5.189   6.325  1.9074 -0.4065 -1.7560
19857SOL    HW264028   7.092   5.058   6.281  0.6009  0.1365 -1.6054
19858SOL     OW64029   2.760   6.373   1.505  0.0204  0.5231  0.0110
19858SOL    HW164030   2.799   6.441   1.451 -2.5116  1.0039 -1.3435
19858SOL    HW264031   2.695   6.330   1.449 -0.0567 -1.5305  1.5178
19859SOL     OW64032   3.481   2.730   1.080  0.5445  0.3600  0.8371
19859SOL    HW164033   3.542   2.722   1.153  1.9667  0.0215 -0.3452
19859SOL    HW264034   3.438   2.644   1.075  0.7521  0.2476  0.9942
19860SOL     OW64035   3.868   0.262   6.010  0.9224 -0.0351  0.7499
19860SOL    HW164036   3.880   0.168   6.022  0.6312 -0.2546 -0.4807
19860SOL    HW264037   3.923   0.283   5.935  2.0890  1.0677  1.8748
19861SOL     OW64038   2.595   5.692   1.649  0.3275  0.6747 -0.1603
19861SOL    HW164039   2.503   5.673   1.628  0.1766  2.9516 -1.9571
19861SOL    HW264040   2.644   5.623   1.603 -0.4176  0.6343 -0.9245
19862SOL     OW64041   9.366   5.057   8.833  0.4191 -0.0913  0.2390
19862SOL    HW164042   9.346   5.120   8.764 -0.1317  0.3661  0.8025
19862SOL    HW264043   9.304   4.985   8.818  0.7126 -0.2755 -0.1062
19863SOL     OW64044   8.802   7.311   6.277  0.1842 -0.1553 -0.5716
19863SOL    HW164045   8.823   7.248   6.208  1.9488  3.4493 -3.6884
19863SOL    HW264046   8.886   7.334   6.316 -0.1797  1.5569 -0.7536
19864SOL     OW64047  10.654   2.034   5.061  0.0997 -0.3500 -0.5429
19864SOL    HW164048  10.605   1.953   5.077 -1.0381  0.4825  0.3368
19864SOL    HW264049  10.697   2.052   5.144 -1.5095  1.1514  0.0080
19865SOL     OW64050   0.612   3.934   0.811 -0.2368  0.3788 -0.6236
19865SOL    HW164051   0.656   3.875   0.750  0.6789 -0.4482  0.8002
19865SOL    HW264052   0.539   3.884   0.846 -0.6713  0.7997 -0.9106
19866SOL     OW64053   2.464   2.019   5.208  0.0449 -0.2041 -0.1451
19866SOL    HW164054   2.516   1.993   5.132  1.0576  1.6682 -0.1487
19866SOL    HW264055   2.403   2.084   5.174 -0.1550 -0.0730  0.4610
19867SOL     OW64056   9.633   4.451   8.594 -0.5733 -0.4389 -0.0716
19867SOL    HW164057   9.614   4.375   8.539  0.5335  0.6337 -2.0503
19867SOL    HW264058   9.642   4.415   8.682 -1.2073 -2.4175 -0.7525
19868SOL     OW64059   7.820   3.447   7.874  0.5478 -0.1329 -0.6066
19868SOL    HW164060   7.786   3.537   7.875  0.3061 -0.2204 -0.8907
19868SOL    HW264061   7.913   3.457   7.895  0.1829  0.0313  1.1369
19869SOL     OW64062   3.569   6.347   0.045  0.2824 -0.0235 -0.4349
19869SOL    HW164063   3.599   6.273   0.098 -0.0183  0.8022  0.9252
19869SOL    HW264064   3.648   6.399   0.030  0.3467 -0.1982 -0.7108
19870SOL     OW64065   2.417  10.959   2.323 -0.5768  0.3811 -0.2622
19870SOL    HW164066   2.468  11.007   2.258 -0.1299  0.8403  0.4129
19870SOL    HW264067   2.329  10.954   2.287  0.0995 -1.1214 -1.8321
19871SOL     OW64068  11.047   1.657   5.770  0.3987 -0.5779 -0.4919
19871SOL    HW164069  11.134   1.665   5.808  0.0527  0.5094  0.1329
19871SOL    HW264070  11.006   1.584   5.817  0.4268 -0.0641  0.3614
19872SOL     OW64071   1.285   6.863  10.693  0.1515  0.8390  0.0788
19872SOL    HW164072   1.247   6.848  10.780  1.6337 -1.3215  0.4333
19872SOL    HW264073   1.376   6.836  10.702  0.0182 -0.7594 -2.4801
19873SOL     OW64074   1.178   1.679   2.873  0.0847 -0.0364  0.1723
19873SOL    HW164075   1.272   1.686   2.888  0.1078 -0.5339  0.2852
19873SOL    HW264076   1.152   1.764   2.836  0.7492 -0.2282 -0.7798
19874SOL     OW64077   0.289   4.189   9.695  0.0605 -0.0219 -0.2320
19874SOL    HW164078   0.223   4.175   9.762  0.0855  1.5095  0.1525
19874SOL    HW264079   0.249   4.252   9.635  1.3878  1.4975  0.3986
19875SOL     OW64080   7.509   8.888   1.029  0.3021 -0.1422  0.5983
19875SOL    HW164081   7.534   8.981   1.028 -2.2157  0.6213  0.4472
19875SOL    HW264082   7.560   8.849   0.958  1.8132  0.9854  1.0024
19876SOL     OW64083   8.523   0.143   3.977  0.4097  0.1556 -0.2998
19876SOL    HW164084   8.528   0.072   4.041  3.9019  1.9288  1.7095
19876SOL    HW264085   8.502   0.221   4.029 -2.0002  0.9159 -2.2308
19877SOL     OW64086   3.561   9.441   2.313 -0.0429  0.2014 -0.3866
19877SOL    HW164087   3.642   9.481   2.344  0.3569 -0.7870 -0.0991
19877SOL    HW264088   3.527   9.502   2.247  1.9564 -0.2621 -1.9460
19878SOL     OW64089   3.737   3.326  11.057  0.1501 -0.1164  0.3938
19878SOL    HW164090   3.819   3.376  11.055 -0.7058  1.3416 -0.7938
19878SOL    HW264091   3.688   3.362  11.130 -0.2825  0.5211 -0.1921
19879SOL     OW64092   0.338   7.480   9.185  0.0085 -0.0483 -0.1616
19879SOL    HW164093   0.351   7.570   9.216 -1.0226  0.2885 -0.6517
19879SOL    HW264094   0.253   7.455   9.219  0.1888 -0.7649 -0.2237
19880SOL     OW64095  10.188   3.736   7.464  0.0258 -0.4938  0.0526
19880SOL    HW164096  10.259   3.719   7.402  1.3250  1.9940  0.7332
19880SOL    HW264097  10.228   3.723   7.550 -0.2189  1.1285  0.4465
19881SOL     OW64098   1.983  10.628   1.754 -0.1431  0.3597 -0.3143
19881SOL    HW164099   1.895  10.634   1.715  0.1666 -0.8995 -1.2901
19881SOL    HW264100   1.967  10.592   1.841 -0.4994 -1.9900 -1.2638
19882SOL     OW64101   3.320  10.693   3.665 -0.1340 -0.1534 -0.1925
19882SOL    HW164102   3.332  10.612   3.715  0.0124  1.0529  1.8504
19882SOL    HW264103   3.291  10.664   3.578 -0.9893 -2.3423  0.7526
19883SOL     OW64104   0.032   6.398   1.767 -0.6699 -0.2315  0.0485
19883SOL    HW164105   0.123   6.393   1.737 -0.4900 -0.7501  0.6450
19883SOL    HW264106  -0.019   6.363   1.694 -0.3431 -0.4162 -0.0951
19884SOL     OW64107   9.252   3.123   5.554 -0.2675  0.1751 -0.0830
19884SOL    HW164108   9.253   3.118   5.649  0.8927 -1.0809 -0.1358
19884SOL    HW264109   9.186   3.190   5.534 -2.0664 -1.0382  1.5268
19885SOL     OW64110   1.697   3.021   9.330 -0.0506 -0.4093 -0.3795
19885SOL    HW164111   1.724   2.992   9.243  0.6387 -1.7233  0.2325
19885SOL    HW264112   1.779   3.033   9.377 -0.4248 -0.0578  0.1880
19886SOL     OW64113   0.735   3.474   7.482 -0.5260 -0.4080 -0.0826
19886SOL    HW164114   0.827   3.456   7.462 -0.1809  1.9476 -0.8967
19886SOL    HW264115   0.734   3.564   7.514 -2.0980 -1.5974  3.7070
19887SOL     OW64116   3.568   8.448   3.455  0.1114  0.2957 -0.1555
19887SOL    HW164117   3.525   8.525   3.417 -1.1005  1.0243  2.4579
19887SOL    HW264118   3.650   8.440   3.407 -0.4582  2.2615 -1.5693
19888SOL     OW64119   9.836   8.370   3.800  0.2576 -0.3104 -0.2977
19888SOL    HW164120   9.801   8.298   3.748 -0.6222 -0.0158 -0.1359
19888SOL    HW264121   9.889   8.422   3.739  0.7895 -1.0171 -0.4415
19889SOL     OW64122   9.392   0.214   5.458 -0.2339  0.6310 -0.1019
19889SOL    HW164123   9.462   0.257   5.409  0.7787 -1.3551 -0.5334
19889SOL    HW264124   9.325   0.195   5.393  1.0234 -1.8253 -0.7835
19890SOL     OW64125   8.747   3.469   0.953 -0.2407  0.6638 -0.1632
19890SOL    HW164126   8.769   3.483   1.045 -1.0322 -0.4756  0.2245
19890SOL    HW264127   8.729   3.556   0.918  1.0828  1.2189  0.4829
19891SOL     OW64128   0.847   2.755   7.692  0.1337 -0.3440  0.6047
19891SOL    HW164129   0.868   2.793   7.607 -0.8576  0.3712  0.6661
19891SOL    HW264130   0.878   2.820   7.755  0.8281 -0.8528  0.8037
19892SOL     OW64131   5.676   3.971  10.847 -0.0609  0.4049  0.2755
19892SOL    HW164132   5.669   4.060  10.812  0.1734  0.0623 -0.6836
19892SOL    HW264133   5.750   3.974  10.908  0.5879  0.6466 -0.5033
19893SOL     OW64134   4.732   9.544   2.710 -0.0663 -0.1026  0.2685
19893SOL    HW164135   4.675   9.617   2.687 -1.2355 -1.7161 -2.4125
19893SOL    HW264136   4.782   9.575   2.786 -1.8932  2.7025  0.4460
19894SOL     OW64137  10.268   1.462   5.354  0.0791  0.5312  0.1385
19894SOL    HW164138  10.241   1.388   5.300 -0.3089 -0.4698  1.6590
19894SOL    HW264139  10.244   1.539   5.302  1.2442 -0.3610 -1.8362
19895SOL     OW64140   9.392   3.656   8.796  0.1870  0.0355 -0.1731
19895SOL    HW164141   9.423   3.577   8.753 -0.5454 -1.4242  1.8228
19895SOL    HW264142   9.395   3.635   8.890  1.3284  2.8831  0.5527
19896SOL     OW64143   9.731   1.870   5.223  0.0705 -0.0450  0.0075
19896SOL    HW164144   9.779   1.788   5.211 -0.7443 -0.2597 -2.0518
19896SOL    HW264145   9.639   1.844   5.221 -0.1854  0.8042  0.3827
19897SOL     OW64146   4.875   4.548   8.735  0.0761  0.3677  0.0654
19897SOL    HW164147   4.851   4.477   8.794  1.2684 -0.5793 -0.5554
19897SOL    HW264148   4.952   4.588   8.775 -0.0425  0.7339 -0.0618
19898SOL     OW64149   8.970   4.601   6.302  0.2431  0.0776  0.5746
19898SOL    HW164150   9.001   4.691   6.299  1.4299 -0.3379 -0.0105
19898SOL    HW264151   8.915   4.592   6.224 -1.5189  0.8343  1.6559
19899SOL     OW64152   9.932   8.264  11.050  0.2691 -0.2821  0.1349
19899SOL    HW164153   9.844   8.288  11.078  0.3257 -0.2306  0.2705
19899SOL    HW264154   9.924   8.249  10.956 -0.1428 -1.5063  0.3497
19900SOL     OW64155   2.825   1.628   3.762 -0.2388  0.7294 -0.3219
19900SOL    HW164156   2.746   1.575   3.751  0.7095 -1.1500  1.2854
19900SOL    HW264157   2.793   1.711   3.796 -1.5836  0.1868 -0.1818
19901SOL     OW64158   4.922   8.430   2.486 -0.6808  0.5739  0.3907
19901SOL    HW164159   4.835   8.414   2.524 -0.2172  1.2095  1.7620
19901SOL    HW264160   4.968   8.347   2.497 -0.2050  1.0473  2.2163
19902SOL     OW64161   1.069   9.523   3.473 -0.2323 -0.1939 -0.6636
19902SOL    HW164162   1.082   9.578   3.396  1.3872 -0.1547 -0.3980
19902SOL    HW264163   1.015   9.576   3.532  1.9159  1.5252 -0.0896
19903SOL     OW64164   6.637   6.992   6.023 -0.3770 -0.9347  0.0838
19903SOL    HW164165   6.602   7.064   5.970 -1.8584  1.5504  4.0100
19903SOL    HW264166   6.731   7.005   6.022 -0.5845  0.8914  0.3934
19904SOL     OW64167   7.656   6.006  10.404 -0.0541 -0.1857  0.2536
19904SOL    HW164168   7.625   6.091  10.374  1.4971 -0.4298 -2.3298
19904SOL    HW264169   7.683   6.020  10.495 -1.1872  1.6668  0.3490
19905SOL     OW64170   7.201   1.409   3.931  0.1830 -0.5078  0.6058
19905SOL    HW164171   7.225   1.330   3.980 -0.2772  0.9822  3.4188
19905SOL    HW264172   7.256   1.478   3.969 -0.9567  0.9444 -0.2898
19906SOL     OW64173   3.460   0.858  10.775 -0.0117  1.0169  0.4183
19906SOL    HW164174   3.437   0.921  10.843 -1.2245  0.7488  0.2795
19906SOL    HW264175   3.391   0.792  10.778 -0.3084  1.1946 -1.2986
19907SOL     OW64176   8.046   7.282   8.229 -0.4832 -0.5875 -0.3337
19907SOL    HW164177   7.978   7.237   8.181  0.2669 -0.7365 -1.2914
19907SOL    HW264178   8.104   7.213   8.261  0.5830 -0.3625 -1.6723
19908SOL     OW64179  10.797   0.797   2.065 -0.4452 -0.0491 -0.0818
19908SOL    HW164180  10.803   0.780   2.160  1.0056  0.8375  0.0033
19908SOL    HW264181  10.869   0.747   2.027 -0.7263 -0.0091 -0.6809
19909SOL     OW64182   3.585   1.939   7.151  0.1997 -0.5309 -0.0256
19909SOL    HW164183   3.639   2.018   7.142 -0.0816 -0.0922  1.7634
19909SOL    HW264184   3.622   1.877   7.088  1.3852  0.5198 -0.3963
19910SOL     OW64185   9.155   8.916   4.782 -0.0214 -0.0248  0.3154
19910SOL    HW164186   9.116   8.828   4.787  1.5389 -0.7684 -0.0066
19910SOL    HW264187   9.212   8.922   4.859  0.4021  0.4352 -0.0257
19911SOL     OW64188   3.624   0.903   6.975  0.4022 -0.2813 -0.1472
19911SOL    HW164189   3.585   0.835   7.031  0.0747  1.2089  1.5075
19911SOL    HW264190   3.701   0.861   6.937 -2.0638 -3.0178 -2.7206
19912SOL     OW64191   1.189   1.441   3.521  0.3464  0.2571 -0.4810
19912SOL    HW164192   1.127   1.464   3.591  0.2559  1.0268 -0.7967
19912SOL    HW264193   1.210   1.349   3.537  1.4345  0.7742  1.4148
19913SOL     OW64194   0.844   0.829   8.759 -0.4192 -0.6883  0.2569
19913SOL    HW164195   0.870   0.741   8.786 -1.4651 -1.0823  0.0360
19913SOL    HW264196   0.904   0.887   8.805 -1.2402 -1.4064  2.3405
19914SOL     OW64197   1.515   6.153  10.527 -0.0619 -0.3133  0.0962
19914SOL    HW164198   1.587   6.214  10.542 -1.4553  1.7664 -1.2011
19914SOL    HW264199   1.558   6.068  10.519  2.0838  0.6177  0.8230
19915SOL     OW64200   7.556   1.055   8.606  0.3132  0.0209 -0.1199
19915SOL    HW164201   7.643   1.093   8.593  0.0486  1.5078  2.1053
19915SOL    HW264202   7.510   1.117   8.662 -1.5437 -1.6774  0.3436
19916SOL     OW64203   5.844   9.459   0.563 -0.2010 -0.1148  0.1360
19916SOL    HW164204   5.797   9.376   0.552  0.1182 -0.0474 -2.2947
19916SOL    HW264205   5.927   9.434   0.604 -0.4350 -0.8730  0.1692
19917SOL     OW64206   0.448   9.025   1.409  0.3677  0.2384  0.2511
19917SOL    HW164207   0.454   8.941   1.455  0.6316 -0.2201 -0.6063
19917SOL    HW264208   0.513   9.019   1.340 -0.1333  0.8583 -0.2803
19918SOL     OW64209   3.674  10.223   0.603 -0.1944 -0.3754  0.0651
19918SOL    HW164210   3.647  10.193   0.690  0.6989  0.3984  0.6156
19918SOL    HW264211   3.602  10.280   0.575  0.6488  1.4118  1.3892
19919SOL     OW64212   8.898   0.318   5.282 -0.9067 -0.4949 -0.3980
19919SOL    HW164213   8.888   0.394   5.226  1.1010 -0.0884 -0.2740
19919SOL    HW264214   8.871   0.348   5.369  1.3679  0.6407 -0.0040
19920SOL     OW64215   2.578  11.019   2.545  0.2546 -0.8464  0.1397
19920SOL    HW164216   2.518  11.046   2.615 -1.5614 -2.8446 -0.5382
19920SOL    HW264217   2.522  11.002   2.470  2.0427  0.1462 -1.5068
19921SOL     OW64218   4.341   1.664   4.482  0.0281 -0.3866 -0.2336
19921SOL    HW164219   4.309   1.670   4.392 -0.0398 -0.0858 -0.1919
19921SOL    HW264220   4.423   1.615   4.475  0.6882  0.7199 -0.6389
19922SOL     OW64221   7.965   2.627   2.584  0.2607  0.7000 -0.5000
19922SOL    HW164222   8.051   2.648   2.548 -0.2151  0.5187 -1.8035
19922SOL    HW264223   7.975   2.540   2.621  1.0792  1.3800  0.9402
19923SOL     OW64224   1.185   4.822   2.180  0.3256 -0.4410 -0.3319
19923SOL    HW164225   1.101   4.831   2.226  0.1428 -1.9742 -0.3198
19923SOL    HW264226   1.165   4.849   2.090 -0.5691 -2.1035 -0.6768
19924SOL     OW64227   9.731   5.528   8.793  0.0957 -0.1097 -0.0525
19924SOL    HW164228   9.688   5.505   8.875  2.0770  0.9429  1.3541
19924SOL    HW264229   9.672   5.591   8.752 -1.0118 -0.7912  0.4381
19925SOL     OW64230   9.590   8.973   4.735  0.6234 -0.3256 -0.3602
19925SOL    HW164231   9.648   8.898   4.750  1.7959  0.9959  2.4693
19925SOL    HW264232   9.649   9.042   4.703  0.4573  0.6694  1.3803
19926SOL     OW64233   9.311   0.902  10.456 -0.4507  0.2705  0.1390
19926SOL    HW164234   9.218   0.910  10.435 -0.3246 -0.6028 -0.8734
19926SOL    HW264235   9.356   0.947  10.385  0.0239 -3.6175 -2.3721
19927SOL     OW64236   8.288  11.033   0.718 -0.2145  0.3067 -0.0476
19927SOL    HW164237   8.205  11.008   0.678 -0.7719 -0.1301  1.2937
19927SOL    HW264238   8.313  11.115   0.675 -1.2857  0.3870 -0.5384
19928SOL     OW64239   1.811   0.552   0.235 -0.2519 -0.4837 -0.8099
19928SOL    HW164240   1.790   0.645   0.239 -1.4413 -0.7945  0.9691
19928SOL    HW264241   1.728   0.509   0.218  0.2418 -1.2681 -1.3379
19929SOL     OW64242   9.185   2.244  10.312 -0.1215  0.1131  0.6053
19929SOL    HW164243   9.103   2.231  10.265 -0.1645  0.2014  0.6535
19929SOL    HW264244   9.243   2.286  10.249 -0.6854  1.6875  1.0793
19930SOL     OW64245   2.882   5.206   4.863 -0.3250 -0.4700 -0.2794
19930SOL    HW164246   2.907   5.115   4.877  1.2443 -0.0957 -0.3558
19930SOL    HW264247   2.861   5.239   4.950 -0.0674 -0.6854 -0.1330
19931SOL     OW64248   9.519   6.417   6.206  0.2213  0.3104 -0.6364
19931SOL    HW164249   9.543   6.325   6.209  0.5594  0.3995 -0.6081
19931SOL    HW264250   9.423   6.416   6.198  0.3325 -0.0705 -2.2985
19932SOL     OW64251   2.362   4.686   5.938  0.4263 -0.1870 -0.3738
19932SOL    HW164252   2.310   4.643   6.006  2.4664 -1.6226  0.4112
19932SOL    HW264253   2.453   4.668   5.964  1.3354  2.0679 -1.7192
19933SOL     OW64254   5.048   6.923   8.486 -0.0588 -0.3017 -0.2810
19933SOL    HW164255   5.042   6.918   8.391  0.1419 -0.4266 -0.2873
19933SOL    HW264256   5.091   7.007   8.503  0.8773 -0.7561 -0.3419
19934SOL     OW64257   4.453  10.857   0.620 -0.3574 -0.3619 -0.1343
19934SOL    HW164258   4.547  10.872   0.609 -0.3898 -0.7901 -1.1535
19934SOL    HW264259   4.420  10.938   0.659  0.5790 -0.5857  1.2026
19935SOL     OW64260   1.687   3.110   2.586 -0.0386  0.6333 -0.1143
19935SOL    HW164261   1.713   3.126   2.495 -0.1283  0.3620 -0.1877
19935SOL    HW264262   1.708   3.018   2.602 -1.4281  0.2504 -0.3433
19936SOL     OW64263   2.881   0.398   4.380 -0.2491 -0.1081  0.6211
19936SOL    HW164264   2.811   0.417   4.318  0.7359 -2.3044 -1.2949
19936SOL    HW264265   2.835   0.367   4.459 -1.4726 -0.6873 -0.2850
19937SOL     OW64266   6.458   5.836   7.887  0.1249 -0.4869  0.3082
19937SOL    HW164267   6.536   5.785   7.864 -0.2114 -0.4577 -0.9793
19937SOL    HW264268   6.413   5.848   7.804 -1.6501 -1.1372  1.1403
19938SOL     OW64269   2.358   5.492  10.969  0.3013 -0.0860  0.6699
19938SOL    HW164270   2.321   5.464  11.053  4.1902  0.8114  2.9286
19938SOL    HW264271   2.347   5.587  10.969 -0.7560 -0.1874 -0.4886
19939SOL     OW64272   4.949   8.074   0.804  0.2019 -0.3425  0.5684
19939SOL    HW164273   5.038   8.062   0.769 -0.0356  1.0000 -0.5973
19939SOL    HW264274   4.928   8.165   0.785 -1.4456 -0.6443  0.7930
19940SOL     OW64275  10.591   6.834   3.232 -0.0235  0.0950 -0.4443
19940SOL    HW164276  10.684   6.822   3.211 -0.1825 -1.3547 -0.4076
19940SOL    HW264277  10.592   6.872   3.319  0.5420  0.1142 -0.4505
19941SOL     OW64278   8.968   6.248   0.749 -0.1350  0.4201  0.6599
19941SOL    HW164279   9.043   6.299   0.720  0.0374  0.0643  0.4768
19941SOL    HW264280   8.923   6.304   0.812  1.2636 -0.0358  2.1297
19942SOL     OW64281   1.824   0.001   0.309  1.0993  0.1298  0.0677
19942SOL    HW164282   1.888  -0.006   0.238  0.4276  0.3740 -0.5739
19942SOL    HW264283   1.740   0.012   0.264  0.2950 -2.2556  0.8171
19943SOL     OW64284   7.491   6.524   8.041 -0.4509 -0.0566  0.1658
19943SOL    HW164285   7.529   6.501   7.956 -1.1023  1.7495 -0.6733
19943SOL    HW264286   7.402   6.491   8.038 -0.4537 -0.0479  0.1585
19944SOL     OW64287  10.816   8.005   5.578  0.4874  0.1342  0.4551
19944SOL    HW164288  10.844   7.922   5.619  0.7127  0.2174  0.4694
19944SOL    HW264289  10.781   7.978   5.493  1.1411  0.0868  0.1960
19945SOL     OW64290  10.027  10.731   8.877  0.5576  0.0523  0.1652
19945SOL    HW164291   9.966  10.696   8.812 -0.4612  0.7125  0.7363
19945SOL    HW264292  10.063  10.653   8.920  0.0781 -0.3505 -0.1435
19946SOL     OW64293   4.134   3.359   6.497  0.1674 -0.3534  0.2860
19946SOL    HW164294   4.060   3.419   6.492 -0.1368 -0.6146  1.3162
19946SOL    HW264295   4.094   3.272   6.500  0.4941 -0.4867  1.0924
19947SOL     OW64296   0.584  10.717   4.310 -0.0531 -0.1690  0.6498
19947SOL    HW164297   0.609  10.626   4.294  1.5796  0.1994  0.9091
19947SOL    HW264298   0.641  10.768   4.252  0.3581  0.7696  1.8253
19948SOL     OW64299   2.711   4.199   7.839  0.8342 -0.4057  0.4744
19948SOL    HW164300   2.740   4.138   7.771  1.2832 -0.7247  0.9490
19948SOL    HW264301   2.743   4.284   7.810  2.9204 -0.8482  1.3496
19949SOL     OW64302   4.233   8.144   3.224 -0.7276  0.2638  0.1143
19949SOL    HW164303   4.320   8.149   3.264 -0.7650 -0.7266  0.3534
19949SOL    HW264304   4.200   8.233   3.229 -0.6148  0.2438  2.0795
19950SOL     OW64305   7.590  10.279   1.600 -0.2957  0.0317 -0.1105
19950SOL    HW164306   7.654  10.293   1.530 -0.0821  0.3957  0.1564
19950SOL    HW264307   7.584  10.364   1.644  0.0586 -0.3701  0.7247
19951SOL     OW64308   4.900  10.119   9.722  0.5252 -0.0776 -0.1719
19951SOL    HW164309   4.845  10.092   9.794 -1.1544  0.4847 -1.1944
19951SOL    HW264310   4.990  10.101   9.752  0.0042  1.3954  2.5712
19952SOL     OW64311   2.083   3.056  10.244  0.7785 -0.0630  0.3597
19952SOL    HW164312   2.062   3.107  10.165 -0.1426 -1.7629 -0.5393
19952SOL    HW264313   2.011   3.075  10.304 -1.1481 -2.3977 -1.0418
19953SOL     OW64314   8.214   7.663   2.584 -0.5811 -0.3758 -0.5369
19953SOL    HW164315   8.270   7.693   2.513 -0.0472  1.0579  0.4478
19953SOL    HW264316   8.131   7.708   2.570  0.0925  1.3436  0.7149
19954SOL     OW64317   9.924   0.365   9.879  0.0332  0.1968 -0.0761
19954SOL    HW164318   9.930   0.358   9.784  2.5594  3.2917 -0.3058
19954SOL    HW264319   9.921   0.459   9.896  0.6240 -0.2217  2.9250
19955SOL     OW64320   0.456   5.823   5.072  0.0456  0.0897  0.1072
19955SOL    HW164321   0.381   5.765   5.070 -0.7562  1.1129 -0.7286
19955SOL    HW264322   0.525   5.772   5.114 -1.1633 -0.7983  1.0831
19956SOL     OW64323   4.701   3.555  11.040  0.7462 -0.1226  0.1548
19956SOL    HW164324   4.686   3.619  10.970  0.7071  1.7418  1.8053
19956SOL    HW264325   4.794   3.560  11.058  0.7928 -0.7546  0.1205
19957SOL     OW64326   7.814   8.766   8.220  0.3497  0.4599  0.0420
19957SOL    HW164327   7.749   8.696   8.211  0.4988  0.4458 -1.1295
19957SOL    HW264328   7.852   8.752   8.307  0.0097 -0.6043  0.0392
19958SOL     OW64329   7.152   9.742   8.824  0.4128  0.2737 -0.0951
19958SOL    HW164330   7.159   9.810   8.891  0.4076 -0.5068  0.7116
19958SOL    HW264331   7.130   9.790   8.744 -1.7723  1.0531  0.8921
19959SOL     OW64332   9.081   4.837   2.142  0.1195 -0.2425 -0.0621
19959SOL    HW164333   9.113   4.756   2.181 -1.3734 -0.3205  1.1045
19959SOL    HW264334   9.092   4.824   2.048 -0.8670 -2.1776  0.0334
19960SOL     OW64335  10.150   7.095  10.138  0.5715  0.1963 -0.0598
19960SOL    HW164336  10.240   7.127  10.146  0.6430  1.5045 -3.9761
19960SOL    HW264337  10.100   7.171  10.109 -1.2609 -1.0901 -0.4775
19961SOL     OW64338   1.379   7.704   0.138 -0.6085 -0.2964  0.1070
19961SOL    HW164339   1.384   7.609   0.145  0.3121 -0.1360  2.3319
19961SOL    HW264340   1.285   7.723   0.144 -0.8584 -1.0484 -0.9688
19962SOL     OW64341   3.679   0.245   2.221 -0.4873 -0.4580 -0.3115
19962SOL    HW164342   3.587   0.261   2.241 -0.9481 -2.6838 -0.3799
19962SOL    HW264343   3.721   0.235   2.306 -0.1290  1.2606 -0.2579
19963SOL     OW64344   3.419   8.578  10.647  0.4109 -0.7357 -0.1213
19963SOL    HW164345   3.419   8.522  10.724  0.1513  0.7148  0.9773
19963SOL    HW264346   3.486   8.540  10.590  2.1327 -0.6585  1.7381
19964SOL     OW64347   0.839   5.537   5.316  0.0719  0.2314  0.0340
19964SOL    HW164348   0.881   5.491   5.389  0.1151 -0.5387 -0.4500
19964SOL    HW264349   0.890   5.509   5.239 -1.2364 -0.6458 -0.5612
19965SOL     OW64350  10.981   8.440   5.692  0.1309 -0.3375  0.2210
19965SOL    HW164351  10.981   8.455   5.597  1.5211  1.9428  0.5100
19965SOL    HW264352  10.889   8.448   5.718 -0.0091  1.3640 -0.6604
19966SOL     OW64353   8.690   9.723   2.899  0.3260 -0.7890 -0.5714
19966SOL    HW164354   8.613   9.767   2.862  1.0226  1.3617  0.3891
19966SOL    HW264355   8.739   9.692   2.823 -1.0954 -1.5419 -1.2130
19967SOL     OW64356  10.041   3.266   6.242  0.3954  0.0446 -0.0229
19967SOL    HW164357  10.016   3.181   6.206  0.5444 -0.4426  0.9949
19967SOL    HW264358   9.969   3.324   6.219  1.4725  0.3406 -3.0707
19968SOL     OW64359  10.882   6.715   3.456 -0.0670 -0.4529 -0.6395
19968SOL    HW164360  10.828   6.790   3.483  0.1907 -0.0379 -1.2389
19968SOL    HW264361  10.887   6.723   3.361 -0.0905 -1.2793 -0.7185
19969SOL     OW64362   6.210   9.198   2.484  0.5906  0.3240 -0.1937
19969SOL    HW164363   6.242   9.191   2.394 -0.2591  0.6727 -0.5397
19969SOL    HW264364   6.242   9.283   2.515  0.1396  0.6052 -0.4865
19970SOL     OW64365   7.661   1.955   8.063 -0.2439  0.2668 -0.2966
19970SOL    HW164366   7.624   2.036   8.097 -1.0884  0.5771 -1.8554
19970SOL    HW264367   7.584   1.901   8.042  0.2413  0.0911 -1.6606
19971SOL     OW64368   7.610   5.292   3.781 -0.3906 -0.2673 -0.2470
19971SOL    HW164369   7.618   5.198   3.769 -0.4636 -0.3548  0.3768
19971SOL    HW264370   7.519   5.312   3.759 -0.3221 -0.3075 -0.5759
19972SOL     OW64371   6.366   8.979   8.280  0.0556 -0.7532 -0.3012
19972SOL    HW164372   6.279   9.019   8.271  0.2617 -0.5949 -1.8868
19972SOL    HW264373   6.348   8.885   8.290 -0.2909 -1.0748 -3.1715
19973SOL     OW64374   6.710   0.970   4.903 -0.0504 -0.3282  0.1469
19973SOL    HW164375   6.746   0.988   4.990  0.6870 -0.0500 -0.2109
19973SOL    HW264376   6.621   0.940   4.920 -0.7655  1.9822  0.8880
19974SOL     OW64377   7.014   0.683  10.183 -0.1737  0.5954  0.0824
19974SOL    HW164378   7.011   0.664  10.089 -0.5594  0.6505  0.0825
19974SOL    HW264379   7.102   0.718  10.197 -0.1195  0.6037 -0.2622
19975SOL     OW64380   2.110   2.445   7.575 -0.3031 -0.1610 -0.0226
19975SOL    HW164381   2.022   2.424   7.544 -1.1046  1.3782  1.0268
19975SOL    HW264382   2.163   2.452   7.496 -1.2215 -0.7009 -0.6975
19976SOL     OW64383   6.074   3.865   3.087 -0.4329  0.3515  1.1246
19976SOL    HW164384   6.064   3.879   3.181 -0.0203 -1.1450  1.4120
19976SOL    HW264385   6.033   3.780   3.070  2.0247 -0.8249  0.5058
19977SOL     OW64386   8.193   9.080   0.367  0.4457 -0.1644 -0.4709
19977SOL    HW164387   8.256   9.054   0.434  2.2484 -0.3940 -2.1847
19977SOL    HW264388   8.117   9.022   0.382 -0.3203  1.4611  2.8837
19978SOL     OW64389  10.090  10.838   2.977 -0.8027  0.2570  1.1142
19978SOL    HW164390  10.138  10.758   2.998 -0.8785  0.0288  0.4474
19978SOL    HW264391  10.147  10.885   2.916 -1.1901  0.2341  0.7318
19979SOL     OW64392   4.435   8.540   0.394 -0.3020  0.0257 -0.1470
19979SOL    HW164393   4.357   8.502   0.354  0.5965 -0.4493 -1.5567
19979SOL    HW264394   4.480   8.466   0.434 -0.3364  0.2220  0.2625
19980SOL     OW64395   4.773   5.744   9.251  0.1506 -0.6690 -0.4474
19980SOL    HW164396   4.682   5.763   9.272  0.9898  1.7640  1.5314
19980SOL    HW264397   4.787   5.782   9.164 -0.3807  0.2273 -0.1493
19981SOL     OW64398   0.440   2.343   8.414  0.6095 -0.0400 -0.1878
19981SOL    HW164399   0.410   2.274   8.355 -0.2631 -0.3096  0.5543
19981SOL    HW264400   0.527   2.367   8.380  0.9840 -1.5813 -0.3897
19982SOL     OW64401  10.615  11.030  10.834  0.7608 -0.3555  0.1456
19982SOL    HW164402  10.547  11.048  10.899  0.5670  1.1556 -0.4246
19982SOL    HW264403  10.618  10.935  10.827 -2.1714 -0.4610 -0.7032
19983SOL     OW64404   3.369   9.798   3.143  0.1402 -0.4766 -0.0616
19983SOL    HW164405   3.397   9.710   3.121  1.3107  0.0667 -0.8479
19983SOL    HW264406   3.425   9.825   3.215  0.0130 -0.2562 -0.0424
19984SOL     OW64407  10.081   0.383   8.058  0.3482  0.0464  0.3805
19984SOL    HW164408  10.085   0.339   8.143  0.7579  0.3588  0.5312
19984SOL    HW264409   9.996   0.359   8.022 -0.7959  1.6489  1.8425
19985SOL     OW64410   9.239   5.966   9.755  0.5421 -0.2060 -0.3080
19985SOL    HW164411   9.263   5.964   9.847  0.3036 -1.5005 -0.2569
19985SOL    HW264412   9.317   5.933   9.710  0.7551  0.6698 -0.6088
19986SOL     OW64413   9.280   0.765   6.195 -0.1223 -0.5429  0.7397
19986SOL    HW164414   9.230   0.838   6.231  0.6035 -0.5683  1.8347
19986SOL    HW264415   9.235   0.687   6.227  0.6357 -0.5665  1.8063
19987SOL     OW64416   7.608   3.628   2.603 -1.0132  0.1626 -0.3665
19987SOL    HW164417   7.532   3.603   2.550 -0.7829 -0.1410 -0.5579
19987SOL    HW264418   7.625   3.551   2.657 -0.8340  0.2281 -0.3313
19988SOL     OW64419   5.077   1.946   5.882  0.4846 -0.0606 -0.4376
19988SOL    HW164420   5.083   1.915   5.972  0.9143  1.9765  0.2950
19988SOL    HW264421   5.035   2.032   5.889 -0.0609 -0.1299 -2.2526
19989SOL     OW64422   2.326   6.002   6.907  0.1682 -0.5601 -0.5521
19989SOL    HW164423   2.395   6.069   6.906  1.2415 -1.6360 -1.9974
19989SOL    HW264424   2.365   5.929   6.955 -0.6651 -0.5266  0.2084
19990SOL     OW64425   3.753   0.105   3.689  0.0141  0.4878 -0.0654
19990SOL    HW164426   3.725   0.175   3.747  0.1298  1.4046 -1.0866
19990SOL    HW264427   3.716   0.025   3.728 -1.2565  1.2674  0.3783
19991SOL     OW64428   0.339   0.616  10.972  0.5033 -0.2801 -0.3621
19991SOL    HW164429   0.267   0.554  10.961 -0.0196 -0.0271  1.3088
19991SOL    HW264430   0.306   0.698  10.937 -0.3689  0.0328  1.0980
19992SOL     OW64431  10.498   0.046   8.041 -0.3257 -0.0968  0.8154
19992SOL    HW164432  10.414   0.043   7.996 -0.4725  1.3273  0.9636
19992SOL    HW264433  10.478   0.027   8.133 -0.0546 -2.7769  0.4184
19993SOL     OW64434   3.014   8.946  11.066  0.1603  0.3055 -0.2102
19993SOL    HW164435   2.926   8.970  11.097 -0.3204  0.1895 -1.4214
19993SOL    HW264436   3.012   8.965  10.973  1.6001  0.7539 -0.1726
19994SOL     OW64437   8.290   7.552   8.881 -0.0546 -0.0888  0.1525
19994SOL    HW164438   8.231   7.545   8.956  0.2025 -0.0382  0.3623
19994SOL    HW264439   8.378   7.543   8.919  0.0736 -0.1331 -0.1516
19995SOL     OW64440   2.665   4.312   7.556 -0.1528  0.3535 -0.5616
19995SOL    HW164441   2.610   4.307   7.634  0.3223 -0.4859 -0.2657
19995SOL    HW264442   2.732   4.377   7.577 -0.2656  0.4236 -0.4246
19996SOL     OW64443   1.035   5.266   9.748 -0.3186 -0.3008 -0.1380
19996SOL    HW164444   1.008   5.339   9.694  1.0911  0.0824 -0.3709
19996SOL    HW264445   1.086   5.306   9.819  2.9060 -1.1300 -1.7669
19997SOL     OW64446   4.003   1.684  10.893 -0.0752  0.0232  0.0167
19997SOL    HW164447   3.967   1.772  10.880 -0.4651 -0.1935 -0.4387
19997SOL    HW264448   3.981   1.662  10.983  0.2496  0.4941  0.2127
19998SOL     OW64449   7.447   6.257   0.986 -0.1505 -0.0882  0.3715
19998SOL    HW164450   7.393   6.332   0.958 -0.7951  0.2624  2.3796
19998SOL    HW264451   7.457   6.204   0.907 -0.1234  1.8361 -0.9829
19999SOL     OW64452   2.937   0.590   5.643  0.0610  0.7540 -0.6472
19999SOL    HW164453   2.918   0.560   5.554 -0.1356 -0.4874 -0.2132
19999SOL    HW264454   2.854   0.580   5.690  0.3435  0.7019 -0.1482
20000SOL     OW64455   2.459   8.606   8.951 -0.1776 -0.3679  0.9331
20000SOL    HW164456   2.542   8.612   8.904  0.2708 -0.7236  1.6718
20000SOL    HW264457   2.444   8.694   8.985 -0.5076 -0.1067  0.1349
20001SOL     OW64458   9.141   5.816   8.023 -0.5381 -0.5645  0.3387
20001SOL    HW164459   9.128   5.774   7.938 -1.0429 -1.4486  0.8279
20001SOL    HW264460   9.208   5.763   8.066  4.6200  3.4278 -1.8002
20002SOL     OW64461   2.876  10.834   0.811  0.2447  0.0345 -0.9465
20002SOL    HW164462   2.877  10.926   0.837  0.8076 -0.3266  0.4325
20002SOL    HW264463   2.784  10.808   0.820  0.3029  0.1182  0.0443
20003SOL     OW64464   8.827   4.371   2.034 -0.1451  0.5911  0.4079
20003SOL    HW164465   8.752   4.321   2.004  1.5264 -1.5145 -0.4843
20003SOL    HW264466   8.798   4.410   2.117 -2.1171 -0.3422  0.2065
20004SOL     OW64467   2.096   8.942   2.773  0.0405  0.0530 -0.1327
20004SOL    HW164468   2.086   8.979   2.685 -1.4432 -1.1243 -0.5014
20004SOL    HW264469   2.053   9.006   2.830 -0.4097  0.0607 -0.4690
20005SOL     OW64470   9.632   3.475  10.862 -0.4653  0.0970  0.4278
20005SOL    HW164471   9.581   3.395  10.873 -1.4095  0.9422  3.1497
20005SOL    HW264472   9.616   3.524  10.943  2.9320  1.4229  0.4489
20006SOL     OW64473   2.820   5.935   0.649 -0.1701  0.9054 -0.0365
20006SOL    HW164474   2.913   5.958   0.654 -0.2170  0.8551  1.3338
20006SOL    HW264475   2.818   5.840   0.660 -0.1353  0.3239 -3.8113
20007SOL     OW64476   5.792   3.809   3.214  0.5645 -0.4367 -0.0649
20007SOL    HW164477   5.825   3.776   3.298  0.2681 -1.7316 -0.4352
20007SOL    HW264478   5.854   3.774   3.150  1.3075  1.2835 -0.3398
20008SOL     OW64479   7.741   8.008   1.751 -0.4348  0.0915  0.8578
20008SOL    HW164480   7.800   8.070   1.794 -1.2792  1.2877  0.3420
20008SOL    HW264481   7.798   7.952   1.699  0.2061  1.9050 -0.4893
20009SOL     OW64482   6.518   6.196   9.724  0.1301  0.5238 -0.6337
20009SOL    HW164483   6.480   6.132   9.784 -0.8988 -0.1896 -2.0185
20009SOL    HW264484   6.596   6.228   9.771 -1.6245  1.4100  1.9272
20010SOL     OW64485   3.512  11.039   6.595 -0.0895 -0.1507 -0.0718
20010SOL    HW164486   3.425  11.000   6.589  0.5095 -1.2869 -3.2333
20010SOL    HW264487   3.564  10.991   6.531  1.6931  3.4567 -1.5686
20011SOL     OW64488   5.979   1.689   2.379 -0.3443 -0.2523 -0.1625
20011SOL    HW164489   5.891   1.727   2.377 -0.6575 -0.9776 -0.3101
20011SOL    HW264490   6.036   1.762   2.357 -0.9179  0.2070 -0.1604
20012SOL     OW64491   0.691   6.019   1.491 -0.1818 -0.5734 -0.3130
20012SOL    HW164492   0.698   5.983   1.403 -0.6330 -0.8312 -0.2433
20012SOL    HW264493   0.602   5.998   1.519 -1.2084  2.3434 -1.0593
20013SOL     OW64494   8.595  10.149   1.536  0.5742  0.4767 -0.0832
20013SOL    HW164495   8.594  10.229   1.589 -0.3338  0.3578  0.0911
20013SOL    HW264496   8.688  10.128   1.526  0.8154 -0.6356  3.2272
20014SOL     OW64497  10.681   1.166  10.186 -0.3072 -0.0568  0.2633
20014SOL    HW164498  10.749   1.231  10.165 -1.3306  0.8032 -0.5016
20014SOL    HW264499  10.729   1.093  10.226  1.4344 -0.6536 -2.6477
20015SOL     OW64500   6.518  10.336   0.159  0.2160 -0.4988  0.1828
20015SOL    HW164501   6.505  10.393   0.235 -0.4145 -0.0668 -0.2445
20015SOL    HW264502   6.608  10.351   0.133  0.0856  0.2525  0.1281
20016SOL     OW64503   3.101   1.561   9.039 -0.2350  0.8002  0.3757
20016SOL    HW164504   3.165   1.505   9.083 -0.3899 -0.2881 -0.7450
20016SOL    HW264505   3.020   1.511   9.038 -0.2399  0.7820 -1.1238
20017SOL     OW64506   8.494  10.520   6.460  0.6568  0.9604 -0.3087
20017SOL    HW164507   8.511  10.602   6.415  0.3479  0.6831 -0.9471
20017SOL    HW264508   8.525  10.534   6.549  0.3788  1.8469 -0.3497
20018SOL     OW64509   2.976   7.771   5.656 -0.0445  0.5133  0.3960
20018SOL    HW164510   2.913   7.779   5.585 -0.0549  1.2262  0.4696
20018SOL    HW264511   2.968   7.854   5.703  1.1918  0.7636  0.1945
20019SOL     OW64512   9.174  10.246   7.257 -0.0085 -0.1335 -0.0090
20019SOL    HW164513   9.141  10.334   7.236  0.7702 -0.0761 -1.0761
20019SOL    HW264514   9.155  10.194   7.179  1.3506 -0.3799 -0.2079
20020SOL     OW64515   2.567   5.377   3.088 -0.1530 -0.2598  0.2195
20020SOL    HW164516   2.603   5.352   3.173 -2.8896  1.1879  1.9488
20020SOL    HW264517   2.590   5.469   3.079  0.4631 -0.5025 -0.8479
20021SOL     OW64518   8.975   1.835   5.604  0.1691  0.4159  0.1892
20021SOL    HW164519   8.937   1.748   5.597 -1.8905  1.3822 -2.0612
20021SOL    HW264520   8.974   1.854   5.698 -0.1569 -1.6105  0.6305
20022SOL     OW64521   5.528   6.912   4.743  0.3352  0.3722 -0.1115
20022SOL    HW164522   5.578   6.987   4.712 -0.2075  0.1565 -1.5833
20022SOL    HW264523   5.554   6.840   4.685  0.3089 -0.4081  0.8140
20023SOL     OW64524   0.309   8.646  10.130 -0.1477 -0.0936  0.0392
20023SOL    HW164525   0.227   8.660  10.083 -0.5001 -1.2814  0.2679
20023SOL    HW264526   0.350   8.732  10.132 -1.8029  0.7231  0.7293
20024SOL     OW64527   5.141   4.923  11.049  0.7000  0.4806 -0.5798
20024SOL    HW164528   5.118   4.866  11.122 -0.3277  0.2814 -1.0453
20024SOL    HW264529   5.095   4.886  10.974 -0.0264  1.9421 -0.8906
20025SOL     OW64530   7.657   3.909   3.254 -0.7173 -0.3901  0.5383
20025SOL    HW164531   7.725   3.868   3.202 -0.0299  0.7503  0.5036
20025SOL    HW264532   7.647   3.997   3.216 -1.6925 -0.2887  0.9960
20026SOL     OW64533   3.031   3.787   9.309  0.8245  0.3560 -0.1588
20026SOL    HW164534   3.110   3.772   9.257 -0.0268 -0.1896 -1.3463
20026SOL    HW264535   2.969   3.721   9.278 -0.3905  1.3102  0.1364
20027SOL     OW64536   8.283   6.147  10.727  0.6304 -0.1106 -0.0442
20027SOL    HW164537   8.233   6.071  10.696 -0.2464  0.2515  0.4582
20027SOL    HW264538   8.288   6.205  10.651 -2.1981  1.1357  0.5801
20028SOL     OW64539   2.015   1.622   4.356  0.1431  0.1729  0.3150
20028SOL    HW164540   1.946   1.681   4.387  0.4453  0.7195 -0.0356
20028SOL    HW264541   1.985   1.592   4.270  0.6035  0.8842 -0.1097
20029SOL     OW64542   4.656   7.188   5.824 -0.3474 -0.5879  1.1101
20029SOL    HW164543   4.671   7.237   5.905 -1.2968  0.9784  0.4054
20029SOL    HW264544   4.742   7.156   5.799  0.3658  0.8528  1.5743
20030SOL     OW64545   5.567   4.824   9.692  0.0606  0.1856  0.1129
20030SOL    HW164546   5.644   4.875   9.665  0.1222  0.0739  0.0752
20030SOL    HW264547   5.604   4.749   9.740 -0.0598  0.5136  0.7256
20031SOL     OW64548   9.341   2.626   2.336 -0.4463  0.3524 -0.2580
20031SOL    HW164549   9.383   2.618   2.250 -0.4164  0.9855 -0.3012
20031SOL    HW264550   9.309   2.537   2.354 -0.5584  0.2368 -0.9719
20032SOL     OW64551   0.504   4.817   2.753 -0.1258 -0.4449  0.1903
20032SOL    HW164552   0.599   4.810   2.752 -0.0477  0.0822  1.5680
20032SOL    HW264553   0.473   4.727   2.759  0.1515 -0.8577 -2.8739
20033SOL     OW64554   5.162   8.775   1.866  0.2910  0.0206  0.0553
20033SOL    HW164555   5.255   8.783   1.848  0.2017  1.9099  0.1705
20033SOL    HW264556   5.153   8.796   1.959 -0.0520 -2.3901  0.6386
20034SOL     OW64557   7.788   0.019   0.579  0.0043  0.1240 -0.2368
20034SOL    HW164558   7.748  -0.030   0.651  0.1046 -0.5718 -0.6478
20034SOL    HW264559   7.716   0.037   0.520 -0.4104  2.1485  0.8032
20035SOL     OW64560   7.239  10.940   9.067 -0.0701  0.3185 -0.3200
20035SOL    HW164561   7.242  10.907   8.977 -0.1810  0.2139 -0.2853
20035SOL    HW264562   7.258  11.033   9.059 -0.3174  0.3554 -0.4778
20036SOL     OW64563   9.269   5.772  10.040  0.0946 -0.7322  0.1980
20036SOL    HW164564   9.195   5.742   9.986  0.2696  0.7096 -0.8936
20036SOL    HW264565   9.241   5.857  10.073  0.8188 -0.6958  0.7371
20037SOL     OW64566   4.284  10.554   0.194 -0.0215  0.3341 -0.2995
20037SOL    HW164567   4.236  10.560   0.276  0.8903  0.4911  0.2280
20037SOL    HW264568   4.219  10.576   0.127 -1.2864 -1.6637  0.1878
20038SOL     OW64569   6.874  10.917   1.303  0.0275 -0.3671 -0.4813
20038SOL    HW164570   6.845  10.886   1.388 -2.0383  1.4878 -0.4055
20038SOL    HW264571   6.857  10.844   1.243 -1.6874 -0.5543  0.1798
20039SOL     OW64572   3.017   4.045   5.504 -0.9947  0.0785  0.1299
20039SOL    HW164573   2.997   4.125   5.554 -0.7800  0.4809 -0.4084
20039SOL    HW264574   2.941   4.033   5.448 -0.8926  0.0775 -0.0073
20040SOL     OW64575   5.533  10.068   5.174 -0.1245  0.1267 -0.1730
20040SOL    HW164576   5.457  10.010   5.179 -0.0344  0.0777  0.8238
20040SOL    HW264577   5.608  10.011   5.193 -0.1825  0.8292  2.6317
20041SOL     OW64578   4.645   9.283   0.114 -0.3605  0.6134 -0.2808
20041SOL    HW164579   4.582   9.353   0.128 -0.8286 -0.3023  3.4423
20041SOL    HW264580   4.592   9.203   0.113  0.4814  0.0255  0.2738
20042SOL     OW64581   7.673   3.124   1.034 -0.4984  0.2995  0.4364
20042SOL    HW164582   7.742   3.186   1.056 -0.0004 -0.2859  0.5538
20042SOL    HW264583   7.672   3.123   0.938  0.1528 -0.2102  0.4212
20043SOL     OW64584   7.867   4.267   9.383 -1.1117  0.5208 -0.4123
20043SOL    HW164585   7.877   4.226   9.469  0.2985  1.7909  0.0623
20043SOL    HW264586   7.827   4.352   9.401  0.6604  1.4915 -0.7735
20044SOL     OW64587   5.484   9.420   2.567 -0.1195  0.5237 -0.1523
20044SOL    HW164588   5.389   9.420   2.552 -0.0340 -0.9053 -0.8608
20044SOL    HW264589   5.519   9.368   2.495  1.0928  0.0446  0.7627
20045SOL     OW64590  10.600  10.949   1.357 -0.1524  0.1172  0.3007
20045SOL    HW164591  10.685  10.904   1.362 -0.3873 -0.5923 -1.3115
20045SOL    HW264592  10.620  11.041   1.373  1.0284  0.0470 -0.6483
20046SOL     OW64593   9.275   3.772   1.958  0.0742 -0.0414 -0.2740
20046SOL    HW164594   9.347   3.808   2.010 -1.2578  1.3505  0.6614
20046SOL    HW264595   9.254   3.840   1.895 -0.6939 -0.2869 -0.2880
20047SOL     OW64596   1.965   3.554   9.460  0.0213 -0.1770 -0.1737
20047SOL    HW164597   1.878   3.589   9.439  0.1069 -1.5143 -3.3251
20047SOL    HW264598   2.026   3.617   9.424  0.3206 -0.3058  0.0998
20048SOL     OW64599   1.962   5.656   0.829  0.1885  0.6573 -0.7104
20048SOL    HW164600   2.023   5.706   0.883 -1.3791  1.3051  0.5703
20048SOL    HW264601   1.930   5.587   0.887 -1.1344  1.0451 -0.9316
20049SOL     OW64602   0.877   6.819   6.625 -0.1009  0.0427  0.2439
20049SOL    HW164603   0.859   6.733   6.586  2.1110 -0.4722  0.2312
20049SOL    HW264604   0.913   6.870   6.553  0.6602  0.2408  0.7530
20050SOL     OW64605   4.485   2.407   2.370  0.0271 -0.0421 -0.0026
20050SOL    HW164606   4.455   2.331   2.321 -0.9214 -0.5084  1.2439
20050SOL    HW264607   4.560   2.440   2.321  1.5407 -2.7659  0.2763
20051SOL     OW64608   2.523  10.204   6.298  0.0995 -0.4584 -0.9203
20051SOL    HW164609   2.567  10.245   6.223 -0.3580 -0.3859 -1.1560
20051SOL    HW264610   2.588  10.143   6.334  0.3284 -0.4845 -1.3687
20052SOL     OW64611   9.974   5.696   4.150 -0.2632 -0.1618 -0.2403
20052SOL    HW164612   9.951   5.756   4.221  0.3533 -1.5246  1.1902
20052SOL    HW264613   9.892   5.677   4.106 -0.6570  0.7338  0.0978
20053SOL     OW64614   6.361  10.595  10.809  0.5151  0.3489 -0.2067
20053SOL    HW164615   6.380  10.504  10.831  1.8215  0.3390 -1.2676
20053SOL    HW264616   6.444  10.630  10.777  0.0573  1.9502  0.2581
20054SOL     OW64617   4.873  10.887   7.040  0.1530  0.6874  0.1973
20054SOL    HW164618   4.807  10.956   7.050 -1.2459 -0.5019 -0.4757
20054SOL    HW264619   4.940  10.926   6.984 -0.6457  1.4917 -0.2199
20055SOL     OW64620   7.802   9.919  11.074  0.2141 -0.0669 -0.3497
20055SOL    HW164621   7.727   9.870  11.040  0.1489 -0.5568  0.4571
20055SOL    HW264622   7.775  10.011  11.068  0.5264 -0.0730 -2.3258
20056SOL     OW64623   5.828   1.653   8.232  0.1676  0.2032 -0.1320
20056SOL    HW164624   5.774   1.610   8.299 -1.1187  0.7921 -0.7507
20056SOL    HW264625   5.780   1.733   8.211  1.4512  0.8965 -0.5068
20057SOL     OW64626   1.330   8.515   4.567 -0.8466  0.6619 -0.3014
20057SOL    HW164627   1.280   8.460   4.507 -0.1982  1.0021 -1.1757
20057SOL    HW264628   1.267   8.540   4.635 -0.7881 -2.4346  1.0567
20058SOL     OW64629   6.263   1.071   3.731  0.0620 -0.3917  0.6918
20058SOL    HW164630   6.222   1.105   3.652  2.3296  0.5252 -0.1885
20058SOL    HW264631   6.190   1.047   3.788 -1.6518  1.3230 -0.6517
20059SOL     OW64632   5.553   4.759   9.145  0.1251  0.1043 -0.0321
20059SOL    HW164633   5.625   4.793   9.197 -0.2261  1.9822 -0.6967
20059SOL    HW264634   5.586   4.760   9.055 -0.6906  0.9313 -0.3367
20060SOL     OW64635  10.018  10.143   2.026 -0.5943  0.0364  0.0943
20060SOL    HW164636  10.073  10.220   2.043  1.7219 -1.5903  0.4468
20060SOL    HW264637   9.931  10.179   2.012 -0.0177  2.5628  2.2046
20061SOL     OW64638  10.522   3.638  10.526  0.0857 -0.1743 -0.2432
20061SOL    HW164639  10.481   3.641  10.612  1.0345 -1.9712  0.3333
20061SOL    HW264640  10.614   3.658  10.543  0.0654  0.6127 -1.0190
20062SOL     OW64641   3.995   0.953   4.108  0.4695  0.0394  0.2323
20062SOL    HW164642   3.961   0.914   4.188  2.4428  1.6047  1.9402
20062SOL    HW264643   3.951   1.039   4.102 -2.0720 -1.2532 -2.2195
20063SOL     OW64644   0.921   9.332   0.435  0.0422  0.1277 -0.0552
20063SOL    HW164645   1.005   9.302   0.468  0.6167  2.4720  0.7715
20063SOL    HW264646   0.857   9.293   0.495  0.4624 -1.7003 -0.7123
20064SOL     OW64647   3.740  10.936   8.112 -0.0727  0.0857  0.4490
20064SOL    HW164648   3.754  10.936   8.207  0.5206  0.9427  0.3833
20064SOL    HW264649   3.782  11.018   8.083 -1.1672  0.3558 -0.4109
20065SOL     OW64650   4.823   7.868   5.943 -0.6309 -0.3849  0.0770
20065SOL    HW164651   4.877   7.802   5.900 -0.7143  0.1569 -0.8794
20065SOL    HW264652   4.753   7.818   5.986  1.4604 -1.2771  2.7708
20066SOL     OW64653  10.507   7.873   3.215 -0.4024 -0.1345 -0.2407
20066SOL    HW164654  10.535   7.878   3.124  0.6546  0.3650  0.0961
20066SOL    HW264655  10.473   7.961   3.234  1.8004  0.6183  0.5677
20067SOL     OW64656   4.038   8.196   8.402 -0.1571 -0.4369 -0.3111
20067SOL    HW164657   4.000   8.157   8.481  0.7042 -1.7331 -0.5082
20067SOL    HW264658   4.110   8.250   8.435 -0.7195  0.2144 -0.1163
20068SOL     OW64659   6.010   8.094   1.748  0.0030 -0.0002  0.1057
20068SOL    HW164660   5.944   8.106   1.817  1.7456  0.0992  1.8364
20068SOL    HW264661   6.023   7.999   1.743  1.4805  0.0714  1.5939
20069SOL     OW64662   0.098  10.193   1.035  0.6227  0.1459 -0.3368
20069SOL    HW164663   0.138  10.116   0.995 -0.7598 -1.0395  0.5070
20069SOL    HW264664   0.070  10.164   1.122  0.3771  1.6938  0.1306
20070SOL     OW64665   9.307   8.740   6.730 -0.2140 -0.1435 -0.3591
20070SOL    HW164666   9.249   8.672   6.695 -0.4337  0.1563 -0.5853
20070SOL    HW264667   9.252   8.818   6.732  0.6657  0.5862 -2.2740
20071SOL     OW64668   1.025   2.462   5.432 -0.0367  0.3977 -0.3429
20071SOL    HW164669   0.951   2.414   5.467 -1.4440  1.8210 -1.2284
20071SOL    HW264670   1.091   2.395   5.414 -0.8608 -0.8349  0.9760
20072SOL     OW64671   3.280   5.969   2.042 -0.2009 -0.4224 -0.0425
20072SOL    HW164672   3.303   6.052   2.001  0.6862 -0.3862  0.4917
20072SOL    HW264673   3.310   5.977   2.132 -0.4925 -1.1639  0.1343
20073SOL     OW64674   5.463  10.151   6.986 -0.0266 -0.1140  0.0301
20073SOL    HW164675   5.438  10.224   6.929  0.9576 -1.5450 -2.3758
20073SOL    HW264676   5.429  10.073   6.943  0.6888 -1.2871  1.4688
20074SOL     OW64677   9.908   0.200   8.830 -0.4673  0.0812  0.0576
20074SOL    HW164678   9.998   0.229   8.842 -0.5813  0.4133  0.1060
20074SOL    HW264679   9.898   0.127   8.891 -0.1138 -0.2104 -0.2231
20075SOL     OW64680   1.078   8.378   2.035  0.3795  0.0043  0.2572
20075SOL    HW164681   1.035   8.435   1.972  1.6228  0.5951 -0.0826
20075SOL    HW264682   1.131   8.318   1.982  1.2433  0.3407  0.7151
20076SOL     OW64683  10.811   1.479   7.529  0.6220  0.1988 -0.0264
20076SOL    HW164684  10.758   1.532   7.589 -0.3758 -1.2681  0.4429
20076SOL    HW264685  10.809   1.527   7.446  0.1574  1.1332  0.5098
20077SOL     OW64686   8.984   5.072   9.802  0.4263 -0.4744 -0.1131
20077SOL    HW164687   9.074   5.099   9.786 -0.2438  0.7489 -2.2972
20077SOL    HW264688   8.954   5.129   9.873  0.8807  0.3637 -0.5740
20078SOL     OW64689   4.391   3.028  10.314  0.1435  0.0577 -0.4174
20078SOL    HW164690   4.470   3.079  10.296  1.1385 -2.0116 -2.3830
20078SOL    HW264691   4.417   2.966  10.383  0.6237 -1.3034 -1.7653
20079SOL     OW64692   9.629   3.505   0.761  0.9616 -0.0255  0.3010
20079SOL    HW164693   9.598   3.437   0.702 -0.1288  1.4205 -0.8447
20079SOL    HW264694   9.695   3.554   0.711  0.5198  0.8026  0.5027
20080SOL     OW64695   8.075   5.374   3.945  0.0386  0.8323 -0.4141
20080SOL    HW164696   8.146   5.430   3.914  1.0463 -0.6689 -0.9564
20080SOL    HW264697   7.998   5.430   3.945  1.2839  2.6457  0.6100
20081SOL     OW64698   3.377   5.521   9.291  0.0542  0.8477  0.8065
20081SOL    HW164699   3.297   5.486   9.330  0.4771  0.9756  1.8162
20081SOL    HW264700   3.354   5.609   9.263 -0.5601  0.3729 -0.2624
20082SOL     OW64701   2.492   8.316   7.741 -0.6998  0.2131  0.3230
20082SOL    HW164702   2.546   8.393   7.758 -1.5325  1.4066 -2.0064
20082SOL    HW264703   2.507   8.259   7.817  1.5761  1.7155  1.1153
20083SOL     OW64704   7.205   1.955   7.652  0.0689  0.3793  0.1976
20083SOL    HW164705   7.174   1.976   7.564  0.9101  1.8519  0.2227
20083SOL    HW264706   7.168   2.023   7.708  0.7045  0.2962  0.7334
20084SOL     OW64707   4.165   1.975   1.843  0.5120 -0.5405  0.2656
20084SOL    HW164708   4.088   2.013   1.887 -0.0220 -1.9849  0.6197
20084SOL    HW264709   4.189   1.900   1.896  0.6995 -1.5291 -1.1578
20085SOL     OW64710   5.452   7.596   3.553  0.5132  0.0668  0.2620
20085SOL    HW164711   5.494   7.586   3.467  2.6443 -0.7280  1.3279
20085SOL    HW264712   5.495   7.672   3.592 -1.3925  1.2715  0.1781
20086SOL     OW64713   4.851  10.229   4.790 -0.2054  0.2308  0.0535
20086SOL    HW164714   4.784  10.255   4.854 -0.2304  2.0102 -0.6363
20086SOL    HW264715   4.896  10.155   4.831 -0.2868  1.2404  2.1196
20087SOL     OW64716   1.829   5.030   3.991  0.1222  0.8036  0.2422
20087SOL    HW164717   1.751   5.078   3.963  1.1523  1.9380 -0.7583
20087SOL    HW264718   1.870   5.002   3.910  0.3782 -0.4494  0.7831
20088SOL     OW64719   9.864   3.383   9.114  0.2382 -0.1692 -0.1705
20088SOL    HW164720   9.949   3.406   9.151 -0.8606  2.0389  1.2321
20088SOL    HW264721   9.841   3.458   9.059 -1.0639 -0.4291 -0.0041
20089SOL     OW64722   1.131   1.965  10.251  0.0827  0.2442 -0.0684
20089SOL    HW164723   1.137   2.011  10.167  0.8139 -0.3269 -0.3329
20089SOL    HW264724   1.201   1.900  10.248  0.4057  0.5137  1.1735
20090SOL     OW64725  10.200   6.594   4.582  0.0729  0.2109 -0.4173
20090SOL    HW164726  10.105   6.583   4.578  0.1139 -0.8942  1.1295
20090SOL    HW264727  10.216   6.638   4.665  0.8919  0.9231 -0.9322
20091SOL     OW64728   2.697   0.754   2.139  0.1333  0.0837  0.2735
20091SOL    HW164729   2.642   0.800   2.203 -0.9751 -1.5380  0.5558
20091SOL    HW264730   2.653   0.767   2.055 -0.7170 -1.1327  0.4855
20092SOL     OW64731   9.663   1.000   2.487  0.1998 -0.5332  0.0604
20092SOL    HW164732   9.742   0.996   2.540  0.5539 -2.2914 -0.5558
20092SOL    HW264733   9.603   0.938   2.528 -1.9037  2.4898  2.0116
20093SOL     OW64734   0.152   0.160   4.405  0.0822  0.4566 -0.1384
20093SOL    HW164735   0.227   0.170   4.347 -0.6549  0.0378 -1.1993
20093SOL    HW264736   0.119   0.072   4.387  1.6124 -0.9527  3.1165
20094SOL     OW64737   1.924  10.744   9.040  0.0990  0.0086  0.7814
20094SOL    HW164738   1.887  10.675   9.096  0.2279 -0.2945  0.4983
20094SOL    HW264739   2.018  10.729   9.044  0.1825  0.6094  1.2817
20095SOL     OW64740   9.300  10.506  10.456  0.1596  0.0224 -0.5303
20095SOL    HW164741   9.212  10.476  10.476 -0.1408 -0.0932 -1.9434
20095SOL    HW264742   9.293  10.601  10.454  0.2900  0.0552  0.2985
20096SOL     OW64743   2.781   0.167  10.014  0.2936  0.1332 -0.0612
20096SOL    HW164744   2.754   0.076  10.009 -0.0938  0.1366  1.4731
20096SOL    HW264745   2.847   0.177   9.945 -0.7161 -0.9041 -1.2266
20097SOL     OW64746   3.299   3.374   3.317  0.9985 -0.2668  0.1499
20097SOL    HW164747   3.335   3.444   3.371  1.2877 -1.4149  1.5035
20097SOL    HW264748   3.283   3.302   3.378 -1.1806 -0.7127 -0.8380
20098SOL     OW64749   0.580   7.367  10.079 -0.1395  0.5489 -0.1033
20098SOL    HW164750   0.582   7.384   9.985  0.1125 -1.8671 -0.6020
20098SOL    HW264751   0.488   7.350  10.099 -0.2074  1.1585  0.1107
20099SOL     OW64752   4.920   6.353   2.669  0.0224 -0.1069 -0.4742
20099SOL    HW164753   5.001   6.343   2.719 -0.9408 -0.0796  1.1622
20099SOL    HW264754   4.916   6.276   2.614  1.0246 -0.2442 -0.3747
20100SOL     OW64755   6.774   7.709   7.776  0.1861 -0.1722  0.0930
20100SOL    HW164756   6.806   7.627   7.815  1.4296  1.0200  1.7241
20100SOL    HW264757   6.822   7.716   7.693 -0.6078 -1.5000 -0.5204
20101SOL     OW64758  10.793   8.167   6.971 -0.1806 -0.1323 -0.3663
20101SOL    HW164759  10.734   8.218   7.027  0.5728  1.0641 -0.6248
20101SOL    HW264760  10.832   8.103   7.030 -0.6892 -0.0162  0.1057
20102SOL     OW64761   9.669   7.050   4.662 -0.4057  0.2049 -0.1152
20102SOL    HW164762   9.681   6.989   4.735 -1.8950  1.4308  1.2309
20102SOL    HW264763   9.730   7.121   4.682 -1.4847  0.9911  0.5009
20103SOL     OW64764   8.743   9.687   4.385  0.1597 -1.1213 -0.0809
20103SOL    HW164765   8.820   9.699   4.441  0.0016 -2.2490  0.3910
20103SOL    HW264766   8.670   9.716   4.439  0.2703  0.3539 -0.6776
20104SOL     OW64767   8.338   6.746   3.534  0.3065  0.2000  0.2983
20104SOL    HW164768   8.372   6.835   3.544  0.1433  0.1760  1.2266
20104SOL    HW264769   8.281   6.734   3.610  0.7175 -0.8602  0.4559
20105SOL     OW64770   7.636   0.181   4.696  0.5698 -0.0465 -0.5273
20105SOL    HW164771   7.655   0.249   4.760  1.4814  0.4788 -1.3354
20105SOL    HW264772   7.656   0.099   4.742  1.4545  0.3312 -0.2208
20106SOL     OW64773   9.401   6.444   3.857  0.2447 -0.2221  0.5138
20106SOL    HW164774   9.429   6.356   3.833  1.4781  0.0625  0.8669
20106SOL    HW264775   9.328   6.430   3.918 -0.0745 -0.9769 -0.0230
20107SOL     OW64776   5.525   1.847   7.793 -0.5953  0.2012 -0.1479
20107SOL    HW164777   5.456   1.781   7.804 -0.5130 -0.6406 -3.4910
20107SOL    HW264778   5.588   1.828   7.862 -0.8462 -2.9297 -0.6432
20108SOL     OW64779   5.428  10.483   9.857 -0.1461 -0.0055  0.0114
20108SOL    HW164780   5.469  10.566   9.835 -1.1031  0.2860 -0.7179
20108SOL    HW264781   5.397  10.494   9.947  0.0076  0.3147  0.0245
20109SOL     OW64782   7.167   5.846   4.746  0.6591 -0.2875 -0.0370
20109SOL    HW164783   7.181   5.895   4.664  0.6874  1.4454  0.9500
20109SOL    HW264784   7.255   5.816   4.771  1.5931  3.4410  1.8425
20110SOL     OW64785   5.372   7.273   8.361  0.5788  0.2893 -0.6973
20110SOL    HW164786   5.367   7.245   8.270 -2.4201 -1.4571 -0.1382
20110SOL    HW264787   5.431   7.209   8.402 -1.2205 -1.4727 -0.7072
20111SOL     OW64788   5.009   5.569   6.178  0.1899  0.0609 -0.0416
20111SOL    HW164789   5.031   5.653   6.218 -2.1439  0.9232 -0.3896
20111SOL    HW264790   4.932   5.588   6.124 -0.8446 -2.4336  0.4331
20112SOL     OW64791   9.608   3.350   2.289 -0.2315 -0.2742  0.7414
20112SOL    HW164792   9.621   3.319   2.378 -0.0365 -1.3325  0.3514
20112SOL    HW264793   9.584   3.272   2.239 -1.2534  0.4529  0.0474
20113SOL     OW64794   7.700   9.744   5.873  0.2170  0.0632 -0.1760
20113SOL    HW164795   7.617   9.704   5.900 -0.2013  0.1857 -1.2625
20113SOL    HW264796   7.744   9.763   5.956 -0.7953 -0.0855  0.4220
20114SOL     OW64797   5.613   5.995   7.222  0.2798  0.1966 -0.2201
20114SOL    HW164798   5.545   5.949   7.172  0.7791 -1.0597  0.2061
20114SOL    HW264799   5.574   6.007   7.309  0.0492  0.8402 -0.4081
20115SOL     OW64800   2.413   1.969   1.990  0.0010 -0.0462 -0.2914
20115SOL    HW164801   2.419   2.022   1.911 -0.8214 -0.6968 -0.8099
20115SOL    HW264802   2.498   1.923   1.994  0.2875  0.4656 -0.4445
20116SOL     OW64803   7.024   1.016   3.876  0.5040  0.0012  0.0437
20116SOL    HW164804   7.000   1.012   3.784 -0.0495 -0.0728  0.1846
20116SOL    HW264805   6.965   0.954   3.919 -0.2422  1.0885  0.6479
20117SOL     OW64806   8.082   4.052   9.012  0.4245 -0.0916 -0.0158
20117SOL    HW164807   7.995   4.045   8.972  0.9739 -0.3769 -1.2005
20117SOL    HW264808   8.070   4.115   9.083 -0.6917  0.0719 -0.3196
20118SOL     OW64809   1.906   6.645   5.220 -0.4847 -0.3558 -0.0962
20118SOL    HW164810   1.951   6.563   5.196  0.4839 -0.0521  0.6157
20118SOL    HW264811   1.857   6.669   5.141  0.4787 -0.7941 -0.8528
20119SOL     OW64812   3.984   9.827   8.263  0.3131 -0.7212  0.3273
20119SOL    HW164813   3.919   9.757   8.271 -0.5334  0.0773  0.5154
20119SOL    HW264814   3.938   9.906   8.290  1.2240 -0.0622 -0.0086
20120SOL     OW64815   0.384  11.057   2.665  0.2501  0.0870 -0.4390
20120SOL    HW164816   0.476  11.068   2.640  0.6329 -0.4556  0.6921
20120SOL    HW264817   0.384  10.985   2.728 -1.0564 -0.4585 -1.0180
20121SOL     OW64818   5.445   2.424   9.170 -0.1394  0.1971  0.1253
20121SOL    HW164819   5.442   2.386   9.258  0.3100  1.8562  0.8913
20121SOL    HW264820   5.537   2.442   9.154 -0.0982 -0.9604 -1.1124
20122SOL     OW64821   3.259   1.200   2.883  0.3476 -0.1918  0.4359
20122SOL    HW164822   3.351   1.177   2.893  0.3184 -0.1998  0.7021
20122SOL    HW264823   3.259   1.275   2.824  0.6413  0.7263  1.5786
20123SOL     OW64824   9.405   6.866   7.008 -0.4756  0.4640  0.0808
20123SOL    HW164825   9.325   6.883   6.960 -0.7664  2.1236  1.0877
20123SOL    HW264826   9.464   6.826   6.944 -2.1747 -1.0874 -0.6012
20124SOL     OW64827   5.684   6.318   7.837 -0.2335 -0.2797 -0.2051
20124SOL    HW164828   5.758   6.274   7.795 -0.7171 -2.8881  1.4697
20124SOL    HW264829   5.720   6.353   7.918 -0.4765 -0.0112 -0.2113
20125SOL     OW64830   0.971   9.973   6.860  0.0053 -0.4973  0.6968
20125SOL    HW164831   1.003   9.917   6.931 -1.3322  0.0889  1.8186
20125SOL    HW264832   1.048  10.021   6.830  0.7567 -1.3744  1.1697
20126SOL     OW64833   5.619   6.940   0.698  0.0059  0.2330 -0.0248
20126SOL    HW164834   5.680   6.881   0.654 -0.5276  0.1789 -0.6927
20126SOL    HW264835   5.532   6.911   0.671 -0.2793  1.0709 -0.0366
20127SOL     OW64836  10.443   8.115   4.877 -0.1245 -0.4780 -0.2248
20127SOL    HW164837  10.509   8.115   4.808 -0.0810  1.2885 -0.2299
20127SOL    HW264838  10.435   8.206   4.903  0.6301 -1.2060  2.9004
20128SOL     OW64839   6.634   0.180  10.504  0.1146 -0.1978  0.3671
20128SOL    HW164840   6.661   0.268  10.478  0.3338 -0.2179  0.5198
20128SOL    HW264841   6.582   0.148  10.430 -0.8439  0.4506  0.7372
20129SOL     OW64842   4.386   4.254   2.011  0.1672 -0.4252 -0.5953
20129SOL    HW164843   4.473   4.293   2.024  0.4481 -0.4449 -2.1953
20129SOL    HW264844   4.327   4.329   2.009  0.8704  0.2738 -5.0705
20130SOL     OW64845   1.028   5.542   7.622 -0.0489  0.5725 -0.2004
20130SOL    HW164846   1.014   5.587   7.705 -2.1754  0.3214 -0.3517
20130SOL    HW264847   0.940   5.512   7.596  1.1538 -3.7459 -0.0629
20131SOL     OW64848   2.217   8.120   1.635 -0.0745 -0.5841  0.1326
20131SOL    HW164849   2.214   8.025   1.639  1.7464 -0.9096 -2.9058
20131SOL    HW264850   2.176   8.142   1.552 -1.0076  1.3693  1.0584
20132SOL     OW64851   0.573   6.910   5.482 -0.1885 -0.1773  0.2954
20132SOL    HW164852   0.560   6.924   5.388  1.3660 -0.2883  0.0358
20132SOL    HW264853   0.530   6.985   5.524 -1.3860 -0.4145 -0.4492
20133SOL     OW64854   2.507   7.599   4.823 -0.3674  0.4611  0.1487
20133SOL    HW164855   2.440   7.639   4.768  0.1188  2.8699  1.1952
20133SOL    HW264856   2.565   7.671   4.847  1.6335 -1.2340  0.6720
20134SOL     OW64857   7.590  10.163   0.576  0.3780 -0.3158 -0.3151
20134SOL    HW164858   7.661  10.165   0.513  0.1278 -0.1098 -0.5946
20134SOL    HW264859   7.601  10.242   0.629  0.2597 -0.1951 -0.4692
20135SOL     OW64860   6.850   4.632   0.507 -0.1475 -0.0006  0.4143
20135SOL    HW164861   6.830   4.667   0.419 -0.2285  0.3786  0.5798
20135SOL    HW264862   6.800   4.550   0.511  0.0294 -0.1331  0.0255
20136SOL     OW64863   8.004  10.297  10.214 -0.4663  0.0409  0.2992
20136SOL    HW164864   8.000  10.268  10.306 -0.2727  0.4141  0.4264
20136SOL    HW264865   8.097  10.295  10.193 -0.5536 -0.5303 -0.0475
20137SOL     OW64866   3.308   6.421   9.916 -0.2015  0.5433  0.1560
20137SOL    HW164867   3.358   6.497   9.946 -0.2433  1.1062 -1.1408
20137SOL    HW264868   3.369   6.347   9.926  0.9091  1.1989 -1.2998
20138SOL     OW64869   7.995   1.737   7.207 -0.3419  0.0876 -0.2293
20138SOL    HW164870   7.933   1.683   7.157 -0.7285  0.4257 -0.1224
20138SOL    HW264871   8.060   1.675   7.239  0.3548 -0.0495 -1.8038
20139SOL     OW64872   5.138   2.826   0.940  0.1207  0.1853  0.3101
20139SOL    HW164873   5.151   2.825   0.846  0.6993  0.7484  0.3810
20139SOL    HW264874   5.042   2.828   0.951  0.0561  0.4399 -0.2606
20140SOL     OW64875   3.263   8.413   5.027 -0.3827  0.2328 -0.3062
20140SOL    HW164876   3.304   8.407   4.941 -0.4472  1.1712 -0.4088
20140SOL    HW264877   3.197   8.343   5.026 -0.6817  0.5070 -1.1896
20141SOL     OW64878  10.075   5.324   2.476 -0.4057  0.2985  0.3152
20141SOL    HW164879   9.979   5.324   2.472 -0.4287 -1.0924  0.2290
20141SOL    HW264880  10.097   5.240   2.517  0.7669  0.8789  0.9209
20142SOL     OW64881   2.991   0.959   3.908 -0.0146  0.4097 -0.4355
20142SOL    HW164882   2.904   0.946   3.870 -0.4091 -0.1839  0.6313
20142SOL    HW264883   2.975   1.006   3.990  0.5141 -0.9493  0.4792
20143SOL     OW64884   6.881   1.373  10.746  0.4557  0.1237 -0.0678
20143SOL    HW164885   6.955   1.408  10.795  1.5068 -0.2826 -1.2951
20143SOL    HW264886   6.866   1.286  10.783  0.6431  0.1726  0.1237
20144SOL     OW64887   0.907   0.857   2.252 -0.1885 -0.5926  0.1092
20144SOL    HW164888   0.813   0.868   2.265 -0.1037  0.4787 -0.0873
20144SOL    HW264889   0.919   0.762   2.248 -1.0681 -0.7879  1.4204
20145SOL     OW64890   6.122   6.733   0.171  0.1012 -0.3495 -0.4666
20145SOL    HW164891   6.150   6.764   0.257 -3.0220  0.5049  0.3826
20145SOL    HW264892   6.096   6.813   0.125 -0.4765 -1.0156 -1.3091
20146SOL     OW64893   7.094   3.088   5.283  0.4893 -0.3199 -0.0157
20146SOL    HW164894   7.162   3.022   5.297  1.0954 -0.4395 -2.7946
20146SOL    HW264895   7.018   3.056   5.331  1.0036 -2.6700 -0.6484
20147SOL     OW64896   6.381   4.053   7.501 -0.2914 -0.1018 -0.1460
20147SOL    HW164897   6.303   4.032   7.554  0.5857 -1.2274  0.7422
20147SOL    HW264898   6.360   4.020   7.414 -1.1889  0.4746 -0.1615
20148SOL     OW64899   1.107   4.061   0.770  0.1494  0.4797 -0.7419
20148SOL    HW164900   1.039   4.087   0.832  0.5475  0.0829 -0.1267
20148SOL    HW264901   1.148   3.984   0.810  0.6360  0.4187 -1.3383
20149SOL     OW64902   8.264   7.828   7.203 -0.7578 -0.0606  0.3819
20149SOL    HW164903   8.343   7.836   7.150 -0.2889  0.4679  1.1283
20149SOL    HW264904   8.209   7.901   7.176 -0.9503 -0.3715 -0.0697
20150SOL     OW64905  10.520   6.057   1.230  0.8716  0.2113 -0.5826
20150SOL    HW164906  10.592   6.000   1.259 -0.2035 -0.7347  0.3019
20150SOL    HW264907  10.466   6.001   1.174 -0.1033  0.4003  0.1520
20151SOL     OW64908   0.987   1.314   3.340 -0.0154  0.4095 -0.4515
20151SOL    HW164909   1.065   1.284   3.386 -0.7597  0.4093  0.8502
20151SOL    HW264910   0.941   1.233   3.316 -0.5410  0.4277  0.4484
20152SOL     OW64911   7.723   4.271   0.753 -0.3071  0.0887 -0.1804
20152SOL    HW164912   7.655   4.307   0.810  0.8353 -0.4907  1.6101
20152SOL    HW264913   7.791   4.241   0.812  0.0945 -2.3489 -1.7514
20153SOL     OW64914  10.397   8.601   1.533  0.0525 -0.1406  0.3718
20153SOL    HW164915  10.484   8.622   1.567 -0.1704 -1.0320  1.5310
20153SOL    HW264916  10.340   8.669   1.569  0.5141  1.5630 -1.8823
20154SOL     OW64917   6.996   5.092   6.107  0.0729 -0.3913 -0.3748
20154SOL    HW164918   6.949   5.172   6.084 -0.9035 -0.9003 -0.2232
20154SOL    HW264919   7.067   5.086   6.044 -1.2525 -0.6195 -1.9176
20155SOL     OW64920   4.662   0.712   6.126  0.2176  0.6929  0.3088
20155SOL    HW164921   4.596   0.771   6.162 -0.1647 -0.7708  2.1557
20155SOL    HW264922   4.625   0.684   6.042 -0.7591  1.1458  0.5702
20156SOL     OW64923   8.058  11.028   2.590  0.2087 -0.6269  0.1413
20156SOL    HW164924   8.112  11.068   2.522 -0.6116 -0.4417 -0.4242
20156SOL    HW264925   7.971  11.023   2.550 -0.1114 -1.2255  0.9068
20157SOL     OW64926   8.320   4.202  10.188 -0.1708 -0.4916  0.2316
20157SOL    HW164927   8.361   4.235  10.108 -1.1482 -0.8129 -0.4183
20157SOL    HW264928   8.247   4.262  10.203 -0.2271 -0.6672  0.6657
20158SOL     OW64929   5.458   5.069   4.681 -0.5216 -0.6388  0.1326
20158SOL    HW164930   5.545   5.095   4.711 -1.1163  0.2201  1.2078
20158SOL    HW264931   5.446   5.116   4.598 -0.5890  0.5970  0.8099
20159SOL     OW64932   9.900   5.714   2.252  0.3796 -0.0616  0.5679
20159SOL    HW164933   9.885   5.781   2.185  0.8847 -0.2605  0.2521
20159SOL    HW264934   9.958   5.651   2.211  0.8759 -0.0748  1.2702
20160SOL     OW64935  11.042   0.634   6.001  0.3591 -0.2269 -0.1320
20160SOL    HW164936  11.108   0.667   6.062  0.5052 -0.7663  0.0077
20160SOL    HW264937  11.088   0.569   5.949  0.0935 -0.1537 -0.4624
20161SOL     OW64938   5.727   5.870   1.208 -0.0826  0.2791  0.1207
20161SOL    HW164939   5.781   5.943   1.179  1.3838  0.1400  2.2628
20161SOL    HW264940   5.712   5.887   1.301 -2.3504 -0.5873 -0.0052
20162SOL     OW64941   7.835  10.846   9.912  0.2422 -0.1176 -0.1435
20162SOL    HW164942   7.739  10.842   9.918 -0.0695  0.4802 -2.9466
20162SOL    HW264943   7.860  10.762   9.874  0.9041 -0.4619  1.0347
20163SOL     OW64944   5.718   5.385   8.550  0.0907  0.6341  0.0422
20163SOL    HW164945   5.766   5.305   8.571  0.3155  0.8037  0.1788
20163SOL    HW264946   5.626   5.360   8.560  0.0201 -0.3020 -2.3448
20164SOL     OW64947   7.709   0.670   7.162  0.1978  0.2101  0.2499
20164SOL    HW164948   7.651   0.746   7.160  1.6400  1.3688  0.7391
20164SOL    HW264949   7.650   0.594   7.162 -1.3273  1.3440  1.5749
20165SOL     OW64950   4.855   4.429   6.959 -0.1290 -0.3385  0.4307
20165SOL    HW164951   4.890   4.417   6.871 -0.4177 -0.8486  0.3820
20165SOL    HW264952   4.765   4.397   6.954  0.4202 -2.1713  1.3851
20166SOL     OW64953  10.934  10.284   7.036  0.1703  0.3763 -0.7124
20166SOL    HW164954  10.949  10.302   7.128 -1.2989 -0.4118 -0.2901
20166SOL    HW264955  10.920  10.370   6.996  0.8140  0.7169 -0.2114
20167SOL     OW64956   8.162   3.928  10.274  0.4376 -0.1028 -0.0254
20167SOL    HW164957   8.240   3.983  10.274  0.0295  0.4909  0.5645
20167SOL    HW264958   8.159   3.892  10.363  0.0724 -0.1796 -0.0685
20168SOL     OW64959   7.441  10.290   7.795 -0.5397 -0.1622  0.5597
20168SOL    HW164960   7.470  10.361   7.737  0.6075 -1.1136 -0.0844
20168SOL    HW264961   7.522  10.242   7.816 -1.2501 -1.0974  1.2266
20169SOL     OW64962   8.647   1.042   2.823  0.9161  0.3351  0.0896
20169SOL    HW164963   8.702   1.117   2.846  0.2297  0.5448  1.1498
20169SOL    HW264964   8.572   1.081   2.779  1.0178  0.1766 -0.2211
20170SOL     OW64965   9.574   8.957   6.996 -0.3765  0.1410 -0.6671
20170SOL    HW164966   9.502   8.996   7.046  0.0699  0.0068  0.0953
20170SOL    HW264967   9.653   8.983   7.043  0.0575 -0.0319 -1.2788
20171SOL     OW64968   3.429   8.026   0.093  0.5292  0.4567 -0.1121
20171SOL    HW164969   3.403   8.084   0.022 -0.6719  3.1114  2.2790
20171SOL    HW264970   3.384   7.944   0.075  0.2288  1.0503 -2.3513
20172SOL     OW64971   0.179   0.301   9.808  0.1487 -0.4751  0.6760
20172SOL    HW164972   0.237   0.377   9.809  0.5750 -0.8034  1.3043
20172SOL    HW264973   0.205   0.249   9.884  1.4448 -2.4359 -1.0100
20173SOL     OW64974   7.699   7.028   1.092 -0.2882 -0.5127 -0.4454
20173SOL    HW164975   7.665   6.939   1.105  0.5860 -1.1990 -2.4319
20173SOL    HW264976   7.794   7.018   1.097 -0.1850  0.3111 -0.6185
20174SOL     OW64977   2.903   1.080   0.065  0.4322 -0.1037  0.3150
20174SOL    HW164978   2.846   1.155   0.081 -0.2297 -1.0962  3.5455
20174SOL    HW264979   2.856   1.006   0.105  1.7095 -1.9862 -1.4612
20175SOL     OW64980   4.665   3.542   3.232 -0.3899 -0.3259  0.2238
20175SOL    HW164981   4.674   3.567   3.140 -4.4694 -0.7771 -0.5021
20175SOL    HW264982   4.632   3.621   3.274 -1.2707 -0.8991  0.6368
20176SOL     OW64983   1.514   7.042   6.695 -0.1813 -0.7021 -0.3425
20176SOL    HW164984   1.552   6.991   6.766 -0.2089  0.2820  0.4092
20176SOL    HW264985   1.494   7.127   6.735 -0.7316 -0.3228 -1.3853
20177SOL     OW64986   8.607   2.591   8.341  0.2099 -0.2763  0.3416
20177SOL    HW164987   8.533   2.548   8.298  1.3648  0.0813 -2.2191
20177SOL    HW264988   8.567   2.657   8.398 -1.4432  0.2049 -1.2832
20178SOL     OW64989   7.373   5.270   4.143 -0.1489  0.3687  0.5601
20178SOL    HW164990   7.319   5.255   4.065 -0.4214 -1.0202  0.9808
20178SOL    HW264991   7.456   5.227   4.122 -0.4153 -0.4999  1.2310
20179SOL     OW64992   3.219   8.251  10.470  0.0393  0.0341 -0.0170
20179SOL    HW164993   3.234   8.339  10.505  0.2641 -0.4014  1.0409
20179SOL    HW264994   3.306   8.219  10.448  0.1744 -0.5440  1.2271
20180SOL     OW64995   3.324   2.721   4.932 -0.2266 -0.2586 -0.2035
20180SOL    HW164996   3.320   2.804   4.979  0.1663  0.6447 -1.6770
20180SOL    HW264997   3.417   2.699   4.931 -0.2814 -0.4959 -0.2080
20181SOL     OW64998   7.151   2.175   3.749 -0.0195  0.4421 -0.0367
20181SOL    HW164999   7.071   2.218   3.720 -0.4723 -0.2785  0.1025
20181SOL    HW265000   7.129   2.081   3.747  0.7937  0.2446  0.0766
20182SOL     OW65001  10.540   4.294  10.373  0.3775 -0.3565  0.0133
20182SOL    HW165002  10.467   4.356  10.376  1.2715  0.8878 -1.7909
20182SOL    HW265003  10.499   4.208  10.367 -0.9045  0.1436  1.0997
20183SOL     OW65004   0.429   8.705   5.554 -0.2262  0.1970 -0.0955
20183SOL    HW165005   0.408   8.738   5.641 -0.5250 -0.2231 -0.0052
20183SOL    HW265006   0.525   8.699   5.553 -0.2824 -1.7502  0.9571
20184SOL     OW65007  10.120   0.164   9.124  0.5276  0.3023 -0.3218
20184SOL    HW165008  10.103   0.072   9.105 -0.3488  0.5997 -1.0166
20184SOL    HW265009  10.201   0.163   9.176  0.3751 -0.8690 -0.0865
20185SOL     OW65010   0.729   2.162   8.959  0.0624 -0.7598 -0.2870
20185SOL    HW165011   0.794   2.123   8.902  1.2495  1.5537 -0.6318
20185SOL    HW265012   0.773   2.171   9.043 -0.3712 -0.6252 -0.0703
20186SOL     OW65013   6.581   3.963   2.269 -0.2871  0.0347 -0.4783
20186SOL    HW165014   6.512   4.030   2.264 -0.1197  0.2246 -0.2336
20186SOL    HW265015   6.633   3.988   2.344 -0.4968 -0.6372 -0.1022
20187SOL     OW65016   6.275   8.027   4.797 -0.8383 -0.0484 -0.3640
20187SOL    HW165017   6.274   8.028   4.701 -0.1138  0.7059 -0.3813
20187SOL    HW265018   6.299   8.116   4.822 -0.6814 -0.3171  0.5095
20188SOL     OW65019   1.778   7.814   5.114  1.2491 -0.2343  0.4440
20188SOL    HW165020   1.775   7.908   5.130  0.3037  0.0619 -1.2837
20188SOL    HW265021   1.863   7.799   5.074  1.8084 -0.2920  1.6215
20189SOL     OW65022   2.291   6.254   6.624  0.2393 -0.3687 -0.2785
20189SOL    HW165023   2.329   6.258   6.536  0.7514 -1.8537 -0.1558
20189SOL    HW265024   2.295   6.161   6.647 -2.9813 -0.5631 -0.0297
20190SOL     OW65025   1.109   0.719   3.884 -0.4834  0.0915  0.3608
20190SOL    HW165026   1.065   0.794   3.924 -0.9876  0.4450 -0.8094
20190SOL    HW265027   1.053   0.696   3.809  0.8973  0.0592 -0.6965
20191SOL     OW65028   0.559   8.852   8.422  0.5587 -0.2095 -0.3121
20191SOL    HW165029   0.547   8.934   8.374  0.4023  0.3201  0.6180
20191SOL    HW265030   0.470   8.824   8.443  0.5383 -1.2368 -1.6112
20192SOL     OW65031   4.474   4.422   0.865  0.1317 -0.2658 -0.5110
20192SOL    HW165032   4.525   4.391   0.940  2.2394  0.3714 -1.5832
20192SOL    HW265033   4.493   4.516   0.861 -0.0316 -0.2696 -1.7462
20193SOL     OW65034   5.433  10.949   6.016 -0.1944  0.3616  0.2495
20193SOL    HW165035   5.466  11.034   5.986 -1.7143  1.4557  1.4928
20193SOL    HW265036   5.365  10.971   6.081  0.5728 -1.8099  1.9221
20194SOL     OW65037   3.178  10.002   3.153  0.3583 -0.3035 -0.1899
20194SOL    HW165038   3.239   9.928   3.149 -1.3285 -1.7287 -0.5134
20194SOL    HW265039   3.143  10.009   3.064  0.5279  0.9679 -0.1861
20195SOL     OW65040   0.566   9.923   0.335 -0.5184  0.1178  0.3651
20195SOL    HW165041   0.642   9.965   0.376 -1.2852  0.3260  1.6171
20195SOL    HW265042   0.504   9.995   0.321 -0.1528  0.1056 -1.4952
20196SOL     OW65043  10.058  10.030   1.332 -0.4716  0.3474 -0.0124
20196SOL    HW165044  10.046  10.061   1.422  1.5235 -0.7775  0.7045
20196SOL    HW265045  10.138  10.073   1.302  0.2537 -1.1303 -0.3240
20197SOL     OW65046   3.478   8.653   8.552  0.4600  0.1513 -0.1256
20197SOL    HW165047   3.396   8.687   8.586  0.0985 -0.1804 -0.6461
20197SOL    HW265048   3.503   8.584   8.614  2.0584  2.3696  1.8842
20198SOL     OW65049   1.162   8.136   6.643  0.3927 -0.2341 -0.1276
20198SOL    HW165050   1.200   8.212   6.599  2.4934 -0.8538  0.4895
20198SOL    HW265051   1.125   8.083   6.572  0.4546  0.5232 -0.7427
20199SOL     OW65052   0.659   8.208   7.643 -0.0550  0.1287 -0.0416
20199SOL    HW165053   0.641   8.115   7.630  0.5737  0.1540 -1.1901
20199SOL    HW265054   0.576   8.245   7.674 -1.0364 -0.3566 -1.9645
20200SOL     OW65055   5.861  10.001   0.338 -0.3492 -0.2409 -0.4193
20200SOL    HW165056   5.952   9.979   0.358 -0.2620  1.9407  2.2790
20200SOL    HW265057   5.866  10.079   0.283 -0.6143 -1.0269 -1.5750
20201SOL     OW65058   4.196   6.671   4.940 -0.0088  0.1524  0.0373
20201SOL    HW165059   4.137   6.647   5.011  0.6234  0.5521  0.7141
20201SOL    HW265060   4.140   6.710   4.874 -0.8008 -1.5150 -0.3117
20202SOL     OW65061   8.053   5.845   2.462  0.1139 -0.5246  0.6040
20202SOL    HW165062   8.132   5.796   2.486  1.3800  1.4327  0.6615
20202SOL    HW265063   8.085   5.914   2.404 -1.8190 -0.6284 -0.6912
20203SOL     OW65064   0.177   1.125   5.160  0.1599 -0.2185  0.6466
20203SOL    HW165065   0.221   1.209   5.149 -0.9362  0.2533 -0.2064
20203SOL    HW265066   0.107   1.125   5.095 -1.0840 -0.9706  1.9280
20204SOL     OW65067   4.234   3.057   0.482  0.0185  0.0723  0.5262
20204SOL    HW165068   4.287   3.131   0.511  1.1629  0.1982 -1.6826
20204SOL    HW265069   4.207   3.080   0.393 -2.1187 -0.8878  0.8608
20205SOL     OW65070   1.153   4.778   7.430 -0.3843 -0.4627 -0.2762
20205SOL    HW165071   1.197   4.693   7.439  1.8299  0.5351 -0.9384
20205SOL    HW265072   1.154   4.815   7.518  0.2585 -0.3860 -0.3129
20206SOL     OW65073   6.008   8.063   2.854  0.3310 -0.3477 -0.4113
20206SOL    HW165074   5.976   8.142   2.811 -0.7939  0.1917  1.3514
20206SOL    HW265075   5.929   8.017   2.883  1.0124  0.0462  2.3274
20207SOL     OW65076   0.956   7.215   7.940 -0.2493 -0.6012 -0.1692
20207SOL    HW165077   0.872   7.170   7.949 -0.3260 -0.1852  1.4748
20207SOL    HW265078   1.013   7.153   7.895 -1.8465 -0.3173 -2.7789
20208SOL     OW65079   8.565   4.498  10.573  0.2219 -0.3795 -0.0797
20208SOL    HW165080   8.503   4.530  10.507 -0.4294 -2.2548 -0.4462
20208SOL    HW265081   8.649   4.494  10.526  0.3553  0.8775  0.0226
20209SOL     OW65082   5.045   2.036   1.867 -0.6021 -0.8410  0.3491
20209SOL    HW165083   4.986   2.022   1.792  0.9124 -2.2664 -0.6439
20209SOL    HW265084   5.095   2.114   1.843 -0.5108 -0.9632  0.1401
20210SOL     OW65085   9.539   3.618   9.393  0.5037 -0.4914  0.0351
20210SOL    HW165086   9.508   3.650   9.477 -0.0182  1.1042 -0.7269
20210SOL    HW265087   9.629   3.591   9.409  0.0959 -1.1383  1.3129
20211SOL     OW65088   0.990   9.377   2.190  0.0412  0.9524 -0.1011
20211SOL    HW165089   0.940   9.349   2.267 -0.2729 -0.8731 -0.9121
20211SOL    HW265090   0.926   9.420   2.133 -0.9629 -2.2153 -1.5654
20212SOL     OW65091   3.133   4.106   0.141  0.2976  0.2818 -0.0746
20212SOL    HW165092   3.077   4.105   0.219  0.4459  0.0725  0.0307
20212SOL    HW265093   3.221   4.121   0.174  0.7713 -2.3564  0.0944
20213SOL     OW65094   9.011   6.274   9.744 -0.7037 -0.3432 -0.2755
20213SOL    HW165095   9.094   6.243   9.706 -1.0660 -2.3910  0.4746
20213SOL    HW265096   9.035   6.304   9.832 -0.7275 -0.7326 -0.1365
20214SOL     OW65097   7.608   4.894   6.280  0.2559  0.5998  0.2219
20214SOL    HW165098   7.650   4.814   6.247  2.3090  2.0948 -1.0750
20214SOL    HW265099   7.576   4.938   6.201  1.0748  2.0329  0.6468
20215SOL     OW65100   7.553   7.314   9.800  0.0752 -0.3434 -0.0000
20215SOL    HW165101   7.561   7.396   9.850  0.2549 -0.1954 -0.2757
20215SOL    HW265102   7.534   7.248   9.867 -2.4933  0.2954  0.0167
20216SOL     OW65103   4.556  10.384   2.654  0.0857  0.5279  0.2104
20216SOL    HW165104   4.498  10.357   2.583  0.8943  1.3545 -0.7925
20216SOL    HW265105   4.498  10.394   2.730 -0.9424  0.5354 -0.5542
20217SOL     OW65106   1.746   4.299  10.402  0.2263  0.5015  0.1764
20217SOL    HW165107   1.788   4.381  10.375 -0.1416  1.1199  1.4272
20217SOL    HW265108   1.807   4.262  10.467 -0.4142  0.6453  0.8713
20218SOL     OW65109   0.485   0.045   0.320 -0.1094  0.1903 -0.6590
20218SOL    HW165110   0.438   0.055   0.237  0.2039  1.3497 -0.7127
20218SOL    HW265111   0.433   0.094   0.383 -0.0216 -0.1788 -0.2941
20219SOL     OW65112   6.927   6.031   9.242  0.0539 -0.0206  0.1814
20219SOL    HW165113   6.970   6.116   9.247 -1.6379  0.9540 -1.0504
20219SOL    HW265114   6.978   5.983   9.177  0.3367  0.4505  0.0481
20220SOL     OW65115   9.110   2.776   4.706  0.9327  0.6738 -0.1452
20220SOL    HW165116   9.044   2.845   4.711  0.5510  0.2507  0.7117
20220SOL    HW265117   9.170   2.806   4.638 -1.4760 -0.0969 -2.8394
20221SOL     OW65118   4.192   0.459  11.004 -0.5317  0.0647 -0.1385
20221SOL    HW165119   4.202   0.517  11.079 -0.5041 -0.5606  0.3469
20221SOL    HW265120   4.223   0.511  10.930 -0.3934  0.6265  0.3052
20222SOL     OW65121   7.637   0.361   0.439  0.3725  0.0588  0.4613
20222SOL    HW165122   7.645   0.430   0.373  1.0278 -0.9149 -0.5270
20222SOL    HW265123   7.547   0.329   0.430  0.9205 -1.1755 -1.1694
20223SOL     OW65124   6.671  10.665   9.218 -1.0645 -0.4264  0.0274
20223SOL    HW165125   6.714  10.585   9.248 -0.4145  0.0341  0.3431
20223SOL    HW265126   6.692  10.730   9.285  0.0912  0.5157 -1.1918
20224SOL     OW65127   2.327  10.702   9.301  0.1287  0.0430 -0.0550
20224SOL    HW165128   2.267  10.680   9.372  0.1510  0.0104 -0.0457
20224SOL    HW265129   2.400  10.640   9.311  1.3344  1.6062  1.3879
20225SOL     OW65130   2.274   4.777   0.617  0.0916 -0.0432 -0.1384
20225SOL    HW165131   2.255   4.683   0.611 -1.0469  0.1731  0.0188
20225SOL    HW265132   2.295   4.802   0.527 -1.6984 -0.0215 -0.5710
20226SOL     OW65133   2.784   2.724  10.892  0.1674 -0.2519  0.4896
20226SOL    HW165134   2.838   2.765  10.960 -0.0160 -1.2747  1.2834
20226SOL    HW265135   2.838   2.652  10.858 -0.3360 -0.7168  0.6592
20227SOL     OW65136   4.409   4.186   4.276 -0.0321  0.3064  0.3818
20227SOL    HW165137   4.493   4.218   4.244  0.1892 -0.4140  0.2028
20227SOL    HW265138   4.384   4.119   4.212  0.0501 -0.6291  1.3029
20228SOL     OW65139   3.208   8.322   3.944 -0.0609  0.0496 -0.4706
20228SOL    HW165140   3.245   8.246   3.988 -0.8327  0.6878  1.3723
20228SOL    HW265141   3.215   8.393   4.008 -2.0176  0.8141 -1.0254
20229SOL     OW65142   3.495   0.107   0.791  0.2449  0.2571 -0.2821
20229SOL    HW165143   3.506   0.065   0.876 -0.3762 -1.2820 -0.9292
20229SOL    HW265144   3.555   0.061   0.732  0.1187  0.7931 -0.8504
20230SOL     OW65145   0.488   1.793   2.275 -0.2036 -0.0724 -0.0296
20230SOL    HW165146   0.522   1.880   2.296 -1.6137  0.0246  2.1831
20230SOL    HW265147   0.566   1.740   2.256  0.7471  1.3831 -0.2964
20231SOL     OW65148   1.974   1.850   2.693  0.0041 -0.6070 -0.3075
20231SOL    HW165149   1.913   1.905   2.741 -0.6078  0.3165 -2.0575
20231SOL    HW265150   1.927   1.824   2.614  1.1307 -1.6548 -0.6692
20232SOL     OW65151   9.659   5.138   7.456  0.3015  0.2634  0.6409
20232SOL    HW165152   9.685   5.178   7.539  1.0285  1.2137 -0.0275
20232SOL    HW265153   9.724   5.169   7.393 -1.0983  0.7699 -0.6007
20233SOL     OW65154   4.516   2.953   9.514 -0.1910  0.2334  0.0102
20233SOL    HW165155   4.567   2.973   9.435 -0.4727  0.1128 -0.2017
20233SOL    HW265156   4.580   2.957   9.585  0.6040 -2.0508 -0.4808
20234SOL     OW65157   3.434   2.440  10.833  0.0496 -0.2064  0.6271
20234SOL    HW165158   3.338   2.434  10.831  0.0480 -0.5977 -2.4616
20234SOL    HW265159   3.453   2.533  10.827 -0.2385 -0.2272 -1.5662
20235SOL     OW65160   0.358   6.270   9.580  0.1054  0.5425 -0.1465
20235SOL    HW165161   0.304   6.211   9.527  0.8593 -0.8379  0.5604
20235SOL    HW265162   0.318   6.265   9.668 -0.1399  1.5207 -0.1912
20236SOL     OW65163   3.325   4.651   9.588 -0.2356 -0.1550  0.3339
20236SOL    HW165164   3.347   4.682   9.675  0.2079 -1.8590  0.8686
20236SOL    HW265165   3.230   4.658   9.583 -0.2282  0.3187  0.7954
20237SOL     OW65166   6.962   2.016   0.405 -0.2825 -0.1765 -0.4371
20237SOL    HW165167   6.921   2.068   0.335 -2.7780 -1.7166 -0.2210
20237SOL    HW265168   7.032   1.969   0.361 -1.0074 -0.1686 -1.6559
20238SOL     OW65169   3.081   4.644   8.682  0.1155 -0.5053  0.3924
20238SOL    HW165170   2.989   4.619   8.677 -1.0967  3.4309 -1.7891
20238SOL    HW265171   3.128   4.577   8.631 -1.9664 -1.1810 -0.7352
20239SOL     OW65172   7.006   7.935   4.204 -0.6754  0.4056 -0.3006
20239SOL    HW165173   7.045   7.872   4.264  2.9615  2.0695 -0.6411
20239SOL    HW265174   6.924   7.895   4.177  1.1999 -4.0189 -0.2435
20240SOL     OW65175   6.975   6.092   0.450 -0.0805 -0.3326  0.5714
20240SOL    HW165176   6.932   6.007   0.451 -2.1290  0.6285  0.1251
20240SOL    HW265177   6.965   6.123   0.360  2.4585 -0.4273  0.1698
20241SOL     OW65178  10.722   4.952   6.677  0.4025  0.1415  0.0278
20241SOL    HW165179  10.722   4.902   6.595 -0.8141 -0.2273  0.2343
20241SOL    HW265180  10.679   4.895   6.740  2.8097 -0.2954  1.4247
20242SOL     OW65181   0.264   8.307   2.425 -0.2700 -0.2761 -0.1682
20242SOL    HW165182   0.272   8.384   2.369 -3.2071  1.1453  1.1111
20242SOL    HW265183   0.222   8.241   2.369 -0.0065 -0.0819 -0.5946
20243SOL     OW65184   6.152   5.029   8.352 -0.0620 -0.3423 -0.2631
20243SOL    HW165185   6.217   4.973   8.308 -0.1226 -0.4864 -0.1710
20243SOL    HW265186   6.159   5.005   8.444  1.7897  1.6519  0.2196
20244SOL     OW65187   7.317   6.851   6.614  0.3463 -0.0741 -0.1250
20244SOL    HW165188   7.349   6.911   6.681  0.1450 -0.8195  0.6591
20244SOL    HW265189   7.388   6.789   6.601 -0.3899 -1.2154  0.9917
20245SOL     OW65190   5.758   2.273   7.811  0.1639  0.1464  0.0541
20245SOL    HW165191   5.817   2.340   7.778 -0.7126 -0.1028 -2.1856
20245SOL    HW265192   5.732   2.304   7.898  0.8978  1.9624 -0.3353
20246SOL     OW65193  10.361   2.163   9.647 -0.0631 -0.4112 -0.1225
20246SOL    HW165194  10.420   2.202   9.712  0.2251 -1.0992  0.0448
20246SOL    HW265195  10.361   2.069   9.669  0.9331 -0.8401 -1.8029
20247SOL     OW65196   7.496  10.823   3.405  0.1909 -0.1656  0.1818
20247SOL    HW165197   7.410  10.783   3.414  0.4795 -0.6358  0.9848
20247SOL    HW265198   7.541  10.769   3.339 -0.5476  0.8508 -1.2090
20248SOL     OW65199   9.245   1.951   7.030  0.0152  0.2630 -0.3310
20248SOL    HW165200   9.334   1.940   7.064 -0.6543 -0.6533  1.2758
20248SOL    HW265201   9.190   1.908   7.095 -1.5496  0.1125 -1.6938
20249SOL     OW65202   4.448  10.432   6.908  0.4508  0.0712 -0.5076
20249SOL    HW165203   4.450  10.510   6.963 -0.9746  0.4832 -1.0163
20249SOL    HW265204   4.420  10.462   6.822  0.5803 -0.8978 -0.9090
20250SOL     OW65205   3.317  10.668   8.430 -0.1292 -0.0048 -0.0976
20250SOL    HW165206   3.351  10.618   8.504  0.8309  1.5243  0.5243
20250SOL    HW265207   3.371  10.642   8.356 -0.2336 -0.5527  0.0137
20251SOL     OW65208   0.456   3.328   6.894  0.1424  0.1195 -0.1314
20251SOL    HW165209   0.549   3.322   6.870 -0.2858  1.2233 -2.3548
20251SOL    HW265210   0.456   3.381   6.973  1.4198  0.2671 -0.2048
20252SOL     OW65211   0.361   4.603  10.837  0.3932  0.3240 -0.4120
20252SOL    HW165212   0.392   4.578  10.924  0.6911 -1.2353 -0.9279
20252SOL    HW265213   0.421   4.672  10.809 -0.6306  1.9571  1.1884
20253SOL     OW65214   2.158   1.551   9.307  0.1385  0.2071  0.4648
20253SOL    HW165215   2.130   1.632   9.263 -0.2883  1.3233  2.6078
20253SOL    HW265216   2.087   1.533   9.369  1.0340 -0.8219  1.2226
20254SOL     OW65217   7.720  10.131   5.239 -0.1259 -0.5247  0.3905
20254SOL    HW165218   7.695  10.072   5.310  2.2960 -0.7626  1.1326
20254SOL    HW265219   7.790  10.084   5.194 -0.5461  0.3137 -1.2140
20255SOL     OW65220   6.472   4.826   4.040 -0.4031 -0.8373  0.1908
20255SOL    HW165221   6.478   4.749   3.983  1.4318 -0.3118 -0.3798
20255SOL    HW265222   6.560   4.838   4.074 -0.8356  0.5879  0.8744
20256SOL     OW65223   7.214   8.734   6.408 -0.3216  0.1454  0.4578
20256SOL    HW165224   7.144   8.797   6.428  1.2408  2.0038  0.3396
20256SOL    HW265225   7.252   8.714   6.493 -2.2471 -2.5672  0.8266
20257SOL     OW65226   7.496   6.264   4.001  0.0980  0.1246 -0.1931
20257SOL    HW165227   7.573   6.316   4.025 -0.1548  0.9943 -1.1831
20257SOL    HW265228   7.482   6.283   3.908 -0.2251 -1.4567 -0.4971
20258SOL     OW65229   4.018   8.696  10.408  0.5242 -0.1042  0.5710
20258SOL    HW165230   4.012   8.673  10.315 -1.4467  1.5016  0.2262
20258SOL    HW265231   4.111   8.706  10.424  0.8642  1.0055 -1.6423
20259SOL     OW65232   2.939   4.926   2.417  0.3651 -0.1231 -0.4330
20259SOL    HW165233   2.893   4.870   2.354 -0.4961  0.5235 -0.3983
20259SOL    HW265234   2.909   5.014   2.397  1.5192  0.3101 -0.3217
20260SOL     OW65235   0.052   9.667  10.867 -0.4585 -0.5709 -0.4535
20260SOL    HW165236  -0.038   9.662  10.834 -0.5746 -0.0924 -0.2236
20260SOL    HW265237   0.074   9.760  10.860  0.2061 -0.7680 -1.0012
20261SOL     OW65238   3.595   4.126   3.030  0.3297 -0.6195 -0.1310
20261SOL    HW165239   3.673   4.164   2.990 -0.5801  0.2231 -1.1468
20261SOL    HW265240   3.525   4.143   2.967 -0.7831 -0.9042  0.9996
20262SOL     OW65241   3.376   4.325   3.736 -0.0540 -0.2572  0.2877
20262SOL    HW165242   3.457   4.344   3.783  2.1503 -1.8128 -2.5554
20262SOL    HW265243   3.341   4.247   3.778 -0.6519  0.9033  2.0764
20263SOL     OW65244   5.553   8.564   4.717  0.3209 -0.1827  0.0747
20263SOL    HW165245   5.548   8.631   4.649  0.2663 -1.1645 -0.9347
20263SOL    HW265246   5.530   8.609   4.798  0.3839  1.0224 -0.5595
20264SOL     OW65247   0.880   3.425   9.548  0.0831  0.4322  0.3689
20264SOL    HW165248   0.890   3.384   9.635  1.2796 -0.5468 -0.1994
20264SOL    HW265249   0.872   3.518   9.567 -1.8143  0.0550  1.6535
20265SOL     OW65250   5.241   7.175   9.156 -0.7055 -0.2792 -0.3497
20265SOL    HW165251   5.206   7.239   9.217  0.1615 -0.3413  0.2230
20265SOL    HW265252   5.330   7.206   9.136  1.1177 -3.0043  2.5975
20266SOL     OW65253   7.594   1.478   2.891 -0.9153  1.0242 -0.2679
20266SOL    HW165254   7.654   1.550   2.908 -0.4966  0.8336 -0.8915
20266SOL    HW265255   7.630   1.435   2.813 -0.3368 -0.7410  0.9004
20267SOL     OW65256  10.969   0.798   1.783 -0.1811 -0.2208 -0.7369
20267SOL    HW165257  11.029   0.851   1.730 -0.1020 -0.9774 -1.4349
20267SOL    HW265258  11.023   0.765   1.855  0.3033 -1.0356 -1.4563
20268SOL     OW65259   3.207   9.485   6.513  0.3898 -0.3181  0.8103
20268SOL    HW165260   3.238   9.515   6.598  0.3920  0.4549  0.5476
20268SOL    HW265261   3.253   9.541   6.450  0.0743 -0.5996  0.3205
20269SOL     OW65262   2.345   6.445   7.411 -0.2075 -0.4212 -0.1057
20269SOL    HW165263   2.379   6.400   7.334 -3.1324 -1.6341 -0.8177
20269SOL    HW265264   2.352   6.538   7.389  0.6832 -0.6905 -1.0373
20270SOL     OW65265   6.639   9.752   5.333  0.5696  0.2243 -0.7604
20270SOL    HW165266   6.569   9.751   5.399  0.0017  0.8403 -1.3404
20270SOL    HW265267   6.694   9.827   5.357  0.1519  0.6781 -1.1856
20271SOL     OW65268  10.360   7.864   1.268  0.9032 -0.1494  0.3697
20271SOL    HW165269  10.407   7.888   1.189 -0.9827 -2.0144 -1.4372
20271SOL    HW265270  10.369   7.769   1.274 -0.2190 -0.2190  1.5393
20272SOL     OW65271   9.336   9.240   8.805  0.4676 -0.0748  1.1364
20272SOL    HW165272   9.410   9.291   8.838 -1.1701  1.6268  2.4094
20272SOL    HW265273   9.282   9.304   8.759 -0.2960 -1.2519  0.3268
20273SOL     OW65274   9.132   3.743   5.263  0.4174 -0.8305  0.0268
20273SOL    HW165275   9.086   3.679   5.209 -1.4200  0.3010  0.1320
20273SOL    HW265276   9.142   3.701   5.348 -0.7151 -1.0195  0.0807
20274SOL     OW65277   9.023   7.869   1.799  0.3448 -0.7010  0.0022
20274SOL    HW165278   8.956   7.886   1.865  0.0726 -0.6285 -0.2881
20274SOL    HW265279   9.051   7.779   1.815 -0.4178 -1.0200 -0.3913
20275SOL     OW65280   5.659   1.337   8.048 -0.3382  0.1879 -0.5438
20275SOL    HW165281   5.606   1.355   7.970  1.1426  0.5386 -1.5134
20275SOL    HW265282   5.614   1.382   8.119 -0.5250  1.7949 -1.6313
20276SOL     OW65283   2.843   6.438   6.771 -0.2736  1.0076  0.4408
20276SOL    HW165284   2.845   6.369   6.705 -1.9582  1.8242 -0.5401
20276SOL    HW265285   2.805   6.397   6.849  1.1429  0.2001  0.7364
20277SOL     OW65286   2.168   7.081   1.384  0.5383 -0.4654 -0.4257
20277SOL    HW165287   2.098   7.028   1.422  0.6778 -1.2176 -1.1742
20277SOL    HW265288   2.137   7.171   1.390 -1.0853 -0.8709 -1.8665
20278SOL     OW65289  10.949   5.930   0.141 -0.6515  0.4036 -0.6131
20278SOL    HW165290  10.971   5.973   0.059 -0.6094  0.3226 -0.6441
20278SOL    HW265291  11.019   5.954   0.201 -1.6066  1.9778 -0.0543
20279SOL     OW65292   6.275   7.965   9.877 -0.3173  0.6233 -0.1065
20279SOL    HW165293   6.218   8.040   9.860  0.0121  1.0646  0.6618
20279SOL    HW265294   6.223   7.908   9.932 -1.3356 -0.7423 -2.3596
20280SOL     OW65295   4.830   1.429   8.528  0.1372 -0.1699 -0.0240
20280SOL    HW165296   4.762   1.374   8.567  1.2234 -1.1317  0.6104
20280SOL    HW265297   4.786   1.510   8.505 -1.0900 -0.5307  0.9296
20281SOL     OW65298   8.295   0.486   3.528  0.0928  0.0797  0.3144
20281SOL    HW165299   8.321   0.520   3.442 -2.8204  2.4444  0.2010
20281SOL    HW265300   8.257   0.400   3.509  0.7894 -0.0595 -0.5195
20282SOL     OW65301   0.186   0.930   8.212 -0.4741 -0.2198 -0.4382
20282SOL    HW165302   0.150   0.850   8.250 -0.7226 -0.0219 -0.2511
20282SOL    HW265303   0.185   0.993   8.284 -0.7488  0.0982 -0.7202
20283SOL     OW65304   4.782   0.931   7.743  0.1732 -0.3161 -0.4443
20283SOL    HW165305   4.791   0.836   7.738 -2.2554 -0.6781  0.7509
20283SOL    HW265306   4.787   0.960   7.652 -1.4759 -1.8968 -1.1030
20284SOL     OW65307   8.171   9.573   3.007 -0.4836 -0.2038 -0.2030
20284SOL    HW165308   8.202   9.575   2.916  3.5608 -1.4040  0.9717
20284SOL    HW265309   8.134   9.486   3.018 -0.7991 -0.1272 -0.6220
20285SOL     OW65310   7.632   9.182   5.960  0.8472  0.1698 -0.0087
20285SOL    HW165311   7.659   9.273   5.949 -0.5492  0.9606  2.4475
20285SOL    HW265312   7.553   9.174   5.907 -0.6905  1.3003  1.9952
20286SOL     OW65313   0.653   7.055   3.353  0.4134 -0.3407  0.3099
20286SOL    HW165314   0.612   7.139   3.377 -0.8706 -0.9001  0.1684
20286SOL    HW265315   0.651   7.004   3.435 -0.5032 -0.8795 -0.0272
20287SOL     OW65316   8.155   2.031   5.554 -0.3453 -0.3977 -0.0164
20287SOL    HW165317   8.182   2.121   5.533 -0.0117 -0.6445 -0.6933
20287SOL    HW265318   8.174   2.022   5.647  0.6367 -0.1038 -0.1707
20288SOL     OW65319   0.620   6.973   4.282  0.0871  0.6492 -0.4654
20288SOL    HW165320   0.708   7.011   4.290  2.1945 -4.0314  2.9489
20288SOL    HW265321   0.561   7.043   4.310  3.3145  2.2967  3.0559
20289SOL     OW65322   2.829   2.521   8.855 -0.1853 -0.0901 -0.3127
20289SOL    HW165323   2.869   2.504   8.941  0.2471 -0.2006 -0.5296
20289SOL    HW265324   2.753   2.463   8.852 -0.0177 -0.3221 -0.1335
20290SOL     OW65325   3.035   8.372   2.106 -0.3131 -0.5424 -0.4596
20290SOL    HW165326   3.082   8.429   2.167 -1.6255 -0.8581  0.9031
20290SOL    HW265327   3.027   8.423   2.026 -1.3148  1.1658  0.6794
20291SOL     OW65328   5.734   1.343   3.596 -0.5088 -0.1596  0.1775
20291SOL    HW165329   5.690   1.297   3.668 -0.4833 -0.6681 -0.1249
20291SOL    HW265330   5.726   1.435   3.618 -1.1241 -0.2771  0.4743
20292SOL     OW65331  10.504   5.493   3.292 -0.8881 -0.3254 -0.2863
20292SOL    HW165332  10.472   5.583   3.280  0.3350  0.0793 -0.8181
20292SOL    HW265333  10.446   5.455   3.357 -2.8020  0.1308 -1.6218
20293SOL     OW65334   6.289   5.658   0.662 -0.1620  0.0557 -0.8816
20293SOL    HW165335   6.257   5.580   0.617 -0.7623  0.4136 -1.0897
20293SOL    HW265336   6.217   5.721   0.655  0.4888  0.7885 -1.1165
20294SOL     OW65337   8.328   6.916   3.774 -0.1758 -0.1792  0.1281
20294SOL    HW165338   8.342   6.968   3.853  1.7670  0.1011 -0.3346
20294SOL    HW265339   8.397   6.849   3.777 -0.5114 -0.5998 -0.9708
20295SOL     OW65340   7.897  10.594   6.208  0.1057 -0.0865 -0.0773
20295SOL    HW165341   7.816  10.567   6.251 -0.1022 -2.7133 -1.8663
20295SOL    HW265342   7.963  10.591   6.278 -1.0179  0.5452  1.0562
20296SOL     OW65343  10.098   3.618   7.890  0.1988  0.0025  0.5757
20296SOL    HW165344  10.175   3.617   7.834  0.0787  2.8536  0.2009
20296SOL    HW265345  10.033   3.566   7.842  0.6341  0.9629 -1.1523
20297SOL     OW65346   4.249   7.119   7.791  0.0853 -0.5609  0.4802
20297SOL    HW165347   4.304   7.086   7.721  0.6710  0.7498  0.2902
20297SOL    HW265348   4.242   7.047   7.854 -1.0490 -2.0267 -1.2286
20298SOL     OW65349   4.063   5.608   7.835  0.3159 -0.3398  0.0336
20298SOL    HW165350   4.068   5.514   7.817 -1.7608 -0.8628  1.7709
20298SOL    HW265351   3.971   5.631   7.820  0.9005  1.5860 -0.9785
20299SOL     OW65352   8.757   3.265   6.628  0.0282  0.0151 -0.1035
20299SOL    HW165353   8.745   3.309   6.713  2.8124 -2.0050  1.5102
20299SOL    HW265354   8.725   3.177   6.643 -0.9142  0.0529 -1.7211
20300SOL     OW65355   2.435   1.606   3.670  0.0735  0.2703 -0.3285
20300SOL    HW165356   2.360   1.637   3.720  0.1476  2.1484 -1.2877
20300SOL    HW265357   2.480   1.686   3.642  2.9023 -0.7775  0.8310
20301SOL     OW65358   2.169   3.822   6.940  0.2253  0.1489 -0.0757
20301SOL    HW165359   2.093   3.863   6.981 -0.0280  1.1283 -1.4335
20301SOL    HW265360   2.149   3.823   6.847  1.8892  0.4399 -0.4671
20302SOL     OW65361   4.894   3.369   9.251 -0.3698  0.9152  0.2061
20302SOL    HW165362   4.960   3.309   9.288 -1.1273 -0.2447 -0.2563
20302SOL    HW265363   4.893   3.443   9.311  1.3003  0.9382  0.2628
20303SOL     OW65364   9.583   6.541   3.069  0.3292  0.1368  0.0792
20303SOL    HW165365   9.508   6.486   3.093  0.6087 -0.4097 -0.3012
20303SOL    HW265366   9.546   6.606   3.010 -0.0842  0.6285  0.8520
20304SOL     OW65367   0.209   7.181   3.417 -0.1178  0.3030  0.7083
20304SOL    HW165368   0.222   7.123   3.343  0.7001 -0.2214  1.2477
20304SOL    HW265369   0.146   7.246   3.386  0.2586  0.1343 -0.4545
20305SOL     OW65370   9.832   8.191   5.245 -0.5442  0.2734  0.7470
20305SOL    HW165371   9.795   8.107   5.217 -1.9791  1.0671  0.1808
20305SOL    HW265372   9.761   8.234   5.293 -0.3688  1.8203 -0.3113
20306SOL     OW65373   3.959   0.348   0.126 -0.1128 -0.5573 -0.1278
20306SOL    HW165374   4.015   0.425   0.131  0.4885 -1.0739  1.7987
20306SOL    HW265375   3.915   0.355   0.041  0.4077  1.5519 -0.2552
20307SOL     OW65376  10.587   4.512   1.959 -0.1862 -0.0896 -0.1590
20307SOL    HW165377  10.572   4.418   1.965  0.1133 -0.0427  1.6905
20307SOL    HW265378  10.521   4.551   2.016  1.1440  0.6539  0.9484
20308SOL     OW65379   2.982   4.104   2.501 -0.3781  0.4211  0.3307
20308SOL    HW165380   2.916   4.167   2.472 -0.4010  0.1887 -0.1385
20308SOL    HW265381   2.933   4.021   2.507  0.2192 -0.1080 -1.6325
20309SOL     OW65382   7.283   0.476   8.588 -0.0925 -0.4146 -0.3555
20309SOL    HW165383   7.323   0.456   8.673  1.6598 -0.2154 -1.0884
20309SOL    HW265384   7.217   0.543   8.608  0.8803  0.2606  0.7579
20310SOL     OW65385  10.812   1.703   8.730  0.0328 -0.0790  0.5317
20310SOL    HW165386  10.768   1.623   8.756  0.4716  0.1018  1.9167
20310SOL    HW265387  10.835   1.746   8.813 -0.7294  1.7752 -0.1673
20311SOL     OW65388   1.666   0.349   8.052  0.0478 -0.8729 -0.3142
20311SOL    HW165389   1.722   0.274   8.031  0.2229 -0.3017 -2.0996
20311SOL    HW265390   1.577   0.314   8.046  0.1230 -0.9410 -1.2855
20312SOL     OW65391   0.761   8.433   5.054  0.4004 -0.3690  0.2954
20312SOL    HW165392   0.852   8.440   5.025 -0.1653 -0.1826 -1.5828
20312SOL    HW265393   0.716   8.503   5.006 -0.7086 -0.3687  1.3043
20313SOL     OW65394   8.728   4.865   0.446 -0.0654 -0.3654  0.0976
20313SOL    HW165395   8.699   4.947   0.405 -1.4418 -0.1865  1.3297
20313SOL    HW265396   8.665   4.800   0.416  0.5526 -0.8162 -0.2422
20314SOL     OW65397   9.499   3.846   9.224 -0.2094 -0.2103 -0.4482
20314SOL    HW165398   9.531   3.768   9.269 -2.1912 -0.2029  1.0909
20314SOL    HW265399   9.418   3.818   9.181 -1.0457  1.0187  0.2681
20315SOL     OW65400   7.162  10.723   2.825  0.5197 -0.0098  0.9831
20315SOL    HW165401   7.234  10.683   2.777 -0.5997 -0.8127 -0.0898
20315SOL    HW265402   7.127  10.788   2.764 -0.1910 -0.2262  1.1550
20316SOL     OW65403   3.685   1.742   2.435  0.4896 -0.0171 -0.3027
20316SOL    HW165404   3.763   1.764   2.486  1.1006  0.0387 -1.2426
20316SOL    HW265405   3.613   1.750   2.498  1.4296 -2.2623  1.1781
20317SOL     OW65406   1.577   4.985   0.381  0.1782  0.7327 -0.5217
20317SOL    HW165407   1.557   4.965   0.472 -0.1873 -0.4802 -0.8397
20317SOL    HW265408   1.658   4.936   0.363 -1.0892 -1.1224 -1.5116
20318SOL     OW65409  10.763   7.338   9.993 -0.5595 -0.3478  0.0981
20318SOL    HW165410  10.726   7.253  10.016 -0.5935  0.2516  2.5993
20318SOL    HW265411  10.716   7.364   9.914 -0.9940 -2.3542 -0.3552
20319SOL     OW65412   6.281   7.135   6.076  0.4054  0.1863  0.1253
20319SOL    HW165413   6.345   7.079   6.120  0.7342  0.9244  0.6010
20319SOL    HW265414   6.330   7.214   6.052 -0.9886  2.2883  3.4662
20320SOL     OW65415   3.942   4.258   0.859  0.1659  0.0815 -0.7688
20320SOL    HW165416   3.906   4.304   0.935  0.9607 -0.9244  0.2547
20320SOL    HW265417   3.906   4.304   0.784  1.1766  2.5894  0.1680
20321SOL     OW65418   4.875   1.055   7.491  0.0682 -0.0641  0.0507
20321SOL    HW165419   4.958   1.102   7.481  0.1498 -0.1240  0.4342
20321SOL    HW265420   4.899   0.963   7.491  0.0176 -0.0782  0.3036
20322SOL     OW65421  10.380   5.738   6.556  0.4237 -0.5164  0.4458
20322SOL    HW165422  10.418   5.672   6.498  0.7123 -0.2318  0.3129
20322SOL    HW265423  10.390   5.821   6.509 -0.0966 -0.3990  0.5382
20323SOL     OW65424   0.884   8.593   7.827  0.1013  0.3696 -0.1157
20323SOL    HW165425   0.890   8.674   7.776  1.6866  0.4263  0.1113
20323SOL    HW265426   0.941   8.609   7.903  1.0950 -1.2565 -0.4917
20324SOL     OW65427   1.536   6.466   7.354  0.5995  0.4993  0.3950
20324SOL    HW165428   1.452   6.426   7.377  0.4715  1.0882  0.9969
20324SOL    HW265429   1.585   6.467   7.436  1.0495  0.5156  0.1304
20325SOL     OW65430   7.844   0.530   3.148 -0.1132 -0.0695  0.2310
20325SOL    HW165431   7.778   0.492   3.090  0.5000  0.4620 -0.8343
20325SOL    HW265432   7.832   0.624   3.140  1.2412  0.0657 -0.5643
20326SOL     OW65433   9.845   0.487   1.979 -0.3339  0.2306 -0.0380
20326SOL    HW165434   9.834   0.553   2.048  2.3958 -0.4101  1.1657
20326SOL    HW265435   9.902   0.421   2.019 -0.0002 -0.9988 -2.3954
20327SOL     OW65436   7.218   8.246   1.256 -0.2679 -0.1439  0.0996
20327SOL    HW165437   7.258   8.199   1.183 -1.1513 -0.9110  0.0988
20327SOL    HW265438   7.126   8.221   1.255 -0.5252  0.6883  0.8159
20328SOL     OW65439   6.529   9.116   0.407  0.0558  0.3117 -0.2095
20328SOL    HW165440   6.459   9.170   0.370 -1.1105  0.7722  2.3709
20328SOL    HW265441   6.485   9.066   0.476  1.5803 -2.2756 -0.9942
20329SOL     OW65442  10.119   9.752   7.904 -0.3151 -0.5862 -0.6261
20329SOL    HW165443  10.204   9.717   7.877  0.1554 -0.9280  1.1648
20329SOL    HW265444  10.139   9.817   7.971 -1.4143  0.1523 -0.9907
20330SOL     OW65445  10.680   0.505   4.512 -0.5378  0.7814  0.1230
20330SOL    HW165446  10.585   0.510   4.503 -0.4552 -0.6471 -2.3708
20330SOL    HW265447  10.713   0.579   4.460 -0.2435  1.4372  1.2026
20331SOL     OW65448   9.845   3.149   8.678  0.0667  0.0580 -0.3618
20331SOL    HW165449   9.855   3.076   8.617 -2.5542 -0.2568 -0.5520
20331SOL    HW265450   9.830   3.225   8.623  1.0502  0.4253 -0.1363
20332SOL     OW65451   8.133   0.983   8.703  0.3258 -0.0849  0.7174
20332SOL    HW165452   8.140   1.052   8.769 -2.0806 -1.7048  2.8588
20332SOL    HW265453   8.041   0.984   8.677  1.2329  0.7707 -3.1437
20333SOL     OW65454   0.457   2.512   5.864 -0.3597  0.4007 -0.1707
20333SOL    HW165455   0.458   2.599   5.904  1.2613  0.1603  0.3532
20333SOL    HW265456   0.523   2.517   5.795  1.2075 -0.9877  1.1718
20334SOL     OW65457   3.636   1.740   6.481 -0.6002 -0.1473 -0.0045
20334SOL    HW165458   3.587   1.755   6.400 -0.5525  3.2808  0.4500
20334SOL    HW265459   3.724   1.716   6.451 -0.6603  0.7701 -1.0018
20335SOL     OW65460   6.197   4.510   4.957  0.4595 -0.3225  0.1124
20335SOL    HW165461   6.221   4.419   4.976 -1.5063 -0.8809  0.1603
20335SOL    HW265462   6.173   4.547   5.043  0.5909  0.0237  0.0021
20336SOL     OW65463   1.109   7.168   0.827 -0.0724 -0.6702 -0.5291
20336SOL    HW165464   1.178   7.158   0.762 -0.1650  0.0348 -0.7363
20336SOL    HW265465   1.070   7.080   0.833 -0.5284 -0.5936 -1.9524
20337SOL     OW65466   6.063   1.649   3.668 -0.2477 -0.3191  0.3528
20337SOL    HW165467   6.073   1.737   3.706  0.5637 -0.1211 -0.2728
20337SOL    HW265468   5.997   1.607   3.722  0.9928 -0.1226  2.1262
20338SOL     OW65469   3.692   6.024   1.045 -0.4169 -0.5330  0.2211
20338SOL    HW165470   3.600   6.023   1.072 -0.2953 -0.4297  0.6359
20338SOL    HW265471   3.692   5.978   0.961 -1.3124  2.0749 -1.3269
20339SOL     OW65472   5.969   8.534   1.215  0.3146  0.3540 -0.1213
20339SOL    HW165473   5.950   8.454   1.165 -0.1415 -0.8074  1.8107
20339SOL    HW265474   6.053   8.564   1.180 -0.4474  0.1875 -2.2541
20340SOL     OW65475   2.659   6.037   3.027 -0.0364 -0.0655 -0.1463
20340SOL    HW165476   2.712   6.095   2.973  0.3883 -1.2849 -1.0865
20340SOL    HW265477   2.712   6.023   3.106  1.3899 -1.7045 -1.3019
20341SOL     OW65478   4.074  10.325   6.538  0.0953  0.3412  0.3287
20341SOL    HW165479   4.125  10.358   6.464 -0.1480 -1.4628 -0.6966
20341SOL    HW265480   4.140  10.293   6.600  0.2835 -1.4385 -0.7308
20342SOL     OW65481  10.329   7.980   2.644  0.1012 -0.2020  0.0664
20342SOL    HW165482  10.408   8.028   2.670 -0.2320  0.3515  0.0548
20342SOL    HW265483  10.257   8.039   2.663 -0.3095 -0.6567 -0.0486
20343SOL     OW65484  10.536   1.351   6.406  0.1657 -0.0528  1.0488
20343SOL    HW165485  10.564   1.422   6.348  0.1413 -0.6675  0.2686
20343SOL    HW265486  10.568   1.271   6.364 -0.5517 -0.5764  1.4684
20344SOL     OW65487   3.923   8.360   9.848 -0.0196  0.1245  0.5476
20344SOL    HW165488   3.997   8.318   9.891  1.9587  0.4378 -2.3398
20344SOL    HW265489   3.869   8.287   9.816  0.5227 -0.1437  0.2467
20345SOL     OW65490   3.312   9.725   6.630  0.2159  0.1734 -0.0986
20345SOL    HW165491   3.359   9.709   6.548 -0.5700  0.3456 -0.5936
20345SOL    HW265492   3.263   9.805   6.614 -0.9096 -0.4534  0.0904
20346SOL     OW65493   5.531   9.537   3.567 -0.6022  0.2885  0.3642
20346SOL    HW165494   5.517   9.584   3.484  0.4440 -1.0064 -0.5917
20346SOL    HW265495   5.469   9.465   3.564  1.3300 -1.4363 -0.6826
20347SOL     OW65496   1.256   5.345   6.892  0.3786  1.4852 -0.1134
20347SOL    HW165497   1.186   5.394   6.848 -0.6965  0.6648  0.6414
20347SOL    HW265498   1.311   5.313   6.820 -1.7618 -0.4824 -1.0289
20348SOL     OW65499   1.936   5.454   0.625  0.0851 -0.2177 -0.3291
20348SOL    HW165500   1.854   5.422   0.589 -0.9557 -0.1495  1.8380
20348SOL    HW265501   1.911   5.523   0.687  1.9271  1.2384 -1.1063
20349SOL     OW65502   7.311   7.044  10.045 -0.0079 -0.1573 -0.0430
20349SOL    HW165503   7.301   6.981   9.973  0.6534 -0.7373  0.3658
20349SOL    HW265504   7.223   7.079  10.057 -0.4187 -1.0806 -0.2147
20350SOL     OW65505   4.486   0.660   5.899 -0.1530 -0.0134  0.3205
20350SOL    HW165506   4.514   0.706   5.820  1.3295 -0.9124  0.2891
20350SOL    HW265507   4.534   0.578   5.898 -1.8716 -1.0899  0.9749
20351SOL     OW65508   8.671   9.300   2.476  0.2122 -0.7008 -0.1369
20351SOL    HW165509   8.671   9.347   2.393  0.7225  0.3896  0.4537
20351SOL    HW265510   8.640   9.212   2.454 -0.6675 -0.1280 -1.2930
20352SOL     OW65511   0.161   1.446   6.955 -0.3542 -0.3590  0.2702
20352SOL    HW165512   0.169   1.488   6.869  2.5402 -0.0538  0.5868
20352SOL    HW265513   0.070   1.416   6.959 -0.7205  0.0828 -2.6626
20353SOL     OW65514   8.849  11.039   7.857 -0.5034 -0.0508 -0.4588
20353SOL    HW165515   8.797  11.082   7.926  1.5119  1.2674  0.3211
20353SOL    HW265516   8.930  11.089   7.853  0.5174 -1.7015 -2.0134
20354SOL     OW65517   3.886   7.803   5.049 -0.4748  0.6380 -0.3380
20354SOL    HW165518   3.823   7.772   4.984 -0.1279  1.2489 -0.9776
20354SOL    HW265519   3.833   7.820   5.127 -0.8152 -0.6179 -0.2754
20355SOL     OW65520   3.664  10.993   8.418 -0.2382 -0.5366 -0.1428
20355SOL    HW165521   3.608  11.053   8.369 -1.1850  0.3645  1.9616
20355SOL    HW265522   3.738  11.046   8.445  0.2751 -1.0292 -0.5526
20356SOL     OW65523   5.062   0.202   3.953  0.6042  0.1518 -0.1492
20356SOL    HW165524   5.101   0.216   3.867 -0.2225 -0.7007 -0.6746
20356SOL    HW265525   5.131   0.227   4.015  1.1207  1.0014 -1.0459
20357SOL     OW65526   6.853  10.098   9.967 -0.2034  0.4439  0.4367
20357SOL    HW165527   6.887  10.030   9.909 -1.6348  0.5682 -0.6161
20357SOL    HW265528   6.927  10.156   9.983  0.4334 -0.0664 -0.5914
20358SOL     OW65529   6.576   7.943   1.833  0.2964  0.1835  0.1834
20358SOL    HW165530   6.624   7.884   1.891 -0.0439  0.0424  0.3240
20358SOL    HW265531   6.641   7.972   1.769  1.1588  1.7174  1.6450
20359SOL     OW65532   9.707   4.054   8.848 -0.5403 -0.0526 -0.0949
20359SOL    HW165533   9.698   4.085   8.938  1.6930  0.1632  0.0979
20359SOL    HW265534   9.714   4.133   8.795  1.6723 -0.1187  0.0005
20360SOL     OW65535   2.341   9.172  10.133 -0.2527 -0.4603  0.3432
20360SOL    HW165536   2.433   9.150  10.120 -0.4376 -1.4695  0.6873
20360SOL    HW265537   2.317   9.220  10.054  0.5471 -0.2460  0.2201
20361SOL     OW65538   5.359  10.824   5.771  0.0051 -0.0905 -0.2092
20361SOL    HW165539   5.421  10.851   5.839 -0.0949  0.7843 -0.4500
20361SOL    HW265540   5.273  10.829   5.813 -0.1451  1.2959 -0.6146
20362SOL     OW65541   9.491   7.805   3.891  0.3946  0.3687  0.0658
20362SOL    HW165542   9.400   7.776   3.890  0.3238  0.2802 -3.2103
20362SOL    HW265543   9.533   7.755   3.820  2.6832  1.3698  0.6098
20363SOL     OW65544   0.298   1.662   7.145 -0.3422 -0.4706  0.0149
20363SOL    HW165545   0.202   1.662   7.145 -0.3574  1.0258  0.0467
20363SOL    HW265546   0.322   1.744   7.103  0.9355 -0.5451  0.5683
20364SOL     OW65547  10.126   9.463   0.190 -0.1054  0.1498 -0.0395
20364SOL    HW165548  10.200   9.524   0.198  0.6231 -0.8312  0.9457
20364SOL    HW265549  10.067   9.489   0.260 -0.2461  0.3255 -0.2228
20365SOL     OW65550   2.434   8.817   5.759 -0.3408  0.3641 -0.2648
20365SOL    HW165551   2.372   8.889   5.751  0.5167  1.0216 -1.3186
20365SOL    HW265552   2.380   8.740   5.776 -1.3699  1.0614 -0.3211
20366SOL     OW65553   6.743   3.995   9.379  0.1526  0.3406 -0.3223
20366SOL    HW165554   6.786   3.922   9.422  0.0139  1.2738  1.4915
20366SOL    HW265555   6.771   4.072   9.428 -0.7153  1.3712 -1.3802
20367SOL     OW65556   1.163   9.591   2.534 -0.2119  0.1244 -0.1564
20367SOL    HW165557   1.169   9.550   2.620  0.0539 -0.3484 -0.3902
20367SOL    HW265558   1.084   9.644   2.537 -0.7981 -0.7272  0.0332
20368SOL     OW65559   4.216   3.796  10.744  0.2756  0.8015 -0.2862
20368SOL    HW165560   4.153   3.868  10.751 -0.0023  0.5782 -0.4370
20368SOL    HW265561   4.230   3.787  10.649  0.2261  0.5909 -0.2742
20369SOL     OW65562   7.070  10.616   9.268  0.9887 -0.0281 -0.3608
20369SOL    HW165563   7.120  10.583   9.194 -0.7598 -0.5661 -1.3377
20369SOL    HW265564   7.015  10.685   9.231 -0.5580 -0.9051  0.2333
20370SOL     OW65565   6.459   5.102   7.812 -0.9035  0.4525 -0.3753
20370SOL    HW165566   6.475   5.104   7.718 -1.1386  1.6248 -0.4045
20370SOL    HW265567   6.376   5.055   7.822 -0.8244  0.2331 -0.7402
20371SOL     OW65568   2.530   6.342  10.359  0.0728  0.7662 -0.3087
20371SOL    HW165569   2.489   6.255  10.350 -1.6496  1.5942 -1.0204
20371SOL    HW265570   2.624   6.325  10.355 -0.2372 -1.0048 -1.1445
20372SOL     OW65571   5.220   7.842   2.182 -0.3934 -0.2092 -0.2721
20372SOL    HW165572   5.214   7.865   2.089  1.4706  0.9144 -0.1719
20372SOL    HW265573   5.186   7.919   2.228 -0.5085 -0.4172 -0.0053
20373SOL     OW65574   1.730   4.272  10.727  0.2358 -0.0854 -0.0795
20373SOL    HW165575   1.728   4.200  10.790  0.4056  0.0671  0.1066
20373SOL    HW265576   1.640   4.280  10.697  0.2762 -0.5747 -0.3364
20374SOL     OW65577   1.397   5.846   3.722  0.6031 -0.5322 -0.0123
20374SOL    HW165578   1.333   5.843   3.651  0.2300  0.8273  0.2338
20374SOL    HW265579   1.476   5.807   3.685 -0.2241 -1.8571 -0.4499
20375SOL     OW65580   4.443  10.324   7.978  0.2884 -0.1596  0.3774
20375SOL    HW165581   4.418  10.415   7.993  0.8039  0.0116  0.2241
20375SOL    HW265582   4.393  10.275   8.043 -1.2764  0.0325 -0.6300
20376SOL     OW65583   9.365  10.790   3.624  0.4147 -0.5974  0.4291
20376SOL    HW165584   9.376  10.885   3.615  0.3747 -0.5957  0.3967
20376SOL    HW265585   9.371  10.774   3.718  1.0928 -0.6471  0.3820
20377SOL     OW65586   6.970   1.929   3.610 -0.6073 -0.2731 -0.0266
20377SOL    HW165587   6.945   1.983   3.684 -2.6903 -0.0876 -0.8100
20377SOL    HW265588   6.952   1.839   3.639 -2.7920 -0.1130 -0.7451
20378SOL     OW65589   6.185   0.357   2.721 -0.0019  0.1124  0.1352
20378SOL    HW165590   6.183   0.287   2.656 -2.7848  1.5077 -1.4423
20378SOL    HW265591   6.217   0.434   2.674  1.9310  0.2735  1.5606
20379SOL     OW65592   3.658  10.531   9.157  0.0159  0.2520  0.1804
20379SOL    HW165593   3.584  10.581   9.122 -0.4607 -0.5457  0.0425
20379SOL    HW265594   3.622  10.483   9.231  0.4162 -0.1076  0.1450
20380SOL     OW65595  11.016   5.273   0.221  0.2622  0.2997 -0.1547
20380SOL    HW165596  10.997   5.204   0.284 -1.0611  0.4276 -0.3910
20380SOL    HW265597  10.957   5.257   0.148  0.9256  0.8713 -0.8415
20381SOL     OW65598   4.850   2.652   9.496  0.4768 -0.0561  0.0251
20381SOL    HW165599   4.852   2.724   9.433 -0.3449 -0.7132 -0.7852
20381SOL    HW265600   4.893   2.580   9.450  0.6153 -0.3071  0.5451
20382SOL     OW65601   8.002   9.136   1.430  0.5500  0.2799  0.0407
20382SOL    HW165602   8.008   9.059   1.373  1.7074  0.8139 -0.5793
20382SOL    HW265603   7.912   9.135   1.461  0.3385 -0.9141 -0.5425
20383SOL     OW65604   4.923   6.530   9.388  0.1727  0.1433 -0.5493
20383SOL    HW165605   4.838   6.504   9.354  0.6831 -2.4044 -0.0309
20383SOL    HW265606   4.982   6.459   9.362  2.4138  2.2941 -1.7939
20384SOL     OW65607   2.699   7.000   8.612  0.2111 -0.0410  0.0405
20384SOL    HW165608   2.743   6.916   8.622  2.2618  0.9229 -0.3943
20384SOL    HW265609   2.643   6.990   8.535 -1.3872 -1.6811  1.3294
20385SOL     OW65610   3.362   3.954   3.653  0.1536  0.2773  0.0301
20385SOL    HW165611   3.307   3.879   3.677  0.1856  0.6628  1.3895
20385SOL    HW265612   3.411   3.974   3.733  0.3432  1.5880 -0.3941
20386SOL     OW65613   8.670   9.097   9.106 -0.2511  0.8231 -0.4477
20386SOL    HW165614   8.643   9.007   9.088 -1.0410  0.6650  1.3494
20386SOL    HW265615   8.765   9.095   9.099 -0.2250 -0.2602 -0.0076
20387SOL     OW65616  10.237   1.697   2.511 -0.3457  0.3839  0.4380
20387SOL    HW165617  10.143   1.715   2.503 -0.1595  1.7955  1.1613
20387SOL    HW265618  10.261   1.730   2.597  1.0829  1.3596 -0.2735
20388SOL     OW65619  10.861   7.181   7.974 -0.3169  0.1907 -0.0260
20388SOL    HW165620  10.876   7.216   8.062 -1.6760  0.4867  0.1234
20388SOL    HW265621  10.840   7.088   7.990 -0.6251  0.2594 -0.0258
20389SOL     OW65622   8.253   1.784   0.233  0.1310  0.2556 -0.5762
20389SOL    HW165623   8.337   1.813   0.196  0.8649  0.5884  1.2779
20389SOL    HW265624   8.257   1.688   0.229 -0.8111  0.2344 -3.4390
20390SOL     OW65625   3.674   6.773   8.864  0.6851 -0.5822 -0.0737
20390SOL    HW165626   3.633   6.852   8.827 -0.1937 -1.3169 -0.7031
20390SOL    HW265627   3.603   6.730   8.911  0.9414 -1.4571 -0.4822
20391SOL     OW65628   7.949   9.410   7.476 -0.3511  0.5979 -0.1393
20391SOL    HW165629   7.993   9.455   7.549  0.0213 -0.5916  0.3972
20391SOL    HW265630   7.872   9.370   7.516 -1.2186  1.5587 -0.8124
20392SOL     OW65631   0.526  10.511  11.019  0.2958  0.5445 -0.2490
20392SOL    HW165632   0.575  10.593  11.008  1.4478 -0.0710  0.0636
20392SOL    HW265633   0.436  10.534  10.999  0.3517  2.2226  1.1692
20393SOL     OW65634   9.127   6.066   8.122 -0.2865 -0.1049 -0.2426
20393SOL    HW165635   9.126   5.979   8.084  1.2788  0.2672 -1.2173
20393SOL    HW265636   9.199   6.063   8.186  0.2756  0.6787 -0.8274
20394SOL     OW65637   2.188  10.553   3.784 -0.0816 -0.1631  0.0585
20394SOL    HW165638   2.136  10.556   3.704 -2.3313 -0.1754  1.4393
20394SOL    HW265639   2.195  10.460   3.805 -1.2718 -0.0844  0.9174
20395SOL     OW65640   9.598   1.871   1.356  0.6367 -0.5856 -0.1879
20395SOL    HW165641   9.573   1.959   1.383  1.0628 -0.4700 -0.1586
20395SOL    HW265642   9.539   1.813   1.403  1.5572 -0.4024  1.2361
20396SOL     OW65643  10.421  10.678   2.277  0.3915 -0.2232  0.0203
20396SOL    HW165644  10.466  10.648   2.356  2.1441  1.0895 -0.4143
20396SOL    HW265645  10.387  10.599   2.237 -0.2364 -0.9513  1.9029
20397SOL     OW65646   5.844   2.290   3.384  0.4729 -0.4739  0.3216
20397SOL    HW165647   5.918   2.331   3.340 -0.2969  0.3459 -0.2420
20397SOL    HW265648   5.856   2.310   3.476  0.7842 -0.0757  0.1955
20398SOL     OW65649   1.521   1.513   8.652 -0.3407  0.3571 -0.4633
20398SOL    HW165650   1.573   1.516   8.732 -0.2963 -1.5208 -0.3942
20398SOL    HW265651   1.573   1.463   8.590 -1.4482 -0.3864 -0.8342
20399SOL     OW65652   3.995   1.381   0.485 -0.7872  0.3242  0.2113
20399SOL    HW165653   3.920   1.370   0.427  1.0672 -0.5118 -2.1796
20399SOL    HW265654   4.051   1.444   0.439  0.6523 -0.1878  1.2067
20400SOL     OW65655  10.645   1.662   8.449  0.2399  0.0696  0.2422
20400SOL    HW165656  10.708   1.631   8.514  0.1754 -1.2104 -0.2740
20400SOL    HW265657  10.564   1.614   8.469 -0.1791  0.6789  0.0490
20401SOL     OW65658   3.309   0.503   4.624  0.0470  0.3562  0.3868
20401SOL    HW165659   3.386   0.544   4.584 -1.1667  4.4825  1.7476
20401SOL    HW265660   3.238   0.565   4.606 -2.2147 -1.5764  2.1090
20402SOL     OW65661   7.435   8.451   0.440 -0.0074 -0.0765  0.1019
20402SOL    HW165662   7.519   8.437   0.396  0.5256 -0.7381  1.2836
20402SOL    HW265663   7.428   8.378   0.502 -1.0198  0.4829  0.6715
20403SOL     OW65664   1.715   4.450   9.021 -0.2131 -0.4046 -0.1021
20403SOL    HW165665   1.772   4.503   9.077 -0.4350 -0.2941  0.0221
20403SOL    HW265666   1.722   4.361   9.056 -1.0241 -0.1903  0.6651
20404SOL     OW65667   4.680   7.239   9.552  0.0398  0.2894  0.1301
20404SOL    HW165668   4.775   7.235   9.556 -0.0399 -1.2769  1.3315
20404SOL    HW265669   4.661   7.315   9.497  1.9599  1.4076  0.9379
20405SOL     OW65670   7.663   8.019   6.274  0.5159  0.4166  0.4967
20405SOL    HW165671   7.708   7.984   6.198  0.6659  1.4797  0.0698
20405SOL    HW265672   7.678   7.955   6.343  0.1939 -0.6765 -0.4083
20406SOL     OW65673   9.073   2.098   5.222 -0.0955  0.2622 -0.6319
20406SOL    HW165674   9.106   2.015   5.188  0.8175 -0.1409  1.0735
20406SOL    HW265675   9.151   2.143   5.255 -0.4335  2.2653 -2.3730
20407SOL     OW65676  10.899   1.679   0.812 -0.1671 -0.0122 -0.2772
20407SOL    HW165677  10.989   1.650   0.795 -0.3167  0.4864 -2.1255
20407SOL    HW265678  10.907   1.735   0.890  0.9944 -0.5886  0.0405
20408SOL     OW65679   4.390   3.495   3.889 -0.0110 -0.4678 -0.1332
20408SOL    HW165680   4.410   3.469   3.979 -0.7690 -0.4625  0.0374
20408SOL    HW265681   4.462   3.555   3.865  0.3383 -0.6838  0.3668
20409SOL     OW65682   5.323   9.867   7.314 -0.3173 -0.2026 -0.7567
20409SOL    HW165683   5.256   9.903   7.255 -0.3661 -0.5444 -0.9092
20409SOL    HW265684   5.402   9.862   7.260 -0.1517  0.2425 -0.5653
20410SOL     OW65685   8.004  10.436   1.093  0.3341  0.3164  0.1653
20410SOL    HW165686   8.010  10.508   1.030  1.1194  0.3268  0.2357
20410SOL    HW265687   8.081  10.381   1.074 -0.4068 -0.6739 -0.0881
20411SOL     OW65688  10.268   4.848   5.378 -0.0344 -0.0210  0.6136
20411SOL    HW165689  10.361   4.864   5.398 -0.3044  0.1280  1.8247
20411SOL    HW265690  10.222   4.921   5.420 -0.7992 -0.7344  1.0360
20412SOL     OW65691   4.666   3.673   7.786  0.2077  0.5709 -0.1242
20412SOL    HW165692   4.665   3.613   7.711  0.3703  0.2209  0.1498
20412SOL    HW265693   4.633   3.620   7.859  1.1653  0.5616  0.3128
20413SOL     OW65694   3.505   4.147   7.842  0.0140 -0.6349  0.5676
20413SOL    HW165695   3.443   4.212   7.807  1.7654 -0.6882 -3.1979
20413SOL    HW265696   3.457   4.064   7.837 -0.2671 -0.4260 -0.5101
20414SOL     OW65697   5.683   6.564   4.070 -0.2332 -0.4330  0.1437
20414SOL    HW165698   5.714   6.567   4.161  0.6548  2.8507 -0.1659
20414SOL    HW265699   5.752   6.607   4.020 -1.7394 -0.1384 -1.7752
20415SOL     OW65700   0.423  10.339   8.143  0.1708  0.1515 -0.5731
20415SOL    HW165701   0.403  10.264   8.199  1.2093  0.6394  0.4933
20415SOL    HW265702   0.359  10.405   8.170  0.9087  0.5167  0.3510
20416SOL     OW65703  10.223   7.832   3.263  0.0396 -0.5787 -0.5679
20416SOL    HW165704  10.173   7.775   3.321  0.0834 -1.5857 -1.4808
20416SOL    HW265705  10.314   7.805   3.275  0.0710 -0.6489 -0.9502
20417SOL     OW65706   1.758   1.801   7.040  0.0014 -0.1283 -0.2643
20417SOL    HW165707   1.824   1.735   7.019 -0.0214 -0.2630  0.0824
20417SOL    HW265708   1.742   1.791   7.134  0.5771  0.8980 -0.0387
20418SOL     OW65709   7.616   0.707   8.800  0.2609 -0.0005  0.3094
20418SOL    HW165710   7.539   0.718   8.744  0.3836 -0.3262  0.0768
20418SOL    HW265711   7.691   0.726   8.744  0.3506  0.4389  0.5683
20419SOL     OW65712   1.533   9.112   0.621  0.2183  0.1901  0.6128
20419SOL    HW165713   1.557   9.110   0.528 -0.7031 -2.0247  0.3597
20419SOL    HW265714   1.580   9.037   0.659 -0.8914 -0.0674  1.5147
20420SOL     OW65715   2.985   9.685  10.791 -0.0775  0.3977 -0.7866
20420SOL    HW165716   2.939   9.668  10.709  0.3924  0.1990 -1.0167
20420SOL    HW265717   3.070   9.720  10.764  0.0362  0.4427 -0.3821
20421SOL     OW65718   8.848   5.840   0.608  0.0044 -0.2578 -0.2078
20421SOL    HW165719   8.911   5.909   0.590  2.1723 -1.4608  2.1093
20421SOL    HW265720   8.890   5.786   0.675 -2.6259 -2.3980 -0.1050
20422SOL     OW65721   9.402   9.252   6.570 -0.0108 -0.2461  0.4322
20422SOL    HW165722   9.367   9.226   6.656 -2.4165  0.2805 -0.3113
20422SOL    HW265723   9.360   9.192   6.508 -1.8142  2.1237 -0.7881
20423SOL     OW65724   7.390   5.923  10.032  0.4372 -0.2758  0.2694
20423SOL    HW165725   7.440   5.867  10.091  0.6701 -1.1163 -0.7063
20423SOL    HW265726   7.352   5.989  10.090  0.2004 -1.3882  1.4360
20424SOL     OW65727   8.695   2.059   8.426  0.2255 -0.5059 -0.3882
20424SOL    HW165728   8.646   1.988   8.385 -1.0397 -0.5883  1.1991
20424SOL    HW265729   8.667   2.138   8.380 -0.7059 -0.6705 -0.1146
20425SOL     OW65730   2.752   2.329   9.246 -0.1095 -0.2295  0.5192
20425SOL    HW165731   2.660   2.358   9.249  0.0378  0.2374  0.5715
20425SOL    HW265732   2.754   2.252   9.304 -0.4183 -0.0985  0.7088
20426SOL     OW65733  10.869   1.515   6.722  0.3881 -0.2146  0.0302
20426SOL    HW165734  10.867   1.579   6.651  1.3767  0.7731  0.8694
20426SOL    HW265735  10.793   1.459   6.706  1.0156 -0.5240 -2.2575
20427SOL     OW65736   7.397   2.207   5.968  0.0613  0.0271  0.5276
20427SOL    HW165737   7.382   2.113   5.974  1.8680 -0.3311  0.1877
20427SOL    HW265738   7.315   2.243   5.933 -0.2237 -1.5828 -0.5437
20428SOL     OW65739   8.154   9.713   5.798  0.7539 -0.0642  0.0284
20428SOL    HW165740   8.112   9.655   5.863  0.3865  2.0755  1.8118
20428SOL    HW265741   8.082   9.765   5.763  0.8690 -1.4903 -2.5710
20429SOL     OW65742  10.399   1.865   7.848 -0.2424  0.0016 -0.3227
20429SOL    HW165743  10.330   1.931   7.842 -0.5100 -0.1594  0.7798
20429SOL    HW265744  10.479   1.912   7.826 -0.7348  0.0950 -2.0074
20430SOL     OW65745   1.648   4.789   9.053 -0.3503 -0.0862  0.1864
20430SOL    HW165746   1.695   4.785   9.137  0.6334 -0.9240 -0.3860
20430SOL    HW265747   1.654   4.700   9.018 -0.2025  0.3979 -1.0618
20431SOL     OW65748  10.205   1.791   1.296  0.1173  0.0808 -0.5549
20431SOL    HW165749  10.159   1.875   1.302  0.5493  0.3104 -0.4482
20431SOL    HW265750  10.191   1.750   1.382 -0.6636 -0.2572 -0.8371
20432SOL     OW65751   2.642   5.728   4.575  0.0163  0.1419  0.1193
20432SOL    HW165752   2.577   5.707   4.508 -0.9921 -0.6186  1.2773
20432SOL    HW265753   2.723   5.686   4.545 -0.2406  0.3740 -0.9221
20433SOL     OW65754   2.527   1.963   7.589 -0.0294 -0.0055 -0.0718
20433SOL    HW165755   2.490   2.044   7.553  0.2270  0.1380 -0.0177
20433SOL    HW265756   2.558   1.916   7.512 -0.7210 -0.3291 -0.1563
20434SOL     OW65757   7.924   1.868  10.330  0.3006  0.3854 -0.3799
20434SOL    HW165758   7.857   1.824  10.279  1.2168  0.4599 -1.7138
20434SOL    HW265759   7.902   1.961  10.323 -1.8534  0.2417  2.7539
20435SOL     OW65760   9.293   6.037   3.660 -0.0204  0.3121 -0.6099
20435SOL    HW165761   9.245   6.118   3.643  1.0411  0.6512 -2.2517
20435SOL    HW265762   9.380   6.066   3.688  0.7036 -0.2093 -2.2174
20436SOL     OW65763   8.033   4.355   1.849  0.1319  0.1056 -0.3348
20436SOL    HW165764   7.988   4.279   1.887 -0.4660  0.5057 -0.2190
20436SOL    HW265765   8.014   4.350   1.756  1.0941 -0.5441 -0.5024
20437SOL     OW65766   3.757   7.490   2.806  0.6749  0.3698 -0.1335
20437SOL    HW165767   3.828   7.428   2.818  2.2255  2.0236 -0.3778
20437SOL    HW265768   3.725   7.473   2.717 -0.6655 -1.7162  0.6618
20438SOL     OW65769   6.724   4.296   3.369  0.4526 -0.4785 -0.4811
20438SOL    HW165770   6.641   4.296   3.321 -0.4508 -0.6343  0.9779
20438SOL    HW265771   6.787   4.336   3.310 -0.9384  0.7511 -1.1996
20439SOL     OW65772   2.653   9.974   8.125  0.0646  0.0621  0.2442
20439SOL    HW165773   2.598   9.910   8.171  0.9067 -2.3043 -1.7952
20439SOL    HW265774   2.737   9.969   8.171 -0.1530  0.4675  0.6965
20440SOL     OW65775   2.794   6.351   5.165  0.0021  0.3827 -0.9970
20440SOL    HW165776   2.787   6.294   5.089  0.3578  0.9078 -1.4304
20440SOL    HW265777   2.714   6.402   5.165 -0.3379 -0.1294 -0.5826
20441SOL     OW65778   9.241   2.925   6.850  0.3671  0.5579  0.3834
20441SOL    HW165779   9.187   3.000   6.876 -0.6247 -0.4523  1.3718
20441SOL    HW265780   9.232   2.920   6.755 -0.7125  0.8551  0.4619
20442SOL     OW65781   8.194   9.669   5.410  0.3403  0.3315  0.0367
20442SOL    HW165782   8.242   9.723   5.473  0.1435 -0.0980  0.5672
20442SOL    HW265783   8.237   9.584   5.414  0.1293  0.2124 -0.1825
20443SOL     OW65784   8.550   2.452  10.229  0.0298  0.8349 -0.4929
20443SOL    HW165785   8.557   2.358  10.210  1.1550  0.3765  1.7313
20443SOL    HW265786   8.466   2.461  10.274 -0.9300  1.2689 -2.2821
20444SOL     OW65787   7.336   3.185   6.368  0.4105  0.0104 -0.6516
20444SOL    HW165788   7.242   3.204   6.372  0.5732  0.7443  0.1287
20444SOL    HW265789   7.369   3.211   6.454  1.2162 -0.9061 -0.6718
20445SOL     OW65790   5.323   4.843   0.585  0.3289 -0.5665  0.0932
20445SOL    HW165791   5.237   4.821   0.549  0.6499 -2.8571  0.5913
20445SOL    HW265792   5.305   4.875   0.673  0.0310 -3.1747  1.0780
20446SOL     OW65793  10.416   5.255   3.606 -0.0006  0.4169 -0.0857
20446SOL    HW165794  10.411   5.345   3.573  0.6384  0.2705 -0.5998
20446SOL    HW265795  10.325   5.226   3.612 -0.4868  2.1193  2.9725
20447SOL     OW65796  10.785  10.357   8.764 -0.3824 -0.2670 -0.1659
20447SOL    HW165797  10.820  10.370   8.675 -0.1358  0.5739  0.0482
20447SOL    HW265798  10.858  10.380   8.822 -0.2431 -1.7121  0.2606
20448SOL     OW65799   3.415   3.416   5.405 -0.0518  0.4236 -0.1582
20448SOL    HW165800   3.458   3.494   5.441 -1.2036  1.1106 -0.2245
20448SOL    HW265801   3.322   3.436   5.410 -0.3074  0.0959 -2.4731
20449SOL     OW65802   8.592   9.265   4.843 -0.1220 -0.4601  1.0745
20449SOL    HW165803   8.596   9.330   4.773  1.0931  1.2609  2.6458
20449SOL    HW265804   8.683   9.243   4.860 -0.0603  1.5466  4.1145
20450SOL     OW65805   8.422   8.434   6.310 -0.5289 -0.2962  0.1851
20450SOL    HW165806   8.330   8.438   6.284 -0.9919 -1.2940  1.5356
20450SOL    HW265807   8.438   8.516   6.357 -1.2851 -0.8748  1.5265
20451SOL     OW65808   9.266   0.564   2.117 -0.2423 -0.5110 -0.3500
20451SOL    HW165809   9.318   0.492   2.083  2.6211  0.1710  2.1219
20451SOL    HW265810   9.239   0.536   2.204  1.3455  1.4360  0.8724
20452SOL     OW65811   7.599   7.959   2.011 -0.1290 -0.0884 -0.2568
20452SOL    HW165812   7.655   7.995   1.942  0.4442  0.0424  0.2664
20452SOL    HW265813   7.654   7.962   2.090 -1.7744  2.8011  0.9465
20453SOL     OW65814   7.207   0.216   0.154 -0.0144 -0.2685 -0.1440
20453SOL    HW165815   7.113   0.200   0.159  0.0307 -0.2462  1.0424
20453SOL    HW265816   7.245   0.155   0.217  0.8738 -1.0429 -1.3884
20454SOL     OW65817   6.972   7.532   9.024  0.7329 -0.2931  0.3608
20454SOL    HW165818   7.046   7.510   8.967  0.0275  0.1072 -0.7409
20454SOL    HW265819   6.988   7.483   9.104  1.8593 -0.7146 -0.1038
20455SOL     OW65820   4.030   9.898   5.200 -0.3447  0.3699  0.0247
20455SOL    HW165821   4.042   9.852   5.283  3.0168  1.3055  0.1989
20455SOL    HW265822   4.097   9.862   5.142 -0.2179  2.2583 -1.0907
20456SOL     OW65823   9.288   9.951   6.690  0.2387 -0.5730  0.5995
20456SOL    HW165824   9.372   9.993   6.704  1.1836 -1.3920 -2.0367
20456SOL    HW265825   9.225  10.023   6.692  1.0846  0.1732  1.6644
20457SOL     OW65826   9.206   3.318   0.406  0.4430  0.0347 -0.0844
20457SOL    HW165827   9.168   3.305   0.493  0.7181  0.9289  0.1847
20457SOL    HW265828   9.275   3.253   0.400  0.3126 -0.1422  0.3052
20458SOL     OW65829   1.918   8.823   1.408  0.6607 -0.3946  0.2103
20458SOL    HW165830   1.916   8.740   1.455 -2.0583 -0.0819  0.8073
20458SOL    HW265831   1.858   8.881   1.457  0.4051  1.0448 -1.6633
20459SOL     OW65832   2.258   1.390   8.546  0.1401  0.4771 -0.0852
20459SOL    HW165833   2.309   1.458   8.503 -0.9154  0.3454 -1.6352
20459SOL    HW265834   2.201   1.356   8.477  0.4746 -1.8350  0.7010
20460SOL     OW65835   8.879   9.174   6.081 -0.1319  0.6661  0.1728
20460SOL    HW165836   8.863   9.264   6.052  0.9316  0.6752 -0.4390
20460SOL    HW265837   8.847   9.119   6.010 -0.1878  0.5842  0.2605
20461SOL     OW65838   8.997   1.854   1.473  0.7670  0.1009  0.4336
20461SOL    HW165839   9.076   1.887   1.516  0.8122  0.1215  0.3357
20461SOL    HW265840   8.925   1.901   1.515  0.7938 -0.0373  0.6387
20462SOL     OW65841  10.328  10.777   4.107 -0.1759  0.2792  0.1662
20462SOL    HW165842  10.293  10.752   4.193 -0.8146 -1.3296 -0.5229
20462SOL    HW265843  10.410  10.822   4.127 -0.5886  0.4237  1.6352
20463SOL     OW65844   6.650   4.302   7.529 -0.1258  0.1243  0.4425
20463SOL    HW165845   6.579   4.242   7.554  0.6456 -1.1542 -0.3246
20463SOL    HW265846   6.729   4.249   7.538  0.7214  1.4504  1.0220
20464SOL     OW65847   8.211   3.744   0.414  0.4511 -0.2190 -0.5991
20464SOL    HW165848   8.180   3.715   0.499  0.1277  0.2179 -0.5653
20464SOL    HW265849   8.132   3.760   0.363  0.6219  0.3892 -0.6824
20465SOL     OW65850   3.302   7.081   5.084  0.0421  0.5514 -0.2556
20465SOL    HW165851   3.318   7.024   5.159 -1.3438 -0.7649 -0.9016
20465SOL    HW265852   3.226   7.133   5.109  0.0516  0.6592 -0.4511
20466SOL     OW65853  10.240   2.559   2.523 -0.5375  0.1832  0.1896
20466SOL    HW165854  10.275   2.488   2.577  0.3614  0.6479  0.2469
20466SOL    HW265855  10.233   2.633   2.583 -0.9310  0.3019  0.0012
20467SOL     OW65856  10.664   3.430   6.398  0.1366  0.1430  0.3837
20467SOL    HW165857  10.596   3.463   6.339 -0.8433  0.2473  1.5125
20467SOL    HW265858  10.716   3.370   6.344 -0.5629  0.4305 -0.6391
20468SOL     OW65859   2.124   5.359   5.826  0.2903  0.1411 -0.6088
20468SOL    HW165860   2.106   5.376   5.918 -1.1163  0.6297 -0.9453
20468SOL    HW265861   2.087   5.435   5.780  1.0612 -0.0372 -1.5798
20469SOL     OW65862   2.977   6.910   7.335  0.4523  0.4788 -0.3778
20469SOL    HW165863   2.883   6.919   7.317  0.3660 -0.3100 -0.3661
20469SOL    HW265864   2.989   6.948   7.422  0.1567  0.6594 -0.4139
20470SOL     OW65865   9.011   5.413   9.798 -0.2206  0.3908 -0.3402
20470SOL    HW165866   9.068   5.342   9.827 -0.6190 -0.7509 -2.2342
20470SOL    HW265867   8.923   5.386   9.824 -0.6131 -0.7470 -2.6049
20471SOL     OW65868   1.225   8.153   1.483  0.1145  0.4297 -0.1469
20471SOL    HW165869   1.293   8.198   1.432  1.1814  0.0784  0.9017
20471SOL    HW265870   1.143   8.194   1.456  0.7684  1.0586 -1.2580
20472SOL     OW65871   6.746   7.614   6.879  0.0411 -0.4897  0.1214
20472SOL    HW165872   6.727   7.520   6.873 -0.1651 -0.4415 -0.0131
20472SOL    HW265873   6.840   7.621   6.865 -0.0248 -0.6300 -0.4137
20473SOL     OW65874   1.337   2.701   2.943 -0.1147 -0.3343 -0.3707
20473SOL    HW165875   1.406   2.746   2.894 -0.7473  0.6894 -0.3525
20473SOL    HW265876   1.340   2.742   3.030  0.8265 -1.9491  0.4012
20474SOL     OW65877   0.179   6.754   0.014 -0.6254  0.0539 -0.8021
20474SOL    HW165878   0.258   6.778  -0.035 -0.8691  0.3444 -1.0539
20474SOL    HW265879   0.183   6.659   0.021  0.0592  0.1114 -0.2879
20475SOL     OW65880  10.267   6.205   1.018 -0.5737  0.5157 -0.2164
20475SOL    HW165881  10.294   6.114   1.006 -2.3422  0.1656 -2.2139
20475SOL    HW265882  10.203   6.203   1.089  0.0687  0.3599  0.3596
20476SOL     OW65883   9.491   0.678   5.324 -0.0480  0.0581 -0.1813
20476SOL    HW165884   9.405   0.714   5.299 -1.1833 -2.3695 -0.0441
20476SOL    HW265885   9.517   0.730   5.399 -1.2135  1.1022 -0.4547
20477SOL     OW65886   3.925   2.547   3.023  0.0753  0.1807  0.0974
20477SOL    HW165887   4.005   2.572   2.976  0.8079 -0.3056  1.0704
20477SOL    HW265888   3.854   2.566   2.961  0.7181  2.9514  0.0840
20478SOL     OW65889   8.705   4.801   8.680  0.0175  0.2021 -0.2894
20478SOL    HW165890   8.697   4.891   8.711 -0.5049  0.0403  0.0675
20478SOL    HW265891   8.682   4.747   8.756  0.0023 -0.2221 -0.5910
20479SOL     OW65892   1.808   1.304   6.963 -0.2997 -0.0819  0.4338
20479SOL    HW165893   1.729   1.331   6.916 -0.1565  0.8783  0.7279
20479SOL    HW265894   1.786   1.317   7.056 -0.6872 -2.2286  0.6840
20480SOL     OW65895   8.789  10.565   2.065  0.0553  0.1919  0.1476
20480SOL    HW165896   8.837  10.623   2.124  0.3937  0.1410 -0.0776
20480SOL    HW265897   8.831  10.577   1.980 -0.3464  0.1659 -0.0557
20481SOL     OW65898   2.032   8.893   2.386 -0.0101 -0.7397  0.1042
20481SOL    HW165899   2.114   8.849   2.366  0.6500 -0.5481  2.1450
20481SOL    HW265900   2.039   8.978   2.343  0.5081 -1.0298 -0.3964
20482SOL     OW65901   9.178   3.536   1.859  0.4608 -0.2394 -0.3178
20482SOL    HW165902   9.236   3.612   1.867 -1.0131  1.0133 -0.8939
20482SOL    HW265903   9.222   3.478   1.796  1.9853 -0.2542  0.7277
20483SOL     OW65904   0.229   0.718   3.856 -0.0990  0.0184 -0.1939
20483SOL    HW165905   0.183   0.763   3.786 -0.4426 -0.0994 -0.0482
20483SOL    HW265906   0.312   0.764   3.865 -0.8818  1.3143  0.6798
20484SOL     OW65907   5.975   5.358   1.167 -0.4549  0.2819 -0.2252
20484SOL    HW165908   6.056   5.322   1.202 -0.4540  0.6054  0.1105
20484SOL    HW265909   5.924   5.382   1.245 -0.4159  1.0864 -0.4462
20485SOL     OW65910   7.113   7.844   2.990  0.0099 -0.3461 -0.6763
20485SOL    HW165911   7.021   7.819   2.987 -0.0515 -0.1751 -0.1697
20485SOL    HW265912   7.124   7.889   3.073  0.8265 -1.4630 -0.1502
20486SOL     OW65913   2.970   0.199  10.628 -0.1303  0.6747 -0.3271
20486SOL    HW165914   2.941   0.202  10.720 -0.5684  3.6100 -0.4600
20486SOL    HW265915   3.041   0.263  10.623  0.9796 -0.5931 -1.7591
20487SOL     OW65916   9.298   5.342   0.776  0.7383 -0.0455  0.0405
20487SOL    HW165917   9.330   5.386   0.855  0.4120 -0.2528  0.2906
20487SOL    HW265918   9.311   5.249   0.794  2.1595 -0.0498 -0.7980
20488SOL     OW65919   0.598   2.213   7.623  0.5983 -0.1774 -0.1929
20488SOL    HW165920   0.578   2.304   7.600  0.9477 -0.0134  0.1501
20488SOL    HW265921   0.619   2.216   7.716 -1.2710 -0.9074  0.2938
20489SOL     OW65922   4.925   5.252   3.930  0.1926 -0.0592 -0.5538
20489SOL    HW165923   4.974   5.171   3.944 -2.1034 -1.2599  1.1827
20489SOL    HW265924   4.900   5.281   4.018 -0.5833  1.5471 -1.2574
20490SOL     OW65925   6.511   6.558  10.938  0.1381 -0.2255  0.6185
20490SOL    HW165926   6.457   6.635  10.957 -0.1189 -0.2069 -0.1619
20490SOL    HW265927   6.600   6.583  10.962  0.0330  0.2695  0.4915
20491SOL     OW65928   6.354   8.092   5.732  0.0770 -0.2022 -0.2626
20491SOL    HW165929   6.268   8.087   5.690 -0.9399  1.6114  1.4137
20491SOL    HW265930   6.377   8.002   5.752 -0.9435 -0.8058 -1.6701
20492SOL     OW65931   5.356  10.544   9.302  0.1673  0.0277  0.1915
20492SOL    HW165932   5.261  10.549   9.308  0.2868  0.3915  2.9211
20492SOL    HW265933   5.375  10.450   9.297 -0.3004 -0.0773  0.3671
20493SOL     OW65934   1.505   1.696   6.432 -0.1299 -0.6691 -0.4527
20493SOL    HW165935   1.584   1.746   6.413 -0.7690  0.5323 -0.0883
20493SOL    HW265936   1.446   1.715   6.359 -0.8971  0.2689  0.3808
20494SOL     OW65937   9.138   2.091   0.412  0.1518 -0.0098 -0.3262
20494SOL    HW165938   9.087   2.160   0.369  0.7041 -0.6716 -2.1575
20494SOL    HW265939   9.085   2.012   0.402  0.0814 -0.0937  0.6573
20495SOL     OW65940   2.952   1.098   4.135  0.1178 -0.6189 -0.2009
20495SOL    HW165941   2.861   1.122   4.152  0.2322 -0.0421 -0.3715
20495SOL    HW265942   2.993   1.179   4.106  0.7004 -0.8641 -0.0802
20496SOL     OW65943   3.060   9.833   1.934  0.2817 -0.8781  0.1890
20496SOL    HW165944   3.076   9.926   1.954 -2.4437 -0.1695 -0.4140
20496SOL    HW265945   3.027   9.797   2.016 -2.8842 -0.0918 -0.6016
20497SOL     OW65946   0.672  10.812   2.656  0.1751  0.1361 -0.6418
20497SOL    HW165947   0.732  10.824   2.729  0.0648 -1.2696 -0.2845
20497SOL    HW265948   0.614  10.741   2.684 -1.3922  1.1655 -1.1415
20498SOL     OW65949   4.606   4.815   6.995 -0.4914 -0.3394 -0.3294
20498SOL    HW165950   4.660   4.845   6.922  0.8660  0.0537  0.7788
20498SOL    HW265951   4.637   4.867   7.070 -3.4272  1.0021  0.1031
20499SOL     OW65952   3.310   8.114   4.072 -0.2070 -0.1821  0.5902
20499SOL    HW165953   3.346   8.104   4.160  2.0393  0.0811 -0.2180
20499SOL    HW265954   3.261   8.034   4.056  0.9453 -1.0852  1.4088
20500SOL     OW65955   0.665   4.985   1.191  0.0521 -0.0630 -0.5003
20500SOL    HW165956   0.727   4.915   1.170  0.4892 -0.2898  1.3714
20500SOL    HW265957   0.623   5.005   1.108  0.4432 -2.0341 -1.2302
20501SOL     OW65958   7.306   5.932   7.073 -0.0490  0.0961 -0.4402
20501SOL    HW165959   7.298   5.851   7.124  1.3794  0.0148 -0.3166
20501SOL    HW265960   7.273   5.909   6.986  1.5971 -1.0337 -0.8066
20502SOL     OW65961  10.238   2.827   5.689 -0.9641  0.1041  0.1217
20502SOL    HW165962  10.214   2.835   5.782  0.0174 -0.2993  0.4167
20502SOL    HW265963  10.235   2.734   5.671 -0.2847  0.1032 -0.0104
20503SOL     OW65964   2.827   4.333  10.511 -0.0399 -0.0808 -0.2716
20503SOL    HW165965   2.825   4.353  10.604 -1.0134 -0.6852 -0.1589
20503SOL    HW265966   2.920   4.342  10.487  0.3022 -0.4711  0.8675
20504SOL     OW65967   1.360   1.361   0.219  0.0462  0.0313 -0.0487
20504SOL    HW165968   1.266   1.346   0.210  0.1005  0.6085 -2.0344
20504SOL    HW265969   1.391   1.287   0.271 -1.4127 -0.5110  0.0827
20505SOL     OW65970   9.306  10.290   0.669 -0.4630  0.5743 -0.0842
20505SOL    HW165971   9.213  10.309   0.681 -0.3228  1.9729 -1.0151
20505SOL    HW265972   9.308  10.200   0.636 -1.3677 -0.0160  1.4034
20506SOL     OW65973   4.897   4.247   7.558 -0.3375 -0.0279  0.0858
20506SOL    HW165974   4.925   4.155   7.561  0.7770  0.2157 -1.5559
20506SOL    HW265975   4.869   4.260   7.468  0.8202  1.5822 -0.0820
20507SOL     OW65976   1.083  10.359   1.093 -0.6809 -0.5213 -0.1496
20507SOL    HW165977   1.076  10.370   1.188  0.3805 -0.6191 -0.0507
20507SOL    HW265978   1.078  10.448   1.058  0.2304 -0.3596  0.1021
20508SOL     OW65979   3.574   9.263   5.180 -0.0951  1.0746  0.5904
20508SOL    HW165980   3.593   9.170   5.178  1.2942  1.2647  2.3750
20508SOL    HW265981   3.492   9.272   5.131 -0.0362 -0.9962  0.0160
20509SOL     OW65982   6.578   0.377   7.562  0.0311  0.1167 -0.1082
20509SOL    HW165983   6.554   0.380   7.469  2.1829 -0.4544 -0.7443
20509SOL    HW265984   6.575   0.468   7.590 -2.1232  0.1432 -0.2899
20510SOL     OW65985   9.193   1.300  10.381  0.7602  0.4165 -0.1432
20510SOL    HW165986   9.170   1.326  10.292 -2.3161 -1.2435  0.0285
20510SOL    HW265987   9.283   1.270  10.374  0.5810  0.2398 -2.7440
20511SOL     OW65988   9.986   0.613   9.580  0.0767 -0.1329 -0.0537
20511SOL    HW165989   9.927   0.538   9.573 -1.9691  1.1109  2.1899
20511SOL    HW265990   9.927   0.689   9.579  1.8524  1.3111  0.2515
20512SOL     OW65991  10.844   8.400  10.860  0.1520  0.1595 -0.0125
20512SOL    HW165992  10.757   8.371  10.832  0.1010  1.9255 -1.9601
20512SOL    HW265993  10.868   8.339  10.930 -1.3199 -2.3298 -1.4996
20513SOL     OW65994   7.903   3.909  10.155  0.3618 -0.0050 -0.2226
20513SOL    HW165995   7.870   3.831  10.200  0.3288  0.2423  0.1853
20513SOL    HW265996   7.992   3.920  10.188  0.6386 -0.3065 -0.8513
20514SOL     OW65997   1.146   8.987   9.056  0.2061 -0.6413 -0.0007
20514SOL    HW165998   1.104   8.908   9.089  1.2842 -1.0384  0.4736
20514SOL    HW265999   1.237   8.961   9.042  0.6925  0.6531  0.6533
20515SOL     OW66000  10.299   1.732   8.581 -0.2680  0.4672  0.2485
20515SOL    HW166001  10.332   1.647   8.613 -0.0036  0.4078 -0.1769
20515SOL    HW266002  10.315   1.792   8.653 -0.3731  0.1750  0.5205
20516SOL     OW66003   3.322  11.068   8.567  0.7644 -0.0300  0.2955
20516SOL    HW166004   3.338  11.063   8.473  0.4496  0.3697  0.2138
20516SOL    HW266005   3.287  11.157   8.580 -0.3060 -0.4827  0.6093
20517SOL     OW66006   2.516   6.905   6.940  0.7375 -0.1069 -0.2424
20517SOL    HW166007   2.474   6.838   6.994  0.3882 -0.3109 -0.7482
20517SOL    HW266008   2.591   6.934   6.991  0.8226 -0.7997  0.0437
20518SOL     OW66009   9.274  10.828   3.166  0.6208 -0.1962  0.7098
20518SOL    HW166010   9.352  10.865   3.208 -0.8165  3.3433  0.6402
20518SOL    HW266011   9.291  10.836   3.072  1.4140 -2.5271  0.5959
20519SOL     OW66012   8.490   1.360   8.848 -0.4096  0.2411 -0.5107
20519SOL    HW166013   8.409   1.310   8.833 -0.5976 -0.5570  2.4974
20519SOL    HW266014   8.553   1.295   8.879  1.0654  1.0709 -1.6166
20520SOL     OW66015   9.150   6.935   3.525 -0.1707  0.2013  0.3823
20520SOL    HW166016   9.245   6.948   3.516 -0.0617 -0.7769 -0.0698
20520SOL    HW266017   9.141   6.873   3.598 -0.5685  1.4872  1.4543
20521SOL     OW66018   1.175   7.510   8.042 -0.0867 -0.0111 -0.0997
20521SOL    HW166019   1.084   7.535   8.058  0.2397 -0.5664  3.4643
20521SOL    HW266020   1.226   7.588   8.062  0.2779  0.3934 -2.3887
20522SOL     OW66021   6.982   7.950   6.828  0.0305 -0.2595 -0.3011
20522SOL    HW166022   6.952   7.998   6.905  0.5041 -0.8311  0.2590
20522SOL    HW266023   6.976   8.012   6.756 -3.1282 -0.5161 -0.3768
20523SOL     OW66024   0.455   7.113   7.533  0.0427  0.4997 -0.5621
20523SOL    HW166025   0.381   7.061   7.565 -0.0435  0.1422 -1.3278
20523SOL    HW266026   0.448   7.109   7.438 -1.1640  3.5966 -0.7206
20524SOL     OW66027   5.190   7.323   4.903 -0.1792 -0.0389 -0.5291
20524SOL    HW166028   5.267   7.363   4.864 -1.8873  2.5456 -1.5476
20524SOL    HW266029   5.124   7.392   4.901 -1.7444 -1.2215  2.8604
20525SOL     OW66030  10.643   7.622   7.179 -0.2946  0.3727 -0.1718
20525SOL    HW166031  10.687   7.696   7.218  0.1158  0.0114  0.0538
20525SOL    HW266032  10.648   7.553   7.245  1.4583 -0.6340 -1.2708
20526SOL     OW66033   0.896   4.869   3.672 -0.2482 -0.0205 -0.1472
20526SOL    HW166034   0.987   4.841   3.683  0.3900  1.0290 -2.1882
20526SOL    HW266035   0.845   4.789   3.675  0.5818 -0.5301  2.1521
20527SOL     OW66036   9.400   0.633   8.816  0.2666  0.4088 -0.2547
20527SOL    HW166037   9.484   0.615   8.774 -0.0678 -0.9833 -0.3586
20527SOL    HW266038   9.335   0.610   8.750 -0.2537 -1.3189  0.8268
20528SOL     OW66039   2.940   2.579   6.556 -0.5647  0.3641  0.0537
20528SOL    HW166040   2.921   2.673   6.560 -0.1856  0.4637 -0.4300
20528SOL    HW266041   2.860   2.537   6.589 -0.3960  0.8831  1.1606
20529SOL     OW66042   3.649   1.608   4.242 -0.3263  0.2764  0.0445
20529SOL    HW166043   3.705   1.632   4.315  0.5587  0.1298 -0.5754
20529SOL    HW266044   3.669   1.517   4.224  0.0043  0.5149 -0.8483
20530SOL     OW66045   8.097   3.685   0.683  0.0893  0.1148  0.0588
20530SOL    HW166046   8.057   3.642   0.758  0.2535 -0.6746 -0.3024
20530SOL    HW266047   8.173   3.730   0.719 -0.9505  1.4230  0.7045
20531SOL     OW66048   5.773   0.485   3.519 -0.3542  0.0672  0.2985
20531SOL    HW166049   5.853   0.478   3.571 -1.7588 -0.1594  2.5517
20531SOL    HW266050   5.776   0.573   3.482  0.5046  0.4203  1.1644
20532SOL     OW66051   6.264   1.286   5.620 -0.0937  0.1713 -0.4738
20532SOL    HW166052   6.317   1.221   5.666 -2.5748 -0.1232  2.2109
20532SOL    HW266053   6.221   1.237   5.550  1.2185 -0.1120 -1.1083
20533SOL     OW66054   9.557   1.899   9.000 -0.4824  0.4092 -0.0950
20533SOL    HW166055   9.501   1.879   9.075  1.1156  0.2979  1.1262
20533SOL    HW266056   9.508   1.866   8.924 -2.6201  1.4837  0.7375
20534SOL     OW66057   5.792   0.743   0.409  0.1928 -0.2126 -0.2345
20534SOL    HW166058   5.868   0.801   0.417  0.4188 -0.2658 -1.7274
20534SOL    HW266059   5.738   0.765   0.485  0.4602  1.6865 -0.5389
20535SOL     OW66060   3.209   9.640   5.682 -0.7363  0.3958  0.1039
20535SOL    HW166061   3.240   9.679   5.600 -0.2783 -1.3171 -0.5715
20535SOL    HW266062   3.278   9.578   5.707 -0.7617  1.0482  1.9269
20536SOL     OW66063   4.995   6.017   4.705  0.0306  0.7446 -0.2506
20536SOL    HW166064   4.924   6.080   4.691 -1.2117 -0.6036 -0.2156
20536SOL    HW266065   4.951   5.933   4.716  1.7001 -0.4240 -1.8159
20537SOL     OW66066   6.008   0.999   3.533 -0.2613 -0.6709  0.4697
20537SOL    HW166067   5.923   0.990   3.492 -0.1739  0.4474  0.0041
20537SOL    HW266068   6.002   1.079   3.586  0.1288 -1.2252  1.3861
20538SOL     OW66069   2.020   2.612   6.115  0.0824  0.1026  0.2476
20538SOL    HW166070   2.028   2.642   6.025 -1.1191 -0.3573 -0.0288
20538SOL    HW266071   1.933   2.641   6.142  0.4997  0.3947  1.3226
20539SOL     OW66072   7.364   0.643   3.441 -0.0615 -0.4150 -0.2134
20539SOL    HW166073   7.344   0.733   3.416 -0.2910 -0.6473 -0.8738
20539SOL    HW266074   7.451   0.626   3.404  0.1185 -0.3697  0.1757
20540SOL     OW66075  10.673   8.560   2.942 -0.5597 -0.1090 -0.1928
20540SOL    HW166076  10.600   8.529   2.889  0.6209 -1.6949 -0.9814
20540SOL    HW266077  10.701   8.483   2.992  2.0031 -0.2193 -1.6358
20541SOL     OW66078   8.325   2.490  10.399 -0.7107  0.6735  0.0302
20541SOL    HW166079   8.307   2.455  10.486 -4.0639  0.4382 -0.6256
20541SOL    HW266080   8.274   2.572  10.396 -0.2140  0.9494 -1.5199
20542SOL     OW66081  10.641  10.733  10.219  0.1849  0.4071  0.7570
20542SOL    HW166082  10.642  10.800  10.287 -0.2843  0.2326  0.9341
20542SOL    HW266083  10.673  10.654  10.262 -2.0379 -0.2420  1.3412
20543SOL     OW66084   1.440   4.677  10.238 -0.4920 -0.1464 -0.5630
20543SOL    HW166085   1.482   4.628  10.309 -1.4543  0.4239  0.4208
20543SOL    HW266086   1.465   4.768  10.254 -1.9641  0.1847 -0.0378
20544SOL     OW66087   4.766   0.261   6.803 -0.2494  0.5654 -0.1264
20544SOL    HW166088   4.825   0.189   6.781  1.1294  2.0337 -1.3803
20544SOL    HW266089   4.684   0.217   6.827  1.2136 -1.5301  1.4569
20545SOL     OW66090   6.132   9.530   0.656 -0.3194 -0.2809 -0.5078
20545SOL    HW166091   6.207   9.588   0.666 -0.3013 -0.3572 -0.2073
20545SOL    HW266092   6.093   9.557   0.572 -0.4139  0.2849 -0.2872
20546SOL     OW66093   8.706   7.084   7.733 -0.6308 -0.7301 -0.1354
20546SOL    HW166094   8.779   7.032   7.700  0.0490  0.5145 -0.6508
20546SOL    HW266095   8.722   7.089   7.827 -0.1603 -0.6458 -0.2143
20547SOL     OW66096  10.641   5.045   9.326  0.1463  0.5942 -0.3039
20547SOL    HW166097  10.602   5.131   9.340 -0.5685  0.0511  1.2460
20547SOL    HW266098  10.588   4.986   9.379  0.4287 -0.8658 -1.5826
20548SOL     OW66099   8.591   5.639   3.935  0.2128  0.2466  0.1577
20548SOL    HW166100   8.659   5.706   3.931  0.6187 -0.1632  0.2055
20548SOL    HW266101   8.620   5.579   4.003  0.9025 -1.1201 -1.2698
20549SOL     OW66102   2.630   0.020   5.548  0.2913 -0.3341 -0.3649
20549SOL    HW166103   2.548  -0.016   5.581 -1.1428  1.7954 -1.4031
20549SOL    HW266104   2.635   0.108   5.585  1.7964 -0.1805 -0.8532
20550SOL     OW66105  10.129   0.369   3.080 -0.3089 -0.3565  0.0895
20550SOL    HW166106  10.173   0.289   3.051  1.1871  0.3517  0.2796
20550SOL    HW266107  10.069   0.390   3.008  1.5463  0.0093 -1.4655
20551SOL     OW66108   9.419   6.087   5.663  0.6030  0.0044 -0.1959
20551SOL    HW166109   9.437   6.012   5.719 -1.3987 -0.0282  0.4643
20551SOL    HW266110   9.373   6.148   5.719 -0.1210  0.6053 -1.4208
20552SOL     OW66111   7.240  10.339   3.752  0.0717  0.0086  0.2468
20552SOL    HW166112   7.187  10.317   3.676 -1.3865  1.8821  0.6598
20552SOL    HW266113   7.315  10.387   3.716 -0.0824  0.0021 -0.0846
20553SOL     OW66114   9.685   1.750   7.817 -0.5152  0.5633 -0.0921
20553SOL    HW166115   9.731   1.827   7.782 -1.4709 -0.1195 -3.2045
20553SOL    HW266116   9.592   1.768   7.801 -0.8173 -0.8527 -0.0653
20554SOL     OW66117   5.875   7.875   1.048 -0.3756  0.2037  0.2494
20554SOL    HW166118   5.886   7.800   0.990 -0.3090  0.3093  0.1236
20554SOL    HW266119   5.922   7.946   1.004 -0.0185  0.1950  0.6132
20555SOL     OW66120  11.073   5.637  10.428  0.2302  0.3137  0.1012
20555SOL    HW166121  11.079   5.696  10.504  1.1409 -0.7649  0.9123
20555SOL    HW266122  11.012   5.569  10.456  0.6968 -0.1779 -0.0464
20556SOL     OW66123   4.693   8.595   9.231  0.0335 -0.5273 -0.3070
20556SOL    HW166124   4.727   8.511   9.202 -1.7578 -1.4846  0.2074
20556SOL    HW266125   4.615   8.609   9.178 -0.8479 -0.2159  1.0257
20557SOL     OW66126   9.164   1.630   8.376 -0.0837 -0.0733 -0.1193
20557SOL    HW166127   9.139   1.537   8.375 -0.4032  0.0131 -1.3959
20557SOL    HW266128   9.111   1.668   8.446  0.4195 -0.9322  0.7704
20558SOL     OW66129   4.835   2.948   8.776  0.3039  0.0319  0.3775
20558SOL    HW166130   4.766   3.013   8.791  0.9273  0.4053  1.8586
20558SOL    HW266131   4.851   2.952   8.682 -3.2063 -1.6827 -0.4879
20559SOL     OW66132   6.232   3.826  10.327  0.6374  0.0925 -0.0230
20559SOL    HW166133   6.249   3.920  10.326  2.1338 -0.0711  2.5180
20559SOL    HW266134   6.318   3.786  10.337  0.0891 -1.6348 -1.5967
20560SOL     OW66135   8.995   1.047   1.288 -0.1196 -0.4809  0.7453
20560SOL    HW166136   9.008   0.958   1.254 -0.9963 -0.4980  0.4104
20560SOL    HW266137   9.080   1.073   1.322  0.1208 -1.4974  0.9502
20561SOL     OW66138   5.726   1.559   4.565  0.3715  0.0429  0.1488
20561SOL    HW166139   5.710   1.615   4.641  3.6887  1.7176 -0.2125
20561SOL    HW266140   5.644   1.511   4.554 -2.2721  3.7701  1.3647
20562SOL     OW66141   3.883   6.440   1.373  0.1547 -0.1743 -0.2317
20562SOL    HW166142   3.872   6.505   1.442 -1.0905 -0.8352  0.2455
20562SOL    HW266143   3.797   6.397   1.368 -0.0129  0.3115 -2.6749
20563SOL     OW66144   5.699   6.606   6.060  0.2247 -0.6987 -0.4684
20563SOL    HW166145   5.633   6.553   6.104  0.6221 -0.0846  0.9047
20563SOL    HW266146   5.716   6.678   6.120  0.2813  0.5704 -1.9357
20564SOL     OW66147   1.544   0.654  10.356  0.4466 -0.1187  0.2177
20564SOL    HW166148   1.489   0.732  10.355 -0.4261 -0.7374 -1.0192
20564SOL    HW266149   1.490   0.586  10.395  0.9791 -0.2918  0.6804
20565SOL     OW66150   5.990   2.508   7.983  0.0627  0.5946 -0.1743
20565SOL    HW166151   5.931   2.511   7.908 -1.3610 -0.2213  0.8586
20565SOL    HW266152   6.031   2.422   7.978  1.2414  1.1618 -0.8948
20566SOL     OW66153   3.048   5.806   8.753  0.0426  0.3931  0.0634
20566SOL    HW166154   3.110   5.859   8.704 -0.4032  0.3868 -0.5151
20566SOL    HW266155   2.983   5.779   8.688 -0.2716 -0.0427  0.5518
20567SOL     OW66156   7.106  10.827   3.078 -0.3753 -0.5278 -0.6957
20567SOL    HW166157   7.058  10.910   3.069 -0.6180 -0.7111 -1.1224
20567SOL    HW266158   7.102  10.788   2.991  0.6217 -0.5130 -0.7621
20568SOL     OW66159   3.764   6.266   1.096  0.0020  0.2512  0.2006
20568SOL    HW166160   3.733   6.289   1.184 -0.8861  0.6653 -0.2115
20568SOL    HW266161   3.738   6.174   1.085  0.8378 -0.0515  0.6744
20569SOL     OW66162   9.707   8.307   5.674  0.1415  0.5018 -0.0390
20569SOL    HW166163   9.772   8.376   5.688  0.7894  0.0457 -0.7171
20569SOL    HW266164   9.733   8.238   5.735  0.1695  0.4074 -0.1572
20570SOL     OW66165   6.092   3.476   2.919 -0.3315 -0.6466  0.1438
20570SOL    HW166166   6.136   3.400   2.958 -0.1072 -0.2966  0.5729
20570SOL    HW266167   6.077   3.450   2.828  1.0992 -0.6388 -0.1117
20571SOL     OW66168   2.536   1.754   2.464  0.0847  0.0730  0.3024
20571SOL    HW166169   2.558   1.763   2.371  1.0065  0.9567  0.5857
20571SOL    HW266170   2.608   1.797   2.510 -0.6980  0.2600  1.4064
20572SOL     OW66171   9.008   6.091   1.785 -0.6993 -0.0679 -0.5515
20572SOL    HW166172   9.052   6.155   1.729  0.3725  0.2710  0.6320
20572SOL    HW266173   8.915   6.106   1.771 -0.4525  0.4772 -1.6967
20573SOL     OW66174   3.359   4.633   7.180 -0.5003  0.2187  0.1027
20573SOL    HW166175   3.348   4.543   7.208 -1.1263 -0.4573 -2.0707
20573SOL    HW266176   3.451   4.654   7.199 -0.5862 -0.5295  1.4532
20574SOL     OW66177   2.546   9.550   1.051 -0.4878  0.4085 -0.4463
20574SOL    HW166178   2.496   9.627   1.024 -0.6733  0.7043  0.7002
20574SOL    HW266179   2.519   9.482   0.990 -1.5930  0.8155 -0.4353
20575SOL     OW66180  10.776  10.551   7.421 -0.4665 -0.0789 -0.4255
20575SOL    HW166181  10.849  10.543   7.359 -0.2923 -0.1150 -0.2189
20575SOL    HW266182  10.774  10.467   7.466  0.1970  0.3705  0.4688
20576SOL     OW66183   0.816   0.805   5.953  0.0544  0.0408  0.2229
20576SOL    HW166184   0.815   0.727   6.008 -1.5095 -0.1216  0.0241
20576SOL    HW266185   0.855   0.873   6.008  1.4305 -0.8640  0.3947
20577SOL     OW66186   4.510   3.672   6.486 -0.0796  0.5161 -0.1211
20577SOL    HW166187   4.587   3.683   6.541  1.2406 -1.3632 -1.4568
20577SOL    HW266188   4.530   3.724   6.407  0.2983 -0.7105 -0.8659
20578SOL     OW66189   0.343   5.561   4.629 -0.4161 -0.3154 -0.3973
20578SOL    HW166190   0.251   5.533   4.635 -0.6677  0.6533  0.5939
20578SOL    HW266191   0.340   5.640   4.576  0.1895 -1.6337 -2.4869
20579SOL     OW66192   8.462   0.831   2.233 -0.2199 -0.1429 -0.5580
20579SOL    HW166193   8.467   0.872   2.319  0.2464  1.1983 -1.1933
20579SOL    HW266194   8.514   0.888   2.176 -0.3483 -1.1114 -1.6894
20580SOL     OW66195   5.619   5.133   6.198  0.0254  0.2998  0.1841
20580SOL    HW166196   5.613   5.189   6.120 -1.2244 -0.4821 -0.2995
20580SOL    HW266197   5.592   5.190   6.270 -2.3396  0.0659 -0.4512
20581SOL     OW66198   9.312   0.796   4.142 -0.4082 -0.4071 -0.5500
20581SOL    HW166199   9.281   0.739   4.213 -0.3861 -1.7558 -1.5720
20581SOL    HW266200   9.259   0.875   4.150 -0.3514 -0.4871  1.0027
20582SOL     OW66201   4.059   1.976   4.956  0.3827 -0.3553 -0.3379
20582SOL    HW166202   4.064   1.898   5.010 -0.6134  1.0184  1.8802
20582SOL    HW266203   3.965   1.985   4.936  0.2980  0.9175  0.5187
20583SOL     OW66204   6.888   8.085   9.313 -0.1946 -1.2072  0.6009
20583SOL    HW166205   6.968   8.123   9.278  0.1055 -1.2447  1.2299
20583SOL    HW266206   6.907   8.068   9.406 -0.4481 -2.5413  0.4284
20584SOL     OW66207   9.090   6.109   0.330  0.4650 -0.0961 -0.2815
20584SOL    HW166208   9.151   6.170   0.371 -0.3656  0.8254 -0.3860
20584SOL    HW266209   9.138   6.026   0.327  0.8888  0.0075  1.7519
20585SOL     OW66210   3.428   6.704   8.945 -0.3192  0.1243  0.0972
20585SOL    HW166211   3.370   6.662   8.881 -0.2488 -0.7793  0.6054
20585SOL    HW266212   3.379   6.702   9.027 -0.0170  0.3797  0.2857
20586SOL     OW66213  10.295   5.779   8.638 -0.5297 -0.2354 -0.3390
20586SOL    HW166214  10.207   5.808   8.663 -0.4759 -1.0333  0.8721
20586SOL    HW266215  10.327   5.847   8.580 -0.2361  2.4209  2.6848
20587SOL     OW66216   7.787   2.165   5.270  0.4253 -0.1183 -0.3541
20587SOL    HW166217   7.799   2.246   5.219 -1.1151  0.5653  0.3048
20587SOL    HW266218   7.715   2.185   5.329 -1.9112 -2.8307 -2.0165
20588SOL     OW66219   3.299  10.163   2.861  0.4083  0.1886 -0.0592
20588SOL    HW166220   3.390  10.190   2.871  0.8133 -1.1655  0.0833
20588SOL    HW266221   3.285  10.163   2.766  0.0340  1.9702 -0.0389
20589SOL     OW66222   8.611   0.729   3.432 -0.2157 -0.4976  0.4693
20589SOL    HW166223   8.526   0.750   3.393  0.6162  1.7490 -0.2533
20589SOL    HW266224   8.611   0.775   3.516  0.9888  1.1714 -0.3891
20590SOL     OW66225   2.475   4.902   2.413 -0.2538 -0.3914  0.0974
20590SOL    HW166226   2.385   4.897   2.446 -0.7525  0.9132 -0.9752
20590SOL    HW266227   2.523   4.839   2.467 -1.9943 -1.8730  0.0235
20591SOL     OW66228   8.523   1.521   7.128  0.2130  0.1628 -0.1454
20591SOL    HW166229   8.485   1.500   7.214  0.2346 -2.0439 -0.6208
20591SOL    HW266230   8.504   1.445   7.074  2.1282  0.5702 -1.4834
20592SOL     OW66231   6.661   8.727   9.087  0.3682 -0.0030  0.0770
20592SOL    HW166232   6.745   8.681   9.088  0.4828  0.1589 -0.9504
20592SOL    HW266233   6.665   8.783   9.009  0.5126  2.2940  1.6204
20593SOL     OW66234   7.092   4.078   6.741 -0.1309  0.0590 -0.3838
20593SOL    HW166235   7.096   4.082   6.836  1.8929 -1.4298 -0.3404
20593SOL    HW266236   7.174   4.116   6.711 -0.4923 -0.0016 -1.5284
20594SOL     OW66237  10.018   8.309   5.867 -0.6521  0.0676  0.4340
20594SOL    HW166238   9.959   8.280   5.936 -0.8391 -0.3164  0.1140
20594SOL    HW266239  10.083   8.363   5.912 -0.7568 -0.2017  0.9117
20595SOL     OW66240  10.199   0.005   6.311  0.4990 -0.1816 -0.1991
20595SOL    HW166241  10.113   0.021   6.349  0.0659 -0.8370 -0.8716
20595SOL    HW266242  10.239   0.092   6.304 -0.0187  0.1035  0.3110
20596SOL     OW66243   8.563   3.191   7.677 -0.3700  0.7144  0.1707
20596SOL    HW166244   8.577   3.190   7.582 -0.3634 -2.0363  0.1253
20596SOL    HW266245   8.652   3.186   7.714 -0.4098 -2.8557  0.1335
20597SOL     OW66246   9.291  10.781  10.503 -0.5135 -0.3496 -0.3345
20597SOL    HW166247   9.201  10.806  10.482 -0.6776  1.3028  1.9624
20597SOL    HW266248   9.342  10.858  10.478 -0.2192  0.0676  1.4633
20598SOL     OW66249   0.299   1.500   9.668  0.3782  0.0698  0.9346
20598SOL    HW166250   0.284   1.451   9.749 -0.9809 -3.1772 -1.1145
20598SOL    HW266251   0.330   1.435   9.605 -2.2225  1.5511 -2.2044
20599SOL     OW66252   9.752   0.893   4.258  0.2109  0.3005  0.7146
20599SOL    HW166253   9.776   0.963   4.197  0.0447 -0.4023 -0.1624
20599SOL    HW266254   9.669   0.922   4.296  0.4641  0.8803  0.8440
20600SOL     OW66255   0.101   3.872   5.919  0.2094 -0.4367 -0.7084
20600SOL    HW166256   0.141   3.958   5.933  0.6640 -0.6038 -0.9358
20600SOL    HW266257   0.101   3.831   6.005 -2.7559  0.9072  0.0487
20601SOL     OW66258   4.837   2.454   8.484 -0.6845 -0.8832  0.4913
20601SOL    HW166259   4.858   2.547   8.471 -0.0530 -1.2729 -1.5660
20601SOL    HW266260   4.754   2.441   8.438 -0.6497 -1.3954  0.5655
20602SOL     OW66261   8.523  10.736   8.474 -0.4213 -0.1647  0.3119
20602SOL    HW166262   8.544  10.825   8.504 -1.2073  0.2330 -0.2869
20602SOL    HW266263   8.431  10.724   8.497 -0.5866 -0.4582 -0.4794
20603SOL     OW66264   7.596   8.767   9.868 -0.2814 -0.0517 -0.1671
20603SOL    HW166265   7.548   8.685   9.873 -0.7592  0.2872  3.3172
20603SOL    HW266266   7.529   8.834   9.854 -0.2370 -0.0078 -0.1726
20604SOL     OW66267   0.600   7.417   9.418 -0.6740 -0.2171  0.1422
20604SOL    HW166268   0.643   7.336   9.447 -0.8718 -0.6849 -0.8114
20604SOL    HW266269   0.507   7.399   9.428 -0.7049  0.1514  0.5557
20605SOL     OW66270   1.419   4.210   9.806 -0.2333  0.1144  0.4563
20605SOL    HW166271   1.436   4.272   9.877 -1.1103 -0.8456  1.5501
20605SOL    HW266272   1.397   4.128   9.850  1.6155 -1.2383 -0.9394
20606SOL     OW66273   3.304   2.859   4.083 -0.4670 -0.5638 -0.3142
20606SOL    HW166274   3.354   2.818   4.013 -0.1603  0.9625 -1.0248
20606SOL    HW266275   3.344   2.826   4.164 -0.7531 -2.2504 -0.8374
20607SOL     OW66276   9.853  10.580   7.275  0.0076 -0.3731  0.4838
20607SOL    HW166277   9.896  10.596   7.359  0.8018 -1.1273  0.2361
20607SOL    HW266278   9.782  10.520   7.295  0.0417 -0.3544  0.6581
20608SOL     OW66279   3.701   3.341   4.995 -0.6829 -0.2828  0.1580
20608SOL    HW166280   3.625   3.368   5.047 -0.8212  0.5497 -0.4515
20608SOL    HW266281   3.776   3.361   5.051 -0.8626 -0.0432  0.3162
20609SOL     OW66282   6.690   4.383   0.564 -0.3813 -0.1485  0.3531
20609SOL    HW166283   6.605   4.425   0.559  1.0265  2.8423 -1.9364
20609SOL    HW266284   6.711   4.381   0.657 -2.5412 -0.1917  0.8908
20610SOL     OW66285   8.893   7.553   9.102 -0.3117  0.0301 -0.2233
20610SOL    HW166286   8.812   7.537   9.151  0.6944 -4.0780  0.4738
20610SOL    HW266287   8.869   7.535   9.011 -0.0976 -1.9420  0.0741
20611SOL     OW66288   1.389   2.094   5.572  0.3516 -0.0036 -0.1509
20611SOL    HW166289   1.482   2.084   5.591  0.1932  0.0589  0.6632
20611SOL    HW266290   1.374   2.188   5.575  0.2700 -0.0099 -0.3425
20612SOL     OW66291   1.627  11.067   7.164  0.9289 -0.2365  0.0390
20612SOL    HW166292   1.683  10.990   7.167 -0.8300 -1.7549 -2.1895
20612SOL    HW266293   1.543  11.037   7.201  0.4004  0.7965 -0.2735
20613SOL     OW66294   6.513   8.425   7.643 -0.3553 -0.3166 -0.0122
20613SOL    HW166295   6.494   8.410   7.550  2.3021  2.1100 -1.0939
20613SOL    HW266296   6.607   8.409   7.651 -0.4545 -0.0710  2.2063
20614SOL     OW66297   2.112  10.401   0.709 -0.3426  0.3271  0.5845
20614SOL    HW166298   2.144  10.314   0.734  1.0291  0.6097 -0.0874
20614SOL    HW266299   2.108  10.449   0.792  1.6753  0.4715  0.6549
20615SOL     OW66300   5.243   2.917   1.354 -0.3706 -0.2077 -0.2167
20615SOL    HW166301   5.228   2.827   1.328 -0.6150 -0.6280  1.2862
20615SOL    HW266302   5.336   2.921   1.375 -0.1093  0.2058 -1.3923
20616SOL     OW66303   0.186   7.073   7.667  0.4093  0.4060 -0.3988
20616SOL    HW166304   0.234   7.097   7.746  0.9929 -1.8995  0.0150
20616SOL    HW266305   0.117   7.014   7.697 -0.2536  0.5905 -1.4762
20617SOL     OW66306   7.615   8.144   0.823 -0.1240 -0.1837 -0.7739
20617SOL    HW166307   7.611   8.208   0.894 -1.2861 -0.8286 -0.2355
20617SOL    HW266308   7.645   8.063   0.865  1.4219 -0.0130 -1.4627
20618SOL     OW66309  10.088   7.204   5.575 -0.1770 -0.0473 -0.1270
20618SOL    HW166310  10.009   7.242   5.536 -0.5622  1.2052  1.7516
20618SOL    HW266311  10.069   7.200   5.669  1.4594 -1.0642  0.1960
20619SOL     OW66312   2.127   7.889  10.416 -0.1742 -0.1716 -0.1066
20619SOL    HW166313   2.140   7.984  10.418 -0.4668 -0.1180 -0.5722
20619SOL    HW266314   2.136   7.861  10.507 -1.7593  0.5286  0.2903
20620SOL     OW66315   9.613   0.941   6.911 -0.4738 -0.3116  0.8623
20620SOL    HW166316   9.709   0.940   6.902 -0.5667 -0.6312 -0.4196
20620SOL    HW266317   9.587   1.029   6.883 -0.6328 -0.6329 -0.0322
20621SOL     OW66318  10.431   6.513   5.511  0.1404  0.0190  0.0423
20621SOL    HW166319  10.419   6.602   5.543  0.9815 -0.1102  0.7705
20621SOL    HW266320  10.526   6.504   5.502  0.0525 -0.7397 -0.1972
20622SOL     OW66321   8.628   2.105   0.088  0.5852 -0.1131 -0.1033
20622SOL    HW166322   8.610   2.196   0.065  1.6718  0.0979 -0.1813
20622SOL    HW266323   8.689   2.075   0.020  2.1761 -0.1337  1.2701
20623SOL     OW66324   6.060   9.753   2.687  0.1389  0.1048  0.2953
20623SOL    HW166325   6.107   9.760   2.771 -0.1371  1.7570  0.3325
20623SOL    HW266326   6.035   9.660   2.682 -0.8490  0.1775  2.6099
20624SOL     OW66327   2.824   5.219   2.809  0.0179  0.1479  0.5067
20624SOL    HW166328   2.779   5.187   2.731 -2.2934  0.4041  1.6562
20624SOL    HW266329   2.848   5.309   2.787 -0.6976  0.2521  0.1104
20625SOL     OW66330   0.088   4.800   0.460 -0.1652  0.2463 -0.1662
20625SOL    HW166331   0.065   4.708   0.455  0.1619  0.0687  1.1749
20625SOL    HW266332   0.124   4.821   0.374  0.6598 -1.1358 -0.1839
20626SOL     OW66333   4.546   8.817   9.803  0.1818  0.3955  0.2308
20626SOL    HW166334   4.517   8.903   9.771 -0.1685  0.4900  0.7967
20626SOL    HW266335   4.574   8.771   9.724  1.7738  1.5534  0.0500
20627SOL     OW66336   7.138   2.015  10.283 -0.5571 -0.4826  0.3714
20627SOL    HW166337   7.187   1.944  10.326 -0.0462 -1.1408 -1.2327
20627SOL    HW266338   7.204   2.081  10.262 -0.4721 -0.9483 -0.9339
20628SOL     OW66339  10.767   6.909   7.965  0.0116 -0.3434 -0.3410
20628SOL    HW166340  10.814   6.855   8.028 -0.0624  2.0014  1.9191
20628SOL    HW266341  10.677   6.912   7.999 -0.8871 -1.6261 -2.4388
20629SOL     OW66342   3.346   4.482   6.435  0.1380  0.1773 -0.2022
20629SOL    HW166343   3.427   4.514   6.475 -0.0255  1.3968 -0.8138
20629SOL    HW266344   3.284   4.477   6.508  0.6697 -0.4843  0.2187
20630SOL     OW66345   6.434   9.509   9.732  0.5841 -0.3846 -0.0919
20630SOL    HW166346   6.418   9.444   9.800  1.7708 -1.2152 -0.5848
20630SOL    HW266347   6.434   9.460   9.651 -1.7231  0.7246 -0.8538
20631SOL     OW66348   5.926   1.438   0.007  0.1448  0.0953 -0.5851
20631SOL    HW166349   5.995   1.377  -0.018  0.2597  0.4250 -1.0923
20631SOL    HW266350   5.871   1.389   0.069  0.0567 -0.6224 -1.2172
20632SOL     OW66351   9.686   8.434  10.969  0.1885 -0.3486  0.4370
20632SOL    HW166352   9.696   8.392  10.884  0.4062 -0.8216  0.6903
20632SOL    HW266353   9.591   8.437  10.984 -0.0206  1.9686 -0.9001
20633SOL     OW66354   1.413   2.183   2.197  0.2188 -0.0279  0.3845
20633SOL    HW166355   1.325   2.207   2.168  0.0802 -0.5474  0.3572
20633SOL    HW266356   1.446   2.260   2.242  1.1561  1.5445 -2.7148
20634SOL     OW66357   7.083   9.147   3.795 -0.2010  0.0322  0.0530
20634SOL    HW166358   7.080   9.221   3.855  1.6631 -0.5462  0.9412
20634SOL    HW266359   7.164   9.159   3.746 -0.8673 -0.3924 -1.2021
20635SOL     OW66360   3.288  10.912   5.685  0.0099 -0.3593 -0.4892
20635SOL    HW166361   3.299  10.867   5.601  0.8847 -1.2018  0.0609
20635SOL    HW266362   3.251  10.997   5.661 -0.7104 -0.9640 -1.6420
20636SOL     OW66363  10.881  10.622   0.085  0.4593 -0.3184 -0.5179
20636SOL    HW166364  10.899  10.692   0.148 -0.7279 -0.1551 -0.3470
20636SOL    HW266365  10.968  10.586   0.065  1.0829  1.1346 -0.5530
20637SOL     OW66366   3.100   1.477   1.385 -0.3039  0.4673  0.0161
20637SOL    HW166367   3.192   1.501   1.398  0.9396 -3.9574  1.1684
20637SOL    HW266368   3.091   1.468   1.290  1.0559 -0.7268 -0.0366
20638SOL     OW66369   5.147   7.534   6.598  0.1086  0.2600  0.0831
20638SOL    HW166370   5.220   7.592   6.619  0.2753 -0.0240  0.2904
20638SOL    HW266371   5.086   7.589   6.549 -0.4035  1.0287  1.5123
20639SOL     OW66372   4.414  11.006  10.520 -0.1160 -0.2039 -0.1285
20639SOL    HW166373   4.478  11.020  10.590  0.6063  0.8038 -0.9778
20639SOL    HW266374   4.462  10.959  10.452 -0.0203  1.2791 -1.1188
20640SOL     OW66375   5.098   9.815   3.910  0.0953  0.0190  0.4067
20640SOL    HW166376   5.006   9.830   3.888  0.1204 -1.6602 -1.0009
20640SOL    HW266377   5.099   9.730   3.953  0.6632  1.3089  3.1493
20641SOL     OW66378   7.514   6.964   0.642  0.3215 -0.0286  0.4317
20641SOL    HW166379   7.584   7.029   0.654 -0.9751  1.2042  1.7050
20641SOL    HW266380   7.464   6.967   0.724 -0.7604 -1.4447 -0.1401
20642SOL     OW66381  10.208   7.743  10.613  0.3078 -0.1172  0.6680
20642SOL    HW166382  10.191   7.653  10.640 -2.2966  0.8308  2.5289
20642SOL    HW266383  10.293   7.764  10.652  0.4182 -1.3907  1.1545
20643SOL     OW66384   0.348   6.833   4.844  0.0379 -0.0599  0.1411
20643SOL    HW166385   0.369   6.869   4.758  0.1329 -0.0537  0.1660
20643SOL    HW266386   0.427   6.850   4.896  0.4251 -1.0786 -0.0942
20644SOL     OW66387   7.823   4.991   4.574 -0.4193  0.7966 -0.1113
20644SOL    HW166388   7.826   5.010   4.480  0.1464  0.7258 -0.1061
20644SOL    HW266389   7.746   5.039   4.605 -0.7522  0.6283 -0.6521
20645SOL     OW66390   5.279  10.612   3.702  0.0174 -0.0832 -0.0285
20645SOL    HW166391   5.265  10.649   3.789 -0.4081 -0.9537  0.2859
20645SOL    HW266392   5.232  10.529   3.704  1.6995 -1.0950 -0.3997
20646SOL     OW66393   5.248  10.089   9.261 -0.7475 -0.3419  0.5072
20646SOL    HW166394   5.180  10.118   9.323  0.0465  0.9662  0.8150
20646SOL    HW266395   5.318  10.154   9.271  0.0172 -0.9481 -0.7165
20647SOL     OW66396   1.573  10.442  10.622 -0.0417  0.6542  0.2173
20647SOL    HW166397   1.566  10.389  10.543  2.1792 -0.3844  0.6279
20647SOL    HW266398   1.534  10.526  10.599 -1.9400 -0.5134 -1.0682
20648SOL     OW66399   6.007   5.008  11.051 -0.3907 -0.2180 -0.3827
20648SOL    HW166400   6.018   5.095  11.014 -3.9994  0.9761  0.8525
20648SOL    HW266401   6.034   5.017  11.142 -0.3001 -0.5266 -0.3786
20649SOL     OW66402   5.721   5.333   6.631  0.1397 -0.5395  0.4192
20649SOL    HW166403   5.792   5.377   6.678  0.5906  1.3005 -1.8161
20649SOL    HW266404   5.666   5.404   6.598 -0.3732 -1.7085 -1.4094
20650SOL     OW66405   8.844   1.007   8.503 -0.0288  0.3432  0.0648
20650SOL    HW166406   8.858   0.931   8.559  0.9052  0.4365 -0.0404
20650SOL    HW266407   8.911   1.000   8.435  0.9180  1.9596  0.7866
20651SOL     OW66408   1.072   1.322   4.115  0.5339  0.1691 -0.5982
20651SOL    HW166409   1.031   1.355   4.194  0.3507  0.2628 -0.7302
20651SOL    HW266410   1.144   1.383   4.097  0.7154  0.0181 -0.3792
20652SOL     OW66411   0.983   2.462   4.889 -0.3212  0.2822 -0.0804
20652SOL    HW166412   1.027   2.386   4.927  1.0040  0.8189 -0.5013
20652SOL    HW266413   1.002   2.533   4.950 -2.6487  0.0639  1.0126
20653SOL     OW66414   0.060   1.181   1.946  0.4177  0.2451  0.1066
20653SOL    HW166415  -0.008   1.118   1.922  1.9797 -1.8005  0.6824
20653SOL    HW266416   0.095   1.212   1.863 -0.7883  0.8667 -0.1898
20654SOL     OW66417   0.498   6.297   5.878  0.1895  0.0382 -0.1603
20654SOL    HW166418   0.549   6.241   5.819 -0.6291 -0.1648 -0.6928
20654SOL    HW266419   0.450   6.235   5.933  0.3136  0.2260  0.1616
20655SOL     OW66420   2.641   0.705   3.192  0.3122  0.2885  0.3939
20655SOL    HW166421   2.587   0.638   3.235 -0.7885 -0.5789 -2.1223
20655SOL    HW266422   2.726   0.662   3.180 -0.5171 -0.9678 -1.6150
20656SOL     OW66423   8.804   9.654   2.639  0.4427  0.5770  0.1849
20656SOL    HW166424   8.722   9.656   2.588 -2.1431 -1.1408  3.7950
20656SOL    HW266425   8.833   9.563   2.634  2.0994  1.1147 -0.8246
20657SOL     OW66426  10.958   8.955   7.203 -0.6851  0.1382  0.3691
20657SOL    HW166427  10.920   8.868   7.218  0.1011 -0.1863  0.4842
20657SOL    HW266428  11.005   8.946   7.120  0.5215  0.0809  1.0540
20658SOL     OW66429   6.348   4.101   7.187  0.2467 -0.2473 -0.4879
20658SOL    HW166430   6.348   4.010   7.218  1.2282 -0.3725 -0.8093
20658SOL    HW266431   6.263   4.135   7.213 -0.1874 -1.2975 -0.4646
20659SOL     OW66432   4.943   1.286   4.955  0.4322  0.4712  0.6622
20659SOL    HW166433   4.863   1.330   4.982 -1.0392 -1.7174  0.1272
20659SOL    HW266434   4.933   1.275   4.860  1.6926  0.7546  0.4791
20660SOL     OW66435   4.464   6.796   8.717 -0.1784 -0.4390 -0.0191
20660SOL    HW166436   4.479   6.806   8.623  1.9776  0.8147  0.3642
20660SOL    HW266437   4.480   6.884   8.753  0.2026 -1.1332  1.6143
20661SOL     OW66438   5.123   1.602   5.967  0.7406 -0.0690  0.5561
20661SOL    HW166439   5.104   1.690   6.001 -0.4397  0.1492 -0.5844
20661SOL    HW266440   5.038   1.568   5.939  1.2558 -1.3978  0.5361
20662SOL     OW66441   2.858   7.439   9.931  0.0807  0.3499  0.1060
20662SOL    HW166442   2.793   7.505   9.906  0.3246  0.7711  0.5558
20662SOL    HW266443   2.829   7.409  10.017  0.3959  0.4282  0.2404
20663SOL     OW66444   7.788  10.251   6.969  0.2992  0.4173 -0.0913
20663SOL    HW166445   7.774  10.197   7.046  0.5168 -0.7842 -0.8646
20663SOL    HW266446   7.875  10.290   6.981  0.8809 -0.7825 -0.3112
20664SOL     OW66447   8.776   5.607   8.588  0.2806 -0.1181  0.3066
20664SOL    HW166448   8.775   5.625   8.494 -0.5776 -0.4950  0.2320
20664SOL    HW266449   8.741   5.518   8.595  0.2010 -0.0370  0.9909
20665SOL     OW66450   8.530   3.718   6.254 -0.4718 -0.7405  0.0628
20665SOL    HW166451   8.560   3.659   6.323  0.9984  0.5752  0.6071
20665SOL    HW266452   8.597   3.712   6.186 -0.6390 -0.1958 -0.1609
20666SOL     OW66453  10.511   7.706   9.500 -0.3567  0.1954  0.2556
20666SOL    HW166454  10.476   7.794   9.493 -1.9447 -0.1711  2.3951
20666SOL    HW266455  10.580   7.712   9.566 -0.1798 -0.1043  0.1037
20667SOL     OW66456   0.627   0.461   9.639 -0.4194 -0.1276 -0.1013
20667SOL    HW166457   0.718   0.449   9.611 -1.0853  0.2712 -2.7328
20667SOL    HW266458   0.588   0.374   9.631 -0.4574 -0.1392  0.2229
20668SOL     OW66459   5.581   0.223  11.027 -0.4044 -0.1756  0.1311
20668SOL    HW166460   5.642   0.194  11.095 -0.4915 -0.9515 -0.1045
20668SOL    HW266461   5.530   0.144  11.006 -0.4058  0.0651 -0.8005
20669SOL     OW66462   7.560   8.564   9.490 -0.1205  0.1458  0.1666
20669SOL    HW166463   7.527   8.576   9.401 -0.7707 -0.7439  0.2846
20669SOL    HW266464   7.653   8.587   9.484 -0.4896  1.5781 -0.3980
20670SOL     OW66465   2.752  10.189   5.943  0.4862 -0.1136 -0.2309
20670SOL    HW166466   2.829  10.143   5.975  1.1024  1.6576  0.9764
20670SOL    HW266467   2.709  10.126   5.884  1.4015 -2.1038  1.1064
20671SOL     OW66468   0.672   4.169   7.916  0.2430  0.3747  0.3248
20671SOL    HW166469   0.710   4.208   7.995 -2.1177  0.1552  1.6724
20671SOL    HW266470   0.627   4.242   7.873 -0.4731  0.0347  0.4808
20672SOL     OW66471   8.697   8.419  10.541 -0.3808 -1.1342 -0.6703
20672SOL    HW166472   8.637   8.455  10.606 -0.3120  0.3697 -1.4073
20672SOL    HW266473   8.641   8.388  10.470 -0.3386 -0.6014 -0.9379
20673SOL     OW66474   9.377   2.691  10.416  0.2538 -0.0264 -0.5337
20673SOL    HW166475   9.411   2.742  10.489 -0.0590  0.1429 -0.5054
20673SOL    HW266476   9.334   2.616  10.458  0.3054 -0.0663 -0.5535
20674SOL     OW66477   8.861  10.399   5.190 -0.4496 -0.3825 -0.0167
20674SOL    HW166478   8.853  10.362   5.102 -0.7254 -0.7685  0.1669
20674SOL    HW266479   8.892  10.488   5.176  0.9552 -0.9091 -0.4397
20675SOL     OW66480   6.604  10.833   2.913 -0.6376  0.3786  0.2600
20675SOL    HW166481   6.577  10.879   2.993 -1.2825  0.5897 -0.0729
20675SOL    HW266482   6.630  10.746   2.944 -0.7288  0.5103  0.7215
20676SOL     OW66483   2.347  10.570   8.124  0.4766 -0.0214  0.4033
20676SOL    HW166484   2.283  10.576   8.195 -0.3107  0.6284 -0.3419
20676SOL    HW266485   2.372  10.661   8.107  0.3372 -0.1378 -0.4438
20677SOL     OW66486   5.675  10.660   2.835 -0.3848 -0.5870  0.4228
20677SOL    HW166487   5.658  10.568   2.819 -0.1762 -0.1657 -2.8612
20677SOL    HW266488   5.659  10.672   2.929 -2.0448 -3.5763  0.6155
20678SOL     OW66489   3.622   2.816   3.449 -0.0839 -0.4766 -0.5117
20678SOL    HW166490   3.540   2.842   3.491  1.3356  0.3273  2.0209
20678SOL    HW266491   3.642   2.731   3.487  0.8116 -0.1209 -0.1432
20679SOL     OW66492   3.523   2.813   5.629  0.6969 -0.4992  0.2982
20679SOL    HW166493   3.523   2.736   5.686  0.0579  0.3909  1.5541
20679SOL    HW266494   3.522   2.888   5.690  0.4076  0.4881 -0.8795
20680SOL     OW66495  10.440   7.630   2.043  0.3339 -0.3883 -0.4455
20680SOL    HW166496  10.496   7.583   1.982 -0.9062 -1.8004 -0.5559
20680SOL    HW266497  10.354   7.591   2.032 -0.7207  1.7516 -0.3185
20681SOL     OW66498   1.944   2.097   2.986  0.2408  0.2334  0.3319
20681SOL    HW166499   1.981   2.165   2.930  3.6218 -1.2714  0.5216
20681SOL    HW266500   1.883   2.050   2.930  1.8139  0.1957 -1.4430
20682SOL     OW66501   2.749   4.758   0.209  0.8645  0.1651  0.6768
20682SOL    HW166502   2.775   4.801   0.290 -0.5647 -0.0889  1.2929
20682SOL    HW266503   2.659   4.730   0.224  0.5652  0.1053 -0.9940
20683SOL     OW66504   1.142   4.684   6.200  0.1209 -0.1489 -0.2098
20683SOL    HW166505   1.167   4.623   6.130  2.5757 -0.2793  0.6592
20683SOL    HW266506   1.138   4.769   6.158 -0.0126 -0.4445 -0.8087
20684SOL     OW66507   6.852   1.471   9.194 -0.2395  0.1505  0.3799
20684SOL    HW166508   6.780   1.412   9.218 -0.0871  0.7840  2.6185
20684SOL    HW266509   6.930   1.415   9.197 -0.0193  0.4502  3.0290
20685SOL     OW66510   1.482   1.806   3.954  0.4904 -0.0744  0.3697
20685SOL    HW166511   1.542   1.824   3.882  0.4657 -0.5655  0.2222
20685SOL    HW266512   1.472   1.890   3.999  1.0428  0.0780  0.2132
20686SOL     OW66513   4.394   4.651   2.332 -0.0031 -0.0668 -0.1989
20686SOL    HW166514   4.308   4.612   2.317 -0.1006 -0.3419  0.9545
20686SOL    HW266515   4.395   4.671   2.426  1.2007 -0.0929 -0.1884
20687SOL     OW66516   6.461   1.003   2.423  0.2018 -0.4915 -0.0971
20687SOL    HW166517   6.524   1.055   2.373  0.2230 -0.7986 -0.3942
20687SOL    HW266518   6.386   0.993   2.364  0.2187 -0.8366 -0.0642
20688SOL     OW66519   7.087   4.651   7.341 -0.0977  0.2204  0.2294
20688SOL    HW166520   7.041   4.691   7.414  1.7328  0.9727  1.0298
20688SOL    HW266521   7.140   4.722   7.304  0.8669 -0.7231 -0.2585
20689SOL     OW66522   9.147   8.284   0.102  0.2533 -0.2234 -0.4681
20689SOL    HW166523   9.070   8.237   0.134 -0.0895  0.2019 -0.6552
20689SOL    HW266524   9.127   8.376   0.119  0.0617  0.0262 -1.8594
20690SOL     OW66525   4.817   2.308   5.131 -0.3450  0.0457  0.3226
20690SOL    HW166526   4.759   2.236   5.155 -0.3907 -0.4365 -1.1289
20690SOL    HW266527   4.893   2.298   5.188  0.5712 -2.4340 -1.1867
20691SOL     OW66528   6.629   4.512   7.337  0.1787  0.2132 -0.8213
20691SOL    HW166529   6.623   4.440   7.400  0.4716  0.1510 -0.8630
20691SOL    HW266530   6.555   4.568   7.358  2.2263  2.1153  1.9538
20692SOL     OW66531   5.970   1.522   2.611 -0.0444 -0.3497  0.1342
20692SOL    HW166532   5.909   1.570   2.666  0.8628  0.1109  0.7605
20692SOL    HW266533   5.957   1.559   2.523  0.8739  1.3218  0.6598
20693SOL     OW66534   4.753   3.577   0.396  0.4640 -0.1015  0.3829
20693SOL    HW166535   4.700   3.648   0.433 -0.6867 -0.2559 -0.8759
20693SOL    HW266536   4.776   3.522   0.471 -3.2365 -1.3657  0.8055
20694SOL     OW66537   8.600  10.080   2.928  0.4035  0.4047  0.3682
20694SOL    HW166538   8.678  10.052   2.976 -1.0298 -0.6677  2.2289
20694SOL    HW266539   8.570  10.157   2.975 -0.4565 -0.0535  0.5864
20695SOL     OW66540   8.139  10.644   2.648  0.4539  0.1358 -0.2579
20695SOL    HW166541   8.103  10.605   2.728 -0.0847  1.4669  0.1801
20695SOL    HW266542   8.071  10.704   2.619  1.2849  0.7979 -0.8589
20696SOL     OW66543   1.565  10.213   3.827 -0.2851 -0.0412 -0.2257
20696SOL    HW166544   1.582  10.238   3.918  1.9231 -0.5967 -0.4207
20696SOL    HW266545   1.576  10.295   3.778 -1.0915  0.1803 -0.0539
20697SOL     OW66546   0.687   2.499   2.743  0.1610 -0.3258  0.3823
20697SOL    HW166547   0.734   2.574   2.779 -0.3138 -0.2038  0.7664
20697SOL    HW266548   0.609   2.491   2.798 -2.0277  1.5071 -2.2091
20698SOL     OW66549   6.543   5.298   3.094  0.2347 -0.1501  0.0587
20698SOL    HW166550   6.617   5.314   3.153  1.5562 -0.4422 -1.4562
20698SOL    HW266551   6.552   5.363   3.025 -1.6508  0.5858  0.4447
20699SOL     OW66552   9.741   8.153   4.772 -0.6136 -0.0547 -0.2099
20699SOL    HW166553   9.680   8.091   4.814  1.0161 -1.8160 -0.3005
20699SOL    HW266554   9.803   8.176   4.842 -0.2274  0.1667 -0.6243
20700SOL     OW66555   1.942   3.124   0.175  0.4172  0.1134 -0.4194
20700SOL    HW166556   1.851   3.095   0.183  0.4859 -0.5415 -1.7459
20700SOL    HW266557   1.936   3.220   0.175 -0.2478  0.0752 -0.2368
20701SOL     OW66558   0.627   4.849   1.421 -0.0441 -0.2844 -0.3944
20701SOL    HW166559   0.613   4.899   1.341  1.5686  0.4892 -0.2287
20701SOL    HW266560   0.669   4.768   1.393  2.0115  0.6702 -0.2445
20702SOL     OW66561   2.910   9.083   3.141  0.2245  0.2168 -0.3062
20702SOL    HW166562   2.850   9.087   3.066 -1.1069  0.5702  0.7265
20702SOL    HW266563   2.892   9.164   3.189  1.3491  0.1846  0.1976
20703SOL     OW66564   4.551   2.815   0.763 -0.5407 -0.1218 -0.2055
20703SOL    HW166565   4.469   2.798   0.716 -0.7254  1.4547 -0.5199
20703SOL    HW266566   4.562   2.739   0.820 -1.2530 -1.2261 -1.4882
20704SOL     OW66567   9.932   6.361   2.183  0.2003 -0.4378 -0.3229
20704SOL    HW166568  10.002   6.426   2.189  0.5615 -0.7765 -0.7933
20704SOL    HW266569   9.877   6.378   2.260  0.6302  0.0230 -0.1102
20705SOL     OW66570   4.239   2.910   8.067  1.3651 -0.2994 -0.1956
20705SOL    HW166571   4.330   2.931   8.089  0.9720  0.4830  0.8009
20705SOL    HW266572   4.241   2.818   8.041  2.1935 -0.7646  1.4004
20706SOL     OW66573   5.583   2.058   4.802  0.1418  0.0534  0.1812
20706SOL    HW166574   5.591   2.089   4.712  0.5796  0.5232  0.3775
20706SOL    HW266575   5.673   2.037   4.829 -0.1026 -1.0853  0.1641
20707SOL     OW66576   4.252   2.027   2.322  0.0128 -0.4438 -0.0606
20707SOL    HW166577   4.232   1.988   2.407  0.5338 -0.9069 -0.1475
20707SOL    HW266578   4.326   1.976   2.289  1.8016  1.5962  0.5361
20708SOL     OW66579   5.093   5.389   3.058  0.6686  0.0545  0.6091
20708SOL    HW166580   5.052   5.472   3.034  0.2207  0.0376  1.2808
20708SOL    HW266581   5.142   5.408   3.138 -0.5718 -0.6328  1.5631
20709SOL     OW66582  10.663   9.698   6.987 -0.1402 -0.9479  0.3173
20709SOL    HW166583  10.710   9.619   7.012 -0.4063 -0.6193  1.9543
20709SOL    HW266584  10.605   9.670   6.916  1.1511 -1.7636 -0.4499
20710SOL     OW66585   1.350   1.281   9.245 -0.0785  0.1880 -0.0974
20710SOL    HW166586   1.386   1.202   9.205  1.0117  0.2429  0.7289
20710SOL    HW266587   1.380   1.352   9.188  1.2084  0.2341  0.5771
20711SOL     OW66588   6.129  10.667   7.380 -0.5430  0.3400  0.3575
20711SOL    HW166589   6.119  10.761   7.395 -0.0019  0.1444  2.2804
20711SOL    HW266590   6.212  10.659   7.333 -0.8267  0.8446 -0.2373
20712SOL     OW66591   9.135  10.158   6.983  0.0826 -0.3629 -0.2209
20712SOL    HW166592   9.229  10.140   6.991  0.1196  0.0943  0.4107
20712SOL    HW266593   9.093  10.081   7.019  0.2325  0.1317  1.0459
20713SOL     OW66594   5.816   1.107   4.028  0.1538  0.2191 -0.8646
20713SOL    HW166595   5.817   1.013   4.012 -0.4474  0.0291  0.1701
20713SOL    HW266596   5.746   1.140   3.971 -2.9419 -0.6473  2.1572
20714SOL     OW66597   0.763   3.336   2.929 -0.4810  0.3879  0.3509
20714SOL    HW166598   0.745   3.420   2.889 -1.2062  0.4929  0.8728
20714SOL    HW266599   0.763   3.354   3.023  0.8620  0.0879  0.4232
20715SOL     OW66600   1.786   2.078  10.029  0.1368  0.3836  0.0733
20715SOL    HW166601   1.697   2.067   9.994  0.2360  0.0611 -0.0763
20715SOL    HW266602   1.791   2.171  10.050 -0.6648  0.1899  1.2304
20716SOL     OW66603   6.397   9.648   0.385  0.1689 -0.4298  0.3292
20716SOL    HW166604   6.430   9.572   0.433  2.3235  0.1106 -0.1667
20716SOL    HW266605   6.437   9.640   0.298 -1.4865  0.0349 -0.5147
20717SOL     OW66606   4.793   3.533   4.195  0.0205 -0.0831  0.5669
20717SOL    HW166607   4.739   3.535   4.116  0.7767  2.7822 -0.0051
20717SOL    HW266608   4.867   3.477   4.171 -1.2253 -1.7480  0.3871
20718SOL     OW66609   4.521   9.638   1.539 -0.2351 -0.2869 -0.0177
20718SOL    HW166610   4.516   9.729   1.510  0.2969 -0.2330  0.0524
20718SOL    HW266611   4.456   9.593   1.485 -1.7572  0.4328  1.1471
20719SOL     OW66612   0.028   4.951   3.716  0.0442  0.0033  0.9711
20719SOL    HW166613   0.029   5.022   3.780 -0.2159 -1.1434  2.3007
20719SOL    HW266614   0.078   4.881   3.757  0.8919 -0.3645 -0.6046
20720SOL     OW66615   4.941   5.938   9.588 -0.0154 -1.0720 -0.2332
20720SOL    HW166616   4.940   5.852   9.545  0.3945 -1.4476  0.5011
20720SOL    HW266617   4.858   5.978   9.562  0.3307 -1.1770 -1.5922
20721SOL     OW66618   7.186   4.149   7.419 -0.4997  0.0841  0.4936
20721SOL    HW166619   7.217   4.206   7.349  0.7502 -0.7410  0.3374
20721SOL    HW266620   7.266   4.110   7.456 -1.1923 -0.1132  1.8419
20722SOL     OW66621   6.403   3.976   4.725  0.3067  0.2582 -0.0707
20722SOL    HW166622   6.474   4.034   4.751  1.5216  0.5399 -3.4489
20722SOL    HW266623   6.340   4.033   4.681 -0.7315 -0.3672  0.5717
20723SOL     OW66624   5.187   1.581   1.953 -0.2122  0.2856  0.2420
20723SOL    HW166625   5.124   1.540   2.011  1.4419 -1.1475  1.1296
20723SOL    HW266626   5.150   1.569   1.865 -1.4142 -0.0327  0.7708
20724SOL     OW66627   4.492   6.194   7.602 -0.2524 -0.0135  0.2500
20724SOL    HW166628   4.563   6.138   7.570  1.4468  1.2679  1.5884
20724SOL    HW266629   4.439   6.137   7.657 -0.0808 -0.9009 -0.4762
20725SOL     OW66630   6.957   0.706   6.369 -0.0287 -0.0530  0.0903
20725SOL    HW166631   7.011   0.630   6.388 -0.0529  0.1577  1.0571
20725SOL    HW266632   7.002   0.751   6.297  0.2162 -0.7293 -0.1851
20726SOL     OW66633   9.370   4.869   4.562  0.6545  0.2199 -0.2225
20726SOL    HW166634   9.342   4.778   4.563 -0.1353  0.3584  3.3837
20726SOL    HW266635   9.465   4.865   4.580  0.6211  0.0869 -0.0688
20727SOL     OW66636   5.251  10.078   0.944  0.3971  0.1445  0.2734
20727SOL    HW166637   5.250  10.159   0.996 -0.5254  0.0042  0.4921
20727SOL    HW266638   5.184  10.091   0.878  1.6294  0.3623 -0.9919
20728SOL     OW66639   5.463  10.280   1.120 -0.4094 -0.6505  0.7392
20728SOL    HW166640   5.442  10.369   1.093  0.8530 -0.5297  0.1051
20728SOL    HW266641   5.526  10.249   1.055 -0.3927 -1.8043  1.2785
20729SOL     OW66642   0.981   2.772   0.342  0.0273  0.0707 -0.4750
20729SOL    HW166643   1.029   2.700   0.301  2.5810  0.9899  0.7220
20729SOL    HW266644   1.040   2.847   0.338 -1.9032  1.7072 -0.2194
20730SOL     OW66645   9.714   9.625   6.685 -0.3584 -0.1102 -0.7225
20730SOL    HW166646   9.772   9.700   6.695  0.6347 -0.8281 -1.0097
20730SOL    HW266647   9.772   9.551   6.666 -1.0845 -1.3960  1.6199
20731SOL     OW66648   0.728   7.366   3.836 -0.4798  0.3246 -0.4379
20731SOL    HW166649   0.667   7.419   3.786 -0.9946 -0.3866 -0.5844
20731SOL    HW266650   0.676   7.329   3.907 -0.0302  0.3727 -0.0810
20732SOL     OW66651   5.554   9.957   0.183  0.3759  0.1011 -0.0300
20732SOL    HW166652   5.551  10.051   0.167  0.0899 -0.0590 -0.9785
20732SOL    HW266653   5.472   9.924   0.146 -0.8456 -0.1833  2.6828
20733SOL     OW66654   0.496   8.791   3.735 -0.4454  0.1675  0.2526
20733SOL    HW166655   0.562   8.785   3.804 -1.0048  1.9129  0.9951
20733SOL    HW266656   0.526   8.729   3.668  2.4001  1.4467  0.1823
20734SOL     OW66657   1.199   1.718   9.247  0.2877  0.1200  0.3480
20734SOL    HW166658   1.282   1.765   9.262 -0.4460  1.4358  0.4347
20734SOL    HW266659   1.178   1.679   9.332  0.2396  0.7642  0.6411
20735SOL     OW66660   2.651   0.478   2.632 -0.1699  0.0241 -0.2686
20735SOL    HW166661   2.657   0.457   2.725 -0.5056  0.1345 -0.2219
20735SOL    HW266662   2.607   0.402   2.593 -0.6878  0.2964 -0.2206
20736SOL     OW66663   5.915   9.542   7.796  0.1206  0.5098  0.2919
20736SOL    HW166664   5.879   9.607   7.735 -2.7004 -1.0944  0.0951
20736SOL    HW266665   6.005   9.531   7.768 -0.9009  0.2014 -3.3565
20737SOL     OW66666   1.623   2.094   9.795 -0.4350  0.1726 -0.2501
20737SOL    HW166667   1.663   2.052   9.719  0.1035  0.5672 -0.1912
20737SOL    HW266668   1.540   2.048   9.807  0.0247 -0.7126 -0.3377
20738SOL     OW66669  10.018   1.391   4.911 -0.4667 -0.5175 -0.0867
20738SOL    HW166670   9.927   1.373   4.937 -0.3392 -1.1659 -0.0648
20738SOL    HW266671  10.024   1.354   4.823  0.7486 -3.7432  1.2131
20739SOL     OW66672   5.564   0.724   5.115 -0.4485  0.2142  0.5339
20739SOL    HW166673   5.601   0.637   5.103  0.4322  0.2434  2.5128
20739SOL    HW266674   5.625   0.783   5.071 -1.5733 -0.1762 -1.6887
20740SOL     OW66675   5.571   2.205  11.018  0.1042 -0.3729 -0.1382
20740SOL    HW166676   5.489   2.158  11.001  1.2637 -2.1234 -1.1836
20740SOL    HW266677   5.567   2.280  10.959 -0.2641 -1.0506 -0.9977
20741SOL     OW66678   4.267   6.593   6.459  0.0975  0.0523  0.4840
20741SOL    HW166679   4.241   6.685   6.453  1.8950  0.5316 -0.9001
20741SOL    HW266680   4.224   6.551   6.385  0.1424  0.0160  0.4785
20742SOL     OW66681   8.872  10.540   9.521  0.0964  0.1068  0.3831
20742SOL    HW166682   8.836  10.466   9.472 -0.6259  1.0845 -0.6088
20742SOL    HW266683   8.947  10.569   9.468 -0.2863  0.7524  0.1867
20743SOL     OW66684   0.180   8.120  10.176 -0.1460 -0.1025 -0.3660
20743SOL    HW166685   0.192   8.055  10.107 -1.1092 -0.6570 -0.0332
20743SOL    HW266686   0.171   8.203  10.130  0.0827 -0.3439 -0.8546
20744SOL     OW66687   5.564   5.263   0.842 -0.5704 -0.5410  0.1116
20744SOL    HW166688   5.604   5.234   0.760  0.8814  0.9169  0.2713
20744SOL    HW266689   5.615   5.221   0.911 -0.8827 -0.6196  0.3022
20745SOL     OW66690   2.182   7.557   7.805 -0.6009  0.3098 -0.5742
20745SOL    HW166691   2.189   7.463   7.787  1.5836  0.4369 -0.6413
20745SOL    HW266692   2.115   7.588   7.744 -2.8676 -1.4991  0.8390
20746SOL     OW66693  10.483   1.145   4.567 -0.4088  0.0749  0.3242
20746SOL    HW166694  10.448   1.071   4.616 -0.8587  0.7990  1.1129
20746SOL    HW266695  10.506   1.210   4.633  0.0642  0.6160 -0.3471
20747SOL     OW66696   8.208   9.673   7.425 -0.0440 -0.5740 -0.3894
20747SOL    HW166697   8.207   9.581   7.448  1.2096 -0.6662 -0.6464
20747SOL    HW266698   8.188   9.675   7.331 -0.1019 -0.5838 -0.3771
20748SOL     OW66699  10.635   2.038   6.231 -0.2365  0.5182  0.0932
20748SOL    HW166700  10.647   1.984   6.308 -0.3737 -0.6577 -0.6781
20748SOL    HW266701  10.554   2.086   6.248 -1.6110 -1.5372 -0.2894
20749SOL     OW66702   3.841   4.428  10.289  1.3379 -0.4368 -0.4487
20749SOL    HW166703   3.758   4.395  10.255  1.0277  1.2027 -1.3855
20749SOL    HW266704   3.907   4.400  10.226  1.1442  0.2609 -0.9761
20750SOL     OW66705   2.453   1.185   0.487  0.0515 -0.7899  0.1869
20750SOL    HW166706   2.420   1.174   0.576 -0.4968 -1.6213 -0.1021
20750SOL    HW266707   2.496   1.270   0.487  2.2027 -1.7777  1.9173
20751SOL     OW66708   6.141   4.764   1.385  0.0991  0.0041  0.2466
20751SOL    HW166709   6.129   4.711   1.306  0.1230 -0.8055  0.7840
20751SOL    HW266710   6.236   4.773   1.392  0.0737  1.1378 -0.4995
20752SOL     OW66711   4.023   5.792   3.186 -0.0938  0.4858  0.3889
20752SOL    HW166712   4.099   5.778   3.241  1.6540  0.0586 -1.9656
20752SOL    HW266713   3.977   5.708   3.186  0.3571  0.2396  0.5352
20753SOL     OW66714   1.681   7.147   7.956 -0.0891 -0.0717 -0.1104
20753SOL    HW166715   1.653   7.139   8.047 -1.2247  0.2217 -0.4228
20753SOL    HW266716   1.614   7.101   7.906  1.1023 -1.2162 -0.7357
20754SOL     OW66717   6.074   3.236   6.697  0.3015 -0.2021 -0.1645
20754SOL    HW166718   6.065   3.283   6.614 -0.3087 -1.3852 -0.8055
20754SOL    HW266719   6.019   3.284   6.759  0.0988  0.2175 -0.6611
20755SOL     OW66720  10.062   1.318   3.490  0.2548 -0.3451  0.8442
20755SOL    HW166721  10.117   1.338   3.566  0.2671 -0.7778  0.9540
20755SOL    HW266722  10.076   1.391   3.430 -0.5222  0.5087  1.6733
20756SOL     OW66723   8.492   6.219   8.115  0.0601  0.6100  0.1875
20756SOL    HW166724   8.397   6.210   8.113  0.1296 -0.0129 -0.6973
20756SOL    HW266725   8.511   6.251   8.204 -1.0613  1.9870 -0.0337
20757SOL     OW66726   6.209   0.823   4.605  0.1636  0.0291 -0.2447
20757SOL    HW166727   6.304   0.814   4.614  0.3124  1.3972 -0.1875
20757SOL    HW266728   6.193   0.818   4.511 -0.0054 -2.4850 -0.1390
20758SOL     OW66729   1.013   9.730   2.247 -0.1993 -0.0989 -0.3016
20758SOL    HW166730   1.026   9.651   2.300 -0.1427  1.8946  2.9423
20758SOL    HW266731   0.919   9.730   2.228 -0.1035 -1.2221 -0.8562
20759SOL     OW66732   6.905   3.907   9.991  0.5883 -0.0025 -0.1602
20759SOL    HW166733   6.903   3.872   9.902  1.1640 -3.3671  1.0102
20759SOL    HW266734   6.914   3.830  10.047  2.9090  2.1048  2.7089
20760SOL     OW66735   0.309  10.958   8.625 -0.8537  0.1109  0.2032
20760SOL    HW166736   0.353  11.012   8.691 -2.7164 -0.7459  2.2851
20760SOL    HW266737   0.321  10.868   8.657 -2.8749 -0.2301  0.0873
20761SOL     OW66738   0.081   2.811  11.055  0.0655 -0.0168  0.3263
20761SOL    HW166739   0.172   2.840  11.062 -0.2175  0.6281  1.4781
20761SOL    HW266740   0.067   2.803  10.961  1.5597 -0.9409  0.1426
20762SOL     OW66741   9.251   3.457   7.414 -0.4166  0.1869 -0.0865
20762SOL    HW166742   9.303   3.377   7.411 -0.1921  0.1610  2.4540
20762SOL    HW266743   9.168   3.434   7.372 -1.4025 -2.2950  2.8915
20763SOL     OW66744   9.850   4.131   3.070 -0.1476  0.0237  0.4761
20763SOL    HW166745   9.860   4.199   3.004 -2.2275 -0.3070 -0.2312
20763SOL    HW266746   9.809   4.175   3.144 -3.3954 -0.7228 -0.7091
20764SOL     OW66747  10.723   5.178   5.467 -0.4094 -0.9312  0.3435
20764SOL    HW166748  10.637   5.151   5.500 -0.3271 -0.8046  0.6661
20764SOL    HW266749  10.782   5.107   5.494 -0.1034 -0.2234  1.6135
20765SOL     OW66750   6.640   7.406   4.524 -0.2190 -0.2185 -0.1524
20765SOL    HW166751   6.579   7.472   4.490 -0.7684 -1.3484 -1.4696
20765SOL    HW266752   6.606   7.323   4.491  1.6126 -0.9597 -0.2872
20766SOL     OW66753   2.366   0.638   9.167  0.4334  0.5867 -0.0704
20766SOL    HW166754   2.430   0.618   9.235 -0.1742  2.0743  0.9790
20766SOL    HW266755   2.281   0.617   9.206  0.0665  1.6350 -0.2708
20767SOL     OW66756  10.428   9.649   7.358 -0.2605 -0.7901  0.2684
20767SOL    HW166757  10.404   9.704   7.433 -1.9769 -1.7629  0.4871
20767SOL    HW266758  10.373   9.680   7.287  0.1451 -0.9712 -0.1293
20768SOL     OW66759   2.215   1.226   0.185  0.5387 -0.3074  0.3244
20768SOL    HW166760   2.228   1.241   0.091  2.2666  1.4344  0.7666
20768SOL    HW266761   2.238   1.134   0.198 -0.0026 -0.6486 -0.9996
20769SOL     OW66762   0.769   1.914   6.172 -0.3671 -0.2851 -0.1573
20769SOL    HW166763   0.830   1.932   6.101  0.3446  0.6989  0.6750
20769SOL    HW266764   0.714   1.992   6.176 -0.8453 -0.6228 -0.0637
20770SOL     OW66765   1.363   3.849   8.917 -0.7234 -0.7032  0.1827
20770SOL    HW166766   1.439   3.905   8.936 -0.3342 -1.4185  0.7867
20770SOL    HW266767   1.386   3.805   8.834 -1.9827  1.6455 -1.5292
20771SOL     OW66768   8.910   6.183   4.591  0.4119  0.2195  0.4368
20771SOL    HW166769   8.915   6.255   4.528  0.7304 -0.1851 -0.0041
20771SOL    HW266770   8.933   6.105   4.541 -2.5133 -0.6187  0.1952
20772SOL     OW66771   0.254   0.914   2.909  0.4930 -0.0692  0.7078
20772SOL    HW166772   0.242   0.844   2.973  2.5351 -0.4165  0.7834
20772SOL    HW266773   0.304   0.874   2.838 -0.6798  0.6390 -0.5641
20773SOL     OW66774   6.379   4.316   1.510  0.2984 -0.3660  0.0103
20773SOL    HW166775   6.416   4.378   1.447 -1.1110  0.1446 -0.3492
20773SOL    HW266776   6.335   4.251   1.455  2.7703 -2.4599  0.3082
20774SOL     OW66777   5.950   0.984   1.397 -0.7063  0.0484 -0.3744
20774SOL    HW166778   5.973   1.072   1.368  1.1194 -0.0884  0.5232
20774SOL    HW266779   5.912   0.943   1.319  0.0526  1.0630 -1.3189
20775SOL     OW66780   3.969   3.999   8.966 -0.2437  0.3525 -0.1282
20775SOL    HW166781   4.049   3.948   8.961 -0.8409 -0.5481 -0.7650
20775SOL    HW266782   3.998   4.086   8.996  1.0519  0.2629 -1.0501
20776SOL     OW66783   3.533   4.479   3.105  0.0624 -0.3763  0.1022
20776SOL    HW166784   3.484   4.399   3.123  0.1311 -0.9066 -1.9077
20776SOL    HW266785   3.475   4.530   3.048  1.6063 -0.8094 -1.9351
20777SOL     OW66786   4.052   7.188   1.975 -0.0247  0.2957 -0.4911
20777SOL    HW166787   4.018   7.236   2.051  2.2266  0.5886  0.4126
20777SOL    HW266788   4.135   7.231   1.955  0.6872 -1.4403 -1.4777
20778SOL     OW66789   8.351   8.034   2.967  0.2995  0.2911 -0.1153
20778SOL    HW166790   8.356   7.959   3.026 -0.2142 -0.1968 -0.6841
20778SOL    HW266791   8.310   8.103   3.019 -2.0281 -0.7352 -0.4466
20779SOL     OW66792   2.179   1.656  10.752 -0.4867  0.0216 -0.5005
20779SOL    HW166793   2.144   1.590  10.692  0.0835 -0.0950 -0.7073
20779SOL    HW266794   2.209   1.727  10.695  1.2917 -0.6601 -0.4698
20780SOL     OW66795   8.353   2.670  10.997  0.1840  0.0905 -0.3784
20780SOL    HW166796   8.343   2.674  10.902  0.6057  0.1318 -0.4201
20780SOL    HW266797   8.440   2.706  11.014  0.0986  0.1144  0.0262
20781SOL     OW66798   5.006   3.309   9.553 -0.0867 -0.2462 -0.2512
20781SOL    HW166799   5.061   3.263   9.490  0.8463  0.1735  0.2270
20781SOL    HW266800   5.028   3.270   9.638  0.1105  0.4903  0.0549
20782SOL     OW66801   2.370   8.843   1.412  0.2149  0.0372  0.1241
20782SOL    HW166802   2.430   8.788   1.463 -1.0124 -0.3588  1.1906
20782SOL    HW266803   2.334   8.785   1.346  0.3616  0.0592  0.0231
20783SOL     OW66804   5.478   1.580   2.022  0.3755  0.3116  0.3709
20783SOL    HW166805   5.455   1.624   2.103  0.4927 -0.1279  0.6429
20783SOL    HW266806   5.394   1.556   1.983  0.3481 -0.7558  1.0690
20784SOL     OW66807   9.254   0.673   0.769  0.4735 -0.5745  0.0894
20784SOL    HW166808   9.259   0.616   0.846 -0.0062 -1.8192 -0.7627
20784SOL    HW266809   9.191   0.741   0.794  0.0101 -1.1950  0.6531
20785SOL     OW66810   9.379   2.682   7.912  0.2497  0.4150 -0.3574
20785SOL    HW166811   9.351   2.627   7.984  2.2536  0.5825  0.6343
20785SOL    HW266812   9.474   2.689   7.923  0.4818  1.2838 -2.4295
20786SOL     OW66813   0.468   3.391   0.803  0.0293  0.2807 -0.3374
20786SOL    HW166814   0.460   3.413   0.895  2.6313  0.4305 -0.0728
20786SOL    HW266815   0.466   3.475   0.757  2.5475  0.6189  0.0076
20787SOL     OW66816   7.662   7.724   7.593 -0.5690 -0.1715  0.4406
20787SOL    HW166817   7.740   7.674   7.570  0.9741  2.0328  0.5532
20787SOL    HW266818   7.662   7.726   7.689 -0.6358  0.0287  0.4375
20788SOL     OW66819   7.540   0.037   9.925  0.3971 -0.2540  0.0668
20788SOL    HW166820   7.625   0.069   9.956  0.1688 -0.1857  0.6513
20788SOL    HW266821   7.476   0.093   9.969  0.0748  1.3709 -2.2893
20789SOL     OW66822   2.419   7.277   3.050 -0.1403  0.3249  0.1609
20789SOL    HW166823   2.436   7.370   3.037  0.2868  0.2815  0.4032
20789SOL    HW266824   2.402   7.268   3.144 -0.6692  0.2349  0.0594
20790SOL     OW66825   6.572   6.741  10.575 -0.3956  0.6897 -0.1672
20790SOL    HW166826   6.531   6.665  10.533 -0.0104 -0.4916  1.4965
20790SOL    HW266827   6.664   6.716  10.584 -0.2664  1.3626  0.4311
20791SOL     OW66828   2.877  10.820   7.605 -0.2447 -0.7839  0.1615
20791SOL    HW166829   2.890  10.739   7.655  0.4203 -1.0014 -0.3494
20791SOL    HW266830   2.927  10.807   7.525 -0.0921  0.1581  0.0931
20792SOL     OW66831   9.897   3.660   7.646  0.3977 -0.3252  0.1022
20792SOL    HW166832   9.969   3.718   7.670  1.7477 -1.3396 -1.2264
20792SOL    HW266833   9.908   3.648   7.551 -0.5730 -1.7565  0.1477
20793SOL     OW66834   7.099   1.114   8.005 -0.1618 -0.6704  0.0912
20793SOL    HW166835   7.043   1.189   8.024  1.0912  0.6003 -0.9893
20793SOL    HW266836   7.039   1.040   7.995 -1.4600  0.2660  0.7492
20794SOL     OW66837   5.975   1.786   8.598  0.6299 -0.0030 -0.2449
20794SOL    HW166838   6.025   1.845   8.540  1.4962  0.0988  0.5842
20794SOL    HW266839   5.945   1.842   8.669  1.5514 -0.5640  0.6111
20795SOL     OW66840   7.978   2.466   0.668  0.5842 -0.1219  0.0585
20795SOL    HW166841   8.048   2.454   0.604  0.4313  0.9076 -0.3326
20795SOL    HW266842   7.916   2.524   0.624  0.5425  0.7126  1.1816
20796SOL     OW66843  10.713   3.508   6.915 -0.3416 -0.0115  0.0270
20796SOL    HW166844  10.738   3.555   6.836  0.5715  0.4892  0.5936
20796SOL    HW266845  10.771   3.432   6.917  1.0043  0.9799  1.1725
20797SOL     OW66846   3.738   4.603   6.755 -0.0567 -0.3554  0.4306
20797SOL    HW166847   3.722   4.682   6.806 -1.6762 -0.5372  0.2408
20797SOL    HW266848   3.652   4.577   6.722  0.7337 -1.0367 -1.2218
20798SOL     OW66849   4.106   9.009  10.088 -0.3548 -0.7709  0.2114
20798SOL    HW166850   4.125   9.023  10.180 -0.5366  1.2788 -0.0151
20798SOL    HW266851   4.027   9.061  10.072 -1.2474 -2.3572 -0.7576
20799SOL     OW66852  10.829   2.916   6.770  0.1070 -0.4435  0.0794
20799SOL    HW166853  10.746   2.914   6.721  0.4926  0.5934 -0.6396
20799SOL    HW266854  10.840   2.825   6.800  0.2095 -1.3450 -2.4070
20800SOL     OW66855   7.115   4.682   2.141 -0.2510  0.2123 -0.2370
20800SOL    HW166856   7.102   4.777   2.138 -0.2591  0.1934 -0.9725
20800SOL    HW266857   7.148   4.665   2.229 -0.3336  0.8866 -0.0703
20801SOL     OW66858   2.733   6.945   6.635 -0.4576  0.2503  0.3035
20801SOL    HW166859   2.796   6.919   6.567 -1.6468 -0.4178 -0.5841
20801SOL    HW266860   2.708   6.863   6.677 -0.9512  0.4793  0.4538
20802SOL     OW66861   8.827   8.167   0.307 -0.8115 -1.1166  0.0863
20802SOL    HW166862   8.770   8.224   0.358 -1.0436 -0.7476 -0.5696
20802SOL    HW266863   8.819   8.199   0.217  0.8066 -0.7487  0.0435
20803SOL     OW66864   2.779   9.448   9.558 -0.7752  0.7064  0.5049
20803SOL    HW166865   2.867   9.427   9.528 -1.0275  0.5144 -0.1241
20803SOL    HW266866   2.749   9.369   9.602 -2.6881 -1.4799 -4.0382
20804SOL     OW66867  11.030   9.663   3.019  0.0181  0.4294  0.0928
20804SOL    HW166868  11.084   9.671   2.941  0.0524 -0.4168  0.0213
20804SOL    HW266869  10.974   9.741   3.018  0.3394  0.6567 -0.5200
20805SOL     OW66870   6.082   5.697  10.412  0.0393  0.2864  0.5561
20805SOL    HW166871   6.024   5.725  10.341 -0.4948 -1.5438  0.2432
20805SOL    HW266872   6.043   5.734  10.491 -2.1554 -1.6864  0.4807
20806SOL     OW66873   1.908   1.578   6.766 -0.1064 -0.8777  0.1066
20806SOL    HW166874   1.922   1.567   6.672 -1.8822 -0.3627 -0.2604
20806SOL    HW266875   1.836   1.641   6.773  1.8146  1.3190  1.8854
20807SOL     OW66876   8.738   7.017   6.663  0.0230  0.2630 -0.2482
20807SOL    HW166877   8.703   6.968   6.738  0.0415  0.5213 -0.0695
20807SOL    HW266878   8.660   7.038   6.610 -0.1256  0.9870  0.2373
20808SOL     OW66879   0.901   2.773   0.955  0.0591  0.1135 -0.0752
20808SOL    HW166880   0.817   2.787   0.911 -0.0660 -1.5077 -0.3905
20808SOL    HW266881   0.954   2.848   0.928 -1.3759  1.3773  0.4251
20809SOL     OW66882   1.667   4.809   4.070  0.4228  0.2716 -0.5282
20809SOL    HW166883   1.756   4.833   4.046  0.3633 -0.4614 -1.5328
20809SOL    HW266884   1.662   4.826   4.165  1.6550  0.1962 -0.4341
20810SOL     OW66885   7.948   7.110   1.754  0.3939  0.5715  0.1023
20810SOL    HW166886   7.873   7.051   1.742  0.5995  0.5168 -0.9976
20810SOL    HW266887   7.936   7.146   1.842 -1.9533  1.9920 -0.6974
20811SOL     OW66888   1.032   2.841   1.607  0.0028  0.5262 -0.9391
20811SOL    HW166889   0.988   2.864   1.525 -2.0832  1.6292  0.4027
20811SOL    HW266890   0.997   2.755   1.630 -1.8938  1.5743  0.3308
20812SOL     OW66891  10.669   5.658   5.604  0.2470  0.3093 -0.4771
20812SOL    HW166892  10.702   5.569   5.588  2.2055  1.0589 -0.8606
20812SOL    HW266893  10.597   5.645   5.667 -1.8936 -1.8604 -3.0827
20813SOL     OW66894   9.696   9.392   2.980  0.1169  0.2774 -0.0483
20813SOL    HW166895   9.773   9.380   3.035  0.6350 -0.7042 -0.9482
20813SOL    HW266896   9.706   9.328   2.910 -1.4042  0.3049 -0.3297
20814SOL     OW66897  10.560   4.186   1.351 -0.3338  0.0667  0.0303
20814SOL    HW166898  10.529   4.148   1.269  1.0101  1.6257 -1.2712
20814SOL    HW266899  10.630   4.127   1.380  0.9328  0.8021 -1.3473
20815SOL     OW66900   6.570   0.783   8.634 -0.2046  0.5438  0.3023
20815SOL    HW166901   6.568   0.779   8.538  0.5516 -0.3369  0.3132
20815SOL    HW266902   6.645   0.729   8.659  1.1928  2.7783  1.2706
20816SOL     OW66903   4.730   6.288   6.207  0.2677 -0.2780 -0.0791
20816SOL    HW166904   4.730   6.259   6.299 -1.4111 -1.0972 -0.2988
20816SOL    HW266905   4.740   6.207   6.157  0.7264  0.1235 -0.6460
20817SOL     OW66906   6.490   9.428   9.486  0.7022  0.1565  0.3139
20817SOL    HW166907   6.412   9.386   9.451  0.1578  0.6372  0.9248
20817SOL    HW266908   6.563   9.383   9.443  0.0868  0.0830 -0.6820
20818SOL     OW66909   6.307   1.026   2.665  0.5813  0.0018 -0.2549
20818SOL    HW166910   6.234   1.086   2.648  1.4965  1.0596 -0.5752
20818SOL    HW266911   6.330   0.991   2.579  0.0483 -0.8287 -0.0687
20819SOL     OW66912   0.673   3.816   5.876 -0.5220  0.1184  0.2727
20819SOL    HW166913   0.728   3.886   5.912  0.0485 -1.5699  3.0216
20819SOL    HW266914   0.598   3.811   5.936 -0.0758 -2.1468  0.7571
20820SOL     OW66915   0.841   7.802   0.541 -0.6705 -0.8379  0.0097
20820SOL    HW166916   0.868   7.756   0.621  0.7920  0.9236  0.5890
20820SOL    HW266917   0.767   7.855   0.568 -1.1608 -1.4047 -0.2013
20821SOL     OW66918   8.825   0.469   2.978  0.2340  0.3786  0.0770
20821SOL    HW166919   8.779   0.447   2.897  2.6842  0.1399 -1.3290
20821SOL    HW266920   8.771   0.431   3.047 -0.5987 -1.6983 -1.6258
20822SOL     OW66921   0.055   9.785   5.916 -0.2851 -0.4640  0.0130
20822SOL    HW166922   0.116   9.741   5.975  0.3247 -0.9653 -0.9573
20822SOL    HW266923   0.043   9.872   5.954  0.8324 -0.4520  0.3699
20823SOL     OW66924  10.551   9.036   7.060 -0.5571 -0.2079 -0.3320
20823SOL    HW166925  10.633   9.083   7.071 -0.2856 -0.6607 -0.3984
20823SOL    HW266926  10.547   8.977   7.136 -2.5420  2.2724  1.6960
20824SOL     OW66927   1.786   9.103   9.512 -0.1745  0.0047  0.7022
20824SOL    HW166928   1.854   9.052   9.468 -0.7980  1.0473 -1.5979
20824SOL    HW266929   1.707   9.049   9.505 -0.2703  0.1603  0.5890
20825SOL     OW66930   9.560   9.898   8.476 -0.0325  0.7175 -0.4444
20825SOL    HW166931   9.597   9.947   8.403  2.2298 -0.5178 -0.2032
20825SOL    HW266932   9.484   9.950   8.504  0.1639  2.1808 -2.4306
20826SOL     OW66933   9.414  10.720   9.662 -0.2796 -0.1216  0.0349
20826SOL    HW166934   9.443  10.640   9.706 -1.0843 -0.4127  0.0567
20826SOL    HW266935   9.321  10.727   9.684  0.1286  1.7527  1.4448
20827SOL     OW66936  10.163   3.285   9.789 -0.1585 -0.2687  0.7489
20827SOL    HW166937  10.082   3.295   9.738  0.3765 -0.5985 -0.1920
20827SOL    HW266938  10.214   3.363   9.767  0.1141 -0.4602  0.7042
20828SOL     OW66939   0.960   0.024   4.125 -0.1555  0.4802  0.4876
20828SOL    HW166940   0.984  -0.051   4.071  1.8569  0.9923  0.6073
20828SOL    HW266941   0.922   0.087   4.064  0.9633  0.5585 -0.1494
20829SOL     OW66942   9.843   7.509   3.844 -0.0474 -0.4134 -0.2750
20829SOL    HW166943   9.920   7.457   3.866 -0.1577 -0.6099 -0.3476
20829SOL    HW266944   9.816   7.548   3.927 -0.2318 -0.8398 -0.1291
20830SOL     OW66945   3.375   1.308   4.214  0.3864  0.0458 -0.0482
20830SOL    HW166946   3.354   1.225   4.258  0.4304 -0.7600 -1.4912
20830SOL    HW266947   3.470   1.307   4.206  0.3835  0.2180 -0.1078
20831SOL     OW66948   3.413   7.148   1.305  0.0475  0.0194 -0.3650
20831SOL    HW166949   3.396   7.204   1.380  0.1767 -0.7089  0.2252
20831SOL    HW266950   3.441   7.064   1.343 -1.0922 -0.7754 -1.1879
20832SOL     OW66951   3.191   2.141   5.709  0.4093 -0.2643  0.0634
20832SOL    HW166952   3.284   2.131   5.686  0.6585  1.7090  0.0932
20832SOL    HW266953   3.145   2.080   5.651  1.3940  1.4924 -2.7373
20833SOL     OW66954   5.779   2.921   6.701 -0.2285  0.1794 -0.1095
20833SOL    HW166955   5.745   2.867   6.629 -1.8485  0.7947  0.1575
20833SOL    HW266956   5.706   2.978   6.725 -0.3372 -1.1277  3.1535
20834SOL     OW66957   3.052   5.145  10.213  0.2866 -0.1535 -0.6915
20834SOL    HW166958   3.055   5.238  10.192  1.8460 -0.6342 -2.9494
20834SOL    HW266959   3.020   5.103  10.133  1.3137 -1.6873 -0.3459
20835SOL     OW66960   2.378   6.999   1.563 -0.3427 -0.1666  0.0100
20835SOL    HW166961   2.296   7.015   1.516 -1.0682 -0.4729  1.1174
20835SOL    HW266962   2.356   6.928   1.624  0.4758  0.3916  0.9787
20836SOL     OW66963   8.307   6.591   4.945 -0.2825  0.6598  0.3074
20836SOL    HW166964   8.310   6.535   5.022 -1.2144  0.3826  0.1542
20836SOL    HW266965   8.390   6.639   4.946 -0.1387  0.3987  1.2782
20837SOL     OW66966   6.359   3.320   3.301  0.3015 -0.6546  0.2909
20837SOL    HW166967   6.445   3.331   3.260  0.3127  1.5496  0.7840
20837SOL    HW266968   6.311   3.400   3.278 -0.0465  0.2539  3.6467
20838SOL     OW66969  10.358   0.942   9.552  0.0488  0.3430  0.1087
20838SOL    HW166970  10.409   0.903   9.480 -0.2121 -0.9724  0.6046
20838SOL    HW266971  10.417   1.007   9.591  0.6517  0.1735 -0.5057
20839SOL     OW66972   1.661   5.801   9.998 -0.1473  0.5052 -0.4432
20839SOL    HW166973   1.650   5.707  10.013  2.2142 -0.0024 -1.4560
20839SOL    HW266974   1.602   5.842  10.062 -0.3735 -1.6351  0.8333
20840SOL     OW66975   0.425   8.144   3.936  0.0067 -0.2759  0.1252
20840SOL    HW166976   0.402   8.236   3.948  1.1498  0.1820 -0.9554
20840SOL    HW266977   0.343   8.097   3.949 -0.5343  0.8648  1.0132
20841SOL     OW66978   0.159   3.104  10.120  0.0351 -0.4186  0.0603
20841SOL    HW166979   0.147   3.010  10.108 -0.5757 -0.2128 -1.0055
20841SOL    HW266980   0.157   3.116  10.215 -0.0029 -1.4585  0.2025
20842SOL     OW66981   8.128   1.308  11.026 -0.2084 -0.1613  0.4265
20842SOL    HW166982   8.157   1.243  10.962  0.2227  1.5217 -1.1683
20842SOL    HW266983   8.045   1.341  10.991  0.6636  1.6986 -0.0022
20843SOL     OW66984   6.500   1.297   6.947  0.4201  0.6555  0.5225
20843SOL    HW166985   6.412   1.324   6.975 -0.7154 -0.4139 -1.7946
20843SOL    HW266986   6.497   1.301   6.852  1.9060 -2.3440  0.2474
20844SOL     OW66987   1.959  10.024   7.356 -0.1857 -0.4909 -0.3641
20844SOL    HW166988   1.944   9.968   7.280  0.5007 -1.1772  0.0031
20844SOL    HW266989   1.906   9.984   7.425 -0.5416 -0.0590 -0.3790
20845SOL     OW66990   3.084   3.642   6.317 -0.1830 -0.3981 -0.0115
20845SOL    HW166991   3.081   3.730   6.278 -1.0795 -0.0689  0.7558
20845SOL    HW266992   3.027   3.589   6.261  0.8979 -0.6798 -0.8775
20846SOL     OW66993   0.294   4.717   9.107 -0.1470 -0.3796 -0.1528
20846SOL    HW166994   0.276   4.701   9.014  1.6479  2.9240 -1.2445
20846SOL    HW266995   0.342   4.640   9.137  0.3287 -0.9869 -2.3280
20847SOL     OW66996  10.900   6.647   2.950 -0.2269 -0.4514 -0.6191
20847SOL    HW166997  10.955   6.663   2.873  1.9272 -0.4741  0.8144
20847SOL    HW266998  10.817   6.691   2.930  1.0442  1.4972 -2.0136
20848SOL     OW66999  11.073   1.659   5.491 -0.8577  0.1422 -0.2328
20848SOL    HW167000  11.065   1.655   5.586  0.0936  0.4816 -0.1251
20848SOL    HW267001  11.092   1.569   5.464  1.5002  0.4611  0.1895
20849SOL     OW67002   7.906   5.024   4.309  0.0170 -0.2010 -0.3364
20849SOL    HW167003   7.939   5.113   4.318 -0.8468  0.1041 -0.1193
20849SOL    HW267004   7.847   5.028   4.234 -1.4794 -0.1393  0.8106
20850SOL     OW67005   9.365   0.696   6.922 -0.3065  0.0535 -0.4423
20850SOL    HW167006   9.416   0.665   6.996 -1.2485 -1.0240 -0.2171
20850SOL    HW267007   9.423   0.688   6.846  0.5014  0.7156  0.0902
20851SOL     OW67008   0.783   3.844   5.435  0.0129 -0.2505 -0.2977
20851SOL    HW167009   0.766   3.790   5.358 -0.8784 -1.3019  0.6094
20851SOL    HW267010   0.698   3.857   5.475  0.4883  0.0777  0.6411
20852SOL     OW67011   5.364   4.081   0.580  0.2742  0.1833  0.5600
20852SOL    HW167012   5.288   4.127   0.545  0.1985 -0.8221 -0.6726
20852SOL    HW267013   5.327   4.003   0.622  0.5631  0.1065  0.6714
20853SOL     OW67014   0.444   5.005   8.346 -0.5076 -0.0057 -0.8015
20853SOL    HW167015   0.458   4.991   8.440 -0.3776 -0.7865 -0.9273
20853SOL    HW267016   0.396   5.087   8.340  1.3303  1.1849 -0.1632
20854SOL     OW67017   1.070   7.765   1.652 -0.6717  0.4055  0.0809
20854SOL    HW167018   1.093   7.760   1.559  0.8710  0.0591  0.4380
20854SOL    HW267019   0.975   7.764   1.654 -0.7255  0.0999 -1.4859
20855SOL     OW67020   2.453   4.376   7.737 -0.2116 -0.2611  0.2027
20855SOL    HW167021   2.480   4.399   7.826 -0.5650 -1.8111  0.7365
20855SOL    HW267022   2.403   4.452   7.706  0.2367  0.4440  1.1765
20856SOL     OW67023   0.043   7.270   0.260  0.3046 -0.0869  0.0911
20856SOL    HW167024   0.110   7.337   0.249  0.7572 -0.8690 -2.9346
20856SOL    HW267025  -0.031   7.300   0.208 -0.1206 -1.1449  0.0512
20857SOL     OW67026   5.457   1.021   4.959  0.0578 -0.4900  0.5915
20857SOL    HW167027   5.389   1.056   4.901 -0.0781  0.0720  1.0833
20857SOL    HW267028   5.535   1.073   4.938 -0.1814  0.2195  1.4229
20858SOL     OW67029   1.816   4.521  10.768 -0.0348 -0.1027  0.9402
20858SOL    HW167030   1.817   4.435  10.726  0.2492  0.3602 -0.0198
20858SOL    HW267031   1.772   4.506  10.852 -2.4011 -0.6673 -0.3172
20859SOL     OW67032   0.298   6.620   4.269 -0.4530  0.0477  0.6154
20859SOL    HW167033   0.343   6.675   4.205 -0.7193  1.9850  2.0121
20859SOL    HW267034   0.307   6.531   4.235  1.5120  0.7413 -0.8481
20860SOL     OW67035   8.035   9.071   3.938 -0.1720  0.5856 -0.0937
20860SOL    HW167036   8.005   9.152   3.897  1.7475  0.3462 -2.1686
20860SOL    HW267037   8.128   9.066   3.917 -0.0962 -1.8728  0.4762
20861SOL     OW67038   7.467   6.904   4.278  0.2816 -0.3283 -0.5418
20861SOL    HW167039   7.505   6.821   4.305  0.9551  0.1653  0.0558
20861SOL    HW267040   7.538   6.947   4.229  1.1791  1.3611  2.0707
20862SOL     OW67041   5.195   9.849   2.172  0.2239 -0.0994  0.1768
20862SOL    HW167042   5.247   9.886   2.101  1.1772  1.0229  1.4071
20862SOL    HW267043   5.239   9.766   2.193 -1.3865 -1.6256 -1.9750
20863SOL     OW67044   4.952   9.186   5.626  0.4124  0.4591 -0.8013
20863SOL    HW167045   4.945   9.264   5.571 -1.7368  1.1412  0.3079
20863SOL    HW267046   5.040   9.190   5.663  0.5608  2.0257 -1.2492
20864SOL     OW67047   6.891  10.601   6.777 -0.2191  0.0618 -0.7470
20864SOL    HW167048   6.940  10.522   6.801  2.4737  1.8821  0.2583
20864SOL    HW267049   6.920  10.621   6.688  2.6157  2.1433  0.4602
20865SOL     OW67050   9.249   8.512   5.640 -0.2307  0.2517 -0.0375
20865SOL    HW167051   9.243   8.445   5.572 -0.6472 -0.0171  0.2558
20865SOL    HW267052   9.342   8.518   5.660 -0.4036 -2.9288  2.5206
20866SOL     OW67053   9.175   5.002   2.956 -0.1570 -0.9492  0.0230
20866SOL    HW167054   9.134   5.066   3.014 -0.0089 -0.2717 -0.6130
20866SOL    HW267055   9.222   5.054   2.891  1.2749 -1.6932  0.4029
20867SOL     OW67056   4.056   4.051   7.886 -0.4157 -0.0798 -0.0724
20867SOL    HW167057   4.061   4.042   7.981  0.7731  0.4269 -0.0706
20867SOL    HW267058   3.967   4.083   7.870 -0.0980  1.5058  1.0347
20868SOL     OW67059   3.839  10.782   8.531  0.0613 -0.2259 -0.3863
20868SOL    HW167060   3.856  10.843   8.603 -1.6639 -0.6358  0.4032
20868SOL    HW267061   3.765  10.820   8.484  0.6426 -0.3955 -1.4811
20869SOL     OW67062  10.411   4.626   6.460  0.1378 -0.3090 -0.4205
20869SOL    HW167063  10.415   4.551   6.520 -1.1428  0.0673  0.1609
20869SOL    HW267064  10.324   4.621   6.422 -1.6263  3.1250  2.6419
20870SOL     OW67065   6.727   8.988   4.616 -0.0868  0.8607 -0.0181
20870SOL    HW167066   6.661   9.057   4.613 -0.9590  0.0297 -0.6195
20870SOL    HW267067   6.798   9.024   4.670  0.3530  2.9667 -1.8623
20871SOL     OW67068   4.319   8.865   7.682 -0.3822 -0.0814 -0.4980
20871SOL    HW167069   4.257   8.937   7.668 -1.6375 -0.6037  1.8858
20871SOL    HW267070   4.268   8.798   7.727  1.1660 -1.8475 -1.2404
20872SOL     OW67071   1.555   4.803   0.101  0.2350 -0.3914  0.3682
20872SOL    HW167072   1.633   4.762   0.140  0.4635 -0.1377  0.1865
20872SOL    HW267073   1.579   4.815   0.009  0.1256  0.0414  0.3967
20873SOL     OW67074   4.554   7.643   0.693 -0.1053  0.3701  0.4804
20873SOL    HW167075   4.631   7.691   0.724 -1.5081  2.8820  0.3224
20873SOL    HW267076   4.493   7.646   0.767 -0.5074 -0.6117  0.2045
20874SOL     OW67077  10.584   2.879   8.463 -0.3133 -0.3874  0.4089
20874SOL    HW167078  10.573   2.974   8.452  0.7220 -0.4309 -1.3350
20874SOL    HW267079  10.650   2.870   8.531 -1.6367  0.0779  1.8157
20875SOL     OW67080  10.798   8.623   0.178 -0.5148  0.2208  0.3245
20875SOL    HW167081  10.711   8.605   0.142 -0.2073 -1.1310  0.2092
20875SOL    HW267082  10.838   8.537   0.188  0.3593  0.7417  1.5409
20876SOL     OW67083   3.085   7.617  10.205 -0.2392 -0.5633  0.4041
20876SOL    HW167084   3.100   7.531  10.165 -0.3227 -0.1222 -0.6149
20876SOL    HW267085   3.169   7.661  10.200 -0.0540 -0.7681  1.4291
20877SOL     OW67086   1.388   8.617   2.667 -0.8995 -0.8671  0.3926
20877SOL    HW167087   1.456   8.677   2.699 -1.6783  0.2492 -0.0024
20877SOL    HW267088   1.437   8.547   2.623  0.0079 -0.3615  0.5670
20878SOL     OW67089   5.248   9.098   0.931 -0.1533  0.4467  0.0256
20878SOL    HW167090   5.196   9.176   0.949 -1.0541 -0.1900  0.2022
20878SOL    HW267091   5.321   9.102   0.993 -0.5277  0.8248  0.4395
20879SOL     OW67092   2.718  10.208   3.019  0.4780 -0.1692 -0.0703
20879SOL    HW167093   2.688  10.123   3.050 -0.1399  0.5732  1.5064
20879SOL    HW267094   2.688  10.213   2.928  2.4948 -2.5128 -0.9765
20880SOL     OW67095   8.828   8.598   6.647 -0.3633 -0.0218  0.4297
20880SOL    HW167096   8.758   8.653   6.612  2.2322  1.7704 -2.4790
20880SOL    HW267097   8.797   8.508   6.631 -1.6051  0.7040 -1.8227
20881SOL     OW67098  10.521   0.589   0.077 -0.1874  0.2386  0.1701
20881SOL    HW167099  10.438   0.605   0.122 -0.0354  1.1946  0.1297
20881SOL    HW267100  10.587   0.600   0.145  0.0161  1.2675 -0.1916
20882SOL     OW67101   0.207   6.306   3.076 -0.1204 -0.1098  0.0504
20882SOL    HW167102   0.194   6.267   3.162  1.9936  1.4068  1.1494
20882SOL    HW267103   0.135   6.369   3.066  0.9282  1.4435  1.8214
20883SOL     OW67104   7.097   9.523   5.251 -0.2234  0.2887 -0.1197
20883SOL    HW167105   7.151   9.576   5.311 -1.8064  0.4218  1.2813
20883SOL    HW267106   7.016   9.509   5.300 -0.8949 -1.1231 -1.5823
20884SOL     OW67107   4.749   1.272   9.986  0.6465 -0.0512 -0.2068
20884SOL    HW167108   4.839   1.293  10.012 -0.1126  1.9985  0.9344
20884SOL    HW267109   4.755   1.256   9.892  2.1031  0.7443 -0.2800
20885SOL     OW67110   7.851   5.071   2.713 -0.1327  0.6603  0.5846
20885SOL    HW167111   7.800   5.144   2.747 -2.3458 -0.2986 -0.4787
20885SOL    HW267112   7.805   4.993   2.743  0.5481 -0.2505 -0.6536
20886SOL     OW67113   0.961   2.826   0.002  0.1560 -0.3290 -0.5718
20886SOL    HW167114   1.034   2.802  -0.056  1.4067  0.6405  0.5229
20886SOL    HW267115   0.899   2.754  -0.006  1.5299 -1.5194 -1.0657
20887SOL     OW67116   7.141   7.273   1.035  0.4508 -0.0657 -0.3409
20887SOL    HW167117   7.103   7.358   1.012 -0.2109 -0.5198 -0.9297
20887SOL    HW267118   7.220   7.296   1.085  0.2643  0.8950 -0.4615
20888SOL     OW67119   9.408   8.217   5.145 -0.4012 -0.4257 -0.2303
20888SOL    HW167120   9.451   8.195   5.228 -1.6086  0.3656  0.6576
20888SOL    HW267121   9.320   8.245   5.172 -1.2964 -1.4713 -1.9081
20889SOL     OW67122   8.295   5.288   1.158 -0.2660  0.2108  0.0334
20889SOL    HW167123   8.322   5.203   1.193 -1.7812  0.3101  1.5544
20889SOL    HW267124   8.331   5.289   1.069  0.8584 -1.4750  0.4147
20890SOL     OW67125  10.187   1.074   2.879 -0.3488 -0.2256  0.2010
20890SOL    HW167126  10.156   1.148   2.827  0.7304  0.2628  0.2370
20890SOL    HW267127  10.217   1.010   2.815 -0.4530 -0.2702  0.1951
20891SOL     OW67128   1.747  10.433   4.831 -0.5901 -0.1606  0.3727
20891SOL    HW167129   1.807  10.487   4.779  0.7783 -1.7075  0.2510
20891SOL    HW267130   1.750  10.470   4.919  0.3797 -0.0559  0.3071
20892SOL     OW67131   3.315   4.116  10.362 -0.0501 -0.0865  0.6010
20892SOL    HW167132   3.370   4.050  10.404 -0.4198 -0.7878 -0.0021
20892SOL    HW267133   3.346   4.121  10.272  1.4174  2.1425  1.1412
20893SOL     OW67134   4.032   0.811   8.058  0.0093  0.0411  0.1687
20893SOL    HW167135   4.104   0.859   8.018 -0.0308  0.5731  0.7170
20893SOL    HW267136   3.954   0.840   8.011 -0.0126  0.5136  0.4896
20894SOL     OW67137   8.977   3.517   3.479  0.1287 -0.1141 -0.7779
20894SOL    HW167138   8.891   3.511   3.521  0.2512 -0.2499 -0.5450
20894SOL    HW267139   9.038   3.534   3.551  0.2736  0.1712 -0.9655
20895SOL     OW67140   7.258   9.518   0.330 -0.1387  0.2923 -0.0366
20895SOL    HW167141   7.347   9.546   0.354  0.2453 -0.2065 -0.8378
20895SOL    HW267142   7.218   9.495   0.414  1.0724 -1.1040  0.2156
20896SOL     OW67143   4.249   8.455   1.790 -0.3369 -0.0161  0.0439
20896SOL    HW167144   4.327   8.399   1.797  0.6265  1.3631  0.7673
20896SOL    HW267145   4.211   8.455   1.877 -1.1819 -0.7071 -0.3163
20897SOL     OW67146  10.043   3.776   3.063  0.3332 -0.0211  0.1410
20897SOL    HW167147  10.040   3.685   3.034  0.1532 -0.3143  1.0393
20897SOL    HW267148  10.012   3.827   2.988 -2.0663 -0.9065  0.4717
20898SOL     OW67149   8.144   3.706   8.821 -0.4460  0.3971  0.0439
20898SOL    HW167150   8.103   3.621   8.806 -0.9027  0.6078  0.0948
20898SOL    HW267151   8.091   3.768   8.771  0.3415  0.5517 -0.6259
20899SOL     OW67152   9.767   4.333   9.710  0.0521 -0.2104  0.1485
20899SOL    HW167153   9.805   4.363   9.627  0.4319 -0.1826  0.3301
20899SOL    HW267154   9.702   4.268   9.684  1.3413 -1.4509 -0.0996
20900SOL     OW67155  11.007   7.565   1.398 -0.5025 -0.1512  0.0251
20900SOL    HW167156  11.044   7.509   1.467 -1.3252 -2.2159 -1.1022
20900SOL    HW267157  10.974   7.503   1.334 -2.1223  1.6835 -0.9878
20901SOL     OW67158   3.624   0.578   3.970  0.1066  0.6752  0.2233
20901SOL    HW167159   3.580   0.654   4.007 -0.3846 -0.3038  1.7596
20901SOL    HW267160   3.691   0.555   4.035  1.7818  1.1267 -1.2783
20902SOL     OW67161   2.888   7.997   6.308 -0.1564  0.2513  0.0620
20902SOL    HW167162   2.813   8.004   6.367 -1.4518 -0.5270 -1.4070
20902SOL    HW267163   2.858   8.039   6.227  1.3482  0.7658 -0.2516
20903SOL     OW67164   6.900   4.989   9.341  0.0928 -0.0614 -0.1930
20903SOL    HW167165   6.968   5.015   9.403  0.0749  0.3450 -0.3408
20903SOL    HW267166   6.843   5.065   9.334 -0.4802 -0.4586  0.0587
20904SOL     OW67167   3.376   3.814   2.121  0.3883 -0.1294 -0.1895
20904SOL    HW167168   3.299   3.785   2.171  2.1577 -0.9382  2.2197
20904SOL    HW267169   3.375   3.909   2.131 -0.7206 -0.0380 -0.9071
20905SOL     OW67170   2.707   4.418   7.104 -0.1521  0.2077 -0.6035
20905SOL    HW167171   2.711   4.354   7.033 -0.0949 -1.1046  0.5428
20905SOL    HW267172   2.711   4.365   7.184  2.4415  1.8008  0.4224
20906SOL     OW67173   5.963   8.808  10.220  0.5814 -0.1631 -0.2955
20906SOL    HW167174   5.892   8.797  10.283  0.6430  0.3642 -0.1206
20906SOL    HW267175   5.924   8.789  10.135 -0.0057  0.9419 -0.2943
20907SOL     OW67176   6.331   7.578   0.602 -0.2484  0.2471  0.1449
20907SOL    HW167177   6.254   7.594   0.547 -0.4610 -1.2695 -0.0426
20907SOL    HW267178   6.307   7.615   0.687 -1.0974  0.0236  0.0182
20908SOL     OW67179   2.474   7.332   3.674 -0.5004  0.2909  0.0889
20908SOL    HW167180   2.549   7.348   3.731 -1.1805  0.7161  0.8866
20908SOL    HW267181   2.412   7.283   3.729 -1.0092  0.3784 -0.3951
20909SOL     OW67182   7.511   6.904   3.409 -0.0248  0.2405  1.1397
20909SOL    HW167183   7.580   6.971   3.414 -1.2515  1.6489  0.0743
20909SOL    HW267184   7.431   6.954   3.397 -0.8227 -1.4720 -1.1616
20910SOL     OW67185  10.576   5.416   5.149 -0.0211 -0.3585 -0.4763
20910SOL    HW167186  10.480   5.415   5.145 -0.0711  2.0121 -0.8991
20910SOL    HW267187  10.604   5.375   5.067 -0.6735 -0.4006 -0.6801
20911SOL     OW67188   6.634   8.868   8.801 -0.6199 -0.3419  0.4160
20911SOL    HW167189   6.586   8.790   8.773  0.4855 -1.1997  0.8410
20911SOL    HW267190   6.649   8.917   8.721 -0.2737 -1.1847 -0.0522
20912SOL     OW67191   5.175   0.546   2.236 -0.7186 -0.2914 -0.5931
20912SOL    HW167192   5.250   0.605   2.242 -0.0821 -0.7450 -3.0202
20912SOL    HW267193   5.180   0.510   2.147 -3.1050 -1.2874 -0.3983
20913SOL     OW67194   8.316   3.985   3.411 -0.0625  0.3781 -0.1864
20913SOL    HW167195   8.253   3.918   3.437 -1.8336  2.0522  0.0951
20913SOL    HW267196   8.386   3.980   3.476 -0.8232 -0.3077  0.5933
20914SOL     OW67197   7.824  10.019   8.746 -0.4406 -0.3432  0.1225
20914SOL    HW167198   7.906   9.990   8.785  1.4691  1.9017 -1.9632
20914SOL    HW267199   7.791  10.086   8.806 -0.9789 -1.4421  1.1048
20915SOL     OW67200   1.915   6.065   9.771  0.6548 -0.4713 -0.4985
20915SOL    HW167201   1.899   6.160   9.767 -0.1324 -0.5916 -0.5350
20915SOL    HW267202   1.856   6.029   9.705  1.5436 -0.9273 -1.0517
20916SOL     OW67203   7.109   5.455   0.527  0.2947  0.9020 -0.0382
20916SOL    HW167204   7.139   5.540   0.558  0.5286  0.5154  0.8171
20916SOL    HW267205   7.112   5.398   0.604 -0.8149  0.3632 -0.3640
20917SOL     OW67206   9.672   6.121   8.772  0.1516 -0.5550  0.4296
20917SOL    HW167207   9.614   6.191   8.803 -0.7699 -1.2037  0.2287
20917SOL    HW267208   9.658   6.050   8.833 -0.5130 -1.3002 -0.5561
20918SOL     OW67209   8.953   2.360   6.217  0.0404  0.6055 -0.0933
20918SOL    HW167210   8.996   2.444   6.233  1.1337  0.2101 -0.8689
20918SOL    HW267211   8.972   2.308   6.295  0.5365  0.6152 -0.2039
20919SOL     OW67212   3.226   9.601   0.318 -0.4678  0.0313  0.7402
20919SOL    HW167213   3.210   9.527   0.260 -0.0784 -0.0376  0.7189
20919SOL    HW267214   3.202   9.678   0.266 -0.5468 -0.0577  0.6448
20920SOL     OW67215   7.176   0.164   5.022 -0.5746  0.0903 -0.4035
20920SOL    HW167216   7.093   0.115   5.022 -1.1686  1.0529 -1.6046
20920SOL    HW267217   7.227   0.124   4.952  0.3894 -1.0841  0.8923
20921SOL     OW67218   7.260  10.593   8.486  0.3300 -0.1235  0.1458
20921SOL    HW167219   7.346  10.591   8.445  0.6852  0.2280  0.8571
20921SOL    HW267220   7.225  10.680   8.464 -0.7050 -0.9688 -1.8281
20922SOL     OW67221  10.583   5.023  10.780 -0.2157  0.2887  0.4817
20922SOL    HW167222  10.562   5.116  10.770  0.7209  0.5132  0.5531
20922SOL    HW267223  10.670   5.014  10.740  0.3989 -0.2413  1.8762
20923SOL     OW67224   2.838   2.202   5.914 -0.8753  0.3067 -0.4116
20923SOL    HW167225   2.775   2.195   5.986  0.3451  0.8503  0.7698
20923SOL    HW267226   2.888   2.120   5.919  0.5901  1.2105  0.7797
20924SOL     OW67227   2.921   9.443   2.673  0.0672  0.3023  0.4111
20924SOL    HW167228   2.855   9.512   2.675  0.7775  1.0270 -0.2243
20924SOL    HW267229   2.927   9.418   2.581 -0.2664 -0.7086  0.6488
20925SOL     OW67230   5.335   7.486   6.129  0.0730 -0.7005 -0.6255
20925SOL    HW167231   5.281   7.407   6.130 -2.1105  0.6847 -0.9270
20925SOL    HW267232   5.297   7.540   6.060  0.0504  1.5009  0.9845
20926SOL     OW67233   1.553   2.560  10.548  0.2461  0.1605 -0.4577
20926SOL    HW167234   1.532   2.615  10.624  1.0434  0.0812 -0.1675
20926SOL    HW267235   1.482   2.575  10.487  0.0510  0.9145 -0.0573
20927SOL     OW67236   6.671   8.116   9.615  0.1314 -0.1126  0.2116
20927SOL    HW167237   6.761   8.092   9.597  0.7356  0.8406  1.7908
20927SOL    HW267238   6.649   8.179   9.546  1.6833  1.8700  1.4305
20928SOL     OW67239   9.164   1.316   7.128 -0.9514  0.3919  0.0900
20928SOL    HW167240   9.113   1.318   7.209  0.2643  0.2551  0.8884
20928SOL    HW267241   9.214   1.398   7.129 -0.4118  0.0731 -0.1742
20929SOL     OW67242   7.294   3.282  10.283  0.5906  0.4189 -0.4823
20929SOL    HW167243   7.223   3.305  10.342 -0.0471 -0.3529 -0.9317
20929SOL    HW267244   7.252   3.235  10.211  1.4534  0.6297 -1.1508
20930SOL     OW67245   7.333   2.216  10.267  0.5894  0.0129  0.5360
20930SOL    HW167246   7.403   2.225  10.201 -0.3012  1.7995 -0.2277
20930SOL    HW267247   7.297   2.304  10.275 -0.7173 -0.6204  1.8910
20931SOL     OW67248   3.095   9.484   2.983 -0.3487 -0.0131  0.6875
20931SOL    HW167249   3.079   9.421   2.913  0.0359 -1.0553  1.5152
20931SOL    HW267250   3.047   9.562   2.956 -1.2542 -0.8203 -0.1087
20932SOL     OW67251  10.938   0.759   8.435  0.7862  0.2579  0.6662
20932SOL    HW167252  10.984   0.677   8.418 -0.3643 -0.4917  0.9995
20932SOL    HW267253  10.863   0.733   8.490 -0.6146  1.2462 -0.6766
20933SOL     OW67254   1.120   7.787   7.991 -0.4927  0.3251 -0.0645
20933SOL    HW167255   1.154   7.876   7.999  1.2387 -0.2483 -0.4915
20933SOL    HW267256   1.152   7.757   7.906 -3.4777  0.2328 -1.2661
20934SOL     OW67257   7.285   0.858   4.047 -0.3952  0.3819  0.5156
20934SOL    HW167258   7.364   0.818   4.084 -0.7086 -2.0095 -1.1626
20934SOL    HW267259   7.233   0.885   4.123  0.2990 -1.5784  1.7521
20935SOL     OW67260   6.122   6.347   9.910  0.2183 -0.2511  0.1033
20935SOL    HW167261   6.213   6.374   9.908  0.2390 -0.2221  0.9375
20935SOL    HW267262   6.112   6.288   9.835  1.1518 -0.9710  0.5264
20936SOL     OW67263   6.135   8.885   6.375  0.0581  1.0865  0.3004
20936SOL    HW167264   6.189   8.963   6.362 -2.0300  2.5173 -0.4874
20936SOL    HW267265   6.147   8.834   6.295  0.1333  1.4578  0.0730
20937SOL     OW67266   7.474   0.171   6.091  0.0334  0.0594  0.2624
20937SOL    HW167267   7.517   0.255   6.076 -0.2961  0.3707  1.0246
20937SOL    HW267268   7.474   0.129   6.005 -0.9376  1.3774 -0.4093
20938SOL     OW67269   6.694   0.890   4.638  0.5844 -0.1661  0.4493
20938SOL    HW167270   6.690   0.948   4.713 -0.8300 -0.5042  0.6550
20938SOL    HW267271   6.670   0.945   4.563  0.0397 -0.2831  0.5328
20939SOL     OW67272   7.267   0.396   5.277  0.6122 -0.4015 -0.6401
20939SOL    HW167273   7.322   0.318   5.268  0.1173 -0.7473 -0.7054
20939SOL    HW267274   7.324   0.460   5.320  0.9850 -0.8364 -0.4736
20940SOL     OW67275  10.368   2.082  10.827  0.3537  0.1721  0.3255
20940SOL    HW167276  10.359   2.033  10.909 -1.1866 -0.7041 -0.3150
20940SOL    HW267277  10.453   2.056  10.792  0.5248 -0.3335  1.0914
20941SOL     OW67278   1.813   8.091   4.466 -0.3040 -0.6939  0.7490
20941SOL    HW167279   1.861   8.021   4.423  0.1434 -0.4196  0.7934
20941SOL    HW267280   1.736   8.048   4.504 -1.0368 -0.8450 -0.8239
20942SOL     OW67281   4.629   0.194   4.999  0.2676  0.1889 -0.5748
20942SOL    HW167282   4.593   0.204   5.087 -0.8473  0.1196 -1.0033
20942SOL    HW267283   4.709   0.144   5.012 -0.8242 -1.4597  0.2290
20943SOL     OW67284   1.357   7.348   3.552  0.3784  0.2832 -0.3397
20943SOL    HW167285   1.342   7.255   3.568 -1.5252  0.6408  0.2134
20943SOL    HW267286   1.352   7.358   3.457 -2.1214  0.1794 -0.2790
20944SOL     OW67287  10.191   4.148   4.449  0.0302 -0.4280 -0.2962
20944SOL    HW167288  10.098   4.170   4.460 -0.0701 -0.5075 -0.9753
20944SOL    HW267289  10.237   4.220   4.492 -0.3513 -1.0291  1.2055
20945SOL     OW67290   1.508   8.733   3.064 -0.0113 -0.0251 -0.4517
20945SOL    HW167291   1.573   8.683   3.114  0.9182  0.4902 -1.1028
20945SOL    HW267292   1.490   8.809   3.118 -1.6278 -1.1401  0.6649
20946SOL     OW67293   2.354   8.791   9.536  0.3136 -0.0640 -0.1349
20946SOL    HW167294   2.387   8.784   9.626  2.1408  1.0942 -0.6649
20946SOL    HW267295   2.262   8.765   9.543  0.4921 -0.3391  2.0056
20947SOL     OW67296   5.921   0.138   4.585  1.0829 -0.4502 -0.1230
20947SOL    HW167297   5.847   0.142   4.525  0.5044 -2.3582  0.4159
20947SOL    HW267298   5.949   0.229   4.594 -0.4183  0.1645 -1.2773
20948SOL     OW67299   6.440   0.204  10.959  0.3610  0.0059  0.0994
20948SOL    HW167300   6.374   0.229  10.894 -0.6519  0.2249  1.1889
20948SOL    HW267301   6.412   0.246  11.040  2.2553  0.7178  0.4401
20949SOL     OW67302   5.145   8.599   0.906 -0.3067 -0.1091  0.5321
20949SOL    HW167303   5.170   8.522   0.956  0.9020  1.7147  2.9216
20949SOL    HW267304   5.223   8.654   0.905 -1.4247  1.5630 -0.1379
20950SOL     OW67305   7.333   8.273   8.791 -0.2076  0.3930 -0.1827
20950SOL    HW167306   7.383   8.199   8.757  0.3837  1.5315 -1.9272
20950SOL    HW267307   7.385   8.350   8.768 -0.5482  1.3764  2.0144
20951SOL     OW67308   5.703   2.572   3.426 -0.7683  0.2224 -0.0651
20951SOL    HW167309   5.674   2.657   3.393 -0.9214 -0.2066 -1.0834
20951SOL    HW267310   5.779   2.550   3.374 -0.5679 -0.1502  0.3725
20952SOL     OW67311   8.950   6.992  10.165  0.3673 -0.0655  0.2241
20952SOL    HW167312   9.021   7.017  10.224 -0.5076  0.6667  1.0262
20952SOL    HW267313   8.992   6.947  10.092  1.6425  0.4221  0.6418
20953SOL     OW67314   4.308   6.639   9.715  0.0556 -0.0993  0.3542
20953SOL    HW167315   4.359   6.714   9.746  1.3863 -1.1359  0.8090
20953SOL    HW267316   4.372   6.584   9.669 -0.2988 -2.0830  2.0577
20954SOL     OW67317   5.541   8.356   8.736 -0.4466 -0.1949  0.0401
20954SOL    HW167318   5.525   8.450   8.745  1.6130  0.0708  2.0317
20954SOL    HW267319   5.528   8.338   8.643 -0.1122  2.2323 -0.5490
20955SOL     OW67320   1.267   0.945   2.083  0.0747  0.4372 -0.6103
20955SOL    HW167321   1.236   0.911   2.167 -1.5576  1.2081 -0.8600
20955SOL    HW267322   1.204   0.912   2.019  2.0939 -1.3738 -1.8233
20956SOL     OW67323   7.487  10.286   8.232  0.4460  0.0030 -0.6449
20956SOL    HW167324   7.564  10.235   8.259 -0.5930 -2.0300 -1.3651
20956SOL    HW267325   7.453  10.322   8.314 -0.7207 -3.2937  0.4605
20957SOL     OW67326   5.526   9.291   1.423  0.0233 -0.0308  0.0888
20957SOL    HW167327   5.496   9.200   1.417 -0.1084  0.0495 -0.5240
20957SOL    HW267328   5.515   9.313   1.515 -0.2468 -0.5347  0.1845
20958SOL     OW67329   6.376  10.708   9.466  0.3351 -0.0945  0.2043
20958SOL    HW167330   6.388  10.794   9.506  2.0747 -0.0519 -0.3240
20958SOL    HW267331   6.462  10.666   9.473 -0.3292 -1.5765 -0.0586
20959SOL     OW67332   8.397   2.252   6.426 -0.1611  0.0936  0.1137
20959SOL    HW167333   8.353   2.171   6.400 -1.3301  0.6896  0.1773
20959SOL    HW267334   8.353   2.279   6.506 -1.1276  1.7919 -0.9298
20960SOL     OW67335   7.715   4.323   1.544  0.2597  0.6177  0.4339
20960SOL    HW167336   7.664   4.351   1.620  0.0077  0.6469  0.2556
20960SOL    HW267337   7.673   4.367   1.470  0.2671  0.2892  0.2320
20961SOL     OW67338   9.480   7.138   8.055  0.0102 -0.3697  0.5779
20961SOL    HW167339   9.528   7.201   8.001 -0.4745  0.5617  1.2105
20961SOL    HW267340   9.410   7.106   7.998 -0.2642  0.3137  0.5245
20962SOL     OW67341   4.301   8.690  10.471 -0.3361 -0.0054 -0.3720
20962SOL    HW167342   4.297   8.596  10.483  0.4819  0.0473  0.4331
20962SOL    HW267343   4.337   8.701  10.383 -0.1881 -0.4516 -0.3702
20963SOL     OW67344   9.895   5.478   0.900  0.7913  0.0629  0.4741
20963SOL    HW167345   9.808   5.448   0.877  0.5104 -0.3092  1.8906
20963SOL    HW267346   9.882   5.532   0.978  1.6597  1.2765 -0.1772
20964SOL     OW67347   5.780   2.943   7.145  0.2932 -0.0748 -0.7190
20964SOL    HW167348   5.869   2.963   7.175 -0.5131  1.4649  0.8441
20964SOL    HW267349   5.729   2.935   7.225 -0.7991 -2.0251 -1.5554
20965SOL     OW67350   6.471   2.160   4.813  0.1792  0.1131  0.4685
20965SOL    HW167351   6.379   2.134   4.818  0.4394 -0.9941 -0.2258
20965SOL    HW267352   6.517   2.100   4.871  0.8432 -1.3308 -1.4595
20966SOL     OW67353   4.072   0.666   2.287  0.1074  0.4265  0.1137
20966SOL    HW167354   4.029   0.591   2.328 -0.3739  0.1895 -0.7840
20966SOL    HW267355   4.162   0.637   2.273  0.2051  0.4162  0.7576
20967SOL     OW67356   8.979   0.360   2.487 -0.3509  0.0248 -0.3362
20967SOL    HW167357   8.961   0.325   2.574  0.2520  1.7495  0.5411
20967SOL    HW267358   8.910   0.323   2.431  0.6537 -3.0267  0.2874
20968SOL     OW67359  10.385   3.104   6.127  0.4273 -0.0760 -0.3741
20968SOL    HW167360  10.342   3.039   6.182 -0.6538 -1.3124 -2.5432
20968SOL    HW267361  10.324   3.178   6.125  0.3651 -0.1205 -0.0783
20969SOL     OW67362   1.749   8.411   6.485  0.0059 -0.0373 -0.3067
20969SOL    HW167363   1.833   8.452   6.506 -0.6377  0.8213  0.7227
20969SOL    HW267364   1.687   8.453   6.544 -1.1248 -0.7806 -0.9300
20970SOL     OW67365   3.048   4.102   3.832  0.5299 -0.2488  0.1926
20970SOL    HW167366   3.007   4.156   3.900  3.5494  0.6871  1.4474
20970SOL    HW267367   3.049   4.159   3.755  1.3016  0.5306  0.7529
20971SOL     OW67368   5.660   2.192   6.800 -0.3610  0.8531  0.1725
20971SOL    HW167369   5.636   2.268   6.853 -0.1660  0.5871  0.6439
20971SOL    HW267370   5.735   2.153   6.845 -0.5648  0.2826  0.0261
20972SOL     OW67371  10.079   3.000  10.185 -0.6494 -0.5300  0.1967
20972SOL    HW167372   9.998   2.951  10.174 -0.4312 -0.5453 -1.8835
20972SOL    HW267373  10.063   3.083  10.140  0.4490 -0.5348 -0.2437
20973SOL     OW67374   4.371   8.423   5.684 -0.1627  0.4323 -0.0294
20973SOL    HW167375   4.436   8.352   5.675  1.6223  1.7977  1.3511
20973SOL    HW267376   4.314   8.413   5.608  0.6715 -1.8353 -0.4280
20974SOL     OW67377   5.708   2.422   1.706  0.6753 -0.5143  0.4174
20974SOL    HW167378   5.676   2.451   1.792 -1.5030 -1.3879 -0.0421
20974SOL    HW267379   5.768   2.350   1.726 -0.3047 -1.1438  1.2081
20975SOL     OW67380   0.785   0.734   2.707  0.6967  0.2050  0.3338
20975SOL    HW167381   0.860   0.767   2.755 -1.1053  1.2247  2.6411
20975SOL    HW267382   0.728   0.810   2.695  0.4031 -0.3173 -2.2648
20976SOL     OW67383   9.530   6.155   3.740  0.1157 -0.1584  0.1037
20976SOL    HW167384   9.587   6.127   3.811  0.0003  0.8628  0.6067
20976SOL    HW267385   9.590   6.192   3.674  0.1050  0.1821  0.2838
20977SOL     OW67386   3.053   5.704   5.757 -0.6589 -0.1345  0.1059
20977SOL    HW167387   3.071   5.644   5.829 -0.3741 -0.2069 -0.0268
20977SOL    HW267388   3.135   5.750   5.743 -0.3482 -0.9802 -0.9810
20978SOL     OW67389   9.144  10.745   0.808  0.6552 -0.1973  0.0763
20978SOL    HW167390   9.232  10.711   0.821  0.4872 -0.3406  0.9356
20978SOL    HW267391   9.155  10.823   0.754  1.4702  0.6188  1.3740
20979SOL     OW67392   2.111   5.753   7.836 -0.4221 -0.2444  0.1797
20979SOL    HW167393   2.036   5.734   7.780 -0.7428  0.3142  0.4140
20979SOL    HW267394   2.165   5.673   7.832  0.2032  0.2219 -1.8957
20980SOL     OW67395  10.219   3.359  10.416 -0.3794  0.6884 -0.1186
20980SOL    HW167396  10.263   3.402  10.344 -1.1676  0.1652 -0.9391
20980SOL    HW267397  10.289   3.318  10.467  0.2008  1.2658 -0.4443
20981SOL     OW67398   2.497   5.328   8.575  0.2563 -0.2845  0.1874
20981SOL    HW167399   2.480   5.239   8.544  0.2878 -0.2679  0.1212
20981SOL    HW267400   2.464   5.384   8.506  0.1239 -0.2412  0.2855
20982SOL     OW67401   7.977   7.925   0.131 -0.3408 -0.0546  0.2525
20982SOL    HW167402   8.047   7.871   0.095  0.5005  1.0852  0.1347
20982SOL    HW267403   7.922   7.947   0.055 -0.5790 -0.5561  0.2705
20983SOL     OW67404   3.286   2.406   0.433  0.2024 -0.4136 -0.2036
20983SOL    HW167405   3.309   2.320   0.397 -1.7880 -0.2050 -2.1925
20983SOL    HW267406   3.357   2.464   0.405  0.0254 -0.8190 -1.5487
20984SOL     OW67407   0.931   4.206   3.756 -0.0211 -0.4912 -0.0868
20984SOL    HW167408   0.873   4.230   3.683  1.8334  0.3102 -1.3588
20984SOL    HW267409   0.962   4.118   3.733  0.2972 -0.3767 -0.0948
20985SOL     OW67410   5.486   9.326   3.798 -0.2371  0.1728 -0.4403
20985SOL    HW167411   5.567   9.366   3.769 -0.8003  2.3297  0.7131
20985SOL    HW267412   5.513   9.262   3.864  0.5399  0.7164 -0.2215
20986SOL     OW67413   1.397   1.601   3.599 -0.2810 -0.4592 -0.1448
20986SOL    HW167414   1.328   1.544   3.565 -0.1447 -1.7392  1.5569
20986SOL    HW267415   1.398   1.583   3.693 -1.2417  3.4616  0.7986
20987SOL     OW67416   4.920   6.559   7.604 -0.2784  0.1514 -0.0953
20987SOL    HW167417   4.976   6.614   7.660 -1.7776  1.9003 -0.2003
20987SOL    HW267418   4.918   6.474   7.648  0.0499  0.9410  1.5273
20988SOL     OW67419   2.617  10.518   0.646 -0.5933 -0.6941 -0.1227
20988SOL    HW167420   2.669  10.527   0.726 -0.9799 -0.0734  0.0604
20988SOL    HW267421   2.531  10.553   0.669  0.0368  2.0646 -1.5776
20989SOL     OW67422   6.418   1.895   1.546  0.2439  0.2052 -0.1665
20989SOL    HW167423   6.418   1.842   1.466 -0.9647  0.1030 -0.1200
20989SOL    HW267424   6.509   1.897   1.574  0.4036 -1.3566 -0.5051
20990SOL     OW67425   1.430   4.708   4.984 -0.5785 -0.1000 -0.6880
20990SOL    HW167426   1.389   4.725   5.069  0.0349  0.4728 -0.4979
20990SOL    HW267427   1.409   4.616   4.965 -2.0908  0.2091 -0.6903
20991SOL     OW67428  10.479   6.828   3.594 -0.4422 -0.5051  0.1045
20991SOL    HW167429  10.538   6.762   3.632 -0.2375  0.8306  2.2915
20991SOL    HW267430  10.412   6.777   3.549  1.5280 -2.1111 -1.1910
20992SOL     OW67431   0.435   9.302   9.806 -0.0227 -0.5004 -0.0795
20992SOL    HW167432   0.401   9.272   9.890  0.7391 -3.2513 -0.6619
20992SOL    HW267433   0.361   9.345   9.764 -0.0090  2.3769  2.5353
20993SOL     OW67434   3.302   7.926   4.345 -0.3050 -0.2184 -0.2842
20993SOL    HW167435   3.306   7.883   4.430  1.2655 -0.2535 -0.3366
20993SOL    HW267436   3.232   7.881   4.298 -0.4754 -0.9088  0.6139
20994SOL     OW67437   3.218   3.278   2.496 -0.3572  1.0845 -0.2668
20994SOL    HW167438   3.194   3.321   2.413 -2.2026 -0.2702 -0.4870
20994SOL    HW267439   3.253   3.193   2.469  1.3723  1.6036  0.2588
20995SOL     OW67440   9.382   1.117   8.950 -0.0684  0.1316  0.1909
20995SOL    HW167441   9.439   1.123   9.027  0.1004 -1.5560  0.2179
20995SOL    HW267442   9.438   1.146   8.878  0.4801 -0.4427  0.3767
20996SOL     OW67443   0.879   6.066   8.715 -0.0014 -0.2460 -0.1926
20996SOL    HW167444   0.889   6.160   8.734 -0.4620  0.2661 -2.2146
20996SOL    HW267445   0.870   6.025   8.801 -0.2386  1.6108  0.7239
20997SOL     OW67446   8.947   6.171   6.480 -0.0296  0.3350 -0.0424
20997SOL    HW167447   8.882   6.238   6.503 -1.5981 -0.8274 -0.8853
20997SOL    HW267448   8.978   6.196   6.393 -0.6984 -0.0791 -0.4046
20998SOL     OW67449   3.093   8.981   3.296  0.5959  0.4093 -0.2567
20998SOL    HW167450   3.045   9.011   3.219  0.8682  0.0686 -0.5583
20998SOL    HW267451   3.025   8.967   3.362  0.3759  0.8357 -0.3873
20999SOL     OW67452   9.163   2.488   3.023 -0.2275  0.1822 -0.3911
20999SOL    HW167453   9.108   2.527   2.955  0.1814  0.5115 -0.5439
20999SOL    HW267454   9.231   2.441   2.975  0.5415  1.0902 -0.2424
21000SOL     OW67455   2.053   7.100   1.003 -0.0719 -0.0733 -0.2403
21000SOL    HW167456   1.973   7.108   1.055  0.0455  0.9524 -0.2040
21000SOL    HW267457   2.122   7.131   1.060  0.3300 -0.7123 -0.3641
21001SOL     OW67458   9.288   6.459   9.710  0.4085  0.1444  0.5415
21001SOL    HW167459   9.265   6.366   9.712  1.3383 -0.2067 -1.8974
21001SOL    HW267460   9.377   6.461   9.675  0.1745  1.9974 -0.0279
21002SOL     OW67461   4.744   7.997   0.450 -0.7579 -0.0747 -0.9679
21002SOL    HW167462   4.768   8.090   0.451  1.5474 -0.6099  0.2566
21002SOL    HW267463   4.754   7.971   0.359 -0.3532  0.6451 -1.1400
21003SOL     OW67464   3.835   7.458   0.230  0.0256  0.0561  0.1487
21003SOL    HW167465   3.884   7.493   0.304  0.4972  0.8555 -0.5233
21003SOL    HW267466   3.765   7.407   0.270 -0.1058  0.9844  1.1608
21004SOL     OW67467   7.525   2.496   4.337 -0.0589  0.2286 -0.0374
21004SOL    HW167468   7.452   2.539   4.293  1.4351  2.5015 -0.4772
21004SOL    HW267469   7.603   2.541   4.304  1.6061 -2.3343  0.1381
21005SOL     OW67470   0.859   7.482   9.662 -0.1722  0.6676  0.1832
21005SOL    HW167471   0.903   7.563   9.636 -0.2098  0.2927 -1.1018
21005SOL    HW267472   0.767   7.496   9.642  0.0453 -0.3164 -1.8379
21006SOL     OW67473   8.221   8.903   5.932 -0.3648  0.5836 -0.6997
21006SOL    HW167474   8.265   8.829   5.974  3.3408  2.9461  0.0824
21006SOL    HW267475   8.158   8.933   5.997  1.1833  0.6283  0.8787
21007SOL     OW67476   0.064   7.717   7.242 -0.6175 -0.1070  0.0679
21007SOL    HW167477   0.018   7.658   7.301  0.3470  0.0956  1.0435
21007SOL    HW267478   0.118   7.659   7.188  0.5855 -0.1268  1.2524
21008SOL     OW67479   2.608  10.945   8.366  0.6707  0.7468  0.0116
21008SOL    HW167480   2.663  10.890   8.421  1.9090  0.1722 -1.7149
21008SOL    HW267481   2.625  11.034   8.396 -0.1510  0.3463  1.7847
21009SOL     OW67482   3.277   6.208   5.821  0.2355  0.3961 -0.4083
21009SOL    HW167483   3.358   6.246   5.786 -0.0482  0.6011 -0.8565
21009SOL    HW267484   3.264   6.128   5.771 -0.3549  0.8654 -1.0398
21010SOL     OW67485   5.662   3.350   2.254 -0.1721  0.0073  0.0987
21010SOL    HW167486   5.633   3.359   2.163  1.3857  2.0243 -0.2641
21010SOL    HW267487   5.722   3.275   2.252 -0.4706 -0.2289 -0.4382
21011SOL     OW67488   7.762   2.023  10.109 -0.1599  0.6640 -0.4335
21011SOL    HW167489   7.773   2.092  10.044 -0.0913  1.6311  0.5870
21011SOL    HW267490   7.770   2.067  10.193 -2.8080 -0.1021  0.3013
21012SOL     OW67491   8.497   1.816   6.578 -0.6201  0.1972 -0.0713
21012SOL    HW167492   8.520   1.810   6.670  1.9838  0.9816 -0.5949
21012SOL    HW267493   8.410   1.776   6.572 -0.0936 -1.5327  2.4114
21013SOL     OW67494   1.349  10.203   2.575  0.0632  0.2657 -0.1150
21013SOL    HW167495   1.381  10.255   2.649  4.4085 -3.0433  0.7068
21013SOL    HW267496   1.374  10.254   2.498  0.0621  1.4375  0.6310
21014SOL     OW67497   1.122   4.193   1.568 -0.3221  0.4258 -0.2762
21014SOL    HW167498   1.127   4.288   1.576  0.4852  0.4051 -0.4658
21014SOL    HW267499   1.193   4.170   1.509 -0.7164 -0.2681 -0.4894
21015SOL     OW67500   2.924   0.528   1.599 -0.2345 -0.1355  0.5113
21015SOL    HW167501   2.834   0.497   1.612 -0.8088  0.7711 -1.0054
21015SOL    HW267502   2.946   0.499   1.510 -0.8607  3.6715 -1.0740
21016SOL     OW67503   7.856   9.725   8.457 -0.1382 -0.0563  0.0584
21016SOL    HW167504   7.807   9.804   8.438 -0.3589 -0.4218 -0.9632
21016SOL    HW267505   7.872   9.728   8.552  0.1757  1.3736 -0.0288
21017SOL     OW67506   6.841   1.251   3.892  0.7421 -0.3640  0.0554
21017SOL    HW167507   6.776   1.232   3.960  0.3329 -0.5914 -0.3913
21017SOL    HW267508   6.908   1.184   3.904  1.0785  0.0810  0.7405
21018SOL     OW67509   3.445   0.726   0.940 -0.7280 -0.5349 -0.1826
21018SOL    HW167510   3.464   0.786   0.868  2.1167 -2.7852 -1.5115
21018SOL    HW267511   3.478   0.772   1.018 -0.0479  0.2847 -0.9252
21019SOL     OW67512   8.342   8.654   7.764  0.1317  0.2059  0.7595
21019SOL    HW167513   8.415   8.603   7.801  1.6433  1.0169 -0.9723
21019SOL    HW267514   8.305   8.596   7.697  0.7557  0.6734 -0.0152
21020SOL     OW67515   0.478   5.081   2.551  0.0816  0.6080 -0.4527
21020SOL    HW167516   0.383   5.085   2.563  0.1379  0.5059  0.0483
21020SOL    HW267517   0.491   5.015   2.484 -0.1850  0.3604 -0.2636
21021SOL     OW67518   5.460   5.135   3.838  0.1455  0.0408  0.7689
21021SOL    HW167519   5.417   5.133   3.924 -1.1691  0.7180  0.1539
21021SOL    HW267520   5.415   5.069   3.787 -0.5286  1.0825 -0.0291
21022SOL     OW67521   6.534   6.738   9.392 -0.7652 -0.0570  0.1668
21022SOL    HW167522   6.449   6.703   9.417 -1.1288 -0.7936 -1.8326
21022SOL    HW267523   6.589   6.660   9.380 -0.5120  0.2514 -0.8091
21023SOL     OW67524   9.435   3.348   2.951 -0.5440 -0.4390 -0.2077
21023SOL    HW167525   9.511   3.305   2.911  1.2423  2.4513 -0.1732
21023SOL    HW267526   9.381   3.375   2.878 -0.1777 -0.1929 -0.3922
21024SOL     OW67527   2.640   3.013   0.164  0.1470 -0.1804  0.3021
21024SOL    HW167528   2.678   2.926   0.175  1.1508  0.2377  0.2406
21024SOL    HW267529   2.574   3.020   0.233  0.5876 -0.7085  0.7802
21025SOL     OW67530   3.600   8.509   1.805 -0.0118  0.0064  0.1658
21025SOL    HW167531   3.614   8.460   1.886  0.9765  1.7211  1.0869
21025SOL    HW267532   3.680   8.559   1.793 -0.4493  0.3742 -1.4708
21026SOL     OW67533   5.550   2.553   6.179  0.2057  0.3961 -0.0028
21026SOL    HW167534   5.567   2.537   6.272  1.3043 -1.0533 -0.4186
21026SOL    HW267535   5.628   2.519   6.134 -0.4137  0.8435 -1.4716
21027SOL     OW67536   1.854   3.618   3.032 -0.1053 -0.0102 -0.1283
21027SOL    HW167537   1.787   3.641   2.968 -0.0905 -0.6917 -0.3977
21027SOL    HW267538   1.926   3.583   2.980 -0.3589 -1.2139  0.2915
21028SOL     OW67539   2.667   0.816   1.655 -0.6333 -0.9006  0.5018
21028SOL    HW167540   2.739   0.800   1.717 -0.2327  1.3121  0.7213
21028SOL    HW267541   2.710   0.818   1.570 -0.6619 -0.9170  0.4874
21029SOL     OW67542   6.161   9.957   7.011  0.7760  0.5659  0.1803
21029SOL    HW167543   6.141   9.927   7.099  0.7981  0.5668  0.1855
21029SOL    HW267544   6.251   9.987   7.015  0.7121  0.7583  0.2082
21030SOL     OW67545  10.724   7.038  10.216 -0.2405 -0.0419 -0.1199
21030SOL    HW167546  10.718   7.037  10.120 -1.1868  0.9083 -0.0882
21030SOL    HW267547  10.635   7.056  10.245  0.1879  0.4725  0.9187
21031SOL     OW67548   3.356  10.158   8.938  0.2190  0.5854 -0.1151
21031SOL    HW167549   3.450  10.176   8.939  0.5455 -0.9810  0.7189
21031SOL    HW267550   3.336  10.140   8.846  1.0406 -0.4325 -0.1128
21032SOL     OW67551   6.923   1.068   2.930  0.2266  0.3061  0.1576
21032SOL    HW167552   6.968   1.151   2.912  1.1337 -0.0985  0.4811
21032SOL    HW267553   6.916   1.065   3.026 -2.4852  1.3655  0.0803
21033SOL     OW67554   1.392   7.872   4.006  0.0512 -0.3949 -0.2287
21033SOL    HW167555   1.350   7.925   3.939 -3.4534 -2.3532  0.1893
21033SOL    HW267556   1.337   7.883   4.084  3.0712  0.5499  1.9821
21034SOL     OW67557   7.516   8.642   1.449 -0.1255  0.0664 -0.2807
21034SOL    HW167558   7.426   8.613   1.455  0.1623 -0.6442  0.8973
21034SOL    HW267559   7.555   8.618   1.533  1.1295  0.4473 -0.7270
21035SOL     OW67560   2.436   9.813   0.140 -0.1009 -0.1982 -1.1545
21035SOL    HW167561   2.449   9.722   0.113 -1.3753 -0.6776 -0.2318
21035SOL    HW267562   2.367   9.810   0.206  0.1941  1.3855 -0.7059
21036SOL     OW67563  10.610   4.471   3.335 -0.3351  0.2275  0.0746
21036SOL    HW167564  10.565   4.522   3.268  0.3691  1.0935  0.2445
21036SOL    HW267565  10.540   4.420   3.376 -0.8366  0.0025 -1.0249
21037SOL     OW67566   2.585   2.228   1.766 -0.9117  0.7149  0.4549
21037SOL    HW167567   2.551   2.139   1.766 -0.5279  0.5154 -1.2492
21037SOL    HW267568   2.557   2.264   1.681  0.4684  1.5778  0.3310
21038SOL     OW67569   0.331   6.549   4.552 -0.2700  0.1729  0.3264
21038SOL    HW167570   0.335   6.597   4.469 -0.6335 -0.0065  0.2011
21038SOL    HW267571   0.371   6.608   4.616  1.0786 -0.1458 -0.1805
21039SOL     OW67572   5.363   0.467   3.776  0.2612 -0.6424  0.6567
21039SOL    HW167573   5.413   0.431   3.848  0.0491 -1.1559  0.5537
21039SOL    HW267574   5.425   0.520   3.727  0.5622 -0.8158  0.8510
21040SOL     OW67575   6.714   6.664   1.865  0.5120 -0.0888 -0.7351
21040SOL    HW167576   6.638   6.722   1.855  0.2105 -0.3326  0.0898
21040SOL    HW267577   6.764   6.703   1.937  1.4670  0.3752 -1.6274
21041SOL     OW67578   2.452   9.780   8.228 -0.0420  0.4540 -0.0261
21041SOL    HW167579   2.431   9.726   8.305  0.0002  0.9510  0.3372
21041SOL    HW267580   2.397   9.744   8.158 -3.1843  2.5022  1.1780
21042SOL     OW67581   4.215   4.124   2.651  0.8938  0.6345  0.0038
21042SOL    HW167582   4.183   4.163   2.570 -1.8535  0.2732  0.8039
21042SOL    HW267583   4.213   4.195   2.715  1.6174  0.5682  0.1059
21043SOL     OW67584   9.486  10.906  10.968  0.3374 -0.4644 -0.2124
21043SOL    HW167585   9.417  10.863  10.917 -0.8047  0.8942  0.1378
21043SOL    HW267586   9.444  10.983  11.006  1.6429 -0.4545  1.3142
21044SOL     OW67587   1.602   5.056   6.106 -0.5507 -0.0058 -0.1955
21044SOL    HW167588   1.547   5.075   6.030 -0.5203  0.4347 -0.1145
21044SOL    HW267589   1.685   5.100   6.086  0.2014 -1.6750 -0.8642
21045SOL     OW67590   2.626   7.294  10.839  0.1270  0.3454 -0.6251
21045SOL    HW167591   2.650   7.312  10.930  0.5647 -1.8083 -0.2589
21045SOL    HW267592   2.614   7.381  10.800 -0.7515  1.3382  1.6377
21046SOL     OW67593   7.316   1.112   1.972 -0.4581 -0.1423  0.2813
21046SOL    HW167594   7.312   1.176   1.901 -0.4235  2.3645  2.3827
21046SOL    HW267595   7.229   1.113   2.011 -0.9056 -2.5464 -0.4931
21047SOL     OW67596   9.958   5.485   3.866 -0.1207 -0.0305 -0.1847
21047SOL    HW167597   9.952   5.457   3.957  1.8505  1.6103  0.5334
21047SOL    HW267598   9.887   5.548   3.855 -0.4480 -0.3392  0.1765
21048SOL     OW67599   0.903  10.280  10.446 -0.2283  0.3009  0.6593
21048SOL    HW167600   0.931  10.194  10.413  0.7282 -0.3594  2.9612
21048SOL    HW267601   0.808  10.281  10.433 -0.1909 -0.8772  0.1013
21049SOL     OW67602   2.144   0.295   2.914  0.0619  0.1702  0.5784
21049SOL    HW167603   2.085   0.221   2.926 -0.3881  0.2866 -0.7942
21049SOL    HW267604   2.173   0.317   3.003  0.2101 -1.6280  1.0174
21050SOL     OW67605   7.823   7.104   5.335 -0.8536 -0.3540 -0.7445
21050SOL    HW167606   7.788   7.117   5.423  1.0951  1.3880 -0.1470
21050SOL    HW267607   7.832   7.009   5.326 -4.1087 -0.8026 -0.3896
21051SOL     OW67608   8.753   4.764   1.014  0.1924 -0.0207  0.6796
21051SOL    HW167609   8.796   4.845   0.985 -0.7643  0.9426  1.8300
21051SOL    HW267610   8.712   4.730   0.935 -0.5456  1.3866  0.4147
21052SOL     OW67611   9.626   7.760   2.950  0.8447  0.4923 -0.1629
21052SOL    HW167612   9.712   7.720   2.945 -0.6601 -3.1330 -0.5618
21052SOL    HW267613   9.581   7.730   2.871 -1.3162  0.7300  0.8983
21053SOL     OW67614   1.768   9.445   4.576 -0.1802 -0.3455 -0.7370
21053SOL    HW167615   1.737   9.361   4.610  2.1288 -1.3373 -0.8941
21053SOL    HW267616   1.732   9.450   4.487 -2.5311  0.1542  0.1628
21054SOL     OW67617   5.760   7.947   2.413  0.2430 -0.3499 -0.6388
21054SOL    HW167618   5.854   7.955   2.395  0.5447 -1.5789  0.2692
21054SOL    HW267619   5.739   8.027   2.461  0.4409  0.7221 -2.2587
21055SOL     OW67620   6.676   9.172   6.468 -0.0659  0.3712  0.1012
21055SOL    HW167621   6.592   9.167   6.515 -1.2255  1.9861 -1.6447
21055SOL    HW267622   6.727   9.236   6.518 -1.6564  2.8223 -1.1632
21056SOL     OW67623   9.914   7.045  10.517  0.3960  0.0516  0.0159
21056SOL    HW167624   9.849   7.021  10.583 -3.1278 -0.0935 -3.1977
21056SOL    HW267625   9.920   6.969  10.460  2.8608  0.3941 -0.2798
21057SOL     OW67626   3.197   9.340   4.772  0.4761 -0.5357  0.0984
21057SOL    HW167627   3.236   9.375   4.692  0.7842 -0.6112  0.2140
21057SOL    HW267628   3.189   9.246   4.755  0.2228 -0.5004  0.0237
21058SOL     OW67629   3.098   4.512   3.937  0.3437 -0.0161  0.1550
21058SOL    HW167630   3.042   4.443   3.903 -1.4092  1.1583  0.5105
21058SOL    HW267631   3.068   4.591   3.892  1.9756  0.6060  0.0961
21059SOL     OW67632   9.793   2.137  10.489  0.2593  0.0439  0.1920
21059SOL    HW167633   9.749   2.127  10.404 -0.4462  2.6322  0.1769
21059SOL    HW267634   9.885   2.155  10.467  0.2424 -0.0662  0.0310
21060SOL     OW67635   0.606   6.392   3.076 -0.2271 -0.8398 -0.3618
21060SOL    HW167636   0.626   6.472   3.028 -2.6238 -1.0169 -1.8303
21060SOL    HW267637   0.536   6.417   3.136  0.2469 -1.4630  0.4717
21061SOL     OW67638   8.739   7.814   7.980 -0.5112  0.0871  0.7917
21061SOL    HW167639   8.740   7.747   8.048  2.0302 -1.1799 -0.3843
21061SOL    HW267640   8.781   7.890   8.021  1.7038 -0.9129  0.5119
21062SOL     OW67641   9.421   1.530   6.330 -0.1514  0.3245 -0.7211
21062SOL    HW167642   9.426   1.507   6.237 -0.1180 -2.2345 -0.1601
21062SOL    HW267643   9.329   1.516   6.353  0.2011 -0.8042  0.0232
21063SOL     OW67644   4.443  10.541   9.769 -0.4486 -0.0584  0.2781
21063SOL    HW167645   4.448  10.556   9.864 -1.3557 -0.6674  0.4334
21063SOL    HW267646   4.446  10.629   9.731 -3.2228  0.4847  1.0580
21064SOL     OW67647   0.725   5.263   7.661 -0.2962 -0.2093  0.3230
21064SOL    HW167648   0.797   5.201   7.673 -0.3728 -0.0496  1.8589
21064SOL    HW267649   0.676   5.259   7.743 -0.9691  1.0293  0.0142
21065SOL     OW67650   1.745   0.454   5.590 -0.3308 -0.0919 -0.5665
21065SOL    HW167651   1.740   0.550   5.580  0.2313 -0.1749 -1.8963
21065SOL    HW267652   1.778   0.424   5.505  3.5228 -1.1433  1.1225
21066SOL     OW67653   8.037   6.958  10.565  0.2064 -0.1024  0.0052
21066SOL    HW167654   8.021   6.867  10.592  0.9958 -0.5378 -0.9630
21066SOL    HW267655   8.018   6.959  10.472  1.6152  0.3795 -0.2917
21067SOL     OW67656   5.079   4.096   2.704  0.3968 -0.5158 -0.1304
21067SOL    HW167657   5.151   4.111   2.766 -0.6326  0.1508  0.9610
21067SOL    HW267658   5.096   4.156   2.632 -0.9863  2.5637  1.8572
21068SOL     OW67659   5.921   7.398   2.775 -0.1230  0.1456  0.7684
21068SOL    HW167660   5.852   7.399   2.842 -1.4910  0.6581 -0.6040
21068SOL    HW267661   5.921   7.487   2.740  0.6106 -0.1074  0.1232
21069SOL     OW67662   3.800   7.213   7.807 -0.3964 -0.0853  0.4749
21069SOL    HW167663   3.785   7.146   7.740 -0.5002 -0.0350  0.4472
21069SOL    HW267664   3.818   7.163   7.887 -0.6534 -0.1464  0.4948
21070SOL     OW67665   5.223  10.726   8.102 -0.0463  0.2154 -0.5190
21070SOL    HW167666   5.309  10.763   8.122 -0.4563  0.8819  0.0444
21070SOL    HW267667   5.184  10.787   8.039 -0.1789  0.0182 -0.6292
21071SOL     OW67668   6.325   0.643  10.773 -0.1970 -0.0010 -0.5499
21071SOL    HW167669   6.241   0.604  10.798 -0.5477  0.7786 -0.5105
21071SOL    HW267670   6.302   0.721  10.724  0.5106 -0.0369 -0.9506
21072SOL     OW67671  10.382   3.766   6.092 -0.2179 -0.2532 -0.9480
21072SOL    HW167672  10.306   3.820   6.113 -1.1305 -1.8995  0.1885
21072SOL    HW267673  10.347   3.695   6.039  0.7945 -0.2518 -1.6422
21073SOL     OW67674   1.234   2.461   9.099 -0.3546  0.3404  0.5649
21073SOL    HW167675   1.298   2.485   9.167 -0.4403  1.9352  0.1298
21073SOL    HW267676   1.159   2.428   9.147  0.6575 -1.3267  1.1031
21074SOL     OW67677   2.974   8.558   4.307  0.0718 -0.3911 -0.0313
21074SOL    HW167678   3.064   8.538   4.283  0.0749 -0.4257  0.0082
21074SOL    HW267679   2.976   8.565   4.403  0.1546  0.2100 -0.0700
21075SOL     OW67680   7.335  10.319  10.801  0.0989  0.3959 -0.1852
21075SOL    HW167681   7.249  10.362  10.799  0.5009  1.2591  0.4497
21075SOL    HW267682   7.328  10.250  10.735 -1.0611  0.4867 -0.1881
21076SOL     OW67683   7.575   5.869  10.982 -0.4209  0.3720 -0.4383
21076SOL    HW167684   7.580   5.837  10.892 -0.8786  1.1428 -0.7492
21076SOL    HW267685   7.490   5.913  10.987 -0.0168  1.1144  0.1075
21077SOL     OW67686   4.202   4.138   9.428  0.5068  0.4473 -0.2715
21077SOL    HW167687   4.231   4.080   9.499  1.6274  2.1722  0.7505
21077SOL    HW267688   4.143   4.084   9.376 -0.4250 -0.8843  2.0042
21078SOL     OW67689   7.852   4.751   7.127 -0.3149 -0.0795 -0.1409
21078SOL    HW167690   7.814   4.664   7.120  1.0064 -0.6044 -1.6014
21078SOL    HW267691   7.789   4.808   7.083 -1.0306 -0.3362  0.5323
21079SOL     OW67692   7.713   6.289   5.248 -0.6090  0.4683 -0.1754
21079SOL    HW167693   7.768   6.265   5.323 -0.7864  0.3148 -0.0923
21079SOL    HW267694   7.644   6.344   5.286 -1.5555 -0.8099  0.0348
21080SOL     OW67695   5.545   5.274   3.459  0.2585  0.2253 -0.3430
21080SOL    HW167696   5.602   5.249   3.532 -0.2479  0.7527  0.2562
21080SOL    HW267697   5.471   5.317   3.502 -0.5085 -0.3046 -1.1172
21081SOL     OW67698   4.138   3.000   0.834 -0.0393  0.0602  0.3982
21081SOL    HW167699   4.150   3.094   0.844 -1.5404  0.5541 -1.6269
21081SOL    HW267700   4.067   2.978   0.894 -0.1722  0.3638  0.3534
21082SOL     OW67701   0.496   0.667   4.963 -0.5638 -0.6581 -0.2506
21082SOL    HW167702   0.480   0.735   5.028 -1.5411 -0.3828 -0.7643
21082SOL    HW267703   0.571   0.618   4.997  0.1864  0.6957  0.1040
21083SOL     OW67704   5.994   3.960   6.376 -0.1309 -0.1248  0.4330
21083SOL    HW167705   5.941   4.014   6.318 -1.5317 -1.0958  0.7605
21083SOL    HW267706   6.065   4.017   6.404 -0.6118  1.0023 -0.5636
21084SOL     OW67707   6.051   7.961  10.860 -0.0094  0.1551  0.4338
21084SOL    HW167708   6.091   8.045  10.837 -0.2618  0.8031  2.2093
21084SOL    HW267709   5.984   7.947  10.794  1.1061  0.5525 -0.8140
21085SOL     OW67710   5.390   9.337   4.482  0.0007 -0.0990  0.1854
21085SOL    HW167711   5.400   9.424   4.522 -0.7822  0.0574  0.0641
21085SOL    HW267712   5.318   9.296   4.530 -0.9844  0.1016 -1.0391
21086SOL     OW67713   0.204   7.478   0.256 -0.4309 -0.1612  0.0718
21086SOL    HW167714   0.144   7.553   0.250 -0.6902 -0.3863 -0.1821
21086SOL    HW267715   0.286   7.516   0.287 -0.0953  0.5097 -1.4865
21087SOL     OW67716   0.855   0.173   6.625  0.4466 -0.2307  0.7773
21087SOL    HW167717   0.859   0.258   6.582  1.1383 -1.2777 -1.4235
21087SOL    HW267718   0.764   0.144   6.612  0.6109 -0.4724  0.0861
21088SOL     OW67719   9.476   3.199   5.324 -0.3112  0.1311 -0.0583
21088SOL    HW167720   9.397   3.162   5.286 -0.5937 -0.6744  1.2696
21088SOL    HW267721   9.447   3.243   5.404  0.1319  2.5988 -1.1305
21089SOL     OW67722   0.954   7.343   1.857  0.5128  0.1456  0.4925
21089SOL    HW167723   0.925   7.402   1.926  2.0805 -0.5800  1.8481
21089SOL    HW267724   0.955   7.257   1.898  1.2433 -0.3447 -0.5077
21090SOL     OW67725   3.431   7.681   1.392 -0.5070 -0.1099 -0.1979
21090SOL    HW167726   3.412   7.611   1.330  0.3011 -0.3115 -0.2414
21090SOL    HW267727   3.440   7.635   1.476  2.8816 -0.5707 -0.6525
21091SOL     OW67728   5.411   9.924   4.561  0.0103  0.0779  0.1050
21091SOL    HW167729   5.412   9.914   4.656  0.6665  0.6906  0.1731
21091SOL    HW267730   5.503   9.920   4.536 -0.0891  0.7419 -0.4040
21092SOL     OW67731   3.468   2.575   9.589  0.0887 -0.0045 -0.1818
21092SOL    HW167732   3.441   2.488   9.619 -0.4096  0.7626  1.7245
21092SOL    HW267733   3.560   2.564   9.562  0.5435 -0.8091  1.5661
21093SOL     OW67734   4.497   6.195   8.103 -0.0012 -0.2375 -0.5348
21093SOL    HW167735   4.500   6.116   8.157  0.7559 -0.2431 -0.5671
21093SOL    HW267736   4.588   6.208   8.075 -0.2158  0.3236 -0.9966
21094SOL     OW67737   8.553   2.044   8.893 -0.0711 -0.2753 -0.3187
21094SOL    HW167738   8.546   1.964   8.945  0.7534 -0.9592 -1.2272
21094SOL    HW267739   8.469   2.050   8.848 -0.7903  0.3167  1.0306
21095SOL     OW67740   4.381   3.895   8.794 -0.2400 -0.0946 -0.5320
21095SOL    HW167741   4.357   3.988   8.790 -2.3334 -0.5923 -0.4974
21095SOL    HW267742   4.470   3.895   8.829 -0.3179  1.8794 -0.2171
21096SOL     OW67743  10.474  10.187   4.520  1.0138  0.0096 -0.2227
21096SOL    HW167744  10.444  10.110   4.471  1.5054 -0.0494 -0.4344
21096SOL    HW267745  10.497  10.251   4.453 -1.8480  1.3470 -0.0886
21097SOL     OW67746   9.876   0.391   5.197 -0.2351 -0.8860 -0.0808
21097SOL    HW167747   9.971   0.404   5.194  0.1051 -2.9580  0.2118
21097SOL    HW267748   9.844   0.459   5.256  0.9174  0.4987 -0.9966
21098SOL     OW67749   0.066   2.690  10.202  0.1517  0.1833  0.6642
21098SOL    HW167750  -0.024   2.695  10.234 -0.0009  1.2076  0.1212
21098SOL    HW267751   0.092   2.599  10.218 -0.8781 -0.0539  1.0842
21099SOL     OW67752   8.112   6.953  10.133  0.0068 -0.5238  0.5264
21099SOL    HW167753   8.044   6.941  10.200  0.9442 -0.8016  1.4477
21099SOL    HW267754   8.080   6.901  10.059 -0.6092 -0.9649  1.0798
21100SOL     OW67755   4.269   0.324   3.514  0.8791 -0.0397  0.5335
21100SOL    HW167756   4.178   0.349   3.504  1.2468  1.1297 -0.0646
21100SOL    HW267757   4.318   0.406   3.505  2.0420 -0.7810 -0.1902
21101SOL     OW67758   9.152   7.124   3.902 -0.3222 -0.1463 -0.6099
21101SOL    HW167759   9.147   7.170   3.818 -2.3221 -0.7536 -0.8744
21101SOL    HW267760   9.220   7.058   3.889  0.8053  1.0572 -1.0604
21102SOL     OW67761   3.842   7.663   7.241 -0.0909  0.1573 -0.0927
21102SOL    HW167762   3.817   7.752   7.268  0.9254  0.5384 -0.3358
21102SOL    HW267763   3.760   7.614   7.242 -1.0194  1.5479 -1.7551
21103SOL     OW67764   6.366   6.278   5.597  0.0720  0.0605  0.0045
21103SOL    HW167765   6.414   6.287   5.515  0.8532 -1.7292  0.2155
21103SOL    HW267766   6.429   6.241   5.659 -1.1821 -1.1070  0.6625
21104SOL     OW67767   2.636   1.840   5.327 -0.2958  0.1786 -0.3532
21104SOL    HW167768   2.563   1.901   5.337  0.0997  0.7036 -0.6157
21104SOL    HW267769   2.594   1.755   5.313 -0.8798  0.0688  1.6763
21105SOL     OW67770  10.271   4.793   7.104  0.1281 -0.4809 -0.4426
21105SOL    HW167771  10.251   4.886   7.118  0.7058 -0.4891  0.4677
21105SOL    HW267772  10.232   4.748   7.179  0.7850 -0.8506 -0.3221
21106SOL     OW67773   4.558   4.384   5.286  0.2848 -0.3611  0.1343
21106SOL    HW167774   4.493   4.444   5.322  0.4268  0.2024 -0.5229
21106SOL    HW267775   4.639   4.407   5.331  0.3847  0.0937 -0.2693
21107SOL     OW67776   6.411   1.980   4.267 -0.3948 -0.8503 -0.2995
21107SOL    HW167777   6.469   1.905   4.283  0.4417  0.1997  2.0360
21107SOL    HW267778   6.328   1.941   4.240  0.2011 -2.5868  0.2221
21108SOL     OW67779   6.369  10.667   2.795  0.5435  0.3199  0.0173
21108SOL    HW167780   6.437  10.719   2.753  0.0606  1.9693  1.1970
21108SOL    HW267781   6.287  10.702   2.761  0.2241 -0.2674  0.1721
21109SOL     OW67782   5.509   1.824   5.308 -0.6143 -0.2440 -0.3983
21109SOL    HW167783   5.537   1.739   5.342 -0.3148 -0.0689 -0.2089
21109SOL    HW267784   5.560   1.888   5.357  0.0037  0.0011 -1.3350
21110SOL     OW67785   4.335   7.221   0.566 -0.7199 -0.1837  0.0363
21110SOL    HW167786   4.326   7.175   0.482  1.1784 -0.7881  0.1211
21110SOL    HW267787   4.400   7.289   0.549 -1.4602  0.6917  0.6484
21111SOL     OW67788   5.331   7.268   3.869 -0.3672 -0.5376 -0.5133
21111SOL    HW167789   5.316   7.173   3.865 -0.8404 -0.4739 -0.3573
21111SOL    HW267790   5.339   7.287   3.963 -0.1479 -0.4446 -0.5520
21112SOL     OW67791   9.086   2.827   4.083  0.4077 -0.6376  0.1884
21112SOL    HW167792   9.040   2.894   4.133  0.4495 -0.5120  0.0598
21112SOL    HW267793   9.146   2.875   4.027  0.8091 -0.8131  0.4651
21113SOL     OW67794   3.279   9.193   1.402  0.0204 -0.4406  0.3419
21113SOL    HW167795   3.358   9.164   1.448  0.2879  0.1351  0.2499
21113SOL    HW267796   3.289   9.288   1.394  0.0795 -0.5484 -1.0767
21114SOL     OW67797   3.167   3.310   8.626 -0.2971 -0.2593  0.0020
21114SOL    HW167798   3.094   3.252   8.607 -0.1077 -1.1201  1.6670
21114SOL    HW267799   3.228   3.256   8.677 -0.1059  1.3578  1.5975
21115SOL     OW67800   7.698   8.967  10.776  0.2060  0.4957 -0.0088
21115SOL    HW167801   7.661   8.905  10.839  1.3581 -0.7327 -0.4870
21115SOL    HW267802   7.685   9.052  10.816  0.8063 -0.2348  1.8504
21116SOL     OW67803   3.942   1.513   6.304 -0.5289  0.0768 -0.2513
21116SOL    HW167804   3.853   1.488   6.327 -0.2662 -2.5962 -1.6585
21116SOL    HW267805   3.994   1.488   6.380 -0.7042 -0.8378 -0.4117
21117SOL     OW67806   4.623   1.854   7.715  0.0652  0.1842 -0.1556
21117SOL    HW167807   4.699   1.913   7.716  0.4609 -0.2333 -1.7883
21117SOL    HW267808   4.661   1.767   7.727 -0.1347 -0.0292 -1.0259
21118SOL     OW67809   3.214   2.398   2.241 -0.3252 -0.3671 -0.2640
21118SOL    HW167810   3.197   2.311   2.278  0.6927  0.0870  1.3675
21118SOL    HW267811   3.161   2.457   2.295  1.3537  0.3353  0.6848
21119SOL     OW67812  10.254   1.224  10.747 -0.0630 -0.0788 -0.0138
21119SOL    HW167813  10.248   1.294  10.682 -1.3037 -0.7832 -0.7060
21119SOL    HW267814  10.333   1.244  10.797 -1.0222  2.5194  0.6363
21120SOL     OW67815   8.144   6.006   5.667 -0.5581  0.5131  0.0728
21120SOL    HW167816   8.175   6.051   5.589 -0.8076  0.5568 -0.0043
21120SOL    HW267817   8.110   6.076   5.723 -1.9875  0.3296 -0.5294
21121SOL     OW67818   7.397  10.299   5.820 -0.4194  0.0129  0.0266
21121SOL    HW167819   7.433  10.214   5.845  1.7819  0.9400  0.2592
21121SOL    HW267820   7.425  10.311   5.729 -0.6128  0.5317  0.0322
21122SOL     OW67821   9.880   4.296   1.140 -0.0885  0.3473 -0.3327
21122SOL    HW167822   9.793   4.318   1.174 -0.6684 -1.1290 -0.7791
21122SOL    HW267823   9.931   4.376   1.154 -2.1844  2.2585 -2.4675
21123SOL     OW67824   4.887   1.069   3.733 -0.0713 -0.5002  0.8660
21123SOL    HW167825   4.793   1.066   3.714  0.0102  0.8008  0.1415
21123SOL    HW267826   4.917   0.979   3.722 -1.1709 -0.8669  0.7751
21124SOL     OW67827   9.133   5.748   4.051  0.1061 -0.0902  0.0924
21124SOL    HW167828   9.187   5.733   3.974 -1.7333  0.6549 -1.4266
21124SOL    HW267829   9.072   5.674   4.052  0.6515 -0.5442  1.3504
21125SOL     OW67830   2.285   2.651   7.128  0.0649  0.7179 -0.1792
21125SOL    HW167831   2.243   2.566   7.136  0.4152  0.6845  2.2160
21125SOL    HW267832   2.228   2.711   7.177  0.1159  1.7575 -1.3420
21126SOL     OW67833   3.397   5.902   2.969 -0.5518 -0.2590  0.0353
21126SOL    HW167834   3.379   5.817   2.929  0.4758 -1.6715  2.3924
21126SOL    HW267835   3.326   5.914   3.032 -1.4997  1.3755 -1.2603
21127SOL     OW67836   1.287   9.768   1.442 -0.2467 -0.8503 -0.0019
21127SOL    HW167837   1.218   9.723   1.490 -0.4897 -1.3605 -0.8033
21127SOL    HW267838   1.271   9.746   1.350  1.1441 -1.2353 -0.1868
21128SOL     OW67839   1.231   9.654   4.465 -0.2308 -0.7857 -0.3991
21128SOL    HW167840   1.209   9.629   4.375 -2.0847  1.2004 -0.5908
21128SOL    HW267841   1.287   9.732   4.455 -0.9923 -0.1546  0.1206
21129SOL     OW67842   6.754   4.686  10.682  0.0852 -0.2483  0.1258
21129SOL    HW167843   6.674   4.716  10.726  0.3160  0.7994 -0.1458
21129SOL    HW267844   6.726   4.664  10.593 -0.2473 -1.7025  0.5611
21130SOL     OW67845   0.678   2.264   0.569  0.1043  0.4738  0.6688
21130SOL    HW167846   0.675   2.349   0.612  1.0582  0.5291  0.6573
21130SOL    HW267847   0.639   2.280   0.483 -2.7398  0.1326  1.7846
21131SOL     OW67848   5.716   6.679   9.935 -0.1332 -0.2926  0.3168
21131SOL    HW167849   5.737   6.588   9.913  0.7061 -0.3059  1.0927
21131SOL    HW267850   5.701   6.722   9.851  2.4723 -0.4378 -0.3180
21132SOL     OW67851   6.042   3.815   8.734  0.3841  0.0881  0.4176
21132SOL    HW167852   5.986   3.878   8.780  2.0218  1.5617  0.5491
21132SOL    HW267853   6.096   3.777   8.804 -0.1836 -1.0310  0.2523
21133SOL     OW67854   2.657   0.160   4.221 -0.0898  0.0934 -0.1855
21133SOL    HW167855   2.632   0.070   4.198  0.5216  0.0990 -0.8800
21133SOL    HW267856   2.705   0.151   4.303 -3.0318  0.1608  1.7205
21134SOL     OW67857   9.532   9.535   6.105  0.3057  0.7433 -0.4168
21134SOL    HW167858   9.442   9.554   6.081 -0.3278 -0.8629  0.6187
21134SOL    HW267859   9.559   9.464   6.047  0.2843 -0.0107  0.4671
21135SOL     OW67860   2.689   4.267   6.901 -0.1350  0.2422 -0.6751
21135SOL    HW167861   2.669   4.180   6.935 -0.5294  1.1559  1.6221
21135SOL    HW267862   2.606   4.299   6.865  0.1158 -0.4709 -1.9230
21136SOL     OW67863   2.533  10.155   4.432 -0.2358 -0.1446 -0.2212
21136SOL    HW167864   2.572  10.093   4.493  0.3004  0.2638 -0.1382
21136SOL    HW267865   2.554  10.120   4.346  1.9799  1.0125 -0.2258
21137SOL     OW67866   9.432   2.821   8.743 -0.2664 -0.3348  0.3982
21137SOL    HW167867   9.524   2.796   8.738 -0.2630 -0.0717 -1.3105
21137SOL    HW267868   9.405   2.835   8.652 -1.7975  0.3231  0.9096
21138SOL     OW67869   9.551   7.558   4.791 -0.5112  0.0393 -0.1337
21138SOL    HW167870   9.486   7.490   4.805 -0.9165  0.0206 -1.8569
21138SOL    HW267871   9.500   7.639   4.782 -0.2421  0.1675 -0.5613
21139SOL     OW67872  10.730   9.025   4.933 -0.2018  0.3071  0.0406
21139SOL    HW167873  10.809   9.053   4.978 -0.9479  0.8449  1.0481
21139SOL    HW267874  10.733   8.929   4.938 -0.2352  0.3511  1.1905
21140SOL     OW67875   1.546   9.020   9.388  0.0581  0.1355  0.2724
21140SOL    HW167876   1.591   8.994   9.308 -0.5275 -0.2570  0.0659
21140SOL    HW267877   1.523   9.111   9.375  1.1517  0.4659  0.5479
21141SOL     OW67878  10.404   5.826   3.474  0.2952 -0.5697 -0.4364
21141SOL    HW167879  10.395   5.815   3.380  1.6177  2.2423 -0.9982
21141SOL    HW267880  10.498   5.830   3.490  0.0782  0.6098  0.7404
21142SOL     OW67881   4.641  10.148   2.354  0.3942 -0.3886  0.0193
21142SOL    HW167882   4.652  10.131   2.260  2.3653 -2.3465  0.5208
21142SOL    HW267883   4.724  10.186   2.382 -1.0698  2.6613  0.5815
21143SOL     OW67884   1.705   4.810   9.323 -0.5755 -0.3298 -0.4217
21143SOL    HW167885   1.780   4.775   9.373 -0.8384  1.1615  1.1031
21143SOL    HW267886   1.629   4.767   9.362 -0.7882  0.8859  0.5446
21144SOL     OW67887   4.300   7.949   9.025 -0.2598  0.1219 -0.4454
21144SOL    HW167888   4.280   7.936   9.118 -1.6951 -1.4385 -0.9188
21144SOL    HW267889   4.364   8.021   9.024 -1.2268  1.1004  1.6430
21145SOL     OW67890   8.395   2.235   2.206  0.2251 -0.3959  0.1968
21145SOL    HW167891   8.476   2.280   2.184 -0.6624  0.1158 -2.3356
21145SOL    HW267892   8.326   2.301   2.194 -0.6632 -1.0302  1.5170
21146SOL     OW67893   4.315  10.809   7.358  0.4921  0.1109  0.2037
21146SOL    HW167894   4.262  10.795   7.437 -0.3407 -2.2914 -0.6810
21146SOL    HW267895   4.354  10.895   7.370 -1.2365  0.6927  2.2969
21147SOL     OW67896   5.450   9.354   5.729  0.0778  0.2989  0.1015
21147SOL    HW167897   5.435   9.447   5.743  2.3702  0.7038  0.3116
21147SOL    HW267898   5.472   9.347   5.637 -2.8570 -0.5291 -0.6342
21148SOL     OW67899   6.087  10.468   2.601  0.5677 -0.2293 -0.1111
21148SOL    HW167900   6.173  10.427   2.587 -1.1729 -4.6637  0.6415
21148SOL    HW267901   6.064  10.445   2.691 -0.8889  2.1577  0.2114
21149SOL     OW67902  10.109   7.098   8.958 -0.6505  0.0701  0.3050
21149SOL    HW167903  10.119   7.096   8.863 -2.1532  1.8480  0.0594
21149SOL    HW267904  10.180   7.155   8.988  1.5930 -2.6488  0.6405
21150SOL     OW67905   9.898   9.212   2.797  0.5792  0.2791  0.2082
21150SOL    HW167906   9.944   9.230   2.879  0.6881 -1.7541  0.6662
21150SOL    HW267907   9.822   9.160   2.824 -0.6582  1.5061 -0.7831
21151SOL     OW67908   3.226   7.870   1.402 -0.0673 -0.0881 -0.0161
21151SOL    HW167909   3.225   7.913   1.487  0.8769  1.3145 -0.6798
21151SOL    HW267910   3.308   7.820   1.401 -0.2231 -0.3476  0.0057
21152SOL     OW67911   8.652   8.910  10.224  0.5397 -0.1320  0.4672
21152SOL    HW167912   8.704   8.952  10.294  1.0088  0.1842 -0.0608
21152SOL    HW267913   8.667   8.816  10.237 -0.0377 -0.1272  1.2915
21153SOL     OW67914   0.875  10.781   2.855  0.4011 -0.8507  0.1988
21153SOL    HW167915   0.937  10.810   2.787 -1.1473 -0.7766 -1.2582
21153SOL    HW267916   0.906  10.693   2.879  2.0434 -0.1564  0.7791
21154SOL     OW67917   3.224   1.422   2.701  0.4943  0.4216 -0.1214
21154SOL    HW167918   3.244   1.482   2.629 -0.0924 -0.0600 -0.6962
21154SOL    HW267919   3.170   1.474   2.761 -1.2628  0.0744 -1.3293
21155SOL     OW67920   8.181   5.606   0.294 -0.1727 -0.8278  0.6302
21155SOL    HW167921   8.175   5.647   0.380  0.2546 -0.2545  0.3895
21155SOL    HW267922   8.253   5.651   0.250 -0.7974 -0.6764 -0.2682
21156SOL     OW67923   3.579   0.468   7.761 -0.0280 -0.1119 -0.1111
21156SOL    HW167924   3.540   0.470   7.674  0.6929 -1.6809 -0.5081
21156SOL    HW267925   3.666   0.507   7.749  0.5395 -1.4204 -0.3743
21157SOL     OW67926   7.917   9.015   2.180 -0.6199  0.7099  0.1212
21157SOL    HW167927   7.911   8.926   2.145 -1.6793 -0.1561  2.3822
21157SOL    HW267928   7.832   9.055   2.161 -0.5152  0.9098  0.0574
21158SOL     OW67929   2.250   0.012   4.872 -0.7513 -0.2174  0.0647
21158SOL    HW167930   2.225  -0.063   4.926 -2.4652 -0.0589 -0.4456
21158SOL    HW267931   2.315  -0.024   4.811 -0.9840 -1.1034  0.3247
21159SOL     OW67932   1.206   0.828   9.627 -0.3677  0.1110 -0.4316
21159SOL    HW167933   1.142   0.874   9.573  0.0760 -0.5046 -1.5137
21159SOL    HW267934   1.264   0.784   9.565  0.8248  0.2549  0.5291
21160SOL     OW67935   4.288   1.194   6.509 -0.0111 -0.0075  0.1686
21160SOL    HW167936   4.268   1.274   6.460  1.7505  0.7997  0.6789
21160SOL    HW267937   4.289   1.223   6.601  1.3139 -0.4617  0.3061
21161SOL     OW67938   6.280   7.184   7.518  0.0393  0.2768  0.4040
21161SOL    HW167939   6.318   7.146   7.439  0.3487  0.1099  0.6331
21161SOL    HW267940   6.239   7.110   7.563 -1.9277  0.6931 -0.6103
21162SOL     OW67941   2.781   2.588   5.955 -0.3045  0.6902 -0.0720
21162SOL    HW167942   2.750   2.561   6.041 -1.2185 -1.4950 -1.0136
21162SOL    HW267943   2.876   2.585   5.962 -0.2507 -3.4767 -0.1399
21163SOL     OW67944   1.022   2.582   3.591  0.6714 -0.6804 -0.1034
21163SOL    HW167945   1.041   2.646   3.660  1.8303  1.3273 -2.1478
21163SOL    HW267946   1.043   2.497   3.630  1.6752  0.4115  1.8658
21164SOL     OW67947   9.931   0.216   2.748  0.0618  0.5899  0.0751
21164SOL    HW167948  10.010   0.234   2.800  1.3559 -0.5387 -1.4033
21164SOL    HW267949   9.946   0.129   2.712 -1.7083  0.5211 -0.5742
21165SOL     OW67950   6.293   6.686   3.364  0.0852 -0.0995 -0.4672
21165SOL    HW167951   6.249   6.612   3.406  0.5231  0.3839  0.9368
21165SOL    HW267952   6.224   6.731   3.316 -0.9002  0.3360  1.2425
21166SOL     OW67953   2.555   8.312   2.106  0.0096  0.0756 -0.1265
21166SOL    HW167954   2.646   8.325   2.131  0.4521  0.1429 -1.6502
21166SOL    HW267955   2.545   8.217   2.098 -0.2773  0.0226  0.7724
21167SOL     OW67956   3.178  10.430   4.400 -0.0577 -0.4288 -0.8345
21167SOL    HW167957   3.220  10.478   4.328 -1.2864 -0.5781 -1.6692
21167SOL    HW267958   3.120  10.367   4.357  0.5778 -1.8265  0.2701
21168SOL     OW67959   7.052   7.807  10.976  0.4278 -0.2442  0.2344
21168SOL    HW167960   7.110   7.761  11.036  1.6830  1.3403  0.2878
21168SOL    HW267961   7.105   7.879  10.941 -0.9563  0.1889 -1.0895
21169SOL     OW67962   2.336  10.796   3.749 -0.2861 -0.4169 -0.0794
21169SOL    HW167963   2.299  10.709   3.765 -1.0647 -0.5943 -2.3980
21169SOL    HW267964   2.268  10.857   3.778  0.2237 -0.5405  1.4659
21170SOL     OW67965   9.958   6.658   0.336  0.3025  0.1980 -0.3284
21170SOL    HW167966   9.987   6.588   0.278  0.4427  0.2133 -0.2781
21170SOL    HW267967   9.937   6.613   0.419 -0.1147  0.1445 -0.4591
21171SOL     OW67968   0.189   1.756   3.633 -0.0344 -0.4498 -0.1326
21171SOL    HW167969   0.190   1.792   3.721  0.6330 -1.9058  0.4778
21171SOL    HW267970   0.272   1.709   3.625 -0.0124 -0.2215 -1.5941
21172SOL     OW67971   6.175   8.865   4.588 -0.2022  0.0140  0.9520
21172SOL    HW167972   6.235   8.799   4.554  0.4636  1.2473 -0.3388
21172SOL    HW267973   6.217   8.949   4.570 -2.5395  0.9606 -0.5711
21173SOL     OW67974   2.494   2.632   6.954  0.2719 -0.0890  0.4173
21173SOL    HW167975   2.503   2.536   6.949 -2.3079 -0.3937  0.2818
21173SOL    HW267976   2.417   2.645   7.009  1.4531  2.0026  1.6797
21174SOL     OW67977   1.148   4.288   2.359 -0.1782 -0.4745  0.0239
21174SOL    HW167978   1.231   4.331   2.381  0.2688 -1.7280  0.8947
21174SOL    HW267979   1.097   4.356   2.315  0.7160  0.7687  0.8326
21175SOL     OW67980   8.587   0.894  10.381  0.2708 -0.3151  0.6473
21175SOL    HW167981   8.657   0.901  10.315 -0.8314 -0.8390 -0.6131
21175SOL    HW267982   8.514   0.944  10.345 -0.0950  0.0940  1.8776
21176SOL     OW67983   0.984   1.220  10.808  0.1293  0.0641  0.3120
21176SOL    HW167984   1.004   1.313  10.820 -1.5397  0.5319 -0.2329
21176SOL    HW267985   0.895   1.210  10.843 -0.0393 -1.1449 -0.3971
21177SOL     OW67986   4.828   6.090   9.233 -0.3333  0.5438  0.2202
21177SOL    HW167987   4.740   6.125   9.220 -1.6739 -2.4364  0.6528
21177SOL    HW267988   4.819   6.027   9.305  2.1095 -0.0149  0.1164
21178SOL     OW67989   3.350   0.032   7.418  0.0024  0.1870  0.7796
21178SOL    HW167990   3.359   0.123   7.445  0.4701  0.9983 -1.7822
21178SOL    HW267991   3.255   0.016   7.421 -0.4173  1.7295 -1.2714
21179SOL     OW67992   3.409   5.126   9.561 -0.3510 -0.4408 -0.0896
21179SOL    HW167993   3.327   5.097   9.521  0.1818 -0.6047 -1.1075
21179SOL    HW267994   3.435   5.053   9.617 -1.6955  0.2551  1.5307
21180SOL     OW67995   7.114   8.763   1.335  0.7651  0.2975  0.0352
21180SOL    HW167996   7.097   8.693   1.272 -0.9168  0.1105  0.6603
21180SOL    HW267997   7.069   8.839   1.299  3.1122  1.2932 -0.9653
21181SOL     OW67998   0.660   6.878   0.983 -0.4453  0.0586 -0.4298
21181SOL    HW167999   0.675   6.972   0.993 -0.5189  0.1366 -1.0733
21181SOL    HW268000   0.746   6.838   0.999  0.2290  0.4233 -2.8763
21182SOL     OW68001   5.308   4.887   7.268  0.2424 -0.2747  0.0888
21182SOL    HW168002   5.239   4.927   7.321 -0.9352 -1.0811 -0.7844
21182SOL    HW268003   5.304   4.794   7.289  1.4976 -0.2509  0.4904
21183SOL     OW68004  10.768   8.358   1.570  0.1354  0.4825  0.1182
21183SOL    HW168005  10.720   8.398   1.643 -1.0305  1.3488 -1.0831
21183SOL    HW268006  10.790   8.432   1.513  4.1253  0.3757  1.1804
21184SOL     OW68007   5.005   4.159   4.471 -0.3356 -0.1465  0.1881
21184SOL    HW168008   5.058   4.212   4.411  1.5043 -1.1701  0.8310
21184SOL    HW268009   5.068   4.123   4.533 -1.7518 -1.7768  0.7513
21185SOL     OW68010  10.610   4.645  10.465 -0.7640  0.2957 -0.2231
21185SOL    HW168011  10.558   4.725  10.449 -0.6519  0.2421 -0.9058
21185SOL    HW268012  10.701   4.674  10.457 -0.5215  0.8580  3.0850
21186SOL     OW68013   6.678  10.595  10.051  0.0925 -0.1262  0.0643
21186SOL    HW168014   6.698  10.508  10.018 -1.7615 -0.7287  0.4197
21186SOL    HW268015   6.756  10.647  10.031  1.0797 -1.7551 -0.4941
21187SOL     OW68016   9.604   4.483   1.661 -0.2081 -0.1385 -0.2502
21187SOL    HW168017   9.592   4.477   1.567  1.1038  0.0988 -0.4492
21187SOL    HW268018   9.617   4.393   1.690 -0.2053 -0.1693 -0.3491
21188SOL     OW68019   6.257   0.945  10.953 -0.3709 -0.1894 -0.0903
21188SOL    HW168020   6.183   0.963  10.895  0.9203  0.6131 -1.5423
21188SOL    HW268021   6.323   1.010  10.929  1.1317 -1.4148  0.5875
21189SOL     OW68022  10.088   8.385   6.521  0.0676 -0.9457 -0.5041
21189SOL    HW168023  10.130   8.451   6.577 -0.5539  0.7599 -1.9400
21189SOL    HW268024   9.995   8.401   6.532 -0.1407  1.5632 -4.1850
21190SOL     OW68025  10.939   9.141   5.045 -0.3441 -0.7663  0.1841
21190SOL    HW168026  10.979   9.207   5.102 -1.6087 -0.3663  0.6248
21190SOL    HW268027  10.996   9.140   4.968  1.0298 -0.8682  1.1565
21191SOL     OW68028   2.144   4.972   3.842 -0.2748 -0.1103  0.0975
21191SOL    HW168029   2.149   4.967   3.937 -0.6130  0.3910  0.1484
21191SOL    HW268030   2.204   5.043   3.818 -0.9488  0.4455  0.0287
21192SOL     OW68031   8.416   1.705   2.946  0.2965  0.4841 -0.1268
21192SOL    HW168032   8.333   1.721   2.902 -1.9019 -2.3011  2.5004
21192SOL    HW268033   8.428   1.610   2.941  2.8939  0.7028  0.3689
21193SOL     OW68034  10.436   4.027   1.151  0.0683  0.0082 -0.4748
21193SOL    HW168035  10.356   3.975   1.164  0.0501 -0.0411 -0.7648
21193SOL    HW268036  10.502   3.963   1.125  0.9080 -0.3568  2.2749
21194SOL     OW68037   7.517   1.874   3.172  0.1526 -0.0226  0.1145
21194SOL    HW168038   7.427   1.897   3.151 -0.6518 -2.1074  0.9299
21194SOL    HW268039   7.540   1.931   3.246 -0.6060  0.3434  0.0758
21195SOL     OW68040   7.708   2.336   2.068 -0.1202  0.0444 -0.4259
21195SOL    HW168041   7.784   2.390   2.047  1.2654 -1.3452  0.7487
21195SOL    HW268042   7.648   2.395   2.112  1.2208  0.7155  0.5641
21196SOL     OW68043   4.112   5.550   2.002 -0.5808 -0.1495 -0.6019
21196SOL    HW168044   4.071   5.635   2.022  0.1184  0.2874 -0.9837
21196SOL    HW268045   4.129   5.553   1.908 -0.4316 -0.6596 -0.5917
21197SOL     OW68046   4.725   4.316   0.359  0.3962  0.2924  0.4453
21197SOL    HW168047   4.756   4.294   0.272 -0.9630  2.8153 -0.8125
21197SOL    HW268048   4.694   4.233   0.396  3.5483 -1.3541 -0.2480
21198SOL     OW68049   0.223   7.508   7.629 -0.2408 -0.3411 -0.0818
21198SOL    HW168050   0.269   7.583   7.666 -0.4317 -1.1760  1.9684
21198SOL    HW268051   0.293   7.448   7.604 -0.1107  0.2458 -1.2184
21199SOL     OW68052   8.558  10.197   4.967 -0.2535 -0.7842 -0.2700
21199SOL    HW168053   8.647  10.230   4.976 -0.1547 -0.7129 -1.4321
21199SOL    HW268054   8.569  10.108   4.934 -0.5835 -1.2254  0.7810
21200SOL     OW68055   9.481   0.485   6.386  0.6930 -0.3725 -0.5557
21200SOL    HW168056   9.559   0.523   6.346  1.0563  0.0912  0.5787
21200SOL    HW268057   9.440   0.557   6.433 -1.4479 -0.1215 -2.5933
21201SOL     OW68058   6.491   9.676   2.543  0.8622 -0.1931  0.1555
21201SOL    HW168059   6.554   9.637   2.605  0.9729 -0.1217  0.0885
21201SOL    HW268060   6.494   9.770   2.562  1.6873 -0.0375 -0.6730
21202SOL     OW68061   3.437   7.798   3.103 -0.6307 -0.1421  0.0536
21202SOL    HW168062   3.423   7.793   3.198  0.5952  0.0159  0.2659
21202SOL    HW268063   3.490   7.721   3.083 -0.7930 -0.1136 -0.4882
21203SOL     OW68064   0.109   6.808   7.978 -0.0898  0.5428 -0.0300
21203SOL    HW168065   0.126   6.714   7.985  3.1919  0.7581 -2.5245
21203SOL    HW268066   0.063   6.818   7.895  0.2404  1.1753 -0.1450
21204SOL     OW68067   2.856   0.361   9.229 -0.1863  0.2734 -0.1425
21204SOL    HW168068   2.855   0.280   9.278 -1.4663  1.0481  1.1833
21204SOL    HW268069   2.765   0.392   9.231  0.1158  1.3458 -1.2992
21205SOL     OW68070   4.055   7.929  10.312  0.3292  0.1772  0.2552
21205SOL    HW168071   4.142   7.904  10.280  0.1529  0.8454 -0.8226
21205SOL    HW268072   3.995   7.885  10.252 -0.1152 -0.8133  1.3884
21206SOL     OW68073   1.833   0.447  10.392  0.1482 -0.2326  0.3463
21206SOL    HW168074   1.751   0.440  10.343 -0.1652  0.0544  0.8172
21206SOL    HW268075   1.807   0.438  10.484  0.6725 -0.3353  0.4910
21207SOL     OW68076   9.641   5.156   3.151  0.5756  0.2438  0.0653
21207SOL    HW168077   9.667   5.084   3.209  2.1585  1.6037  1.1340
21207SOL    HW268078   9.546   5.146   3.142 -0.3357  1.5040  5.1892
21208SOL     OW68079   7.906   2.828   0.669  0.1632  0.1110  0.3108
21208SOL    HW168080   7.837   2.861   0.727 -0.4877 -1.2675  0.3548
21208SOL    HW268081   7.987   2.851   0.714 -0.3216 -0.7149  1.6727
21209SOL     OW68082   4.714   8.443   8.298  0.1901  0.3717 -0.2598
21209SOL    HW168083   4.720   8.363   8.350  1.1203  1.3542  1.2331
21209SOL    HW268084   4.771   8.427   8.222  0.3103 -0.3980 -0.0138
21210SOL     OW68085   1.267   4.316   0.171  0.0129 -0.5240  0.2943
21210SOL    HW168086   1.312   4.400   0.175  0.4399 -0.7622  0.5471
21210SOL    HW268087   1.206   4.318   0.245 -1.2263  0.2642 -0.7218
21211SOL     OW68088   0.981   9.105   1.171 -0.4269  0.6150  0.2773
21211SOL    HW168089   1.002   9.165   1.100  0.0996  1.5688  1.2133
21211SOL    HW268090   1.052   9.115   1.233  0.3314 -1.9068 -0.0754
21212SOL     OW68091   6.051   3.229   2.702 -0.6203  0.1627 -0.8077
21212SOL    HW168092   5.965   3.194   2.724 -0.0414 -0.7205  0.1889
21212SOL    HW268093   6.035   3.289   2.629 -1.9775 -0.4649 -1.0622
21213SOL     OW68094   3.756  10.529   5.782 -0.1852 -0.7156  0.4920
21213SOL    HW168095   3.681  10.469   5.778  0.1471 -1.0648 -1.2032
21213SOL    HW268096   3.721  10.614   5.755  0.1591 -1.0536 -1.1087
21214SOL     OW68097  11.038   9.563   1.068  0.3398  0.3375 -0.0253
21214SOL    HW168098  11.069   9.614   1.144 -1.5752  0.3522  0.8282
21214SOL    HW268099  11.073   9.609   0.992  0.2053  1.8749  0.7958
21215SOL     OW68100   5.481   2.291   0.426  0.4197 -0.1666 -0.5515
21215SOL    HW168101   5.572   2.321   0.422  0.3097  0.2759  0.1255
21215SOL    HW268102   5.479   2.232   0.501  0.3474 -0.9103 -1.1219
21216SOL     OW68103   9.921   3.668   6.538 -0.2314 -0.7749 -0.3177
21216SOL    HW168104   9.983   3.659   6.610 -2.3360 -1.2044  1.5930
21216SOL    HW268105   9.924   3.761   6.515  0.0907 -0.5054  0.7379
21217SOL     OW68106   7.363   3.519  10.930 -0.6039  0.2540  0.2817
21217SOL    HW168107   7.342   3.602  10.887 -0.3347 -0.6214 -1.6428
21217SOL    HW268108   7.459   3.516  10.932 -0.6127  0.1074  0.5764
21218SOL     OW68109   6.064   3.852  10.106 -0.3464 -0.5044  0.1838
21218SOL    HW168110   6.117   3.845  10.186  1.6394  0.3905 -0.9888
21218SOL    HW268111   6.089   3.775  10.054 -1.4419 -0.9456  0.2836
21219SOL     OW68112   8.998   5.349   2.641 -0.5307 -0.0323 -0.4513
21219SOL    HW168113   9.022   5.441   2.653 -2.5222  0.4566  0.2013
21219SOL    HW268114   8.908   5.344   2.672 -0.8891 -1.9612 -1.6431
21220SOL     OW68115   4.973   6.791   1.970  0.5446  0.0387 -0.4613
21220SOL    HW168116   5.064   6.821   1.965  0.7762 -0.6053 -0.2302
21220SOL    HW268117   4.969   6.741   2.052 -0.1330  0.4391 -0.2413
21221SOL     OW68118   0.933   9.571   0.719 -0.2375  0.8797  0.1115
21221SOL    HW168119   0.960   9.504   0.782 -1.9935  0.9161  0.9960
21221SOL    HW268120   0.988   9.557   0.642 -0.0616 -1.1003  0.5588
21222SOL     OW68121   5.884   0.587   5.698  0.4052 -0.0790  0.5806
21222SOL    HW168122   5.909   0.587   5.791 -0.9255 -0.5322  0.9600
21222SOL    HW268123   5.916   0.671   5.665  2.8146 -0.7953  0.8742
21223SOL     OW68124  10.332   9.801   4.479  0.3011 -0.1683 -0.0386
21223SOL    HW168125  10.290   9.719   4.451 -1.1407  0.9998 -1.5085
21223SOL    HW268126  10.304   9.865   4.414  2.3739  1.2612  0.3900
21224SOL     OW68127   4.888  11.053   9.307 -0.3870 -0.4284  0.0019
21224SOL    HW168128   4.842  10.994   9.248 -2.9374  1.4435 -0.0352
21224SOL    HW268129   4.960  11.088   9.254 -0.3169 -1.6377 -0.7340
21225SOL     OW68130   3.784  10.658   1.724  0.2281 -0.0309 -0.7045
21225SOL    HW168131   3.858  10.677   1.667 -1.0066  0.0542 -2.3454
21225SOL    HW268132   3.823  10.614   1.800  1.9977  0.4812 -1.2717
21226SOL     OW68133   9.465   6.292   5.104 -0.6604 -0.6311  0.2251
21226SOL    HW168134   9.407   6.320   5.175 -2.8056 -1.5404 -1.0807
21226SOL    HW268135   9.412   6.231   5.052  1.1982 -0.8522 -1.5331
21227SOL     OW68136  10.427   2.641  10.787 -0.3890 -0.1559  0.7702
21227SOL    HW168137  10.335   2.666  10.795 -0.8546 -1.9191  1.4100
21227SOL    HW268138  10.426   2.545  10.783  1.3709 -0.1919 -0.0882
21228SOL     OW68139  10.627   9.069   0.476  0.3294  0.7219  0.5375
21228SOL    HW168140  10.597   9.078   0.385 -0.3446  1.3364  0.8036
21228SOL    HW268141  10.565   9.123   0.526  1.0324  0.8368  1.2919
21229SOL     OW68142   5.283   2.308  10.975 -0.6384  0.3825 -0.4396
21229SOL    HW168143   5.235   2.249  11.033 -0.8399  0.0804 -0.9094
21229SOL    HW268144   5.300   2.386  11.029 -1.1896  0.2762 -0.1019
21230SOL     OW68145   6.824   2.072   7.862 -0.1936  0.1977 -0.5094
21230SOL    HW168146   6.871   2.076   7.946 -0.5623  0.5775 -0.3157
21230SOL    HW268147   6.872   2.132   7.805 -1.2975  1.7810  0.1391
21231SOL     OW68148   2.639   1.606   5.062  0.0053  0.0576  0.6193
21231SOL    HW168149   2.623   1.564   5.146 -3.0915 -0.5066 -0.1365
21231SOL    HW268150   2.614   1.541   4.997  2.2621  0.5075 -0.8187
21232SOL     OW68151   3.735   5.484   2.246  0.0244  0.1404 -0.0964
21232SOL    HW168152   3.650   5.522   2.223  0.5334  1.2260 -0.2390
21232SOL    HW268153   3.732   5.396   2.208 -0.4043  0.7517 -1.5777
21233SOL     OW68154   0.813  10.617   7.033 -0.2094 -0.7063  0.8120
21233SOL    HW168155   0.750  10.571   7.088 -0.6327 -0.3657  0.6206
21233SOL    HW268156   0.836  10.554   6.965 -2.1182 -0.0910 -0.4779
21234SOL     OW68157   8.727   1.165   0.228 -0.2324 -0.3817 -0.0916
21234SOL    HW168158   8.730   1.236   0.293 -1.4774 -1.6038  1.3802
21234SOL    HW268159   8.793   1.189   0.164 -0.3513  1.9331  0.5362
21235SOL     OW68160   3.919   6.239   2.050  0.4281 -0.1993  0.3906
21235SOL    HW168161   3.826   6.256   2.062  0.0926 -1.7856  0.2005
21235SOL    HW268162   3.962   6.316   2.087 -0.9757  1.5374 -1.3949
21236SOL     OW68163   9.070   8.569   0.127  0.1110 -0.6088  0.1302
21236SOL    HW168164   8.978   8.571   0.104 -0.1924 -0.2919  1.2587
21236SOL    HW268165   9.117   8.564   0.044 -0.8786  0.8707 -0.5517
21237SOL     OW68166   7.470  10.517   0.162  0.9804  1.0872 -0.2157
21237SOL    HW168167   7.506  10.499   0.249  1.4913  0.1324 -0.5984
21237SOL    HW268168   7.490  10.437   0.111 -2.2977  0.1563 -0.2805
21238SOL     OW68169   5.338  10.838   5.502 -0.2727  0.1199  0.1326
21238SOL    HW168170   5.381  10.800   5.578  0.3733  0.8178  0.1249
21238SOL    HW268171   5.271  10.774   5.478  0.2448 -0.6160  0.6195
21239SOL     OW68172   2.024   7.312   8.009  0.0720 -0.1090  0.5800
21239SOL    HW168173   1.988   7.235   8.051  1.9349 -1.4236 -0.1171
21239SOL    HW268174   1.980   7.386   8.052  0.1997 -1.4335  3.1531
21240SOL     OW68175   3.497   2.171   8.615 -0.3913 -0.6074 -0.1345
21240SOL    HW168176   3.524   2.098   8.671  0.4811 -1.0081 -1.0431
21240SOL    HW268177   3.427   2.214   8.664 -1.0370 -2.1467  0.3509
21241SOL     OW68178   5.951   2.145   4.260 -0.3810  0.4776  0.3399
21241SOL    HW168179   5.885   2.076   4.261  0.9060 -0.8231 -0.5414
21241SOL    HW268180   6.009   2.122   4.187  0.0786  2.5288 -0.0185
21242SOL     OW68181   3.362   9.305   5.396 -0.0350 -0.1535 -0.6215
21242SOL    HW168182   3.294   9.261   5.344 -1.7140 -0.5818  1.7886
21242SOL    HW268183   3.431   9.325   5.332 -0.8335 -2.8855 -2.5556
21243SOL     OW68184   5.144  10.767  10.488 -0.2277  0.1852  0.1650
21243SOL    HW168185   5.230  10.729  10.469 -0.2777 -1.1624  2.3000
21243SOL    HW268186   5.124  10.737  10.577 -2.6366  0.9934 -0.0421
21244SOL     OW68187   2.985   1.532   7.340  0.8329  0.4321 -0.4679
21244SOL    HW168188   3.052   1.464   7.334 -0.0491 -0.4409 -0.7742
21244SOL    HW268189   2.938   1.512   7.421  0.3430  0.4452 -0.7416
21245SOL     OW68190   6.396   2.023   3.350  0.0908  0.0875 -0.4160
21245SOL    HW168191   6.453   2.053   3.280 -0.6679  0.0853 -1.0480
21245SOL    HW268192   6.453   1.974   3.409  0.5288 -0.9021 -1.6336
21246SOL     OW68193   1.517   8.288   5.508 -0.5271 -0.1810  0.2562
21246SOL    HW168194   1.612   8.287   5.493 -0.2640  0.0350  1.7049
21246SOL    HW268195   1.502   8.369   5.556 -1.6018  0.2353 -0.7435
21247SOL     OW68196   1.382   4.380   5.618  0.2717  0.1645 -0.1250
21247SOL    HW168197   1.410   4.380   5.526 -0.3101 -0.8893 -0.3158
21247SOL    HW268198   1.354   4.290   5.634 -1.0424  0.6863  0.6512
21248SOL     OW68199   5.489   8.189   4.984  0.1369  0.3311  0.0832
21248SOL    HW168200   5.522   8.139   5.059  0.3837 -0.6091 -0.6404
21248SOL    HW268201   5.399   8.158   4.973 -0.4420  1.6270  0.9665
21249SOL     OW68202  10.026   5.616   2.637  0.3005  0.0447 -0.2743
21249SOL    HW168203  10.099   5.622   2.576 -0.3174  0.2452 -1.0126
21249SOL    HW268204   9.948   5.614   2.582 -0.2433 -0.4679  0.4870
21250SOL     OW68205   9.247   5.855  10.311 -0.3872  0.1792 -0.2517
21250SOL    HW168206   9.274   5.901  10.231  2.9983  0.9277  1.1703
21250SOL    HW268207   9.215   5.924  10.369  1.4446  0.3608  0.6166
21251SOL     OW68208   8.866   2.946   7.400  0.6959 -0.1503 -0.2339
21251SOL    HW168209   8.900   2.915   7.316  2.4396  1.2968 -0.1265
21251SOL    HW268210   8.873   2.870   7.458  0.0835 -0.9789 -1.2120
21252SOL     OW68211   9.182  11.002   0.692  0.2514  0.3461  0.4644
21252SOL    HW168212   9.156  11.037   0.607  0.5419  2.8094  1.2972
21252SOL    HW268213   9.270  11.038   0.707  0.2239 -0.0728  1.7705
21253SOL     OW68214   3.485   1.483   6.329 -0.7338 -0.4363  0.0169
21253SOL    HW168215   3.477   1.577   6.313 -2.0805 -0.1737  1.8752
21253SOL    HW268216   3.562   1.475   6.386 -0.5614 -0.5011 -0.2190
21254SOL     OW68217   9.645   0.131   9.049 -0.0458 -0.2672 -0.0640
21254SOL    HW168218   9.710   0.162   9.113  0.7331  0.8607 -1.3489
21254SOL    HW268219   9.694   0.074   8.991 -0.6824 -1.0424  0.1471
21255SOL     OW68220  10.311   7.021   0.548 -0.4308 -0.0501 -0.3371
21255SOL    HW168221  10.295   6.932   0.518 -3.0470 -0.5088  2.0287
21255SOL    HW268222  10.362   7.010   0.629 -0.9927  0.5632  0.1111
21256SOL     OW68223   5.506   0.409   6.785  0.3278  0.2389 -0.6928
21256SOL    HW168224   5.521   0.353   6.709  2.3721  0.1306 -0.2637
21256SOL    HW268225   5.571   0.380   6.849 -0.3191  1.3721  0.5221
21257SOL     OW68226   1.776  10.190   0.958  0.7893 -0.1651  0.2423
21257SOL    HW168227   1.797  10.179   0.865  1.1445 -0.0563  0.3049
21257SOL    HW268228   1.843  10.250   0.990  0.2818  0.3068  0.4266
21258SOL     OW68229   3.780   7.404  10.386  0.0932 -0.2959  0.4594
21258SOL    HW168230   3.727   7.386  10.464 -2.3901  1.8314 -0.5897
21258SOL    HW268231   3.758   7.333  10.325 -1.7406  0.6183 -0.0016
21259SOL     OW68232   0.055   7.253   3.669 -0.1485 -0.3111 -0.1407
21259SOL    HW168233   0.119   7.220   3.606 -0.2074 -0.4092 -0.1503
21259SOL    HW268234  -0.030   7.234   3.629 -0.1845 -0.2467 -0.0958
21260SOL     OW68235   0.561  10.322   7.680  0.1402  0.0464 -0.1194
21260SOL    HW168236   0.570  10.266   7.758 -1.9987  0.8523  0.7937
21260SOL    HW268237   0.646  10.318   7.638  0.6867 -2.2498  1.0166
21261SOL     OW68238   4.566  10.244   2.078  0.4551 -0.4791 -0.1197
21261SOL    HW168239   4.476  10.228   2.107  0.3455 -0.2078 -0.2980
21261SOL    HW268240   4.599  10.158   2.053 -0.5116 -0.3148 -2.1917
21262SOL     OW68241   9.103  10.844   3.890  0.2605 -0.0373  0.0979
21262SOL    HW168242   9.133  10.930   3.920  0.8185 -0.4090  0.6168
21262SOL    HW268243   9.182  10.790   3.888  0.4032  0.1136 -2.6271
21263SOL     OW68244   6.904   2.403   5.586 -0.0112 -0.4485  0.5684
21263SOL    HW168245   6.920   2.330   5.644 -1.8481 -1.1131  0.3228
21263SOL    HW268246   6.896   2.363   5.499  0.5621  0.2585  0.1776
21264SOL     OW68247   0.932   2.873   5.606 -0.3805  0.3381 -0.0554
21264SOL    HW168248   0.939   2.801   5.669  0.4342  0.4383 -0.0298
21264SOL    HW268249   0.959   2.951   5.656 -0.6758  0.5701 -0.2539
21265SOL     OW68250   4.360   2.444   1.992 -0.2057  0.5835  0.3430
21265SOL    HW168251   4.355   2.532   2.031  0.8462  1.1850 -0.8062
21265SOL    HW268252   4.386   2.387   2.065 -0.9959  1.2016  1.1293
21266SOL     OW68253   8.111   1.073   9.558 -0.4739 -0.1671 -0.2009
21266SOL    HW168254   8.127   0.979   9.555  1.1735  0.1003 -1.0146
21266SOL    HW268255   8.057   1.091   9.481 -0.5872 -0.4057 -0.1777
21267SOL     OW68256  10.394   7.371   3.434 -0.4629 -0.4035  0.1096
21267SOL    HW168257  10.326   7.340   3.494 -0.8971 -0.2606 -0.3099
21267SOL    HW268258  10.434   7.445   3.480 -1.0023 -0.0994  0.0956
21268SOL     OW68259   4.387   1.782   3.488 -0.0443 -0.2535  0.2709
21268SOL    HW168260   4.379   1.877   3.484  0.6206 -0.2041 -0.1880
21268SOL    HW268261   4.328   1.755   3.559  2.9645  0.9424  3.5704
21269SOL     OW68262   3.248   0.491   2.636  0.6522 -0.0949 -0.2546
21269SOL    HW168263   3.308   0.559   2.605  0.6849  0.3188  0.6999
21269SOL    HW268264   3.210   0.527   2.716 -0.5787 -0.5118 -0.6332
21270SOL     OW68265   1.588   2.376   4.123  0.3129 -0.0110 -0.1873
21270SOL    HW168266   1.493   2.371   4.139  0.2749  0.1060 -0.3734
21270SOL    HW268267   1.603   2.316   4.050  0.4105 -0.1701 -0.0359
21271SOL     OW68268   1.747   1.741   8.908  0.6169  0.5935 -0.1277
21271SOL    HW168269   1.741   1.655   8.867  0.6350  0.7494 -0.4601
21271SOL    HW268270   1.729   1.802   8.837 -1.8253  0.7929  0.5644
21272SOL     OW68271   6.312   8.229   5.978 -0.0763  0.8637 -0.2535
21272SOL    HW168272   6.317   8.184   5.893 -2.6004 -1.1511  0.5350
21272SOL    HW268273   6.374   8.182   6.034  1.3727  2.0092 -0.8078
21273SOL     OW68274   0.079   5.692   9.836 -0.1700  0.1376  0.0421
21273SOL    HW168275   0.042   5.607   9.814  1.6397 -1.1481  1.6283
21273SOL    HW268276   0.011   5.736   9.887 -0.9152 -0.5631 -0.3221
21274SOL     OW68277   9.046   0.698   4.040 -0.2925 -0.3903 -0.2806
21274SOL    HW168278   8.994   0.647   3.978 -1.5753  0.6128 -0.0742
21274SOL    HW268279   9.032   0.655   4.125 -0.0157 -0.6788 -0.3795
21275SOL     OW68280   7.097   6.089   9.756 -0.2601 -0.2280 -0.1002
21275SOL    HW168281   7.142   6.126   9.679 -0.9156  0.7840 -0.0128
21275SOL    HW268282   7.072   6.165   9.808 -2.2557 -0.7342 -0.2408
21276SOL     OW68283   3.906   9.704   5.605 -0.5546 -0.0954 -0.2976
21276SOL    HW168284   3.952   9.623   5.585 -1.3999 -0.6617  0.0062
21276SOL    HW268285   3.826   9.700   5.554  0.3833  1.5920 -2.0202
21277SOL     OW68286   2.143   1.874   9.241  0.1760 -0.6995  0.0640
21277SOL    HW168287   2.058   1.875   9.285 -0.4501 -2.1957 -1.0221
21277SOL    HW268288   2.172   1.965   9.243 -0.4051 -0.4899  2.3762
21278SOL     OW68289   8.994   9.804   2.748  0.0682 -0.2266 -0.5412
21278SOL    HW168290   8.937   9.743   2.701  0.1209 -1.3579  0.7843
21278SOL    HW268291   8.985   9.886   2.701 -1.0982 -0.8992 -1.5666
21279SOL     OW68292   9.738   2.573   7.476  0.2872 -0.0931  0.3728
21279SOL    HW168293   9.721   2.653   7.524  2.3813  0.1918  0.7253
21279SOL    HW268294   9.724   2.503   7.540  2.4478  0.2503  1.2982
21280SOL     OW68295   1.516   3.340   2.573 -0.1012  0.4053 -0.3997
21280SOL    HW168296   1.559   3.255   2.572  0.5063  0.6910  0.5504
21280SOL    HW268297   1.532   3.374   2.660 -4.5976 -0.6596  1.1369
21281SOL     OW68298   6.516   8.341  10.262  0.1914  0.1665 -0.1084
21281SOL    HW168299   6.506   8.357  10.169  0.4667  0.0723 -0.1554
21281SOL    HW268300   6.496   8.425  10.304  0.0611  0.2055 -0.2514
21282SOL     OW68301   0.833   6.163   2.344  0.0052 -0.5280  0.1488
21282SOL    HW168302   0.926   6.159   2.365  0.3628  0.2430 -1.1513
21282SOL    HW268303   0.830   6.187   2.251 -1.5026  0.0625  0.3145
21283SOL     OW68304   7.208   6.275   7.407 -0.2994  0.3064  0.0989
21283SOL    HW168305   7.129   6.330   7.407 -1.0321 -0.6956 -0.6811
21283SOL    HW268306   7.242   6.281   7.318 -2.4520 -3.2147 -1.1786
21284SOL     OW68307   2.499   8.116  10.438 -0.3080  0.0892  0.5839
21284SOL    HW168308   2.407   8.134  10.422 -0.7281 -1.7501  0.7520
21284SOL    HW268309   2.500   8.051  10.508  1.1568  0.6751  1.1513
21285SOL     OW68310   9.682   5.379   1.204 -0.0742  0.4323  0.3265
21285SOL    HW168311   9.687   5.321   1.280 -0.2433 -0.9248 -0.6460
21285SOL    HW268312   9.672   5.319   1.129  0.0227  1.7181 -0.7569
21286SOL     OW68313  11.029   0.521   3.656 -0.2930  0.0594  0.2780
21286SOL    HW168314  11.001   0.610   3.680 -1.2495 -0.2699  0.3931
21286SOL    HW268315  11.043   0.477   3.739  0.2589  0.1171  0.2203
21287SOL     OW68316  10.437   5.512   7.217 -0.0237 -0.5886 -0.5113
21287SOL    HW168317  10.342   5.517   7.212  0.0789  0.5072 -1.6952
21287SOL    HW268318  10.459   5.429   7.173 -0.5213 -2.0456  1.7966
21288SOL     OW68319   5.645   3.139   8.988 -0.0378 -0.7369 -0.5799
21288SOL    HW168320   5.647   3.154   9.083 -0.1804  0.4009 -0.7431
21288SOL    HW268321   5.636   3.044   8.979  1.9747 -1.0935  0.5258
21289SOL     OW68322   4.122   1.990   6.065  0.0589  0.4775 -0.0089
21289SOL    HW168323   4.095   2.068   6.114  0.6638  1.7500 -1.6020
21289SOL    HW268324   4.203   1.961   6.108 -0.3382  0.5174  0.7864
21290SOL     OW68325   2.587   1.356  10.363 -0.3186  0.7658  0.2190
21290SOL    HW168326   2.542   1.281  10.401  1.0001 -0.1132  0.1112
21290SOL    HW268327   2.517   1.416  10.339 -1.4887 -0.8181 -0.5414
21291SOL     OW68328   1.669   8.661  10.436 -0.0674  0.3957  0.3133
21291SOL    HW168329   1.581   8.638  10.406 -0.3520  1.6829  0.0789
21291SOL    HW268330   1.725   8.643  10.360 -0.3708  1.0042 -0.0673
21292SOL     OW68331   8.549   2.005   1.489  0.0111  0.1021  0.1340
21292SOL    HW168332   8.542   1.912   1.467  0.3782  0.1338 -0.1266
21292SOL    HW268333   8.461   2.031   1.515 -0.0670 -0.3518  0.3317
21293SOL     OW68334   9.944   5.404   9.328  0.0450  0.0225  0.2132
21293SOL    HW168335   9.984   5.489   9.310  1.0535 -0.4427  0.2225
21293SOL    HW268336   9.863   5.406   9.277 -0.1411  1.1317  0.5105
21294SOL     OW68337   0.826   1.513   4.141  0.0782 -0.1485  0.2076
21294SOL    HW168338   0.871   1.455   4.203 -0.5935 -1.7413 -0.7359
21294SOL    HW268339   0.891   1.529   4.073  0.3765  0.5138  0.6374
21295SOL     OW68340   0.600   7.855   1.366  0.0184  0.7111 -0.1058
21295SOL    HW168341   0.540   7.917   1.325  0.0157  0.1580 -0.9715
21295SOL    HW268342   0.546   7.778   1.385  0.3665  0.3517 -0.5549
21296SOL     OW68343   5.452   1.865   1.852 -0.2971 -0.4145  0.0577
21296SOL    HW168344   5.408   1.857   1.936 -1.3904  0.1568 -0.4477
21296SOL    HW268345   5.545   1.855   1.873 -0.5878 -0.7300  1.2592
21297SOL     OW68346   0.455   5.690  10.817 -0.3524 -0.2857  0.8818
21297SOL    HW168347   0.509   5.624  10.774  0.6739  0.8812  0.3086
21297SOL    HW268348   0.395   5.720  10.749 -1.9317 -1.7135  1.5660
21298SOL     OW68349   6.759   7.675   2.660 -0.1485 -0.4651 -0.4199
21298SOL    HW168350   6.805   7.597   2.630 -0.0829 -0.8619  0.6714
21298SOL    HW268351   6.734   7.655   2.750  1.0850  1.2995  0.3554
21299SOL     OW68352   5.841   4.222   5.545 -0.3384 -0.1423 -0.0889
21299SOL    HW168353   5.749   4.210   5.570 -0.1214  1.1306  1.4976
21299SOL    HW268354   5.890   4.172   5.609  0.0981 -0.8437 -0.9533
21300SOL     OW68355   9.429   0.679   1.803 -0.3803  0.0389  0.2085
21300SOL    HW168356   9.357   0.661   1.743 -0.5897 -0.4318  0.5995
21300SOL    HW268357   9.467   0.593   1.823 -0.7108  0.1196  1.2428
21301SOL     OW68358   1.608   7.615   9.281 -0.1694 -0.1229  0.0635
21301SOL    HW168359   1.607   7.543   9.344  0.3839 -0.0035  0.2162
21301SOL    HW268360   1.554   7.585   9.209  2.4845 -2.0183 -1.3355
21302SOL     OW68361   9.194   2.018   6.503  0.1121 -0.4992  0.2142
21302SOL    HW168362   9.249   2.062   6.438 -0.2914 -0.1179  0.1282
21302SOL    HW268363   9.128   2.083   6.526 -2.6368 -2.0903 -2.4343
21303SOL     OW68364   6.055  10.256   9.362 -0.4277 -1.0367  0.2378
21303SOL    HW168365   6.076  10.203   9.285  0.8875 -2.4793  1.4986
21303SOL    HW268366   6.022  10.339   9.327 -1.3307 -2.2044 -1.8332
21304SOL     OW68367   7.410   7.572   5.511  0.2757  0.3783 -0.5200
21304SOL    HW168368   7.458   7.563   5.428  3.0249  0.9508  0.8805
21304SOL    HW268369   7.372   7.660   5.507  1.4507  0.8963 -0.6918
21305SOL     OW68370   2.121   8.434   5.348 -0.3187 -0.5378  0.0095
21305SOL    HW168371   2.161   8.457   5.264 -0.5835  0.7227  0.2050
21305SOL    HW268372   2.064   8.359   5.327  0.9425 -1.3714 -0.5631
21306SOL     OW68373   1.343   1.079   5.700  0.6722 -0.0595 -0.0718
21306SOL    HW168374   1.428   1.062   5.740  0.9856  2.6929  0.6462
21306SOL    HW268375   1.342   1.025   5.621  2.6404 -0.9199  0.4366
21307SOL     OW68376   3.287   4.661   6.928 -0.4554 -0.6346 -1.0577
21307SOL    HW168377   3.311   4.645   7.019  0.9238 -1.6305 -1.5538
21307SOL    HW268378   3.256   4.751   6.926 -1.5021 -0.9222  0.5691
21308SOL     OW68379   7.375   6.617   1.920  0.1067  0.0192  1.1386
21308SOL    HW168380   7.409   6.707   1.922 -0.5336  0.3478 -0.9248
21308SOL    HW268381   7.451   6.562   1.939  0.3176  0.9887  3.4623
21309SOL     OW68382   0.281   1.417   2.715 -0.0607 -0.0396 -0.5921
21309SOL    HW168383   0.324   1.342   2.757 -0.3519 -0.6240 -1.3013
21309SOL    HW268384   0.346   1.451   2.654  0.3196  0.7312  0.2394
21310SOL     OW68385   6.307   1.421   0.431  0.5394 -1.0924 -0.0208
21310SOL    HW168386   6.343   1.457   0.350 -0.3843 -1.1985 -0.4901
21310SOL    HW268387   6.295   1.328   0.412 -0.7951 -0.8986 -0.1757
21311SOL     OW68388   9.834  10.860   1.857  0.2177 -0.0315 -0.3412
21311SOL    HW168389   9.855  10.885   1.947  1.3293 -0.6185 -0.4129
21311SOL    HW268390   9.752  10.905   1.838 -0.8143 -1.0138  1.4550
21312SOL     OW68391  10.086   2.114   1.350  0.0412  1.0012 -0.1791
21312SOL    HW168392  10.176   2.145   1.348  0.3040  0.2444 -1.2668
21312SOL    HW268393  10.040   2.176   1.405  1.2783  1.2593  0.5941
21313SOL     OW68394  10.889   8.606   8.681 -0.5578 -0.7681 -0.3146
21313SOL    HW168395  10.871   8.653   8.763 -0.9657 -1.2233 -0.1348
21313SOL    HW268396  10.958   8.544   8.705  1.3533  0.9797 -1.0066
21314SOL     OW68397   9.423   5.724   8.457  0.1060 -0.0837  0.2442
21314SOL    HW168398   9.392   5.679   8.379  0.1737 -1.2384  0.8506
21314SOL    HW268399   9.373   5.806   8.460  1.6883  1.0571 -2.1825
21315SOL     OW68400   0.051   6.943   5.776 -0.5161  0.4181  0.5447
21315SOL    HW168401   0.116   6.878   5.748 -1.8253 -1.6778  2.0590
21315SOL    HW268402   0.074   6.962   5.866 -1.0159  0.9630  0.5579
21316SOL     OW68403   3.577   1.483   3.035  0.5779 -0.0791  0.9617
21316SOL    HW168404   3.556   1.571   3.005  0.2794 -0.6801 -0.6783
21316SOL    HW268405   3.670   1.473   3.017  0.1528 -0.8780 -1.0644
21317SOL     OW68406   3.415   0.160   1.095 -0.6204  0.1091 -0.2191
21317SOL    HW168407   3.435   0.250   1.067  0.1038  0.3427  0.9814
21317SOL    HW268408   3.423   0.163   1.191 -1.6201 -0.9923 -0.0830
21318SOL     OW68409   2.455   8.408   3.122 -0.2967  0.6579 -0.0888
21318SOL    HW168410   2.514   8.457   3.064  0.8356 -0.1048  0.3780
21318SOL    HW268411   2.402   8.355   3.063  1.6109 -0.9642 -0.4721
21319SOL     OW68412   8.801   3.951   2.979  0.0861  0.5929 -0.4440
21319SOL    HW168413   8.790   3.982   2.889 -0.7565  0.6831 -0.3144
21319SOL    HW268414   8.784   4.028   3.034 -0.2368  0.3430 -0.1862
21320SOL     OW68415   2.577   1.518   0.171 -0.4525  0.5542 -0.5082
21320SOL    HW168416   2.586   1.610   0.145  0.1035  0.5065 -0.4947
21320SOL    HW268417   2.488   1.512   0.207 -0.7324  0.9396 -1.1043
21321SOL     OW68418   4.794   8.748   7.183 -0.3040  0.0709 -0.3027
21321SOL    HW168419   4.777   8.679   7.118  0.6559 -0.2858 -0.1988
21321SOL    HW268420   4.790   8.703   7.267 -2.6457  0.7462 -0.0046
21322SOL     OW68421   6.835   9.496   4.559  0.2293 -0.0775 -0.1051
21322SOL    HW168422   6.746   9.471   4.535  0.3179 -1.5311  0.9322
21322SOL    HW268423   6.852   9.576   4.510 -2.2097  1.1283  0.8956
21323SOL     OW68424  10.369  10.932   5.569  0.0432 -0.0143  0.5657
21323SOL    HW168425  10.359  10.995   5.641 -0.8406 -0.3024  0.6961
21323SOL    HW268426  10.286  10.887   5.564  0.8024 -1.4850  0.7357
21324SOL     OW68427   6.651   2.179   2.381  0.5074 -1.2858 -1.0941
21324SOL    HW168428   6.735   2.139   2.401  0.4108 -1.4663 -1.0463
21324SOL    HW268429   6.658   2.268   2.414  0.5948 -1.3727 -0.8744
21325SOL     OW68430   4.840   9.561   3.255 -0.2757  0.4776 -0.1864
21325SOL    HW168431   4.804   9.500   3.319  0.0289  0.4005 -0.0856
21325SOL    HW268432   4.857   9.641   3.306  1.1292  0.0149  0.1185
21326SOL     OW68433   5.592   8.841   9.598  0.0650 -0.1466 -0.1956
21326SOL    HW168434   5.583   8.825   9.504  0.0100  1.2695 -0.4439
21326SOL    HW268435   5.513   8.890   9.622 -1.1496 -2.5137  1.1081
21327SOL     OW68436   9.568  10.271   8.410  0.3674  0.1443 -0.0448
21327SOL    HW168437   9.632  10.336   8.440  0.8879 -1.0395  1.5775
21327SOL    HW268438   9.621  10.195   8.387 -0.4051 -0.9568  1.5774
21328SOL     OW68439   4.129  10.765   8.478 -0.0029 -0.0481  0.1087
21328SOL    HW168440   4.034  10.781   8.480 -0.3356 -1.8165  0.0880
21328SOL    HW268441   4.162  10.806   8.558 -0.5752  1.6531 -0.4830
21329SOL     OW68442   2.505   2.567   3.066 -0.0465  0.2720  0.4065
21329SOL    HW168443   2.458   2.558   3.149 -1.2395 -2.1243 -0.4227
21329SOL    HW268444   2.595   2.544   3.086 -0.3167 -0.2489  1.0716
21330SOL     OW68445   2.577   8.077   5.557  0.5828 -0.2032 -0.0718
21330SOL    HW168446   2.498   8.091   5.610 -1.1468 -4.4395 -1.1626
21330SOL    HW268447   2.550   8.101   5.469  0.6594 -1.1394 -0.3575
21331SOL     OW68448   7.472   0.944   5.689 -0.0007 -0.7721 -0.0448
21331SOL    HW168449   7.542   0.890   5.652  0.4667 -0.7952  0.8462
21331SOL    HW268450   7.409   0.954   5.617  0.8638 -0.8302 -0.8254
21332SOL     OW68451   0.293   6.000   2.431  0.1849 -0.0724 -0.3604
21332SOL    HW168452   0.339   6.059   2.490 -0.3294  0.5752 -0.5946
21332SOL    HW268453   0.353   5.926   2.419 -0.8001 -1.6049  3.1547
21333SOL     OW68454   3.123   3.501   1.704 -0.1293  0.7854 -0.0591
21333SOL    HW168455   3.119   3.583   1.753 -0.5147  0.4890  0.4237
21333SOL    HW268456   3.036   3.462   1.717  0.2400  0.0336  0.1969
21334SOL     OW68457   9.418   1.217   6.581 -0.5348  0.2992 -0.2202
21334SOL    HW168458   9.341   1.251   6.534  0.0433  1.6663 -0.2239
21334SOL    HW268459   9.420   1.267   6.662  1.2260  1.4353 -0.9157
21335SOL     OW68460   3.997   0.524   9.049 -0.1573 -0.3856  0.2641
21335SOL    HW168461   3.911   0.498   9.016 -0.0416  0.0154 -0.3808
21335SOL    HW268462   4.047   0.442   9.051 -0.2751 -0.4754 -0.2433
21336SOL     OW68463   4.010   8.008  10.905  0.1637 -0.1856 -0.2312
21336SOL    HW168464   4.068   8.052  10.968 -0.9460  0.7618  0.1535
21336SOL    HW268465   4.051   7.923  10.892  1.5638  0.3865  0.1522
21337SOL     OW68466   4.629  11.020   7.013 -0.1068 -0.0087 -0.2400
21337SOL    HW168467   4.544  11.023   7.055  0.4733  0.6109  0.9170
21337SOL    HW268468   4.610  11.028   6.919 -1.1831  3.4675  0.1175
21338SOL     OW68469   3.942   5.411   8.689  0.5021 -0.0123 -0.3029
21338SOL    HW168470   4.002   5.394   8.761  0.1094 -2.2593 -0.4368
21338SOL    HW268471   3.976   5.491   8.647  3.8588 -1.5552 -0.8251
21339SOL     OW68472   8.844   9.493  10.497 -0.6141  0.2063  0.3680
21339SOL    HW168473   8.775   9.550  10.531 -2.5798 -0.8922 -1.4738
21339SOL    HW268474   8.870   9.532  10.414  0.9161  0.5026  0.9524
21340SOL     OW68475   4.870   4.643   1.409 -0.1374 -0.6415  0.7175
21340SOL    HW168476   4.962   4.671   1.404 -0.1079 -0.7909  0.3587
21340SOL    HW268477   4.839   4.647   1.318 -1.4589  2.6155  1.1830
21341SOL     OW68478   1.007   9.595   8.808  0.3015 -0.2251  0.2438
21341SOL    HW168479   1.062   9.522   8.835  0.7141  0.4396  1.2638
21341SOL    HW268480   1.060   9.644   8.745  0.5501 -0.0674  0.5721
21342SOL     OW68481  10.400   4.920   5.996  0.1406 -0.6998  0.2454
21342SOL    HW168482  10.470   4.922   5.932 -0.0230 -0.0322  0.0814
21342SOL    HW268483  10.392   4.828   6.021 -0.9921 -1.2783 -2.0155
21343SOL     OW68484   9.727   1.667   3.845 -0.4223 -0.2620 -0.0263
21343SOL    HW168485   9.787   1.736   3.875 -0.0116 -0.5898 -0.0890
21343SOL    HW268486   9.670   1.650   3.920 -0.8137  0.4512 -0.1496
21344SOL     OW68487   9.851   5.062  10.362 -0.1901 -0.1642 -0.0223
21344SOL    HW168488   9.812   5.016  10.436 -2.2176  1.9264  0.3289
21344SOL    HW268489   9.913   5.123  10.402  0.8112 -0.9653 -0.3095
21345SOL     OW68490   8.531   7.057   3.565  0.0369  0.0291  0.4264
21345SOL    HW168491   8.445   7.051   3.606  0.3910 -3.1105  0.9622
21345SOL    HW268492   8.570   7.136   3.602 -2.2167  0.9894  0.9122
21346SOL     OW68493  10.359   4.438   7.767 -0.3050  0.7239  0.6301
21346SOL    HW168494  10.270   4.411   7.792  0.1988  0.5584  2.3495
21346SOL    HW268495  10.398   4.361   7.727 -1.3736  1.2013 -1.4669
21347SOL     OW68496   4.835   4.562   3.370 -0.3824  0.4952  0.0861
21347SOL    HW168497   4.872   4.640   3.329  3.1060  0.1113  2.1179
21347SOL    HW268498   4.784   4.595   3.444  1.1481  0.9138  0.9875
21348SOL     OW68499  10.145   4.212   1.372 -0.2198  0.1693 -0.2128
21348SOL    HW168500  10.216   4.217   1.436  0.6291 -1.5835 -0.9505
21348SOL    HW268501  10.189   4.224   1.287 -1.4775  3.7160 -0.5248
21349SOL     OW68502   3.554   6.387   7.833 -0.9367  0.2288  0.4656
21349SOL    HW168503   3.535   6.361   7.923 -1.1516  1.5344  0.8118
21349SOL    HW268504   3.467   6.404   7.795 -0.9867 -1.7809 -0.4928
21350SOL     OW68505   6.589   7.915   5.207  0.2356 -0.5129 -0.5895
21350SOL    HW168506   6.606   7.931   5.299 -1.8143 -1.2811 -0.0399
21350SOL    HW268507   6.652   7.846   5.183  0.4009 -0.7119  0.3817
21351SOL     OW68508   4.623   6.889   0.693 -0.0465  0.6564 -0.1402
21351SOL    HW168509   4.569   6.895   0.771 -1.0348 -0.7040 -0.6664
21351SOL    HW268510   4.670   6.972   0.689 -0.8458  1.2051  1.2522
21352SOL     OW68511   2.283   5.689   2.061 -0.0980 -0.1723 -0.2639
21352SOL    HW168512   2.223   5.629   2.019 -0.4390  0.2338 -0.3589
21352SOL    HW268513   2.370   5.662   2.030 -0.2883 -0.3032 -0.6870
21353SOL     OW68514  10.900   9.394   2.286  0.0047 -0.1718  0.2954
21353SOL    HW168515  10.832   9.459   2.301  0.2287  0.1671 -0.1461
21353SOL    HW268516  10.961   9.436   2.225 -0.4372 -1.1995 -0.8933
21354SOL     OW68517   6.236   4.074   6.461  0.4197  0.3079  0.2886
21354SOL    HW168518   6.268   4.145   6.405 -0.7231 -1.0804 -2.3291
21354SOL    HW268519   6.294   4.001   6.442 -1.2184 -0.7930 -0.7782
21355SOL     OW68520   4.024   5.185   9.084  0.1317 -0.3719  0.2861
21355SOL    HW168521   4.077   5.144   9.016  0.7224  0.1220  0.4397
21355SOL    HW268522   3.998   5.112   9.140 -2.4990 -1.2052 -1.8090
21356SOL     OW68523   5.109   4.997   3.505  0.3703  0.0278 -0.2016
21356SOL    HW168524   5.031   5.052   3.512  0.0539 -0.3221 -0.8520
21356SOL    HW268525   5.182   5.056   3.525 -0.0030  0.5458 -0.3474
21357SOL     OW68526   9.457   1.579  11.001  0.4892 -0.5359  0.0790
21357SOL    HW168527   9.482   1.629  10.923 -0.0526 -1.2334 -0.5569
21357SOL    HW268528   9.496   1.493  10.988 -1.7518 -1.5087 -0.7174
21358SOL     OW68529   4.631   3.141   6.157 -0.1622 -0.2624  0.6926
21358SOL    HW168530   4.696   3.204   6.185  0.3045  0.1257 -1.1370
21358SOL    HW268531   4.675   3.056   6.161  0.1892 -0.0999  0.2466
21359SOL     OW68532   9.243   4.250   9.369 -0.0798  0.1604 -0.2994
21359SOL    HW168533   9.300   4.173   9.371  0.8248  0.8212 -0.1547
21359SOL    HW268534   9.218   4.258   9.277 -1.5069 -1.2349 -0.0838
21360SOL     OW68535  10.094   3.457  10.679 -0.4545 -0.5313  0.2641
21360SOL    HW168536  10.165   3.511  10.644 -1.5477  0.4270 -0.5647
21360SOL    HW268537  10.051   3.513  10.744 -0.9314 -0.8066  0.1899
21361SOL     OW68538   6.088   0.688   2.366  0.3627  0.2569  0.2495
21361SOL    HW168539   6.051   0.770   2.335  1.0981  0.0146 -1.3803
21361SOL    HW268540   6.050   0.621   2.309  1.3041 -0.2829  0.2252
21362SOL     OW68541   4.149   6.880   1.167 -0.1643 -0.5456  0.0020
21362SOL    HW168542   4.165   6.820   1.240 -1.5906 -1.0704 -0.0809
21362SOL    HW268543   4.085   6.943   1.200  1.6274  1.2501  0.2246
21363SOL     OW68544   1.693   1.937   1.630 -0.2933 -0.8802  0.1285
21363SOL    HW168545   1.720   1.855   1.589 -0.2144 -0.8493  0.1199
21363SOL    HW268546   1.717   1.926   1.722 -1.3611 -1.3498  0.3696
21364SOL     OW68547   7.914   4.212   7.826 -0.0792  0.0184  0.3843
21364SOL    HW168548   7.849   4.193   7.893  0.6593  0.2591  1.1809
21364SOL    HW268549   7.866   4.201   7.743 -1.6471  1.9647  0.9516
21365SOL     OW68550   5.887   0.553   1.420  0.1040  0.6567  0.2795
21365SOL    HW168551   5.813   0.519   1.472  1.5463 -1.3406  1.1652
21365SOL    HW268552   5.959   0.560   1.483  0.7780  2.3711 -0.6103
21366SOL     OW68553   1.182   3.943   4.115  0.0508 -0.5749 -0.0871
21366SOL    HW168554   1.273   3.931   4.144  0.7840  0.1144 -1.9334
21366SOL    HW268555   1.189   3.952   4.020 -1.8295  0.7536 -0.1409
21367SOL     OW68556  10.911   3.558   5.398  0.0868  0.1267  0.5508
21367SOL    HW168557  10.923   3.478   5.450  0.9472  0.7148  1.3020
21367SOL    HW268558  10.830   3.544   5.350  0.0332 -1.0471  0.9510
21368SOL     OW68559   0.531  10.107  10.573  0.2516 -0.3288  0.3924
21368SOL    HW168560   0.498  10.167  10.641 -0.6336 -2.1310  1.6525
21368SOL    HW268561   0.476  10.125  10.497 -0.4072  0.0589  0.9418
21369SOL     OW68562  10.222   2.050   4.485  0.3874 -0.1242  0.0106
21369SOL    HW168563  10.162   1.976   4.486 -1.7660  1.4928 -0.1315
21369SOL    HW268564  10.264   2.047   4.400 -1.5727  0.1670 -1.0206
21370SOL     OW68565   3.332   3.348  10.041  0.0947  0.4369 -0.1980
21370SOL    HW168566   3.349   3.255  10.032 -0.2290  0.1419  1.8327
21370SOL    HW268567   3.251   3.362   9.990 -1.0724 -0.8450  1.2200
21371SOL     OW68568   6.149  10.445  10.648  0.2080 -0.3606  0.3814
21371SOL    HW168569   6.111  10.463  10.734 -0.0172  0.4533  0.1212
21371SOL    HW268570   6.098  10.499  10.587 -0.0245 -1.3701 -0.3508
21372SOL     OW68571   5.114   4.944   4.009 -0.0238 -0.4733  0.1646
21372SOL    HW168572   5.144   4.899   3.930  1.3930  2.7840 -1.3383
21372SOL    HW268573   5.181   5.011   4.025 -0.8691 -0.2564  3.5015
21373SOL     OW68574   2.534   6.140   4.434  0.0254  0.0672  0.1552
21373SOL    HW168575   2.548   6.103   4.522  2.2886 -2.5578 -1.1410
21373SOL    HW268576   2.492   6.069   4.385 -1.2969  1.5267 -0.9179
21374SOL     OW68577   4.255   5.211   0.188  0.2379  0.3995 -0.0361
21374SOL    HW168578   4.174   5.224   0.237  0.7493 -0.5357  1.1188
21374SOL    HW268579   4.268   5.116   0.188  1.0179  0.4956 -0.7255
21375SOL     OW68580   9.237   4.605   7.175  0.0875  0.3074 -0.3026
21375SOL    HW168581   9.192   4.627   7.257 -0.5099  0.6503 -0.7142
21375SOL    HW268582   9.206   4.517   7.155  0.9666 -0.1603  0.3228
21376SOL     OW68583  10.485   6.121   2.055  0.1423  0.4076 -0.4931
21376SOL    HW168584  10.409   6.149   2.106  0.0911 -1.6945  0.6939
21376SOL    HW268585  10.553   6.103   2.120 -0.1983 -3.2337 -0.9282
21377SOL     OW68586   7.956   2.052   4.795 -0.2012  0.0358  0.0372
21377SOL    HW168587   7.919   1.963   4.792 -2.8200  1.0403 -0.4189
21377SOL    HW268588   7.957   2.073   4.889 -1.2087  0.1196  0.0421
21378SOL     OW68589   3.699   3.352   6.322  0.4400  0.0371  0.3261
21378SOL    HW168590   3.730   3.409   6.251  1.3152  0.3745  0.9611
21378SOL    HW268591   3.761   3.366   6.393  0.1738 -1.0746  0.8030
21379SOL     OW68592   1.444   9.290   9.365 -0.6994  0.4132  0.2983
21379SOL    HW168593   1.500   9.331   9.300  3.1327 -2.5503  1.3297
21379SOL    HW268594   1.479   9.318   9.449 -0.2537 -1.9807  0.9905
21380SOL     OW68595   7.457   1.816   0.587  0.4311 -0.2750 -0.1429
21380SOL    HW168596   7.488   1.902   0.560  0.9291 -0.7458 -1.1521
21380SOL    HW268597   7.381   1.834   0.642 -0.0434  0.8052 -1.0929
21381SOL     OW68598   9.100   1.408   8.705 -0.0767  0.1195 -0.0645
21381SOL    HW168599   9.139   1.334   8.659 -1.1869  0.8071 -2.2321
21381SOL    HW268600   9.171   1.471   8.712  0.7631 -0.9219  1.4222
21382SOL     OW68601   5.664   4.243  10.725  0.1116 -0.0260  0.2008
21382SOL    HW168602   5.752   4.239  10.763  0.0112 -0.6654  0.3788
21382SOL    HW268603   5.619   4.312  10.775  0.4725  0.2281  0.1809
21383SOL     OW68604   9.270   2.402   9.292  0.2380  0.1134  0.3177
21383SOL    HW168605   9.236   2.447   9.369 -1.7012  0.1794 -0.5322
21383SOL    HW268606   9.226   2.317   9.292 -0.4348  0.4449 -1.1577
21384SOL     OW68607   3.474   5.527   3.414  0.0481 -0.1702 -0.3263
21384SOL    HW168608   3.496   5.468   3.486  0.9596  2.3451  1.5534
21384SOL    HW268609   3.407   5.585   3.449 -0.6592  0.1182 -2.0444
21385SOL     OW68610   4.614   2.939   5.110 -0.5266 -0.8073  0.3209
21385SOL    HW168611   4.620   3.033   5.128  1.0133 -0.7844 -0.1940
21385SOL    HW268612   4.580   2.934   5.021 -1.0312 -0.7580  0.5066
21386SOL     OW68613   0.547   2.736  10.599 -0.0389 -0.7231  0.2387
21386SOL    HW168614   0.603   2.724  10.522  0.9813 -0.0278  0.8465
21386SOL    HW268615   0.465   2.771  10.563  0.4135 -0.4241 -0.5359
21387SOL     OW68616   2.201   2.805   8.266  0.2992 -0.2002 -0.4367
21387SOL    HW168617   2.258   2.765   8.201  1.4553 -0.3657  0.6374
21387SOL    HW268618   2.161   2.732   8.312  1.9023 -0.1786  1.0854
21388SOL     OW68619   0.842   2.400  11.048  0.2629 -0.2826  0.2203
21388SOL    HW168620   0.892   2.481  11.053  1.3166 -0.9747  1.9402
21388SOL    HW268621   0.775   2.410  11.116 -0.7173 -0.1630 -0.7422
21389SOL     OW68622   9.627   1.272   6.091 -0.0268 -0.4087 -0.1353
21389SOL    HW168623   9.670   1.222   6.160 -3.1857 -1.5508  1.2196
21389SOL    HW268624   9.676   1.251   6.012  2.2995 -0.9343  1.3440
21390SOL     OW68625   6.192   2.402   0.713  0.3234  0.3270 -0.0685
21390SOL    HW168626   6.149   2.332   0.762 -0.1897  1.0223  0.5118
21390SOL    HW268627   6.160   2.483   0.755  1.2353  0.8918 -0.4358
21391SOL     OW68628   9.664   4.438   9.308  0.3020 -0.1755  0.0744
21391SOL    HW168629   9.732   4.452   9.374 -0.2385 -0.5177  0.7241
21391SOL    HW268630   9.606   4.374   9.348 -0.3649  0.0597 -0.5044
21392SOL     OW68631  10.379   4.303   3.363 -0.3416 -0.1150  0.0769
21392SOL    HW168632  10.305   4.288   3.303 -0.2394  0.6675 -0.2572
21392SOL    HW268633  10.385   4.222   3.414 -0.8518 -0.5431 -0.5197
21393SOL     OW68634   5.004   1.704   8.193  0.0283 -0.1251 -0.0497
21393SOL    HW168635   5.011   1.609   8.192 -0.1980 -0.1459  0.1966
21393SOL    HW268636   4.986   1.726   8.284  1.4743  0.2535  0.1708
21394SOL     OW68637   4.454   6.356   2.032  0.4671  0.0847  0.1099
21394SOL    HW168638   4.516   6.283   2.032 -1.8229 -1.9721  0.0776
21394SOL    HW268639   4.368   6.315   2.033 -0.9532  2.8088 -0.3073
21395SOL     OW68640   7.961   1.648   5.094  0.2922  0.2968  0.0952
21395SOL    HW168641   7.925   1.626   5.180  1.3039  0.0213  0.4602
21395SOL    HW268642   8.055   1.649   5.107  0.5354 -0.9351 -1.2864
21396SOL     OW68643   8.593   8.266   8.293 -0.5196  0.7729  0.0862
21396SOL    HW168644   8.553   8.198   8.347 -0.1249  0.3077 -0.1918
21396SOL    HW268645   8.670   8.294   8.342 -0.8442  1.2330  0.3386
21397SOL     OW68646   8.464   8.439  10.036 -0.2384  0.3964 -0.0113
21397SOL    HW168647   8.404   8.499   9.991 -0.9154  0.3434  0.7950
21397SOL    HW268648   8.407   8.382  10.087  0.5066  0.6740  1.1778
21398SOL     OW68649   2.842   5.268   1.664  0.6652 -0.3760  0.0732
21398SOL    HW168650   2.933   5.264   1.695  0.6329 -1.9094  0.0214
21398SOL    HW268651   2.809   5.179   1.675 -1.7071  0.6770  2.5713
21399SOL     OW68652   7.619   1.535   7.756 -1.0467  0.5878 -0.7755
21399SOL    HW168653   7.653   1.466   7.699 -3.5633 -1.1314 -0.3315
21399SOL    HW268654   7.631   1.501   7.844 -1.7920  0.9720 -0.5204
21400SOL     OW68655   5.514   7.435  10.149 -0.0237 -0.3644 -0.1313
21400SOL    HW168656   5.544   7.369  10.086  1.8347  1.4347 -1.2548
21400SOL    HW268657   5.469   7.500  10.095 -2.2594 -0.8484  1.0133
21401SOL     OW68658   9.189   8.602   8.096 -0.5291 -0.4894  0.0512
21401SOL    HW168659   9.235   8.565   8.172 -1.0945 -1.1864  0.0701
21401SOL    HW268660   9.240   8.679   8.072  0.0202 -0.6231  0.7466
21402SOL     OW68661   6.969   2.303   3.610  0.1600 -0.0833  0.1883
21402SOL    HW168662   7.025   2.365   3.564 -0.2427  0.2078  0.0862
21402SOL    HW268663   6.886   2.349   3.621 -0.3121 -0.7927 -0.3507
21403SOL     OW68664   3.523   0.485   0.307 -0.4586 -0.5528 -0.0664
21403SOL    HW168665   3.440   0.476   0.355  0.5435 -0.0825  1.8787
21403SOL    HW268666   3.526   0.578   0.284 -0.5099 -0.5874 -0.2121
21404SOL     OW68667   4.954   9.958   8.892  0.1987  0.0084 -0.0282
21404SOL    HW168668   4.895   9.996   8.828  1.7654 -0.9420 -2.1379
21404SOL    HW268669   4.987   9.878   8.851  3.3592  0.7576  0.7778
21405SOL     OW68670   0.187   6.570   8.546 -0.1505  0.7738  0.1997
21405SOL    HW168671   0.267   6.564   8.495 -0.1210  1.8453  0.1135
21405SOL    HW268672   0.128   6.506   8.505  0.1775  0.9848 -0.6044
21406SOL     OW68673  10.996   1.807   2.810  0.2972  0.5238 -0.0425
21406SOL    HW168674  10.963   1.779   2.725 -0.0255 -0.7330  0.4640
21406SOL    HW268675  11.060   1.741   2.834 -1.1208 -0.3537  1.5999
21407SOL     OW68676   9.838   7.589   4.754 -0.2065  0.0219  0.0257
21407SOL    HW168677   9.875   7.521   4.810 -1.0230  0.9208  1.7106
21407SOL    HW268678   9.746   7.563   4.743  0.0500 -0.4213 -1.3882
21408SOL     OW68679   5.013   1.165   7.136  0.1610 -0.1512  0.0043
21408SOL    HW168680   5.015   1.171   7.040 -3.2954  0.3571 -0.1632
21408SOL    HW268681   4.936   1.112   7.155 -0.4113  1.4140  2.5075
21409SOL     OW68682   4.406   5.341   2.591  0.1835 -0.5068  0.2342
21409SOL    HW168683   4.402   5.434   2.611 -0.3742 -0.0863 -1.6507
21409SOL    HW268684   4.428   5.337   2.498  1.6265 -2.2967  0.5858
21410SOL     OW68685   5.241   9.861   1.348  0.7554 -0.4726 -0.0957
21410SOL    HW168686   5.171   9.856   1.412  0.3260  1.3669 -0.3839
21410SOL    HW268687   5.261   9.954   1.340  0.6251 -0.6015 -2.8014
21411SOL     OW68688   2.449   4.611   9.194  0.2993  0.3832  0.6565
21411SOL    HW168689   2.404   4.592   9.276  0.2704  0.6856  0.7106
21411SOL    HW268690   2.396   4.679   9.153 -0.3717 -0.6271 -0.1971
21412SOL     OW68691   1.598   4.980  10.334 -0.2865  0.0591 -0.5727
21412SOL    HW168692   1.628   5.042  10.400  0.6255 -0.3798 -0.5606
21412SOL    HW268693   1.642   5.006  10.253  0.8942 -1.1327 -0.3561
21413SOL     OW68694   8.771   7.928   9.234 -0.5787  0.1894 -0.5714
21413SOL    HW168695   8.817   8.011   9.227 -1.9138  0.9623 -0.4294
21413SOL    HW268696   8.718   7.936   9.313 -0.8030 -0.7639 -0.6110
21414SOL     OW68697   4.394   7.645   1.521 -0.0772  0.3326 -0.3883
21414SOL    HW168698   4.384   7.739   1.505  0.1778  0.1057 -2.0589
21414SOL    HW268699   4.484   7.635   1.553 -0.6634  0.8250  1.5549
21415SOL     OW68700   4.553   2.379   8.369  0.5478  0.0031 -1.0158
21415SOL    HW168701   4.593   2.355   8.285  0.7509  1.0484 -1.2271
21415SOL    HW268702   4.460   2.392   8.349  0.4175 -0.6480 -0.8807
21416SOL     OW68703   7.405   4.436   8.957  0.0593  0.1312 -0.0511
21416SOL    HW168704   7.435   4.345   8.952  2.3805  0.8633 -0.5059
21416SOL    HW268705   7.404   4.455   9.051  2.4430  0.4321 -0.0060
21417SOL     OW68706   8.256   2.244   7.832 -0.4183 -0.2534  0.1970
21417SOL    HW168707   8.230   2.247   7.739 -1.8685 -0.4644  0.5719
21417SOL    HW268708   8.222   2.160   7.863  1.8766 -1.1876  0.4472
21418SOL     OW68709   7.633   3.910  10.316 -0.2214 -0.5014 -0.1793
21418SOL    HW168710   7.678   3.826  10.309  1.1027  0.2706 -1.3168
21418SOL    HW268711   7.541   3.889  10.301  0.4449 -1.3311 -4.5539
21419SOL     OW68712   2.946   2.240   3.553 -0.0928 -0.3800 -0.5395
21419SOL    HW168713   2.947   2.172   3.620  1.4140 -0.4345 -0.5944
21419SOL    HW268714   2.923   2.193   3.472  2.6070 -1.2168 -0.9133
21420SOL     OW68715   8.509   0.091   0.041 -0.4552  0.0516  0.1812
21420SOL    HW168716   8.459   0.173   0.050  1.0375  1.1352 -0.8118
21420SOL    HW268717   8.462   0.028   0.096 -2.4004  1.2135 -0.0453
21421SOL     OW68718   6.160   2.202   1.724  0.2514  0.2163 -0.2708
21421SOL    HW168719   6.182   2.294   1.740 -1.4520  0.7686 -0.8360
21421SOL    HW268720   6.176   2.189   1.631  0.2636  0.0080 -0.2397
21422SOL     OW68721   6.555   2.858   6.674 -0.3233 -0.0976 -0.1352
21422SOL    HW168722   6.515   2.876   6.759 -3.2679  0.6842 -1.5599
21422SOL    HW268723   6.531   2.933   6.620  1.8539 -0.3592 -1.5893
21423SOL     OW68724   6.467   9.940   7.163 -0.0478  0.6014 -0.0185
21423SOL    HW168725   6.494   9.981   7.244 -0.8466  1.5811 -0.2238
21423SOL    HW268726   6.461  10.012   7.100 -0.0278 -0.0472 -0.7840
21424SOL     OW68727   3.782   4.870   8.793  0.4028  1.0416  0.1055
21424SOL    HW168728   3.869   4.832   8.800 -1.3364 -3.8855 -1.1366
21424SOL    HW268729   3.751   4.878   8.883  1.2963  0.5366  0.4650
21425SOL     OW68730   5.774   7.037   9.769  0.0110 -0.0140 -0.1126
21425SOL    HW168731   5.818   6.968   9.719 -2.4122 -1.8974  0.1295
21425SOL    HW268732   5.801   7.022   9.859  0.9933  0.6203 -0.2880
21426SOL     OW68733   5.441   0.531   3.362 -0.1647  0.7437  0.3172
21426SOL    HW168734   5.485   0.449   3.383 -0.9598  0.2606  0.1609
21426SOL    HW268735   5.450   0.540   3.267  1.1287  1.5680  0.4927
21427SOL     OW68736   4.187   7.455   1.262 -0.6793 -0.1909  0.3288
21427SOL    HW168737   4.160   7.400   1.335 -1.6549 -0.9386 -0.5742
21427SOL    HW268738   4.281   7.441   1.255 -0.8086 -1.2216  0.5450
21428SOL     OW68739   3.180   0.760   4.016 -0.8514  0.4669 -0.2389
21428SOL    HW168740   3.162   0.827   3.951 -0.2530 -0.6385 -1.5968
21428SOL    HW268741   3.168   0.804   4.100  0.2774  2.4775 -1.0585
21429SOL     OW68742   0.413   2.857   2.914  0.1203  0.0839  0.2891
21429SOL    HW168743   0.343   2.920   2.934  0.7604  0.9849 -0.2273
21429SOL    HW268744   0.388   2.778   2.961  0.1161  1.2111  2.3115
21430SOL     OW68745   8.281   0.659   8.700  0.2881 -0.0291 -0.3906
21430SOL    HW168746   8.330   0.741   8.712 -0.9376  0.5608  0.8681
21430SOL    HW268747   8.190   0.683   8.717 -0.2591 -1.4124 -1.2193
21431SOL     OW68748   3.077   2.443   5.534 -0.0925 -0.0157  0.4629
21431SOL    HW168749   3.114   2.481   5.455  0.7920  0.2149  0.9595
21431SOL    HW268750   3.110   2.353   5.535 -0.8196 -0.2901  0.1304
21432SOL     OW68751   5.356   6.963   9.339 -0.0147 -0.0211  0.2583
21432SOL    HW168752   5.329   7.045   9.298 -0.3953 -0.8396 -1.2393
21432SOL    HW268753   5.424   6.928   9.281  1.4442  0.0690  1.8361
21433SOL     OW68754   4.418  10.093   5.847  0.0678 -0.8258 -0.5369
21433SOL    HW168755   4.387  10.021   5.791 -1.1034  0.3670 -1.4870
21433SOL    HW268756   4.454  10.157   5.786  1.6812 -0.8453  0.3484
21434SOL     OW68757  10.698  10.226  11.040  0.1709 -0.3229  0.7904
21434SOL    HW168758  10.696  10.145  11.091  1.2918  0.1041  1.5592
21434SOL    HW268759  10.681  10.295  11.104  3.0177  0.3511  0.9588
21435SOL     OW68760   8.375   6.302   2.903  0.3175  0.3069 -0.8634
21435SOL    HW168761   8.294   6.326   2.948  1.0546  2.3533 -0.5272
21435SOL    HW268762   8.390   6.211   2.929 -1.4792  0.1022 -0.3735
21436SOL     OW68763  10.869   7.489   3.987  0.4125 -0.7267 -0.1356
21436SOL    HW168764  10.851   7.433   3.912 -0.4224 -0.9970  0.2560
21436SOL    HW268765  10.787   7.536   4.003  0.7005 -0.3661  0.3592
21437SOL     OW68766   0.263   9.640   1.223  0.0200  0.2780  0.2443
21437SOL    HW168767   0.178   9.647   1.266  0.0506  2.3311  0.0541
21437SOL    HW268768   0.265   9.550   1.190 -0.9397 -0.6838  2.5252
21438SOL     OW68769   1.031   8.215   8.231 -0.4797 -0.2771  0.5234
21438SOL    HW168770   0.976   8.159   8.285 -0.8893 -1.1432 -0.7500
21438SOL    HW268771   0.981   8.227   8.150  1.1385 -0.9751 -0.6199
21439SOL     OW68772   3.389   2.551   5.891 -0.4365 -0.2204  0.4155
21439SOL    HW168773   3.427   2.517   5.810 -0.3092 -0.2261  0.4767
21439SOL    HW268774   3.303   2.509   5.897 -1.9318  2.3162 -1.4402
21440SOL     OW68775   0.446   1.042  10.064 -0.5483 -0.0842  0.1111
21440SOL    HW168776   0.362   0.997  10.054 -0.6586  0.2691 -0.6681
21440SOL    HW268777   0.450   1.065  10.157 -0.6908 -1.2882  0.4361
21441SOL     OW68778   2.471   4.862   3.615  0.1023 -0.5056  0.5301
21441SOL    HW168779   2.460   4.775   3.655  1.1070 -1.0426 -0.3068
21441SOL    HW268780   2.538   4.905   3.668  0.7820 -0.8737 -0.0173
21442SOL     OW68781   0.095   8.199   2.644  0.1360 -0.1196 -0.0415
21442SOL    HW168782   0.174   8.236   2.605  0.4274 -0.0642  0.5964
21442SOL    HW268783   0.082   8.116   2.598 -0.8340  0.9746 -1.8973
21443SOL     OW68784   4.243   8.450   9.870 -0.2709 -0.0609 -0.6555
21443SOL    HW168785   4.205   8.496   9.796 -1.1544  0.8773  0.3508
21443SOL    HW268786   4.310   8.509   9.904  0.7545 -0.8637 -1.2065
21444SOL     OW68787   4.460   5.799   5.173  0.4618 -0.3579 -0.0464
21444SOL    HW168788   4.538   5.774   5.123  0.3395  0.4315 -0.6473
21444SOL    HW268789   4.485   5.785   5.264  1.0368 -0.8564 -0.2742
21445SOL     OW68790   3.121   3.131   5.267  0.2117 -0.0379 -0.7208
21445SOL    HW168791   3.213   3.139   5.294 -0.2263 -1.2798  1.3711
21445SOL    HW268792   3.104   3.037   5.270 -1.5328  0.2780  0.4052
21446SOL     OW68793   7.627   2.867   5.808  0.0805 -0.4188  0.0649
21446SOL    HW168794   7.717   2.881   5.837 -0.1008 -0.2333  0.5462
21446SOL    HW268795   7.603   2.949   5.764  0.5503 -0.9106 -1.1396
21447SOL     OW68796   6.789   8.420   4.058  0.6005 -0.6169 -0.0760
21447SOL    HW168797   6.809   8.505   4.097  1.2697 -1.2552  1.0370
21447SOL    HW268798   6.721   8.438   3.993  0.2511  0.6691  0.6136
21448SOL     OW68799   0.995   2.925   7.020 -0.8115 -0.0963 -0.4728
21448SOL    HW168800   1.008   3.011   6.980 -3.5101  0.2982 -0.7270
21448SOL    HW268801   0.957   2.871   6.950 -1.5428 -0.6984  0.3546
21449SOL     OW68802   2.217   2.735   5.588 -0.0124  0.5912 -0.3040
21449SOL    HW168803   2.222   2.639   5.585 -0.2923  0.5948 -0.9561
21449SOL    HW268804   2.123   2.754   5.591  0.0529  0.8249  0.8378
21450SOL     OW68805   9.144   8.409   9.964 -0.4403 -0.6330 -0.0438
21450SOL    HW168806   9.080   8.366  10.020 -1.2188 -1.7847 -1.7355
21450SOL    HW268807   9.224   8.358   9.975 -0.5371 -0.7482  0.1262
21451SOL     OW68808   8.176   4.273   1.053  0.0348  0.0731 -0.6841
21451SOL    HW168809   8.119   4.295   1.126 -0.7277  0.5068 -1.3921
21451SOL    HW268810   8.259   4.317   1.073 -0.3923  0.7722 -0.4240
21452SOL     OW68811   9.701   7.785   1.825 -0.1098  0.0039 -0.1145
21452SOL    HW168812   9.742   7.869   1.845  1.6394 -0.4568 -1.5144
21452SOL    HW268813   9.607   7.801   1.834  0.2541  1.6878  1.0747
21453SOL     OW68814   7.808   1.982   7.826  0.1614  0.3793 -0.0836
21453SOL    HW168815   7.754   1.929   7.767  1.3689 -1.4795  0.3748
21453SOL    HW268816   7.769   1.967   7.913 -0.5514  1.6951 -0.1590
21454SOL     OW68817   4.165   6.770   9.530  0.0284  0.2692  0.3464
21454SOL    HW168818   4.243   6.822   9.512  0.3192  0.1554  1.2414
21454SOL    HW268819   4.198   6.690   9.571 -0.4627 -0.3406 -0.4110
21455SOL     OW68820   8.627   8.587   3.994 -0.5479 -0.6177  0.2733
21455SOL    HW168821   8.669   8.622   4.072  0.3923 -1.3520  0.1085
21455SOL    HW268822   8.657   8.642   3.922 -2.1749  0.6678  0.5287
21456SOL     OW68823   0.759   1.871   8.001 -0.0280  0.2659 -0.3818
21456SOL    HW168824   0.725   1.933   7.937  2.5594  0.1180 -2.0097
21456SOL    HW268825   0.719   1.787   7.977 -1.1837  0.7000 -0.0445
21457SOL     OW68826   2.940   1.639   9.598 -0.1056  0.0287  0.1484
21457SOL    HW168827   3.026   1.597   9.601  0.0167  0.1776 -0.7647
21457SOL    HW268828   2.879   1.567   9.585 -0.0925 -0.0497  0.5132
21458SOL     OW68829   4.626   5.900   7.194  0.6091 -0.1661  0.1837
21458SOL    HW168830   4.720   5.888   7.210  1.2041  0.8509 -2.2022
21458SOL    HW268831   4.594   5.812   7.174  0.8574 -0.6413  1.7350
21459SOL     OW68832   6.235   4.863   0.299  0.1713  0.5005  0.2798
21459SOL    HW168833   6.328   4.850   0.280  0.9850  2.9582  2.1580
21459SOL    HW268834   6.211   4.789   0.355  1.8550  1.3460  2.2437
21460SOL     OW68835   5.372   8.704   5.869  0.9554 -0.3618  0.3969
21460SOL    HW168836   5.459   8.710   5.908  1.5909 -0.1876 -0.9897
21460SOL    HW268837   5.378   8.756   5.789 -0.4503 -0.2783  0.3264
21461SOL     OW68838  10.849   7.503   4.610  0.4683 -0.0361  0.0145
21461SOL    HW168839  10.863   7.578   4.552  0.4986  0.5412  0.7558
21461SOL    HW268840  10.905   7.434   4.574  0.4788  0.3106 -0.6468
21462SOL     OW68841   9.384   6.524   7.063  0.3336  0.4147  0.2416
21462SOL    HW168842   9.477   6.501   7.064  0.4730  0.7753 -1.2621
21462SOL    HW268843   9.338   6.439   7.063  0.7432  0.1605 -1.3983
21463SOL     OW68844   3.998   0.314   5.732  0.6625  0.6114  0.1093
21463SOL    HW168845   4.040   0.391   5.694  1.7298  0.8681  1.7417
21463SOL    HW268846   3.985   0.255   5.657  2.3251  1.2600 -0.7444
21464SOL     OW68847   2.811   2.086   8.067 -0.1890  0.2281 -0.0412
21464SOL    HW168848   2.768   2.121   7.989  1.1247 -1.9642 -1.8929
21464SOL    HW268849   2.859   2.010   8.035  1.6298  0.1045  2.6767
21465SOL     OW68850   5.679   6.864   3.220  0.3513 -0.2332 -0.0064
21465SOL    HW168851   5.586   6.848   3.235  0.3016  0.1326  0.0888
21465SOL    HW268852   5.720   6.850   3.306  0.1207  1.4633  0.4138
21466SOL     OW68853  10.570   8.704   2.455 -0.1901 -0.0105  0.0835
21466SOL    HW168854  10.618   8.768   2.403 -1.3296  0.6518 -0.1826
21466SOL    HW268855  10.480   8.737   2.458 -0.6105 -1.1330  0.6952
21467SOL     OW68856   4.132  10.594   5.280  0.3244 -0.2516 -0.7225
21467SOL    HW168857   4.056  10.644   5.311 -0.7102 -2.9176  1.4474
21467SOL    HW268858   4.101  10.504   5.276  3.0588 -1.2674 -0.9735
21468SOL     OW68859   6.778  10.273   8.263  0.2027 -0.1261 -0.1747
21468SOL    HW168860   6.873  10.286   8.259  0.0590  0.6577 -1.3531
21468SOL    HW268861   6.741  10.358   8.243 -0.7674 -0.4954  0.0043
21469SOL     OW68862   4.685   8.953   5.762  0.0553 -0.5395  0.2293
21469SOL    HW168863   4.768   8.925   5.799  0.0492  0.3060  0.9151
21469SOL    HW268864   4.672   9.042   5.795 -1.4198 -0.8733  0.6728
21470SOL     OW68865   9.926   4.384   7.311  0.5978  0.2167 -0.0104
21470SOL    HW168866   9.861   4.318   7.335 -0.2864  1.3142  0.7239
21470SOL    HW268867   9.915   4.453   7.376  0.7172  1.6120 -1.4007
21471SOL     OW68868   9.661  10.818   7.310  0.3279 -0.1122 -0.2614
21471SOL    HW168869   9.724  10.850   7.375 -0.2972 -2.9160  1.9414
21471SOL    HW268870   9.712  10.762   7.252  0.5883  1.1392 -1.2954
21472SOL     OW68871  10.192  10.536   8.464 -0.2067  0.1237  0.5714
21472SOL    HW168872  10.189  10.509   8.372  1.6241  0.6177  0.3223
21472SOL    HW268873  10.285  10.550   8.482 -0.4532 -0.4992  2.6737
21473SOL     OW68874   9.435   6.637   4.470 -0.3787 -0.5122 -0.0277
21473SOL    HW168875   9.370   6.698   4.435 -0.1646  0.1484  0.7119
21473SOL    HW268876   9.383   6.563   4.501 -0.6405 -0.7231 -0.9340
21474SOL     OW68877   0.395   9.310   8.675  0.0893  0.1910 -0.3957
21474SOL    HW168878   0.370   9.342   8.589  0.4647 -0.4653 -0.7521
21474SOL    HW268879   0.316   9.321   8.728  0.0092  1.0714 -0.6759
21475SOL     OW68880   2.266   5.361   1.283 -0.0500  0.1742  0.2298
21475SOL    HW168881   2.318   5.322   1.354  0.2874  1.0000  0.4414
21475SOL    HW268882   2.205   5.420   1.327  0.4384  1.0037 -0.1782
21476SOL     OW68883  10.880   0.814   9.452 -0.1066 -0.0828  0.2807
21476SOL    HW168884  10.847   0.895   9.490  0.6786  0.7962 -0.8409
21476SOL    HW268885  10.805   0.779   9.401 -0.8052 -0.6954  1.6758
21477SOL     OW68886   7.972   1.605   9.254 -0.2810 -0.2108 -0.3445
21477SOL    HW168887   8.016   1.689   9.256  2.9465 -1.7419 -0.4674
21477SOL    HW268888   7.932   1.596   9.341  1.8760  0.2438  0.7532
21478SOL     OW68889   8.658  10.233   2.314  0.0679  0.4189  0.5186
21478SOL    HW168890   8.702  10.193   2.239  0.2694  3.1250 -0.9380
21478SOL    HW268891   8.576  10.185   2.322  0.0326  0.0432 -1.4675
21479SOL     OW68892   1.482   9.291   8.411 -0.0411  0.0639 -0.2294
21479SOL    HW168893   1.484   9.379   8.448  0.1657  0.5975 -1.4739
21479SOL    HW268894   1.403   9.289   8.356  0.6626 -0.0583 -1.2756
21480SOL     OW68895   4.256   2.138   4.524  0.3657 -0.2123  0.0032
21480SOL    HW168896   4.266   2.216   4.578  0.9380 -0.0255 -0.3605
21480SOL    HW268897   4.299   2.069   4.574 -1.6576 -0.7186  1.1562
21481SOL     OW68898   4.207   5.024   0.457 -0.2449  0.1524  0.3151
21481SOL    HW168899   4.141   5.009   0.524  0.0596 -1.5280  0.2673
21481SOL    HW268900   4.212   4.942   0.408  0.0312  1.0960 -1.3450
21482SOL     OW68901   5.531   5.111   5.135  0.0756  0.2604  0.2642
21482SOL    HW168902   5.617   5.141   5.164  0.9480 -0.0627 -1.7722
21482SOL    HW268903   5.546   5.080   5.045 -1.9077 -1.0327  0.3102
21483SOL     OW68904   6.145   4.166   1.064  0.4270 -0.1038 -0.0764
21483SOL    HW168905   6.074   4.228   1.048  0.5383  0.3726  1.2019
21483SOL    HW268906   6.114   4.084   1.025 -0.5155  0.2753 -0.1434
21484SOL     OW68907   1.253   1.741   0.941 -0.3812  0.0505 -0.2633
21484SOL    HW168908   1.301   1.743   0.858 -1.3269  0.4769 -0.8254
21484SOL    HW268909   1.182   1.678   0.925 -0.5012  0.0528  0.2610
21485SOL     OW68910   4.930   7.920   7.278  0.4431 -0.5380  0.0274
21485SOL    HW168911   4.995   7.936   7.210  1.4764 -0.2307  1.0471
21485SOL    HW268912   4.909   8.007   7.312 -0.6683 -0.6177 -0.4285
21486SOL     OW68913   8.152   7.730   2.311 -0.8091 -0.6851  0.2033
21486SOL    HW168914   8.142   7.743   2.217 -3.3933  0.6695  0.6058
21486SOL    HW268915   8.152   7.818   2.349 -3.6086 -1.2381  1.7360
21487SOL     OW68916  10.558   5.514   6.846  0.3651  0.0760  0.5355
21487SOL    HW168917  10.611   5.445   6.806  1.5677 -0.1422  2.4270
21487SOL    HW268918  10.488   5.468   6.891 -0.3258  0.2675 -0.3030
21488SOL     OW68919   1.294   3.364   2.907 -0.3465 -0.0693  0.8713
21488SOL    HW168920   1.370   3.337   2.959  0.3812 -0.7496 -0.4804
21488SOL    HW268921   1.267   3.284   2.861  0.3062  0.8785 -1.3179
21489SOL     OW68922   3.634   8.726   3.040  0.4764 -0.1248  0.1663
21489SOL    HW168923   3.648   8.820   3.043  0.5618 -0.0911 -1.0159
21489SOL    HW268924   3.547   8.716   3.001  0.4381 -0.5391  0.3509
21490SOL     OW68925   2.352   5.849  10.299 -0.2795  0.1206 -0.1120
21490SOL    HW168926   2.436   5.866  10.256 -1.0047 -0.9756 -2.1033
21490SOL    HW268927   2.310   5.782  10.245 -1.8894 -0.3280  1.5744
21491SOL     OW68928   6.131   4.349   5.510 -0.4867 -0.5808  0.5460
21491SOL    HW168929   6.065   4.417   5.525  1.8694  2.3865 -1.3797
21491SOL    HW268930   6.097   4.298   5.437 -0.6460  1.0217 -0.5490
21492SOL     OW68931   8.716   5.501   4.133 -0.1425  0.7633  0.6366
21492SOL    HW168932   8.673   5.425   4.170  3.5535  0.1837  4.4398
21492SOL    HW268933   8.685   5.575   4.186  1.8519  0.6318  2.0717
21493SOL     OW68934   8.579   1.664   3.314  0.3389  0.1551  0.3430
21493SOL    HW168935   8.511   1.724   3.346  0.0180  0.4820 -0.8708
21493SOL    HW268936   8.530   1.597   3.266  0.8610  0.6525 -0.9569
21494SOL     OW68937   8.758   8.037   3.950 -0.1096  0.1809  0.1372
21494SOL    HW168938   8.817   8.096   3.903 -1.0914  0.4527 -0.7771
21494SOL    HW268939   8.729   8.087   4.026 -0.5113  0.6805 -0.3435
21495SOL     OW68940   2.363   2.634  10.889  0.4672 -0.0286 -0.6978
21495SOL    HW168941   2.268   2.638  10.896  0.4328 -0.3557 -0.9356
21495SOL    HW268942   2.395   2.680  10.966  0.1238  1.1332 -1.2314
21496SOL     OW68943   0.982   2.148   5.211  0.0916  0.1214  0.2522
21496SOL    HW168944   1.055   2.152   5.274  1.1215  1.8118 -0.9515
21496SOL    HW268945   0.917   2.093   5.253  1.0305  0.6128  2.4975
21497SOL     OW68946   0.623   7.160   2.040  0.6210  0.3548  0.3941
21497SOL    HW168947   0.574   7.193   2.116  1.0780 -0.0728  0.8745
21497SOL    HW268948   0.685   7.097   2.076  0.0479 -0.7301 -0.4743
21498SOL     OW68949   5.657   1.217   6.019 -0.4814  0.1998  0.1746
21498SOL    HW168950   5.736   1.203   5.967 -0.4438  0.1328  0.2497
21498SOL    HW268951   5.655   1.143   6.080 -0.1031  0.6983  0.8050
21499SOL     OW68952  10.339   3.202   8.383  0.1387 -1.0962 -0.3929
21499SOL    HW168953  10.266   3.140   8.388  0.8461 -2.0269 -1.1150
21499SOL    HW268954  10.298   3.288   8.380 -0.8677 -1.5264  0.5983
21500SOL     OW68955   0.393   3.349   2.281 -0.0885  0.4514  0.3209
21500SOL    HW168956   0.313   3.300   2.264  0.6294 -0.6267  0.0231
21500SOL    HW268957   0.435   3.303   2.353  1.6393 -0.6740 -1.3135
21501SOL     OW68958   3.350   2.763   0.176  0.0803 -0.2282 -0.0596
21501SOL    HW168959   3.259   2.734   0.169 -0.6963  1.8189  0.7455
21501SOL    HW268960   3.374   2.789   0.087  0.6145 -2.6213 -0.6836
21502SOL     OW68961   1.293   4.267   7.292 -0.4072  0.1346 -0.2134
21502SOL    HW168962   1.290   4.225   7.206  1.4091  1.7378 -1.1280
21502SOL    HW268963   1.376   4.236   7.330 -1.5930 -1.2600  1.3979
21503SOL     OW68964  10.119   9.137   6.680 -0.3354 -0.1040  0.3385
21503SOL    HW168965  10.039   9.141   6.627 -0.4362  1.3672  0.5413
21503SOL    HW268966  10.096   9.083   6.755 -0.7711 -0.6653 -0.1960
21504SOL     OW68967   6.667   2.127   7.500  0.9422 -0.9843 -0.4610
21504SOL    HW168968   6.585   2.159   7.463  1.5157  0.5794 -0.4505
21504SOL    HW268969   6.686   2.047   7.451  0.2569 -0.4681 -1.6156
21505SOL     OW68970   9.468   2.374   6.231  0.0000 -0.4521  0.3493
21505SOL    HW168971   9.553   2.372   6.274  0.4544 -1.1000 -0.5460
21505SOL    HW268972   9.488   2.391   6.139 -0.8991  0.2133  0.2584
21506SOL     OW68973  10.555   2.324   2.566 -0.3450 -0.3025 -0.9264
21506SOL    HW168974  10.549   2.240   2.520 -0.0310 -0.2327 -1.0936
21506SOL    HW268975  10.472   2.331   2.613 -0.2304 -0.8821 -0.6191
21507SOL     OW68976   7.555   7.888   3.855  0.0818 -0.3307 -0.3459
21507SOL    HW168977   7.618   7.855   3.919 -0.5895 -0.8534  0.0532
21507SOL    HW268978   7.518   7.967   3.896 -1.8353 -1.7670  0.8646
21508SOL     OW68979  10.708   7.457   7.396 -0.5603 -0.1589  0.3577
21508SOL    HW168980  10.766   7.506   7.453 -0.6562  1.8671 -1.1612
21508SOL    HW268981  10.666   7.392   7.453  1.2455  0.0416  1.9893
21509SOL     OW68982   6.292   6.299   1.781  0.1449  1.0612  0.1135
21509SOL    HW168983   6.350   6.263   1.848  1.4826  1.2046 -0.9346
21509SOL    HW268984   6.268   6.386   1.814 -0.4172  0.5502  1.0873
21510SOL     OW68985   8.236   2.070   8.080 -0.6500 -0.3614  0.1949
21510SOL    HW168986   8.243   2.112   8.166  0.7618  1.5460 -0.7847
21510SOL    HW268987   8.155   2.019   8.086 -1.4053  0.9092  2.1675
21511SOL     OW68988   4.912   6.785   1.685 -0.4623 -0.0340  0.4487
21511SOL    HW168989   4.886   6.733   1.761  1.8409 -0.0386  1.3261
21511SOL    HW268990   4.878   6.873   1.703 -2.2969 -0.6372  0.1138
21512SOL     OW68991   6.023   0.335   0.763  0.2349 -0.6229 -0.1988
21512SOL    HW168992   5.958   0.317   0.831 -0.3609  0.5118 -0.4427
21512SOL    HW268993   6.107   0.335   0.810  0.1684 -2.6205  0.0286
21513SOL     OW68994   1.434   2.955   2.674 -0.0750  0.1683 -0.4993
21513SOL    HW168995   1.411   2.981   2.585 -0.9360  1.2811  0.0218
21513SOL    HW268996   1.500   2.887   2.663 -2.1386 -1.7554 -2.0765
21514SOL     OW68997   8.144  10.052   5.480 -0.0770  0.3543 -0.7687
21514SOL    HW168998   8.158   9.957   5.477  3.2040  0.6934 -0.3025
21514SOL    HW268999   8.215  10.088   5.426 -0.3906  2.5782  0.2019
21515SOL     OW69000   8.195   6.285   9.891  0.3112  0.4650  0.0719
21515SOL    HW169001   8.117   6.319   9.934 -1.4200  0.1847 -2.6120
21515SOL    HW269002   8.216   6.351   9.825  1.3626 -0.2377 -0.3141
21516SOL     OW69003   0.150   6.459   7.133 -0.2232 -0.4881  0.0636
21516SOL    HW169004   0.060   6.426   7.129 -0.4894  0.3008 -0.9530
21516SOL    HW269005   0.164   6.499   7.048  0.2312  1.6333  1.0828
21517SOL     OW69006   7.598   0.041   6.602 -0.0268  0.4070 -0.0321
21517SOL    HW169007   7.549   0.029   6.521  0.1490 -0.8720  0.0409
21517SOL    HW269008   7.623   0.134   6.601 -0.0768  0.4240 -1.4014
21518SOL     OW69009   5.483   6.194   1.457 -0.9073  0.1462 -0.7912
21518SOL    HW169010   5.431   6.143   1.519 -0.1351  1.1010  0.6932
21518SOL    HW269011   5.463   6.285   1.477  1.1534  0.5469 -0.2751
21519SOL     OW69012   7.444   8.288   1.658 -0.0758  0.6976  0.0458
21519SOL    HW169013   7.430   8.200   1.692 -0.5330  0.1524 -1.4659
21519SOL    HW269014   7.495   8.275   1.578  0.5071  1.8758  0.2038
21520SOL     OW69015   9.908   1.219   3.829  0.0942 -0.2001  0.0457
21520SOL    HW169016  10.002   1.235   3.817  0.4182 -2.1448 -0.4124
21520SOL    HW269017   9.901   1.186   3.919 -0.4319  1.6108  0.6990
21521SOL     OW69018   4.917   4.946   1.774 -0.1042 -0.3381  0.2970
21521SOL    HW169019   4.874   5.020   1.816  1.9040  0.7795  0.4911
21521SOL    HW269020   4.916   4.877   1.840 -0.3716  0.1236  0.7874
21522SOL     OW69021   2.090   9.987   1.906  0.6195  0.6239  0.0304
21522SOL    HW169022   2.151   9.957   1.973 -1.6215  1.4901  2.6368
21522SOL    HW269023   2.011   9.935   1.920 -0.8567  2.7234 -0.0476
21523SOL     OW69024   4.419   4.901   5.015  0.1805 -0.3658  0.2746
21523SOL    HW169025   4.340   4.904   5.070 -2.2723 -2.7742 -2.7312
21523SOL    HW269026   4.410   4.977   4.957 -0.5360 -1.1882 -0.7240
21524SOL     OW69027   4.240   4.474   1.527  0.1855 -0.3471 -0.1790
21524SOL    HW169028   4.146   4.479   1.512 -0.1582 -1.1728  1.4319
21524SOL    HW269029   4.258   4.545   1.588  0.1652 -1.5522  1.2875
21525SOL     OW69030   4.586   7.670   8.168  0.1788 -0.0903 -0.2422
21525SOL    HW169031   4.636   7.606   8.116  0.2438 -0.5465  0.3712
21525SOL    HW269032   4.499   7.670   8.128  0.1359 -0.6741 -0.1589
21526SOL     OW69033   9.921   8.473   4.880 -0.2847 -0.4391  0.2663
21526SOL    HW169034   9.982   8.502   4.949  1.3244 -0.3017 -1.1439
21526SOL    HW269035   9.929   8.378   4.880  0.8287 -0.3676 -0.6536
21527SOL     OW69036   5.579   3.756   6.075  0.0241 -0.4762 -0.2593
21527SOL    HW169037   5.640   3.773   6.147  0.6664 -1.5587 -0.5202
21527SOL    HW269038   5.573   3.839   6.028 -0.9615  0.4705  1.4206
21528SOL     OW69039   8.960  10.769   7.807  0.7003 -0.1107 -0.2630
21528SOL    HW169040   9.054  10.789   7.809  1.0858 -1.7351  2.4021
21528SOL    HW269041   8.919  10.842   7.852  0.6144  0.7378 -1.6724
21529SOL     OW69042   7.362   0.256   5.676  0.5674  0.5103  0.6075
21529SOL    HW169043   7.418   0.333   5.677  0.8263  0.3829 -1.4489
21529SOL    HW269044   7.279   0.286   5.713  0.7422  1.7132  0.0517
21530SOL     OW69045   2.289   1.306   5.500 -0.0202  0.0333 -0.3515
21530SOL    HW169046   2.378   1.330   5.527  0.0983 -1.2998  0.5128
21530SOL    HW269047   2.302   1.243   5.430 -0.2959  0.3370 -0.6757
21531SOL     OW69048  10.790   3.887   7.565 -0.2205  0.3340 -0.4516
21531SOL    HW169049  10.751   3.853   7.485 -2.2369  0.3251  0.4892
21531SOL    HW269050  10.817   3.809   7.614  0.9937  0.3390 -1.0619
21532SOL     OW69051   0.512   3.473   8.196  0.6174  0.2826 -0.4791
21532SOL    HW169052   0.577   3.495   8.262  0.1190  1.5215 -0.3849
21532SOL    HW269053   0.431   3.458   8.245  0.4406  0.3736 -0.7394
21533SOL     OW69054   0.122   9.068   1.602 -0.1615  0.3167 -0.0495
21533SOL    HW169055   0.076   9.132   1.657 -0.5918  0.8436 -0.9986
21533SOL    HW269056   0.210   9.063   1.638  0.2650  2.4016 -0.7109
21534SOL     OW69057   2.960   1.430   6.898 -0.1370 -0.5751 -0.1897
21534SOL    HW169058   2.980   1.388   6.982 -0.8196  2.6741  1.8098
21534SOL    HW269059   3.042   1.471   6.872 -0.2457 -0.4913 -0.3977
21535SOL     OW69060   5.723   8.980   8.016  0.0520  0.3675  0.1134
21535SOL    HW169061   5.679   9.059   7.984 -0.6454 -0.8318 -2.0120
21535SOL    HW269062   5.776   8.951   7.942  0.2353 -1.2184  0.8442
21536SOL     OW69063   9.859   1.160   9.537 -0.5719 -0.1106 -0.2127
21536SOL    HW169064   9.874   1.207   9.619 -1.6350 -1.5945  0.8749
21536SOL    HW269065   9.947   1.135   9.507 -0.2797 -1.8781  1.9090
21537SOL     OW69066   6.733   7.959   3.057 -0.3724  0.9758 -0.2407
21537SOL    HW169067   6.729   7.889   3.123 -0.9798 -0.6285 -1.8929
21537SOL    HW269068   6.642   7.984   3.043 -0.1788  1.9219  0.1238
21538SOL     OW69069   5.859   8.556   3.251 -0.4051 -0.2207  0.0166
21538SOL    HW169070   5.935   8.541   3.307  0.2758 -0.9085 -1.0440
21538SOL    HW269071   5.805   8.619   3.299  0.6276 -0.0442  0.9781
21539SOL     OW69072   5.318   4.408   2.837 -0.7645 -1.1002  0.0959
21539SOL    HW169073   5.242   4.412   2.896 -1.2487 -3.3818 -0.2681
21539SOL    HW269074   5.381   4.352   2.882  1.0413  1.2390  0.6605
21540SOL     OW69075   9.982   5.289   3.664 -0.6238 -0.3423  0.3548
21540SOL    HW169076   9.961   5.353   3.732  1.9568  1.2492 -0.1915
21540SOL    HW269077   9.940   5.323   3.585  1.7317  1.5160 -0.2153
21541SOL     OW69078   1.494   0.300  10.573  0.1600  0.0605 -0.3113
21541SOL    HW169079   1.433   0.299  10.646  0.2454  0.8456 -0.2186
21541SOL    HW269080   1.552   0.226  10.588  0.6498  0.6598  0.8229
21542SOL     OW69081   1.114   0.612   4.748  0.0741 -0.5745 -0.6345
21542SOL    HW169082   1.100   0.703   4.722  1.6865 -0.4932 -1.3901
21542SOL    HW269083   1.075   0.561   4.677 -2.1631 -0.5447  0.5149
21543SOL     OW69084  10.326   7.134   7.986  0.0441 -0.2783  0.0267
21543SOL    HW169085  10.363   7.115   8.072 -0.1387 -0.4902  0.0568
21543SOL    HW269086  10.402   7.135   7.927  0.3904  1.4364  0.4419
21544SOL     OW69087   1.350   3.677   1.992 -0.2959 -0.2437 -0.6416
21544SOL    HW169088   1.307   3.634   2.066  1.1456  0.7236  0.8378
21544SOL    HW269089   1.345   3.770   2.012  1.4242 -0.0453 -0.9835
21545SOL     OW69090   4.271   1.299   3.871  0.1931  0.9738  0.0243
21545SOL    HW169091   4.344   1.312   3.810  0.7745 -0.3783  0.3798
21545SOL    HW269092   4.313   1.288   3.956 -0.2743 -1.3133  0.0160
21546SOL     OW69093   0.388   5.413   5.777  0.6519 -0.6417  0.0307
21546SOL    HW169094   0.413   5.375   5.692  2.8705 -0.9023  0.7424
21546SOL    HW269095   0.385   5.338   5.837  1.8324 -0.1313  0.7536
21547SOL     OW69096   9.233   8.661  10.088  0.1015 -0.0100  0.1971
21547SOL    HW169097   9.212   8.599  10.019  0.3492 -0.5781  0.6291
21547SOL    HW269098   9.248   8.608  10.165 -0.1071  0.6156  0.6799
21548SOL     OW69099   4.421   5.082   8.618  0.1393  0.0719  0.2876
21548SOL    HW169100   4.412   5.064   8.525  1.8696 -0.9028  0.2608
21548SOL    HW269101   4.417   5.177   8.625 -1.1652  0.1175 -0.6065
21549SOL     OW69102   8.177   8.379   1.269 -0.7085 -0.0459  0.0647
21549SOL    HW169103   8.239   8.437   1.313  0.0866 -0.6357 -0.2657
21549SOL    HW269104   8.177   8.409   1.178  1.5886 -2.0586 -0.6987
21550SOL     OW69105   2.990   5.045   6.370 -0.5219 -0.5438  0.6220
21550SOL    HW169106   2.943   5.011   6.294 -1.2075 -0.2903  0.9317
21550SOL    HW269107   2.991   4.973   6.433  0.2487 -0.8326  0.2911
21551SOL     OW69108   6.397   5.777   2.337  0.3861 -0.6922 -0.1871
21551SOL    HW169109   6.302   5.773   2.328  0.3115  2.1425 -1.5924
21551SOL    HW269110   6.430   5.778   2.247  1.4215  2.4231  0.1244
21552SOL     OW69111   0.970   6.056  10.628 -1.1965 -0.0288  0.3351
21552SOL    HW169112   1.037   6.120  10.600  0.3175 -0.9629  1.6463
21552SOL    HW269113   1.020   5.982  10.661 -2.9023 -0.8125  1.3016
21553SOL     OW69114   7.840   1.087   1.548 -0.2431 -0.1069 -0.4076
21553SOL    HW169115   7.859   1.007   1.498 -0.8983  0.5477 -1.7786
21553SOL    HW269116   7.749   1.077   1.575  0.0682 -0.3921  0.5597
21554SOL     OW69117   0.905   9.522   6.382 -0.0369 -0.5392  0.3708
21554SOL    HW169118   0.890   9.593   6.444  0.3617 -0.6379  0.5849
21554SOL    HW269119   0.995   9.495   6.398  0.4083  0.0860 -0.9345
21555SOL     OW69120   4.049   0.447   2.465  0.5578 -0.7686  0.2622
21555SOL    HW169121   4.126   0.498   2.491  0.4455 -1.4255  1.9696
21555SOL    HW269122   4.084   0.359   2.447  0.4682 -0.5954 -0.8803
21556SOL     OW69123   8.676   1.670   1.942  0.3271  0.1103  0.3468
21556SOL    HW169124   8.718   1.609   2.002  1.4634  0.9847  0.4601
21556SOL    HW269125   8.715   1.651   1.857 -0.4514 -0.3459  0.0710
21557SOL     OW69126   2.172   0.224   0.504  0.1655 -0.2538  0.0044
21557SOL    HW169127   2.133   0.299   0.547 -1.0235 -1.1550  0.5478
21557SOL    HW269128   2.183   0.250   0.412  3.6236  2.0581  0.8805
21558SOL     OW69129   7.963   5.452   1.017  0.5789  0.4431  0.1574
21558SOL    HW169130   7.943   5.389   1.086  0.7360 -1.5338 -1.5142
21558SOL    HW269131   8.049   5.426   0.984  0.9923  2.0171 -0.0962
21559SOL     OW69132   3.620   4.253   1.062  0.1049 -0.1603 -0.2401
21559SOL    HW169133   3.576   4.196   1.124  0.8193 -0.9228 -0.4218
21559SOL    HW269134   3.713   4.246   1.083  0.1220  2.3276  0.9030
21560SOL     OW69135   8.260   6.943   1.863 -0.1830  0.8986 -0.2313
21560SOL    HW169136   8.262   7.016   1.925 -1.7392 -0.2824  1.3303
21560SOL    HW269137   8.240   6.984   1.779 -0.0187  2.3651  0.4095
21561SOL     OW69138  10.774   4.877   2.757 -0.3453 -0.5290 -0.2849
21561SOL    HW169139  10.794   4.900   2.666 -0.4984 -1.5841 -0.6009
21561SOL    HW269140  10.852   4.829   2.787  0.4122  1.2213  0.6938
21562SOL     OW69141   5.371   1.167   7.944 -0.0316 -0.1297 -0.9836
21562SOL    HW169142   5.391   1.083   7.985 -1.3116 -0.2980 -0.6689
21562SOL    HW269143   5.383   1.232   8.014  0.5235 -0.0940 -1.1085
21563SOL     OW69144   4.830   0.721   3.492  0.0322  0.7236 -0.3875
21563SOL    HW169145   4.806   0.645   3.440 -1.2701  0.7593  0.1223
21563SOL    HW269146   4.881   0.776   3.433  0.1089 -0.0616 -1.0638
21564SOL     OW69147   9.046  10.671  10.422 -0.4729  0.8316  0.0392
21564SOL    HW169148   9.005  10.749  10.386 -0.9670  0.5464 -0.0312
21564SOL    HW269149   9.073  10.620  10.345 -1.6163  0.1768  0.0489
21565SOL     OW69150   0.967   3.689  10.913 -0.0456  0.0857 -0.3400
21565SOL    HW169151   0.975   3.690  10.817  1.2827 -1.7492 -0.3193
21565SOL    HW269152   1.053   3.718  10.944 -0.7972  1.6508  0.3354
21566SOL     OW69153   3.812   9.087   4.981 -0.6976  0.2757 -0.3944
21566SOL    HW169154   3.776   9.005   4.947 -0.2685 -0.0055 -0.1747
21566SOL    HW269155   3.773   9.096   5.068 -1.4185  0.7513 -0.7510
21567SOL     OW69156   4.067   3.285   2.295 -0.1785 -0.2521  0.0515
21567SOL    HW169157   3.999   3.279   2.228  0.1843  0.2693 -0.3699
21567SOL    HW269158   4.056   3.371   2.334 -1.0246 -0.9195  1.3758
21568SOL     OW69159   1.599   0.399   7.342 -0.5032 -0.4692  0.2517
21568SOL    HW169160   1.647   0.370   7.265 -1.8534  0.2903 -0.9231
21568SOL    HW269161   1.556   0.320   7.375  0.2125 -0.8278  0.3631
21569SOL     OW69162   3.765   2.978   5.564  0.4830 -0.7022 -0.5471
21569SOL    HW169163   3.683   2.931   5.555  0.9919 -1.4495 -1.3920
21569SOL    HW269164   3.756   3.054   5.507 -0.7107  0.8273  1.5327
21570SOL     OW69165   5.726  10.825   8.558  0.1553 -0.4358  0.1213
21570SOL    HW169166   5.737  10.834   8.463  0.9237 -0.2517  0.2182
21570SOL    HW269167   5.632  10.838   8.573  0.0794 -0.1335 -0.5816
21571SOL     OW69168   0.737   8.875   3.330 -0.0662  0.4283  0.7010
21571SOL    HW169169   0.812   8.934   3.318 -0.4923  0.8291 -0.1175
21571SOL    HW269170   0.660   8.930   3.313 -0.4284 -0.6868 -1.8149
21572SOL     OW69171   1.121   5.514   5.639 -0.0136  0.0246  0.4244
21572SOL    HW169172   1.169   5.439   5.603 -0.2083  0.3891 -0.6158
21572SOL    HW269173   1.170   5.591   5.609 -1.4661  0.4302 -1.0409
21573SOL     OW69174   7.992   0.120   0.358 -0.3714 -0.3905 -0.0366
21573SOL    HW169175   7.956   0.099   0.444  1.4965 -0.5041  0.7802
21573SOL    HW269176   8.077   0.161   0.377  0.1491 -0.5535 -1.8140
21574SOL     OW69177   8.745   4.713   2.710  0.4505  0.4056  0.2700
21574SOL    HW169178   8.710   4.792   2.750  2.5989  1.3128  0.4507
21574SOL    HW269179   8.688   4.698   2.634 -0.6229  1.4969  0.8264
21575SOL     OW69180   0.254   8.662   1.517  0.1769 -0.9715 -0.0891
21575SOL    HW169181   0.301   8.677   1.599  0.5240 -1.2821 -0.2323
21575SOL    HW269182   0.181   8.606   1.542 -0.6108  0.1737  0.2844
21576SOL     OW69183   8.675   3.216   1.504  0.4945  0.1115 -0.3772
21576SOL    HW169184   8.594   3.188   1.462 -0.1051 -0.0362  0.8432
21576SOL    HW269185   8.743   3.202   1.437 -0.4314 -0.0249 -1.3113
21577SOL     OW69186  10.180   1.005   2.466  0.0576  0.7094  0.1000
21577SOL    HW169187  10.218   0.954   2.537  1.0209  1.3747  0.0738
21577SOL    HW269188  10.255   1.038   2.416 -0.5981 -0.4375 -1.7402
21578SOL     OW69189   6.185   6.711  10.610 -0.6326 -0.9164  0.3258
21578SOL    HW169190   6.226   6.635  10.652 -1.4027 -1.1324  0.7123
21578SOL    HW269191   6.191   6.781  10.675 -0.2862 -0.7582  0.1261
21579SOL     OW69192   3.031   8.222   9.853  0.2837  0.8333  0.0952
21579SOL    HW169193   3.092   8.169   9.905  1.1682  0.9124 -0.8508
21579SOL    HW269194   3.079   8.244   9.774 -0.9163  1.0551 -0.5893
21580SOL     OW69195   7.254   1.252   1.747 -0.6872 -0.4159 -0.0530
21580SOL    HW169196   7.281   1.343   1.758 -0.4160 -0.6976  2.0081
21580SOL    HW269197   7.185   1.256   1.681  0.5694  1.0132 -1.3593
21581SOL     OW69198   9.931   5.986   2.899  0.7116 -0.0653  0.3943
21581SOL    HW169199  10.027   5.991   2.908  0.6467  1.4156  0.6004
21581SOL    HW269200   9.908   5.900   2.933  2.0320 -0.7175 -0.2849
21582SOL     OW69201   6.722   3.474   0.828 -0.1262 -0.3922  0.0346
21582SOL    HW169202   6.671   3.400   0.862  0.1267 -0.9858 -0.8444
21582SOL    HW269203   6.689   3.550   0.877 -0.7978 -0.9917  0.5407
21583SOL     OW69204  10.305   2.883   6.259  0.2443 -0.1860 -0.4683
21583SOL    HW169205  10.212   2.884   6.237  0.5857  0.4619 -2.0214
21583SOL    HW269206  10.311   2.827   6.337 -1.3775 -0.5667 -0.5860
21584SOL     OW69207   7.386   6.536   8.438 -0.3241  0.4628  0.7813
21584SOL    HW169208   7.377   6.616   8.491 -1.1711 -0.3353  1.8968
21584SOL    HW269209   7.440   6.562   8.364 -0.8888  2.1744  0.9269
21585SOL     OW69210   3.127   3.522   4.586  0.0828 -0.3345 -0.1641
21585SOL    HW169211   3.212   3.496   4.549  0.4612  2.1740 -1.2538
21585SOL    HW269212   3.065   3.506   4.515  0.2274  1.0082 -0.6269
21586SOL     OW69213  10.161   7.760   0.814 -0.2636 -0.1676 -0.1539
21586SOL    HW169214  10.094   7.717   0.762 -1.2048  0.9566  0.0985
21586SOL    HW269215  10.214   7.688   0.849 -2.9695 -1.3306  1.9213
21587SOL     OW69216   9.881   4.583   3.808  0.0592 -0.3932  0.3982
21587SOL    HW169217   9.956   4.580   3.748 -0.4191 -0.8819 -0.1843
21587SOL    HW269218   9.879   4.674   3.839  0.7291 -0.3099  0.2075
21588SOL     OW69219   6.208   5.441   7.985  0.2984  0.4120  0.5477
21588SOL    HW169220   6.271   5.432   7.914 -0.3846  1.6345 -0.2583
21588SOL    HW269221   6.140   5.498   7.950  0.4213  1.8738  2.4882
21589SOL     OW69222   0.818   8.853  10.643 -0.1567 -0.1744  0.7363
21589SOL    HW169223   0.726   8.872  10.656 -0.6807 -0.7099 -1.6375
21589SOL    HW269224   0.821   8.759  10.622  0.8302 -0.0626  0.2792
21590SOL     OW69225   1.964   5.799   5.919 -0.8046 -0.5794  0.4614
21590SOL    HW169226   1.982   5.727   5.859  0.5381 -1.4749  1.8525
21590SOL    HW269227   2.036   5.861   5.904 -1.1066 -0.2470  0.3549
21591SOL     OW69228   9.659   3.578   6.554  0.1847 -0.4668 -0.4108
21591SOL    HW169229   9.732   3.630   6.522  0.1738 -0.5831 -0.6265
21591SOL    HW269230   9.670   3.577   6.649  0.9581 -1.2026 -0.4935
21592SOL     OW69231   3.859   8.282   0.036  0.1671  0.5151  0.2989
21592SOL    HW169232   3.893   8.215   0.095  2.0886  0.4626 -0.7835
21592SOL    HW269233   3.777   8.310   0.077 -1.2448 -3.0976  0.3610
21593SOL     OW69234   9.218   3.253   3.872 -0.8416 -0.8460 -0.6643
21593SOL    HW169235   9.313   3.249   3.880 -0.6428  1.4538 -1.3053
21593SOL    HW269236   9.187   3.269   3.961 -0.4826  0.1288 -0.7054
21594SOL     OW69237   6.176   7.191   2.371  0.0934  0.7829  0.2994
21594SOL    HW169238   6.181   7.176   2.277  1.1947 -0.6651  0.5498
21594SOL    HW269239   6.225   7.272   2.385  2.8849 -0.7016 -0.0708
21595SOL     OW69240   9.235   7.051  10.282  0.1885 -0.1451 -0.3468
21595SOL    HW169241   9.266   6.961  10.293  1.3616  0.0061 -2.0505
21595SOL    HW269242   9.311   7.105  10.303  0.0441  0.3710 -1.1170
21596SOL     OW69243   5.119   1.788   0.461 -0.0993 -0.3674 -0.0412
21596SOL    HW169244   5.176   1.841   0.404  0.8325  1.0814  2.1301
21596SOL    HW269245   5.164   1.785   0.545 -2.1485 -1.1521  1.1070
21597SOL     OW69246   0.458   0.817   3.229  0.3822  0.1703 -0.3317
21597SOL    HW169247   0.532   0.815   3.290 -1.3639 -2.2444  1.9874
21597SOL    HW269248   0.414   0.733   3.243 -2.4406  1.2310 -2.0223
21598SOL     OW69249   4.891  10.436   2.812 -0.0226 -0.1143  0.0668
21598SOL    HW169250   4.846  10.515   2.841  0.8419  0.0901  0.8892
21598SOL    HW269251   4.984  10.458   2.817  0.1940 -0.6604 -1.2174
21599SOL     OW69252  10.072   0.647  10.875  0.3208  0.0750 -0.2548
21599SOL    HW169253  10.082   0.682  10.787  1.3474 -2.4825 -1.2623
21599SOL    HW269254  10.138   0.693  10.927  0.3723  0.9181 -1.0456
21600SOL     OW69255   7.999   9.844   4.011  0.6650 -0.4004 -0.8298
21600SOL    HW169256   8.090   9.871   4.016  0.1819  1.0764  0.8053
21600SOL    HW269257   7.991   9.772   4.074  0.8748 -1.1729 -1.6580
21601SOL     OW69258   1.373  10.052   5.751  0.5478 -0.2864 -0.5925
21601SOL    HW169259   1.357  10.089   5.838 -1.6589 -0.4479 -0.8776
21601SOL    HW269260   1.362  10.126   5.691 -0.1752 -0.6158 -0.8809
21602SOL     OW69261   6.805   4.719   8.511 -0.7155 -0.3574  0.6726
21602SOL    HW169262   6.842   4.789   8.456  0.5842 -0.9939  0.6966
21602SOL    HW269263   6.712   4.718   8.488 -0.1027 -1.1792 -2.2132
21603SOL     OW69264   9.091   5.955   2.584 -0.2593  0.6709 -0.0367
21603SOL    HW169265   9.050   5.949   2.497 -0.3755  1.9504 -0.0940
21603SOL    HW269266   9.185   5.959   2.566 -0.1827 -0.6358  0.0013
21604SOL     OW69267   4.420   6.677   7.494  0.1516  0.2092  0.5889
21604SOL    HW169268   4.431   6.599   7.439  1.8477  1.2778 -0.6960
21604SOL    HW269269   4.343   6.721   7.458  0.6586  0.3793 -0.3236
21605SOL     OW69270   4.957   2.628   1.317  0.5201 -0.0309  0.1929
21605SOL    HW169271   4.924   2.672   1.395  0.2806  2.1050 -1.0328
21605SOL    HW269272   4.919   2.540   1.321  0.3521  0.0855  2.3386
21606SOL     OW69273  10.278   2.629   3.480 -0.1316  0.2201 -0.4584
21606SOL    HW169274  10.194   2.601   3.442 -0.4834 -0.7297  0.9417
21606SOL    HW269275  10.343   2.603   3.415 -0.7874 -0.5929 -0.8068
21607SOL     OW69276   9.691   1.119   4.788  0.1874 -0.0209 -0.3767
21607SOL    HW169277   9.627   1.154   4.727 -0.3875  1.1353  0.8457
21607SOL    HW269278   9.765   1.094   4.733 -1.1750 -1.1562 -1.7949
21608SOL     OW69279   0.547   1.720   8.334  0.3689  0.2342  0.2089
21608SOL    HW169280   0.615   1.677   8.386  0.0677 -1.4205 -0.7186
21608SOL    HW269281   0.585   1.805   8.312  0.9403  0.5440  2.1858
21609SOL     OW69282   3.263   9.697   2.853  0.6664 -0.0025  0.3295
21609SOL    HW169283   3.336   9.749   2.887  0.3461  0.3106  0.5401
21609SOL    HW269284   3.244   9.634   2.922  1.8808 -1.2586 -0.4237
21610SOL     OW69285   7.877   4.099   1.457  0.5292 -0.1826 -0.4097
21610SOL    HW169286   7.875   4.041   1.534  1.7736 -0.1247 -0.3208
21610SOL    HW269287   7.802   4.157   1.470 -0.3606 -1.3324 -0.1709
21611SOL     OW69288   7.586   2.789   6.905 -0.1012 -0.0694  0.2446
21611SOL    HW169289   7.603   2.756   6.993  0.0072 -2.6891 -0.6728
21611SOL    HW269290   7.671   2.817   6.872  0.7226 -3.1527 -0.5056
21612SOL     OW69291   2.458  10.428   5.355 -0.1892  0.2110  0.2150
21612SOL    HW169292   2.407  10.365   5.303 -0.2854 -0.6566  1.3233
21612SOL    HW269293   2.521  10.375   5.403  1.5703  1.2374 -0.8528
21613SOL     OW69294   5.241   9.898  10.574  0.1699  0.0325 -0.2355
21613SOL    HW169295   5.237   9.846  10.494  0.5513  0.8170 -0.7801
21613SOL    HW269296   5.331   9.929  10.578  0.0767  0.2425  0.3412
21614SOL     OW69297   6.677   4.922   0.475  0.5926  0.1789  0.3853
21614SOL    HW169298   6.687   4.865   0.398  2.2202  0.3910  0.4017
21614SOL    HW269299   6.745   4.893   0.535  1.1200  1.7922  0.6124
21615SOL     OW69300   9.383   8.139   0.070 -0.0108 -0.4439  0.4815
21615SOL    HW169301   9.304   8.165   0.118  2.3839  0.3403  4.3454
21615SOL    HW269302   9.378   8.043   0.066 -1.4143 -0.3787  0.0798
21616SOL     OW69303   1.704   2.543   5.550  0.2429 -0.2914 -0.1638
21616SOL    HW169304   1.637   2.581   5.493  0.8237  0.5176 -0.3313
21616SOL    HW269305   1.767   2.614   5.564  1.3568 -1.1814 -0.4651
21617SOL     OW69306   2.810   5.641   7.316  0.2661 -0.0527  0.1476
21617SOL    HW169307   2.780   5.579   7.382  0.6857 -0.9807 -0.5125
21617SOL    HW269308   2.739   5.646   7.253  0.2536  0.0952  0.1736
21618SOL     OW69309  10.702   7.216   4.944 -0.0091  0.2835 -0.5831
21618SOL    HW169310  10.660   7.245   4.863 -0.2316 -2.1986 -1.4379
21618SOL    HW269311  10.637   7.232   5.012  0.4843  3.1803 -0.6677
21619SOL     OW69312   4.308   9.200   6.039 -0.0501  0.3767  0.1592
21619SOL    HW169313   4.277   9.253   6.112  1.6712 -1.2921  2.1973
21619SOL    HW269314   4.309   9.110   6.071  0.1113 -0.5431 -2.1638
21620SOL     OW69315   5.328   7.897  10.614  0.3056  0.4093 -0.6660
21620SOL    HW169316   5.322   7.836  10.541 -0.4874 -0.8187  0.3977
21620SOL    HW269317   5.237   7.922  10.632  0.3135 -0.6490  0.9964
21621SOL     OW69318   4.635   4.259   6.909  0.2509  0.5238 -0.2189
21621SOL    HW169319   4.641   4.203   6.832  0.2269  1.5730 -1.0054
21621SOL    HW269320   4.629   4.198   6.983  0.7649 -0.4985 -0.9979
21622SOL     OW69321   2.071   4.608   2.424 -0.2471 -0.2647  0.1876
21622SOL    HW169322   2.087   4.686   2.371 -2.4042 -0.6226 -1.1007
21622SOL    HW269323   2.121   4.623   2.504  0.1417  1.9927 -0.4057
21623SOL     OW69324   7.092   9.116   8.180 -0.0089  0.0245 -0.5097
21623SOL    HW169325   7.041   9.139   8.258 -2.0342 -0.2503 -1.6787
21623SOL    HW269326   7.106   9.200   8.136  0.4513  0.0837 -0.2550
21624SOL     OW69327   8.421  10.032   0.247 -0.2249 -0.2422 -0.2446
21624SOL    HW169328   8.438  10.126   0.254 -5.2422  0.8250  2.2622
21624SOL    HW269329   8.443   9.998   0.333 -0.6673 -0.8622 -0.3747
21625SOL     OW69330   1.505   6.949   4.116  0.3912  0.4179 -0.3740
21625SOL    HW169331   1.474   6.948   4.206  1.3713  0.8879 -0.0137
21625SOL    HW269332   1.504   7.042   4.091  1.1935  0.4160 -0.4519
21626SOL     OW69333   6.286   4.417   1.040 -0.7487  0.2947 -0.3497
21626SOL    HW169334   6.224   4.344   1.042 -2.0352  1.3603  1.6225
21626SOL    HW269335   6.370   4.377   1.062 -0.8520 -1.0208 -2.1624
21627SOL     OW69336   1.598   7.722   6.690 -0.2802 -0.0561 -0.4089
21627SOL    HW169337   1.591   7.711   6.595 -1.6677 -1.0621 -0.2181
21627SOL    HW269338   1.512   7.755   6.717  0.1257  0.2921  0.5031
21628SOL     OW69339  10.644   6.707   2.648  0.0985 -0.3496 -0.1465
21628SOL    HW169340  10.590   6.781   2.617  0.1244 -0.3537 -0.2021
21628SOL    HW269341  10.581   6.646   2.686  0.2157  0.3791  1.2974
21629SOL     OW69342   8.732   0.019   0.207 -0.2197 -0.4723  0.7246
21629SOL    HW169343   8.671   0.050   0.139  0.1053  0.4197  0.8255
21629SOL    HW269344   8.712  -0.074   0.217 -0.8418 -0.4240 -0.0012
21630SOL     OW69345   7.794   1.454   4.893  0.4325  0.4278 -0.5885
21630SOL    HW169346   7.875   1.464   4.843 -0.4612  0.9851 -1.9753
21630SOL    HW269347   7.759   1.369   4.866 -1.2112  1.6760 -2.7901
21631SOL     OW69348   0.658   0.365   4.170  0.0077 -0.1315 -0.6449
21631SOL    HW169349   0.573   0.329   4.147 -0.2035 -0.0686  0.0160
21631SOL    HW269350   0.720   0.318   4.114 -0.3667 -0.8329 -0.4847
21632SOL     OW69351   3.053   5.372   3.347 -0.0642 -0.3529  0.1541
21632SOL    HW169352   3.062   5.283   3.312  0.0341 -0.8510  1.4184
21632SOL    HW269353   3.079   5.365   3.439 -1.0913  0.7715  0.5548
21633SOL     OW69354   3.826   0.028   2.822  0.0758 -0.3639  0.2022
21633SOL    HW169355   3.802   0.094   2.887 -1.0513 -1.7973  1.3010
21633SOL    HW269356   3.904  -0.015   2.859 -0.7782 -1.4199  0.8128
21634SOL     OW69357   8.773   0.249   5.911  0.2919 -0.3364 -0.4176
21634SOL    HW169358   8.691   0.255   5.861 -0.3589 -0.8541  0.5630
21634SOL    HW269359   8.778   0.157   5.937  0.1195  0.1003  1.2603
21635SOL     OW69360   5.826  10.794   3.219  0.2908 -0.2549  0.0422
21635SOL    HW169361   5.873  10.877   3.224  1.1187 -0.6865 -0.3354
21635SOL    HW269362   5.883  10.731   3.264 -0.7474 -0.4491  1.1345
21636SOL     OW69363   8.959   8.895   6.401 -0.3479  0.1608  0.1212
21636SOL    HW169364   8.873   8.858   6.379 -0.2508 -0.2233  0.4016
21636SOL    HW269365   9.020   8.851   6.342 -0.2320 -0.1280  0.4588
21637SOL     OW69366   1.997   6.506   5.856 -0.5918 -0.1921 -0.2421
21637SOL    HW169367   2.075   6.557   5.833 -1.6560  1.4481 -0.3891
21637SOL    HW269368   1.953   6.490   5.773 -0.1293 -1.6733 -0.2354
21638SOL     OW69369   4.315   0.640   9.988  0.0844 -0.0391 -0.1790
21638SOL    HW169370   4.274   0.649  10.073  0.9205 -5.8363  1.2681
21638SOL    HW269371   4.405   0.669  10.001  0.3691 -1.4341  1.2128
21639SOL     OW69372   9.945   7.273   2.278  0.3513  0.1472  0.0162
21639SOL    HW169373   9.879   7.311   2.220  1.7695  2.6162 -0.0876
21639SOL    HW269374  10.007   7.230   2.219  1.3128  1.8948 -0.3140
21640SOL     OW69375   2.225   6.652  10.304 -0.3163  0.1174 -0.4714
21640SOL    HW169376   2.291   6.586  10.282  0.1473 -0.2528  1.8363
21640SOL    HW269377   2.159   6.604  10.354 -1.1296  0.9713 -0.7083
21641SOL     OW69378   6.848   9.703   9.852  0.1246 -0.3306 -0.5184
21641SOL    HW169379   6.765   9.669   9.884  0.6483 -0.9119  0.2648
21641SOL    HW269380   6.909   9.629   9.859  0.7435  0.1274 -0.9239
21642SOL     OW69381   9.832   4.603   5.378 -0.2292  0.0252  0.0506
21642SOL    HW169382   9.818   4.696   5.364 -1.0232 -0.2537 -1.1658
21642SOL    HW269383   9.910   4.598   5.433  0.1353  1.3874 -0.3169
21643SOL     OW69384  10.722   6.292   4.291  0.1718 -0.0798 -0.3804
21643SOL    HW169385  10.767   6.325   4.213  1.2913  1.3146  0.7933
21643SOL    HW269386  10.631   6.284   4.265  0.4286  0.8593 -1.6851
21644SOL     OW69387   2.249   7.106   2.839  0.7592  0.2792  0.0833
21644SOL    HW169388   2.277   7.029   2.790  0.3782 -0.0020  0.3041
21644SOL    HW269389   2.307   7.176   2.809  0.0972  0.2854 -1.2920
21645SOL     OW69390   6.566   2.928   2.640  0.1961  0.0143 -0.3822
21645SOL    HW169391   6.495   2.937   2.704 -0.6718  0.8200 -1.4202
21645SOL    HW269392   6.576   2.834   2.629 -0.1703 -0.1234  0.3466
21646SOL     OW69393   3.888  10.542   6.624  0.0829 -0.2648 -0.0092
21646SOL    HW169394   3.883  10.609   6.692  0.4299 -1.0242  0.7961
21646SOL    HW269395   3.980  10.541   6.598  0.0628 -0.3648 -0.0765
21647SOL     OW69396   3.328   6.209   1.910 -0.2426 -0.2827  0.6577
21647SOL    HW169397   3.399   6.223   1.847  0.1797 -1.3728  0.8833
21647SOL    HW269398   3.286   6.295   1.917  0.8722  0.3168  0.3072
21648SOL     OW69399   3.986  10.199   6.007 -0.4677 -0.7112 -0.2110
21648SOL    HW169400   3.894  10.221   5.994 -0.4473 -0.0370  0.6788
21648SOL    HW269401   3.989  10.163   6.096  0.1533 -0.5614 -0.1706
21649SOL     OW69402   3.527   2.300   2.564  0.3332 -0.0186  0.7480
21649SOL    HW169403   3.600   2.313   2.504 -0.3923 -0.1939 -0.1914
21649SOL    HW269404   3.559   2.237   2.628  1.1657  0.2925  0.6489
21650SOL     OW69405   0.218   7.498   4.498  0.0179 -0.0818 -0.6999
21650SOL    HW169406   0.125   7.475   4.495  0.0102  0.0127 -2.0477
21650SOL    HW269407   0.263   7.413   4.504 -0.1340 -0.2028 -1.1993
21651SOL     OW69408  10.881   8.695   7.271 -0.4487  0.5895  0.4040
21651SOL    HW169409  10.860   8.616   7.321  0.1114  1.2710  1.7760
21651SOL    HW269410  10.868   8.670   7.180 -0.7579 -0.9359  0.8377
21652SOL     OW69411   5.912   4.206   0.952  0.2091 -0.3404  0.3438
21652SOL    HW169412   5.845   4.152   0.994  1.7272 -1.7941  1.0040
21652SOL    HW269413   5.882   4.214   0.861 -0.6834 -1.2372  0.5390
21653SOL     OW69414   4.343   2.096   1.049  0.0286  0.1692  0.3927
21653SOL    HW169415   4.273   2.038   1.080  0.8558  0.1708  2.4275
21653SOL    HW269416   4.412   2.037   1.019 -0.5460  0.1649 -0.9882
21654SOL     OW69417   1.159   2.047   1.298 -0.2316 -0.2917  0.4119
21654SOL    HW169418   1.219   1.986   1.256  0.2231 -1.1272  2.1842
21654SOL    HW269419   1.100   1.991   1.349 -1.0175  0.6471  0.5616
21655SOL     OW69420   2.583   0.896   0.456  0.3002 -0.7845 -0.1498
21655SOL    HW169421   2.609   0.874   0.545  0.1949  0.0977  0.1133
21655SOL    HW269422   2.573   0.991   0.457  0.6404 -0.7226 -1.1931
21656SOL     OW69423   9.514   6.154   7.068 -0.3434  0.4090 -0.3647
21656SOL    HW169424   9.544   6.076   7.116  0.0595  0.1438 -1.0393
21656SOL    HW269425   9.471   6.208   7.135  1.5121  0.7476  0.6380
21657SOL     OW69426   1.501   1.387   2.485 -0.9486 -0.0107 -0.1493
21657SOL    HW169427   1.589   1.361   2.458 -1.1139 -1.6408  0.7545
21657SOL    HW269428   1.486   1.470   2.440  1.0277  0.2915 -0.3459
21658SOL     OW69429   4.063   0.371   9.995 -0.0576 -0.8295 -0.5970
21658SOL    HW169430   4.007   0.413  10.060 -0.3885  0.1967 -1.5255
21658SOL    HW269431   4.146   0.417  10.001 -0.1513 -0.5997 -1.0324
21659SOL     OW69432   4.215   1.298   9.621  0.0426 -0.4396 -0.3979
21659SOL    HW169433   4.154   1.224   9.624  0.8110 -1.0818 -0.2843
21659SOL    HW269434   4.291   1.269   9.671 -0.1796  0.9430  0.8071
21660SOL     OW69435   3.115   8.295   2.937 -0.2872 -0.5170  0.0418
21660SOL    HW169436   3.088   8.218   2.886 -0.0755 -0.3319 -0.3534
21660SOL    HW269437   3.033   8.336   2.963 -0.4511 -1.6090  1.4169
21661SOL     OW69438   2.665  10.164   7.498 -0.6144  0.3776  0.2795
21661SOL    HW169439   2.724  10.182   7.424  0.2050  0.2860  0.9030
21661SOL    HW269440   2.674  10.070   7.513  0.8763  0.7207  1.8486
21662SOL     OW69441   0.561   1.325   3.328  0.0740  0.1566 -0.7468
21662SOL    HW169442   0.545   1.303   3.236  1.0086 -1.7274 -0.5084
21662SOL    HW269443   0.647   1.367   3.328  1.0776 -1.7772 -0.5498
21663SOL     OW69444  11.061   4.697   6.465 -0.2279  0.3020 -0.6201
21663SOL    HW169445  11.090   4.669   6.379  0.0364 -0.8507 -0.1723
21663SOL    HW269446  10.976   4.739   6.450 -1.5680 -2.4143 -1.1220
21664SOL     OW69447   6.430   4.504   2.928  0.3994 -0.5316 -0.3978
21664SOL    HW169448   6.485   4.579   2.953 -0.0411  0.0284 -1.0715
21664SOL    HW269449   6.406   4.464   3.011  0.6380  0.0833 -0.0215
21665SOL     OW69450   7.287   4.291   7.213 -0.0596  0.2786  0.3912
21665SOL    HW169451   7.370   4.264   7.174  0.5838 -0.6037  2.2516
21665SOL    HW269452   7.280   4.384   7.192  1.1886  0.2643 -0.1588
21666SOL     OW69453   5.572   1.257   2.845 -0.2591  0.4252 -0.2268
21666SOL    HW169454   5.608   1.226   2.762  0.9256  0.0836  0.3961
21666SOL    HW269455   5.649   1.279   2.898 -1.0216  1.9482  0.3026
21667SOL     OW69456   9.896   0.831   3.689  0.0028 -0.4897 -0.7896
21667SOL    HW169457   9.851   0.768   3.634 -2.1295  0.3872 -0.1300
21667SOL    HW269458   9.838   0.907   3.693  1.8065  0.9691 -0.3658
21668SOL     OW69459   3.598   6.202   6.615  0.2627  0.6427  0.3777
21668SOL    HW169460   3.659   6.185   6.686 -2.4390 -1.4468  2.4241
21668SOL    HW269461   3.583   6.117   6.575  0.4812  1.5252 -1.7006
21669SOL     OW69462   4.254   7.971   5.477  0.0625  0.4945  0.0067
21669SOL    HW169463   4.253   8.040   5.411 -1.4248  1.3377  0.8601
21669SOL    HW269464   4.222   8.013   5.557  0.7189 -0.7787  0.9873
21670SOL     OW69465   2.148   3.902   0.500 -0.4558  0.4502  0.7223
21670SOL    HW169466   2.170   3.811   0.523 -1.1928  0.6404  2.2717
21670SOL    HW269467   2.055   3.910   0.520 -1.3550  0.5714 -2.7780
21671SOL     OW69468   4.289   8.142   4.435  0.1986 -0.2237  0.0722
21671SOL    HW169469   4.289   8.228   4.477 -0.4724 -0.4182  0.4917
21671SOL    HW269470   4.256   8.083   4.503 -0.8404 -0.5563 -0.7016
21672SOL     OW69471   4.105   7.236   0.192 -0.4546 -0.3165  0.0778
21672SOL    HW169472   4.146   7.169   0.247  1.3696  0.7346  0.0892
21672SOL    HW269473   4.064   7.297   0.253 -2.2225 -1.4281  0.0635
21673SOL     OW69474   9.336   9.800   0.297 -0.0692 -0.1845  0.3232
21673SOL    HW169475   9.279   9.876   0.292 -0.4647 -0.5235 -0.4523
21673SOL    HW269476   9.305   9.751   0.373 -1.8398 -1.1629 -0.9611
21674SOL     OW69477   4.715   2.558   8.770 -0.0337 -0.6518 -0.6914
21674SOL    HW169478   4.635   2.506   8.757 -1.6805  1.7551 -0.9481
21674SOL    HW269479   4.747   2.577   8.682  0.7349 -1.4505 -0.5922
21675SOL     OW69480   2.351   3.847   0.309 -0.2293  0.3124 -0.2882
21675SOL    HW169481   2.303   3.902   0.372  0.5310  0.3869  0.2384
21675SOL    HW269482   2.345   3.896   0.227  0.4430  1.2026  0.1750
21676SOL     OW69483   2.301   5.533   7.870 -0.1554 -0.1959 -0.2251
21676SOL    HW169484   2.359   5.462   7.895 -0.4761 -0.8075 -1.1390
21676SOL    HW269485   2.359   5.603   7.841  0.1509 -0.2565  0.2350
21677SOL     OW69486   8.667   5.712   9.403  0.6270 -0.0543 -0.3347
21677SOL    HW169487   8.611   5.719   9.326 -0.2871 -1.4716  0.1614
21677SOL    HW269488   8.733   5.781   9.391 -0.4434  0.8041 -1.5731
21678SOL     OW69489   4.143   1.032   1.550  0.2593  0.0022 -0.2005
21678SOL    HW169490   4.234   1.007   1.532  0.1270 -1.2558  0.7281
21678SOL    HW269491   4.091   0.970   1.498 -0.0873  0.3444 -0.2702
21679SOL     OW69492   5.955  10.199   4.571  0.0523  0.5081  0.3169
21679SOL    HW169493   6.006  10.229   4.496  0.6460  1.9482  1.2556
21679SOL    HW269494   5.891  10.269   4.585 -0.5549 -0.1144  0.6921
21680SOL     OW69495   0.831   5.287  10.377  0.0587 -0.0483 -0.3020
21680SOL    HW169496   0.822   5.215  10.315 -0.1896  0.7048 -1.1711
21680SOL    HW269497   0.769   5.268  10.447 -0.1353 -0.5813 -0.6172
21681SOL     OW69498   4.464   3.073   4.624  0.1822  0.3163  0.0986
21681SOL    HW169499   4.403   3.143   4.602 -0.9208 -0.8786 -0.8694
21681SOL    HW269500   4.542   3.090   4.572 -0.7669 -0.1209 -1.5195
21682SOL     OW69501   0.702   4.405   1.953 -0.3364  0.6355 -0.0378
21682SOL    HW169502   0.637   4.469   1.983  0.6840  1.3410  0.7224
21682SOL    HW269503   0.776   4.457   1.925  0.2353 -0.1886 -0.0994
21683SOL     OW69504   7.569   1.316   8.723 -0.5723 -0.0093  0.4013
21683SOL    HW169505   7.657   1.354   8.720 -0.1748 -0.5599  2.8690
21683SOL    HW269506   7.510   1.390   8.713  0.1993  0.7487  1.3012
21684SOL     OW69507   2.437   6.505  10.177  0.0357 -0.1095  0.0840
21684SOL    HW169508   2.519   6.539  10.141  0.0537  0.8178  0.9520
21684SOL    HW269509   2.464   6.436  10.237  0.1046 -0.5479 -0.4426
21685SOL     OW69510   8.261   4.859   6.171  0.2159  0.1257  0.2190
21685SOL    HW169511   8.239   4.766   6.184  0.1506  0.2855  1.3542
21685SOL    HW269512   8.284   4.890   6.258 -0.6494  1.4235  0.0108
21686SOL     OW69513   3.908  10.233   7.909  0.1420  0.2541  0.3648
21686SOL    HW169514   3.923  10.298   7.841 -0.5633  0.3393  0.2922
21686SOL    HW269515   3.996  10.199   7.929  0.3283 -0.0247 -0.8369
21687SOL     OW69516   4.811   5.148   3.018 -0.2265 -0.6656  0.3409
21687SOL    HW169517   4.855   5.184   2.941  1.3098 -0.6646  1.1872
21687SOL    HW269518   4.751   5.218   3.046  0.7345  0.1642  0.3651
21688SOL     OW69519   1.503   1.374   2.779  0.1015  0.3447 -0.1456
21688SOL    HW169520   1.508   1.401   2.871  3.2717 -1.1397  0.2643
21688SOL    HW269521   1.543   1.287   2.778  0.1433  0.3166 -2.9392
21689SOL     OW69522   1.402   1.206   2.224 -0.3956  0.1291  0.0972
21689SOL    HW169523   1.334   1.240   2.281 -2.6551 -0.4287 -2.0831
21689SOL    HW269524   1.355   1.173   2.147  2.3294 -0.5077 -1.4412
21690SOL     OW69525   3.620  10.146   5.719  0.1283  0.3333 -0.4292
21690SOL    HW169526   3.682  10.073   5.723  0.6668  0.7515 -1.0116
21690SOL    HW269527   3.544  10.110   5.673  0.5895  0.2751 -1.1560
21691SOL     OW69528  10.782   7.760   4.451  0.4696  0.0568  0.9534
21691SOL    HW169529  10.848   7.830   4.446  1.3803 -0.8393  0.1600
21691SOL    HW269530  10.703   7.805   4.482  1.0783  1.4041  0.6386
21692SOL     OW69531   8.493   1.045   6.087  0.7240  0.4070 -0.3031
21692SOL    HW169532   8.438   1.121   6.071  1.2913  1.0261  0.5805
21692SOL    HW269533   8.502   1.003   6.002 -1.7556 -0.1818 -0.3541
21693SOL     OW69534   6.437  11.043   2.250 -0.1490  0.1747 -0.3872
21693SOL    HW169535   6.524  11.003   2.255 -0.4464 -0.3556  0.8787
21693SOL    HW269536   6.397  11.005   2.172  0.2188 -0.6725 -0.1706
21694SOL     OW69537   5.513   6.737  11.035  0.1945 -0.4544 -0.0615
21694SOL    HW169538   5.551   6.755  10.949  0.2720 -0.6040 -0.0580
21694SOL    HW269539   5.585   6.699  11.086 -0.1436 -1.4198 -0.2807
21695SOL     OW69540   6.903   3.486   2.190 -0.2899  0.0746 -0.2084
21695SOL    HW169541   6.957   3.479   2.268 -0.2550 -0.0329 -0.2414
21695SOL    HW269542   6.835   3.549   2.213  0.3107  0.8160 -0.4443
21696SOL     OW69543   5.422   0.248   0.710  0.1109 -0.2023  0.6697
21696SOL    HW169544   5.505   0.214   0.676 -0.0640 -0.7657  0.7982
21696SOL    HW269545   5.446   0.289   0.794  0.8508  2.7378 -0.8274
21697SOL     OW69546   5.009   5.681   8.509  0.5947  0.1817 -0.1632
21697SOL    HW169547   5.059   5.762   8.495  0.2044  0.1519 -2.0180
21697SOL    HW269548   5.018   5.633   8.426 -0.6726 -0.8516  0.2689
21698SOL     OW69549   8.851   9.453   5.111 -0.0900  0.4935 -0.1164
21698SOL    HW169550   8.819   9.394   5.180 -1.6562  0.3793 -0.8969
21698SOL    HW269551   8.866   9.397   5.036 -0.9341  0.9568 -0.6553
21699SOL     OW69552   3.260   5.208   1.255 -0.6284 -0.6681  0.2914
21699SOL    HW169553   3.164   5.202   1.261 -0.7809  2.0350  3.4455
21699SOL    HW269554   3.275   5.293   1.213  0.2668  0.2389  2.3355
21700SOL     OW69555   6.552   4.295   6.463  0.3213  0.1424 -0.1778
21700SOL    HW169556   6.564   4.322   6.554  2.0850 -0.1257 -0.2963
21700SOL    HW269557   6.595   4.210   6.457 -0.4616 -0.2105 -1.0892
21701SOL     OW69558  10.250   6.289  10.820 -0.5987 -1.1972  0.4012
21701SOL    HW169559  10.255   6.335  10.904 -1.2532  0.8731 -0.6561
21701SOL    HW269560  10.342   6.277  10.794 -0.4165 -0.9334  0.9140
21702SOL     OW69561  10.217   3.080   3.048 -0.4628  0.1618  0.4862
21702SOL    HW169562  10.227   3.035   2.965 -1.3448  0.1881  0.3537
21702SOL    HW269563  10.180   3.014   3.107  1.8798 -0.4161  1.4090
21703SOL     OW69564   7.761   7.342   2.977 -0.2916  0.3137  1.1626
21703SOL    HW169565   7.800   7.382   3.055 -0.0503 -1.4644  2.0016
21703SOL    HW269566   7.722   7.415   2.929  1.6198  1.7850  1.7274
21704SOL     OW69567   3.286   8.930   9.619 -0.0347 -0.2509 -0.2888
21704SOL    HW169568   3.206   8.966   9.656 -0.1490  0.1243 -0.8931
21704SOL    HW269569   3.264   8.910   9.528 -0.2027 -2.5280  0.1700
21705SOL     OW69570   6.232   5.236   0.629  0.0904  0.5361 -0.4514
21705SOL    HW169571   6.196   5.271   0.711  0.8290  0.9131 -0.2778
21705SOL    HW269572   6.210   5.302   0.563  0.3605  0.7057 -0.3702
21706SOL     OW69573  10.294   1.035   4.916  0.3160 -0.5852 -0.1703
21706SOL    HW169574  10.199   1.039   4.905  0.1504 -2.9343 -0.0601
21706SOL    HW269575  10.325   0.992   4.837  1.4499  1.0139 -0.6507
21707SOL     OW69576   5.149   7.413   8.036 -0.2055 -0.0383 -0.0962
21707SOL    HW169577   5.222   7.360   8.065 -0.2505 -1.2539 -2.0751
21707SOL    HW269578   5.071   7.365   8.064 -0.2685 -1.7468 -2.8828
21708SOL     OW69579   7.993   7.806   1.503  0.1581  0.3390 -0.4607
21708SOL    HW169580   7.955   7.861   1.434 -1.4943 -2.1319 -1.6684
21708SOL    HW269581   8.086   7.802   1.481 -0.0126  1.0984 -1.4266
21709SOL     OW69582   7.078  10.473   1.899 -0.8536  0.3756 -0.6887
21709SOL    HW169583   7.008  10.408   1.885  0.9303 -1.9919  0.6314
21709SOL    HW269584   7.143  10.454   1.831 -0.8104  1.6377 -1.0335
21710SOL     OW69585   8.162   0.169   5.811 -0.4920  0.1762  0.5247
21710SOL    HW169586   8.177   0.170   5.716  2.2196 -0.8610  0.8533
21710SOL    HW269587   8.114   0.250   5.828 -1.7394  0.0154 -1.7915
21711SOL     OW69588   1.796   2.267   4.821 -0.1204  0.6539  0.2676
21711SOL    HW169589   1.731   2.197   4.816  0.0032  0.3948  1.8249
21711SOL    HW269590   1.820   2.284   4.730 -0.5373 -0.9672 -0.1728
21712SOL     OW69591   6.499   6.201   0.016  0.0868 -0.2351 -0.2821
21712SOL    HW169592   6.503   6.109   0.042 -0.6317 -1.1419 -3.0711
21712SOL    HW269593   6.553   6.246   0.081  0.0414 -2.5183  1.4717
21713SOL     OW69594   2.087   2.777   5.906 -0.5145 -0.3565  0.4438
21713SOL    HW169595   2.176   2.792   5.938 -0.2855 -0.8475  0.0544
21713SOL    HW269596   2.059   2.863   5.874 -1.0726  0.3591  2.6834
21714SOL     OW69597   3.744   0.635   0.771 -0.2534  0.2159 -0.1687
21714SOL    HW169598   3.662   0.656   0.726 -0.9268 -0.6145  0.6419
21714SOL    HW269599   3.766   0.547   0.741  0.5320  0.5626 -0.6367
21715SOL     OW69600  10.662   4.579   4.096  0.0098 -0.1430 -0.3556
21715SOL    HW169601  10.699   4.654   4.050  0.3304  0.3436  0.6924
21715SOL    HW269602  10.570   4.602   4.109  0.4014  0.6633  1.1382
21716SOL     OW69603   3.005   0.415   3.649 -0.2851 -0.4331 -0.4816
21716SOL    HW169604   2.916   0.430   3.619 -0.3993 -0.0959  0.0047
21716SOL    HW269605   3.038   0.503   3.671 -0.1300 -0.6405  0.1445
21717SOL     OW69606   2.493   8.702   1.870 -0.1438 -0.2720  0.6925
21717SOL    HW169607   2.418   8.755   1.896  0.6803  1.2071  0.2001
21717SOL    HW269608   2.540   8.685   1.952 -0.9803 -1.1988  1.0012
21718SOL     OW69609   2.125   9.157   2.278  0.3006 -0.0978  0.6926
21718SOL    HW169610   2.096   9.234   2.229 -0.4668 -0.3918  0.6634
21718SOL    HW269611   2.146   9.093   2.210  1.1301  0.1459  0.7123
21719SOL     OW69612   7.840   6.873   0.695  0.0988  0.0590  0.2514
21719SOL    HW169613   7.923   6.828   0.708 -0.3593 -0.9018 -0.0360
21719SOL    HW269614   7.775   6.813   0.733 -0.5179  0.5234 -0.0587
21720SOL     OW69615   3.945   5.414   3.759  0.2130  0.4628  0.4150
21720SOL    HW169616   3.884   5.432   3.829  0.0212  1.1442  0.0843
21720SOL    HW269617   4.011   5.356   3.798 -1.8191 -2.1883  0.1826
21721SOL     OW69618   1.183   6.297   0.873 -0.0406  0.3826  0.2142
21721SOL    HW169619   1.166   6.356   0.947  0.0029 -1.4843  1.8067
21721SOL    HW269620   1.114   6.231   0.879 -1.4454  1.3623 -2.8638
21722SOL     OW69621   6.093   8.382   5.847 -0.7200  0.3293 -0.3248
21722SOL    HW169622   6.169   8.431   5.816 -0.7991  0.9351  0.4041
21722SOL    HW269623   6.130   8.312   5.901 -0.7043  1.3565  1.0411
21723SOL     OW69624   0.677   3.508   3.274 -0.0138  0.0292 -0.0222
21723SOL    HW169625   0.712   3.544   3.355  1.4622  0.8740 -0.9950
21723SOL    HW269626   0.658   3.585   3.219 -2.5374 -0.4271  0.0653
21724SOL     OW69627   2.643   3.708   5.428 -0.4286  0.0507 -0.3180
21724SOL    HW169628   2.572   3.772   5.438 -0.8904 -0.5921  0.5959
21724SOL    HW269629   2.603   3.624   5.449  0.4662 -0.3956 -0.3663
21725SOL     OW69630   5.780   7.579   2.059  0.0382  0.0377 -0.2909
21725SOL    HW169631   5.781   7.531   1.976  0.4516  0.0456 -0.2905
21725SOL    HW269632   5.766   7.670   2.033  1.5763  0.2457 -0.4587
21726SOL     OW69633  10.436   5.295   3.096  0.2331  0.5524 -0.1120
21726SOL    HW169634  10.477   5.367   3.145 -0.2615  0.9088 -0.2129
21726SOL    HW269635  10.510   5.250   3.054  0.9270 -1.1727  2.7227
21727SOL     OW69636   9.854   1.026   6.509  0.1558 -0.2611 -0.3758
21727SOL    HW169637   9.909   1.092   6.551 -2.6242  1.2536  1.1398
21727SOL    HW269638   9.849   1.054   6.417  0.7873  0.3337 -0.2395
21728SOL     OW69639   7.276   8.424   4.310 -0.1329  0.1503 -0.0177
21728SOL    HW169640   7.207   8.417   4.245 -0.9086  2.8388  0.4168
21728SOL    HW269641   7.342   8.480   4.269 -0.5295  1.6922  1.3396
21729SOL     OW69642   7.722   6.737   1.702 -0.0651  0.8884  0.0475
21729SOL    HW169643   7.765   6.685   1.770  0.1074  0.6525 -0.2425
21729SOL    HW269644   7.706   6.822   1.744 -1.3865  0.2587  0.9109
21730SOL     OW69645  10.867   6.864   0.585 -0.2358 -0.4368  0.2075
21730SOL    HW169646  10.932   6.849   0.654 -0.0257 -0.3634  0.0287
21730SOL    HW269647  10.883   6.954   0.555 -0.4424 -0.4060  0.1852
21731SOL     OW69648   6.873   6.322   6.868  0.0255  0.6110  0.1151
21731SOL    HW169649   6.968   6.313   6.868  0.0926  0.7681  2.4227
21731SOL    HW269650   6.855   6.383   6.796  1.8745  2.1237  0.8573
21732SOL     OW69651  10.775  10.794   2.676  0.0992  0.0249 -0.6317
21732SOL    HW169652  10.812  10.718   2.631 -1.6939 -1.9489  1.0425
21732SOL    HW269653  10.686  10.803   2.641 -0.1368  0.5912  0.0852
21733SOL     OW69654   4.036   9.940   2.796 -0.1699  0.2064 -0.5639
21733SOL    HW169655   4.070   9.988   2.721 -0.0956  1.4922  0.2591
21733SOL    HW269656   4.113   9.907   2.841 -0.0395  1.8741  0.4958
21734SOL     OW69657   7.431   4.528   6.256  0.2594 -0.0883 -0.0146
21734SOL    HW169658   7.497   4.495   6.317  0.9346 -2.1419 -1.7335
21734SOL    HW269659   7.355   4.472   6.270  0.1214 -0.0172 -0.4642
21735SOL     OW69660  10.521   1.650   2.566  0.0398  0.1414  0.2302
21735SOL    HW169661  10.482   1.737   2.572  0.9779  0.6186 -0.3085
21735SOL    HW269662  10.493   1.617   2.481  1.2869  0.7547 -0.4525
21736SOL     OW69663   4.950   9.564   9.434 -0.2067 -0.3031 -0.3596
21736SOL    HW169664   5.004   9.544   9.358  2.1907 -1.5505  1.5328
21736SOL    HW269665   4.904   9.483   9.454 -0.5560 -0.0906 -0.2953
21737SOL     OW69666  10.469   1.714   1.960 -0.3108  0.2331 -0.1832
21737SOL    HW169667  10.559   1.726   1.930 -0.6197 -1.3042 -1.9509
21737SOL    HW269668  10.432   1.648   1.900 -1.3711 -2.2784  2.9273
21738SOL     OW69669   2.759   4.075   9.027  0.6958  0.4047 -0.4945
21738SOL    HW169670   2.706   4.051   8.951  1.3608  0.5208 -0.9965
21738SOL    HW269671   2.694   4.090   9.097  0.1699 -1.6122 -0.4720
21739SOL     OW69672   1.616   1.994   0.449  0.3013  0.1921  0.1981
21739SOL    HW169673   1.645   2.070   0.398 -1.3264  0.4862 -0.3643
21739SOL    HW269674   1.529   2.018   0.481  1.0055 -0.2260  2.6748
21740SOL     OW69675   8.980   2.961   7.765  0.5409  0.2494 -0.5842
21740SOL    HW169676   9.022   2.888   7.718  0.1682  0.8892 -1.9370
21740SOL    HW269677   8.976   2.931   7.856 -1.5259 -2.3263 -1.4127
21741SOL     OW69678   0.980   3.816   5.018  0.2576  0.2296 -0.2335
21741SOL    HW169679   0.915   3.828   5.087  1.1079  1.3159  0.4350
21741SOL    HW269680   1.021   3.902   5.009  2.2477 -0.6129  0.0686
21742SOL     OW69681   3.139   3.761   2.977 -0.4115 -0.3536  0.1772
21742SOL    HW169682   3.186   3.755   3.060 -0.8031 -0.1806  0.4161
21742SOL    HW269683   3.206   3.786   2.914 -0.1864 -0.0751  0.5189
21743SOL     OW69684   3.863   4.452   4.166  0.1538  0.2354 -0.1849
21743SOL    HW169685   3.858   4.358   4.180  1.0540  0.0940 -0.6988
21743SOL    HW269686   3.952   4.475   4.192  0.5012  0.6500 -1.6304
21744SOL     OW69687   3.706   8.123   1.611  0.2587  0.0662  0.0459
21744SOL    HW169688   3.642   8.109   1.542 -0.2520 -0.9972  0.7165
21744SOL    HW269689   3.739   8.212   1.595 -2.4374  1.2699  0.5328
21745SOL     OW69690   7.966   9.852  10.246  0.3751  0.0086 -0.2041
21745SOL    HW169691   7.983   9.801  10.167  1.6034  0.4901 -0.2705
21745SOL    HW269692   7.890   9.906  10.224  1.4542  1.0726 -1.5366
21746SOL     OW69693   3.159   8.521   9.099 -0.0910 -0.2581  0.7296
21746SOL    HW169694   3.115   8.606   9.089 -1.4346 -1.0033  0.0932
21746SOL    HW269695   3.225   8.537   9.166 -1.1410  0.9839  1.5219
21747SOL     OW69696  10.653   4.509   7.428 -0.3180 -0.2181  0.6073
21747SOL    HW169697  10.572   4.556   7.409 -0.2386 -0.6755 -1.0318
21747SOL    HW269698  10.689   4.488   7.341  2.4960  1.5477  1.2533
21748SOL     OW69699   0.076   0.625   9.649  0.0992 -0.0431 -0.3416
21748SOL    HW169700   0.048   0.672   9.728  0.3354  0.3568 -0.4922
21748SOL    HW269701   0.100   0.694   9.587  1.0843 -0.3532 -0.3342
21749SOL     OW69702   2.991   3.318   2.916  0.0002 -0.4537 -0.0019
21749SOL    HW169703   3.076   3.362   2.905  0.0825 -0.9271 -1.5573
21749SOL    HW269704   2.961   3.303   2.826 -1.3311 -1.0653  0.5281
21750SOL     OW69705   3.368  10.913   2.103  0.5695  0.2772  0.4502
21750SOL    HW169706   3.440  10.889   2.162  1.6567  0.4758 -0.7312
21750SOL    HW269707   3.352  11.006   2.122 -0.2232 -0.0626  1.5481
21751SOL     OW69708   4.856   1.041   1.077  0.1841 -0.2941 -0.0018
21751SOL    HW169709   4.849   1.073   1.167 -1.8190 -1.2342  0.2390
21751SOL    HW269710   4.850   1.120   1.023  1.8016  0.3198  0.6440
21752SOL     OW69711   9.761   3.162   1.810 -0.1555  0.2287  0.1063
21752SOL    HW169712   9.784   3.245   1.768 -1.5984  1.1147  0.9976
21752SOL    HW269713   9.838   3.140   1.863  1.2684 -0.3653 -2.0547
21753SOL     OW69714   1.960   0.188   8.276  0.0991 -0.3339 -0.2927
21753SOL    HW169715   2.020   0.130   8.322  0.6872 -0.0247 -0.6571
21753SOL    HW269716   1.887   0.132   8.250  0.5557 -0.8605 -0.4445
21754SOL     OW69717   3.777  10.363   8.102  0.3994 -0.0472  0.5790
21754SOL    HW169718   3.804  10.321   8.021  1.1748 -1.0872  1.3392
21754SOL    HW269719   3.778  10.457   8.083 -0.2779 -0.2972 -0.8407
21755SOL     OW69720   3.542   2.311   1.233  0.6276  0.1248 -0.1529
21755SOL    HW169721   3.611   2.276   1.178 -0.0889 -1.5644 -0.0369
21755SOL    HW269722   3.553   2.266   1.317  0.0877  0.6788  0.2252
21756SOL     OW69723   9.594   1.559   9.337 -0.2279  0.2329 -0.1234
21756SOL    HW169724   9.585   1.563   9.241 -1.8253 -0.4297 -0.0271
21756SOL    HW269725   9.681   1.523   9.351  0.0288  0.3222 -1.3316
21757SOL     OW69726   6.065   4.654   5.679  0.1257 -0.2793 -0.5382
21757SOL    HW169727   5.992   4.611   5.634  0.6697 -1.4020 -0.3920
21757SOL    HW269728   6.049   4.747   5.668 -0.5012 -0.5207 -1.8432
21758SOL     OW69729   7.535   2.078   1.232  0.1105  0.2191  0.8500
21758SOL    HW169730   7.491   2.007   1.277 -1.8683  0.9278  0.1296
21758SOL    HW269731   7.576   2.129   1.302  1.0611 -1.2519  1.4107
21759SOL     OW69732   0.943   5.855   2.666  0.0250 -0.1848  0.2978
21759SOL    HW169733   0.912   5.789   2.604  0.8881 -0.3079 -0.0192
21759SOL    HW269734   0.864   5.899   2.696 -0.4265 -0.2714 -0.7295
21760SOL     OW69735   8.632   5.693   4.318  0.2674 -0.1753  0.4513
21760SOL    HW169736   8.537   5.686   4.328  0.5372 -2.5059  2.3817
21760SOL    HW269737   8.659   5.752   4.388  0.3169  0.0655  0.2326
21761SOL     OW69738  10.589  10.376   9.781  0.2843 -0.0704  0.1404
21761SOL    HW169739  10.572  10.432   9.705 -1.1417  0.2608  0.6536
21761SOL    HW269740  10.650  10.426   9.835 -0.2763  0.6030  0.1608
21762SOL     OW69741   4.735   8.078   9.929 -0.3729 -0.1422 -0.0802
21762SOL    HW169742   4.733   7.984   9.945 -0.4005 -0.2240 -0.5335
21762SOL    HW269743   4.644   8.101   9.906 -0.7036  0.2804  1.5266
21763SOL     OW69744   7.860   0.138   1.902 -0.2155  0.1433  0.0575
21763SOL    HW169745   7.904   0.213   1.861 -0.0625 -0.6298 -1.2456
21763SOL    HW269746   7.810   0.098   1.831  1.1508 -2.0599  0.2490
21764SOL     OW69747   9.856   7.761   5.366 -0.3684  0.4389  0.0608
21764SOL    HW169748   9.882   7.842   5.322 -0.2424  0.7871  0.7670
21764SOL    HW269749   9.812   7.790   5.446  1.8382 -0.1790  1.5728
21765SOL     OW69750   5.497   3.342  10.859 -0.4395 -0.3784  1.0156
21765SOL    HW169751   5.501   3.310  10.769 -0.4417  2.3274 -0.0411
21765SOL    HW269752   5.415   3.392  10.864  0.1971  0.6257  2.1009
21766SOL     OW69753   4.610   2.939   2.064  0.6846 -0.2962 -0.4358
21766SOL    HW169754   4.611   2.879   2.139  1.8233 -0.6980 -0.7585
21766SOL    HW269755   4.524   2.981   2.069 -0.4018 -2.3653 -0.5319
21767SOL     OW69756   8.409   5.277   0.897  0.1244  0.2892  0.0403
21767SOL    HW169757   8.481   5.232   0.942 -1.7794 -1.6436  1.3520
21767SOL    HW269758   8.425   5.260   0.804  1.0081 -0.6975  0.3502
21768SOL     OW69759   5.964   2.842   7.853  0.4455  0.0409  0.1952
21768SOL    HW169760   6.028   2.773   7.870  1.0121  0.4875 -0.0862
21768SOL    HW269761   5.893   2.824   7.914  1.5685  0.4864  1.7094
21769SOL     OW69762  10.120   7.347   6.184 -0.0180  0.0160  0.8440
21769SOL    HW169763  10.030   7.328   6.157  0.4426 -0.2342 -0.5999
21769SOL    HW269764  10.171   7.273   6.150  0.4559 -1.0575  3.6250
21770SOL     OW69765   0.327   5.923   9.279 -0.2760 -0.0659 -0.1856
21770SOL    HW169766   0.270   5.849   9.257  1.0694 -1.2689  0.2349
21770SOL    HW269767   0.278   5.971   9.346 -0.3341 -1.7219  1.0193
21771SOL     OW69768   6.873  10.478   0.424  0.1363  0.0307 -0.7164
21771SOL    HW169769   6.887  10.392   0.463 -1.6270 -0.4875 -1.1367
21771SOL    HW269770   6.839  10.532   0.496  0.7502  0.2306 -0.5754
21772SOL     OW69771   7.842   0.187  10.399 -0.1811 -0.5333  0.0305
21772SOL    HW169772   7.836   0.180  10.304 -0.5057 -1.6553  0.1098
21772SOL    HW269773   7.872   0.276  10.416  0.4254 -0.5058 -1.1383
21773SOL     OW69774   9.302  11.051   9.956 -0.0372  0.0583 -0.4781
21773SOL    HW169775   9.361  10.976   9.955  0.0391  0.1028  0.1741
21773SOL    HW269776   9.215  11.014   9.971  0.1025  0.1558  0.6167
21774SOL     OW69777   4.938   1.279   2.435  0.1520 -0.5035  0.0201
21774SOL    HW169778   5.028   1.250   2.422  0.3837  0.5143 -0.7977
21774SOL    HW269779   4.886   1.225   2.375  0.3018 -0.6161 -0.0087
21775SOL     OW69780   6.559   8.316   8.325  0.4574 -0.3741  0.1600
21775SOL    HW169781   6.581   8.223   8.311  2.7798  0.0674  0.4501
21775SOL    HW269782   6.628   8.364   8.279  0.5621  1.1880  1.8282
21776SOL     OW69783   4.549   2.176   9.597 -0.5592 -0.5627 -0.4548
21776SOL    HW169784   4.615   2.211   9.538 -1.3311 -0.5996 -1.3590
21776SOL    HW269785   4.597   2.113   9.652  0.2533 -0.1965 -0.7319
21777SOL     OW69786   1.246   1.563   9.937 -0.4298  0.4711 -0.4253
21777SOL    HW169787   1.292   1.481   9.918 -0.7230 -0.4684  2.3689
21777SOL    HW269788   1.163   1.534   9.977 -1.1958  2.1385 -0.7327
21778SOL     OW69789  10.031   1.166   8.897  0.0074 -0.4475  0.1067
21778SOL    HW169790  10.024   1.206   8.810 -0.2035  0.4282  0.5137
21778SOL    HW269791  10.100   1.100   8.888 -0.9444 -1.3425 -1.0842
21779SOL     OW69792   9.852  10.108   7.658 -0.3467  0.7025  0.3653
21779SOL    HW169793   9.892  10.128   7.573  0.8410 -1.0158  0.4874
21779SOL    HW269794   9.801  10.029   7.642 -0.3810  0.5521  1.1791
21780SOL     OW69795   5.895   2.566   3.767  0.2450 -0.2106  0.2091
21780SOL    HW169796   5.904   2.656   3.737  1.6066 -0.4836 -0.2975
21780SOL    HW269797   5.815   2.534   3.726  1.2538 -0.1032 -1.9597
21781SOL     OW69798   9.109   9.435   3.603 -0.5035 -0.5301 -1.0780
21781SOL    HW169799   9.183   9.443   3.543  1.1697  1.3015  1.0526
21781SOL    HW269800   9.035   9.471   3.555  0.5756  0.0974 -2.3480
21782SOL     OW69801   8.436   1.548   6.432  0.3497 -0.4465 -0.1494
21782SOL    HW169802   8.482   1.577   6.353 -0.1321 -0.7720 -0.5526
21782SOL    HW269803   8.466   1.458   6.446 -0.0870 -0.6265 -0.3589
21783SOL     OW69804   8.474   7.193   8.071  0.4169 -0.3542  0.3223
21783SOL    HW169805   8.435   7.108   8.050  0.9095 -0.2860 -0.9344
21783SOL    HW269806   8.400   7.254   8.069  0.4009 -0.3811 -1.1183
21784SOL     OW69807   8.551   4.301  10.000 -0.2176  0.8341 -0.1328
21784SOL    HW169808   8.538   4.336   9.912 -0.9565  0.3910 -0.2030
21784SOL    HW269809   8.591   4.216   9.986  2.7437  2.0632  0.0695
21785SOL     OW69810   8.539   2.784   7.561  0.7579  0.0298  0.1537
21785SOL    HW169811   8.494   2.845   7.501 -2.4984 -1.2430  1.0921
21785SOL    HW269812   8.632   2.799   7.544  0.0681  2.8488 -2.0310
21786SOL     OW69813   8.799   6.634   8.423 -0.1845  0.8080  0.1207
21786SOL    HW169814   8.872   6.612   8.365 -0.8374 -2.9919  0.4875
21786SOL    HW269815   8.727   6.654   8.363  0.3712  1.7540 -0.2613
21787SOL     OW69816   0.174   3.680   1.192  0.0767 -1.1411 -0.0154
21787SOL    HW169817   0.144   3.753   1.246  1.8122 -0.1044 -0.3510
21787SOL    HW269818   0.157   3.602   1.244  0.3787 -0.2888  1.4266
21788SOL     OW69819   7.935   6.580   9.065 -0.2774  0.8687  0.0116
21788SOL    HW169820   7.880   6.501   9.062  1.2496 -0.1957 -1.6340
21788SOL    HW269821   7.896   6.639   9.001  0.0942  0.3832 -0.6679
21789SOL     OW69822  10.998   2.069   9.109  0.3817  0.7597 -0.7391
21789SOL    HW169823  11.050   1.993   9.082  0.2335  0.6072 -0.6058
21789SOL    HW269824  10.956   2.100   9.029 -1.5349 -0.8245 -0.4319
21790SOL     OW69825   3.047   4.906   3.013 -0.7683  0.3239  0.0102
21790SOL    HW169826   2.972   4.889   3.069  0.8434  0.3817  2.3029
21790SOL    HW269827   3.081   4.820   2.991 -2.5871  0.1760 -2.7817
21791SOL     OW69828   9.824   3.906   7.295  0.1158  0.5420  0.2820
21791SOL    HW169829   9.858   3.923   7.207 -0.8370 -1.6325 -0.5930
21791SOL    HW269830   9.872   3.827   7.324 -1.1470 -0.0753  0.7563
21792SOL     OW69831   2.973   7.430   1.674  0.5910  0.0463  0.5567
21792SOL    HW169832   3.022   7.415   1.594  2.1572  0.6802  1.3575
21792SOL    HW269833   3.001   7.360   1.733 -0.3343 -0.2489  0.6668
21793SOL     OW69834   4.513   7.537   1.883  0.2579 -0.3342  1.0150
21793SOL    HW169835   4.595   7.556   1.928 -0.2284  1.2795  1.2768
21793SOL    HW269836   4.454   7.608   1.909 -0.9738 -1.0151  0.1903
21794SOL     OW69837  10.763   5.667   3.235 -0.1994  0.3403  0.2078
21794SOL    HW169838  10.738   5.619   3.156  0.3075 -0.0848  0.3028
21794SOL    HW269839  10.755   5.759   3.211 -0.1989  0.2105 -0.2885
21795SOL     OW69840   7.738   4.504   1.914  0.3003  0.1392 -0.4155
21795SOL    HW169841   7.746   4.417   1.953 -1.1089 -0.1149 -0.6302
21795SOL    HW269842   7.664   4.497   1.854  1.0647  1.1190 -1.5102
21796SOL     OW69843   2.083   5.435   7.687 -0.2166  0.2714 -0.5041
21796SOL    HW169844   2.091   5.352   7.734 -2.0008 -0.1266 -0.8171
21796SOL    HW269845   2.045   5.495   7.751 -0.1180  0.4944 -0.6525
21797SOL     OW69846   5.936   9.708   2.152  0.4911 -0.3240  0.2806
21797SOL    HW169847   6.013   9.753   2.185  1.9832 -2.2109 -0.4765
21797SOL    HW269848   5.970   9.637   2.098 -1.7843 -0.4342 -1.1782
21798SOL     OW69849   0.077   6.251   7.798 -0.4496 -0.1146 -0.8079
21798SOL    HW169850  -0.008   6.246   7.841 -0.4205 -1.0054 -0.8445
21798SOL    HW269851   0.057   6.246   7.705 -0.4194  0.6293 -0.8636
21799SOL     OW69852   5.506   3.699   3.248  0.3678 -0.6432  0.8375
21799SOL    HW169853   5.577   3.759   3.226 -1.3941  1.2990  0.1565
21799SOL    HW269854   5.521   3.622   3.193  0.3083  0.9723 -1.5305
21800SOL     OW69855   4.004  10.945   9.400  0.1306 -0.4953  0.3965
21800SOL    HW169856   4.042  10.894   9.472 -1.3536  1.1101  2.4701
21800SOL    HW269857   3.912  10.918   9.398 -0.8588  2.3210  1.9725
21801SOL     OW69858   7.916   5.878   3.864 -0.0706 -0.4136 -0.3921
21801SOL    HW169859   7.871   5.921   3.937 -0.4052  1.6265 -1.7143
21801SOL    HW269860   8.007   5.872   3.893 -0.4990 -1.2291  0.8562
21802SOL     OW69861   1.947  11.051   9.062  0.0647  0.0390  0.2930
21802SOL    HW169862   1.944  10.955   9.054 -2.0212 -0.1182  1.8266
21802SOL    HW269863   1.957  11.066   9.156 -1.7981  1.2468  0.3664
21803SOL     OW69864   7.374  10.118   2.687 -0.0802  0.7425 -0.1221
21803SOL    HW169865   7.297  10.061   2.693 -0.0165  0.3595 -2.2729
21803SOL    HW269866   7.350  10.183   2.622  1.7297  0.0458 -1.5706
21804SOL     OW69867   3.053   1.442   9.301 -0.0799 -0.6736 -0.4867
21804SOL    HW169868   2.964   1.477   9.299  0.3454  0.4909  0.0237
21804SOL    HW269869   3.079   1.446   9.393  1.7209  2.3159 -0.9872
21805SOL     OW69870   4.094   3.764   8.034 -0.3417  0.1517 -0.0153
21805SOL    HW169871   4.164   3.699   8.039 -0.0340  0.3236 -1.6892
21805SOL    HW269872   4.086   3.797   8.124  0.4341 -1.1903  0.5768
21806SOL     OW69873   0.333   4.994  10.030  0.0608  0.0595 -0.2671
21806SOL    HW169874   0.345   5.078  10.074  0.0960  2.0810 -3.8346
21806SOL    HW269875   0.421   4.970   9.999 -0.3116 -0.0908 -1.2467
21807SOL     OW69876   1.246   8.180  10.339  0.0447  0.4654 -0.6053
21807SOL    HW169877   1.170   8.155  10.391 -0.0420  0.6098 -0.6622
21807SOL    HW269878   1.210   8.208  10.255  0.1875  0.2098 -0.7519
21808SOL     OW69879   9.470   5.873   9.622  0.0896 -0.2671  0.2166
21808SOL    HW169880   9.482   5.818   9.700  1.6137  0.0609  0.2625
21808SOL    HW269881   9.522   5.829   9.554 -0.0767  0.2026 -0.2170
21809SOL     OW69882  10.991   0.918  11.030 -0.5339 -0.0317  0.4927
21809SOL    HW169883  11.082   0.926  11.003 -1.3163  1.8283 -1.8826
21809SOL    HW269884  10.975   0.995  11.085 -0.5927 -0.5529  1.2191
21810SOL     OW69885   0.669   4.647   4.246  0.1668 -0.3246 -0.7402
21810SOL    HW169886   0.722   4.711   4.294 -0.6156  1.4820 -2.1706
21810SOL    HW269887   0.732   4.582   4.215  1.0022 -0.2180  0.6638
21811SOL     OW69888   2.537   8.792   9.135 -0.0422 -0.5049 -0.8207
21811SOL    HW169889   2.554   8.856   9.204 -2.8854 -0.4489 -0.0609
21811SOL    HW269890   2.481   8.838   9.072 -0.9684 -1.8046 -0.9818
21812SOL     OW69891   8.183   9.699   3.459 -0.2950 -0.1587 -0.0925
21812SOL    HW169892   8.207   9.607   3.466 -0.7847 -0.3559 -0.9038
21812SOL    HW269893   8.129   9.704   3.380  2.0527  1.2862 -1.7682
21813SOL     OW69894   4.989   5.316  10.357 -0.1018  0.1488 -0.5291
21813SOL    HW169895   4.908   5.270  10.376 -0.2600  0.6216 -0.0638
21813SOL    HW269896   4.987   5.330  10.262 -0.8292  0.6606 -0.4450
21814SOL     OW69897   7.925  10.131   1.755  0.5437  0.4605  0.0491
21814SOL    HW169898   7.912  10.162   1.844  1.2661  0.8282  0.0371
21814SOL    HW269899   7.945  10.210   1.704  2.3269  0.0349  0.0035
21815SOL     OW69900   7.167  10.992   5.947  0.2284  0.1970  0.5608
21815SOL    HW169901   7.078  10.974   5.916  0.6041 -0.6351 -0.0701
21815SOL    HW269902   7.177  11.087   5.936  0.3548 -0.0579 -1.9357
21816SOL     OW69903   6.344   9.283   9.863  0.4527  0.1357 -0.0418
21816SOL    HW169904   6.412   9.216   9.858  0.6015  0.3369 -0.8296
21816SOL    HW269905   6.292   9.258   9.939  0.0956 -1.2587 -0.7048
21817SOL     OW69906   4.849   8.160   0.160  0.4061  0.1589  0.4370
21817SOL    HW169907   4.811   8.073   0.166 -0.4635  0.2852 -2.1328
21817SOL    HW269908   4.930   8.148   0.109 -0.7538  1.0292 -1.7625
21818SOL     OW69909   1.496   7.094   0.695  0.2702  0.8498  0.0259
21818SOL    HW169910   1.552   7.070   0.769 -0.2828  1.1842  0.5660
21818SOL    HW269911   1.412   7.054   0.714  0.0112  1.2630 -0.2265
21819SOL     OW69912   5.479   9.108   3.338  0.3390  0.1524  0.2406
21819SOL    HW169913   5.440   9.100   3.425 -0.8610  1.1514 -0.1821
21819SOL    HW269914   5.437   9.185   3.299  1.3439  0.1228 -0.9730
21820SOL     OW69915   2.532   6.325   0.178 -0.3489 -0.2728  0.0572
21820SOL    HW169916   2.557   6.311   0.086 -0.1137 -0.3010  0.1252
21820SOL    HW269917   2.529   6.238   0.216  0.6257 -0.1980  0.3520
21821SOL     OW69918   5.933   8.763   1.515  0.1431  0.3658 -0.4408
21821SOL    HW169919   5.985   8.685   1.531  0.1155  0.0869 -1.6612
21821SOL    HW269920   5.957   8.823   1.586 -1.0153 -1.3049  1.5015
21822SOL     OW69921   6.587  10.759   5.005 -0.1227 -0.7447  0.4712
21822SOL    HW169922   6.516  10.720   5.055 -0.2896  1.0441  1.7164
21822SOL    HW269923   6.548  10.837   4.965  0.8766 -0.2897  0.3460
21823SOL     OW69924   5.152   0.853   5.406 -0.0304  0.0690  0.4454
21823SOL    HW169925   5.145   0.946   5.428  0.6824  0.3064 -0.2891
21823SOL    HW269926   5.180   0.852   5.314  1.1090 -0.8448  0.7724
21824SOL     OW69927   2.323   7.933   9.065  0.5503  1.0171 -0.0134
21824SOL    HW169928   2.314   7.897   9.153 -1.6516  0.6473 -0.3208
21824SOL    HW269929   2.383   8.007   9.075  0.9848  0.4887  1.6283
21825SOL     OW69930   3.114   1.022   4.724  0.9260  0.4352 -0.4457
21825SOL    HW169931   3.178   0.951   4.723 -0.9138 -1.3680  1.0794
21825SOL    HW269932   3.118   1.060   4.637  2.0881 -1.4591 -1.2771
21826SOL     OW69933   6.540   5.865  10.151 -0.0826  0.4439  0.6792
21826SOL    HW169934   6.492   5.782  10.146 -1.2337  1.1056  0.3204
21826SOL    HW269935   6.630   5.842  10.128 -0.7515 -0.4140 -1.3027
21827SOL     OW69936   8.568   0.495   3.726 -0.3974  0.1760 -0.0647
21827SOL    HW169937   8.577   0.512   3.632 -0.8608  1.1393  0.0598
21827SOL    HW269938   8.572   0.581   3.767 -1.0239 -0.1594  0.7361
21828SOL     OW69939   3.675   3.753   8.231 -1.1769 -0.0978 -0.4103
21828SOL    HW169940   3.685   3.842   8.200  0.5617 -0.6702 -1.5979
21828SOL    HW269941   3.640   3.762   8.320 -0.8373  1.7472 -0.4388
21829SOL     OW69942   2.751   1.784   3.208  0.3545  0.5355 -0.7814
21829SOL    HW169943   2.719   1.874   3.201 -1.8635 -0.1059  0.1256
21829SOL    HW269944   2.671   1.731   3.205  1.5782 -1.3689 -0.7370
21830SOL     OW69945   0.667  10.407   9.523 -0.2656 -0.1468 -0.2216
21830SOL    HW169946   0.585  10.359   9.524 -0.2143 -0.3189  2.0092
21830SOL    HW269947   0.723  10.361   9.586  0.1913  2.0723  1.1265
21831SOL     OW69948   8.624   5.892   4.959 -0.0700  0.0930 -0.3092
21831SOL    HW169949   8.638   5.837   4.882  0.3859 -0.9618  0.4894
21831SOL    HW269950   8.579   5.969   4.926 -0.8720 -0.8319 -1.4591
21832SOL     OW69951   7.436   2.340   4.787 -0.0215  0.0511  0.1174
21832SOL    HW169952   7.415   2.271   4.724 -2.4107 -0.0515  0.9142
21832SOL    HW269953   7.352   2.381   4.807  1.0053  1.6400  1.4678
21833SOL     OW69954   1.958   8.632   2.852 -0.2655 -0.0226 -0.1263
21833SOL    HW169955   1.956   8.649   2.758 -0.0870  0.8722  0.0269
21833SOL    HW269956   1.956   8.718   2.892  1.0863 -0.3420  0.6833
21834SOL     OW69957   1.536   5.459  10.020 -0.1129  0.0451  0.2657
21834SOL    HW169958   1.488   5.448   9.938 -1.2643  2.1303  0.5979
21834SOL    HW269959   1.622   5.491   9.993  0.0989 -0.9035 -0.2004
21835SOL     OW69960   6.611   9.975  10.566 -0.8033 -0.1690  0.2923
21835SOL    HW169961   6.695  10.021  10.560 -1.2451  0.7576  0.9927
21835SOL    HW269962   6.550  10.030  10.517 -1.1017 -0.6277  0.1347
21836SOL     OW69963   8.515   2.937  10.115 -0.1045 -0.3580 -0.2071
21836SOL    HW169964   8.534   2.843  10.109 -0.2925 -0.4163  0.0650
21836SOL    HW269965   8.592   2.980  10.078  0.8122 -0.5652  1.3927
21837SOL     OW69966   7.448  10.449   3.639 -0.5172  0.4151 -0.1257
21837SOL    HW169967   7.445  10.503   3.561  0.8248  1.2825  0.3878
21837SOL    HW269968   7.502  10.374   3.615 -1.5761 -0.2483 -0.5384
21838SOL     OW69969   7.936   2.799  10.970 -0.3810  0.1639  0.1947
21838SOL    HW169970   7.855   2.777  10.924 -0.5079  2.0156 -0.5729
21838SOL    HW269971   7.912   2.801  11.062 -0.8190 -0.7907  0.1185
21839SOL     OW69972   0.883   0.462   9.603  0.0109  1.1696 -0.4198
21839SOL    HW169973   0.959   0.464   9.660  1.0196  1.5621 -1.7301
21839SOL    HW269974   0.916   0.488   9.517 -1.6214  1.4624 -1.0084
21840SOL     OW69975   9.603   7.281   8.765 -0.3058  0.0292 -0.0249
21840SOL    HW169976   9.626   7.345   8.833  0.8259 -0.3838  0.0122
21840SOL    HW269977   9.684   7.268   8.716 -0.6069 -1.0883 -0.2666
21841SOL     OW69978   0.691  10.857   8.589 -0.0015 -0.3222 -0.2911
21841SOL    HW169979   0.696  10.877   8.496 -0.3649 -0.0165 -0.2441
21841SOL    HW269980   0.597  10.851   8.608  0.0504  0.2983  0.1999
21842SOL     OW69981   4.074   7.560   9.621  0.8547 -0.0520 -0.8591
21842SOL    HW169982   4.105   7.623   9.686  0.0788 -0.5856  0.0741
21842SOL    HW269983   4.120   7.479   9.644 -0.8338 -0.7444  0.2817
21843SOL     OW69984   2.413   0.874   3.156  0.2552 -0.0491  0.4557
21843SOL    HW169985   2.494   0.822   3.155  1.4400  1.6965 -0.1082
21843SOL    HW269986   2.442   0.961   3.184 -1.7685  0.1576  2.0917
21844SOL     OW69987   1.200   3.042  10.912 -0.2298 -0.5683 -0.1393
21844SOL    HW169988   1.213   2.948  10.898  1.7080 -0.2750 -0.6068
21844SOL    HW269989   1.174   3.076  10.827  0.0585 -0.5434 -0.2197
21845SOL     OW69990  10.152   9.590   9.051 -0.3123  0.4479  0.4970
21845SOL    HW169991  10.231   9.562   9.005 -1.0740  0.7031 -1.0376
21845SOL    HW269992  10.181   9.660   9.109  0.6879  0.0763  0.4684
21846SOL     OW69993   1.686   2.230   4.353  0.1509  0.3082  0.2903
21846SOL    HW169994   1.655   2.292   4.287 -0.5933 -1.3975 -1.0345
21846SOL    HW269995   1.616   2.166   4.361  1.4958 -1.2136  0.4936
21847SOL     OW69996   8.011   9.273   6.237  0.1229 -0.8412 -0.6089
21847SOL    HW169997   8.071   9.272   6.311  0.0567 -0.7090 -0.5534
21847SOL    HW269998   8.003   9.365   6.213  0.8760 -0.9635 -1.3845
21848SOL     OW69999   1.556   9.536   0.331  0.0005 -0.3666  0.0404
21848SOL    HW170000   1.590   9.468   0.273 -0.2931 -0.2211 -0.3082
21848SOL    HW270001   1.533   9.490   0.411 -0.7425 -0.7836 -0.4018
21849SOL     OW70002   4.633   5.658   1.503  0.6634  0.3137 -0.2577
21849SOL    HW170003   4.666   5.568   1.499 -2.7119 -1.1233  0.3417
21849SOL    HW270004   4.568   5.663   1.432 -0.4067  1.7073  0.7652
21850SOL     OW70005  10.451   4.056   0.833 -0.2421  0.2749 -0.4154
21850SOL    HW170006  10.485   4.040   0.922 -0.4653 -1.2782 -0.5797
21850SOL    HW270007  10.410   4.142   0.839 -1.2052 -0.2458  1.2976
21851SOL     OW70008   8.611   5.735   1.663 -0.1876 -0.2845  0.0070
21851SOL    HW170009   8.586   5.699   1.578 -0.4027 -1.7390  0.6561
21851SOL    HW270010   8.706   5.723   1.668 -0.0160  0.7735 -0.4450
21852SOL     OW70011   2.527   6.584   6.868  0.0919  0.3921  0.1605
21852SOL    HW170012   2.603   6.593   6.925  0.6610  0.2216 -0.5545
21852SOL    HW270013   2.507   6.491   6.869  2.4230 -0.3152 -2.7628
21853SOL     OW70014   9.663   5.357  10.753  0.0874 -0.3503  0.0966
21853SOL    HW170015   9.725   5.290  10.782 -0.4018 -0.9356 -0.1835
21853SOL    HW270016   9.588   5.348  10.812 -0.2048 -0.4241 -0.2789
21854SOL     OW70017  10.863   6.450   7.976 -0.3257 -0.4007  0.1450
21854SOL    HW170018  10.922   6.437   7.901 -0.5475 -2.0803  0.2363
21854SOL    HW270019  10.777   6.465   7.936 -0.3387 -0.7139  0.0546
21855SOL     OW70020   5.140   8.068   2.289  0.3966  0.3357 -0.0523
21855SOL    HW170021   5.144   8.111   2.374  1.1808 -1.4945  0.9104
21855SOL    HW270022   5.050   8.079   2.260  0.5913  2.6630  0.0549
21856SOL     OW70023   5.361   0.794   4.815 -0.2508 -0.1136  0.6578
21856SOL    HW170024   5.380   0.709   4.853  0.8456  0.0816  0.5847
21856SOL    HW270025   5.409   0.856   4.871  1.0238  0.2164 -0.7388
21857SOL     OW70026   6.607   8.333   0.806  0.6726  0.0387  0.1835
21857SOL    HW170027   6.521   8.371   0.790  0.9840  0.6698 -0.0085
21857SOL    HW270028   6.654   8.399   0.857  1.4062  0.1716 -0.6333
21858SOL     OW70029   1.046   3.112   5.700 -0.0281  0.2334  0.1595
21858SOL    HW170030   1.006   3.197   5.680 -2.5228 -1.1672 -1.2242
21858SOL    HW270031   1.041   3.106   5.795 -0.8421  1.1700  0.1972
21859SOL     OW70032   1.918   4.689   2.925 -0.1173 -0.4879  0.0419
21859SOL    HW170033   1.878   4.764   2.971 -1.4006 -1.1793  0.1092
21859SOL    HW270034   1.843   4.638   2.893  0.7447 -1.1674 -0.9622
21860SOL     OW70035   7.994   0.539   2.385  0.0610  0.4134 -1.0464
21860SOL    HW170036   7.989   0.634   2.392  2.5462  0.4861  2.1041
21860SOL    HW270037   7.912   0.508   2.424  0.4799  1.2990  0.6039
21861SOL     OW70038   8.190  10.858   2.262  0.1583  0.1712 -0.1651
21861SOL    HW170039   8.183  10.911   2.183 -1.2540  0.0292 -0.1542
21861SOL    HW270040   8.109  10.807   2.265  0.7528 -0.7755  0.6975
21862SOL     OW70041   6.924   0.988   6.338  0.5720 -0.0899  0.2614
21862SOL    HW170042   6.925   0.893   6.344  0.5033 -0.1389 -0.4736
21862SOL    HW270043   6.986   1.017   6.404  1.4373 -0.6912 -0.2775
21863SOL     OW70044   0.145   9.891   6.263  0.8274  0.5904  0.0049
21863SOL    HW170045   0.158   9.881   6.169  1.2143  3.2515 -0.3183
21863SOL    HW270046   0.130   9.803   6.295  1.8102 -0.5292 -2.3744
21864SOL     OW70047   5.785   0.553   1.059 -0.0102 -0.2208 -0.5325
21864SOL    HW170048   5.693   0.551   1.085  0.4933 -0.3485  1.3967
21864SOL    HW270049   5.807   0.462   1.039  0.3508 -0.6908  1.6982
21865SOL     OW70050   4.872   1.435   1.404 -0.0399  0.3115  0.8197
21865SOL    HW170051   4.928   1.393   1.339  1.7559  2.0493  1.1538
21865SOL    HW270052   4.887   1.529   1.392 -1.5758  0.7723  2.0931
21866SOL     OW70053   3.379   8.453   7.835 -0.7534  0.0546 -0.0952
21866SOL    HW170054   3.470   8.443   7.809 -0.6558  2.0362 -0.6240
21866SOL    HW270055   3.337   8.372   7.807  0.9570 -1.2047  0.7928
21867SOL     OW70056   9.672   4.808   9.402  0.7522  0.1813  0.6761
21867SOL    HW170057   9.753   4.762   9.380  0.8040  0.1697  0.8936
21867SOL    HW270058   9.697   4.871   9.469  0.4514 -0.2919  1.2475
21868SOL     OW70059   2.667   7.734   0.714 -0.6376  0.2510  0.6658
21868SOL    HW170060   2.692   7.722   0.806  0.0302 -0.6615  0.3843
21868SOL    HW270061   2.642   7.646   0.685 -0.3805  0.4445 -0.1571
21869SOL     OW70062   4.064   8.660   4.706  0.2562 -0.1472  0.5516
21869SOL    HW170063   4.030   8.571   4.716 -2.6277  0.8598  0.5865
21869SOL    HW270064   4.037   8.705   4.785  0.4695  1.1072 -0.0698
21870SOL     OW70065   0.181   2.766   5.799 -0.0122  0.6706 -0.1498
21870SOL    HW170066   0.226   2.821   5.735  0.5399  1.5170  0.9356
21870SOL    HW270067   0.131   2.704   5.746  0.0078  1.6834 -1.4026
21871SOL     OW70068   8.972   4.688   7.349  0.2066 -0.2513  0.2605
21871SOL    HW170069   9.060   4.674   7.384  0.4707  1.8753  0.5578
21871SOL    HW270070   8.916   4.633   7.404  1.1542 -0.3566  1.1588
21872SOL     OW70071   1.418   4.780   0.850 -0.2240 -0.3702 -0.0757
21872SOL    HW170072   1.500   4.763   0.896 -0.1177 -1.3246 -0.5872
21872SOL    HW270073   1.364   4.704   0.868 -1.9047  1.2011  2.0942
21873SOL     OW70074   2.514   7.789   3.163  0.3344 -0.1126  0.5370
21873SOL    HW170075   2.437   7.826   3.119  0.8793 -1.4842 -1.7647
21873SOL    HW270076   2.581   7.856   3.156  0.1184  0.0642  0.1147
21874SOL     OW70077   8.621  10.369   6.242 -0.4907  0.1765  0.0551
21874SOL    HW170078   8.587  10.399   6.326 -1.2015  1.2437 -0.5911
21874SOL    HW270079   8.634  10.449   6.191  0.2666 -0.4225 -0.7380
21875SOL     OW70080   8.233   7.799   5.870  0.0379 -0.2582  0.2860
21875SOL    HW170081   8.310   7.790   5.926  0.1639 -1.2994 -0.0467
21875SOL    HW270082   8.177   7.862   5.916  1.5292  1.3215  0.0292
21876SOL     OW70083   4.223   0.536   5.707 -0.4032  0.0469 -0.8381
21876SOL    HW170084   4.291   0.481   5.667 -0.5549 -0.4206 -0.4601
21876SOL    HW270085   4.216   0.611   5.648  0.4963  0.1446 -0.8445
21877SOL     OW70086   8.767   3.817   7.660 -0.0334 -0.5395  0.1413
21877SOL    HW170087   8.788   3.726   7.681  0.9377 -1.3240 -3.4169
21877SOL    HW270088   8.824   3.869   7.717  1.8814 -2.3223 -0.0180
21878SOL     OW70089  10.604   6.520   5.186  0.5815 -0.5716  0.0125
21878SOL    HW170090  10.594   6.613   5.164  1.3288 -0.8597 -1.7115
21878SOL    HW270091  10.683   6.517   5.240  0.9570 -0.2714 -0.5085
21879SOL     OW70092   2.983   3.119   8.059 -0.5544  0.1443 -0.2620
21879SOL    HW170093   3.078   3.128   8.069 -0.5703 -0.8993  1.1802
21879SOL    HW270094   2.954   3.203   8.024  0.4969  1.8392  2.6347
21880SOL     OW70095   6.154   4.974   2.913  0.1916  0.1525 -0.0124
21880SOL    HW170096   6.096   5.044   2.942 -0.6396 -0.5984  0.1975
21880SOL    HW270097   6.180   4.930   2.993 -1.0245 -1.0920 -0.2568
21881SOL     OW70098   2.029   9.401   9.778 -0.1114  0.3834  0.3587
21881SOL    HW170099   1.990   9.445   9.853  1.6256  0.1290  1.4681
21881SOL    HW270100   2.003   9.309   9.787  0.5201  0.2530  0.9756
21882SOL     OW70101  10.910   9.700   0.141 -0.6596  0.2023 -0.4614
21882SOL    HW170102  10.923   9.610   0.169 -0.9848 -0.0643 -1.1437
21882SOL    HW270103  10.815   9.712   0.144 -0.7121  0.1170 -1.5940
21883SOL     OW70104   8.710   2.985   3.803  0.2571 -0.1431 -0.0494
21883SOL    HW170105   8.677   3.074   3.817 -0.6720 -0.7644  2.1841
21883SOL    HW270106   8.681   2.936   3.880  0.0190 -2.6236 -1.5896
21884SOL     OW70107  10.668   6.081   6.659  0.0205 -0.5072  0.1063
21884SOL    HW170108  10.644   6.001   6.706 -0.4767  0.0770  0.8677
21884SOL    HW270109  10.621   6.151   6.704  0.5358  0.2382 -0.4768
21885SOL     OW70110   7.365   6.088   1.162 -0.2808  0.1270  0.0718
21885SOL    HW170111   7.335   6.009   1.116  0.9151  1.2581 -2.8977
21885SOL    HW270112   7.414   6.137   1.096  1.2317  2.1508  2.5137
21886SOL     OW70113  10.997   2.403   6.246  0.6594  0.3242  0.4001
21886SOL    HW170114  10.987   2.415   6.340 -2.5070 -0.2344  0.2481
21886SOL    HW270115  10.933   2.335   6.224  0.1328  1.6014 -2.3846
21887SOL     OW70116   1.125   1.279   5.370 -0.1269 -0.1251  0.1407
21887SOL    HW170117   1.098   1.203   5.422  0.2706  1.1517  2.3127
21887SOL    HW270118   1.154   1.344   5.434  2.9327  0.6115 -1.7881
21888SOL     OW70119   5.219   0.736   1.519  0.5349  0.1903  0.3292
21888SOL    HW170120   5.200   0.753   1.611  0.8068  0.5020  0.3310
21888SOL    HW270121   5.232   0.823   1.481  2.9473 -0.0246  0.5473
21889SOL     OW70122   4.948   3.537  10.446  0.5606 -0.4933  0.3133
21889SOL    HW170123   5.031   3.527  10.400  0.9099  1.2708  0.4611
21889SOL    HW270124   4.970   3.590  10.523 -0.5956 -0.5089  0.6706
21890SOL     OW70125   7.539  10.025   3.008 -0.0971 -0.3643  0.2564
21890SOL    HW170126   7.446  10.024   3.032 -0.0089 -0.7273  0.5888
21890SOL    HW270127   7.543   9.974   2.926 -0.2718  0.1440 -0.0760
21891SOL     OW70128   4.445   6.211   9.426 -0.5804  0.5893 -0.0503
21891SOL    HW170129   4.511   6.278   9.441 -0.3122  0.4387 -0.5319
21891SOL    HW270130   4.363   6.259   9.415 -0.5305  0.7860  0.4215
21892SOL     OW70131   4.846   8.010   2.233 -0.1303  0.1685  0.0835
21892SOL    HW170132   4.808   8.052   2.310  0.3461 -1.7248  1.3938
21892SOL    HW270133   4.811   8.061   2.159 -4.2719 -0.6386  1.2193
21893SOL     OW70134   9.714   3.383  10.359 -0.2856  0.6402 -0.0056
21893SOL    HW170135   9.696   3.408  10.450 -1.5088 -0.3622  0.0501
21893SOL    HW270136   9.809   3.372  10.356 -0.4217 -4.4228  2.6391
21894SOL     OW70137  10.583  10.742   9.934 -0.6089  0.2798 -0.6913
21894SOL    HW170138  10.574  10.830   9.898 -0.8522  0.7693  0.5067
21894SOL    HW270139  10.612  10.756  10.025  0.2713 -0.9026 -0.7587
21895SOL     OW70140   6.969   2.949   4.597  0.1218 -0.5096 -0.2384
21895SOL    HW170141   7.039   3.015   4.603 -1.0100  0.9551 -2.0769
21895SOL    HW270142   6.942   2.935   4.687  2.5111 -0.8616  0.5028
21896SOL     OW70143   5.760   8.527  10.103 -0.4468 -0.4310 -0.5882
21896SOL    HW170144   5.672   8.531  10.141 -1.1765 -1.6431 -2.0265
21896SOL    HW270145   5.762   8.599  10.039  0.7172  1.4973  1.5007
21897SOL     OW70146   2.681   1.010   5.269 -0.5938  0.3014 -0.5577
21897SOL    HW170147   2.667   0.984   5.360 -0.3093  0.2031 -0.5400
21897SOL    HW270148   2.759   1.066   5.272 -1.7117  1.9199 -0.4567
21898SOL     OW70149   0.201   9.274   6.979  0.8976 -0.0889  0.6205
21898SOL    HW170150   0.207   9.282   6.884 -1.7422  1.2023  0.5048
21898SOL    HW270151   0.173   9.183   6.994 -0.0332  0.1079  0.0811
21899SOL     OW70152   7.056   8.316   9.225 -0.7108  0.5052  0.6175
21899SOL    HW170153   7.057   8.394   9.281 -0.6387  1.4461 -0.6481
21899SOL    HW270154   6.997   8.339   9.153 -1.2940 -0.9114  0.6119
21900SOL     OW70155   1.364   6.110   2.847 -0.6004  0.1954 -0.2201
21900SOL    HW170156   1.349   6.199   2.815 -1.1193  0.3086  0.3136
21900SOL    HW270157   1.280   6.065   2.836 -0.6852  0.1304  0.6038
21901SOL     OW70158   6.444   4.287   3.669  0.0558 -0.2164  0.5024
21901SOL    HW170159   6.507   4.353   3.697 -0.0006 -0.4040  1.1023
21901SOL    HW270160   6.393   4.268   3.748  0.4583 -1.4022  0.5006
21902SOL     OW70161   8.158  10.888   2.847 -0.3426  0.1975 -0.0643
21902SOL    HW170162   8.128  10.798   2.835 -0.5710  0.4860 -2.0230
21902SOL    HW270163   8.128  10.933   2.768  1.5776  1.5017 -0.0959
21903SOL     OW70164   5.494   5.428   4.243 -0.1199 -0.0869  0.0174
21903SOL    HW170165   5.418   5.425   4.185 -0.3402  2.0327  0.1243
21903SOL    HW270166   5.561   5.474   4.193  0.5380 -0.4534  0.5438
21904SOL     OW70167  10.019   4.224   9.913 -0.1907 -0.1754  0.0646
21904SOL    HW170168  10.080   4.206   9.984 -0.5132  1.6024  0.8458
21904SOL    HW270169   9.933   4.202   9.949 -0.4868  1.8703  0.6996
21905SOL     OW70170   3.752   1.693   4.512  0.1404  0.2238 -0.5954
21905SOL    HW170171   3.660   1.719   4.509  0.0845  0.0260 -0.6596
21905SOL    HW270172   3.787   1.737   4.589 -0.4572 -1.1197  0.4826
21906SOL     OW70173   1.696   9.592   2.991 -0.3894 -0.8628 -0.3296
21906SOL    HW170174   1.714   9.579   3.084  0.3093  1.1959 -0.1187
21906SOL    HW270175   1.608   9.558   2.978 -1.5006  1.0123  1.6802
21907SOL     OW70176   5.488   5.423   7.403 -0.2000 -0.1511  0.0429
21907SOL    HW170177   5.408   5.373   7.387 -2.0442  2.2226  1.2612
21907SOL    HW270178   5.459   5.514   7.410  2.3359  0.6245  2.3916
21908SOL     OW70179   7.632   7.726   5.031  0.4734 -1.5442 -0.0842
21908SOL    HW170180   7.678   7.648   5.000 -0.0364 -1.1822 -1.8721
21908SOL    HW270181   7.563   7.740   4.966 -0.6370 -0.6758  1.2277
21909SOL     OW70182   0.952   5.615   4.159  0.5806 -0.4221 -0.6039
21909SOL    HW170183   0.960   5.695   4.212 -0.7143 -0.3371 -0.4882
21909SOL    HW270184   1.037   5.573   4.166  0.6783 -0.0471  0.9923
21910SOL     OW70185   3.961   0.861   0.824  0.2867 -0.2020  0.5147
21910SOL    HW170186   4.035   0.862   0.884  0.8120  0.6829 -0.1218
21910SOL    HW270187   3.888   0.826   0.875  1.6025 -3.1751  0.5688
21911SOL     OW70188   0.295   2.987   6.361  0.1749 -0.1145  0.2795
21911SOL    HW170189   0.283   2.893   6.349  2.3342 -0.1991 -2.3038
21911SOL    HW270190   0.390   2.998   6.364 -0.0142  2.0087 -0.0338
21912SOL     OW70191   2.379   2.583   6.692  0.3217  0.4411 -0.0166
21912SOL    HW170192   2.378   2.490   6.670 -2.3748  0.8773 -2.2556
21912SOL    HW270193   2.355   2.587   6.785  0.5645 -1.0607  0.1295
21913SOL     OW70194   2.946   8.807   4.210 -0.0090  0.2381 -0.1807
21913SOL    HW170195   2.969   8.797   4.118  3.1049  1.6478  0.2840
21913SOL    HW270196   2.946   8.718   4.245  1.5290 -0.1368 -1.0507
21914SOL     OW70197   6.434   5.108   7.279  0.4918 -0.0635  0.1775
21914SOL    HW170198   6.419   5.080   7.189 -0.1494 -0.8535  0.5197
21914SOL    HW270199   6.529   5.102   7.290  0.5067 -0.6836 -0.2173
21915SOL     OW70200   8.816   2.340   5.974  0.1754 -0.0987 -0.4265
21915SOL    HW170201   8.887   2.329   6.038 -1.6435 -1.0636  1.5677
21915SOL    HW270202   8.797   2.251   5.944 -1.9574 -0.2817  1.2185
21916SOL     OW70203   7.065   9.910   6.278  0.1320 -0.2926 -0.1932
21916SOL    HW170204   6.988   9.963   6.297  0.8601  1.0491 -0.8006
21916SOL    HW270205   7.071   9.909   6.182  1.3281  0.3851 -0.1579
21917SOL     OW70206   1.204   8.192   1.908 -0.6191 -0.5795  0.8934
21917SOL    HW170207   1.285   8.165   1.864  0.3463  1.3642  1.3729
21917SOL    HW270208   1.177   8.115   1.959  1.1148 -1.1609  0.9944
21918SOL     OW70209   6.464   5.196   9.682  0.0346 -0.1300 -0.2639
21918SOL    HW170210   6.387   5.146   9.709  0.0245  0.5537  1.0853
21918SOL    HW270211   6.538   5.141   9.709  0.0189  0.2533  0.5930
21919SOL     OW70212   0.307   6.432   7.465  0.0314  0.0430 -0.0033
21919SOL    HW170213   0.326   6.476   7.548  2.9363 -0.9364 -0.0350
21919SOL    HW270214   0.380   6.457   7.407 -0.2829 -1.7261 -1.2488
21920SOL     OW70215   1.233  10.579   5.792 -0.0390  0.0378 -0.2995
21920SOL    HW170216   1.260  10.641   5.861  3.1629  0.3519 -1.6502
21920SOL    HW270217   1.219  10.634   5.715 -1.5543 -0.5191 -0.4431
21921SOL     OW70218   4.146   0.256   4.861  0.2061 -0.5774  0.0729
21921SOL    HW170219   4.187   0.255   4.775  0.5176 -0.5183  0.2203
21921SOL    HW270220   4.154   0.166   4.893 -1.0884 -0.9266 -0.5096
21922SOL     OW70221  10.679   9.289   5.092  0.5989  0.2342 -0.1054
21922SOL    HW170222  10.685   9.207   5.141 -0.4169  0.1455 -0.1109
21922SOL    HW270223  10.752   9.342   5.125  0.4959 -0.1799  0.8323
21923SOL     OW70224   9.239   8.253   1.396  0.3232 -0.2545 -0.2350
21923SOL    HW170225   9.301   8.247   1.469 -0.1364 -2.0155  0.0518
21923SOL    HW270226   9.277   8.196   1.328  0.7906  1.4274 -1.4419
21924SOL     OW70227   4.224   0.678   3.059 -0.1103  0.0928  0.6165
21924SOL    HW170228   4.132   0.694   3.078 -0.0909  0.1150  0.6937
21924SOL    HW270229   4.224   0.607   2.995 -0.1486 -0.4978  1.2629
21925SOL     OW70230   9.234   6.765   3.174  0.1539  0.2951 -0.3095
21925SOL    HW170231   9.236   6.807   3.088 -0.2188 -1.1544 -1.0591
21925SOL    HW270232   9.320   6.783   3.211  1.6276 -1.8295 -2.4062
21926SOL     OW70233   9.328   5.624   5.604  0.1628 -0.5339 -0.3427
21926SOL    HW170234   9.269   5.630   5.529 -0.7192 -0.5193  0.3283
21926SOL    HW270235   9.353   5.531   5.606 -0.7716 -0.7930  0.0397
21927SOL     OW70236   6.099  10.919   1.446 -0.1335 -0.3341  0.0105
21927SOL    HW170237   6.168  10.855   1.460 -1.2494 -1.3747  1.0047
21927SOL    HW270238   6.067  10.940   1.534 -0.8241  0.4103 -0.4019
21928SOL     OW70239  10.978   5.767   2.409  0.0093 -0.5826  0.0610
21928SOL    HW170240  10.976   5.672   2.424  0.0606 -0.5314  0.4179
21928SOL    HW270241  11.015   5.778   2.322  0.6901 -0.8640  0.3076
21929SOL     OW70242  10.011   1.192   0.616  0.2618 -0.5929  0.5619
21929SOL    HW170243   9.920   1.217   0.597  0.0421 -2.1803 -0.6137
21929SOL    HW270244  10.064   1.243   0.555  0.0622 -0.5855  0.3946
21930SOL     OW70245   8.778   4.850   1.447  0.7189  0.8197 -0.2387
21930SOL    HW170246   8.732   4.792   1.509  1.1341  1.7563  0.9935
21930SOL    HW270247   8.849   4.796   1.413  0.4308  0.2547  0.0319
21931SOL     OW70248   0.021   1.535   8.806 -0.1687  0.2600 -0.3165
21931SOL    HW170249  -0.062   1.521   8.759 -0.7146 -0.9926  0.9666
21931SOL    HW270250   0.040   1.628   8.793 -2.2988  0.8138  0.1868
21932SOL     OW70251   6.897   8.825   7.743  0.3936 -0.0335  0.3873
21932SOL    HW170252   6.923   8.899   7.799 -0.6879  0.4115  0.3318
21932SOL    HW270253   6.957   8.830   7.668  0.4197  0.7118  0.4483
21933SOL     OW70254   2.011   0.118   6.825  0.5406  0.8009  0.2299
21933SOL    HW170255   2.017   0.174   6.903 -0.0231  4.4399 -2.0877
21933SOL    HW270256   2.102   0.104   6.799  0.6969  0.4162  0.9441
21934SOL     OW70257   2.041   3.529   3.243 -0.2284 -0.2498  0.4700
21934SOL    HW170258   2.044   3.506   3.151 -1.0847  0.0955  0.3395
21934SOL    HW270259   2.030   3.625   3.243 -1.2453 -0.3527  0.8968
21935SOL     OW70260   3.222   2.419   7.003 -0.5503 -0.5146  0.5641
21935SOL    HW170261   3.207   2.337   7.050 -3.1823 -0.6268 -0.2820
21935SOL    HW270262   3.257   2.393   6.918  0.9447 -0.5489  1.1670
21936SOL     OW70263   5.393   1.000   0.310 -0.0049  0.4123  0.2920
21936SOL    HW170264   5.340   1.065   0.357 -0.0206 -0.1701  1.0950
21936SOL    HW270265   5.412   0.933   0.375  1.2577  0.3370 -0.1421
21937SOL     OW70266   3.964   4.967   0.223  0.5394 -0.3774 -0.0246
21937SOL    HW170267   3.906   5.001   0.291  1.3389  0.4629  0.2645
21937SOL    HW270268   4.016   5.043   0.196  0.1898 -0.6784 -1.6346
21938SOL     OW70269   7.213   2.648  10.207  0.1490 -0.0033  0.1150
21938SOL    HW170270   7.179   2.632  10.119  0.4035  0.1947 -0.0197
21938SOL    HW270271   7.148   2.608  10.265  0.0713 -0.2935 -0.1688
21939SOL     OW70272   3.214   5.947   8.566 -0.2290  0.7441 -0.1733
21939SOL    HW170273   3.247   5.932   8.478 -0.2917 -0.3958 -0.0088
21939SOL    HW270274   3.205   6.043   8.572  0.3226  0.8715 -1.1905
21940SOL     OW70275   8.785   8.249   5.647 -0.3083  0.0137  0.5131
21940SOL    HW170276   8.829   8.164   5.657 -0.9620 -0.4051 -0.1319
21940SOL    HW270277   8.702   8.238   5.692 -0.1835  0.4855  0.8675
21941SOL     OW70278   4.613  10.989  10.697 -0.2215  0.2240  0.8512
21941SOL    HW170279   4.668  10.929  10.647 -1.0027 -1.9712  2.4597
21941SOL    HW270280   4.651  10.990  10.785 -2.1383 -0.7002  1.7766
21942SOL     OW70281  10.584   3.936   9.086 -0.0807 -0.3802 -0.2242
21942SOL    HW170282  10.676   3.963   9.093 -0.5644  1.0853  0.8659
21942SOL    HW270283  10.547   3.955   9.172 -1.4306 -0.9364 -0.6628
21943SOL     OW70284   7.820   2.777   2.779 -0.0288 -0.9509 -0.0842
21943SOL    HW170285   7.816   2.869   2.753  0.0388 -0.4059  1.6933
21943SOL    HW270286   7.863   2.733   2.705  1.1207  0.6602 -0.4377
21944SOL     OW70287   8.101   6.278   2.610 -0.4041 -0.3826  0.2083
21944SOL    HW170288   8.151   6.340   2.663 -2.0945 -0.3303  1.8506
21944SOL    HW270289   8.160   6.254   2.539  0.9934  1.6300  0.5955
21945SOL     OW70290   7.707   4.793   9.487  0.5902  0.5011  0.2974
21945SOL    HW170291   7.674   4.858   9.550 -0.4780  0.1139  0.1706
21945SOL    HW270292   7.719   4.713   9.539 -2.1900 -0.4098 -0.2458
21946SOL     OW70293   2.315   1.273   6.431 -0.6546 -0.1876  0.2771
21946SOL    HW170294   2.262   1.318   6.497  0.3779 -0.4048  1.2785
21946SOL    HW270295   2.282   1.184   6.431 -0.3532 -0.3036  0.8439
21947SOL     OW70296   7.557  10.481   9.264  0.4335  0.2814 -0.2735
21947SOL    HW170297   7.591  10.570   9.255  1.2967 -0.1397 -1.4050
21947SOL    HW270298   7.480  10.479   9.207 -0.9811  0.9354  1.5094
21948SOL     OW70299   4.853  10.937   8.185  0.0371 -0.2375 -0.2973
21948SOL    HW170300   4.944  10.910   8.187  0.0936 -0.0935  1.6973
21948SOL    HW270301   4.817  10.906   8.268 -1.7181 -0.2476 -1.0178
21949SOL     OW70302   6.000   3.631   5.557  0.1987 -0.6704 -0.4564
21949SOL    HW170303   5.997   3.588   5.642  1.6143 -1.2232 -0.6613
21949SOL    HW270304   5.915   3.612   5.517 -0.2573 -0.8822  0.5866
21950SOL     OW70305  10.253  11.041   7.996 -0.1411 -0.0152 -0.1849
21950SOL    HW170306  10.179  11.025   8.054 -0.6572  0.9237 -0.5529
21950SOL    HW270307  10.213  11.072   7.914  0.4730 -2.6744 -1.5965
21951SOL     OW70308   8.723   0.085   7.564 -0.8120  0.4392 -0.6650
21951SOL    HW170309   8.777   0.094   7.485 -1.7252  2.1729 -1.1570
21951SOL    HW270310   8.782   0.108   7.636  0.1534 -1.6039 -0.7417
21952SOL     OW70311   5.023   7.579   3.654 -0.1820  1.0299  0.4019
21952SOL    HW170312   5.115   7.565   3.630 -0.5023 -0.2978 -0.1323
21952SOL    HW270313   4.974   7.546   3.579 -1.1486 -0.1060  1.4980
21953SOL     OW70314   9.616   4.995   6.965  0.5765 -0.2543  0.7525
21953SOL    HW170315   9.695   4.976   7.017  0.2274 -1.9628  0.7283
21953SOL    HW270316   9.544   4.985   7.027  0.3105  0.1664  0.5086
21954SOL     OW70317   1.545   9.701   4.791 -0.0670 -0.2980 -0.2000
21954SOL    HW170318   1.559   9.681   4.884  0.7017  0.4546 -0.1460
21954SOL    HW270319   1.494   9.627   4.758  0.2521 -0.9124  0.6607
21955SOL     OW70320   2.167   5.120   8.704  0.2643 -0.1550  0.7415
21955SOL    HW170321   2.072   5.133   8.710  0.4172  0.4846  2.1834
21955SOL    HW270322   2.178   5.061   8.630 -1.0859  1.7490 -1.1077
21956SOL     OW70323   5.801   3.316  10.142  0.2614 -0.4282 -0.5095
21956SOL    HW170324   5.783   3.223  10.124  0.0564  0.0056 -2.8282
21956SOL    HW270325   5.720   3.348  10.183 -0.6568 -0.7324 -2.0058
21957SOL     OW70326   7.895   6.522  10.224 -0.0137 -0.4320  0.1154
21957SOL    HW170327   7.879   6.594  10.284 -0.3316  0.1941 -0.6928
21957SOL    HW270328   7.808   6.495  10.194  0.1910  0.2080 -1.1209
21958SOL     OW70329   9.324   4.587   9.749 -0.6052 -0.5123  0.0150
21958SOL    HW170330   9.282   4.504   9.772 -0.6470  0.0792  2.3774
21958SOL    HW270331   9.368   4.614   9.830  0.1044  1.3612 -0.9434
21959SOL     OW70332   3.670   6.868  10.624  0.2744 -0.2551 -0.3491
21959SOL    HW170333   3.585   6.902  10.595  0.6613  0.1258 -1.0777
21959SOL    HW270334   3.649   6.808  10.695 -0.4775  1.3096  0.8182
21960SOL     OW70335   5.223   0.714   0.226  0.2706  0.0283 -0.0279
21960SOL    HW170336   5.182   0.629   0.207  0.1129  0.1943 -0.4369
21960SOL    HW270337   5.259   0.703   0.314  0.2167 -0.4503 -0.0599
21961SOL     OW70338   3.381   4.605   9.335 -0.4404  0.5984 -0.2820
21961SOL    HW170339   3.296   4.620   9.293 -0.8673 -0.0550  0.3298
21961SOL    HW270340   3.363   4.612   9.428  0.4644  1.8242 -0.1811
21962SOL     OW70341   7.994   1.393   9.652 -0.0697  0.5389 -0.1910
21962SOL    HW170342   8.084   1.405   9.620  0.3399  1.3548  1.1997
21962SOL    HW270343   7.957   1.481   9.655 -0.6474  0.2961  0.0069
21963SOL     OW70344  10.016   7.539   4.382  0.5248 -0.0921  0.7352
21963SOL    HW170345   9.923   7.546   4.401  0.5545 -0.9169  1.2266
21963SOL    HW270346  10.037   7.446   4.396  1.7175  0.3402  2.0077
21964SOL     OW70347   3.270   3.052   1.380  0.3767  0.1626 -0.7497
21964SOL    HW170348   3.181   3.030   1.409  0.3206  0.5180 -0.6397
21964SOL    HW270349   3.308   2.969   1.352 -0.2284  0.1185 -1.4510
21965SOL     OW70350   3.451   1.742   8.601  0.0526  0.1612 -0.0822
21965SOL    HW170351   3.517   1.688   8.645 -1.1534 -2.1084 -0.9077
21965SOL    HW270352   3.456   1.827   8.646  2.9101 -0.1707  0.4201
21966SOL     OW70353   7.403   1.062   0.182  0.3403 -0.2231 -0.0835
21966SOL    HW170354   7.422   0.985   0.236 -0.5349 -0.7488 -0.5234
21966SOL    HW270355   7.331   1.036   0.125 -0.3629  1.0992  0.1529
21967SOL     OW70356  10.734   8.552   9.045  0.1819  0.2410 -0.0088
21967SOL    HW170357  10.750   8.626   8.986  1.0930 -2.8738 -4.1965
21967SOL    HW270358  10.655   8.511   9.010  2.2948 -3.3257 -1.1368
21968SOL     OW70359   0.179   2.451   8.428 -0.4439 -0.4352  0.2565
21968SOL    HW170360   0.189   2.510   8.353 -0.1478 -3.5088 -2.3309
21968SOL    HW270361   0.268   2.424   8.450 -0.7019 -2.2571 -0.7317
21969SOL     OW70362   3.448   5.290   8.206 -0.2507  0.1116  0.3699
21969SOL    HW170363   3.454   5.284   8.111  0.6680 -2.2206  0.5301
21969SOL    HW270364   3.527   5.339   8.232 -0.5473  0.8279 -0.0495
21970SOL     OW70365   5.192   8.361   5.626  0.7910  0.4193 -0.5694
21970SOL    HW170366   5.190   8.293   5.693  2.1382 -1.2853 -2.1653
21970SOL    HW270367   5.112   8.348   5.575  0.5547  0.6957 -0.2748
21971SOL     OW70368   1.850   1.736   3.105 -0.1044  0.7968  0.1243
21971SOL    HW170369   1.766   1.760   3.066  0.0952  0.3896 -0.5825
21971SOL    HW270370   1.855   1.788   3.185 -0.3123  2.0139 -0.6347
21972SOL     OW70371   6.876   2.078   6.192 -0.2689  0.0352 -0.6275
21972SOL    HW170372   6.877   2.170   6.221 -0.9668  0.2353 -1.2125
21972SOL    HW270373   6.941   2.035   6.247  0.4873  1.0031 -0.7336
21973SOL     OW70374   6.294   6.304   6.791 -0.0496  0.0803 -0.5449
21973SOL    HW170375   6.378   6.339   6.821 -0.3303  1.5411 -1.3851
21973SOL    HW270376   6.229   6.362   6.830 -0.5363  0.4260 -1.8235
21974SOL     OW70377  10.037   0.899   4.049  0.1814 -0.1473 -0.4741
21974SOL    HW170378  10.014   0.824   4.104 -0.4049 -0.2394 -0.8392
21974SOL    HW270379   9.971   0.965   4.071  0.5148  0.1596 -0.3780
21975SOL     OW70380  10.468   3.516   9.344  0.1171 -0.2101 -0.2799
21975SOL    HW170381  10.462   3.602   9.385 -0.0014  0.3454 -1.4090
21975SOL    HW270382  10.385   3.473   9.363  0.7843 -0.7395  1.6555
21976SOL     OW70383   7.547   0.256   0.845  0.0423 -0.3558  0.3347
21976SOL    HW170384   7.638   0.228   0.848 -0.0626 -0.8424 -0.6337
21976SOL    HW270385   7.546   0.327   0.780 -0.3581 -0.7186 -0.0623
21977SOL     OW70386   5.421   3.288   4.390  0.1974  0.3978 -0.5568
21977SOL    HW170387   5.466   3.363   4.430  1.1340 -0.2243 -0.4241
21977SOL    HW270388   5.480   3.259   4.321 -1.0607  0.9826 -1.9182
21978SOL     OW70389   8.951   4.003   4.353 -0.7156 -0.3882  0.3714
21978SOL    HW170390   9.024   4.060   4.330  0.2651 -1.0284  1.7350
21978SOL    HW270391   8.889   4.013   4.281  1.7135 -1.6206 -2.0903
21979SOL     OW70392  10.294   2.678   0.138 -0.4850  0.3656  0.4345
21979SOL    HW170393  10.234   2.621   0.186 -0.7819 -0.4027 -0.8091
21979SOL    HW270394  10.237   2.736   0.088 -0.1970  2.2494  2.1709
21980SOL     OW70395   9.438   4.558   9.995  0.0381  0.2764  0.0856
21980SOL    HW170396   9.395   4.488  10.045  0.0808 -0.5935 -1.0653
21980SOL    HW270397   9.524   4.524   9.975  1.6551  2.2370  2.8822
21981SOL     OW70398  10.825   9.225   1.021 -0.0763  0.4869  0.1955
21981SOL    HW170399  10.787   9.302   0.979 -1.5708 -0.6378 -0.6268
21981SOL    HW270400  10.859   9.257   1.104 -2.2474  1.7387  0.6728
21982SOL     OW70401   4.210  10.774   4.737 -0.4295  0.3020 -0.3483
21982SOL    HW170402   4.127  10.792   4.781 -0.1638  0.4014  0.1233
21982SOL    HW270403   4.250  10.705   4.790  0.1568  0.8275 -0.0965
21983SOL     OW70404   3.664   1.633   8.767  0.2800  0.0304 -0.3580
21983SOL    HW170405   3.675   1.586   8.850  2.8582  0.7503 -0.1999
21983SOL    HW270406   3.752   1.665   8.746 -0.5626  1.0200 -2.7025
21984SOL     OW70407   9.630  10.628  10.884  0.4598  0.2967 -0.0347
21984SOL    HW170408   9.720  10.662  10.881  0.3597  0.6722  0.8520
21984SOL    HW270409   9.584  10.688  10.942 -0.9731  1.4579 -2.2325
21985SOL     OW70410   5.251  10.740   3.941 -0.5153  0.3861 -0.0695
21985SOL    HW170411   5.279  10.778   4.024 -0.4026  0.3367 -0.0838
21985SOL    HW270412   5.159  10.719   3.954 -0.2866 -0.4038  0.3387
21986SOL     OW70413   7.742   4.815   2.750 -0.2088  0.0149  0.2562
21986SOL    HW170414   7.660   4.859   2.773 -0.2637  0.0685 -0.0379
21986SOL    HW270415   7.744   4.817   2.655  0.2761  0.2761  0.2694
21987SOL     OW70416  10.899   3.025   6.162 -0.1928 -0.2040  0.2363
21987SOL    HW170417  10.830   2.965   6.191 -0.8340  0.0879 -0.6298
21987SOL    HW270418  10.881   3.038   6.068 -0.0161  1.2571  0.3839
21988SOL     OW70419   3.401   4.292   9.214  0.2314 -0.3873  0.2026
21988SOL    HW170420   3.334   4.227   9.193 -0.3576  0.9170 -2.4136
21988SOL    HW270421   3.381   4.321   9.302 -1.5566 -1.3293  0.1354
21989SOL     OW70422   8.996   9.116   2.556  0.1737  0.5249 -0.0809
21989SOL    HW170423   8.985   9.172   2.480 -0.6548  0.2042 -0.2020
21989SOL    HW270424   8.953   9.034   2.532  1.0989 -0.0673  0.2057
21990SOL     OW70425   3.526   0.657   7.093  0.1537 -0.4914  0.4985
21990SOL    HW170426   3.615   0.626   7.108 -0.5347 -2.4424  1.0071
21990SOL    HW270427   3.482   0.643   7.177 -1.2348 -2.0170 -0.4067
21991SOL     OW70428   0.769   6.186  10.526  0.5828  0.2516 -0.0415
21991SOL    HW170429   0.847   6.139  10.556  0.2785 -0.1491  0.1203
21991SOL    HW270430   0.761   6.259  10.588  1.7556  1.2515 -1.0004
21992SOL     OW70431   1.830   3.622   5.664  0.0149 -0.3795  0.4793
21992SOL    HW170432   1.847   3.577   5.581 -1.9706  1.3231 -0.9496
21992SOL    HW270433   1.813   3.552   5.727  2.4629 -1.7470 -0.2338
21993SOL     OW70434   4.179   1.249   6.218 -0.0632  0.2305  0.1419
21993SOL    HW170435   4.090   1.270   6.192  0.0643  1.0854  0.3814
21993SOL    HW270436   4.171   1.165   6.264 -1.1609  1.4908  2.4340
21994SOL     OW70437   7.659   6.547   7.301  0.2928  0.0109 -0.1054
21994SOL    HW170438   7.601   6.552   7.376  0.2171  0.5256 -0.1957
21994SOL    HW270439   7.723   6.479   7.324  0.3757  0.2908  0.4941
21995SOL     OW70440   8.082   8.799   5.377  0.8309 -0.4289 -0.4842
21995SOL    HW170441   8.147   8.864   5.404  0.8081 -0.9541  0.9484
21995SOL    HW270442   8.117   8.716   5.408 -1.2608 -0.5323  1.9049
21996SOL     OW70443   3.180   7.372   8.940  0.7051 -0.6354  0.2946
21996SOL    HW170444   3.231   7.293   8.923  2.9219  0.6510  0.5989
21996SOL    HW270445   3.210   7.435   8.875 -0.7937  0.0949  0.2597
21997SOL     OW70446   4.166  10.632   1.141 -0.1125  0.1999  0.1097
21997SOL    HW170447   4.072  10.638   1.122  0.5048  1.5457 -3.1219
21997SOL    HW270448   4.194  10.724   1.150  1.1224 -0.1056 -0.3932
21998SOL     OW70449   6.347   6.526   0.699 -0.3305  0.3040  0.3048
21998SOL    HW170450   6.384   6.503   0.784  0.2565 -3.2307 -0.7447
21998SOL    HW270451   6.306   6.445   0.668 -0.5218  1.4587 -2.7934
21999SOL     OW70452   9.744   4.957   0.962  0.2388 -0.2387 -0.2404
21999SOL    HW170453   9.781   5.035   1.004  0.8132 -1.4377  1.6214
21999SOL    HW270454   9.718   4.901   1.036  0.7952 -2.2535 -1.5087
22000SOL     OW70455   7.766   4.049   0.304 -0.1367 -0.0168  0.1111
22000SOL    HW170456   7.848   4.009   0.275 -0.1164 -0.5535  0.8816
22000SOL    HW270457   7.782   4.073   0.395 -0.3618  1.1960 -0.1507
22001SOL     OW70458   1.245   1.619   4.379  0.1605  0.1254  1.1897
22001SOL    HW170459   1.291   1.581   4.304 -1.1697 -1.6750  1.2072
22001SOL    HW270460   1.289   1.584   4.456  0.3497  0.4424  1.2242
22002SOL     OW70461   9.912   7.207   4.617  0.1026  0.4237 -0.1784
22002SOL    HW170462   9.906   7.247   4.703  0.7345  0.4134 -0.1249
22002SOL    HW270463  10.002   7.175   4.611 -0.3225 -0.7955 -0.3043
22003SOL     OW70464   9.837   9.278   6.335 -0.0560  0.1107 -0.1091
22003SOL    HW170465   9.845   9.195   6.382 -3.4208  0.0573  0.6085
22003SOL    HW270466   9.833   9.252   6.243  0.8587 -0.3178 -0.0407
22004SOL     OW70467   0.120   3.101   7.921  0.1988 -0.1148 -0.0284
22004SOL    HW170468   0.056   3.079   7.854  0.0052  0.9329 -0.2087
22004SOL    HW270469   0.078   3.169   7.973  1.2851  0.8291 -0.3432
22005SOL     OW70470   1.846   2.147   2.473 -0.1937  0.5314  0.2320
22005SOL    HW170471   1.840   2.081   2.404 -2.1700  1.0384 -0.1491
22005SOL    HW270472   1.884   2.223   2.430  1.6879 -0.1513  0.5688
22006SOL     OW70473   4.971   3.368   1.290  0.2638  0.1901 -0.0397
22006SOL    HW170474   4.884   3.374   1.251  0.0455 -1.7051  0.0920
22006SOL    HW270475   5.007   3.286   1.257  2.3878  1.3581 -0.7894
22007SOL     OW70476   9.868   5.443   1.745 -0.4907 -0.0700 -0.3285
22007SOL    HW170477   9.851   5.439   1.839 -1.9415 -1.3759 -0.5830
22007SOL    HW270478   9.872   5.536   1.724 -1.6897  0.2575  0.8006
22008SOL     OW70479   6.154  10.308   8.395 -0.4366  0.0261 -0.4716
22008SOL    HW170480   6.106  10.321   8.477 -1.6891  0.0950 -1.2013
22008SOL    HW270481   6.242  10.343   8.414 -0.3152 -1.0474  1.2085
22009SOL     OW70482   7.596   5.980   0.348 -0.1058  0.0931 -0.2008
22009SOL    HW170483   7.527   6.033   0.309  0.3530  0.1706 -0.9192
22009SOL    HW270484   7.559   5.892   0.353  0.3091 -0.2356 -2.1421
22010SOL     OW70485   3.281   8.216   1.815 -0.2086  0.0775  0.5012
22010SOL    HW170486   3.209   8.277   1.800 -0.6794 -0.2412  1.3798
22010SOL    HW270487   3.335   8.259   1.881 -0.9366 -0.7408  1.6729
22011SOL     OW70488   1.238   3.723   1.616 -0.1990 -0.3820  0.3816
22011SOL    HW170489   1.163   3.755   1.667 -0.0083  1.5695 -0.4598
22011SOL    HW270490   1.230   3.628   1.619 -3.0229 -0.2727 -0.1086
22012SOL     OW70491   0.446   6.272   2.197 -0.1398  0.5204 -0.0023
22012SOL    HW170492   0.356   6.282   2.227 -0.6664 -0.9154 -1.0100
22012SOL    HW270493   0.474   6.188   2.233  0.2184  0.1661 -1.0893
22013SOL     OW70494   2.429   8.107   6.540  0.0414 -0.1898  0.3591
22013SOL    HW170495   2.483   8.186   6.551  1.1132 -0.9677  0.8840
22013SOL    HW270496   2.365   8.112   6.611  0.2351  0.1252  0.5166
22014SOL     OW70497   9.268   2.020  10.430  0.3681  0.3130  0.0088
22014SOL    HW170498   9.256   2.094  10.371 -0.2023 -0.1081 -0.4163
22014SOL    HW270499   9.363   2.013  10.441  0.4714  0.5234 -0.7010
22015SOL     OW70500   3.831   4.250   5.418  0.3260 -0.0484  0.2392
22015SOL    HW170501   3.794   4.272   5.333 -1.8320 -2.2426  0.5119
22015SOL    HW270502   3.812   4.157   5.430  3.5666 -0.6518  1.6940
22016SOL     OW70503   7.762  10.837   1.797 -0.1735 -0.2107 -0.5991
22016SOL    HW170504   7.708  10.769   1.837  0.2914  0.7778  1.8323
22016SOL    HW270505   7.839  10.790   1.764 -1.0711 -1.1919 -1.3787
22017SOL     OW70506   1.459   2.044   7.822 -1.0507  0.0401 -0.3608
22017SOL    HW170507   1.463   2.131   7.782  1.7229  1.4914  2.5982
22017SOL    HW270508   1.380   2.045   7.876 -0.1009  1.5769  1.1067
22018SOL     OW70509   4.385   3.291   0.615 -0.2948  0.0761  0.1224
22018SOL    HW170510   4.458   3.330   0.663 -0.1402 -0.4085  0.2912
22018SOL    HW270511   4.324   3.263   0.684  0.2266 -1.2118  0.0846
22019SOL     OW70512   5.019   4.277   4.059  0.0262  0.0776 -0.5755
22019SOL    HW170513   4.993   4.258   3.969 -1.2407  1.9130 -0.6421
22019SOL    HW270514   5.113   4.297   4.053 -0.3138  1.4663 -1.7339
22020SOL     OW70515   6.279   3.695   0.725 -0.4198 -0.2707  0.3221
22020SOL    HW170516   6.319   3.631   0.668 -0.0566 -0.3414  0.6519
22020SOL    HW270517   6.202   3.651   0.760  0.3736 -0.9043  1.3341
22021SOL     OW70518   7.740   8.270   8.604  0.3659 -0.2496 -0.1468
22021SOL    HW170519   7.803   8.319   8.550  0.5271 -1.4306 -1.0697
22021SOL    HW270520   7.709   8.200   8.546 -0.5653 -0.6703  0.8404
22022SOL     OW70521   0.471   5.833   5.674 -0.0214  0.1474 -0.6320
22022SOL    HW170522   0.501   5.752   5.715  1.3581  0.6920 -0.5249
22022SOL    HW270523   0.396   5.860   5.727 -0.0682 -0.6949 -0.2542
22023SOL     OW70524   7.035   4.801   3.705 -0.1904 -0.3886 -0.2192
22023SOL    HW170525   6.949   4.815   3.746 -1.3416 -0.8207 -2.3377
22023SOL    HW270526   7.073   4.728   3.754 -0.5910  0.4012  1.3432
22024SOL     OW70527   8.438   7.688   3.947 -0.5633 -0.1093 -0.1372
22024SOL    HW170528   8.506   7.643   3.998 -0.4643 -0.2707 -0.4054
22024SOL    HW270529   8.378   7.723   4.012 -0.7773 -0.8515  0.0708
22025SOL     OW70530  10.048   0.540   5.373  0.2821  0.4512 -0.1895
22025SOL    HW170531  10.124   0.564   5.426 -0.1567  1.6021 -0.0444
22025SOL    HW270532  10.059   0.589   5.292 -0.8667  1.5639  0.2852
22026SOL     OW70533   7.413   3.786   6.840 -0.3087 -0.5024  0.3130
22026SOL    HW170534   7.325   3.791   6.803 -0.9125 -1.1311  1.6273
22026SOL    HW270535   7.424   3.867   6.889 -0.5394 -0.8652  0.9687
22027SOL     OW70536   1.224   9.827   3.069 -0.5425  0.0974  0.5067
22027SOL    HW170537   1.313   9.804   3.095 -0.0712  1.9623  0.7203
22027SOL    HW270538   1.229   9.835   2.974 -1.1368 -2.2362  0.2311
22028SOL     OW70539   1.982   8.217   9.339 -0.0244  0.0524 -0.0648
22028SOL    HW170540   1.893   8.187   9.359 -0.8100  1.0698 -1.8526
22028SOL    HW270541   1.971   8.285   9.273  1.9466  1.8103  1.2795
22029SOL     OW70542   6.324   9.603   4.698 -0.4617 -0.0206 -0.2777
22029SOL    HW170543   6.246   9.620   4.644 -0.4823 -1.1006 -0.6123
22029SOL    HW270544   6.293   9.544   4.767  0.0479 -0.4429 -0.4017
22030SOL     OW70545   8.346   9.569   1.494 -0.4586 -0.5352  0.3990
22030SOL    HW170546   8.259   9.607   1.497 -0.5320 -0.6758  0.0849
22030SOL    HW270547   8.367   9.561   1.401  0.4765  0.8154  0.4670
22031SOL     OW70548   3.241   4.106   0.515 -0.5849 -0.7225  0.2866
22031SOL    HW170549   3.159   4.057   0.520  0.9068 -3.3688  2.1120
22031SOL    HW270550   3.229   4.180   0.574 -1.7959 -0.8374  0.2028
22032SOL     OW70551  11.065   1.901   5.386 -0.6545  0.0666  0.0223
22032SOL    HW170552  11.054   1.813   5.422 -0.0811  0.0009  0.0446
22032SOL    HW270553  11.036   1.959   5.456 -0.6209 -0.0932  0.1697
22033SOL     OW70554   7.631   2.754   7.784 -0.2572 -0.5399 -0.3927
22033SOL    HW170555   7.685   2.720   7.713  0.1752  0.1676 -0.4116
22033SOL    HW270556   7.630   2.849   7.770 -0.9210 -0.4774  0.0178
22034SOL     OW70557   2.136   5.993   6.735 -0.3680  0.1111  0.0712
22034SOL    HW170558   2.071   5.980   6.804 -1.3084  2.2205 -0.3413
22034SOL    HW270559   2.217   6.016   6.782 -0.3964 -0.6612  0.5161
22035SOL     OW70560   2.209   2.472   1.810 -0.8545  0.3882  0.2849
22035SOL    HW170561   2.149   2.536   1.773 -0.4423  1.2352  1.0461
22035SOL    HW270562   2.289   2.521   1.827 -0.0133 -0.6624 -0.4849
22036SOL     OW70563   4.088   9.114   4.183  0.1585  0.9626 -0.0011
22036SOL    HW170564   4.139   9.194   4.195  0.7755  0.4778  0.7248
22036SOL    HW270565   4.103   9.090   4.092  0.8095  1.1174  0.0563
22037SOL     OW70566   1.080   4.512   2.210 -0.0504  0.5289 -0.0794
22037SOL    HW170567   1.142   4.523   2.138 -0.0016  1.2767  0.0683
22037SOL    HW270568   1.073   4.599   2.249 -0.0655  0.1304  0.8324
22038SOL     OW70569   5.594   3.384  10.319  0.6680  0.0775 -0.4563
22038SOL    HW170570   5.504   3.365  10.292  0.2884 -0.7694  1.2426
22038SOL    HW270571   5.591   3.475  10.350  0.4526  0.1224 -0.6074
22039SOL     OW70572   8.181   3.404   1.439  0.6534  0.2599  0.4470
22039SOL    HW170573   8.164   3.455   1.360  0.2559 -1.4034 -0.6088
22039SOL    HW270574   8.250   3.343   1.412  0.0501 -0.7704  1.1657
22040SOL     OW70575   2.874   0.680   7.280  0.5012  0.2196 -0.1030
22040SOL    HW170576   2.943   0.695   7.215  0.1185  1.3259 -0.2736
22040SOL    HW270577   2.804   0.636   7.231  1.6755 -2.4709  0.4271
22041SOL     OW70578   3.915   9.527   7.965  0.0536 -0.5114 -0.2952
22041SOL    HW170579   3.954   9.614   7.954  0.0972 -0.4560  0.2754
22041SOL    HW270580   3.821   9.542   7.968  0.0723 -0.4548  0.0456
22042SOL     OW70581   1.223  10.973   0.533 -0.6118 -0.3847  0.4933
22042SOL    HW170582   1.233  10.880   0.555 -0.1104 -0.3479  0.4362
22042SOL    HW270583   1.250  11.019   0.612 -1.8617 -0.2964  0.8832
22043SOL     OW70584   1.860   4.516   7.434 -0.3203 -0.0557 -0.3564
22043SOL    HW170585   1.849   4.555   7.347  1.5793 -0.4004 -0.7973
22043SOL    HW270586   1.821   4.579   7.494 -1.3403  0.3628 -1.4170
22044SOL     OW70587   5.701   7.880   2.104 -0.2246 -0.3981 -0.1636
22044SOL    HW170588   5.621   7.897   2.053 -0.6123  2.4865  1.2285
22044SOL    HW270589   5.673   7.884   2.195  1.4009 -0.1282  0.3446
22045SOL     OW70590   7.843   3.692   0.551  0.7860 -0.3074  0.2102
22045SOL    HW170591   7.822   3.599   0.552 -0.2385 -0.0823  1.1543
22045SOL    HW270592   7.935   3.696   0.580  0.7091 -0.9989  0.5713
22046SOL     OW70593   3.851   0.850   0.279  0.3704 -0.2943 -0.5297
22046SOL    HW170594   3.940   0.883   0.295  0.1021  0.6711 -0.9974
22046SOL    HW270595   3.794   0.915   0.320 -0.1266 -1.0339 -0.0264
22047SOL     OW70596   4.168   4.346   3.700 -0.3440  0.0590  0.0382
22047SOL    HW170597   4.257   4.380   3.694  0.1170 -1.2290 -0.8843
22047SOL    HW270598   4.167   4.297   3.782 -1.5258  3.5158  2.3134
22048SOL     OW70599   2.888   8.047   6.721 -0.3458  0.1730  0.0096
22048SOL    HW170600   2.968   8.000   6.744 -0.3963 -0.1045 -0.3583
22048SOL    HW270601   2.818   7.989   6.749 -0.4148 -0.6615 -1.7211
22049SOL     OW70602  10.630   7.566   8.906  0.2652  0.0597 -0.6171
22049SOL    HW170603  10.700   7.623   8.872 -0.9528  0.7499 -2.0729
22049SOL    HW270604  10.590   7.527   8.828 -0.6465 -0.7318  0.2160
22050SOL     OW70605   8.567   5.770   9.657  0.1987  0.6287 -0.1581
22050SOL    HW170606   8.584   5.759   9.563 -1.4762  1.3404 -0.5667
22050SOL    HW270607   8.506   5.699   9.678  0.4791  0.5454  0.3783
22051SOL     OW70608   4.810   7.763  10.388  0.3530 -0.2050 -0.2721
22051SOL    HW170609   4.799   7.857  10.372 -1.3841  0.1218  2.3425
22051SOL    HW270610   4.884   7.758  10.448  0.4532 -0.5272 -0.4219
22052SOL     OW70611   7.957   0.977   9.107  0.0528  0.0659  0.1226
22052SOL    HW170612   7.872   0.939   9.085 -0.1708  0.4485  0.3139
22052SOL    HW270613   8.010   0.903   9.135 -0.1994 -0.1832 -0.0485
22053SOL     OW70614   9.353   4.045   4.201 -0.3095 -1.0217  0.2371
22053SOL    HW170615   9.323   4.088   4.282  0.3099  0.4293 -0.2628
22053SOL    HW270616   9.432   3.997   4.227  0.1002 -0.2610  0.4502
22054SOL     OW70617   3.538   0.572   6.825 -0.2307  0.7548 -0.5560
22054SOL    HW170618   3.448   0.539   6.835 -0.7620  2.3196  0.0832
22054SOL    HW270619   3.568   0.588   6.914  0.5584  0.6187 -0.7893
22055SOL     OW70620   4.523  10.507   0.060  0.1322 -0.0112  0.1930
22055SOL    HW170621   4.535  10.590   0.106  1.2496 -0.5049  0.8062
22055SOL    HW270622   4.431  10.485   0.075 -0.4423  1.5644 -0.7659
22056SOL     OW70623   3.913  10.659   2.364  0.6332 -0.3099 -0.2593
22056SOL    HW170624   3.848  10.599   2.326  0.7000  0.6147 -1.9102
22056SOL    HW270625   3.990  10.604   2.379  1.2700 -0.4075 -3.2775
22057SOL     OW70626   9.724   9.693   6.975  0.5142  0.6335  0.0963
22057SOL    HW170627   9.696   9.607   6.944 -0.6861  0.2784  2.0003
22057SOL    HW270628   9.651   9.751   6.956  0.3925  0.7295  0.8197
22058SOL     OW70629   1.103  10.110   7.438 -0.4517 -0.4966 -0.0183
22058SOL    HW170630   1.154  10.190   7.454 -2.4219  0.6849  0.7922
22058SOL    HW270631   1.148  10.042   7.489  0.1331  0.5808  0.9564
22059SOL     OW70632   6.138   2.130  10.530  0.4229 -0.1836  0.3835
22059SOL    HW170633   6.108   2.162  10.615  0.3188  2.9295 -0.6788
22059SOL    HW270634   6.065   2.079  10.496 -1.1768  1.8427  0.5863
22060SOL     OW70635  10.385   9.262   7.131  0.0013 -0.5136 -0.2662
22060SOL    HW170636  10.435   9.185   7.103 -1.2398 -1.2071 -0.6732
22060SOL    HW270637  10.296   9.229   7.143  0.1286  0.0491  3.2466
22061SOL     OW70638  10.576   3.728   6.749 -0.4096 -0.3025  0.2370
22061SOL    HW170639  10.529   3.669   6.808 -1.3481 -0.1182 -0.3135
22061SOL    HW270640  10.557   3.696   6.662  0.4082 -0.1519 -0.0085
22062SOL     OW70641   2.822   5.801   2.464 -0.2472  0.2552  0.6709
22062SOL    HW170642   2.895   5.842   2.416 -1.6792  1.4949 -0.5333
22062SOL    HW270643   2.776   5.749   2.398 -1.1331  0.4248  1.1457
22063SOL     OW70644   3.129   6.836   4.773 -0.1101 -0.2750  0.3225
22063SOL    HW170645   3.125   6.839   4.678 -0.2899  0.4624  0.3512
22063SOL    HW270646   3.162   6.922   4.799  0.3442 -0.6174  0.9054
22064SOL     OW70647   8.152   0.837   7.955 -0.5592  1.1106 -0.2206
22064SOL    HW170648   8.092   0.836   8.029 -0.0951 -0.6565  0.1781
22064SOL    HW270649   8.195   0.923   7.960 -0.2767  0.9032  1.7679
22065SOL     OW70650   1.297   6.505   8.751 -0.0223 -0.5669  0.2644
22065SOL    HW170651   1.240   6.575   8.718 -0.9152 -1.3547  0.0865
22065SOL    HW270652   1.352   6.482   8.676 -0.2141 -0.5379  0.1141
22066SOL     OW70653   4.939   7.165   6.066 -0.1109  0.5683  0.1898
22066SOL    HW170654   4.988   7.132   5.991 -0.5478  0.1981  0.0619
22066SOL    HW270655   4.882   7.233   6.030 -0.7097  0.0145  0.0936
22067SOL     OW70656   2.180   5.508   4.000  0.3692 -0.1487  0.5866
22067SOL    HW170657   2.200   5.567   4.073 -0.9014 -2.3988  2.9062
22067SOL    HW270658   2.107   5.551   3.954  0.3002  0.6861  1.4490
22068SOL     OW70659   1.174   1.453   2.123  0.1754 -0.1925  0.2863
22068SOL    HW170660   1.123   1.447   2.204  0.0829  1.3110  0.3596
22068SOL    HW270661   1.181   1.362   2.093  3.9947 -1.6055  4.2662
22069SOL     OW70662   6.319   6.263   0.691  0.0027 -0.8525  0.3588
22069SOL    HW170663   6.356   6.276   0.604 -0.6440 -1.2096  0.0227
22069SOL    HW270664   6.390   6.283   0.751  0.2060  0.2340 -0.2312
22070SOL     OW70665   8.677   5.422   9.201 -0.1258  0.0551 -0.3889
22070SOL    HW170666   8.692   5.516   9.207  2.4529 -0.1742 -1.5551
22070SOL    HW270667   8.670   5.405   9.107 -0.2451 -0.9474 -0.2060
22071SOL     OW70668   2.458   0.570   4.731 -0.3203  0.1456 -0.0143
22071SOL    HW170669   2.552   0.558   4.721 -0.4570 -0.3133 -0.8102
22071SOL    HW270670   2.449   0.644   4.792  0.5479 -0.4322  0.8439
22072SOL     OW70671   0.886   9.026   7.043  0.6591  0.6586  0.4791
22072SOL    HW170672   0.898   9.117   7.071  0.9002  0.1895  2.0218
22072SOL    HW270673   0.857   8.981   7.123 -1.3770 -0.2584 -0.7040
22073SOL     OW70674   3.789  10.049   1.781 -0.3191  0.1537 -0.4211
22073SOL    HW170675   3.748  10.027   1.697 -0.7520  0.2878 -0.2496
22073SOL    HW270676   3.869   9.998   1.783 -0.1349  0.4041 -1.0717
22074SOL     OW70677   1.158   6.548   3.913  0.1492  0.8357 -0.5384
22074SOL    HW170678   1.182   6.641   3.908 -0.5596  1.0494 -0.2114
22074SOL    HW270679   1.101   6.543   3.989 -0.6639  0.3302 -1.1595
22075SOL     OW70680   4.229   1.742   4.231 -0.0909  0.0748  0.3187
22075SOL    HW170681   4.214   1.810   4.165 -1.1911 -0.3047  0.1636
22075SOL    HW270682   4.142   1.714   4.258  0.3375 -0.1844  1.5267
22076SOL     OW70683  10.793   1.625   5.289 -0.5080  0.0679  0.1261
22076SOL    HW170684  10.821   1.645   5.378  0.5998  0.3508 -0.2739
22076SOL    HW270685  10.821   1.535   5.275  0.4391  0.4257 -0.3541
22077SOL     OW70686   8.555   9.562   5.157  0.1011  0.0116  0.4964
22077SOL    HW170687   8.508   9.644   5.168 -0.2779 -0.1824  0.3243
22077SOL    HW270688   8.630   9.585   5.102  0.3163  0.3573  0.9264
22078SOL     OW70689   2.859   5.481   3.733 -0.0391 -0.3736 -0.3390
22078SOL    HW170690   2.768   5.454   3.719 -0.6519  1.0223  0.7797
22078SOL    HW270691   2.877   5.457   3.824  0.1447  0.8961 -0.0302
22079SOL     OW70692   2.097   2.005   6.232  0.1445 -0.1586 -0.3090
22079SOL    HW170693   2.020   1.990   6.178  1.2262 -2.2924 -1.3962
22079SOL    HW270694   2.079   1.961   6.314  0.0191 -0.2451 -0.3839
22080SOL     OW70695   6.418   0.195   1.148 -0.8723  0.2000 -0.8673
22080SOL    HW170696   6.338   0.233   1.183 -0.5134  0.3304 -0.1808
22080SOL    HW270697   6.442   0.127   1.210 -0.0330  0.6752 -0.6531
22081SOL     OW70698   2.429   6.574   0.297  0.4998 -0.5864  0.0653
22081SOL    HW170699   2.450   6.488   0.262 -0.9031 -1.1784  0.5947
22081SOL    HW270700   2.340   6.564   0.333  0.0639  1.2380 -0.4245
22082SOL     OW70701   4.118   3.428   1.563 -0.3572  0.1059  0.0404
22082SOL    HW170702   4.120   3.420   1.658  0.3354  0.0356  0.0241
22082SOL    HW270703   4.027   3.411   1.539 -0.7967  1.3499  0.7843
22083SOL     OW70704   4.041   1.082   9.608  0.3398  0.5698 -0.4314
22083SOL    HW170705   3.983   1.008   9.589  1.1901 -0.4868  0.9021
22083SOL    HW270706   4.027   1.100   9.701  0.0824  2.1753 -0.7549
22084SOL     OW70707  10.682   8.999   8.792  0.0048 -0.4431 -0.4709
22084SOL    HW170708  10.672   9.057   8.867 -0.7180 -0.4687 -0.5326
22084SOL    HW270709  10.701   9.057   8.719  0.9493 -0.4391 -0.2325
22085SOL     OW70710   1.882   0.857   8.818 -0.1428 -0.4634  0.1355
22085SOL    HW170711   1.878   0.856   8.722  1.0913 -0.9555  0.0710
22085SOL    HW270712   1.976   0.854   8.838 -0.4185 -3.3650  1.3688
22086SOL     OW70713   7.939   5.639   0.783 -0.3730  0.9559  0.0112
22086SOL    HW170714   7.983   5.577   0.842 -0.5571  0.9425  0.1344
22086SOL    HW270715   7.876   5.585   0.734 -0.6072  1.0636  0.1930
22087SOL     OW70716   1.309   3.703   1.101 -0.2157  0.2785 -0.0371
22087SOL    HW170717   1.374   3.755   1.147  0.3052  0.0391 -0.5000
22087SOL    HW270718   1.231   3.708   1.156  0.1770  0.6070  0.4908
22088SOL     OW70719   1.145   4.766   3.753 -0.6944  0.3928 -0.1887
22088SOL    HW170720   1.192   4.729   3.828 -1.8366  0.0329  0.3786
22088SOL    HW270721   1.211   4.814   3.704 -0.1298  1.6943  1.7183
22089SOL     OW70722   7.170   6.794   3.014 -0.2739  0.2078  0.0286
22089SOL    HW170723   7.169   6.826   3.104 -1.0511 -0.5673  0.3036
22089SOL    HW270724   7.081   6.765   2.998  0.0676 -0.4736 -0.7042
22090SOL     OW70725   7.505   3.392   6.918 -0.4391 -0.4239  0.4707
22090SOL    HW170726   7.431   3.427   6.967 -0.5595  1.3159 -0.8650
22090SOL    HW270727   7.556   3.469   6.893  1.1643 -1.4871  0.2853
22091SOL     OW70728   1.984   1.416   9.488 -0.1745 -0.2603  0.6666
22091SOL    HW170729   2.044   1.349   9.522 -0.8632 -0.1914  2.0498
22091SOL    HW270730   1.938   1.448   9.564 -1.2470  0.4349 -0.2493
22092SOL     OW70731   2.338   6.194   3.990 -0.5550 -0.1235 -0.2243
22092SOL    HW170732   2.303   6.269   3.943  0.3141 -0.6242 -1.7402
22092SOL    HW270733   2.261   6.141   4.012 -1.1385  1.0384  0.5897
22093SOL     OW70734   0.208   2.426   7.464 -0.7250 -0.0416  0.3368
22093SOL    HW170735   0.134   2.485   7.479 -0.4032  0.0641  1.6384
22093SOL    HW270736   0.227   2.390   7.550  1.3644  0.6946  0.2376
22094SOL     OW70737   4.793   4.389   8.187  0.4743 -0.0089 -0.3304
22094SOL    HW170738   4.760   4.479   8.186 -0.4064 -0.2259  2.1149
22094SOL    HW270739   4.724   4.338   8.143  0.9478  0.4498 -1.6658
22095SOL     OW70740   2.912   9.102   8.059  0.2312  0.1608  0.1517
22095SOL    HW170741   2.961   9.183   8.043  0.4407  0.0428  0.1876
22095SOL    HW270742   2.821   9.126   8.043  0.2930  0.4003  0.1457
22096SOL     OW70743   6.901   3.740   6.378 -0.3751 -0.0087  0.4153
22096SOL    HW170744   6.821   3.730   6.430 -2.1838  0.4516 -2.0960
22096SOL    HW270745   6.914   3.655   6.336 -0.0979  0.1908  0.0897
22097SOL     OW70746   8.115   5.937   6.972  0.2991  0.3168 -0.2638
22097SOL    HW170747   8.165   6.005   6.926 -1.0813  0.0725 -2.2263
22097SOL    HW270748   8.034   5.928   6.921 -0.2862 -1.6408  0.9234
22098SOL     OW70749   7.104   8.703   6.898 -0.0870  0.4156  0.1698
22098SOL    HW170750   7.039   8.704   6.968  0.4951  0.3556  0.7307
22098SOL    HW270751   7.055   8.682   6.819 -0.9919  1.8751  0.3120
22099SOL     OW70752   0.235   7.619   8.486 -0.0787  0.0802  0.2660
22099SOL    HW170753   0.311   7.604   8.430 -0.9715 -1.6181 -0.5588
22099SOL    HW270754   0.224   7.537   8.534 -1.8312  0.0120 -0.2011
22100SOL     OW70755   1.851   6.575   7.257 -0.1245 -0.1080  0.6693
22100SOL    HW170756   1.809   6.600   7.339 -0.8908 -0.4170  0.3858
22100SOL    HW270757   1.908   6.649   7.235 -1.3467  0.8215  0.5267
22101SOL     OW70758   2.164   6.108   9.861  0.4602  0.2609  0.0039
22101SOL    HW170759   2.092   6.059   9.821  0.6057  0.4595 -0.5084
22101SOL    HW270760   2.155   6.093   9.955 -0.7766  1.0008  0.0150
22102SOL     OW70761   0.087   1.127   1.640 -0.4498  0.1845 -0.3332
22102SOL    HW170762   0.088   1.060   1.571 -2.1768 -0.9719  0.7102
22102SOL    HW270763   0.179   1.133   1.668 -0.0464 -0.7533 -1.3538
22103SOL     OW70764   4.863   9.244   3.215 -0.0419 -0.1272 -0.1170
22103SOL    HW170765   4.870   9.166   3.160  0.6198  0.0757 -0.3294
22103SOL    HW270766   4.947   9.248   3.261 -1.5722 -1.9756  3.1910
22104SOL     OW70767   7.672   7.151   5.545  0.1687 -0.0847  0.4029
22104SOL    HW170768   7.656   7.077   5.605 -0.0507 -2.1539 -2.0397
22104SOL    HW270769   7.585   7.180   5.519  0.2645  0.7220  0.9727
22105SOL     OW70770   6.987   1.011   0.081  0.7978 -0.2349  0.5152
22105SOL    HW170771   7.011   0.983   0.169  0.1576  0.3048  0.8825
22105SOL    HW270772   6.891   1.010   0.082  0.7604  0.9601  0.2396
22106SOL     OW70773   1.232   3.227   9.835  0.0399 -0.8361 -0.5227
22106SOL    HW170774   1.281   3.249   9.915  0.1327  0.3790 -0.8895
22106SOL    HW270775   1.151   3.188   9.867  0.1798 -0.5807  0.1650
22107SOL     OW70776   1.201   8.096   4.523  0.1581  0.0270  0.1513
22107SOL    HW170777   1.148   8.017   4.520  0.7746 -0.5522  2.4830
22107SOL    HW270778   1.152   8.156   4.579  1.0810  0.1689  0.8254
22108SOL     OW70779   5.963   6.670   2.468 -0.4984  0.2480  0.2890
22108SOL    HW170780   6.017   6.719   2.530  0.7754  0.6706 -1.0760
22108SOL    HW270781   5.948   6.732   2.396 -0.9602 -0.5763 -0.3483
22109SOL     OW70782   6.688   7.721   1.165 -0.1934 -0.1158 -0.3734
22109SOL    HW170783   6.696   7.787   1.235 -0.7968  1.0259 -1.3361
22109SOL    HW270784   6.626   7.759   1.103  0.1795 -1.1772 -1.4474
22110SOL     OW70785   7.083   8.189   3.711 -0.3805  0.1478  0.0623
22110SOL    HW170786   7.012   8.224   3.657 -0.0733 -0.2206 -0.5998
22110SOL    HW270787   7.122   8.120   3.657 -0.8585 -1.1031  1.2650
22111SOL     OW70788   0.568   8.821  10.817  0.5107  0.6471  0.0729
22111SOL    HW170789   0.549   8.888  10.883  0.0944 -0.0323  0.6542
22111SOL    HW270790   0.502   8.836  10.748  0.6047  1.0140  0.0620
22112SOL     OW70791   6.050   9.588  11.000 -0.3090  0.0400  0.0065
22112SOL    HW170792   6.093   9.551  11.077 -0.1156  3.7402  1.8726
22112SOL    HW270793   6.123   9.618  10.945 -0.4566  0.7312  0.1843
22113SOL     OW70794   7.128  10.101  10.931  0.1755  0.0797 -0.7135
22113SOL    HW170795   7.187  10.066  10.865  1.6444  1.4987 -0.2306
22113SOL    HW270796   7.171  10.083  11.014 -1.5381 -1.4757 -0.1022
22114SOL     OW70797   7.801   3.092   9.789  0.3768 -0.1093  0.1629
22114SOL    HW170798   7.851   3.047   9.857  1.5762 -0.2898 -0.8029
22114SOL    HW270799   7.727   3.033   9.770  0.8367 -0.7368  0.2894
22115SOL     OW70800   0.170   5.868   8.973 -0.0621 -0.1517  0.5402
22115SOL    HW170801   0.156   5.951   9.017  2.1440  0.5895 -0.0231
22115SOL    HW270802   0.086   5.822   8.981 -0.8368  1.4311  2.2696
22116SOL     OW70803   6.723   8.161  10.214 -0.4896 -0.4104 -0.8309
22116SOL    HW170804   6.668   8.133  10.141 -0.5722  0.4075 -1.0960
22116SOL    HW270805   6.680   8.239  10.249 -0.3211 -0.6479 -0.0532
22117SOL     OW70806   5.673   4.947   6.937  0.1139 -0.2932 -0.0755
22117SOL    HW170807   5.692   5.040   6.945 -0.2888 -0.0004 -2.0651
22117SOL    HW270808   5.583   4.938   6.967  0.4757 -0.2526  1.0991
22118SOL     OW70809   8.199   6.708   7.712 -0.2379 -0.1305  0.0102
22118SOL    HW170810   8.150   6.703   7.794  0.1475  3.6035  0.6454
22118SOL    HW270811   8.153   6.774   7.660  2.3687  1.3836 -0.5650
22119SOL     OW70812   2.572   1.278   4.439 -0.0267  0.8333  0.1462
22119SOL    HW170813   2.607   1.268   4.350 -0.8622  1.2970 -0.2414
22119SOL    HW270814   2.508   1.207   4.447 -2.6475  2.9146 -0.9763
22120SOL     OW70815  10.852   7.666   9.529  0.6671 -0.0535  0.2372
22120SOL    HW170816  10.869   7.673   9.435  3.4251  1.0577  0.7015
22120SOL    HW270817  10.804   7.746   9.550  3.0101  1.4827  0.2072
22121SOL     OW70818   4.979  10.399   5.214 -0.0167  0.1307  0.2261
22121SOL    HW170819   4.955  10.491   5.229  1.6605  0.6661 -0.1161
22121SOL    HW270820   5.026  10.400   5.130  0.8440 -0.8755  0.6681
22122SOL     OW70821   0.081  10.809  10.760  0.2431 -0.4722  0.0942
22122SOL    HW170822  -0.011  10.785  10.747 -0.6101  2.5614 -0.0838
22122SOL    HW270823   0.130  10.746  10.706 -1.9568 -0.0202 -2.6346
22123SOL     OW70824   4.462   4.695   0.798  0.7748  0.3171 -0.0643
22123SOL    HW170825   4.373   4.703   0.765  1.1627 -0.6317 -1.4299
22123SOL    HW270826   4.487   4.785   0.823 -0.0727  0.8191 -0.9709
22124SOL     OW70827   8.944   8.148   9.107  0.1649  0.3947 -0.2167
22124SOL    HW170828   8.974   8.238   9.124 -0.3378  0.6583 -0.7095
22124SOL    HW270829   8.860   8.159   9.062 -0.0467 -0.3275 -0.0022
22125SOL     OW70830   9.885   2.001   6.862  0.3489 -0.1716 -0.1441
22125SOL    HW170831   9.816   2.052   6.904 -0.4803 -0.3389 -1.2472
22125SOL    HW270832   9.845   1.970   6.780  2.0564  0.5674 -1.2978
22126SOL     OW70833   1.989   0.694  10.805 -0.1305  0.1078 -0.6554
22126SOL    HW170834   2.064   0.734  10.760  0.1900 -1.7890 -1.9147
22126SOL    HW270835   1.968   0.617  10.752 -0.0315 -2.0286  2.2274
22127SOL     OW70836   1.775   5.056   0.092 -0.2027  0.5354  0.3614
22127SOL    HW170837   1.710   5.089   0.154 -0.3793  0.9994 -0.0685
22127SOL    HW270838   1.770   5.115   0.017 -1.7021 -1.3951 -1.1779
22128SOL     OW70839   3.056   8.555   9.453 -0.4705  0.0330 -0.1681
22128SOL    HW170840   3.081   8.499   9.379 -0.1487 -1.2588  0.8678
22128SOL    HW270841   3.137   8.602   9.476 -0.3785 -0.1220 -0.1735
22129SOL     OW70842  10.360   1.944   8.760  0.9639  0.1025 -0.3709
22129SOL    HW170843  10.333   1.973   8.847  0.1647  0.1885 -0.6429
22129SOL    HW270844  10.454   1.928   8.768  0.7899 -0.4550  0.6592
22130SOL     OW70845  10.884   6.707   8.107  0.0402  0.1047  0.2143
22130SOL    HW170846  10.866   6.617   8.080 -0.8446  0.3472 -0.0348
22130SOL    HW270847  10.930   6.698   8.190 -2.5415 -0.5485  1.6670
22131SOL     OW70848   4.607   9.588   8.517  0.0856  0.0224 -0.2357
22131SOL    HW170849   4.512   9.603   8.517  0.1288  0.4089  1.0163
22131SOL    HW270850   4.645   9.676   8.515  0.4304 -0.1334 -0.7646
22132SOL     OW70851   8.719   3.848   9.388  0.0737  0.1916 -0.4121
22132SOL    HW170852   8.664   3.923   9.411 -0.1098  0.4231 -1.5555
22132SOL    HW270853   8.678   3.774   9.433  1.1608  0.9747  2.0358
22133SOL     OW70854   1.865   4.426   7.115  0.5853  0.3418  0.1713
22133SOL    HW170855   1.780   4.467   7.129  0.5112  0.2448  0.0128
22133SOL    HW270856   1.866   4.351   7.174  0.6340  0.4475  0.3048
22134SOL     OW70857   4.127   1.839   0.643  0.4848  0.2047  0.1453
22134SOL    HW170858   4.142   1.895   0.567 -0.1828 -0.2995 -0.3716
22134SOL    HW270859   4.077   1.765   0.609  1.9506 -1.0838  0.6730
22135SOL     OW70860  10.685   2.702   6.442  0.3285  0.6845  0.3497
22135SOL    HW170861  10.763   2.668   6.486 -0.4899 -0.0696  1.2846
22135SOL    HW270862  10.621   2.630   6.449  0.0424  0.6905 -1.7685
22136SOL     OW70863   0.381   1.513   4.953  0.1802  0.2040 -0.3251
22136SOL    HW170864   0.345   1.425   4.959 -0.2706  0.3779 -0.4411
22136SOL    HW270865   0.322   1.559   4.893  0.6353  0.4739 -0.5701
22137SOL     OW70866   4.642   7.684   7.467 -0.3108  0.9991  0.3923
22137SOL    HW170867   4.555   7.707   7.499 -0.7507  0.8152 -0.6273
22137SOL    HW270868   4.698   7.688   7.544 -1.4205  0.0986  1.2795
22138SOL     OW70869   0.160   3.414   5.686  0.3856  0.0244  0.6598
22138SOL    HW170870   0.162   3.378   5.774 -0.3167 -2.0138 -0.0970
22138SOL    HW270871   0.077   3.460   5.681 -0.3506 -1.2699  0.5749
22139SOL     OW70872   8.126   4.273   0.649  0.4812  0.6470  0.3171
22139SOL    HW170873   8.049   4.307   0.696 -0.0137  0.4196 -0.3161
22139SOL    HW270874   8.090   4.239   0.567  1.4203  1.6320 -0.5159
22140SOL     OW70875   2.887   0.724   1.812  1.0046 -0.4637 -0.2902
22140SOL    HW170876   2.961   0.782   1.798 -0.4831  1.3894 -0.9431
22140SOL    HW270877   2.884   0.668   1.734 -0.6991  2.3309 -2.4009
22141SOL     OW70878   9.316   3.345   1.040 -0.7586 -0.3741  0.3411
22141SOL    HW170879   9.304   3.303   0.955 -0.6506  0.3576 -0.0429
22141SOL    HW270880   9.410   3.347   1.053 -0.7973 -0.9273  0.7042
22142SOL     OW70881   4.909   6.891   4.951 -0.4236  0.1449  0.6052
22142SOL    HW170882   4.882   6.802   4.930 -2.8894  1.0073 -0.2828
22142SOL    HW270883   4.965   6.882   5.028 -0.8793 -2.1354  0.7401
22143SOL     OW70884   0.637   7.517  10.389 -0.0387 -0.0819  0.7860
22143SOL    HW170885   0.613   7.454  10.456 -2.5996 -0.5136 -0.3889
22143SOL    HW270886   0.600   7.600  10.419  0.6610  0.1940  0.8983
22144SOL     OW70887   2.251   1.155   8.747 -0.1746  0.1706  0.4915
22144SOL    HW170888   2.260   1.234   8.693  0.3280 -1.3024 -1.7056
22144SOL    HW270889   2.161   1.125   8.731  0.4490 -1.1178 -0.8526
22145SOL     OW70890   3.393  10.286   1.429 -0.0574 -0.4030  0.3255
22145SOL    HW170891   3.386  10.216   1.494  0.6140 -1.1333 -0.3663
22145SOL    HW270892   3.431  10.243   1.352  0.5640  0.7701 -0.0422
22146SOL     OW70893   6.342   3.828   8.485 -0.0590  0.0196 -0.0860
22146SOL    HW170894   6.251   3.822   8.514  0.6680  1.9384  3.0965
22146SOL    HW270895   6.382   3.747   8.516 -0.2275  0.1882  0.6038
22147SOL     OW70896   9.778   2.193   7.142  0.0893 -0.5646  0.3301
22147SOL    HW170897   9.849   2.172   7.203 -1.3779 -3.4110  1.2241
22147SOL    HW270898   9.702   2.148   7.176 -1.6178  0.3906 -1.9182
22148SOL     OW70899   6.136   9.178   9.714 -0.8136  0.1949 -0.1418
22148SOL    HW170900   6.191   9.124   9.657 -2.0414  0.9687 -2.1562
22148SOL    HW270901   6.198   9.220   9.774  0.2674 -2.6322  0.8926
22149SOL     OW70902   4.053   7.931   4.237 -0.5186  0.0560 -0.6893
22149SOL    HW170903   3.991   7.864   4.208  0.2065 -1.0615  0.2624
22149SOL    HW270904   4.098   7.891   4.312 -1.1191  2.1506  0.8869
22150SOL     OW70905   7.417   8.980   4.863  0.1234  0.7466 -0.0996
22150SOL    HW170906   7.447   8.938   4.783  0.2845  0.6149  0.0312
22150SOL    HW270907   7.489   8.970   4.925  0.0754  1.0183  0.0024
22151SOL     OW70908  10.721   7.073   1.210  0.4020  0.2415 -0.1041
22151SOL    HW170909  10.764   7.156   1.228 -1.6489  0.8869  2.4452
22151SOL    HW270910  10.773   7.008   1.258  0.2059  0.5654  0.5532
22152SOL     OW70911   7.705   0.921   4.513  0.2290 -0.4816 -0.0532
22152SOL    HW170912   7.798   0.920   4.536  0.2168 -0.4255  0.0003
22152SOL    HW270913   7.660   0.891   4.592  0.1783 -0.1750  0.0370
22153SOL     OW70914   9.966   5.791   7.257 -0.3889  0.1576  0.2616
22153SOL    HW170915  10.035   5.856   7.251 -0.9321  0.8618  1.3515
22153SOL    HW270916   9.926   5.805   7.343  0.1488 -2.3088  1.0057
22154SOL     OW70917   6.739   9.912   6.172 -0.0237  0.0298 -0.2114
22154SOL    HW170918   6.657   9.961   6.168 -1.9265 -2.8396  0.5705
22154SOL    HW270919   6.784   9.946   6.249 -2.0379 -0.5103  1.2659
22155SOL     OW70920   1.303   6.294   8.361 -0.3680  0.1329 -0.2439
22155SOL    HW170921   1.353   6.212   8.357 -3.5280 -1.9051 -1.0486
22155SOL    HW270922   1.357   6.357   8.313  2.2348 -1.3685  0.5182
22156SOL     OW70923   3.423  10.712   4.297 -0.0180  0.5544 -0.1914
22156SOL    HW170924   3.438  10.623   4.265  0.7582  1.5440 -2.7999
22156SOL    HW270925   3.506  10.736   4.340 -0.3843 -0.0790  0.9282
22157SOL     OW70926   8.823   6.955   8.947  0.0015  0.5057 -0.1955
22157SOL    HW170927   8.840   7.047   8.927 -2.5288  0.6489 -2.1291
22157SOL    HW270928   8.807   6.914   8.862 -0.6314 -1.3138  0.7493
22158SOL     OW70929   3.304   1.043   8.343 -0.0191  0.0709 -0.2703
22158SOL    HW170930   3.328   1.120   8.395  1.3403 -1.1684  1.0470
22158SOL    HW270931   3.209   1.037   8.353  0.1496  0.0188  2.0033
22159SOL     OW70932   0.267   7.194   6.502  0.2491 -0.4198  0.2261
22159SOL    HW170933   0.254   7.146   6.583  0.0531  1.1730  1.1930
22159SOL    HW270934   0.358   7.224   6.506 -0.5047  1.9855  1.2551
22160SOL     OW70935   3.099  11.036   6.830  0.5130  0.3509 -0.1590
22160SOL    HW170936   3.038  11.103   6.800  1.3561  1.0539 -0.3227
22160SOL    HW270937   3.045  10.957   6.839 -0.6381  1.2038  0.7170
22161SOL     OW70938   5.177   3.077  10.327 -0.9098  0.3883  0.1789
22161SOL    HW170939   5.108   3.094  10.262 -2.0659  1.2922  1.5664
22161SOL    HW270940   5.223   3.161  10.336 -1.8704  0.8068  1.7081
22162SOL     OW70941   9.409  10.549   2.105  0.0820 -0.4356  0.9128
22162SOL    HW170942   9.341  10.570   2.168 -0.0080  0.3148  0.5736
22162SOL    HW270943   9.480  10.513   2.158 -0.5288 -1.1130  1.2778
22163SOL     OW70944   2.154   1.449   1.358 -0.3810  0.7168  0.3237
22163SOL    HW170945   2.118   1.510   1.293 -2.1067 -1.2467 -0.6582
22163SOL    HW270946   2.128   1.363   1.327 -0.2375 -0.3825  3.0304
22164SOL     OW70947  10.817   5.525   9.727 -0.1996 -0.2273  0.2391
22164SOL    HW170948  10.826   5.543   9.633 -1.6669 -0.6288 -0.0014
22164SOL    HW270949  10.904   5.495   9.754  0.3530  0.2967 -0.8912
22165SOL     OW70950  10.036   9.869   5.153 -0.2839 -0.3491 -0.9065
22165SOL    HW170951   9.972   9.901   5.089 -0.8361  2.1560  0.7463
22165SOL    HW270952   9.983   9.837   5.226  0.3479 -1.1201 -0.7724
22166SOL     OW70953  10.765   6.876   2.017 -0.0541 -0.5865 -0.1080
22166SOL    HW170954  10.788   6.933   1.943 -1.3671 -0.0376 -0.1142
22166SOL    HW270955  10.704   6.928   2.069  0.9784 -0.8916  1.4932
22167SOL     OW70956   3.981   7.056   4.493  0.0329 -0.2773  0.2453
22167SOL    HW170957   4.059   7.110   4.485  0.9535 -1.4512  0.9796
22167SOL    HW270958   3.913   7.116   4.523  0.3909  0.9542 -1.3272
22168SOL     OW70959  10.813   7.377   6.621  0.3774  0.0556  0.0567
22168SOL    HW170960  10.741   7.365   6.683  0.6006  0.8177  0.4779
22168SOL    HW270961  10.788   7.455   6.571  1.1632  0.6576  0.5786
22169SOL     OW70962   1.760   6.660   5.477  0.3288  0.2069  0.0886
22169SOL    HW170963   1.693   6.728   5.468  2.5526  2.4013 -0.6377
22169SOL    HW270964   1.793   6.647   5.389  0.0883 -1.7710  0.2399
22170SOL     OW70965   9.890   2.511   5.245 -0.0332 -0.0975 -0.1220
22170SOL    HW170966   9.905   2.499   5.339 -1.2483 -0.7477  0.0058
22170SOL    HW270967   9.797   2.492   5.233 -0.1012  0.8605 -1.3215
22171SOL     OW70968   5.209   5.544   8.686 -0.4240 -0.6807  0.2554
22171SOL    HW170969   5.169   5.457   8.681 -0.6293 -0.5584 -0.2534
22171SOL    HW270970   5.151   5.601   8.635 -0.8291 -0.0289  1.4159
22172SOL     OW70971   7.333  10.049   1.243 -0.6818  1.1447  0.3714
22172SOL    HW170972   7.347  10.124   1.301 -2.1373  0.2370  1.9718
22172SOL    HW270973   7.346   9.972   1.298  1.9799  0.0852 -1.5193
22173SOL     OW70974   0.455   3.971   3.542 -0.3668 -0.7380  0.3359
22173SOL    HW170975   0.528   3.929   3.588 -0.4138 -1.3105 -0.0964
22173SOL    HW270976   0.404   3.898   3.507 -2.3894 -0.4820  2.4450
22174SOL     OW70977   3.247   7.579   5.100 -0.6085  0.0066  0.0806
22174SOL    HW170978   3.181   7.649   5.105 -0.4263  0.2952 -1.2087
22174SOL    HW270979   3.225   7.531   5.020  2.0782  1.5635 -1.7850
22175SOL     OW70980   9.847   1.578  10.641  0.3792 -0.0907  0.3927
22175SOL    HW170981   9.936   1.568  10.606  0.5316  0.9456  0.4652
22175SOL    HW270982   9.850   1.532  10.725  0.7209 -0.4309  0.2019
22176SOL     OW70983   6.092   9.462   1.761  0.0700  0.0052  0.2165
22176SOL    HW170984   6.033   9.391   1.736 -0.3981  0.3358  0.3764
22176SOL    HW270985   6.147   9.477   1.684 -0.9866  0.6459 -0.4280
22177SOL     OW70986   2.196   2.348   8.887  0.2564 -0.2045 -0.3346
22177SOL    HW170987   2.184   2.253   8.894 -1.0404 -0.1527 -1.4387
22177SOL    HW270988   2.114   2.385   8.919  0.5455  0.5187 -0.4202
22178SOL     OW70989   9.990   4.528   0.447 -0.5175  0.6118  0.0864
22178SOL    HW170990   9.943   4.522   0.530 -2.1045 -2.1787 -0.8820
22178SOL    HW270991   9.922   4.521   0.380  0.8085  1.9193 -1.4953
22179SOL     OW70992   5.540   6.879   1.764  0.3950 -0.0199 -0.0699
22179SOL    HW170993   5.475   6.933   1.719  0.4280 -0.1706 -0.2991
22179SOL    HW270994   5.511   6.789   1.749  0.4288 -0.0724  0.1767
22180SOL     OW70995   2.563   7.629  10.140  0.3620 -0.1959  0.2150
22180SOL    HW170996   2.650   7.665  10.156  0.3922  0.0160 -0.3883
22180SOL    HW270997   2.561   7.613  10.045  0.0859 -1.0937  0.3603
22181SOL     OW70998   1.293   1.183  10.452  0.3908  0.1216 -0.7081
22181SOL    HW170999   1.332   1.259  10.495 -0.1210 -0.6024  1.1622
22181SOL    HW271000   1.324   1.108  10.503 -2.1494 -0.6016 -0.0758
22182SOL     OW71001   2.584   7.289   5.512 -0.0428  0.3353 -0.3319
22182SOL    HW171002   2.533   7.217   5.548  0.5666 -0.5127 -1.1272
22182SOL    HW271003   2.599   7.265   5.421  1.4637  0.7212 -0.2160
22183SOL     OW71004   2.520   4.308   0.584 -0.6939  0.2628  0.7187
22183SOL    HW171005   2.439   4.261   0.601 -1.0778  0.0468 -1.4625
22183SOL    HW271006   2.522   4.321   0.489  2.2708 -0.6067  0.5393
22184SOL     OW71007   9.588   7.471   0.494  0.2483  0.2757 -0.2734
22184SOL    HW171008   9.503   7.492   0.533 -0.1009 -0.6278 -0.5141
22184SOL    HW271009   9.652   7.499   0.559 -0.2297  0.8985 -0.0535
22185SOL     OW71010  10.432   8.453   9.577  0.0387 -0.4160 -0.3999
22185SOL    HW171011  10.366   8.398   9.619  0.0541 -0.0094  0.1719
22185SOL    HW271012  10.385   8.533   9.554  0.2496 -0.2690 -0.3183
22186SOL     OW71013   2.371   8.301   4.470  0.6201  0.2174 -0.1146
22186SOL    HW171014   2.310   8.320   4.399  0.5000  0.4296  0.0449
22186SOL    HW271015   2.319   8.313   4.550  1.0889  1.2191  0.0496
22187SOL     OW71016   3.216   9.842   2.264 -0.2060  0.0641 -0.7193
22187SOL    HW171017   3.167   9.868   2.343 -0.3406  2.1091 -1.4210
22187SOL    HW271018   3.275   9.772   2.294 -0.6047  0.4534  1.0735
22188SOL     OW71019   0.783   6.676   4.774 -0.8738 -0.4763 -0.1644
22188SOL    HW171020   0.877   6.692   4.774 -0.6233 -0.7102  3.9047
22188SOL    HW271021   0.755   6.690   4.684  2.9319  0.1752 -1.3985
22189SOL     OW71022   8.439   4.977   7.526 -0.0818  0.0586 -0.1679
22189SOL    HW171023   8.346   4.957   7.536 -0.0741 -0.5676 -1.2525
22189SOL    HW271024   8.474   4.905   7.475  0.7812  0.8378 -0.7056
22190SOL     OW71025   5.557   7.882   3.897  0.1760 -0.2901 -0.7230
22190SOL    HW171026   5.621   7.814   3.923  0.1024 -0.1979 -0.2933
22190SOL    HW271027   5.586   7.961   3.943 -0.4855 -0.3464 -0.1933
22191SOL     OW71028   9.829   9.087  10.160  0.0433  0.0371 -0.3918
22191SOL    HW171029   9.771   9.135  10.100 -0.2533  0.9719  0.5990
22191SOL    HW271030   9.773   9.019  10.197 -0.3715  0.7427  0.3292
22192SOL     OW71031   1.178   9.983   2.593  0.1841 -0.1476  1.0917
22192SOL    HW171032   1.216  10.071   2.586 -0.1630  0.0469  1.5616
22192SOL    HW271033   1.159   9.958   2.503 -0.1455  0.4592  0.9818
22193SOL     OW71034   9.054   5.119   3.190  0.0486  0.2415 -0.1473
22193SOL    HW171035   8.971   5.132   3.237  0.3215  0.7594  0.1942
22193SOL    HW271036   9.109   5.072   3.251  0.2561  0.5389 -0.1026
22194SOL     OW71037   5.816   0.755   2.671  0.0176 -0.1871  0.0345
22194SOL    HW171038   5.727   0.778   2.697 -0.0156  1.2237 -1.2279
22194SOL    HW271039   5.872   0.818   2.718  0.1817  0.3304 -0.8434
22195SOL     OW71040  10.509   4.831   3.577  0.1984  0.4673 -0.1951
22195SOL    HW171041  10.526   4.737   3.565 -0.3621  0.3798 -0.3819
22195SOL    HW271042  10.553   4.854   3.659 -0.7179 -0.2524  0.5217
22196SOL     OW71043  10.832   9.483   9.615 -0.4275 -0.0464  0.0811
22196SOL    HW171044  10.872   9.555   9.566  1.7941 -0.2756  1.4506
22196SOL    HW271045  10.870   9.404   9.577 -0.5384 -0.3517  0.5989
22197SOL     OW71046   3.976   1.409   2.536 -0.2529  0.1507  0.7910
22197SOL    HW171047   3.984   1.315   2.556 -0.6440 -0.1374 -0.2898
22197SOL    HW271048   4.061   1.433   2.500 -0.6837 -0.2398 -0.5596
22198SOL     OW71049   4.517   5.676   7.636 -0.1350  0.1773 -0.4773
22198SOL    HW171050   4.518   5.607   7.570  0.0444  1.2343 -1.6349
22198SOL    HW271051   4.610   5.689   7.658 -0.1066  0.4648 -0.7458
22199SOL     OW71052   7.041   2.323   2.603  0.4488 -0.2008 -0.1668
22199SOL    HW171053   7.033   2.234   2.567  0.7639 -0.2872 -0.0216
22199SOL    HW271054   6.997   2.378   2.538  0.2252 -0.4655 -0.2451
22200SOL     OW71055   0.568  11.009   6.850 -0.5343 -0.2485  0.4548
22200SOL    HW171056   0.536  10.969   6.931  1.2431 -1.6056  0.5383
22200SOL    HW271057   0.657  11.037   6.871  0.0866 -0.9375 -1.1025
22201SOL     OW71058   4.683   1.046   0.833 -0.3971 -0.3210 -0.2191
22201SOL    HW171059   4.710   0.963   0.873  0.0980  0.1745  0.5042
22201SOL    HW271060   4.640   1.094   0.905 -0.5130  0.1226 -0.5830
22202SOL     OW71061   6.756   0.333   2.867 -0.2269  0.4031  0.0396
22202SOL    HW171062   6.702   0.367   2.938  1.1287 -0.6759  1.6579
22202SOL    HW271063   6.714   0.251   2.842 -0.0725  0.2089  0.4073
22203SOL     OW71064   8.131   8.344   1.543 -0.3930 -0.6183 -0.3511
22203SOL    HW171065   8.224   8.337   1.566 -0.0508  2.6690 -0.1935
22203SOL    HW271066   8.130   8.336   1.448  0.6459  2.5396 -0.7510
22204SOL     OW71067   2.956   3.558   5.180 -0.4931 -0.2588 -0.1491
22204SOL    HW171068   2.997   3.625   5.127 -0.1492  0.5377  1.0743
22204SOL    HW271069   2.897   3.606   5.239 -0.3720 -1.0323  0.6350
22205SOL     OW71070   4.758   2.471   4.307 -0.2025  0.0451 -0.0231
22205SOL    HW171071   4.665   2.449   4.303  0.0368 -1.5189  1.6206
22205SOL    HW271072   4.777   2.479   4.401  0.4116  4.8147 -0.3135
22206SOL     OW71073   7.927   6.321   6.516 -0.1815  0.3410 -0.3049
22206SOL    HW171074   8.008   6.371   6.517  0.4760 -0.6987  0.9488
22206SOL    HW271075   7.882   6.350   6.437  1.1490  1.3436 -0.7248
22207SOL     OW71076   8.630   7.772   5.650 -0.6387  0.6944  0.1856
22207SOL    HW171077   8.615   7.721   5.730 -0.2084  1.6741  0.9144
22207SOL    HW271078   8.544   7.778   5.609 -1.0414  0.9270  1.0376
22208SOL     OW71079   7.938  10.627   5.597 -0.1536 -0.1326  0.1646
22208SOL    HW171080   7.975  10.617   5.509  0.2573 -1.2952  0.4498
22208SOL    HW271081   7.973  10.710   5.628 -0.7100  0.5474 -0.9480
22209SOL     OW71082  10.140   6.596   2.901 -0.2565 -0.5096 -0.0910
22209SOL    HW171083  10.145   6.674   2.957  1.2152  0.7213 -1.8276
22209SOL    HW271084  10.229   6.563   2.898 -0.7840 -2.0219  0.2289
22210SOL     OW71085   7.089   5.430   5.334 -0.2263  0.3974 -0.3695
22210SOL    HW171086   7.011   5.472   5.300 -0.6403 -0.7970 -0.9760
22210SOL    HW271087   7.075   5.423   5.428 -0.7072  0.4635 -0.4377
22211SOL     OW71088   3.179   6.297   2.242  0.5903 -0.0733  0.0656
22211SOL    HW171089   3.093   6.337   2.231  0.0261 -0.6845  1.8466
22211SOL    HW271090   3.241   6.369   2.230 -0.2856  0.8277  0.7799
22212SOL     OW71091   8.597   5.952   9.011  0.1410  0.1563  0.0136
22212SOL    HW171092   8.648   6.029   8.984 -1.2742  1.2930  0.4383
22212SOL    HW271093   8.601   5.894   8.935  0.0680  1.2913 -0.9013
22213SOL     OW71094   0.240   0.413   6.127  0.5201 -0.9290  0.4207
22213SOL    HW171095   0.150   0.381   6.131 -0.0488  0.3607 -0.9582
22213SOL    HW271096   0.237   0.499   6.168  0.7211 -0.1498 -1.1164
22214SOL     OW71097   6.146   2.911   9.808 -0.4208 -0.1218 -0.6108
22214SOL    HW171098   6.085   2.852   9.850 -0.1430  0.8860  1.3058
22214SOL    HW271099   6.092   2.981   9.772 -0.5696 -0.4067 -0.9433
22215SOL     OW71100   2.207   3.395  10.873 -0.1417 -0.6241 -0.3832
22215SOL    HW171101   2.124   3.348  10.860 -0.1540 -0.5880 -0.4394
22215SOL    HW271102   2.263   3.363  10.802 -0.6490  0.5658 -1.3605
22216SOL     OW71103   3.619   6.758   6.378  0.2082  0.7494 -0.0244
22216SOL    HW171104   3.701   6.740   6.425 -0.1780  0.0754  0.3987
22216SOL    HW271105   3.555   6.776   6.447 -0.2670  0.1659 -0.3094
22217SOL     OW71106   8.831   9.841   4.711 -0.1217  0.3655  0.5382
22217SOL    HW171107   8.819   9.756   4.755 -1.1233  1.1335  1.8148
22217SOL    HW271108   8.899   9.885   4.762  0.3182  0.3759 -0.0576
22218SOL     OW71109   8.420   6.368   0.457 -0.6889  0.0637  0.0144
22218SOL    HW171110   8.373   6.294   0.419  0.0425  0.1537 -1.1130
22218SOL    HW271111   8.354   6.416   0.507 -1.4421 -0.6458 -0.2833
22219SOL     OW71112   0.407  10.163   7.503 -0.2362  0.0336 -0.2401
22219SOL    HW171113   0.322  10.206   7.514  0.9557  2.4331  0.1267
22219SOL    HW271114   0.461  10.198   7.573  1.7145  0.2898 -1.7954
22220SOL     OW71115   7.490  11.008   3.996  0.6794 -0.1815 -0.3992
22220SOL    HW171116   7.450  11.031   4.080  1.0630 -0.4518 -0.1388
22220SOL    HW271117   7.416  10.983   3.940  0.1807  2.1048 -0.8568
22221SOL     OW71118   5.925   6.233  10.965  0.2002  0.2231 -0.0352
22221SOL    HW171119   6.019   6.233  10.978  0.4540  0.6368 -1.6478
22221SOL    HW271120   5.902   6.326  10.956 -0.2926  0.1001 -0.1058
22222SOL     OW71121   6.058   2.180   2.666 -0.6728  0.4475 -0.4341
22222SOL    HW171122   5.969   2.161   2.694 -0.2057  2.0187  2.5624
22222SOL    HW271123   6.100   2.094   2.659 -1.4837 -0.1981  1.8202
22223SOL     OW71124  10.633   6.738   6.728  0.1591  0.1379 -0.2816
22223SOL    HW171125  10.542   6.742   6.699  0.2001  0.6196 -0.3558
22223SOL    HW271126  10.673   6.671   6.672 -0.3157 -0.5947  0.2397
22224SOL     OW71127   9.503   0.395   9.944 -0.1186 -0.0973 -0.1416
22224SOL    HW171128   9.551   0.351  10.014  0.8889 -2.7662 -2.3053
22224SOL    HW271129   9.496   0.486   9.973  1.5079 -0.7517  2.7117
22225SOL     OW71130   5.631   5.101   5.625  0.1248 -0.0956  0.4765
22225SOL    HW171131   5.700   5.076   5.564  1.1699  1.2169  1.0676
22225SOL    HW271132   5.614   5.193   5.605 -0.2269  0.0672  1.4813
22226SOL     OW71133   1.293   0.539   4.938 -0.0990  0.1291  0.4624
22226SOL    HW171134   1.264   0.542   4.846  2.1009 -1.5072 -0.3788
22226SOL    HW271135   1.268   0.624   4.974 -3.2649 -0.0855 -0.9041
22227SOL     OW71136   7.841   5.143   7.696 -0.0411  0.1845 -0.5465
22227SOL    HW171137   7.895   5.117   7.770  0.3016 -0.5282 -1.0298
22227SOL    HW271138   7.842   5.239   7.697 -1.8312  0.2463  1.6453
22228SOL     OW71139   7.612   9.943   4.331 -0.1336  0.1155 -0.1242
22228SOL    HW171140   7.594   9.871   4.270  0.8388  0.1572 -0.4679
22228SOL    HW271141   7.689   9.987   4.296 -1.6182  2.3577 -0.8350
22229SOL     OW71142   4.287   6.455   5.608  0.1151 -0.4572  0.4171
22229SOL    HW171143   4.354   6.395   5.642  0.1839 -1.2476 -0.9885
22229SOL    HW271144   4.208   6.433   5.656  0.0678 -1.9488 -0.2764
22230SOL     OW71145   6.037   3.572   3.845 -0.3487 -0.2479 -0.0718
22230SOL    HW171146   5.952   3.615   3.847  1.3266  3.5010  1.3836
22230SOL    HW271147   6.069   3.585   3.756 -0.9348 -0.9350 -0.3897
22231SOL     OW71148  10.068   9.463   3.010 -0.4561 -0.6109 -0.2456
22231SOL    HW171149  10.092   9.384   2.961  2.3678 -0.3075  0.4563
22231SOL    HW271150  10.082   9.535   2.949 -1.3262 -0.5239 -0.3494
22232SOL     OW71151   0.553   6.384   7.281  0.0320 -0.4953 -0.1203
22232SOL    HW171152   0.567   6.298   7.320 -0.9061 -1.2562 -1.3682
22232SOL    HW271153   0.578   6.373   7.189  1.0341  0.9118 -0.0570
22233SOL     OW71154   7.255   5.618   4.556  0.0837 -0.0685  0.3709
22233SOL    HW171155   7.247   5.524   4.573 -0.6161 -0.0918 -0.0324
22233SOL    HW271156   7.173   5.641   4.513  0.7199  0.5050 -0.5542
22234SOL     OW71157   8.087   2.355   9.800 -0.1446 -0.7800 -0.2041
22234SOL    HW171158   8.182   2.364   9.812 -0.3720 -0.1688  1.3899
22234SOL    HW271159   8.076   2.339   9.707  1.4300  0.7269 -0.7010
22235SOL     OW71160   1.775   8.999   1.621 -0.2016 -0.2498 -0.0498
22235SOL    HW171161   1.742   8.978   1.708 -0.3020 -0.6829 -0.1879
22235SOL    HW271162   1.740   9.086   1.603  1.7581  0.8955  1.2860
22236SOL     OW71163   0.568   4.291   9.090  0.0199 -0.7275 -0.9993
22236SOL    HW171164   0.558   4.258   9.001 -1.6482 -1.6668 -0.5071
22236SOL    HW271165   0.514   4.233   9.144  1.7199 -0.7642  0.7893
22237SOL     OW71166   1.481  10.443   6.527 -0.4193  0.1506 -0.0052
22237SOL    HW171167   1.562  10.402   6.495  0.1840  0.3560  1.2093
22237SOL    HW271168   1.443  10.484   6.449 -0.3492 -1.5426 -0.9805
22238SOL     OW71169   7.869   8.474   5.377  0.2724  0.7220 -0.3874
22238SOL    HW171170   7.886   8.484   5.470 -2.2116 -0.0167  0.2460
22238SOL    HW271171   7.835   8.559   5.349  2.0545  1.2990 -0.9523
22239SOL     OW71172   4.835   6.007   8.542  0.5822 -0.1759 -0.6070
22239SOL    HW171173   4.769   6.073   8.521  1.5669  0.4087 -1.9765
22239SOL    HW271174   4.892   6.049   8.606  0.4769 -0.1533 -0.5284
22240SOL     OW71175   6.944   2.889   6.197  0.2593  0.2204  0.1151
22240SOL    HW171176   7.039   2.889   6.189  0.3615  0.3081  1.2402
22240SOL    HW271177   6.927   2.904   6.290 -0.8656  1.0204 -0.1974
22241SOL     OW71178   8.491   5.900   3.389  0.3240 -0.0356  0.0531
22241SOL    HW171179   8.538   5.957   3.450  1.0263  1.6994 -1.9767
22241SOL    HW271180   8.555   5.832   3.366  1.0386  0.8900 -0.7959
22242SOL     OW71181   3.905   9.402   9.455  0.0270 -0.1493  0.2945
22242SOL    HW171182   3.910   9.476   9.395  0.4498 -1.3150 -1.1498
22242SOL    HW271183   3.814   9.404   9.487 -0.1221  0.6515 -0.1545
22243SOL     OW71184   1.433   6.032   5.371 -0.0062 -0.2892 -0.1966
22243SOL    HW171185   1.465   6.029   5.462 -3.3651  1.0314  1.2036
22243SOL    HW271186   1.478   6.107   5.333 -0.4879  0.8046  1.2890
22244SOL     OW71187   6.376   9.074   4.595 -0.0813 -0.3985  0.2384
22244SOL    HW171188   6.444   9.125   4.637 -0.1599  1.3479 -1.5945
22244SOL    HW271189   6.357   9.121   4.513 -2.5977 -1.4816  0.0809
22245SOL     OW71190   5.931  10.838   6.811 -0.4383  0.8013  0.4800
22245SOL    HW171191   6.014  10.842   6.858 -0.0272  0.6092 -0.2121
22245SOL    HW271192   5.903  10.746   6.820  0.6560  0.2510 -1.3277
22246SOL     OW71193   2.384   5.340   0.459 -0.0929  0.2483  0.5907
22246SOL    HW171194   2.470   5.364   0.424  0.7495 -0.4505  2.0953
22246SOL    HW271195   2.342   5.424   0.478  0.4658  0.5893  0.3429
22247SOL     OW71196   1.817   2.763   8.813  0.7594 -0.5246 -0.0100
22247SOL    HW171197   1.832   2.738   8.904  0.3299 -0.1415  0.1692
22247SOL    HW271198   1.853   2.691   8.762  0.5168 -0.9882  0.4726
22248SOL     OW71199   4.567  10.031   4.632 -0.2781 -0.2865  0.4239
22248SOL    HW171200   4.645  10.070   4.594  0.2837 -0.6874  1.1550
22248SOL    HW271201   4.528  10.101   4.685  0.8554 -0.7307  1.9212
22249SOL     OW71202   4.396  10.889  10.902  0.2680 -0.2188 -0.8190
22249SOL    HW171203   4.480  10.875  10.946  0.0692  2.8495  0.7823
22249SOL    HW271204   4.389  10.984  10.894 -2.8656 -0.3968 -1.3134
22250SOL     OW71205   0.194   3.517   8.376 -0.2244  0.4253 -0.1849
22250SOL    HW171206   0.179   3.487   8.465  0.1392  0.7939  0.0024
22250SOL    HW271207   0.272   3.573   8.382  2.5667 -2.9541 -1.4459
22251SOL     OW71208  10.720   3.065   4.203  0.5963  0.4389  0.7009
22251SOL    HW171209  10.731   3.094   4.113  3.3814 -1.3945  0.3058
22251SOL    HW271210  10.779   3.121   4.254 -0.0494  0.6731  1.2060
22252SOL     OW71211   8.167   5.046   8.306  0.9073  0.0381 -0.0014
22252SOL    HW171212   8.210   4.971   8.347  0.7807  0.0959  0.2366
22252SOL    HW271213   8.173   5.116   8.371 -0.1346 -0.1436  0.3084
22253SOL     OW71214   8.185   2.412  10.628 -0.8065  0.2517  0.5003
22253SOL    HW171215   8.096   2.446  10.640 -1.0166 -0.3432  0.6753
22253SOL    HW271216   8.174   2.317  10.628 -0.8141  0.0359 -4.1109
22254SOL     OW71217   0.815   2.880   2.543  0.2244  0.4513 -0.1204
22254SOL    HW171218   0.726   2.846   2.544  0.0326  0.9489 -0.0315
22254SOL    HW271219   0.805   2.974   2.557  0.6868  0.6781 -1.2032
22255SOL     OW71220   1.188   5.360   5.208 -0.5120  0.3894 -0.0174
22255SOL    HW171221   1.240   5.338   5.131 -0.1503  1.7003 -0.1766
22255SOL    HW271222   1.111   5.406   5.174  0.1828  1.9542  0.4348
22256SOL     OW71223   5.785   9.565   2.324 -0.4354  0.6049  0.3148
22256SOL    HW171224   5.780   9.612   2.407 -0.6482  1.2271 -0.0357
22256SOL    HW271225   5.838   9.622   2.268  0.2376 -0.1118  0.2199
22257SOL     OW71226   2.402   4.878   6.360 -0.8804 -0.2751 -0.0317
22257SOL    HW171227   2.372   4.948   6.303 -1.2491 -0.8346 -0.5409
22257SOL    HW271228   2.481   4.912   6.401 -0.9149  0.3377 -0.4708
22258SOL     OW71229   9.760   8.914  10.987  0.5243  0.1538 -0.2688
22258SOL    HW171230   9.779   8.952  10.901 -0.7201 -0.9001 -1.0404
22258SOL    HW271231   9.799   8.976  11.049 -0.2316  1.9699 -1.5229
22259SOL     OW71232   3.003   9.824   7.401 -0.3665 -0.6583  0.1531
22259SOL    HW171233   3.086   9.852   7.361  0.3952 -0.7053  1.6221
22259SOL    HW271234   3.008   9.857   7.491 -1.6408 -1.2690  0.4631
22260SOL     OW71235   5.691   0.459   1.584  0.7071  0.0682  0.2236
22260SOL    HW171236   5.717   0.447   1.676  0.5660 -1.8524  0.0501
22260SOL    HW271237   5.601   0.492   1.589  0.2354 -1.2152  0.8069
22261SOL     OW71238   9.528   7.481   7.020  0.4979  0.5646  0.1010
22261SOL    HW171239   9.529   7.434   7.104  0.7964  1.7429  0.7740
22261SOL    HW271240   9.575   7.423   6.960  1.2780  0.2075  1.0324
22262SOL     OW71241   0.177   9.694   2.856 -0.2400 -0.2586 -0.2672
22262SOL    HW171242   0.233   9.629   2.814 -0.1809  0.2915 -1.0520
22262SOL    HW271243   0.157   9.758   2.788  0.2656  0.9362  0.6534
22263SOL     OW71244   7.519   7.623   0.035  0.1426  0.6900 -0.0004
22263SOL    HW171245   7.579   7.548   0.040  0.5833  1.0934  0.8472
22263SOL    HW271246   7.510   7.653   0.125  0.0345  1.7223 -0.3471
22264SOL     OW71247   0.389   5.946   1.565 -0.1423 -0.3378  0.4077
22264SOL    HW171248   0.347   6.005   1.503 -0.0118 -0.2669  0.3874
22264SOL    HW271249   0.384   5.991   1.649  0.9604  0.2043  0.1929
22265SOL     OW71250   2.926   0.914   8.526 -0.0007  0.1216  0.4286
22265SOL    HW171251   2.908   1.008   8.533 -0.5591 -0.0920  2.5096
22265SOL    HW271252   2.959   0.903   8.437  0.3639  2.3303  0.2240
22266SOL     OW71253   2.997   8.106   1.770 -0.4542  0.1025 -0.2722
22266SOL    HW171254   3.038   8.114   1.856 -0.5619  0.5124 -0.2555
22266SOL    HW271255   2.903   8.104   1.788 -0.4394 -1.8196 -0.2352
22267SOL     OW71256   4.090   7.783   7.262  0.0267 -0.2666  0.4349
22267SOL    HW171257   4.010   7.730   7.257  0.6821 -1.2942 -4.2514
22267SOL    HW271258   4.157   7.728   7.220  1.8522  2.5401 -0.6152
22268SOL     OW71259   7.285   6.931   5.135 -0.1152  0.1179  0.0599
22268SOL    HW171260   7.246   6.848   5.110  1.6114 -1.3745  1.9076
22268SOL    HW271261   7.233   6.961   5.209 -0.4561  0.4650 -0.3150
22269SOL     OW71262   8.116   0.709   5.231  0.2108 -0.5045 -0.5356
22269SOL    HW171263   8.191   0.768   5.238 -0.0084 -0.0131 -1.8475
22269SOL    HW271264   8.047   0.752   5.282  0.4470 -0.2846 -0.4014
22270SOL     OW71265   9.855  10.487   9.063 -0.4452  0.2254 -0.0310
22270SOL    HW171266   9.814  10.485   8.976 -0.4535 -1.3355 -0.0200
22270SOL    HW271267   9.884  10.397   9.078  3.3242  1.2476 -0.1588
22271SOL     OW71268  10.521   2.011  10.048  0.7301 -0.3582  0.4307
22271SOL    HW171269  10.445   1.957  10.068  1.8853 -2.8961 -1.4467
22271SOL    HW271270  10.557   2.035  10.134 -2.0728  0.9134  1.3572
22272SOL     OW71271   8.694   7.353   6.803 -0.5426 -0.1967  0.8674
22272SOL    HW171272   8.600   7.354   6.785 -0.7328 -1.8807  1.5884
22272SOL    HW271273   8.708   7.276   6.858  1.5235 -1.0565 -0.6982
22273SOL     OW71274   0.796   8.499   5.544 -0.5205 -0.5743  0.2297
22273SOL    HW171275   0.739   8.490   5.467 -0.5628  0.0442  0.1853
22273SOL    HW271276   0.884   8.486   5.510 -0.5405 -0.3198  0.0800
22274SOL     OW71277   6.548   2.195   3.554  0.4248 -0.3225 -0.1512
22274SOL    HW171278   6.581   2.106   3.563 -1.1229 -0.9007  0.1724
22274SOL    HW271279   6.471   2.198   3.612 -1.4744  0.1895 -2.5246
22275SOL     OW71280   3.028   7.104   4.947  0.0596  0.8115 -0.0196
22275SOL    HW171281   2.973   7.180   4.929 -0.2595  0.9023  1.2060
22275SOL    HW271282   2.982   7.057   5.017  0.4724 -0.2738 -0.4452
22276SOL     OW71283   3.702  10.473   3.266 -0.1787 -0.5048  0.2690
22276SOL    HW171284   3.635  10.448   3.203  0.1648 -2.5755  0.6427
22276SOL    HW271285   3.757  10.535   3.219 -1.3438 -0.1266 -0.6299
22277SOL     OW71286  10.018   0.304   5.529  0.0978 -0.0825 -0.3833
22277SOL    HW171287   9.927   0.286   5.504 -0.0859 -0.0939  0.2725
22277SOL    HW271288  10.036   0.390   5.493 -0.2886  0.0654 -0.2328
22278SOL     OW71289   5.315   1.837   8.281  0.1862  0.0897  0.1626
22278SOL    HW171290   5.281   1.924   8.302 -0.4024  0.0200 -0.4824
22278SOL    HW271291   5.260   1.806   8.209  2.0975  0.3183 -1.4850
22279SOL     OW71292   3.898   6.075   0.096 -0.2635 -0.4207 -0.2371
22279SOL    HW171293   3.883   6.023   0.017  2.4845 -1.6885 -0.0302
22279SOL    HW271294   3.990   6.101   0.090 -0.4966  1.0133  1.6694
22280SOL     OW71295   1.864   7.320   1.438 -0.3343 -0.3454  0.2564
22280SOL    HW171296   1.867   7.411   1.412 -0.0648 -0.9618 -2.0412
22280SOL    HW271297   1.780   7.287   1.407  0.3909 -1.3486 -0.7412
22281SOL     OW71298   6.284  10.725   3.302 -0.6391  0.0571  0.3754
22281SOL    HW171299   6.290  10.757   3.212 -2.0963 -0.6783 -0.0025
22281SOL    HW271300   6.373  10.738   3.337 -0.2802  1.1887 -0.8588
22282SOL     OW71301   8.577   0.787   1.041  0.1503  0.4869  0.0515
22282SOL    HW171302   8.492   0.830   1.029  0.7974  1.8559  0.0673
22282SOL    HW271303   8.615   0.784   0.953  0.6967  1.2773  0.2453
22283SOL     OW71304   3.595   9.566   8.968 -0.3143  0.3808 -0.1913
22283SOL    HW171305   3.612   9.551   8.875  0.2864  0.6351 -0.1252
22283SOL    HW271306   3.507   9.603   8.971 -0.1926  0.7136 -0.6866
22284SOL     OW71307   8.014   5.285   4.329 -0.6315 -0.6981 -1.0598
22284SOL    HW171308   8.092   5.293   4.273 -0.7726 -1.0556 -1.3094
22284SOL    HW271309   7.985   5.375   4.343  1.0433 -0.3545  0.7636
22285SOL     OW71310   7.383   2.084   5.359 -0.0867  0.2877 -0.2748
22285SOL    HW171311   7.419   2.111   5.275 -1.1631 -0.3527 -0.9686
22285SOL    HW271312   7.295   2.051   5.338 -0.6378  0.7328  1.1892
22286SOL     OW71313   2.992   4.907   5.544  0.4143 -0.2862  0.3770
22286SOL    HW171314   3.007   4.886   5.452  2.1509 -2.3324  1.0333
22286SOL    HW271315   2.901   4.881   5.560  0.0843  0.1243 -0.7483
22287SOL     OW71316   2.312  10.148  10.766 -0.1384  0.0221 -0.1328
22287SOL    HW171317   2.292  10.077  10.826 -0.3762  0.5628  0.4319
22287SOL    HW271318   2.312  10.107  10.679  0.2813 -0.7735  0.2375
22288SOL     OW71319   8.087   1.889   5.054 -0.4850  0.1816  0.4675
22288SOL    HW171320   8.092   1.951   5.126  0.5098 -1.1585  1.6097
22288SOL    HW271321   8.009   1.836   5.073  0.9886 -1.6392  1.8879
22289SOL     OW71322   3.247   6.941   3.185  0.4940 -0.5191 -0.3397
22289SOL    HW171323   3.243   7.005   3.114  0.9675  0.9884  0.9610
22289SOL    HW271324   3.335   6.904   3.178  1.9065  2.1759  1.5418
22290SOL     OW71325   8.290   2.057   3.640 -0.4697 -0.3711  0.0192
22290SOL    HW171326   8.371   2.020   3.674  0.3290  1.0006 -0.3217
22290SOL    HW271327   8.317   2.137   3.595 -1.9301 -0.2545 -0.7117
22291SOL     OW71328   5.097   3.728   6.796 -0.2888 -0.3659  0.0640
22291SOL    HW171329   5.159   3.799   6.778 -0.9487 -0.2169 -1.8743
22291SOL    HW271330   5.136   3.651   6.753 -1.2143 -0.3647 -0.8072
22292SOL     OW71331   1.537   9.665   6.668 -0.8323 -0.2220 -0.3292
22292SOL    HW171332   1.552   9.744   6.719  0.5505 -0.2360 -0.6782
22292SOL    HW271333   1.622   9.643   6.632 -1.3186 -1.5409 -0.7337
22293SOL     OW71334   2.135   9.069   3.559 -0.0866  0.2277  0.3646
22293SOL    HW171335   2.183   9.033   3.634 -0.2069  1.2255  0.9394
22293SOL    HW271336   2.141   9.164   3.570 -0.8699  0.3815 -0.4088
22294SOL     OW71337   0.266   3.095   2.931 -0.2169  0.2383 -0.2657
22294SOL    HW171338   0.173   3.077   2.950 -0.4150  0.6988 -0.7868
22294SOL    HW271339   0.270   3.190   2.918  0.0183  0.0429 -1.8470
22295SOL     OW71340   1.933   7.655   7.380 -0.4994 -0.1473  0.1790
22295SOL    HW171341   1.931   7.676   7.287 -0.5896  0.3922  0.2974
22295SOL    HW271342   2.022   7.625   7.397 -0.4506 -0.1336 -0.0592
22296SOL     OW71343   0.680   1.777   3.971 -0.2927 -0.1726  0.4492
22296SOL    HW171344   0.697   1.754   4.062  2.1821 -0.1907  0.0346
22296SOL    HW271345   0.762   1.813   3.939 -1.3869  0.7424 -1.5315
22297SOL     OW71346   0.978   8.239   3.630 -0.2330  0.3018 -0.2717
22297SOL    HW171347   0.899   8.293   3.628 -0.2920  0.2578  0.5219
22297SOL    HW271348   0.965   8.176   3.560 -1.0284  0.1290  0.0158
22298SOL     OW71349   2.387   5.503   9.701 -0.6513  0.2688 -0.0942
22298SOL    HW171350   2.365   5.592   9.729 -1.1524 -0.0837  0.6683
22298SOL    HW271351   2.312   5.477   9.646 -1.2211 -0.2081  0.8848
22299SOL     OW71352   6.125   3.312   4.861 -0.2011  0.0397  0.6944
22299SOL    HW171353   6.086   3.370   4.796 -0.5595 -0.1907  0.7026
22299SOL    HW271354   6.201   3.360   4.893  1.0608 -0.5681 -1.1845
22300SOL     OW71355   4.704   7.280   2.835 -0.0783 -0.4849 -0.3299
22300SOL    HW171356   4.799   7.279   2.827  0.2409  0.8942  2.1535
22300SOL    HW271357   4.672   7.287   2.745  2.2439  1.2447 -1.1268
22301SOL     OW71358   8.502   3.347   9.108  0.3042 -0.6964 -0.0977
22301SOL    HW171359   8.410   3.374   9.098  0.0680 -1.6111 -0.4622
22301SOL    HW271360   8.500   3.276   9.172  0.9173  0.0612  0.7942
22302SOL     OW71361   4.175   7.694   5.400  0.1857  0.3928 -0.2044
22302SOL    HW171362   4.192   7.763   5.335 -0.8241  1.5083  0.6756
22302SOL    HW271363   4.172   7.740   5.483 -1.7162 -0.5128  0.2795
22303SOL     OW71364   9.207   7.547   0.197  0.2415  0.2835 -0.3274
22303SOL    HW171365   9.146   7.576   0.129 -0.3901  0.2593  0.2133
22303SOL    HW271366   9.183   7.599   0.274  1.0363  0.4093 -0.1559
22304SOL     OW71367   0.130   5.527   0.532 -0.3394 -0.0768 -0.3547
22304SOL    HW171368   0.087   5.543   0.448 -0.1007  0.1177 -0.4402
22304SOL    HW271369   0.222   5.514   0.511 -0.4020 -0.8205 -0.2008
22305SOL     OW71370   2.471   3.419   9.431 -0.0915  0.1376  0.4954
22305SOL    HW171371   2.378   3.421   9.453 -0.6103  1.1937 -1.6186
22305SOL    HW271372   2.492   3.508   9.406  1.0334 -0.4492 -0.7756
22306SOL     OW71373   2.246   3.408   1.105  0.3512  0.6479 -0.0628
22306SOL    HW171374   2.197   3.400   1.023  1.2128 -1.0113 -0.4659
22306SOL    HW271375   2.267   3.501   1.111 -1.7656  1.2181 -0.4740
22307SOL     OW71376   2.905   0.650   0.124 -0.4972 -0.0774 -0.1055
22307SOL    HW171377   2.842   0.697   0.179 -3.8432  0.2145 -3.7116
22307SOL    HW271378   2.943   0.719   0.068 -0.7401 -0.8723 -1.2741
22308SOL     OW71379   9.936   6.355   1.098  1.1904 -0.0427 -0.2578
22308SOL    HW171380   9.856   6.319   1.059  0.2575  1.8354 -0.1886
22308SOL    HW271381   9.921   6.351   1.192  1.6751 -0.7371 -0.2053
22309SOL     OW71382   0.859   2.003   6.812 -0.0569  0.2768 -0.2382
22309SOL    HW171383   0.815   1.923   6.842  0.8805 -0.4532 -0.7630
22309SOL    HW271384   0.856   2.062   6.887  1.5247 -1.2035  1.0479
22310SOL     OW71385   7.165   5.672   8.313 -0.3972 -0.1652 -0.7628
22310SOL    HW171386   7.227   5.674   8.240 -0.4762  1.1368 -0.8206
22310SOL    HW271387   7.093   5.618   8.281 -0.1218 -0.1723 -1.3887
22311SOL     OW71388   5.092   9.468   9.197  0.5961  0.3718 -0.2358
22311SOL    HW171389   5.136   9.387   9.172  1.9101  0.9865 -0.0111
22311SOL    HW271390   5.136   9.536   9.147 -1.2006  0.8659 -1.2369
22312SOL     OW71391  10.729   9.675   2.860 -0.1346  0.5371  0.3858
22312SOL    HW171392  10.678   9.633   2.930 -1.4284  0.2762 -0.6616
22312SOL    HW271393  10.748   9.604   2.799  1.2376  0.7070  0.5912
22313SOL     OW71394   5.002   5.733   5.290 -0.3895  0.8866  0.1339
22313SOL    HW171395   5.071   5.667   5.277 -0.1043  1.4086 -1.1581
22313SOL    HW271396   4.991   5.738   5.385 -0.1588 -0.7462  0.2736
22314SOL     OW71397  10.022   1.529   6.931 -0.5224 -0.0564 -0.0647
22314SOL    HW171398   9.943   1.513   6.880 -1.9141  0.3043  1.8838
22314SOL    HW271399  10.004   1.488   7.016  2.2809 -1.9521 -0.2262
22315SOL     OW71400   3.421   8.406   4.328 -0.3099 -0.0922  0.1573
22315SOL    HW171401   3.435   8.400   4.423  1.3206  2.1074  0.1316
22315SOL    HW271402   3.453   8.323   4.294  1.4918  0.0640  1.3427
22316SOL     OW71403   0.098   1.276   2.346 -0.5880  0.1576 -0.2467
22316SOL    HW171404   0.077   1.322   2.428  0.5654  0.3705 -0.0629
22316SOL    HW271405   0.013   1.268   2.302 -1.0184  1.3403  0.2984
22317SOL     OW71406   3.555   9.626   3.902 -0.1581 -0.0456  0.0780
22317SOL    HW171407   3.510   9.607   3.819 -0.0819  2.5477 -0.6216
22317SOL    HW271408   3.507   9.699   3.939  0.5110 -0.4424  1.8154
22318SOL     OW71409  10.401   4.986   8.883 -0.2363  0.1229 -0.6768
22318SOL    HW171410  10.336   4.917   8.870  0.5597 -0.9089  0.6697
22318SOL    HW271411  10.349   5.062   8.911 -0.9926 -0.2620 -0.9968
22319SOL     OW71412   8.227   1.585   1.379  0.1752 -0.0168 -0.1880
22319SOL    HW171413   8.259   1.655   1.322  1.8022 -1.1153 -0.6770
22319SOL    HW271414   8.174   1.530   1.322 -1.7447  1.1593  0.3629
22320SOL     OW71415   2.066   7.201   1.634 -0.4152 -0.3265 -0.2491
22320SOL    HW171416   2.075   7.255   1.712 -1.4418  0.3330 -0.5635
22320SOL    HW271417   1.986   7.233   1.591 -1.8922 -2.9671  0.2756
22321SOL     OW71418   2.871   1.518   2.689 -0.4347 -0.0888  0.2922
22321SOL    HW171419   2.824   1.517   2.773 -1.9411  0.1181 -0.5188
22321SOL    HW271420   2.833   1.445   2.640  1.7017 -1.3699  0.4219
22322SOL     OW71421   8.752   6.668   6.756  0.5745  0.0736  0.4478
22322SOL    HW171422   8.697   6.721   6.813  2.5345  2.3355  0.3772
22322SOL    HW271423   8.795   6.606   6.815 -1.0408 -0.8964  0.6652
22323SOL     OW71424  10.506   2.648   5.169  0.2434  0.4731 -0.1048
22323SOL    HW171425  10.474   2.684   5.252 -0.5065 -0.2780 -0.0492
22323SOL    HW271426  10.454   2.693   5.102  0.4468  0.6705 -0.1288
22324SOL     OW71427   8.793   6.507   9.631  0.0103 -0.0331 -0.1896
22324SOL    HW171428   8.742   6.504   9.712  0.2499  0.1819 -0.0286
22324SOL    HW271429   8.877   6.466   9.654  0.1295  0.1526 -0.2883
22325SOL     OW71430   0.677   2.787   0.792  0.3506  0.1230  0.0038
22325SOL    HW171431   0.599   2.790   0.847  0.0330 -1.6758 -0.2838
22325SOL    HW271432   0.645   2.806   0.703  0.3950  0.2499  0.0143
22326SOL     OW71433   6.900   7.947   8.885 -0.2375  0.2133  0.2280
22326SOL    HW171434   6.952   7.915   8.811 -1.3630  0.4308 -0.6801
22326SOL    HW271435   6.950   7.920   8.963  1.7717  1.3380 -0.6023
22327SOL     OW71436   9.391   1.868   4.414 -0.4542 -0.0862 -0.2858
22327SOL    HW171437   9.395   1.950   4.464 -0.1458  0.6242 -1.4493
22327SOL    HW271438   9.311   1.875   4.363 -0.4510 -0.5297 -0.3548
22328SOL     OW71439   5.963   7.766   4.939 -0.0915  0.1770  0.5721
22328SOL    HW171440   5.995   7.823   4.869  0.3270  2.2647  2.3820
22328SOL    HW271441   6.040   7.716   4.966 -1.0177 -3.9004 -3.1046
22329SOL     OW71442   2.049   7.118   4.105 -0.8886 -0.4956  0.5088
22329SOL    HW171443   2.006   7.111   4.020  1.1255 -1.9891 -0.4545
22329SOL    HW271444   2.054   7.028   4.137  2.3220 -0.5842  0.0955
22330SOL     OW71445   2.900   1.062   2.195 -0.2380  0.3283  0.1064
22330SOL    HW171446   2.859   1.000   2.256  1.1015 -0.2280  0.4874
22330SOL    HW271447   2.951   1.006   2.136  1.3935  1.0603  0.7541
22331SOL     OW71448   2.342   0.060   3.422  0.4002 -0.6121 -0.3305
22331SOL    HW171449   2.357  -0.030   3.450  0.7519 -0.4290  0.0832
22331SOL    HW271450   2.424   0.088   3.383  0.7627 -0.0148  0.8200
22332SOL     OW71451   9.358   3.590  10.672 -0.0064 -0.8301 -0.4531
22332SOL    HW171452   9.423   3.600  10.603 -0.0560 -0.8734 -0.5070
22332SOL    HW271453   9.321   3.503  10.658  1.7572 -1.9178  1.1729
22333SOL     OW71454   2.357   0.082   7.898 -0.9123  0.1000 -0.0360
22333SOL    HW171455   2.401   0.001   7.872 -1.2676  0.0817 -0.5903
22333SOL    HW271456   2.265   0.068   7.874 -1.0710  0.4662  0.3480
22334SOL     OW71457   2.099   0.951   5.782 -0.3144  0.5662 -0.4480
22334SOL    HW171458   2.139   0.942   5.695 -0.4272 -1.2592 -0.3352
22334SOL    HW271459   2.134   1.034   5.815  2.6746 -0.4547 -0.7373
22335SOL     OW71460  10.935   6.958   7.247  0.5884  0.1349 -0.5585
22335SOL    HW171461  10.867   6.953   7.180  0.7087 -2.5989 -0.5936
22335SOL    HW271462  11.016   6.942   7.200  0.7354 -1.2160  0.1128
22336SOL     OW71463  10.259   2.279   7.278 -0.2954  0.0798  0.1128
22336SOL    HW171464  10.309   2.233   7.210 -0.3252 -0.2670  0.3255
22336SOL    HW271465  10.315   2.275   7.355  1.2839  3.3179 -0.6641
22337SOL     OW71466   8.935   0.314   0.549  0.2313 -0.6582  0.2330
22337SOL    HW171467   8.986   0.319   0.630  0.9118  1.6145 -0.2880
22337SOL    HW271468   8.999   0.325   0.479 -0.8066  1.5582 -0.4538
22338SOL     OW71469   6.635   7.289   5.571 -0.7692  0.4720 -0.1924
22338SOL    HW171470   6.561   7.294   5.511 -1.3270 -0.3403  0.4098
22338SOL    HW271471   6.711   7.311   5.517 -1.3139  0.2108 -1.0873
22339SOL     OW71472   3.361   3.946   7.506 -0.2537 -0.3501  0.2968
22339SOL    HW171473   3.360   3.913   7.596 -1.3174  0.7287  0.7149
22339SOL    HW271474   3.279   3.914   7.468  0.8228 -1.9981 -0.7946
22340SOL     OW71475   9.133   7.084   1.923  0.4901  0.3469  0.1027
22340SOL    HW171476   9.117   7.041   2.007 -0.0857  1.1559  0.4282
22340SOL    HW271477   9.148   7.176   1.946  0.1843  0.6035 -0.6902
22341SOL     OW71478   2.665   4.872   3.389  0.3078  0.3172 -0.4936
22341SOL    HW171479   2.589   4.894   3.443 -0.6552  0.1933 -1.7656
22341SOL    HW271480   2.696   4.789   3.424  0.2237  0.6429  0.3981
22342SOL     OW71481   1.100   7.130  10.521  0.2485 -0.6179 -0.7904
22342SOL    HW171482   1.168   7.190  10.489 -0.2739  0.1037 -0.5791
22342SOL    HW271483   1.132   7.043  10.498  0.9868 -0.2546 -1.1795
22343SOL     OW71484   1.343   8.640   5.379 -0.0941 -0.1093 -0.3545
22343SOL    HW171485   1.375   8.656   5.468 -0.7965  1.3433 -0.3279
22343SOL    HW271486   1.411   8.677   5.322 -0.0841 -0.1867 -0.3922
22344SOL     OW71487   3.501   5.831   6.759 -0.1531  0.3122 -0.2290
22344SOL    HW171488   3.526   5.771   6.829 -0.5649  0.2628 -0.1230
22344SOL    HW271489   3.452   5.900   6.802 -1.5263 -0.3829 -0.6216
22345SOL     OW71490   9.834  10.779   7.769 -0.2636  0.1933 -0.2087
22345SOL    HW171491   9.850  10.867   7.801 -1.6990  0.4036  0.0162
22345SOL    HW271492   9.756  10.750   7.817  0.3497 -1.3124 -0.0615
22346SOL     OW71493   7.711   4.364   8.399 -0.0841 -0.4804  0.1324
22346SOL    HW171494   7.713   4.368   8.495 -0.9052 -1.2316  0.1986
22346SOL    HW271495   7.635   4.417   8.375 -0.8078 -1.5295  0.0138
22347SOL     OW71496   6.752   4.277   4.152  0.4913  0.6214  0.5325
22347SOL    HW171497   6.712   4.225   4.083 -0.1660  0.3789  1.0873
22347SOL    HW271498   6.822   4.221   4.186  0.4901  0.5377  0.3986
22348SOL     OW71499   0.739   0.264   8.236 -0.3553  0.4540 -0.5525
22348SOL    HW171500   0.783   0.218   8.165  0.2291  0.1889 -0.0345
22348SOL    HW271501   0.666   0.309   8.195  0.6910  1.3152 -1.5183
22349SOL     OW71502   3.604   6.388   9.614  0.6835  0.2672 -0.3145
22349SOL    HW171503   3.515   6.392   9.581  0.7512 -1.1028 -0.6925
22349SOL    HW271504   3.624   6.295   9.621  2.2474  0.5397 -0.6774
22350SOL     OW71505   2.185   9.689   8.755 -0.3627 -0.4156 -0.0342
22350SOL    HW171506   2.126   9.623   8.792 -0.1277  0.1320  1.3565
22350SOL    HW271507   2.273   9.654   8.770 -0.2248  0.2949  0.9325
22351SOL     OW71508   8.405   2.377   4.258  0.2051  0.2581  0.5787
22351SOL    HW171509   8.433   2.286   4.255  0.2863  0.3020 -0.1232
22351SOL    HW271510   8.471   2.424   4.207  0.1948  0.7190  0.9798
22352SOL     OW71511   4.301   7.444   4.102  0.1500 -0.2463 -0.0633
22352SOL    HW171512   4.229   7.492   4.061  0.9367  2.1326  1.1768
22352SOL    HW271513   4.360   7.422   4.030 -0.4214  0.2860 -0.7058
22353SOL     OW71514   3.442   1.082   1.343  0.1909 -0.0619  0.1616
22353SOL    HW171515   3.374   1.148   1.357  0.1857 -0.1541  0.5917
22353SOL    HW271516   3.524   1.125   1.365  0.4597  0.4999 -1.7308
22354SOL     OW71517   9.524   3.795  10.799 -0.1249 -0.0561  0.2614
22354SOL    HW171518   9.610   3.760  10.777  0.7855  0.5020  2.5518
22354SOL    HW271519   9.463   3.725  10.779  0.8870 -0.5934 -1.0752
22355SOL     OW71520   9.270   8.796   3.851 -0.1866 -0.3460 -0.2398
22355SOL    HW171521   9.215   8.723   3.880 -1.6127  0.3440 -1.0730
22355SOL    HW271522   9.280   8.782   3.757  4.1253 -2.3959  0.2921
22356SOL     OW71523   7.153   6.243   2.715  0.0200 -0.5517  0.0628
22356SOL    HW171524   7.162   6.325   2.668 -0.3888 -0.2842  0.4465
22356SOL    HW271525   7.211   6.182   2.669 -0.1641 -0.2214 -0.6116
22357SOL     OW71526   6.810   2.382  11.004  0.2292  0.6654  0.0056
22357SOL    HW171527   6.793   2.359  11.096  1.6386 -0.4152  0.0256
22357SOL    HW271528   6.728   2.362  10.959  0.4267 -1.7081  0.5504
22358SOL     OW71529   9.638   5.920   0.023  0.1171 -0.2978  0.3240
22358SOL    HW171530   9.554   5.909  -0.021  0.8445 -2.5651 -0.6218
22358SOL    HW271531   9.693   5.849  -0.010  2.0038  0.3232  1.8988
22359SOL     OW71532   7.456   2.648   8.678  0.4435 -0.3455 -0.4393
22359SOL    HW171533   7.545   2.634   8.712  0.2966  0.7160  0.4841
22359SOL    HW271534   7.405   2.575   8.712  0.4367  0.3856  1.2328
22360SOL     OW71535   2.693   8.624   2.056 -0.0940 -0.3315 -0.1705
22360SOL    HW171536   2.714   8.713   2.029 -4.8429  0.6093 -1.6237
22360SOL    HW271537   2.719   8.620   2.148  1.4166  2.0770 -0.4120
22361SOL     OW71538   9.190   3.812   6.582  0.2552  0.1445 -0.1363
22361SOL    HW171539   9.167   3.857   6.500 -0.6483 -0.5043 -0.2488
22361SOL    HW271540   9.264   3.756   6.559  0.2387  0.2391 -0.4189
22362SOL     OW71541   9.064   1.756   1.199 -0.9702  0.8282  0.3283
22362SOL    HW171542   8.988   1.697   1.198 -0.2558 -0.1284 -0.6174
22362SOL    HW271543   9.060   1.799   1.284 -2.5754  0.8074  0.2945
22363SOL     OW71544   8.200   8.645   6.673  0.1792  0.0963 -0.0262
22363SOL    HW171545   8.115   8.675   6.706 -0.4889 -0.3339 -1.2728
22363SOL    HW271546   8.246   8.725   6.649 -0.1724  0.3038 -0.0106
22364SOL     OW71547   4.972   0.446   3.555  0.7177 -0.4111  0.1045
22364SOL    HW171548   5.029   0.510   3.513  1.2633 -1.5514 -0.9875
22364SOL    HW271549   5.030   0.398   3.615  0.2863  0.1947  1.0153
22365SOL     OW71550  10.884   7.732   0.999  0.3351 -0.2192 -0.2909
22365SOL    HW171551  10.973   7.732   1.033 -0.1771 -2.1196  1.2735
22365SOL    HW271552  10.887   7.674   0.923  0.2478 -1.2266  0.4505
22366SOL     OW71553  10.818   4.445   0.253 -0.0874  0.2776 -0.0597
22366SOL    HW171554  10.884   4.397   0.204 -0.7131  0.1323 -0.7875
22366SOL    HW271555  10.744   4.384   0.260  0.3757 -0.1266  2.0596
22367SOL     OW71556   6.522   1.317   0.217 -0.0126 -0.1364 -0.1970
22367SOL    HW171557   6.436   1.334   0.180 -0.3524  1.0607  1.0366
22367SOL    HW271558   6.522   1.224   0.239 -0.2414 -0.5830 -2.0054
22368SOL     OW71559   5.985   4.871   6.556 -0.0299  0.1328  0.4409
22368SOL    HW171560   5.954   4.958   6.531  2.3971  1.0684  0.3384
22368SOL    HW271561   5.926   4.842   6.625 -1.3357  1.5246 -0.0541
22369SOL     OW71562   8.922   4.192   7.281  0.1419 -0.2770  0.1859
22369SOL    HW171563   8.954   4.151   7.361 -0.5168 -0.1760  0.5092
22369SOL    HW271564   8.859   4.257   7.312 -1.0915 -1.1250 -0.4794
22370SOL     OW71565   3.181   0.294  11.070  0.2138 -0.3034  0.1690
22370SOL    HW171566   3.252   0.324  11.127 -0.4951 -0.0859  0.9493
22370SOL    HW271567   3.226   0.266  10.990  1.4532 -2.6918  1.5899
22371SOL     OW71568   7.228   8.771   9.811 -0.0667 -0.2252  0.6276
22371SOL    HW171569   7.243   8.802   9.900  1.1755  0.5731  0.1579
22371SOL    HW271570   7.310   8.788   9.765 -0.1710 -1.9824 -0.3009
22372SOL     OW71571   8.846   8.321   6.209  0.3811  0.1016 -0.2553
22372SOL    HW171572   8.877   8.266   6.281  2.4119  0.2734 -0.9472
22372SOL    HW271573   8.831   8.260   6.137 -1.6745 -0.0733  0.2462
22373SOL     OW71574   6.720   4.699   6.034  0.3129  0.2262 -0.1569
22373SOL    HW171575   6.625   4.698   6.019  0.1611  0.0977  0.7302
22373SOL    HW271576   6.729   4.729   6.125  1.0414 -1.1318  0.2522
22374SOL     OW71577   4.156   3.985   6.765 -0.0789  0.7255 -0.1103
22374SOL    HW171578   4.216   4.051   6.728 -1.2987  1.4683 -0.8114
22374SOL    HW271579   4.118   3.942   6.688 -0.5403  0.3357  0.3337
22375SOL     OW71580   6.471   5.485   4.942 -0.0624  0.0583  0.1010
22375SOL    HW171581   6.566   5.482   4.929 -0.1422  0.0509 -0.5085
22375SOL    HW271582   6.437   5.519   4.860 -0.5635  0.4146  0.4518
22376SOL     OW71583   3.086   0.081   0.178 -0.1581  0.5753 -0.4847
22376SOL    HW171584   3.024   0.150   0.200  0.6245  1.2122 -0.2676
22376SOL    HW271585   3.110   0.098   0.087 -0.0138  0.5436 -0.4525
22377SOL     OW71586   7.937   2.764   1.425 -0.4615 -0.6521 -0.3530
22377SOL    HW171587   7.879   2.836   1.402 -0.6769 -0.8919 -0.5581
22377SOL    HW271588   7.959   2.780   1.517  0.3819  0.2984 -0.6893
22378SOL     OW71589   7.254   7.990   3.595  0.3162  0.1368  0.3930
22378SOL    HW171590   7.347   8.015   3.588  0.2511  0.4871  0.7315
22378SOL    HW271591   7.228   7.971   3.506  0.2922  1.5778  0.0633
22379SOL     OW71592   9.917   1.876  10.480 -0.1195 -0.0745  0.0789
22379SOL    HW171593   9.854   1.857  10.410  2.5047  0.1770 -2.5266
22379SOL    HW271594   9.930   1.971  10.475  1.0149 -0.2177  0.0322
22380SOL     OW71595   9.646   6.771   1.026 -0.3174  0.1028  0.5558
22380SOL    HW171596   9.644   6.861   1.060 -0.2739  0.7208 -1.0074
22380SOL    HW271597   9.730   6.736   1.056  1.0796  1.6349 -1.3027
22381SOL     OW71598   4.537   8.777   2.618 -0.3943  0.0994 -0.1236
22381SOL    HW171599   4.466   8.713   2.623  0.3125 -0.6850  0.0242
22381SOL    HW271600   4.557   8.784   2.525 -0.5025  0.1419 -0.1437
22382SOL     OW71601   7.493   4.075  10.462 -0.4029  0.5476 -0.4250
22382SOL    HW171602   7.552   4.008  10.429 -2.4681 -1.0496 -1.0713
22382SOL    HW271603   7.472   4.128  10.385 -0.8502  0.2611 -0.5073
22383SOL     OW71604   7.304   8.491   1.031  0.3958 -0.1055 -0.4073
22383SOL    HW171605   7.217   8.530   1.038  0.0388 -0.8637 -0.4811
22383SOL    HW271606   7.305   8.422   1.097  0.6173 -0.6874 -1.0016
22384SOL     OW71607   3.013   8.112   4.749  0.5196 -0.4544 -0.2537
22384SOL    HW171608   3.082   8.146   4.692  0.0559  1.5040  0.2557
22384SOL    HW271609   3.057   8.089   4.830  0.9643 -1.9021 -0.8764
22385SOL     OW71610   3.707   9.025   2.796  0.2951  0.7899 -0.2086
22385SOL    HW171611   3.704   9.007   2.890  0.4632 -0.4074 -0.4215
22385SOL    HW271612   3.736   8.943   2.756  0.7597  1.4472 -1.2663
22386SOL     OW71613  10.949  10.450   5.072 -0.1753  0.2104 -0.3068
22386SOL    HW171614  10.918  10.536   5.098  0.6024  1.1056 -2.1064
22386SOL    HW271615  10.886  10.420   5.007 -0.0817 -0.2858 -0.1729
22387SOL     OW71616   3.680   0.769  10.660  0.0703  0.2120  0.3432
22387SOL    HW171617   3.604   0.797  10.711  0.5843  1.2679  0.5469
22387SOL    HW271618   3.726   0.850  10.638  1.3965 -0.4409  0.6133
22388SOL     OW71619   3.709   5.750   8.156 -0.3747  0.1178  0.0966
22388SOL    HW171620   3.781   5.736   8.217 -1.6532 -0.7517  1.4924
22388SOL    HW271621   3.730   5.833   8.112  0.6014  0.7781  1.7180
22389SOL     OW71622   2.032   6.525   8.291  0.0761 -0.0723 -0.1743
22389SOL    HW171623   2.113   6.563   8.327 -0.0686 -1.0964  1.2734
22389SOL    HW271624   1.964   6.589   8.311 -0.0260 -0.6764  1.5580
22390SOL     OW71625   4.986   7.275   7.586  0.1736  0.6809  0.0907
22390SOL    HW171626   4.982   7.317   7.500  0.1556  3.6987  1.4425
22390SOL    HW271627   5.038   7.334   7.639 -2.6364  0.7560  3.0908
22391SOL     OW71628   3.317  11.038   8.261 -0.1584 -0.0074 -0.0983
22391SOL    HW171629   3.267  11.114   8.231 -0.7339 -0.1986  0.3420
22391SOL    HW271630   3.373  11.015   8.188 -1.7444 -0.6596 -1.1601
22392SOL     OW71631   3.439   1.367   6.063 -0.2502 -0.2402  0.2695
22392SOL    HW171632   3.457   1.403   6.150 -1.0655  1.9895 -0.4093
22392SOL    HW271633   3.435   1.273   6.076 -0.5586  0.0522  2.6868
22393SOL     OW71634   7.640   8.725  10.470  0.8012 -0.1306  0.2944
22393SOL    HW171635   7.631   8.808  10.518 -0.2485  0.4201 -0.8051
22393SOL    HW271636   7.707   8.742  10.404 -2.1100  1.2402 -2.5874
22394SOL     OW71637   4.024   4.371  10.122 -0.5458 -0.2702  0.3069
22394SOL    HW171638   4.107   4.397  10.162 -0.1882  1.2225 -1.2825
22394SOL    HW271639   4.031   4.275  10.114  0.5681 -0.2817  1.1504
22395SOL     OW71640   7.504   7.504   4.087  0.6412 -0.3786 -0.0235
22395SOL    HW171641   7.567   7.551   4.032  0.5788  0.0271  0.2482
22395SOL    HW271642   7.498   7.556   4.167  1.0731 -1.2082  0.5637
22396SOL     OW71643   1.818  10.221   1.845  0.5367 -0.1763  0.2112
22396SOL    HW171644   1.801  10.130   1.821  2.8773 -0.8243  0.7676
22396SOL    HW271645   1.858  10.259   1.767  0.4036  0.1277  0.2898
22397SOL     OW71646   8.449   1.601   1.799  0.7740  0.4346 -0.8148
22397SOL    HW171647   8.523   1.609   1.859 -0.2919  0.2427  0.5639
22397SOL    HW271648   8.373   1.625   1.851 -0.6396 -2.9865 -1.0577
22398SOL     OW71649   9.197   1.040   9.956 -0.4539 -0.1160 -0.2322
22398SOL    HW171650   9.154   0.988   9.888 -1.4952  1.3419 -0.7414
22398SOL    HW271651   9.165   1.003  10.039 -2.4925  0.6818 -0.5889
22399SOL     OW71652  10.284   7.859   2.083 -0.0827  0.2520  0.4555
22399SOL    HW171653  10.310   7.871   2.174 -1.1716 -0.6196  0.9055
22399SOL    HW271654  10.336   7.785   2.052 -1.2330 -0.8282  1.0391
22400SOL     OW71655   1.982   8.443   9.759  0.2911  0.0416  0.3353
22400SOL    HW171656   1.928   8.365   9.776 -2.0766  1.3747 -0.5128
22400SOL    HW271657   1.991   8.445   9.664  0.8643  0.4999  0.3950
22401SOL     OW71658   9.100   5.616  10.228  0.4505  0.3305 -0.4649
22401SOL    HW171659   9.142   5.694  10.265 -0.5017  0.3570  0.5954
22401SOL    HW271660   9.120   5.621  10.134  1.6643  1.0501 -0.1976
22402SOL     OW71661   3.066   2.583   1.405 -0.0715  0.0993  0.2513
22402SOL    HW171662   3.013   2.560   1.329  1.1134  0.0276 -0.5707
22402SOL    HW271663   3.142   2.526   1.400 -0.0518 -0.0153  1.5895
22403SOL     OW71664   5.867   2.763   6.152 -0.1659 -0.8461 -0.5181
22403SOL    HW171665   5.876   2.858   6.142 -1.7925 -0.4732  0.8903
22403SOL    HW271666   5.824   2.734   6.072 -0.5545 -0.2221 -0.5403
22404SOL     OW71667   8.078   2.526   3.875  0.5151 -0.2203 -0.4041
22404SOL    HW171668   8.074   2.499   3.783  0.3352 -1.3901 -0.0692
22404SOL    HW271669   8.164   2.497   3.905  1.0485  1.2033 -0.5007
22405SOL     OW71670   9.620   9.710   6.322 -0.3383 -0.1278 -0.2112
22405SOL    HW171671   9.611   9.642   6.254 -1.6421  0.3406 -0.5238
22405SOL    HW271672   9.534   9.716   6.362 -0.2373  1.3561 -0.1861
22406SOL     OW71673   5.390   1.339   0.228 -0.0398 -0.0291 -0.1192
22406SOL    HW171674   5.375   1.269   0.291  1.2001  1.3893  1.8560
22406SOL    HW271675   5.318   1.400   0.242 -0.0854  0.0026 -0.4895
22407SOL     OW71676   2.897  10.289   3.986  1.2326  0.7259 -0.1531
22407SOL    HW171677   2.967  10.338   3.942  1.3962  0.7124  0.0886
22407SOL    HW271678   2.838  10.356   4.020  0.9122  0.7281 -0.7039
22408SOL     OW71679   3.100   2.624   0.215  0.1695 -0.1489  1.0536
22408SOL    HW171680   3.064   2.564   0.280  1.1714 -1.1682  0.7068
22408SOL    HW271681   3.117   2.569   0.138 -1.6750  1.1641 -0.3755
22409SOL     OW71682   1.504  10.724   2.150 -0.4280  0.0002  0.3827
22409SOL    HW171683   1.547  10.810   2.154  1.6946 -0.9004 -1.4821
22409SOL    HW271684   1.574  10.663   2.130 -1.6066 -2.4778  3.1347
22410SOL     OW71685  10.641   9.915   2.020 -0.7381  0.2572  0.7514
22410SOL    HW171686  10.727   9.890   2.054 -0.3421 -0.2171 -0.5242
22410SOL    HW271687  10.631   9.864   1.940 -0.6764  2.8538 -1.0345
22411SOL     OW71688   9.650   3.131   6.809  0.3504 -0.1542  0.1790
22411SOL    HW171689   9.612   3.067   6.868 -0.1861 -0.6212 -0.6476
22411SOL    HW271690   9.575   3.170   6.764  0.7555 -0.0676 -0.4441
22412SOL     OW71691   3.775   4.030   0.143 -0.2817 -0.1951  0.3914
22412SOL    HW171692   3.775   4.123   0.164  0.5482 -0.0060 -0.3949
22412SOL    HW271693   3.748   4.026   0.051  1.3613 -0.5654 -0.1156
22413SOL     OW71694   2.879  10.872   3.040 -0.2501  0.0211  0.1641
22413SOL    HW171695   2.860  10.861   3.133 -1.3862  0.4556 -0.0039
22413SOL    HW271696   2.959  10.821   3.026 -0.0421 -0.0195  1.3789
22414SOL     OW71697   5.930   5.220  10.156  0.2555  0.2337  0.1768
22414SOL    HW171698   5.933   5.304  10.201  1.7621  0.7648 -0.8154
22414SOL    HW271699   5.857   5.227  10.095 -0.2844  0.4198  0.8408
22415SOL     OW71700   6.047   7.650   3.836  0.1914  0.4515  0.2275
22415SOL    HW171701   6.107   7.705   3.886 -2.8706  1.3309  3.3355
22415SOL    HW271702   6.007   7.592   3.901 -0.9883 -1.3726 -1.9762
22416SOL     OW71703  11.040   0.463   0.441  0.5148 -0.4491  0.2168
22416SOL    HW171704  11.013   0.554   0.433 -0.5123 -0.7175  0.5556
22416SOL    HW271705  11.047   0.449   0.535 -0.0798 -0.9325  0.1912
22417SOL     OW71706   4.730  11.063   0.338 -0.0146  0.2318 -0.7212
22417SOL    HW171707   4.665  11.128   0.363 -0.2000 -0.2287  0.0208
22417SOL    HW271708   4.814  11.109   0.344 -0.0540  0.1495  0.7263
22418SOL     OW71709  10.944   4.560   7.758  0.4168 -0.6443  0.5691
22418SOL    HW171710  11.020   4.557   7.817  0.5662 -0.9284  0.3661
22418SOL    HW271711  10.960   4.490   7.695  0.2843 -0.2999  0.1534
22419SOL     OW71712   3.241   0.098   5.748  0.4523  0.1087 -0.1199
22419SOL    HW171713   3.251   0.037   5.822  1.9406  0.1829 -0.2214
22419SOL    HW271714   3.188   0.170   5.783 -1.0836 -1.0847  0.0808
22420SOL     OW71715   4.831   8.054   7.800  0.2518  0.0828  0.4389
22420SOL    HW171716   4.900   8.043   7.865 -0.1148 -0.6577  0.7167
22420SOL    HW271717   4.759   8.093   7.849  0.7575  1.6721 -0.0426
22421SOL     OW71718   0.664   8.518   8.873  0.2045  0.0252  0.8696
22421SOL    HW171719   0.648   8.531   8.779 -1.2357 -1.0361  0.9466
22421SOL    HW271720   0.610   8.585   8.915  0.4175  0.1333  0.9749
22422SOL     OW71721   9.305   0.659   1.377  0.1885  0.4400  0.5951
22422SOL    HW171722   9.242   0.598   1.340 -0.1051  0.5078  0.9706
22422SOL    HW271723   9.276   0.671   1.468  0.8715  0.2975  0.8390
22423SOL     OW71724  10.157   7.197   4.782  0.4671 -0.0642  0.4280
22423SOL    HW171725  10.226   7.264   4.786 -0.7345  1.1300  3.0039
22423SOL    HW271726  10.090   7.227   4.844 -1.2440 -2.4516 -0.1314
22424SOL     OW71727   2.732   5.254   4.160  0.2545  0.5445  0.5436
22424SOL    HW171728   2.769   5.170   4.188  0.0816 -0.0780 -1.0043
22424SOL    HW271729   2.802   5.317   4.176  0.9519 -0.1547  0.3292
22425SOL     OW71730   8.885  10.758   4.026 -0.0421  0.1555  0.4885
22425SOL    HW171731   8.960  10.770   3.967 -1.0728  0.0455 -0.9046
22425SOL    HW271732   8.837  10.684   3.988 -0.2966 -0.4877  1.9810
22426SOL     OW71733   3.062  10.434   7.515 -0.1089  0.0706  0.1981
22426SOL    HW171734   3.003  10.464   7.584  0.4386 -1.2649  1.2944
22426SOL    HW271735   3.012  10.443   7.434 -0.9428  1.2051  0.8148
22427SOL     OW71736   8.687   4.592   8.869  0.6392 -0.2836  0.4418
22427SOL    HW171737   8.640   4.513   8.893  0.6947 -0.1965  0.8327
22427SOL    HW271738   8.753   4.603   8.937  1.1365 -0.3286 -0.0269
22428SOL     OW71739  10.902   9.283   8.859 -0.6922  0.3430 -0.2179
22428SOL    HW171740  10.913   9.239   8.775  0.2388 -0.3232  0.2334
22428SOL    HW271741  10.902   9.212   8.923 -1.6299  0.8244  0.3326
22429SOL     OW71742   2.526   3.677   9.070  0.4931 -0.2007 -0.3274
22429SOL    HW171743   2.499   3.594   9.108 -0.2811 -0.1649 -0.7755
22429SOL    HW271744   2.445   3.728   9.063 -0.3995 -1.7120 -5.7690
22430SOL     OW71745   3.936   1.114   7.130  0.0372  0.4460 -0.2106
22430SOL    HW171746   3.896   1.072   7.054  0.2713 -2.1568  0.9939
22430SOL    HW271747   3.863   1.158   7.174 -0.3748  0.7323 -1.1583
22431SOL     OW71748   2.551   0.878   4.562 -0.7722  0.1889  0.1634
22431SOL    HW171749   2.627   0.880   4.620 -0.4508 -0.2735 -0.2354
22431SOL    HW271750   2.532   0.785   4.550 -1.3292  0.2963  0.1622
22432SOL     OW71751   5.168  10.308   9.476  0.4161 -0.0882  0.5835
22432SOL    HW171752   5.075  10.288   9.470  0.3812  0.5011 -1.7497
22432SOL    HW271753   5.172  10.392   9.523 -0.3634  0.6138 -0.5619
22433SOL     OW71754   1.885   8.517   4.202 -0.1877 -0.2264 -0.0076
22433SOL    HW171755   1.838   8.435   4.218 -0.0459 -0.6555 -1.6599
22433SOL    HW271756   1.958   8.514   4.265 -0.9339 -0.7130  0.8679
22434SOL     OW71757   2.720   7.012   7.979  0.2371  0.6630  0.0692
22434SOL    HW171758   2.633   6.972   7.980  0.5718 -0.1401 -0.7822
22434SOL    HW271759   2.772   6.958   8.039  0.9021 -0.7572 -1.6976
22435SOL     OW71760   6.383   8.993   5.594  0.1236 -0.0269  0.2966
22435SOL    HW171761   6.434   8.913   5.608  0.3434  0.1716  0.6408
22435SOL    HW271762   6.313   8.967   5.534  0.1351 -0.5009  0.4900
22436SOL     OW71763   6.622   3.798   5.472  0.4097  0.0487 -0.3925
22436SOL    HW171764   6.558   3.742   5.516 -0.0056  0.4407 -0.4855
22436SOL    HW271765   6.661   3.741   5.405  0.1613 -0.1999 -0.3316
22437SOL     OW71766  10.348   4.381   2.333 -0.3544 -0.3553 -0.0653
22437SOL    HW171767  10.261   4.420   2.326 -0.4506 -0.4518  0.5286
22437SOL    HW271768  10.344   4.303   2.277 -0.7650 -0.5578  0.2431
22438SOL     OW71769   0.779   2.659   0.150 -0.2942  0.1100 -0.3678
22438SOL    HW171770   0.725   2.591   0.190 -1.2751  0.4233 -1.1454
22438SOL    HW271771   0.782   2.729   0.215  1.9472 -1.1940  1.0913
22439SOL     OW71772   7.170   2.763   2.200  0.1448  0.0927 -0.0730
22439SOL    HW171773   7.090   2.808   2.227 -0.7881 -2.0820  1.0264
22439SOL    HW271774   7.141   2.674   2.178  1.7786  0.1345 -2.8325
22440SOL     OW71775   3.411   6.555   6.280  0.3697  0.0923 -0.0343
22440SOL    HW171776   3.460   6.475   6.299  2.9256  1.0872 -1.8727
22440SOL    HW271777   3.470   6.626   6.304 -0.4134  1.3849 -1.6985
22441SOL     OW71778   7.691   8.750   0.170 -0.0913  0.2290  0.0272
22441SOL    HW171779   7.744   8.710   0.102 -2.6228 -0.7463 -1.5128
22441SOL    HW271780   7.712   8.701   0.249 -0.1834 -1.4995 -0.9831
22442SOL     OW71781  10.923   3.326   4.892 -0.5939 -0.2894  0.3719
22442SOL    HW171782  10.835   3.291   4.903 -0.6296  0.0775  1.4254
22442SOL    HW271783  10.910   3.421   4.885 -0.4210 -0.3649 -1.4498
22443SOL     OW71784   4.621   3.397   2.430 -0.0220  0.0272  0.1546
22443SOL    HW171785   4.539   3.434   2.397  0.2075  0.4837  0.0847
22443SOL    HW271786   4.680   3.398   2.355 -0.9940 -3.6938 -0.8792
22444SOL     OW71787   0.381   5.062   5.621 -0.1957 -0.2643 -1.1502
22444SOL    HW171788   0.471   5.033   5.618 -0.5137 -1.3072 -0.9395
22444SOL    HW271789   0.364   5.100   5.535  0.5594  0.3282 -1.0441
22445SOL     OW71790   4.123   0.383   6.399  0.2211  0.0270  0.1122
22445SOL    HW171791   4.178   0.316   6.358  0.0520  1.0192 -1.8806
22445SOL    HW271792   4.035   0.366   6.366 -0.1934  0.0631  1.1563
22446SOL     OW71793   7.914   8.540   1.337  0.7963 -0.2596  0.4208
22446SOL    HW171794   7.868   8.578   1.412 -0.5049  2.4565 -1.5843
22446SOL    HW271795   7.983   8.486   1.376 -0.4416  0.2071  3.5396
22447SOL     OW71796   9.781   1.620   8.152  0.1122 -0.2095 -0.4477
22447SOL    HW171797   9.863   1.627   8.202  0.5221 -3.2553 -0.5450
22447SOL    HW271798   9.806   1.644   8.062  0.7922 -0.6751 -0.3908
22448SOL     OW71799   0.863   6.844   5.357 -0.5930 -0.8285 -0.3552
22448SOL    HW171800   0.842   6.931   5.323 -3.0219 -0.7606  1.0802
22448SOL    HW271801   0.807   6.834   5.434 -0.7794 -3.8562 -0.7562
22449SOL     OW71802  10.402   5.959   6.326 -0.4022  0.0853 -0.0396
22449SOL    HW171803  10.465   6.011   6.377 -0.4565  0.6415 -0.5198
22449SOL    HW271804  10.384   6.014   6.250  0.3722 -1.1203 -1.1174
22450SOL     OW71805   1.074   4.524   6.748 -0.0085 -0.3453 -0.1869
22450SOL    HW171806   1.048   4.432   6.755  1.9737 -0.9910 -0.5727
22450SOL    HW271807   1.050   4.550   6.659  1.6703 -1.3029 -0.9701
22451SOL     OW71808   2.342   5.501   5.997  0.2363  0.5716 -0.1110
22451SOL    HW171809   2.307   5.424   5.952 -0.5128  0.7411  0.1701
22451SOL    HW271810   2.408   5.466   6.057  0.9838  0.3068 -1.0607
22452SOL     OW71811   2.629   4.797   5.088 -0.0502  0.1558  0.0327
22452SOL    HW171812   2.641   4.851   5.010  1.3716 -0.5031 -0.2404
22452SOL    HW271813   2.634   4.859   5.161 -2.9251  1.0126 -0.3849
22453SOL     OW71814  10.112   7.704   8.199 -0.0140  0.7560 -0.6320
22453SOL    HW171815  10.082   7.668   8.283  0.6409  1.3282 -0.1377
22453SOL    HW271816  10.065   7.787   8.191  0.9691  1.3798 -0.1309
22454SOL     OW71817   8.673   7.368   0.999  0.2303  0.1314  0.0699
22454SOL    HW171818   8.611   7.436   1.024  0.0839 -0.2282  0.6996
22454SOL    HW271819   8.734   7.362   1.072  1.0048  0.4650 -0.5274
22455SOL     OW71820   6.600  10.551   3.143 -0.0182  0.3363 -0.6278
22455SOL    HW171821   6.611  10.635   3.187 -1.7540  0.2408  0.0651
22455SOL    HW271822   6.606  10.486   3.212  0.9523 -0.1080 -1.1085
22456SOL     OW71823   9.452  10.302   5.816  0.2638 -0.1997 -0.5976
22456SOL    HW171824   9.501  10.277   5.738  0.4965 -0.4281 -0.3813
22456SOL    HW271825   9.423  10.392   5.799  0.8243 -0.0371 -0.6945
22457SOL     OW71826   7.209   0.017   8.557  0.0429  0.0881  0.0693
22457SOL    HW171827   7.281   0.077   8.538  1.3473 -1.5401 -0.4214
22457SOL    HW271828   7.136   0.074   8.580  0.6484  1.9439 -2.1187
22458SOL     OW71829   0.192   4.136   6.049  0.0679 -0.2020 -0.0615
22458SOL    HW171830   0.132   4.127   6.123  0.4939  0.7651  0.4277
22458SOL    HW271831   0.275   4.101   6.082  0.1709 -0.0842 -0.1937
22459SOL     OW71832   6.588   1.105   9.610  0.3991  0.5023  0.3807
22459SOL    HW171833   6.625   1.030   9.656 -0.8055 -0.7703 -0.6313
22459SOL    HW271834   6.636   1.109   9.527  0.8197  1.1921  0.6532
22460SOL     OW71835   0.617   8.524   9.248 -0.0279 -0.4673  0.0987
22460SOL    HW171836   0.550   8.592   9.237  0.7370  0.4471  0.9319
22460SOL    HW271837   0.622   8.511   9.343  1.3335 -0.1497  0.0850
22461SOL     OW71838   9.735   2.326   3.104 -0.0171  0.5776  0.0263
22461SOL    HW171839   9.722   2.401   3.162 -2.4888 -0.5002  1.0065
22461SOL    HW271840   9.776   2.260   3.160  0.5380  0.5929 -0.3530
22462SOL     OW71841   8.007   0.046   8.539 -0.4928 -0.3036 -0.0814
22462SOL    HW171842   8.023  -0.006   8.618 -1.4155 -0.2933  0.1160
22462SOL    HW271843   7.920   0.019   8.510 -1.3825  1.7290  0.5091
22463SOL     OW71844   1.305  10.253   5.573 -0.6719  0.0357 -0.0272
22463SOL    HW171845   1.281  10.281   5.485 -1.7888  2.4869  0.9535
22463SOL    HW271846   1.222  10.229   5.614 -0.1281 -1.3627  0.3120
22464SOL     OW71847   7.926   5.519   8.321 -0.3750  0.0736 -0.2335
22464SOL    HW171848   7.882   5.476   8.248 -0.5967  0.3839 -0.2869
22464SOL    HW271849   7.855   5.562   8.370 -0.4135 -1.2726  0.9571
22465SOL     OW71850   6.891   3.500   6.564  0.6620 -0.4414  0.0262
22465SOL    HW171851   6.912   3.506   6.471 -0.3149 -0.3239 -0.1922
22465SOL    HW271852   6.798   3.478   6.567  0.2057  1.3706  0.9616
22466SOL     OW71853   6.230   5.175  10.706  0.3293  0.5653  0.0162
22466SOL    HW171854   6.309   5.222  10.733  1.9199 -0.8579 -1.8233
22466SOL    HW271855   6.257   5.083  10.703 -1.4250  0.0318 -0.5887
22467SOL     OW71856   1.701   4.610   4.968 -0.8824  0.0730 -0.0514
22467SOL    HW171857   1.715   4.541   4.903 -2.1826  0.6118 -0.9627
22467SOL    HW271858   1.606   4.624   4.967 -0.7669  1.0258  0.9952
22468SOL     OW71859   1.559   0.387   2.481 -0.1325  0.4453  0.3817
22468SOL    HW171860   1.549   0.329   2.405  2.0865  0.7549 -0.2143
22468SOL    HW271861   1.596   0.332   2.549 -0.9872  0.4592  0.8787
22469SOL     OW71862   3.135   5.629   1.807  0.1554 -0.0750  0.2400
22469SOL    HW171863   3.137   5.539   1.775 -0.2672 -0.1562  0.4317
22469SOL    HW271864   3.072   5.673   1.749  0.7955  0.2456 -0.2229
22470SOL     OW71865   9.012   8.030  10.092 -0.0223 -0.3778 -0.3987
22470SOL    HW171866   9.034   7.965  10.159 -0.4350  0.2289  0.3244
22470SOL    HW271867   8.991   7.977  10.015 -0.4511 -1.1123  0.2066
22471SOL     OW71868   8.169   7.897   9.438  0.6334  0.2365 -0.6343
22471SOL    HW171869   8.151   7.945   9.356 -1.4667 -1.9387 -1.5886
22471SOL    HW271870   8.177   7.806   9.410 -0.5331 -0.6192  1.6125
22472SOL     OW71871   8.386   4.367   8.119  0.5508  0.0930 -0.6197
22472SOL    HW171872   8.403   4.341   8.210  2.3901 -1.7362 -1.4268
22472SOL    HW271873   8.467   4.410   8.091 -0.2363  1.2198 -1.2538
22473SOL     OW71874   7.699   9.112   9.150 -0.1381 -0.1926 -0.2655
22473SOL    HW171875   7.634   9.064   9.098  0.4239 -0.4653 -0.7234
22473SOL    HW271876   7.781   9.067   9.133  0.5410  1.3555 -1.2536
22474SOL     OW71877   4.267   7.729   2.294 -0.6393 -0.8044 -0.3819
22474SOL    HW171878   4.357   7.734   2.324 -0.4629  1.8545 -1.0525
22474SOL    HW271879   4.273   7.696   2.204 -0.3493 -0.8281 -0.3531
22475SOL     OW71880   6.603   1.340   8.902  0.1285 -0.1268 -0.0479
22475SOL    HW171881   6.577   1.321   8.992  1.1196 -2.8504 -0.2156
22475SOL    HW271882   6.698   1.335   8.903  0.2054  0.8122 -1.0701
22476SOL     OW71883   0.123   6.306  10.434 -0.1096 -0.2284 -0.2408
22476SOL    HW171884   0.183   6.230  10.434 -0.5849 -0.6198 -1.1388
22476SOL    HW271885   0.167   6.370  10.378 -0.0246 -0.0923 -0.0199
22477SOL     OW71886   9.858   0.639   7.428  0.4534 -0.5600 -0.1875
22477SOL    HW171887   9.878   0.711   7.488  2.5832 -0.9018 -0.4070
22477SOL    HW271888   9.908   0.565   7.462 -1.7061 -2.0076  0.0447
22478SOL     OW71889   2.546   1.849   3.511 -0.0162 -0.1056  0.2751
22478SOL    HW171890   2.530   1.938   3.544 -1.6195 -0.3480  0.2012
22478SOL    HW271891   2.513   1.850   3.421 -2.4028 -1.4289  1.0648
22479SOL     OW71892   0.657   1.936   3.235 -0.1107 -0.5626 -0.4714
22479SOL    HW171893   0.681   1.894   3.317 -1.5827 -1.2211 -0.3381
22479SOL    HW271894   0.722   1.906   3.172  0.6422 -0.5842  0.2950
22480SOL     OW71895   1.520   2.529   6.338  0.3906 -0.0757 -0.0930
22480SOL    HW171896   1.555   2.607   6.296 -0.6171  0.7716  0.5959
22480SOL    HW271897   1.426   2.545   6.345  0.2265 -1.1732  0.4153
22481SOL     OW71898   7.293   2.285   0.683 -0.0988  0.0016 -0.1772
22481SOL    HW171899   7.228   2.269   0.751  0.2043  1.0049  0.3691
22481SOL    HW271900   7.364   2.329   0.728 -0.5191  2.0339 -1.3771
22482SOL     OW71901   7.701   9.095   9.659 -0.6020 -0.4433 -0.2167
22482SOL    HW171902   7.681   9.144   9.579  1.0819  0.5374 -0.0832
22482SOL    HW271903   7.735   9.011   9.629  0.7816  0.2197 -0.6052
22483SOL     OW71904  10.286   5.320   8.825 -0.3463  0.1309  0.3130
22483SOL    HW171905  10.225   5.246   8.832  0.8842 -0.8461  1.0119
22483SOL    HW271906  10.231   5.397   8.842 -1.3650 -0.7328  1.1222
22484SOL     OW71907   8.686   1.262   7.757 -0.6708  0.0703 -0.6121
22484SOL    HW171908   8.600   1.241   7.720 -1.7174  2.3629  0.3327
22484SOL    HW271909   8.672   1.342   7.808  2.1962  1.0385 -1.1191
22485SOL     OW71910   0.239   0.670   7.505  0.3725  0.9365  0.5629
22485SOL    HW171911   0.169   0.622   7.550  0.4613  1.2117  0.9988
22485SOL    HW271912   0.320   0.629   7.536  0.3908 -0.4353 -1.1253
22486SOL     OW71913   9.930  10.735   0.483 -0.1021  0.3588  0.1524
22486SOL    HW171914   9.944  10.687   0.401  0.0720 -0.2953  0.5594
22486SOL    HW271915   9.926  10.667   0.550 -2.8406  0.6264  0.3866
22487SOL     OW71916   8.753   6.127   0.106  0.1592  0.6062  0.1196
22487SOL    HW171917   8.754   6.128   0.201 -1.1175 -0.0095  0.1702
22487SOL    HW271918   8.774   6.037   0.082 -0.9024  0.4009 -0.1131
22488SOL     OW71919   3.640  10.088   8.798  0.8609 -0.1095 -0.2487
22488SOL    HW171920   3.672  10.153   8.860  1.9416 -0.5068 -0.3709
22488SOL    HW271921   3.612  10.139   8.722 -1.3425  0.4688  0.8559
22489SOL     OW71922   0.651   7.071   3.687  0.6415  0.4513  0.8147
22489SOL    HW171923   0.559   7.092   3.706  0.7248  0.4374  1.2238
22489SOL    HW271924   0.693   7.065   3.772  1.2907  1.6059  0.5970
22490SOL     OW71925   9.955   7.237   4.343 -0.1038 -0.5055  0.1646
22490SOL    HW171926  10.039   7.192   4.351 -0.2002 -0.7516 -0.1762
22490SOL    HW271927   9.909   7.219   4.425  0.3599  0.0233  0.5519
22491SOL     OW71928   1.755   3.324   0.379  0.4678  0.5392 -0.1935
22491SOL    HW171929   1.721   3.413   0.373 -1.9789 -0.0316  2.5329
22491SOL    HW271930   1.699   3.273   0.321  1.1092  0.5921 -0.8645
22492SOL     OW71931   9.123   6.466   1.023  0.3890 -0.2066  0.7126
22492SOL    HW171932   9.171   6.531   0.971  0.0704 -0.9691 -0.5836
22492SOL    HW271933   9.175   6.457   1.104  0.6831  1.2936  0.7198
22493SOL     OW71934   5.255   6.670   0.905 -0.0246 -0.3149 -0.5638
22493SOL    HW171935   5.340   6.647   0.866  1.0218  1.0456  0.7789
22493SOL    HW271936   5.276   6.688   0.997 -1.9336 -0.7532 -0.0081
22494SOL     OW71937   9.346   4.463   7.841 -0.2025 -0.4757  0.4291
22494SOL    HW171938   9.305   4.436   7.923  0.3226  0.1209  0.8910
22494SOL    HW271939   9.416   4.522   7.867 -0.1387 -0.1454 -0.4633
22495SOL     OW71940   7.180   1.786   8.673 -1.1554 -0.2709  0.0332
22495SOL    HW171941   7.119   1.821   8.739  0.0387  0.8692  0.5774
22495SOL    HW271942   7.244   1.736   8.724 -1.8768 -1.8755 -0.5841
22496SOL     OW71943  10.892   3.225   1.132 -0.0374 -0.3008  0.5114
22496SOL    HW171944  10.895   3.179   1.216 -0.1615 -1.9609 -0.3563
22496SOL    HW271945  10.798   3.235   1.114 -0.2396 -3.9316 -1.4211
22497SOL     OW71946   7.049   0.426   6.392 -0.1891 -0.2084 -0.4262
22497SOL    HW171947   7.062   0.374   6.313  0.9704  0.9916 -1.0625
22497SOL    HW271948   7.137   0.448   6.421 -0.6284  0.1372  0.6831
22498SOL     OW71949   0.024   3.852   0.977  0.4681 -0.1841  0.3223
22498SOL    HW171950   0.038   3.848   0.882 -0.2493 -0.9220  0.2401
22498SOL    HW271951   0.108   3.827   1.015  0.5370 -0.6239 -0.1214
22499SOL     OW71952   1.221   1.776   3.884 -0.0806 -0.2913 -0.4049
22499SOL    HW171953   1.308   1.782   3.924  0.1115  2.9110 -1.0749
22499SOL    HW271954   1.235   1.799   3.792 -1.5992  0.0056 -0.5866
22500SOL     OW71955   5.071   8.469   2.738 -0.2360 -0.3809 -0.0026
22500SOL    HW171956   5.038   8.492   2.651 -1.1192 -1.4904  0.0173
22500SOL    HW271957   4.992   8.459   2.792  0.2729 -0.3429  0.7633
22501SOL     OW71958   9.121   1.239   3.622 -0.7383 -0.0848  0.1878
22501SOL    HW171959   9.139   1.332   3.637 -1.3157  0.2861 -1.2569
22501SOL    HW271960   9.065   1.213   3.695 -3.4305  1.6200 -1.0862
22502SOL     OW71961  10.188  11.043   4.317 -0.2492 -0.1191 -0.1915
22502SOL    HW171962  10.193  10.959   4.272 -0.7866  0.0936 -0.6686
22502SOL    HW271963  10.138  11.025   4.397 -0.7979 -0.1630 -0.5372
22503SOL     OW71964  10.589   0.511   2.065 -0.0824  0.0163 -0.0876
22503SOL    HW171965  10.557   0.501   1.976 -0.8809 -0.5868  0.2608
22503SOL    HW271966  10.661   0.448   2.072 -1.5589 -1.6984  0.4072
22504SOL     OW71967  10.033   8.987   7.957 -0.1300 -0.3344 -0.0429
22504SOL    HW171968  10.044   8.901   7.998  0.8624 -0.3584 -0.3408
22504SOL    HW271969   9.961   9.027   8.006 -0.3616 -1.1876  0.3385
22505SOL     OW71970   3.974   0.343   7.788 -0.1084 -0.6719  0.0029
22505SOL    HW171971   3.942   0.432   7.802  0.7461 -0.5907  1.7555
22505SOL    HW271972   3.998   0.340   7.695  0.7197  1.2454  0.1043
22506SOL     OW71973   8.649   9.397   2.227 -0.0271  0.4279  0.0050
22506SOL    HW171974   8.723   9.400   2.166  1.2046  2.1413  1.4847
22506SOL    HW271975   8.599   9.476   2.208 -1.0102 -0.2672 -0.3748
22507SOL     OW71976   2.093   3.048   7.203  0.1057  0.0100 -0.0983
22507SOL    HW171977   2.176   3.093   7.188  1.9999 -3.7009 -2.2023
22507SOL    HW271978   2.118   2.958   7.223 -3.4259 -1.0709  0.0624
22508SOL     OW71979   6.242  10.353  10.322 -0.7474 -0.4901  0.3228
22508SOL    HW171980   6.199  10.315  10.246 -1.0728 -0.3991  0.4617
22508SOL    HW271981   6.199  10.438  10.335  1.2375  0.8504 -1.1658
22509SOL     OW71982   1.470   5.639  10.941  0.5640  0.4001  0.3384
22509SOL    HW171983   1.428   5.716  10.980  1.1407  1.1744 -0.5243
22509SOL    HW271984   1.406   5.607  10.877  1.0100  1.2439 -0.5700
22510SOL     OW71985   1.248  10.797   8.711  0.0427 -0.7281  0.1220
22510SOL    HW171986   1.327  10.823   8.665  0.9469 -0.9468  1.4835
22510SOL    HW271987   1.236  10.864   8.778 -0.4698 -1.1137  0.4266
22511SOL     OW71988   4.249   9.007   9.614  0.4662 -0.2295  0.1492
22511SOL    HW171989   4.322   9.026   9.673  0.0769 -0.1704  0.6158
22511SOL    HW271990   4.228   9.092   9.575  1.5804 -0.4932 -1.0883
22512SOL     OW71991   6.368   9.695   0.655  0.3858 -0.4298 -0.2679
22512SOL    HW171992   6.398   9.776   0.697  1.3043 -1.1535  0.5256
22512SOL    HW271993   6.394   9.705   0.564 -0.6692  0.7033 -0.4747
22513SOL     OW71994   7.210   5.887   7.380  0.0319  0.4286  0.4068
22513SOL    HW171995   7.296   5.918   7.353 -0.5705  0.8029 -1.1353
22513SOL    HW271996   7.177   5.955   7.438 -0.0593  1.2789 -0.6211
22514SOL     OW71997  10.621   3.868   1.044 -0.4913 -0.0969 -0.3555
22514SOL    HW171998  10.633   3.811   0.968 -2.4620  0.0142 -0.8107
22514SOL    HW271999  10.702   3.859   1.093 -0.8221 -3.7071 -0.1384
22515SOL     OW72000  10.679   2.984   0.911 -0.5724 -0.3407 -0.0362
22515SOL    HW172001  10.585   2.966   0.911 -0.9962  1.6692  0.6470
22515SOL    HW272002  10.714   2.927   0.979 -1.4640 -0.2905  0.4817
22516SOL     OW72003   1.267   5.986   8.900  0.2609 -0.3166 -0.1400
22516SOL    HW172004   1.187   5.960   8.946 -0.1592 -0.3083 -0.8609
22516SOL    HW272005   1.248   5.970   8.808  1.1319 -0.4196 -0.3082
22517SOL     OW72006   6.102   5.372   5.311  0.3479 -0.1877 -0.1929
22517SOL    HW172007   6.157   5.312   5.362 -0.4927 -0.3334  0.5601
22517SOL    HW272008   6.162   5.411   5.247  1.0337 -1.3923 -0.3157
22518SOL     OW72009   7.124  10.543  10.010  0.3810 -0.1145  0.0179
22518SOL    HW172010   7.184  10.510   9.943  0.3289 -0.6680  0.2335
22518SOL    HW272011   7.172  10.613  10.054 -0.0442  1.1218 -1.4123
22519SOL     OW72012   4.603   6.433   1.685 -0.1126 -0.5256 -0.1468
22519SOL    HW172013   4.561   6.460   1.767 -0.4664  0.3171 -0.5909
22519SOL    HW272014   4.697   6.439   1.702 -0.1753  0.9192 -0.1876
22520SOL     OW72015   9.743   2.717   4.617  0.4173  0.6846 -0.0532
22520SOL    HW172016   9.778   2.735   4.530  0.6494  0.9591  0.0963
22520SOL    HW272017   9.663   2.770   4.622  0.3093  0.5306 -0.1668
22521SOL     OW72018   7.684   0.797   6.881  0.2244  0.3329 -0.0626
22521SOL    HW172019   7.622   0.836   6.943 -0.4726 -1.1784  0.2352
22521SOL    HW272020   7.770   0.807   6.923 -0.1429  0.0734  0.7618
22522SOL     OW72021   6.275   2.105   9.406  0.6267 -0.3501 -0.3516
22522SOL    HW172022   6.308   2.071   9.323  1.9715 -1.2587  0.5132
22522SOL    HW272023   6.310   2.045   9.472 -0.4930  0.2915  0.8714
22523SOL     OW72024   4.502   6.471  10.393  0.4829  0.3762 -0.2796
22523SOL    HW172025   4.504   6.483  10.298 -0.0851 -1.2533 -0.5304
22523SOL    HW272026   4.585   6.428  10.413  0.8772  1.2758  0.0680
22524SOL     OW72027  10.811  10.039   8.737  0.5437  0.1687  0.2406
22524SOL    HW172028  10.826  10.133   8.750 -1.0053  0.5747 -0.6408
22524SOL    HW272029  10.716  10.031   8.729  0.7484 -1.2857 -1.1258
22525SOL     OW72030   2.739   8.695   8.073 -0.3376  0.5331  0.4465
22525SOL    HW172031   2.762   8.725   8.161 -0.8563  0.1608  0.7111
22525SOL    HW272032   2.655   8.736   8.055 -1.4425 -1.3274  1.1191
22526SOL     OW72033   7.621  10.628   1.908 -0.9385 -0.1955 -0.4462
22526SOL    HW172034   7.667  10.556   1.952 -0.5943 -1.1568 -2.2905
22526SOL    HW272035   7.546  10.646   1.965  0.8722  0.4589  1.9207
22527SOL     OW72036   0.402   4.970   4.350 -0.2717  0.7075 -0.0445
22527SOL    HW172037   0.475   5.032   4.358 -1.2334  1.8869 -0.1324
22527SOL    HW272038   0.443   4.884   4.354  1.0819  1.3453  0.3061
22528SOL     OW72039   4.224   2.738  10.471 -0.1220 -0.1291  0.1232
22528SOL    HW172040   4.164   2.677  10.514 -1.0173  1.4565  1.2480
22528SOL    HW272041   4.200   2.824  10.507  4.1447  0.4381  2.3122
22529SOL     OW72042   4.187   5.901   4.516  0.1293  0.3295 -0.3513
22529SOL    HW172043   4.132   5.868   4.587  0.8947 -1.5763 -0.5684
22529SOL    HW272044   4.245   5.964   4.557 -0.9856  1.0041  0.2352
22530SOL     OW72045   6.365   1.515   7.644  0.7041 -0.7264  0.2925
22530SOL    HW172046   6.311   1.561   7.581  2.3995 -0.6454 -1.1843
22530SOL    HW272047   6.334   1.546   7.729 -0.7179  0.2245 -0.5256
22531SOL     OW72048   8.119   2.040   9.496  0.0802  0.4873 -0.0748
22531SOL    HW172049   8.212   2.059   9.499 -0.1230  1.9506 -1.8733
22531SOL    HW272050   8.077   2.116   9.537 -0.3457 -0.1932  0.7950
22532SOL     OW72051   6.542   2.738   6.360  0.2376  0.3944  0.8175
22532SOL    HW172052   6.474   2.742   6.427 -1.5428 -2.0129 -0.6814
22532SOL    HW272053   6.593   2.660   6.382 -0.9002 -0.9392 -0.9894
22533SOL     OW72054   1.895   0.235   0.106 -0.1878  0.1698 -0.4590
22533SOL    HW172055   1.923   0.317   0.064 -1.5603 -0.0316 -1.8608
22533SOL    HW272056   1.882   0.258   0.198 -0.5389  1.5310 -0.8185
22534SOL     OW72057  10.303   9.905  10.858  0.5283  0.2388 -0.0987
22534SOL    HW172058  10.219   9.940  10.829  1.0148  1.2959 -0.2471
22534SOL    HW272059  10.368   9.942  10.798  1.2030  0.1076  0.5294
22535SOL     OW72060   6.469   7.763   0.445  0.4207 -0.4963  0.0888
22535SOL    HW172061   6.415   7.840   0.467  1.7126  0.3157  0.4918
22535SOL    HW272062   6.424   7.690   0.488  0.0158  0.2768  1.0336
22536SOL     OW72063   9.418   1.397   7.436  0.0801 -0.1836  0.2211
22536SOL    HW172064   9.493   1.418   7.380 -1.5479  0.6584 -1.7983
22536SOL    HW272065   9.415   1.469   7.499  2.7337 -1.8242  2.4493
22537SOL     OW72066   9.350   6.385   1.184 -0.2546  0.4222 -0.1087
22537SOL    HW172067   9.438   6.423   1.181 -0.6581  1.3737 -0.2664
22537SOL    HW272068   9.350   6.331   1.263  0.4561  0.4458 -0.0851
22538SOL     OW72069   4.433  10.782   2.504  0.4898  0.3674 -0.4122
22538SOL    HW172070   4.343  10.815   2.509 -0.1584 -1.4209  1.4948
22538SOL    HW272071   4.431  10.718   2.433  1.1272  2.4595 -2.4476
22539SOL     OW72072   1.097   9.558   1.347  0.4384 -0.1521 -0.2844
22539SOL    HW172073   1.097   9.625   1.279  2.0168  1.8098  1.5382
22539SOL    HW272074   1.183   9.516   1.339  0.5861  0.0096  0.4294
22540SOL     OW72075   9.978   5.285   2.201 -0.2854  0.2921 -0.0864
22540SOL    HW172076   9.944   5.203   2.237 -0.0153  0.1157 -0.2211
22540SOL    HW272077  10.030   5.323   2.272  0.8794 -0.4329 -0.5008
22541SOL     OW72078   9.424   7.251  10.300  0.2924 -0.5825  0.0727
22541SOL    HW172079   9.507   7.269  10.257 -0.6535 -0.3504 -1.7716
22541SOL    HW272080   9.431   7.292  10.386  1.7411  0.1981 -0.3939
22542SOL     OW72081   2.889  10.471   1.540 -0.1443  0.3724 -0.1529
22542SOL    HW172082   2.902  10.558   1.502 -1.5895  0.3924 -0.6483
22542SOL    HW272083   2.972  10.426   1.525  0.2156  1.2677 -0.9659
22543SOL     OW72084   3.560   3.554   1.553  0.0248 -0.3813 -0.1473
22543SOL    HW172085   3.557   3.551   1.458  1.5526 -0.8251 -0.2119
22543SOL    HW272086   3.489   3.497   1.582  0.7658 -1.8106 -1.0592
22544SOL     OW72087   1.184   9.121   4.196 -0.2472  0.2552 -0.2109
22544SOL    HW172088   1.139   9.201   4.221  1.3036  0.3518  2.7219
22544SOL    HW272089   1.114   9.062   4.169 -1.9548  1.1506  1.9313
22545SOL     OW72090   3.260   4.291   9.445 -0.2875 -0.7328 -0.1751
22545SOL    HW172091   3.216   4.277   9.529  0.4648 -1.3322  0.1248
22545SOL    HW272092   3.226   4.222   9.388 -0.2513 -0.7660 -0.1556
22546SOL     OW72093   8.175   7.062   9.777 -0.2914  0.0309 -0.5481
22546SOL    HW172094   8.237   7.133   9.789  0.0531 -0.0460 -1.7182
22546SOL    HW272095   8.152   7.066   9.684 -0.7573 -0.9894 -0.4922
22547SOL     OW72096   7.551   5.964   2.791 -0.2773  0.3359  0.6054
22547SOL    HW172097   7.600   5.987   2.871 -0.5597  0.4396  0.7492
22547SOL    HW272098   7.508   5.881   2.813  0.5097 -0.2023  0.1858
22548SOL     OW72099   0.778   1.069   0.724 -0.3234 -0.2890  0.4132
22548SOL    HW172100   0.734   1.086   0.641  1.0124 -0.6070 -0.4065
22548SOL    HW272101   0.871   1.068   0.701  0.0996  0.0515  2.0034
22549SOL     OW72102   3.447   9.981   6.692 -0.1270 -0.0185  0.0869
22549SOL    HW172103   3.514  10.044   6.719  0.7832 -0.6354 -0.6618
22549SOL    HW272104   3.478   9.897   6.727  0.5405 -0.6528 -1.8659
22550SOL     OW72105   3.476   9.463   1.180  0.4505  0.3224 -0.3630
22550SOL    HW172106   3.404   9.513   1.141  0.3950  1.3511  0.9742
22550SOL    HW272107   3.551   9.483   1.124  0.1118  0.7453 -0.6814
22551SOL     OW72108   1.670   1.049   7.240 -0.2346  0.1686 -0.1558
22551SOL    HW172109   1.693   1.089   7.324  0.7871 -1.0076  0.1493
22551SOL    HW272110   1.754   1.023   7.202 -0.7959 -0.7000 -0.8346
22552SOL     OW72111   1.387   3.814   2.288 -0.0826 -0.1687 -0.3204
22552SOL    HW172112   1.336   3.895   2.284  0.5257  0.2951  0.8970
22552SOL    HW272113   1.329   3.747   2.251 -0.2323  0.9680 -2.3119
22553SOL     OW72114   7.413  10.166   5.458  0.6280 -0.2431  0.8714
22553SOL    HW172115   7.498  10.126   5.436  0.1785  0.3204 -2.2932
22553SOL    HW272116   7.349  10.100   5.433  0.0524  0.4312  0.5407
22554SOL     OW72117   4.980  10.790   4.010 -0.3297 -0.0044 -0.4493
22554SOL    HW172118   4.975  10.820   4.101  0.3782  0.8438 -0.6735
22554SOL    HW272119   4.968  10.869   3.958 -0.3412 -0.4192 -1.0924
22555SOL     OW72120   5.682   7.854   3.080 -0.2450 -0.3055  0.2955
22555SOL    HW172121   5.693   7.889   3.168 -2.2720  0.3925  0.3142
22555SOL    HW272122   5.621   7.781   3.090  0.5789 -1.1180 -0.3631
22556SOL     OW72123   6.096   9.362   6.763  0.4279  0.4604 -0.1371
22556SOL    HW172124   6.113   9.297   6.830  0.3540 -0.6025 -1.1296
22556SOL    HW272125   6.007   9.343   6.733 -0.2838  2.1167  0.7497
22557SOL     OW72126   7.074   9.924   8.274  0.1297  0.0370 -0.1552
22557SOL    HW172127   6.990   9.949   8.234 -0.8712 -0.4906  1.5377
22557SOL    HW272128   7.137   9.985   8.236 -1.1622  0.9947 -0.8466
22558SOL     OW72129   3.512   1.430   7.767 -0.0423  0.5033 -0.3108
22558SOL    HW172130   3.608   1.420   7.768 -0.0714 -0.4273 -2.3670
22558SOL    HW272131   3.479   1.342   7.785 -0.6385  1.2966  3.2641
22559SOL     OW72132   9.234   5.447   1.276  0.0736 -0.0897 -0.1209
22559SOL    HW172133   9.266   5.413   1.360  1.7625  1.1096 -0.2229
22559SOL    HW272134   9.206   5.369   1.229  0.6385 -0.9767  0.9406
22560SOL     OW72135   4.853   3.047   4.864  0.0274 -0.0359  0.2166
22560SOL    HW172136   4.772   3.095   4.880  0.5192  0.1663  2.4429
22560SOL    HW272137   4.825   2.962   4.831 -0.9851  0.6143 -0.6801
22561SOL     OW72138   0.985  10.366   3.256  0.0423 -0.1683  0.3045
22561SOL    HW172139   0.981  10.417   3.337 -0.5648 -0.8773  0.7291
22561SOL    HW272140   0.899  10.324   3.250  0.5582 -1.2064  0.0027
22562SOL     OW72141  10.460   4.404   6.613  0.6239 -0.1813 -0.7218
22562SOL    HW172142  10.384   4.345   6.605  0.4623 -0.0089 -0.4497
22562SOL    HW272143  10.511   4.368   6.685 -0.5304  1.1761  0.8369
22563SOL     OW72144   0.657   4.287  10.188 -0.1172  0.1947  0.0141
22563SOL    HW172145   0.655   4.258  10.097  0.5687  0.5609 -0.1239
22563SOL    HW272146   0.657   4.382  10.183  2.1752  0.2623  0.2978
22564SOL     OW72147  10.879   5.030   5.220  0.3250  0.4563  0.5639
22564SOL    HW172148  10.797   5.017   5.171  0.3059 -1.7860  1.0653
22564SOL    HW272149  10.860   5.102   5.281 -0.6277  1.2393 -0.6172
22565SOL     OW72150   9.083   0.153   6.304  0.5360  0.0101 -0.0968
22565SOL    HW172151   9.080   0.151   6.399 -0.3862  2.2191 -0.0086
22565SOL    HW272152   9.156   0.212   6.283 -0.2214  0.7718 -0.6847
22566SOL     OW72153  10.247   0.525   9.538 -0.5684  0.6053  0.3353
22566SOL    HW172154  10.292   0.551   9.618 -1.0013  0.5562  0.5987
22566SOL    HW272155  10.162   0.569   9.543 -0.0085  1.8929 -0.8599
22567SOL     OW72156   5.745   6.427   9.479  0.0158 -0.2555  0.2166
22567SOL    HW172157   5.764   6.513   9.441  0.3988  0.0232  1.0129
22567SOL    HW272158   5.801   6.422   9.556 -0.1866 -1.1253  0.3158
22568SOL     OW72159   2.432   3.636  10.056 -0.1257 -0.0994 -0.0491
22568SOL    HW172160   2.440   3.680  10.141 -0.1873  1.4111 -0.7804
22568SOL    HW272161   2.483   3.692   9.996  0.8525 -1.7399 -0.8061
22569SOL     OW72162   7.377   5.908   9.218  0.1857  0.2218  0.2167
22569SOL    HW172163   7.454   5.943   9.174  0.0862 -0.2539 -0.3540
22569SOL    HW272164   7.412   5.859   9.292  0.4343  0.1033  0.0246
22570SOL     OW72165   9.339   5.092   3.592  0.3574  0.1479  0.1783
22570SOL    HW172166   9.255   5.054   3.618  0.0319  0.9555  0.3422
22570SOL    HW272167   9.364   5.043   3.514 -0.9582  0.8020 -0.6975
22571SOL     OW72168   3.366   8.365   2.331 -0.0659 -0.6136 -0.1932
22571SOL    HW172169   3.301   8.325   2.389 -0.9978 -0.8464 -1.3577
22571SOL    HW272170   3.434   8.396   2.390 -0.8707 -1.0357  1.0086
22572SOL     OW72171  10.356   6.699   6.425  0.5288 -0.4295 -0.3874
22572SOL    HW172172  10.268   6.673   6.451  0.7761 -0.8129  0.0809
22572SOL    HW272173  10.391   6.743   6.502  0.9489 -0.7846 -0.3728
22573SOL     OW72174   7.289   1.730   6.421  0.0211 -0.2655 -0.2406
22573SOL    HW172175   7.317   1.767   6.504 -0.7669  1.2044 -0.5943
22573SOL    HW272176   7.285   1.635   6.437  0.4591 -0.0616  1.2028
22574SOL     OW72177  10.931   7.958   3.897  0.1586  0.4915 -0.4972
22574SOL    HW172178  11.004   7.958   3.835  0.1502  2.5970 -0.5705
22574SOL    HW272179  10.853   7.961   3.841  0.0777  0.3417 -0.3930
22575SOL     OW72180   8.341   8.338   2.279 -0.0968 -0.5957  0.0536
22575SOL    HW172181   8.335   8.247   2.307 -1.6014 -0.0221  1.7426
22575SOL    HW272182   8.431   8.364   2.301  0.6580 -1.8933 -1.3178
22576SOL     OW72183   0.127   4.957   8.444 -0.1142  0.5265 -0.1316
22576SOL    HW172184   0.126   4.929   8.353 -0.1926 -0.8308  0.2588
22576SOL    HW272185   0.218   4.945   8.473 -0.0093  1.2896 -0.1156
22577SOL     OW72186   9.319   1.739  10.356  0.3895  0.1252 -0.0975
22577SOL    HW172187   9.298   1.829  10.383  1.5970  0.1872  0.7350
22577SOL    HW272188   9.334   1.692  10.438 -0.8733 -1.0331 -0.5030
22578SOL     OW72189   4.371   4.524   8.175  0.9036 -0.0541 -0.2381
22578SOL    HW172190   4.366   4.568   8.260  1.2061 -1.7780  0.7042
22578SOL    HW272191   4.425   4.583   8.122  0.7445  1.0411  0.7578
22579SOL     OW72192   0.126   1.396   0.995 -0.0623  0.6190  0.4939
22579SOL    HW172193   0.039   1.364   0.972  0.6563 -0.2650 -1.1898
22579SOL    HW272194   0.131   1.385   1.090 -1.5438  0.0482  0.5314
22580SOL     OW72195   8.324  10.356   2.398 -0.0597 -0.9317 -0.0515
22580SOL    HW172196   8.352  10.448   2.391 -0.8871 -0.6584  0.1375
22580SOL    HW272197   8.229  10.360   2.392 -0.1333 -1.7292  0.5027
22581SOL     OW72198   1.158   2.534   2.754  0.9413  0.2170 -0.4218
22581SOL    HW172199   1.125   2.576   2.674 -0.7525  1.4621  0.8391
22581SOL    HW272200   1.194   2.606   2.805 -2.5731  0.5052  2.0696
22582SOL     OW72201   6.126   2.975   2.619 -0.0722 -0.3021  0.4795
22582SOL    HW172202   6.091   3.061   2.642 -0.3772  0.2764 -1.8607
22582SOL    HW272203   6.049   2.921   2.605 -0.0224  0.0177 -1.3026
22583SOL     OW72204   3.106   0.469   0.189  0.2956  0.1178 -0.1622
22583SOL    HW172205   3.031   0.523   0.162 -0.2785 -0.1210  0.9290
22583SOL    HW272206   3.116   0.406   0.118  0.2547  0.9344 -0.9145
22584SOL     OW72207   5.873  10.070   2.949 -0.0216 -0.4707 -0.1754
22584SOL    HW172208   5.947  10.131   2.956  0.1459 -0.5718 -0.9748
22584SOL    HW272209   5.871  10.025   3.034 -1.3816  2.0142  1.2406
22585SOL     OW72210   0.001   4.412   3.905  0.1589  0.3881  0.3841
22585SOL    HW172211  -0.067   4.345   3.901  2.1445 -1.7863  0.7416
22585SOL    HW272212   0.020   4.433   3.814  0.4041 -0.5076  0.2260
22586SOL     OW72213   4.513   4.573   1.636 -0.3624 -0.2142 -0.3956
22586SOL    HW172214   4.498   4.479   1.648  0.2064 -0.8694 -3.7148
22586SOL    HW272215   4.492   4.612   1.721  0.3824 -3.4315  1.4463
22587SOL     OW72216   9.702   1.625   6.570 -0.4326  0.2686 -0.0235
22587SOL    HW172217   9.648   1.689   6.523 -0.5595  0.1365 -0.0579
22587SOL    HW272218   9.675   1.540   6.536 -1.5314  0.0544  1.2785
22588SOL     OW72219   1.649   4.586   5.487  0.1725  0.7783  0.8040
22588SOL    HW172220   1.573   4.539   5.521 -0.0849  1.1544  0.7518
22588SOL    HW272221   1.722   4.552   5.538  0.3365 -1.2908 -0.7072
22589SOL     OW72222   8.438   5.557   7.200  0.3441 -0.3576  0.8068
22589SOL    HW172223   8.463   5.649   7.208 -0.5232  0.3516 -2.7608
22589SOL    HW272224   8.503   5.520   7.140 -0.5024 -1.5095  0.5792
22590SOL     OW72225   9.581   9.263   1.577 -0.1190  0.1144  0.1255
22590SOL    HW172226   9.574   9.193   1.513  1.1559  0.5375 -0.4961
22590SOL    HW272227   9.512   9.243   1.642  0.5601 -1.9997  0.2594
22591SOL     OW72228   4.730   2.058   1.220 -0.2534 -0.1367  0.1747
22591SOL    HW172229   4.775   2.141   1.238 -1.1308  0.5836 -0.8422
22591SOL    HW272230   4.786   2.014   1.157 -0.4777  0.3186 -0.3472
22592SOL     OW72231   0.249   1.498   1.790  0.3147  0.2680  0.1989
22592SOL    HW172232   0.204   1.581   1.778  1.4752  0.9197  0.1613
22592SOL    HW272233   0.278   1.498   1.881  0.7703  0.1457  0.0590
22593SOL     OW72234   8.204   8.358   0.965  0.2126  0.4884 -0.5179
22593SOL    HW172235   8.231   8.441   0.925  0.0722  0.6337 -0.3128
22593SOL    HW272236   8.266   8.294   0.931  1.5171  0.9932  0.8077
22594SOL     OW72237   5.495   4.906   6.689 -0.2894 -0.1336 -0.4091
22594SOL    HW172238   5.547   4.930   6.612  0.1058 -0.8471 -0.3721
22594SOL    HW272239   5.511   4.977   6.751 -0.2242  0.2009 -0.8027
22595SOL     OW72240   7.859  10.853   8.902  0.4275 -0.6586 -0.1759
22595SOL    HW172241   7.863  10.797   8.980  0.1623  0.3316  0.5583
22595SOL    HW272242   7.777  10.828   8.859  0.7955 -1.5266 -0.3998
22596SOL     OW72243   0.613   7.629   2.739  0.1925 -0.0119  0.4649
22596SOL    HW172244   0.642   7.711   2.779  0.4694  0.1692 -0.1130
22596SOL    HW272245   0.692   7.574   2.736  0.2944  0.1676 -0.3132
22597SOL     OW72246   1.877   8.450   7.474  0.2774  0.3282 -0.1693
22597SOL    HW172247   1.785   8.433   7.494 -0.0422 -1.1644 -2.4827
22597SOL    HW272248   1.922   8.368   7.496  0.3430 -0.3609 -2.4951
22598SOL     OW72249   0.496   5.499   8.264  0.1457  0.3103  0.4907
22598SOL    HW172250   0.572   5.516   8.319 -0.0580  0.7263  0.6509
22598SOL    HW272251   0.504   5.562   8.192 -1.0749  1.7488  1.5452
22599SOL     OW72252   0.475   7.456   8.632  0.5762  0.3192 -0.1087
22599SOL    HW172253   0.410   7.397   8.594  0.8904  0.1009 -0.3193
22599SOL    HW272254   0.431   7.496   8.707  0.0060  0.6181 -0.5966
22600SOL     OW72255   4.769   8.814   5.535 -0.1774  0.0429  0.4715
22600SOL    HW172256   4.688   8.767   5.512 -0.0507 -2.0521  3.6728
22600SOL    HW272257   4.748   8.861   5.616  1.1411  1.5450 -0.0057
22601SOL     OW72258   3.370   1.593  10.836  0.7480  0.2449  0.2515
22601SOL    HW172259   3.307   1.525  10.860 -0.6328  1.3806  0.0382
22601SOL    HW272260   3.399   1.569  10.748  0.3097 -0.0916  0.1954
22602SOL     OW72261  10.335   0.230   7.517 -0.2160  0.5377 -0.3570
22602SOL    HW172262  10.348   0.268   7.430 -2.3592  0.0230 -0.9664
22602SOL    HW272263  10.261   0.279   7.553  0.5598  0.6446  1.1422
22603SOL     OW72264   5.629   1.237   6.659 -0.2351 -0.2739  0.5554
22603SOL    HW172265   5.596   1.148   6.662 -2.2508  0.4426  1.9322
22603SOL    HW272266   5.578   1.284   6.725  0.4475  2.0010 -0.4215
22604SOL     OW72267   0.532   8.520   2.547  0.4704 -1.2188  0.0009
22604SOL    HW172268   0.466   8.583   2.578 -0.3608 -1.3212 -1.4490
22604SOL    HW272269   0.515   8.441   2.598  1.4435 -0.3623  1.7515
22605SOL     OW72270   6.477   3.089  10.246 -0.0163 -0.4497  0.2128
22605SOL    HW172271   6.536   3.072  10.320 -1.6072  0.1200  1.7003
22605SOL    HW272272   6.429   3.007  10.234 -2.6696  0.5500  2.6734
22606SOL     OW72273   4.951   1.267   7.930  0.0427  0.5155 -0.0363
22606SOL    HW172274   4.988   1.191   7.887 -1.5290 -0.8499  0.9216
22606SOL    HW272275   4.927   1.237   8.017 -2.0641  1.6529 -0.1543
22607SOL     OW72276   3.086   6.677   2.056 -0.0307  0.2144 -0.1866
22607SOL    HW172277   3.020   6.744   2.042  0.9497  0.7654 -2.7273
22607SOL    HW272278   3.049   6.620   2.122 -1.8271  2.0372  0.4809
22608SOL     OW72279  10.706   1.096   8.517 -0.1354 -0.0011 -0.3500
22608SOL    HW172280  10.689   1.187   8.543  3.1307  0.8972 -0.8974
22608SOL    HW272281  10.682   1.092   8.425 -1.8958 -0.2411  0.0831
22609SOL     OW72282   6.379   6.647   1.583 -0.3355  0.2840  0.2501
22609SOL    HW172283   6.299   6.595   1.590  0.2391 -0.5407  1.2105
22609SOL    HW272284   6.441   6.589   1.537  0.0727  0.4173  0.6220
22610SOL     OW72285   2.448   0.655   7.645  0.4872 -0.3840  0.1690
22610SOL    HW172286   2.397   0.693   7.716  2.3232  2.3657  0.1694
22610SOL    HW272287   2.539   0.660   7.676  1.2359 -0.1377 -1.9269
22611SOL     OW72288   0.084   2.346  11.004 -0.3450 -0.4027 -0.1201
22611SOL    HW172289   0.028   2.400  11.059  0.3501  1.3755 -1.0827
22611SOL    HW272290   0.145   2.306  11.065  0.5944  1.7528  0.4523
22612SOL     OW72291   1.516   6.804   3.492 -0.0076  0.2433 -0.5694
22612SOL    HW172292   1.480   6.749   3.562 -1.2099  1.0342 -0.5216
22612SOL    HW272293   1.507   6.751   3.413 -1.1908  0.3451 -0.5307
22613SOL     OW72294   0.777   5.082   3.042 -0.3210 -0.4127 -0.3915
22613SOL    HW172295   0.709   5.014   3.035 -0.0334 -0.8299  0.6263
22613SOL    HW272296   0.776   5.106   3.135 -0.9950  1.6008 -0.8758
22614SOL     OW72297   5.610   4.580   9.363  0.1850  0.5056 -0.5536
22614SOL    HW172298   5.680   4.616   9.418  0.3274 -1.1663  0.4444
22614SOL    HW272299   5.575   4.655   9.316  0.7213  1.8556  1.1091
22615SOL     OW72300   7.675   5.615   7.441 -0.0399  0.0183 -0.3735
22615SOL    HW172301   7.670   5.689   7.381  0.1338 -0.2186 -0.6802
22615SOL    HW272302   7.760   5.575   7.423  0.9865  1.1720  1.4730
22616SOL     OW72303   2.066   7.173   5.244  0.2782 -0.0131 -0.0056
22616SOL    HW172304   2.156   7.202   5.228 -0.2528  0.9084 -1.5411
22616SOL    HW272305   2.024   7.250   5.282  0.3577 -0.7707  1.7343
22617SOL     OW72306   0.961   8.087   0.576  0.4839 -0.1546 -0.0468
22617SOL    HW172307   0.934   8.026   0.645  0.8428  0.1134  0.3358
22617SOL    HW272308   0.977   8.169   0.622 -0.1600  0.2768 -0.5872
22618SOL     OW72309   9.742   1.518   9.733  0.5759 -0.3115 -0.0833
22618SOL    HW172310   9.685   1.441   9.726  0.6449 -0.4067  0.3362
22618SOL    HW272311   9.727   1.551   9.822  1.4773 -0.5861  0.1855
22619SOL     OW72312   7.132   2.858   9.146 -0.0477  0.1924 -0.0525
22619SOL    HW172313   7.127   2.769   9.113 -0.2523  0.9359 -2.1820
22619SOL    HW272314   7.101   2.913   9.074 -0.0208  1.9928  1.2183
22620SOL     OW72315   2.325   9.716  10.864 -0.2178 -0.3850 -0.6926
22620SOL    HW172316   2.285   9.631  10.848  2.3938 -1.4061 -2.4284
22620SOL    HW272317   2.411   9.711  10.822  1.6113  1.8004  2.3016
22621SOL     OW72318   6.914   9.577   2.577 -0.1639  0.1392 -0.1863
22621SOL    HW172319   6.911   9.551   2.485 -0.9499  1.0988 -0.4523
22621SOL    HW272320   6.991   9.633   2.584 -0.6309  0.8354 -0.4903
22622SOL     OW72321   7.781   4.717   4.629 -0.1749 -0.1327  0.3488
22622SOL    HW172322   7.863   4.746   4.669 -0.8988  0.9720  1.0745
22622SOL    HW272323   7.749   4.793   4.581 -0.2170 -0.9053 -0.8948
22623SOL     OW72324   7.551   9.043   8.080  0.2915  0.3412 -0.5512
22623SOL    HW172325   7.587   9.052   8.168 -0.0522 -0.2838 -0.3458
22623SOL    HW272326   7.556   8.949   8.061  0.7412  0.5133 -1.3576
22624SOL     OW72327   0.117   6.726   1.315  0.1639  0.0471  0.2904
22624SOL    HW172328   0.130   6.771   1.399  0.5189 -1.1989  0.9236
22624SOL    HW272329   0.162   6.642   1.325 -0.9534 -0.6957 -0.6695
22625SOL     OW72330  11.016   7.390   2.775 -0.0957 -0.4138  0.1323
22625SOL    HW172331  11.055   7.407   2.860  0.0756 -1.5637  0.2966
22625SOL    HW272332  10.922   7.396   2.789 -0.0547  2.1118 -0.2091
22626SOL     OW72333   5.035   0.334   9.219  0.2945 -0.4571  0.1250
22626SOL    HW172334   5.068   0.381   9.142  1.8989  0.3933  1.2693
22626SOL    HW272335   5.043   0.397   9.290 -0.6157 -1.4239  1.1030
22627SOL     OW72336   2.638   8.149  11.058  0.0905 -0.3725 -0.2022
22627SOL    HW172337   2.650   8.065  11.101  0.4573  0.1699  0.7791
22627SOL    HW272338   2.717   8.161  11.006  0.5257 -0.1589  0.4941
22628SOL     OW72339   5.661   9.935   7.708  0.3440  0.0672 -0.6557
22628SOL    HW172340   5.692  10.013   7.753  0.3830 -0.0611 -0.4616
22628SOL    HW272341   5.670   9.956   7.615  0.7968  0.1166 -0.6019
22629SOL     OW72342   7.420   0.781   7.910 -0.0862  0.0734 -0.4083
22629SOL    HW172343   7.398   0.806   7.999  2.7132  1.7407 -0.0493
22629SOL    HW272344   7.494   0.721   7.919  0.8719  1.0206 -1.5648
22630SOL     OW72345   8.940   9.714   9.472  0.4807  0.0341  0.2328
22630SOL    HW172346   8.964   9.780   9.537  0.2246  0.5278 -0.1635
22630SOL    HW272347   8.850   9.736   9.447  0.7156  0.1243 -0.5930
22631SOL     OW72348   1.509   5.321   1.054  0.0056  0.3470 -0.4392
22631SOL    HW172349   1.573   5.277   0.998 -0.8615 -0.2894 -0.9502
22631SOL    HW272350   1.433   5.263   1.053 -1.2600  1.9509 -1.2928
22632SOL     OW72351   1.696   5.078   1.717 -0.1708 -0.0819  0.3758
22632SOL    HW172352   1.691   5.164   1.676  0.4583 -0.4432 -0.5055
22632SOL    HW272353   1.723   5.019   1.646 -0.8377 -1.0520  0.8976
22633SOL     OW72354   2.999   8.042   4.087 -0.5645 -0.0677  0.0426
22633SOL    HW172355   3.006   8.102   4.161 -0.2170 -1.0397  0.8280
22633SOL    HW272356   2.926   8.076   4.035  0.5364  1.8617 -0.3458
22634SOL     OW72357   1.559   2.629   4.024  0.2883  0.3804 -0.1491
22634SOL    HW172358   1.640   2.678   4.038  0.6792  0.0556 -1.2067
22634SOL    HW272359   1.578   2.541   4.056  0.1132  0.4837  0.2502
22635SOL     OW72360   8.679   7.057   8.526  0.1232 -0.0085  0.3150
22635SOL    HW172361   8.704   7.150   8.523 -0.5706  0.1671 -0.0366
22635SOL    HW272362   8.600   7.055   8.579 -0.6514 -0.2195 -0.8180
22636SOL     OW72363   6.218   0.205   6.632 -0.1296  0.0168  0.0505
22636SOL    HW172364   6.147   0.167   6.580 -1.0311  0.1636  1.1441
22636SOL    HW272365   6.196   0.298   6.639  1.2357  0.4936 -1.2703
22637SOL     OW72366   2.692   2.748   7.871 -0.5660  0.0843 -0.7165
22637SOL    HW172367   2.604   2.761   7.835 -1.1142  0.9820  0.8968
22637SOL    HW272368   2.709   2.827   7.923  1.8111  0.6302 -2.1639
22638SOL     OW72369   4.909   7.626   0.726 -0.1673 -0.5686 -0.3983
22638SOL    HW172370   4.849   7.564   0.683 -1.8191 -0.6694  1.8571
22638SOL    HW272371   4.867   7.711   0.716 -0.5282 -0.5812  0.8747
22639SOL     OW72372   3.321   1.735   9.314  0.3281 -0.1049  0.1565
22639SOL    HW172373   3.233   1.770   9.326  0.3753 -0.4853  1.8400
22639SOL    HW272374   3.363   1.794   9.251 -0.9002  0.4511 -0.1593
22640SOL     OW72375   6.168  10.103   1.844 -0.0194 -0.0003 -0.3780
22640SOL    HW172376   6.161  10.170   1.776 -1.1690  0.0928 -0.1798
22640SOL    HW272377   6.197  10.024   1.797  0.8645  0.4857 -0.6839
22641SOL     OW72378   9.724   8.766   2.982  0.1105 -0.1213  0.0921
22641SOL    HW172379   9.636   8.798   3.002  0.3027 -0.1398  1.0268
22641SOL    HW272380   9.717   8.670   2.985 -0.4447 -0.2390 -2.6265
22642SOL     OW72381   2.626   0.505   1.054  0.6046 -0.2257 -0.0016
22642SOL    HW172382   2.577   0.493   1.135 -0.3478  0.0087 -0.5299
22642SOL    HW272383   2.709   0.544   1.082  0.0101  0.5234  0.7936
22643SOL     OW72384   9.656  10.433   8.157 -0.0793 -0.4965  0.1311
22643SOL    HW172385   9.742  10.395   8.137  0.5924  1.4633 -0.9360
22643SOL    HW272386   9.597  10.394   8.092  0.4653 -0.2220 -0.5362
22644SOL     OW72387   6.426   3.957   1.010 -0.0540 -0.1426  0.6166
22644SOL    HW172388   6.470   3.972   1.093  0.6339  3.0496 -0.2138
22644SOL    HW272389   6.446   4.034   0.957 -2.6627 -0.8092 -1.5705
22645SOL     OW72390   9.042   3.408   7.267 -0.8359  0.2153 -0.0492
22645SOL    HW172391   9.010   3.331   7.314 -0.3056  0.6791  1.1073
22645SOL    HW272392   8.965   3.463   7.256 -0.8237  0.4544  0.9928
22646SOL     OW72393   7.721   2.173   0.490 -0.2057  0.0054  0.4160
22646SOL    HW172394   7.810   2.181   0.456 -0.2956 -1.3790 -0.2132
22646SOL    HW272395   7.675   2.250   0.456  0.5349  0.3125  0.0839
22647SOL     OW72396   0.088   5.848   3.457 -0.7549 -0.0920 -0.3938
22647SOL    HW172397   0.030   5.924   3.466  0.4030  1.0194 -1.7951
22647SOL    HW272398   0.137   5.846   3.540  0.3314  1.7206 -0.9353
22648SOL     OW72399   6.163   5.081   0.169 -0.0848  0.1978 -0.6867
22648SOL    HW172400   6.207   5.007   0.209 -0.5067 -0.5531 -1.5784
22648SOL    HW272401   6.235   5.135   0.134  0.5238  2.2628  3.1654
22649SOL     OW72402  10.801   9.689   0.755 -0.1493  0.7325 -0.4746
22649SOL    HW172403  10.811   9.761   0.818  2.2236 -0.2763  0.4133
22649SOL    HW272404  10.786   9.612   0.809 -2.0614  0.3835 -1.3961
22650SOL     OW72405  10.786   4.724   5.641  0.2189 -0.0317  0.1390
22650SOL    HW172406  10.811   4.632   5.652 -0.0820 -0.1859 -0.4082
22650SOL    HW272407  10.726   4.742   5.714  0.1619 -0.3157  0.1637
22651SOL     OW72408   9.036   0.245   4.394 -0.2535 -0.0538 -0.2456
22651SOL    HW172409   8.994   0.305   4.456 -0.0565 -0.8224  0.6472
22651SOL    HW272410   9.077   0.179   4.449 -0.2243 -0.8544 -1.2120
22652SOL     OW72411  10.619   8.504   0.497  0.2605  0.1223 -0.0126
22652SOL    HW172412  10.685   8.446   0.458 -0.4044 -2.2632  2.1240
22652SOL    HW272413  10.535   8.466   0.469 -0.2092  0.9926  0.1870
22653SOL     OW72414   8.450   3.647   9.245  0.0159  0.2193  0.0485
22653SOL    HW172415   8.542   3.645   9.220  0.0365  1.1907  0.0031
22653SOL    HW272416   8.404   3.674   9.165 -0.4682 -1.5154 -0.3046
22654SOL     OW72417   3.061   0.799   3.178  0.2419 -0.4233  0.2438
22654SOL    HW172418   3.134   0.761   3.226  0.9706 -0.2206 -0.6814
22654SOL    HW272419   3.092   0.885   3.149 -0.2681 -0.4336 -0.3734
22655SOL     OW72420   6.637   6.153   2.716  0.2579 -0.2519  0.2183
22655SOL    HW172421   6.710   6.212   2.733 -0.8610  1.1690  0.2676
22655SOL    HW272422   6.589   6.149   2.799 -0.0054 -0.7689  0.0452
22656SOL     OW72423   0.163   5.237   7.695  0.2498 -0.1198 -0.3924
22656SOL    HW172424   0.070   5.244   7.714  0.2806  0.6652 -0.4871
22656SOL    HW272425   0.200   5.193   7.771 -0.1043  0.1448 -0.0626
22657SOL     OW72426  10.485   8.828   4.652  0.3952 -0.5476 -0.1505
22657SOL    HW172427  10.393   8.854   4.657  0.5714 -0.1433  1.9258
22657SOL    HW272428  10.482   8.736   4.625 -0.4986 -0.0766 -1.7844
22658SOL     OW72429   8.474   3.962   1.827 -0.3918  0.5066 -0.0909
22658SOL    HW172430   8.397   3.984   1.881 -0.2666 -1.2343  0.8867
22658SOL    HW272431   8.470   4.022   1.753 -1.2446  2.2003  1.2647
22659SOL     OW72432   2.486   6.627   4.647 -0.4976 -0.6761  0.6397
22659SOL    HW172433   2.461   6.576   4.724  0.6780  0.5911  1.9316
22659SOL    HW272434   2.507   6.714   4.682  0.7382 -0.2628 -1.0160
22660SOL     OW72435   0.464   2.524   7.146 -0.1975 -0.4778 -0.3764
22660SOL    HW172436   0.425   2.438   7.159 -3.8149  0.7630 -1.4554
22660SOL    HW272437   0.492   2.525   7.054 -1.5217 -0.1272 -0.8062
22661SOL     OW72438   0.068   2.058   4.703  0.1483  0.0404  0.0447
22661SOL    HW172439   0.013   1.983   4.727  0.7331 -1.2134 -2.2530
22661SOL    HW272440   0.008   2.119   4.659 -0.5849  1.6153  2.9181
22662SOL     OW72441   0.469   3.396   2.639  0.1255 -0.4931 -0.0530
22662SOL    HW172442   0.552   3.354   2.659  0.4397 -0.3145 -0.9440
22662SOL    HW272443   0.493   3.479   2.598 -0.4726  0.8854  2.2316
22663SOL     OW72444  10.956   9.348   1.206  0.2465 -0.2380 -0.5257
22663SOL    HW172445  10.999   9.400   1.137  1.5593  0.1121  0.5010
22663SOL    HW272446  11.022   9.344   1.276 -1.2787 -0.0401  0.9692
22664SOL     OW72447   9.270  11.029   6.562 -0.0867 -0.0726  0.1582
22664SOL    HW172448   9.230  11.116   6.558 -0.0929 -0.0379  0.8809
22664SOL    HW272449   9.225  10.985   6.634 -0.8150 -1.0558 -0.8699
22665SOL     OW72450   5.396   2.418   5.167 -0.2178 -0.4836  0.0832
22665SOL    HW172451   5.453   2.401   5.091  1.7672  0.1492  1.3508
22665SOL    HW272452   5.416   2.346   5.227 -0.1336  0.1873  0.8755
22666SOL     OW72453   6.558   3.690  10.664  0.0374 -0.1506 -0.0019
22666SOL    HW172454   6.467   3.720  10.656  0.4547  1.5309  1.0051
22666SOL    HW272455   6.589   3.728  10.746  1.7739 -0.3690 -0.5120
22667SOL     OW72456   9.415  10.263  10.297  0.1649  0.1864 -0.7439
22667SOL    HW172457   9.355  10.213  10.241  1.1405 -0.3024 -1.3917
22667SOL    HW272458   9.456  10.196  10.352  0.8482  0.3706 -1.0162
22668SOL     OW72459   1.144   7.969   7.186 -0.1929  0.0117  0.5105
22668SOL    HW172460   1.117   8.060   7.177 -0.0386 -0.0353 -0.5792
22668SOL    HW272461   1.076   7.929   7.240 -0.2344  0.7712  1.0430
22669SOL     OW72462  11.043   8.334   4.015 -0.7236 -0.4184 -0.8328
22669SOL    HW172463  11.036   8.415   3.964 -1.5437  1.0721  1.4833
22669SOL    HW272464  10.961   8.288   3.997 -0.7009 -0.2561 -1.3824
22670SOL     OW72465   1.063   4.765   8.847 -0.3673  0.4921  0.3133
22670SOL    HW172466   1.156   4.783   8.830 -0.6820  2.2076  0.2604
22670SOL    HW272467   1.032   4.723   8.766 -0.1538  1.9945 -0.5855
22671SOL     OW72468   0.937   7.261   4.906 -0.2371 -0.2151  0.3087
22671SOL    HW172469   1.016   7.308   4.930 -0.1383 -0.4790  0.5044
22671SOL    HW272470   0.968   7.174   4.878 -0.2849  0.2558 -1.3182
22672SOL     OW72471   8.125  10.659   6.385 -0.4028 -0.2792 -0.1759
22672SOL    HW172472   8.193  10.700   6.439 -1.1068 -1.0328  1.3645
22672SOL    HW272473   8.094  10.729   6.328  1.9474 -0.0199 -1.2542
22673SOL     OW72474   4.667   6.219   6.454  0.0866  0.6167  0.5998
22673SOL    HW172475   4.643   6.128   6.470  2.1165 -0.0251  0.3268
22673SOL    HW272476   4.654   6.262   6.538  0.9533 -0.3989  1.2880
22674SOL     OW72477   5.560  10.395   2.700  0.2159 -0.0008 -0.0082
22674SOL    HW172478   5.547  10.479   2.656 -0.9496  0.5247  1.2752
22674SOL    HW272479   5.537  10.330   2.634 -0.9374  0.7519 -0.3892
22675SOL     OW72480   1.241   0.452   7.591  0.1362 -0.2662 -0.3108
22675SOL    HW172481   1.247   0.360   7.564  0.1221 -0.1770 -0.6247
22675SOL    HW272482   1.331   0.478   7.608  0.0965 -0.4632  0.2016
22676SOL     OW72483   6.355   3.983  10.107 -0.2258  0.4591  0.7044
22676SOL    HW172484   6.286   3.964  10.044  0.1847  1.1031  0.0349
22676SOL    HW272485   6.433   3.996  10.053  0.4635 -0.4250  1.4536
22677SOL     OW72486   8.833   6.901   2.024 -0.2111  0.4157  0.2874
22677SOL    HW172487   8.837   6.818   1.976  1.1382  0.1662  0.7781
22677SOL    HW272488   8.775   6.956   1.972  0.9735  0.0639 -1.5264
22678SOL     OW72489   8.918   0.798   1.153  0.0705 -0.1225 -0.1477
22678SOL    HW172490   8.840   0.797   1.098  0.6697  1.2490 -1.0755
22678SOL    HW272491   8.902   0.730   1.219 -0.9689 -1.3214 -1.5798
22679SOL     OW72492   0.621   3.976   4.595 -0.4591 -0.2632  0.2345
22679SOL    HW172493   0.671   4.010   4.669 -1.7989  0.0582  1.0323
22679SOL    HW272494   0.678   3.911   4.554  0.7661  0.4086  0.8267
22680SOL     OW72495   0.362   7.100   3.689  0.1558 -0.6074 -0.0862
22680SOL    HW172496   0.287   7.102   3.748  0.5562  0.5039  0.4181
22680SOL    HW272497   0.334   7.045   3.616 -0.4099 -1.8700  1.0402
22681SOL     OW72498   4.559   8.127   4.305  0.4519 -0.2449 -0.6065
22681SOL    HW172499   4.485   8.136   4.366 -0.1080  0.4322 -1.3669
22681SOL    HW272500   4.565   8.033   4.290  0.1088 -0.3554 -0.0895
22682SOL     OW72501   2.381   7.703   9.486  0.2120  0.2090  0.2784
22682SOL    HW172502   2.318   7.774   9.476  0.1282  0.0037 -0.7668
22682SOL    HW272503   2.419   7.692   9.398  0.3973 -0.8644  0.4785
22683SOL     OW72504   0.852   8.660   3.155 -0.1701 -0.1904 -0.2583
22683SOL    HW172505   0.917   8.723   3.123 -0.7860  0.7554  0.3222
22683SOL    HW272506   0.812   8.703   3.231 -0.6726 -1.2461  0.0937
22684SOL     OW72507  10.095   2.928   6.911  0.6279 -0.0278  0.1287
22684SOL    HW172508  10.139   2.843   6.916  0.2503 -0.2452 -0.2008
22684SOL    HW272509  10.097   2.951   6.818 -1.8690 -1.0686 -0.2564
22685SOL     OW72510  10.075   5.335   7.672 -0.0423 -0.2210 -0.1630
22685SOL    HW172511   9.995   5.317   7.623 -0.1723  2.6137 -1.2214
22685SOL    HW272512  10.047   5.333   7.764 -1.8877  2.4356 -0.5392
22686SOL     OW72513   8.499   6.802   5.787  0.0481  0.2918  0.3662
22686SOL    HW172514   8.437   6.874   5.806  0.7001  0.8914  0.2544
22686SOL    HW272515   8.490   6.743   5.862 -0.5461  0.4530  0.4295
22687SOL     OW72516   4.566   0.344  10.475 -0.2729 -0.8384  0.0418
22687SOL    HW172517   4.529   0.398  10.405  0.0403 -0.0500  0.4784
22687SOL    HW272518   4.642   0.302  10.434 -1.0519 -1.7113 -0.5735
22688SOL     OW72519   0.827   2.895   3.100  0.3819  0.6461  0.5140
22688SOL    HW172520   0.751   2.917   3.046 -0.5036 -0.2278  1.3636
22688SOL    HW272521   0.884   2.972   3.093 -0.2956  1.0793 -0.6105
22689SOL     OW72522   5.703   1.976   7.137  0.4712 -0.3030 -0.6709
22689SOL    HW172523   5.763   1.994   7.065 -0.8502 -1.4844 -2.1784
22689SOL    HW272524   5.759   1.948   7.209  1.7831 -0.7417 -1.8032
22690SOL     OW72525  10.550  10.628   7.951 -1.0456 -0.4438  0.0241
22690SOL    HW172526  10.461  10.611   7.981 -0.8186  0.5506  1.3376
22690SOL    HW272527  10.574  10.712   7.991  0.6428 -0.8936  0.0494
22691SOL     OW72528  10.669   5.467   2.061 -0.6702 -0.2537 -0.1889
22691SOL    HW172529  10.584   5.511   2.063 -1.1039 -1.0688  0.0031
22691SOL    HW272530  10.649   5.377   2.035  0.1663 -0.3963 -0.3758
22692SOL     OW72531   6.710   5.933   8.060  0.1106  0.0279  0.2914
22692SOL    HW172532   6.665   5.880   7.994 -0.1601 -0.0729  0.5531
22692SOL    HW272533   6.775   5.983   8.011  0.1719 -0.3320  0.0004
22693SOL     OW72534   3.541   6.430   3.109 -0.4230 -0.3899  0.0461
22693SOL    HW172535   3.502   6.373   3.175 -1.7736 -2.3419 -2.2828
22693SOL    HW272536   3.627   6.391   3.092 -0.2253 -0.0937  0.3236
22694SOL     OW72537   2.789   6.996   0.227  0.2746 -0.1294  0.0016
22694SOL    HW172538   2.737   6.989   0.147 -2.7873  1.5054  1.6608
22694SOL    HW272539   2.853   7.065   0.208 -0.3573  0.1945 -1.0680
22695SOL     OW72540   2.469   0.139  10.062  0.0960  0.6886 -0.0965
22695SOL    HW172541   2.452   0.233  10.052 -0.9243  0.3666 -1.7331
22695SOL    HW272542   2.536   0.120   9.997  0.8592  0.3867  0.7491
22696SOL     OW72543   1.215   4.844   1.466 -0.0793  0.5782  0.2085
22696SOL    HW172544   1.138   4.794   1.437  0.2218  0.6215 -0.6770
22696SOL    HW272545   1.270   4.779   1.510 -1.4795  0.8891  2.6525
22697SOL     OW72546   3.101   8.942   6.550 -0.1198  0.0037 -0.2418
22697SOL    HW172547   3.154   8.870   6.517  1.5770  1.0098  0.1482
22697SOL    HW272548   3.147   9.021   6.522  0.4874  0.9197  2.9238
22698SOL     OW72549   8.591   9.761   2.502  0.0932 -0.0697  0.6433
22698SOL    HW172550   8.549   9.818   2.438 -0.0985 -0.4049  0.4677
22698SOL    HW272551   8.590   9.811   2.584  2.3068  1.2671 -0.0729
22699SOL     OW72552   0.499   8.319   2.754 -0.0291  0.4240  0.4264
22699SOL    HW172553   0.485   8.405   2.795 -0.5084  0.0945  0.9740
22699SOL    HW272554   0.560   8.275   2.813  3.6402  1.8593 -1.9502
22700SOL     OW72555  10.413   2.873   9.138  0.3127  0.0052  0.4611
22700SOL    HW172556  10.380   2.859   9.227 -0.1878 -0.8990  0.1353
22700SOL    HW272557  10.496   2.826   9.136 -0.2379 -0.9634  0.0936
22701SOL     OW72558   4.542   9.843  10.007  0.2742 -0.5756  0.1204
22701SOL    HW172559   4.591   9.922   9.982  0.5130 -0.3993  1.1271
22701SOL    HW272560   4.609   9.781  10.034 -0.0138 -0.5324  0.9508
22702SOL     OW72561   1.866   6.072   3.131 -0.4777  0.0008  0.1868
22702SOL    HW172562   1.775   6.065   3.100 -0.6533  1.1481  0.3672
22702SOL    HW272563   1.872   6.162   3.163  1.2315  0.5270 -1.4504
22703SOL     OW72564   6.419   5.361   7.439 -0.3547 -0.4830  0.3846
22703SOL    HW172565   6.484   5.302   7.477 -0.8746 -0.5613  1.1720
22703SOL    HW272566   6.411   5.332   7.348 -0.4352 -1.4850  0.7008
22704SOL     OW72567   5.048  10.226   3.423  0.2009  0.3960 -0.1589
22704SOL    HW172568   5.052  10.257   3.332 -1.1702  0.0541 -0.3467
22704SOL    HW272569   4.992  10.289   3.467 -1.2454 -0.8509 -0.1555
22705SOL     OW72570   0.205   3.164   6.194 -0.3001  0.1698 -0.1325
22705SOL    HW172571   0.173   3.103   6.127 -2.0117  0.6091  0.2270
22705SOL    HW272572   0.225   3.108   6.269 -2.3901  0.0372  0.3841
22706SOL     OW72573  10.005   2.872   9.567 -0.0820  0.1673  0.9235
22706SOL    HW172574  10.033   2.783   9.590 -1.8285 -0.0755  2.4655
22706SOL    HW272575   9.992   2.915   9.652  0.1243  1.6969  0.2116
22707SOL     OW72576   8.301   6.819   9.858 -0.3428 -0.7252  0.4157
22707SOL    HW172577   8.335   6.875   9.928 -1.3606  1.9720 -1.0919
22707SOL    HW272578   8.229   6.870   9.819 -1.1522 -2.9857 -1.2953
22708SOL     OW72579   4.718   2.496   1.548 -0.1567  0.0391 -0.1137
22708SOL    HW172580   4.648   2.454   1.596 -1.0854  2.4048  0.7539
22708SOL    HW272581   4.738   2.436   1.476 -4.1309 -0.1001 -1.3326
22709SOL     OW72582   0.665   6.050   7.018  0.0960  0.0949  0.4697
22709SOL    HW172583   0.600   6.044   7.088  0.9693 -1.8328  1.1908
22709SOL    HW272584   0.707   5.964   7.016  1.4527  0.7212 -1.1261
22710SOL     OW72585   6.158   2.318   2.072 -0.4715  0.2916 -0.2938
22710SOL    HW172586   6.130   2.375   2.000 -1.4291  1.8775  1.2420
22710SOL    HW272587   6.234   2.362   2.109  0.5921 -1.0014 -0.8649
22711SOL     OW72588   3.772  10.822   4.133 -0.6424 -0.4165 -0.0811
22711SOL    HW172589   3.788  10.746   4.078 -0.8487 -1.1310  0.8238
22711SOL    HW272590   3.802  10.796   4.220  0.9996  1.1986 -0.1228
22712SOL     OW72591   9.944   3.326   9.635  0.4661  0.9214 -0.1035
22712SOL    HW172592   9.925   3.417   9.660 -1.8941  0.7280 -0.9743
22712SOL    HW272593   9.873   3.275   9.673  0.8840 -0.3600 -0.9635
22713SOL     OW72594   3.549   9.920   3.318 -0.1750  0.2442 -0.2435
22713SOL    HW172595   3.628   9.915   3.265  0.8935 -0.2944  1.3317
22713SOL    HW272596   3.540  10.014   3.338  0.8749  0.1624  0.7012
22714SOL     OW72597   6.219   8.309   1.270  0.1059 -0.2367  0.3536
22714SOL    HW172598   6.161   8.270   1.204  1.5516 -1.0196 -0.4850
22714SOL    HW272599   6.225   8.401   1.245 -1.0559 -0.0466  0.6832
22715SOL     OW72600   7.325   8.437   9.013 -0.1397  0.0485  0.8614
22715SOL    HW172601   7.276   8.495   8.956  0.9070  0.9494  0.8508
22715SOL    HW272602   7.330   8.354   8.965 -1.0539  0.1491  0.5804
22716SOL     OW72603   6.452  10.521   0.346 -0.0465  0.0037 -0.0995
22716SOL    HW172604   6.376  10.474   0.380  0.1256 -1.3066 -1.4471
22716SOL    HW272605   6.423  10.612   0.338 -0.7708 -0.0782  1.4060
22717SOL     OW72606   4.717   0.714   0.240 -0.1633  0.6782 -0.2454
22717SOL    HW172607   4.655   0.654   0.198  0.2536  1.0163 -1.4036
22717SOL    HW272608   4.708   0.697   0.333 -1.2862  0.0307 -0.4524
22718SOL     OW72609   9.982   7.673   0.599 -0.3345 -0.1130  0.0292
22718SOL    HW172610   9.956   7.765   0.604  1.3908  0.3893  0.5311
22718SOL    HW272611  10.004   7.660   0.506  1.8400  0.7436  0.3696
22719SOL     OW72612   2.305   5.735   4.863  0.2608 -0.0999 -0.0015
22719SOL    HW172613   2.296   5.645   4.894 -0.5920 -0.8789 -2.3033
22719SOL    HW272614   2.316   5.727   4.769  3.0006  2.1114  0.0220
22720SOL     OW72615   2.990   2.035   9.804 -0.1834  0.2945 -0.0457
22720SOL    HW172616   2.969   1.951   9.845 -1.3074 -0.0235 -1.2275
22720SOL    HW272617   3.020   2.013   9.716 -2.0435  1.1680 -0.9590
22721SOL     OW72618   7.776   9.714   6.825 -0.2201  0.5709 -1.1707
22721SOL    HW172619   7.798   9.659   6.750 -1.0063 -0.1150 -0.9245
22721SOL    HW272620   7.816   9.670   6.900 -1.4487 -0.0933 -0.8729
22722SOL     OW72621   5.941   5.170   8.221  0.3285  0.1992  0.2198
22722SOL    HW172622   6.024   5.137   8.255  0.3510  0.0816  0.0512
22722SOL    HW272623   5.940   5.263   8.244  0.8638  0.3853 -0.4773
22723SOL     OW72624   5.758  10.441   0.292 -0.0600  0.0223  0.0031
22723SOL    HW172625   5.768  10.363   0.237  0.8603 -0.0109  0.1971
22723SOL    HW272626   5.704  10.501   0.241  0.0492 -0.3559 -0.5586
22724SOL     OW72627   0.376   8.219   5.438  0.2686 -0.2350 -0.4797
22724SOL    HW172628   0.334   8.228   5.352  1.2600 -0.9139 -1.0530
22724SOL    HW272629   0.469   8.213   5.418  0.7046  1.5959  0.7895
22725SOL     OW72630   2.637   2.704   0.757  0.1018 -0.1760 -0.0137
22725SOL    HW172631   2.546   2.724   0.779 -0.2289  0.3403 -1.7191
22725SOL    HW272632   2.640   2.608   0.751 -0.1948 -0.2251  0.5089
22726SOL     OW72633   2.595   9.468   8.205 -0.0168 -0.0242  0.1135
22726SOL    HW172634   2.590   9.559   8.175  0.7971 -0.0349 -0.0580
22726SOL    HW272635   2.613   9.475   8.298  0.3486 -0.0139  0.0410
22727SOL     OW72636   2.764   5.706   5.468  0.0285 -0.0219 -0.3930
22727SOL    HW172637   2.721   5.763   5.532  0.9494  0.8482 -0.5258
22727SOL    HW272638   2.817   5.647   5.522 -0.8600 -0.7340 -0.2606
22728SOL     OW72639  10.307   0.118   0.215 -0.3134  0.3587  0.3293
22728SOL    HW172640  10.373   0.187   0.209  1.2404 -1.1313 -1.0617
22728SOL    HW272641  10.258   0.125   0.133  1.2542 -1.4150 -0.8531
22729SOL     OW72642   5.627   2.932   7.694  0.6674 -0.2692  0.0700
22729SOL    HW172643   5.658   2.996   7.758  3.0995 -0.2059 -1.0624
22729SOL    HW272644   5.534   2.922   7.714  0.5080  2.5076  1.2323
22730SOL     OW72645   0.317   0.581   4.781 -0.3040 -0.1188  0.2400
22730SOL    HW172646   0.388   0.532   4.740 -0.4997 -0.1737 -0.0337
22730SOL    HW272647   0.353   0.610   4.865 -0.3980 -1.3051  0.7097
22731SOL     OW72648   8.338   1.958   2.771  0.2227  0.2442  0.2461
22731SOL    HW172649   8.323   2.023   2.839 -0.7295  0.4192 -0.1238
22731SOL    HW272650   8.329   2.006   2.689 -1.1043 -0.4646 -0.0448
22732SOL     OW72651   1.968  10.370   0.246  1.2427 -0.2633 -0.4314
22732SOL    HW172652   1.891  10.334   0.290  0.0215  1.2514 -1.2221
22732SOL    HW272653   2.030  10.388   0.316  0.7285 -1.1151  0.2677
22733SOL     OW72654   0.102   5.627   7.460 -0.2606 -0.2640  0.0919
22733SOL    HW172655   0.068   5.552   7.411 -0.3612  1.4640 -2.6569
22733SOL    HW272656   0.149   5.679   7.395 -0.5748  2.3021  1.7907
22734SOL     OW72657   6.971   8.290   3.401 -0.5293 -0.3138  0.3098
22734SOL    HW172658   7.046   8.348   3.407 -0.7981  0.0185  0.5660
22734SOL    HW272659   7.006   8.208   3.368  0.1884 -0.5915  1.6625
22735SOL     OW72660   0.212   8.863   3.840 -0.8783 -0.1407 -0.3531
22735SOL    HW172661   0.299   8.830   3.819 -0.6340  0.3562 -0.1388
22735SOL    HW272662   0.211   8.868   3.935 -1.3461 -0.6771 -0.3225
22736SOL     OW72663   2.137   2.832   1.000 -0.1665  0.1776 -0.1035
22736SOL    HW172664   2.085   2.912   0.996 -0.8468 -0.2866 -1.0401
22736SOL    HW272665   2.182   2.828   0.915  0.8627  0.2047  0.4190
22737SOL     OW72666   4.792  10.528   2.245  0.3909  0.4066 -0.3281
22737SOL    HW172667   4.803  10.623   2.243  2.3318  0.2060 -1.6283
22737SOL    HW272668   4.839  10.496   2.168  1.3569 -1.7466  1.0328
22738SOL     OW72669   1.227   8.743   5.647 -0.1166 -0.0745  0.0662
22738SOL    HW172670   1.160   8.677   5.664  0.3189 -0.3905  0.6024
22738SOL    HW272671   1.225   8.800   5.723  1.3893 -1.1049  0.9415
22739SOL     OW72672   6.586   9.181   9.876 -0.5447 -0.1417 -0.3436
22739SOL    HW172673   6.630   9.105   9.837  0.1584 -0.7030  1.4336
22739SOL    HW272674   6.615   9.180   9.967  0.4850  2.9890 -0.5382
22740SOL     OW72675   5.472   0.787   8.732 -0.0088 -0.7479 -0.0804
22740SOL    HW172676   5.449   0.834   8.652 -4.3463 -3.4976 -0.8271
22740SOL    HW272677   5.453   0.848   8.803 -1.1133  0.1115 -1.0870
22741SOL     OW72678  10.951   6.287   1.548 -0.7212 -0.7886 -0.0793
22741SOL    HW172679  10.882   6.221   1.546  1.2337 -2.9537  0.2491
22741SOL    HW272680  10.971   6.305   1.456 -0.3101 -1.7452 -0.1859
22742SOL     OW72681   4.415   9.966   7.983 -0.1008  0.2911 -0.0381
22742SOL    HW172682   4.438  10.007   8.066  0.9207  0.1940 -0.2628
22742SOL    HW272683   4.390   9.876   8.007 -0.0624  0.3420  0.1981
22743SOL     OW72684   5.977   0.503   6.245  0.4906 -0.1674 -0.2189
22743SOL    HW172685   5.925   0.423   6.243  0.6028 -0.2284 -0.8169
22743SOL    HW272686   6.064   0.474   6.273  0.3817 -0.1617  0.1383
22744SOL     OW72687   1.643   1.771   8.265 -0.6198  0.5389  0.0337
22744SOL    HW172688   1.716   1.823   8.230  0.0413  0.9010  1.8411
22744SOL    HW272689   1.588   1.753   8.188  1.9061 -0.7108 -1.6298
22745SOL     OW72690   3.353   7.983   2.920  0.4776 -0.1831 -0.3482
22745SOL    HW172691   3.399   7.937   2.991  0.8234 -0.4381 -0.7298
22745SOL    HW272692   3.289   8.038   2.964 -0.7178 -1.8562  0.1023
22746SOL     OW72693   1.548   0.253   0.353  0.0690 -0.5106  0.0428
22746SOL    HW172694   1.524   0.231   0.443 -2.1882 -0.2878 -0.4465
22746SOL    HW272695   1.552   0.168   0.308  2.0530 -0.6968  0.5020
22747SOL     OW72696   7.775   3.920   6.601  0.0683 -0.3031 -0.1415
22747SOL    HW172697   7.719   3.861   6.552 -0.8403  0.0767  0.4175
22747SOL    HW272698   7.844   3.945   6.539  0.4555 -1.9010 -0.3933
22748SOL     OW72699   8.547   4.735   1.978  0.4454 -0.2465 -0.0190
22748SOL    HW172700   8.593   4.707   2.056 -1.2106 -1.4910  0.5567
22748SOL    HW272701   8.615   4.774   1.923  2.0889 -1.6410  0.9403
22749SOL     OW72702   5.360   3.393   2.705 -0.3345  0.1948 -0.0909
22749SOL    HW172703   5.409   3.357   2.632  1.0265  1.4151  0.1659
22749SOL    HW272704   5.360   3.488   2.690 -0.1275  0.4643  1.4006
22750SOL     OW72705   6.109   6.068   0.098  0.5378 -0.4751  0.7200
22750SOL    HW172706   6.182   6.054   0.159 -0.7042 -0.2885  2.3053
22750SOL    HW272707   6.135   6.145   0.047  1.6819 -0.7357  0.8763
22751SOL     OW72708   5.978   8.564   4.211 -0.3675 -0.0779  0.0397
22751SOL    HW172709   6.069   8.540   4.227 -0.0625  0.5060 -0.7296
22751SOL    HW272710   5.946   8.598   4.294  0.4568  0.7243  0.0362
22752SOL     OW72711  10.475   4.045   8.738  0.0359  0.5074 -0.1156
22752SOL    HW172712  10.528   4.119   8.766 -2.2817  2.1333  0.2483
22752SOL    HW272713  10.421   4.024   8.814 -0.1208 -0.8717 -0.5705
22753SOL     OW72714  10.229   4.583   9.315  0.0456 -0.4835 -0.0752
22753SOL    HW172715  10.181   4.623   9.388  0.3523  1.6702 -0.9864
22753SOL    HW272716  10.233   4.490   9.338 -1.5233 -0.1877  1.7107
22754SOL     OW72717   2.528   8.175   1.614  0.6440 -0.4296  0.4640
22754SOL    HW172718   2.529   8.165   1.709 -0.2335  2.0771  0.8176
22754SOL    HW272719   2.438   8.156   1.589  0.8189 -0.8624  0.1562
22755SOL     OW72720   9.106   0.097   5.653  0.5817  0.0402 -0.2338
22755SOL    HW172721   9.179   0.128   5.599  0.7324 -0.4000 -0.2830
22755SOL    HW272722   9.080   0.014   5.613  0.6403 -0.2496  0.3217
22756SOL     OW72723  10.641   8.181   4.691 -0.1652 -0.0970 -0.0606
22756SOL    HW172724  10.706   8.130   4.738  0.5959  0.7040 -0.2143
22756SOL    HW272725  10.675   8.270   4.691 -3.2560  1.3386  3.5747
22757SOL     OW72726   5.914   8.904   7.414  0.0761 -0.4645  0.0706
22757SOL    HW172727   5.869   8.956   7.481  2.5058  0.2008  1.3170
22757SOL    HW272728   5.885   8.942   7.331 -1.4075  0.1017  0.8130
22758SOL     OW72729   3.758   7.221   4.562  0.4365  0.0778 -0.0899
22758SOL    HW172730   3.801   7.218   4.648  0.4577  1.2384 -0.0342
22758SOL    HW272731   3.729   7.312   4.554  2.5712  0.6650 -2.3101
22759SOL     OW72732   8.523   6.270   4.953  0.0011 -0.0548 -0.0466
22759SOL    HW172733   8.616   6.286   4.967 -0.1024  0.9861 -0.5026
22759SOL    HW272734   8.479   6.310   5.028 -0.1417  0.2585 -0.2960
22760SOL     OW72735   8.980   8.200   7.491 -0.0374 -0.2518  0.0788
22760SOL    HW172736   9.016   8.125   7.444  1.3618 -0.1662  0.9505
22760SOL    HW272737   8.995   8.274   7.432 -0.9719 -0.5662 -0.5707
22761SOL     OW72738   2.026   1.869   5.527 -0.2321 -0.4130  0.2329
22761SOL    HW172739   2.017   1.811   5.602  2.5811 -0.9064  0.2738
22761SOL    HW272740   2.117   1.859   5.498  0.0863  3.0867 -0.4782
22762SOL     OW72741   5.796   2.518   1.248  0.1709  0.4158 -0.4319
22762SOL    HW172742   5.853   2.473   1.311  0.4764  0.6390 -0.5441
22762SOL    HW272743   5.708   2.508   1.284  0.2466 -0.1787 -0.3986
22763SOL     OW72744   2.907   7.240   8.448 -0.0127 -0.1445 -0.0405
22763SOL    HW172745   2.999   7.217   8.457  0.5810  1.1387 -1.9799
22763SOL    HW272746   2.909   7.334   8.429 -1.6872 -0.1857 -0.5236
22764SOL     OW72747   9.348   8.570   8.311 -0.0410 -0.1055  0.1286
22764SOL    HW172748   9.435   8.611   8.312 -0.3316  0.5822  2.3652
22764SOL    HW272749   9.361   8.483   8.348 -0.3146  0.1004  0.7355
22765SOL     OW72750   8.240   2.587   8.523  0.1521 -0.0373 -0.3534
22765SOL    HW172751   8.321   2.628   8.553 -0.4509 -0.5290  2.1257
22765SOL    HW272752   8.260   2.494   8.517 -0.4168 -0.2816  1.1258
22766SOL     OW72753   0.135   7.209   5.589  0.5227 -0.1363  0.0348
22766SOL    HW172754   0.079   7.180   5.661  1.7643 -0.2740  0.9681
22766SOL    HW272755   0.081   7.273   5.541 -0.3581 -0.1165  1.0141
22767SOL     OW72756   0.633   3.614   0.068  0.3595 -0.2012  0.0765
22767SOL    HW172757   0.654   3.625   0.160 -1.4451 -0.7049  0.5692
22767SOL    HW272758   0.583   3.532   0.064 -0.0664  0.0995 -1.2603
22768SOL     OW72759   9.977   7.503   1.465  0.4652 -0.3903 -0.3348
22768SOL    HW172760   9.974   7.480   1.372 -1.9259  0.2255 -0.4813
22768SOL    HW272761   9.917   7.442   1.507 -1.0129  1.3771  0.2490
22769SOL     OW72762   5.378   5.979   2.301 -0.0669 -0.1094 -0.3195
22769SOL    HW172763   5.445   5.918   2.270 -0.8755 -0.5962 -1.1467
22769SOL    HW272764   5.376   5.966   2.396  0.7650 -0.3213 -0.3187
22770SOL     OW72765   9.901   9.673   6.175  0.3531 -0.4090 -0.1147
22770SOL    HW172766   9.907   9.741   6.242 -0.3690 -0.7701  0.3358
22770SOL    HW272767   9.920   9.592   6.221 -0.7588 -0.7364 -0.1910
22771SOL     OW72768  10.073   3.739   9.916 -0.1445  0.2270 -0.3993
22771SOL    HW172769  10.146   3.770   9.969  1.5109 -0.6133 -2.0417
22771SOL    HW272770  10.056   3.650   9.948  0.9775 -0.3505 -1.2862
22772SOL     OW72771   3.812   2.120   7.082 -0.3047 -0.2853 -0.0916
22772SOL    HW172772   3.806   2.212   7.108 -0.1747  0.0286 -1.1491
22772SOL    HW272773   3.782   2.119   6.991  1.7897 -0.9506 -0.8101
22773SOL     OW72774   6.358   2.741   3.001 -0.1889 -0.1686  0.7611
22773SOL    HW172775   6.370   2.783   2.916 -0.1688 -1.2693  0.2033
22773SOL    HW272776   6.370   2.811   3.065  0.8199  0.4604 -0.1014
22774SOL     OW72777   7.495   6.983   5.695  0.1651 -0.1120  0.3906
22774SOL    HW172778   7.510   6.932   5.615 -2.9152 -2.5113  1.1438
22774SOL    HW272779   7.511   6.922   5.766 -2.6254  0.1539  1.3776
22775SOL     OW72780   6.787   0.014   0.778 -0.2104  0.1493 -0.5917
22775SOL    HW172781   6.778   0.069   0.856  0.8000 -1.0584  0.4226
22775SOL    HW272782   6.872  -0.029   0.788 -0.3876 -0.6031 -1.9971
22776SOL     OW72783   5.541   1.539   5.065  0.2376 -0.1187 -0.3813
22776SOL    HW172784   5.491   1.542   5.146 -1.1931  1.7995 -1.2413
22776SOL    HW272785   5.632   1.547   5.092 -0.2394  0.8491  1.0199
22777SOL     OW72786   4.665   4.730  10.571 -0.4730 -0.3267  0.1140
22777SOL    HW172787   4.572   4.714  10.561 -0.5710  1.1193 -2.3748
22777SOL    HW272788   4.706   4.644  10.562 -1.5154 -0.8083 -0.0955
22778SOL     OW72789   9.369   5.289   3.776  0.4174 -0.4509  0.1855
22778SOL    HW172790   9.362   5.248   3.690 -0.4418 -0.6530  0.3449
22778SOL    HW272791   9.286   5.270   3.819  0.4263  0.5293  0.6732
22779SOL     OW72792   7.440   4.676   2.224  0.0621 -0.2195  0.0963
22779SOL    HW172793   7.391   4.743   2.176 -0.6678 -0.4077  0.5736
22779SOL    HW272794   7.424   4.595   2.175 -0.7958 -0.4379  0.7197
22780SOL     OW72795   8.409   0.560   9.872 -1.0953 -0.3236 -0.5214
22780SOL    HW172796   8.329   0.528   9.914  0.1284 -2.9165  0.0156
22780SOL    HW272797   8.439   0.631   9.929 -1.9054 -0.7318  0.4348
22781SOL     OW72798   4.114   7.595   4.612 -0.6235 -0.1697  0.0261
22781SOL    HW172799   4.140   7.568   4.700  1.1422 -1.4294 -0.8183
22781SOL    HW272800   4.062   7.522   4.579 -0.0159 -0.3802 -0.4860
22782SOL     OW72801   3.390   9.949   6.219  0.3709  0.1067  0.2839
22782SOL    HW172802   3.403   9.854   6.222 -2.4682 -0.3901 -0.6268
22782SOL    HW272803   3.398   9.972   6.126 -1.1777  0.3395  0.1804
22783SOL     OW72804   9.906  10.302   6.686 -0.2212  0.5644  0.1687
22783SOL    HW172805   9.931  10.388   6.653 -0.1389 -0.0302 -1.4197
22783SOL    HW272806   9.953  10.240   6.630 -1.8009 -0.5234 -0.0349
22784SOL     OW72807   4.501   7.878   1.692  0.6332 -0.5184 -0.1881
22784SOL    HW172808   4.558   7.944   1.731  0.3606  0.3419 -1.1876
22784SOL    HW272809   4.421   7.927   1.668  0.0563 -1.3977 -0.1061
22785SOL     OW72810   3.836   2.554   9.987 -0.2608 -0.3076  0.1640
22785SOL    HW172811   3.844   2.458   9.983 -1.4691 -0.4271 -3.7014
22785SOL    HW272812   3.771   2.575   9.919  0.7689  3.3536  0.1187
22786SOL     OW72813   7.307   3.076   2.362  0.1994 -0.2152 -0.1814
22786SOL    HW172814   7.331   3.041   2.276 -0.9753 -0.6438 -0.3516
22786SOL    HW272815   7.346   3.014   2.424  0.5056 -0.2656 -0.4197
22787SOL     OW72816   3.411   8.639   0.488 -0.0329  0.4595  0.3268
22787SOL    HW172817   3.360   8.689   0.424 -0.2566  0.7271  0.7168
22787SOL    HW272818   3.368   8.554   0.492  0.5766  0.0880 -0.6286
22788SOL     OW72819   4.117   7.911   0.235 -0.3443  0.0034 -0.7855
22788SOL    HW172820   4.173   7.947   0.167  1.4707  1.3183  1.2575
22788SOL    HW272821   4.067   7.986   0.268 -0.7570 -0.4747 -0.2908
22789SOL     OW72822   2.632   6.669   7.454 -0.1886  0.2072  0.1504
22789SOL    HW172823   2.640   6.574   7.443 -0.7500  0.2959 -1.1711
22789SOL    HW272824   2.711   6.694   7.504  0.2259 -0.8746  0.0651
22790SOL     OW72825   1.091   4.552   9.113 -0.1904  0.1312 -0.0089
22790SOL    HW172826   1.183   4.546   9.139 -0.4360 -1.4050  0.5653
22790SOL    HW272827   1.093   4.607   9.034  1.2461 -0.0709 -0.1495
22791SOL     OW72828   7.939   3.784   3.882 -0.6243 -0.2668  0.0646
22791SOL    HW172829   7.992   3.830   3.947 -0.3507 -0.1230 -0.2555
22791SOL    HW272830   7.859   3.835   3.875 -0.4334  0.0200 -0.0937
22792SOL     OW72831   9.467   4.594   4.511  0.7091 -0.0834  0.1061
22792SOL    HW172832   9.504   4.506   4.523  0.5745 -0.0397  0.8748
22792SOL    HW272833   9.438   4.595   4.419  2.3005 -0.2304 -0.4266
22793SOL     OW72834   3.367   8.776   5.134 -0.0744 -0.4856  0.3059
22793SOL    HW172835   3.381   8.808   5.045  2.2050 -0.6682  0.5350
22793SOL    HW272836   3.372   8.855   5.189  0.7216 -0.6414  0.4582
22794SOL     OW72837   6.153  10.332   7.683 -0.2386 -0.5114 -0.1044
22794SOL    HW172838   6.101  10.367   7.611  0.4786 -1.2168 -0.9929
22794SOL    HW272839   6.241  10.366   7.668 -0.0527 -0.7796  0.3546
22795SOL     OW72840   6.227   2.990   8.160 -0.4078 -0.0539  0.9445
22795SOL    HW172841   6.279   2.927   8.110 -0.2256  0.2095  0.8035
22795SOL    HW272842   6.223   2.953   8.248 -1.7503 -1.1473  0.4696
22796SOL     OW72843   0.234   0.760   4.559  0.4471 -0.1136  0.3905
22796SOL    HW172844   0.258   0.732   4.647  0.8159  1.2627  0.7439
22796SOL    HW272845   0.155   0.812   4.570  2.1817  2.7578  0.3972
22797SOL     OW72846   3.070   7.597   7.193 -0.2555  0.2461  0.2899
22797SOL    HW172847   3.095   7.508   7.166  1.3127  0.9031 -0.6197
22797SOL    HW272848   3.151   7.635   7.228 -0.8710  1.3474  0.5709
22798SOL     OW72849   0.225   6.666   7.292 -0.0350  0.4643  0.2365
22798SOL    HW172850   0.224   6.584   7.243 -0.5381  1.5961 -1.7720
22798SOL    HW272851   0.142   6.666   7.340 -0.9601  0.6205 -1.2955
22799SOL     OW72852   9.364   7.006   3.222  0.7597 -0.3479  1.1031
22799SOL    HW172853   9.295   7.044   3.168 -0.1545 -2.2953  0.8150
22799SOL    HW272854   9.440   7.062   3.206 -0.1101  0.4792 -0.4006
22800SOL     OW72855   0.407   8.482  10.743  0.4550 -0.1797  0.3124
22800SOL    HW172856   0.458   8.486  10.663  1.5685 -1.7512  0.8905
22800SOL    HW272857   0.468   8.452  10.810 -0.2652  1.7562  1.9497
22801SOL     OW72858   1.710   5.237   0.320 -0.4183  0.5118  0.0284
22801SOL    HW172859   1.660   5.166   0.360 -0.2882 -1.5169 -3.0663
22801SOL    HW272860   1.799   5.224   0.353 -0.8647  0.9089  1.4794
22802SOL     OW72861   5.239   3.905   6.427  0.5480  0.3894  0.2426
22802SOL    HW172862   5.318   3.948   6.395  0.2772 -0.3537 -1.5608
22802SOL    HW272863   5.227   3.829   6.369 -1.4362  0.4392  0.5003
22803SOL     OW72864   7.336   3.231   0.003  0.5223  0.2499  0.4437
22803SOL    HW172865   7.284   3.307  -0.021  3.2492  1.2607 -3.1916
22803SOL    HW272866   7.372   3.252   0.089 -1.2945  1.5452  0.9431
22804SOL     OW72867   7.068   8.392   6.441  0.1298 -0.3199 -0.0327
22804SOL    HW172868   6.991   8.437   6.475 -0.6601 -1.1567 -0.6504
22804SOL    HW272869   7.138   8.412   6.504 -0.6430  0.2762  0.6540
22805SOL     OW72870   7.163   6.541   1.763  0.3946 -0.3680 -0.0648
22805SOL    HW172871   7.225   6.610   1.789  1.5584 -1.1862 -0.5692
22805SOL    HW272872   7.219   6.466   1.742 -0.7160 -0.8399 -1.4468
22806SOL     OW72873   6.301   8.320   5.334 -0.2651 -0.0517  0.5908
22806SOL    HW172874   6.256   8.368   5.264 -1.6541 -1.0549  0.7442
22806SOL    HW272875   6.275   8.364   5.415 -1.5473 -1.0145  0.7325
22807SOL     OW72876   5.960   3.968   9.862  0.2130  0.3905 -0.5411
22807SOL    HW172877   5.909   4.047   9.880  1.0794  1.0839 -1.0584
22807SOL    HW272878   5.972   3.927   9.947 -1.1460  0.2372 -0.3957
22808SOL     OW72879   6.283   6.979   5.713 -0.2300 -0.4543 -0.0878
22808SOL    HW172880   6.226   6.926   5.657  0.3422  0.0349 -1.1685
22808SOL    HW272881   6.372   6.951   5.691  0.1731  1.8117 -1.6833
22809SOL     OW72882   4.094   4.091  10.032  0.2606  0.6573  0.1185
22809SOL    HW172883   4.082   4.002   9.997 -1.1288  1.0012 -0.3496
22809SOL    HW272884   4.148   4.135   9.967 -1.4113  0.9724 -1.1164
22810SOL     OW72885   6.300   0.726   9.928  0.2087 -0.1109 -0.2416
22810SOL    HW172886   6.264   0.773  10.004 -1.9860 -0.0232 -1.2423
22810SOL    HW272887   6.320   0.639   9.961  0.3798  0.2655  0.6899
22811SOL     OW72888   3.651   1.526   2.284 -0.3366 -0.3831 -0.6367
22811SOL    HW172889   3.733   1.488   2.252  0.1514 -1.3014  1.4852
22811SOL    HW272890   3.674   1.616   2.307  0.3496 -0.8710  0.7115
22812SOL     OW72891   6.411   6.581   4.144 -0.1212 -0.5627 -0.6833
22812SOL    HW172892   6.318   6.584   4.120 -0.6034 -2.9966  0.4941
22812SOL    HW272893   6.410   6.578   4.240  1.4199  2.8030 -0.4382
22813SOL     OW72894   1.721  10.755   6.452 -0.1750 -0.4721  0.5160
22813SOL    HW172895   1.752  10.707   6.528 -0.4100 -0.5356  0.5698
22813SOL    HW272896   1.760  10.842   6.462 -0.4919 -0.3728  0.8904
22814SOL     OW72897   1.608   6.566   1.845 -0.8665 -0.4663 -0.0674
22814SOL    HW172898   1.609   6.508   1.768 -0.3878 -0.6142  0.0469
22814SOL    HW272899   1.676   6.630   1.827 -2.0612  0.6850 -0.6539
22815SOL     OW72900   7.659   3.244   1.615 -0.0637  0.0876  0.5886
22815SOL    HW172901   7.622   3.244   1.527 -1.3926  0.7182  1.1137
22815SOL    HW272902   7.586   3.271   1.672  0.7712 -0.2514  1.8741
22816SOL     OW72903   5.813   5.758   4.531 -0.2731  0.3163  0.2720
22816SOL    HW172904   5.907   5.739   4.534 -0.3207 -0.3141 -1.3733
22816SOL    HW272905   5.808   5.853   4.519  0.1720  0.2483 -0.4789
22817SOL     OW72906  10.640  10.140   3.049  0.0845 -0.3999 -0.2619
22817SOL    HW172907  10.631  10.052   3.012  1.0460 -1.5222  1.9823
22817SOL    HW272908  10.587  10.137   3.129  0.0904  1.1015 -0.1898
22818SOL     OW72909   8.962   2.758   6.813 -0.4712  0.3594  0.3214
22818SOL    HW172910   8.887   2.805   6.847  0.6750  0.7616  2.4361
22818SOL    HW272911   8.994   2.813   6.741 -1.7620  0.5133 -0.1633
22819SOL     OW72912   9.065   0.130   6.574 -0.4442 -0.3006 -0.2517
22819SOL    HW172913   9.061   0.058   6.637 -0.5998 -0.8424 -0.8706
22819SOL    HW272914   8.996   0.190   6.601  2.4593  1.9769  3.0354
22820SOL     OW72915   9.803   9.480   7.376  0.4964  0.3087 -0.9520
22820SOL    HW172916   9.894   9.483   7.349  2.4973  0.9504  4.5752
22820SOL    HW272917   9.801   9.414   7.445 -3.2360  0.5173 -0.6457
22821SOL     OW72918   9.692   3.448   6.118 -0.0050  0.2820 -0.4832
22821SOL    HW172919   9.762   3.499   6.078 -0.5082  0.2788 -1.3865
22821SOL    HW272920   9.717   3.442   6.210  1.8244 -0.7729 -0.9994
22822SOL     OW72921   2.422   7.287   1.586 -0.1550 -0.3792 -0.5264
22822SOL    HW172922   2.362   7.213   1.601 -0.3303  0.0170  0.8102
22822SOL    HW272923   2.387   7.330   1.508  1.7451 -3.4932 -3.3480
22823SOL     OW72924   9.417  10.695   2.484  0.0309 -0.4097  0.0719
22823SOL    HW172925   9.338  10.749   2.490  0.4513  0.2388 -0.1401
22823SOL    HW272926   9.406  10.647   2.401 -0.6428 -1.1583  0.5697
22824SOL     OW72927   9.172   1.887   8.249 -0.6104  0.0921  0.5888
22824SOL    HW172928   9.144   1.806   8.292 -2.8737  1.1547  1.2908
22824SOL    HW272929   9.182   1.862   8.157  0.0641 -1.2657  0.9963
22825SOL     OW72930   7.197   5.847   6.078 -0.5585 -0.0008 -0.1110
22825SOL    HW172931   7.292   5.852   6.065 -0.6388  2.0557 -0.1576
22825SOL    HW272932   7.184   5.874   6.169 -1.1301 -0.0920 -0.1627
22826SOL     OW72933   2.168   3.531   3.490  0.4561 -0.0731  0.3911
22826SOL    HW172934   2.131   3.604   3.540  0.5115 -0.3199  0.7982
22826SOL    HW272935   2.116   3.529   3.410  0.3861  0.3486  0.4238
22827SOL     OW72936   8.471   7.663   9.417 -0.2339  0.0963  0.2545
22827SOL    HW172937   8.473   7.758   9.425  0.2762  0.0803  0.3295
22827SOL    HW272938   8.379   7.640   9.426 -0.2724  0.5153  0.9774
22828SOL     OW72939   9.365   7.732   3.342  0.1062  0.0540 -0.2310
22828SOL    HW172940   9.361   7.636   3.342  1.1002 -0.0185 -1.4905
22828SOL    HW272941   9.331   7.757   3.428  2.7169 -1.5792  1.4485
22829SOL     OW72942   8.841   3.726   4.701 -0.2517  0.2557 -0.0111
22829SOL    HW172943   8.890   3.667   4.643 -0.4258  0.8854 -0.8150
22829SOL    HW272944   8.905   3.793   4.726 -0.0269 -0.3060  0.9807
22830SOL     OW72945   8.881  11.063   2.630  0.0941  0.3246  0.2090
22830SOL    HW172946   8.790  11.091   2.622  0.0184  0.7846  2.1318
22830SOL    HW272947   8.877  10.981   2.678  0.6477 -0.2727 -0.7369
22831SOL     OW72948   4.976   7.827   3.962 -0.0132 -0.0339 -0.3691
22831SOL    HW172949   4.992   7.882   3.886  0.9062  2.0923  1.2672
22831SOL    HW272950   5.042   7.853   4.026  0.4782 -3.0649  0.5462
22832SOL     OW72951   1.385   7.153   1.480 -0.1222 -0.2976  0.0993
22832SOL    HW172952   1.363   7.137   1.572  0.9837 -2.8917  0.0004
22832SOL    HW272953   1.311   7.117   1.431 -0.5925  0.8513 -0.0595
22833SOL     OW72954   4.231   4.371   2.784  0.3729  0.4838 -0.1161
22833SOL    HW172955   4.144   4.369   2.823  0.2333 -3.9112 -0.1487
22833SOL    HW272956   4.291   4.374   2.858  0.1822  1.1781  0.0124
22834SOL     OW72957   5.162   3.027   7.925  0.2731 -0.5748 -0.2398
22834SOL    HW172958   5.222   3.051   7.854 -0.1362 -0.9289 -0.7057
22834SOL    HW272959   5.187   3.085   7.997  0.8456 -0.3733 -0.5928
22835SOL     OW72960   2.086   5.956   2.666 -0.0515  0.1928  0.0655
22835SOL    HW172961   2.071   6.041   2.624 -0.1064 -0.1392 -0.6007
22835SOL    HW272962   2.163   5.920   2.621 -0.7913 -0.6675 -0.5523
22836SOL     OW72963   8.231   8.014   1.784 -0.6591  0.2490 -0.2728
22836SOL    HW172964   8.281   8.083   1.739  1.2212 -0.3291  0.8376
22836SOL    HW272965   8.268   7.932   1.752  0.3839 -0.1813  1.8744
22837SOL     OW72966   0.200   3.056   5.911  0.1580  0.0088 -0.0501
22837SOL    HW172967   0.119   3.103   5.927  1.6467  2.6057  0.4171
22837SOL    HW272968   0.187   3.013   5.826 -1.2156  1.4682 -0.6190
22838SOL     OW72969   1.385   6.486   6.089  0.0015  0.3021 -0.2872
22838SOL    HW172970   1.474   6.457   6.069 -0.0532 -0.2598  0.2402
22838SOL    HW272971   1.331   6.442   6.023  0.1005  0.5220 -0.5140
22839SOL     OW72972   7.468   6.624   7.474 -0.5881 -0.5941 -0.1721
22839SOL    HW172973   7.497   6.711   7.503  1.4391 -0.3309 -2.5989
22839SOL    HW272974   7.377   6.638   7.446 -1.1854  0.0609  1.8537
22840SOL     OW72975   9.188   3.446   2.149  0.7279 -0.6261 -0.1614
22840SOL    HW172976   9.186   3.481   2.060  4.0101  1.4952  0.4067
22840SOL    HW272977   9.178   3.352   2.139  2.8035 -0.6531 -2.9852
22841SOL     OW72978   2.757   2.929   1.459  0.3130  0.4096  0.4860
22841SOL    HW172979   2.758   2.841   1.422 -1.1763  0.8497 -0.6946
22841SOL    HW272980   2.846   2.962   1.443  0.8408 -0.8117  0.8138
22842SOL     OW72981   2.688   0.206   5.338 -0.4210  0.1373 -0.1500
22842SOL    HW172982   2.757   0.143   5.358 -0.7611 -0.7159 -1.5153
22842SOL    HW272983   2.678   0.258   5.418  1.3505 -0.1289  0.2830
22843SOL     OW72984   1.242   1.118   7.678  0.1698 -0.4293 -0.2967
22843SOL    HW172985   1.166   1.078   7.720 -0.1002 -1.8927 -2.0650
22843SOL    HW272986   1.279   1.176   7.745 -2.9722  1.0149  0.3475
22844SOL     OW72987   8.372   0.115   9.211  0.4676  0.3559 -0.0355
22844SOL    HW172988   8.407   0.145   9.295  1.0162  0.1278 -0.1833
22844SOL    HW272989   8.399   0.181   9.148  2.0757 -0.6323 -0.4474
22845SOL     OW72990   4.035   5.894   0.817 -0.4335 -0.3855  0.4279
22845SOL    HW172991   3.942   5.899   0.797  0.0771  2.8309 -1.9392
22845SOL    HW272992   4.039   5.897   0.912 -2.7189 -1.5209  0.6306
22846SOL     OW72993   9.943   8.273   7.321  0.1847  0.2154  0.3340
22846SOL    HW172994   9.886   8.307   7.390  0.0155 -0.7525  0.6910
22846SOL    HW272995   9.984   8.350   7.283 -0.6562  0.8580  0.6967
22847SOL     OW72996   0.328  10.911   7.943 -0.2329  0.1103  0.2916
22847SOL    HW172997   0.280  10.916   7.860 -1.2781  0.8019  0.9234
22847SOL    HW272998   0.268  10.868   8.003  1.0571 -1.7166  0.3563
22848SOL     OW72999   0.835   0.989   7.144 -0.3177 -0.1209  0.5577
22848SOL    HW173000   0.816   0.914   7.200  1.4047 -1.5206 -0.6212
22848SOL    HW273001   0.917   1.024   7.177 -0.7838  0.8972  0.6970
22849SOL     OW73002   0.889   1.196   2.195 -0.1738  0.1206 -0.4685
22849SOL    HW173003   0.912   1.108   2.225 -2.7082 -0.8759 -1.1606
22849SOL    HW273004   0.897   1.192   2.100 -0.0009  0.7565 -0.4859
22850SOL     OW73005   0.096   2.564   3.923 -0.2487 -0.4233  0.4286
22850SOL    HW173006   0.080   2.553   3.829  1.2670 -2.9582  0.3921
22850SOL    HW273007   0.047   2.643   3.946 -0.5187  0.3768 -2.5105
22851SOL     OW73008   0.634  10.152   0.718 -0.3827  0.1121 -0.4704
22851SOL    HW173009   0.615  10.103   0.798 -3.4834 -1.2721 -1.9105
22851SOL    HW273010   0.594  10.238   0.733  0.0967  0.2815 -0.1186
22852SOL     OW73011   7.264   6.451   0.928 -0.5277  1.0443 -0.0977
22852SOL    HW173012   7.206   6.477   0.856 -0.7546  0.0159 -0.2954
22852SOL    HW273013   7.252   6.520   0.994 -1.1717  1.3992 -0.5756
22853SOL     OW73014   5.087  11.060  10.268  0.1275 -0.3122 -0.6153
22853SOL    HW173015   5.005  11.054  10.316  0.7014 -0.7701  0.3410
22853SOL    HW273016   5.062  11.084  10.179 -1.0118 -0.1632 -0.2592
22854SOL     OW73017   1.092   3.195   0.498  0.1572 -0.0020  0.6198
22854SOL    HW173018   1.135   3.141   0.433  0.4161 -1.8667  2.2498
22854SOL    HW273019   1.161   3.252   0.532  0.7437 -1.1016  1.3237
22855SOL     OW73020   9.930   1.836   3.937  0.4111 -0.0532 -0.1653
22855SOL    HW173021   9.921   1.888   4.017  0.6562 -0.5508  0.1898
22855SOL    HW273022   9.994   1.884   3.885  1.9156 -0.8351  0.8745
22856SOL     OW73023   4.114   4.582   4.244  0.2836  0.0534  0.3708
22856SOL    HW173024   4.108   4.546   4.332 -0.0057 -0.4996  0.1269
22856SOL    HW273025   4.176   4.525   4.199 -0.7495 -0.6298 -0.2422
22857SOL     OW73026   9.918   9.367   0.401  0.3390  0.6190 -0.5371
22857SOL    HW173027   9.835   9.398   0.366 -0.2450 -0.4327 -0.1334
22857SOL    HW273028   9.909   9.272   0.404  1.1064  0.5583  0.6141
22858SOL     OW73029   7.185   7.324   8.377 -1.0950  0.2231  0.4879
22858SOL    HW173030   7.213   7.235   8.402 -0.2180 -0.0226 -1.1879
22858SOL    HW273031   7.140   7.358   8.454  1.1353 -0.5747  2.2598
22859SOL     OW73032   1.477   1.795   5.873  0.4956  0.5127 -0.0139
22859SOL    HW173033   1.540   1.778   5.803  2.0533  1.0839  1.1655
22859SOL    HW273034   1.523   1.769   5.953 -1.0568  0.2868  0.8474
22860SOL     OW73035   2.957   9.530   2.065  0.1608 -0.2683 -0.6667
22860SOL    HW173036   3.033   9.518   2.122  0.2980 -0.8289 -0.9608
22860SOL    HW273037   2.882   9.534   2.124  0.4172  0.3004 -0.3745
22861SOL     OW73038   6.676   7.921  10.340  1.3438 -0.2044  0.3443
22861SOL    HW173039   6.696   8.015  10.336 -1.4448  0.4689 -0.8878
22861SOL    HW273040   6.693   7.890  10.251 -2.1525  0.3566 -0.7083
22862SOL     OW73041   0.257   4.058   7.125 -0.1012 -0.8657  0.5459
22862SOL    HW173042   0.308   4.031   7.048  0.0470 -1.0821  0.7191
22862SOL    HW273043   0.185   4.108   7.089  0.4234 -0.2614  0.3184
22863SOL     OW73044   4.184   6.247   2.013  0.0993 -0.2195  0.3638
22863SOL    HW173045   4.197   6.240   1.919  1.5293  0.2327  0.5135
22863SOL    HW273046   4.097   6.210   2.028 -0.6889  0.8380 -1.2816
22864SOL     OW73047  10.562   3.221   4.521 -0.4477 -0.1605 -0.9132
22864SOL    HW173048  10.539   3.227   4.614  0.1714 -0.0635 -0.7680
22864SOL    HW273049  10.562   3.127   4.503  0.4017 -0.2319 -0.5698
22865SOL     OW73050   9.177   2.124   4.461 -0.1644 -0.0508  0.1466
22865SOL    HW173051   9.255   2.115   4.515 -0.8781 -0.9624  1.0741
22865SOL    HW273052   9.115   2.171   4.516  0.2153  2.1037 -1.1531
22866SOL     OW73053   5.975   0.560   1.989  0.3947 -0.1768 -0.0323
22866SOL    HW173054   6.049   0.519   1.942 -1.1126 -3.0202 -0.1623
22866SOL    HW273055   5.980   0.524   2.077 -0.8273 -0.4607 -0.0592
22867SOL     OW73056  10.509   3.587   5.399  0.2845 -0.1331  0.3555
22867SOL    HW173057  10.555   3.645   5.460 -0.4614  0.6459  0.1840
22867SOL    HW273058  10.437   3.639   5.365  0.0647 -0.9059 -0.4059
22868SOL     OW73059   0.397   4.549   0.309  0.3498 -0.1034  0.0795
22868SOL    HW173060   0.404   4.610   0.382  0.6289  0.2237 -0.2183
22868SOL    HW273061   0.465   4.484   0.325  1.3936  0.7870 -0.6557
22869SOL     OW73062   0.503   7.705   5.784  0.0500 -0.0933 -0.0975
22869SOL    HW173063   0.429   7.750   5.742  0.3469  0.2613 -0.2412
22869SOL    HW273064   0.558   7.775   5.819 -0.0796 -0.3824  0.7018
22870SOL     OW73065   5.512   9.858   6.544  0.7138  0.3142 -0.7336
22870SOL    HW173066   5.539   9.818   6.461  1.2554 -0.4183 -0.2157
22870SOL    HW273067   5.448   9.797   6.580  2.4653 -0.8018  0.6645
22871SOL     OW73068   6.621   7.400   7.733  0.0487 -0.9490 -0.1638
22871SOL    HW173069   6.652   7.392   7.642  1.9137  1.3301  0.1648
22871SOL    HW273070   6.702   7.399   7.785 -0.3391  3.7030  0.9086
22872SOL     OW73071   9.536   4.532   8.298  0.2265 -0.1262 -0.4185
22872SOL    HW173072   9.468   4.547   8.364  1.6050  0.3999  0.9496
22872SOL    HW273073   9.510   4.451   8.255 -0.5185 -0.7028  1.0474
22873SOL     OW73074   4.190   6.735   7.352 -0.4235 -0.4901  0.0266
22873SOL    HW173075   4.157   6.825   7.348 -0.9297 -0.6223  0.9287
22873SOL    HW273076   4.146   6.691   7.279  0.4901  0.1825 -0.9673
22874SOL     OW73077   7.319   3.709   2.555  0.5055 -0.3524  0.4659
22874SOL    HW173078   7.375   3.722   2.631  0.4636  0.8480  0.3126
22874SOL    HW273079   7.304   3.797   2.521  0.3333 -0.8489 -0.7985
22875SOL     OW73080   6.018   1.086   8.080 -0.1104  0.7016  0.2596
22875SOL    HW173081   5.956   1.154   8.106 -0.0783  1.0320 -0.4923
22875SOL    HW273082   6.029   1.099   7.986  1.0693  0.6335  0.3742
22876SOL     OW73083   9.757   8.071   2.923 -0.0298  0.4324  0.1509
22876SOL    HW173084   9.831   8.131   2.908 -0.2775  0.4482 -1.1078
22876SOL    HW273085   9.798   7.992   2.958  0.4048  0.9710  0.9079
22877SOL     OW73086   6.560   7.965   7.052  0.3024 -0.2127  0.0400
22877SOL    HW173087   6.607   7.896   7.098  1.2489 -0.0218 -0.5960
22877SOL    HW273088   6.476   7.971   7.095 -0.5024 -2.9563 -0.9711
22878SOL     OW73089   6.194   8.740   6.104 -0.2652  0.2272 -0.3887
22878SOL    HW173090   6.230   8.657   6.075  0.6177  0.2398  0.6222
22878SOL    HW273091   6.178   8.789   6.023  1.5252  0.0179 -0.9136
22879SOL     OW73092  10.295   8.543   8.389  0.1557  0.3171  0.2155
22879SOL    HW173093  10.353   8.521   8.463  1.1498  1.0008 -0.3312
22879SOL    HW273094  10.302   8.639   8.382  0.4108  0.2260 -1.0178
22880SOL     OW73095   5.965   0.968   7.178  0.1217  0.0472 -0.3078
22880SOL    HW173096   5.902   0.898   7.194  0.8590 -0.4476  0.4759
22880SOL    HW273097   5.996   0.952   7.089  0.8474 -1.1001  0.1262
22881SOL     OW73098   3.948   2.351  11.005  1.0487  0.2515 -0.3432
22881SOL    HW173099   3.858   2.381  10.991  1.4960  2.2358  0.6438
22881SOL    HW273100   3.940   2.264  11.043 -0.4427  0.2771 -0.5632
22882SOL     OW73101   3.295   7.836  11.039 -0.2875  0.4741 -0.6174
22882SOL    HW173102   3.213   7.817  10.993  1.3970 -1.7931 -3.0130
22882SOL    HW273103   3.353   7.869  10.970  0.8335  2.0682  1.0265
22883SOL     OW73104   5.582   0.588   7.534 -0.2575  1.1324 -0.1493
22883SOL    HW173105   5.501   0.622   7.574  0.2447  0.4975  1.5205
22883SOL    HW273106   5.608   0.517   7.593 -0.8665 -1.7091 -3.0184
22884SOL     OW73107   2.121   5.208   9.310  0.5913 -0.2194 -0.0202
22884SOL    HW173108   2.075   5.211   9.226  0.0367 -1.7011  0.1829
22884SOL    HW273109   2.211   5.186   9.288  0.7398  0.6580 -0.2978
22885SOL     OW73110   6.187   0.995   7.332  0.1890  0.1849 -0.2143
22885SOL    HW173111   6.096   1.004   7.307  0.4490  1.4481 -0.7686
22885SOL    HW273112   6.210   0.905   7.310 -0.8380 -0.0592 -0.3099
22886SOL     OW73113   1.577   6.133   7.199  0.2086 -0.7214 -0.1486
22886SOL    HW173114   1.626   6.086   7.266 -0.4032 -0.5692  0.4205
22886SOL    HW273115   1.603   6.224   7.209  1.4022 -0.9094 -1.2595
22887SOL     OW73116   5.497   3.135   6.917  0.0765  0.2276  0.3261
22887SOL    HW173117   5.517   3.117   6.825  0.6141  1.3978  0.1901
22887SOL    HW273118   5.401   3.141   6.920 -0.0324 -1.1885  0.1301
22888SOL     OW73119   3.389  10.824   1.590  0.5184 -0.0688  0.1042
22888SOL    HW173120   3.421  10.734   1.584  0.1193 -0.1514 -1.0228
22888SOL    HW273121   3.334  10.835   1.512 -1.0426  0.5177  1.2372
22889SOL     OW73122   8.360  10.262   0.416  0.0795  0.2194 -0.6354
22889SOL    HW173123   8.434  10.322   0.423  3.1360 -3.1950 -0.6650
22889SOL    HW273124   8.334  10.244   0.507  1.2769 -0.7050 -0.4530
22890SOL     OW73125   4.719   8.445   9.553  0.0189  1.1435 -0.4076
22890SOL    HW173126   4.700   8.411   9.465 -1.0088  0.3501  0.1038
22890SOL    HW273127   4.650   8.409   9.608  1.1453  0.9157  0.9039
22891SOL     OW73128   1.342   9.597   7.503 -0.2382 -0.3569 -0.0121
22891SOL    HW173129   1.322   9.547   7.583 -3.3546  0.6680 -0.0216
22891SOL    HW273130   1.340   9.688   7.531 -2.5872  0.0932 -1.3838
22892SOL     OW73131   3.511   4.647   0.509 -0.7443 -0.2474  0.3574
22892SOL    HW173132   3.484   4.637   0.600 -0.8355  1.4936  0.5496
22892SOL    HW273133   3.462   4.580   0.462 -1.3996 -0.5556  1.4438
22893SOL     OW73134   4.381   6.842   6.639  0.6491  0.2823 -0.9597
22893SOL    HW173135   4.397   6.937   6.637  0.3960  0.3162 -1.8433
22893SOL    HW273136   4.468   6.803   6.645  0.8143  0.5588 -1.4795
22894SOL     OW73137   5.811  10.980   2.836 -0.3544 -0.0554 -0.2199
22894SOL    HW173138   5.738  11.038   2.858 -0.5946  0.0904 -1.3533
22894SOL    HW273139   5.883  11.040   2.815 -0.5675 -0.1574 -1.2739
22895SOL     OW73140   7.710   0.874   9.013 -0.4015 -0.7965  0.1070
22895SOL    HW173141   7.692   0.815   8.940 -0.2646 -0.9752  0.2160
22895SOL    HW273142   7.635   0.865   9.071 -0.6073 -0.5000 -0.1099
22896SOL     OW73143   4.895   5.339   7.973  0.0022  0.2418 -0.2275
22896SOL    HW173144   4.805   5.340   8.007  0.3861  0.5406  0.8361
22896SOL    HW273145   4.905   5.253   7.932 -0.6102  0.0064  0.1042
22897SOL     OW73146   6.096   2.516   6.787  0.3975  0.0771 -0.5359
22897SOL    HW173147   6.097   2.427   6.820  1.5069  0.8103  1.5562
22897SOL    HW273148   6.031   2.561   6.841 -0.2450  0.5527 -1.6508
22898SOL     OW73149  11.037   7.211   8.577  0.0475 -0.0997  0.0835
22898SOL    HW173150  11.097   7.136   8.577 -0.5717 -0.6225  0.9194
22898SOL    HW273151  10.965   7.184   8.520  0.7199  0.6467 -1.1587
22899SOL     OW73152   8.611   2.955   2.959 -0.0161 -0.3652 -0.4823
22899SOL    HW173153   8.705   2.963   2.972  0.3741 -1.0005 -2.4576
22899SOL    HW273154   8.585   2.878   3.011  0.3756  0.3006  0.7228
22900SOL     OW73155  10.822   6.824   9.148  0.2318 -0.5429 -0.4417
22900SOL    HW173156  10.803   6.731   9.161  1.2806 -1.1400 -2.6967
22900SOL    HW273157  10.752   6.854   9.090 -0.0080  0.0715  0.1501
22901SOL     OW73158   6.709   9.371   8.454  0.3957  0.0566  0.0024
22901SOL    HW173159   6.687   9.446   8.510 -0.0200 -0.2240  0.2233
22901SOL    HW273160   6.796   9.390   8.421 -0.5209  1.6887 -1.6657
22902SOL     OW73161   9.492   1.164   2.311 -0.6924 -0.1838  0.1598
22902SOL    HW173162   9.550   1.146   2.238 -0.8099  0.4257 -0.0899
22902SOL    HW273163   9.535   1.123   2.386  0.3244  0.6691  0.0727
22903SOL     OW73164   7.946   1.831   1.365 -0.1477  0.1061 -0.1512
22903SOL    HW173165   8.027   1.813   1.318 -0.1070  0.9193 -0.4023
22903SOL    HW273166   7.923   1.921   1.340 -1.2601 -0.2100 -0.2803
22904SOL     OW73167   1.208   7.808   9.612  0.3467  0.2508 -0.3891
22904SOL    HW173168   1.156   7.791   9.534 -0.0925  2.0114 -0.5090
22904SOL    HW273169   1.192   7.732   9.668 -1.1475  0.0373 -1.0690
22905SOL     OW73170   2.888   6.371   0.166  0.5139 -0.1319 -0.8388
22905SOL    HW173171   2.924   6.429   0.233  0.8652 -1.3896  0.0995
22905SOL    HW273172   2.961   6.353   0.106  0.1398  1.1791 -1.7318
22906SOL     OW73173   1.786   4.659   9.850  0.1892 -0.2315  0.0871
22906SOL    HW173174   1.704   4.699   9.820  0.2481 -0.5372 -0.4897
22906SOL    HW273175   1.759   4.604   9.924 -0.7346 -2.9505 -2.0788
22907SOL     OW73176   6.685   3.144   1.382  0.0361  0.2341 -0.0389
22907SOL    HW173177   6.705   3.117   1.472  1.0546  1.2868  0.0741
22907SOL    HW273178   6.589   3.140   1.376 -0.0045 -0.5041  0.8659
22908SOL     OW73179  10.231   7.633   8.577 -0.7995  0.8236 -0.2437
22908SOL    HW173180  10.272   7.616   8.661 -1.4158 -0.5190 -0.2022
22908SOL    HW273181  10.273   7.714   8.546  1.1707  0.0350  0.2388
22909SOL     OW73182   2.133   1.401   0.924  0.1611 -0.5135  0.2004
22909SOL    HW173183   2.136   1.373   0.832  1.7101  0.1776  0.0134
22909SOL    HW273184   2.216   1.371   0.961 -0.0488  0.0304  1.1351
22910SOL     OW73185   7.307   7.740   8.574 -0.2907  0.4718  0.3184
22910SOL    HW173186   7.309   7.694   8.490 -0.1071 -1.0355  1.1208
22910SOL    HW273187   7.264   7.823   8.554  2.0598  1.3032 -1.8098
22911SOL     OW73188   2.668   3.616   6.838  0.3535  0.3058  0.3956
22911SOL    HW173189   2.735   3.666   6.885  0.2352 -1.3513  2.4658
22911SOL    HW273190   2.703   3.527   6.834 -2.0883 -0.8537  2.4373
22912SOL     OW73191   2.537  10.140   3.712  0.0068 -0.5109 -0.5933
22912SOL    HW173192   2.500  10.055   3.737 -0.0235  0.4023  3.0796
22912SOL    HW273193   2.614  10.118   3.660  0.3076 -2.8652  0.6864
22913SOL     OW73194   6.056   9.327  10.721  0.0728  0.3973 -0.0033
22913SOL    HW173195   6.110   9.389  10.770 -0.7772  1.3521 -0.2299
22913SOL    HW273196   6.074   9.242  10.761  0.8278  0.8749  0.6976
22914SOL     OW73197   6.386   9.588   3.863 -0.5094 -0.2359 -0.0205
22914SOL    HW173198   6.415   9.660   3.808 -1.0356 -1.1199 -1.5093
22914SOL    HW273199   6.315   9.547   3.814 -2.0957 -0.1167  2.0258
22915SOL     OW73200   9.535   2.312   5.640  0.0550  0.6829  0.3138
22915SOL    HW173201   9.565   2.399   5.665 -0.3964  1.4753 -1.7288
22915SOL    HW273202   9.441   2.322   5.628  0.2458  0.4475 -1.7909
22916SOL     OW73203   7.691   7.059   2.021  0.3412  0.1943  0.5300
22916SOL    HW173204   7.665   7.037   2.110  1.1763 -0.6874  0.5743
22916SOL    HW273205   7.760   7.126   2.032  0.2382  0.3013  0.5299
22917SOL     OW73206   9.491   9.667   2.696  0.1273  0.0958 -0.5775
22917SOL    HW173207   9.407   9.710   2.677  1.1553  1.9277 -1.2153
22917SOL    HW273208   9.470   9.602   2.764 -1.8582  0.2506 -0.9858
22918SOL     OW73209   7.483   6.984   7.296  0.5403 -0.3379 -0.5458
22918SOL    HW173210   7.516   6.972   7.385  2.0058 -0.4882 -1.0768
22918SOL    HW273211   7.508   7.074   7.273 -1.3673  0.3105 -0.2112
22919SOL     OW73212  10.183   1.072   6.842 -0.6288 -0.1165  0.3007
22919SOL    HW173213  10.240   1.148   6.844 -0.5439 -0.1781  2.5067
22919SOL    HW273214  10.105   1.101   6.795 -0.0960  0.9378  0.0551
22920SOL     OW73215   2.388   5.080   8.468  0.1736  0.2082  0.2767
22920SOL    HW173216   2.296   5.069   8.447  0.4191 -0.2684 -0.5851
22920SOL    HW273217   2.422   4.991   8.474  0.8239  0.3897 -0.5558
22921SOL     OW73218   2.259   2.884   0.717  0.5702  0.7283  0.2848
22921SOL    HW173219   2.329   2.902   0.655  1.2899  1.1933  1.2089
22921SOL    HW273220   2.187   2.941   0.690  0.1807 -0.3908 -1.2141
22922SOL     OW73221   4.436   9.565   2.239  0.1705 -0.2510 -0.1210
22922SOL    HW173222   4.493   9.492   2.212  0.6267  0.4213 -1.0288
22922SOL    HW273223   4.489   9.643   2.224  0.3296  0.2149  2.4727
22923SOL     OW73224   3.443   5.199   9.300 -1.2544 -0.2958  0.1706
22923SOL    HW173225   3.439   5.187   9.395  2.7944 -0.1223  0.5178
22923SOL    HW273226   3.444   5.293   9.287  1.2400 -0.2445  0.3049
22924SOL     OW73227   7.166   2.211   7.793 -0.1053 -0.6547  0.1419
22924SOL    HW173228   7.088   2.253   7.756 -0.5136 -1.2563  0.3172
22924SOL    HW273229   7.181   2.257   7.876  0.1331 -0.0800 -0.2130
22925SOL     OW73230   4.046   0.465   6.665  0.0270 -0.0561  0.2583
22925SOL    HW173231   4.062   0.438   6.575  0.0651 -1.1358  0.5675
22925SOL    HW273232   3.950   0.468   6.672  0.0312  0.7275 -0.0115
22926SOL     OW73233   3.884   6.705   3.645  0.3300 -0.2761 -0.3851
22926SOL    HW173234   3.819   6.743   3.587 -0.3693  0.6175  0.9147
22926SOL    HW273235   3.968   6.737   3.611  0.0644 -0.8670 -1.6562
22927SOL     OW73236   1.653   3.268   7.754  0.3292  0.0800 -0.2002
22927SOL    HW173237   1.635   3.198   7.817 -0.0953  0.6959  0.3851
22927SOL    HW273238   1.695   3.336   7.805 -0.3126  0.7223 -0.5027
22928SOL     OW73239   4.680   3.686   2.401 -0.0889  0.0071  0.5908
22928SOL    HW173240   4.771   3.666   2.421  0.3873  0.1568 -1.2956
22928SOL    HW273241   4.631   3.652   2.476  1.3127 -2.0182  0.6525
22929SOL     OW73242   6.449   2.715   0.760  0.7065 -0.2971  0.3513
22929SOL    HW173243   6.387   2.713   0.688 -0.3047 -0.7007  1.2116
22929SOL    HW273244   6.478   2.624   0.770 -0.1901 -0.4891  1.3144
22930SOL     OW73245   7.976   2.155   7.485 -0.2391 -1.1865 -0.0605
22930SOL    HW173246   7.996   2.062   7.478  0.2611 -1.1060  0.2256
22930SOL    HW273247   8.059   2.196   7.508 -0.5473 -0.7285  0.2792
22931SOL     OW73248  10.981   6.640   0.768 -0.0108 -0.5312 -0.4778
22931SOL    HW173249  10.899   6.634   0.816 -0.1584 -0.5058 -0.7245
22931SOL    HW273250  11.043   6.589   0.820 -0.1614 -0.4758 -0.2443
22932SOL     OW73251   5.236   4.273   8.028  0.3624  0.5931 -0.0339
22932SOL    HW173252   5.161   4.331   8.039 -0.6342  0.6445 -4.7774
22932SOL    HW273253   5.208   4.189   8.062 -0.3189  1.4739  1.7062
22933SOL     OW73254   7.659   6.415  10.107 -0.7183 -0.1436  0.3965
22933SOL    HW173255   7.568   6.440  10.095 -1.3561 -1.6648  1.6666
22933SOL    HW273256   7.669   6.335  10.055 -0.0958  0.0408  0.2243
22934SOL     OW73257  10.659   8.289   7.146 -0.0573 -0.2800 -0.5626
22934SOL    HW173258  10.627   8.366   7.099 -0.7620 -0.6019 -0.6277
22934SOL    HW273259  10.708   8.325   7.219 -2.2879  0.2923  0.7452
22935SOL     OW73260   0.978   1.440   8.123 -0.2651 -0.1075 -0.1840
22935SOL    HW173261   0.959   1.515   8.180  0.0358  0.6980 -1.1244
22935SOL    HW273262   1.015   1.479   8.044  2.3740 -1.3871  0.3227
22936SOL     OW73263   7.760   1.501   1.124  0.5258 -0.0889  0.7802
22936SOL    HW173264   7.792   1.462   1.042  0.3288 -0.7434  1.0103
22936SOL    HW273265   7.666   1.484   1.123  0.4316  0.4223  0.8660
22937SOL     OW73266   4.384   7.314  10.838  0.2412  0.2494 -0.1413
22937SOL    HW173267   4.455   7.377  10.826 -0.6743  1.9166  2.2781
22937SOL    HW273268   4.312   7.348  10.785  1.1345 -1.4779 -2.6498
22938SOL     OW73269   2.607  10.613   8.846 -0.2840 -0.4656 -0.2807
22938SOL    HW173270   2.685  10.668   8.847 -0.4438 -0.2470  0.7281
22938SOL    HW273271   2.639  10.525   8.863 -0.4112 -0.1474  1.7657
22939SOL     OW73272   1.976   3.426   8.262  0.6292 -0.2814  0.0151
22939SOL    HW173273   1.960   3.450   8.353 -0.1666  0.9051 -0.4116
22939SOL    HW273274   1.969   3.508   8.214  2.2907 -0.6852 -0.9823
22940SOL     OW73275   1.003   1.475   7.582 -0.2492 -0.5300 -0.1109
22940SOL    HW173276   0.967   1.531   7.513 -2.1655  0.3299  1.4813
22940SOL    HW273277   1.078   1.432   7.541 -0.6362  0.7683 -2.3734
22941SOL     OW73278   5.126   0.476   0.113 -0.3599  0.2979  0.3655
22941SOL    HW173279   5.213   0.448   0.081 -0.1999  0.8552  0.3112
22941SOL    HW273280   5.072   0.480   0.034 -0.5179 -0.3262  0.4343
22942SOL     OW73281  10.773   0.460   3.523  0.2383  0.4529  0.0728
22942SOL    HW173282  10.854   0.505   3.497 -0.1183  1.7389  1.0796
22942SOL    HW273283  10.704   0.510   3.479 -0.1622  0.8918  1.1701
22943SOL     OW73284   2.898   0.949   9.278 -0.1711  0.0837  0.1931
22943SOL    HW173285   2.890   1.025   9.335 -0.0710 -0.5926  1.1347
22943SOL    HW273286   2.992   0.941   9.261 -0.1447 -0.0645  0.4149
22944SOL     OW73287   3.229   8.859   9.357 -0.0281  0.4354  0.3700
22944SOL    HW173288   3.298   8.923   9.341  0.8838 -0.1666  1.7385
22944SOL    HW273289   3.250   8.786   9.299 -0.7387  1.0909 -0.7587
22945SOL     OW73290   9.821   2.855   0.518  0.5954  0.7295 -0.1388
22945SOL    HW173291   9.908   2.882   0.547 -0.3121  1.1641  2.4095
22945SOL    HW273292   9.836   2.818   0.430  3.1935  1.4882 -0.1093
22946SOL     OW73293   9.951  10.529   6.539 -0.1272 -0.9329  0.4644
22946SOL    HW173294  10.011  10.584   6.590 -0.7146 -2.1574  2.6124
22946SOL    HW273295   9.889  10.591   6.502  1.3925  0.1889 -0.3397
22947SOL     OW73296   7.818   9.800   3.050  0.4928  0.5065 -0.6057
22947SOL    HW173297   7.879   9.726   3.053  0.0212  0.1045 -0.7843
22947SOL    HW273298   7.831   9.838   2.963  1.1169  0.9723 -0.3214
22948SOL     OW73299   7.640   9.974   5.432  0.3869 -0.0518 -0.3056
22948SOL    HW173300   7.690   9.957   5.512 -0.9648 -1.6199  0.2685
22948SOL    HW273301   7.615   9.887   5.400 -0.6572  0.6122 -1.4023
22949SOL     OW73302   2.727  10.371   4.350 -0.5834 -0.0707  0.0769
22949SOL    HW173303   2.804  10.318   4.331 -0.0345  0.5437  0.5187
22949SOL    HW273304   2.660  10.308   4.376 -0.7617 -0.7728 -1.8950
22950SOL     OW73305   8.657   0.784   5.068  0.5296 -0.4575  0.1571
22950SOL    HW173306   8.584   0.846   5.074  1.2473  0.3576  0.8101
22950SOL    HW273307   8.713   0.807   5.142 -0.3590 -3.4782  1.9336
22951SOL     OW73308   3.853   5.949  10.915 -0.3091 -0.3972  0.0363
22951SOL    HW173309   3.856   6.010  10.841 -0.6311  0.1189  0.4413
22951SOL    HW273310   3.760   5.926  10.922 -0.5907  1.0226  1.4462
22952SOL     OW73311   1.738   6.819   6.618 -0.1413 -0.0174  0.4592
22952SOL    HW173312   1.713   6.792   6.706  0.9352 -0.5230  0.6283
22952SOL    HW273313   1.681   6.769   6.560  1.6904 -2.7100  0.7640
22953SOL     OW73314   2.505   7.990   2.963 -0.6576  0.1834 -0.9806
22953SOL    HW173315   2.591   7.959   2.993 -0.3318  1.5399 -0.4276
22953SOL    HW273316   2.524   8.068   2.911 -1.4101 -0.7764 -2.7814
22954SOL     OW73317   3.521   5.495   6.952  0.5282 -0.2519  0.1452
22954SOL    HW173318   3.438   5.501   6.905  0.4689  0.9506  0.3697
22954SOL    HW273319   3.551   5.586   6.960  1.7924 -0.6542  0.2079
22955SOL     OW73320   1.138   9.915   9.661  0.4153 -0.0948  0.0786
22955SOL    HW173321   1.106   9.875   9.580  0.6388  0.3112 -0.2158
22955SOL    HW273322   1.105   9.859   9.730  1.8343 -1.5732 -0.3772
22956SOL     OW73323  11.044  10.274   0.629 -0.7236 -0.0117  0.4877
22956SOL    HW173324  11.055  10.244   0.539  0.3861  1.3912  0.1053
22956SOL    HW273325  11.066  10.199   0.683 -1.4047 -0.8755 -0.4093
22957SOL     OW73326   1.459   1.826   9.191 -0.2678 -0.2702  0.0077
22957SOL    HW173327   1.448   1.902   9.248 -0.2718  0.3374 -0.7869
22957SOL    HW273328   1.553   1.819   9.178 -0.2259 -0.7694  0.5642
22958SOL     OW73329   6.715   3.539   9.015 -0.2169 -0.0797 -0.2688
22958SOL    HW173330   6.780   3.489   9.065  1.4214  1.0868 -1.1544
22958SOL    HW273331   6.720   3.627   9.051 -1.0706  0.1223 -0.6199
22959SOL     OW73332   3.094   3.482  11.009 -0.6452 -0.4377  0.4092
22959SOL    HW173333   3.054   3.521  11.087  1.5053 -0.7385  1.7415
22959SOL    HW273334   3.183   3.517  11.007 -0.7309 -0.1832 -2.1433
22960SOL     OW73335   7.859   8.908   3.037  0.4846  0.2742  0.2161
22960SOL    HW173336   7.787   8.923   3.098 -0.3351 -1.5187 -0.2609
22960SOL    HW273337   7.867   8.991   2.989  1.2614  1.8012  2.7623
22961SOL     OW73338   3.625   2.537   3.666 -0.1443  0.0093  0.1301
22961SOL    HW173339   3.531   2.553   3.673  0.0645  1.4934 -0.1195
22961SOL    HW273340   3.634   2.475   3.593 -0.9831 -0.9060  0.7913
22962SOL     OW73341   7.354   4.203   2.264  0.0796  0.2142  0.1479
22962SOL    HW173342   7.276   4.251   2.290 -0.7462  0.0510 -1.8515
22962SOL    HW273343   7.337   4.176   2.174  1.5327 -1.7200  0.3792
22963SOL     OW73344   3.765   0.661   1.300 -0.6100  0.7177 -0.2352
22963SOL    HW173345   3.852   0.635   1.270 -1.0377 -1.3504  0.1619
22963SOL    HW273346   3.711   0.660   1.222 -0.8980 -0.9852 -0.0592
22964SOL     OW73347   9.429  10.626   3.427  0.6834  0.5866 -0.1826
22964SOL    HW173348   9.409  10.685   3.500  1.6916  0.2652  0.3762
22964SOL    HW273349   9.352  10.570   3.419  0.0330  1.4563 -0.2155
22965SOL     OW73350   4.937  10.260   2.057  0.1220  0.0515 -0.4169
22965SOL    HW173351   4.982  10.342   2.079 -0.2806  0.2313 -0.2496
22965SOL    HW273352   4.847  10.286   2.040  0.2020 -0.2164 -1.3476
22966SOL     OW73353   5.900   8.690   7.173 -0.1338 -0.0100 -0.0958
22966SOL    HW173354   5.931   8.660   7.258  0.6245  0.4448 -0.2069
22966SOL    HW273355   5.805   8.681   7.177 -0.3277  2.0631  1.6233
22967SOL     OW73356   0.613   9.275   4.023 -0.0124  0.3313 -0.5109
22967SOL    HW173357   0.632   9.201   3.966 -0.3537  1.5537 -2.2974
22967SOL    HW273358   0.696   9.323   4.028  0.2910 -0.2984  0.8865
22968SOL     OW73359   0.446   0.806   8.319  0.2244 -0.3730 -0.4878
22968SOL    HW173360   0.411   0.803   8.408  0.8975  2.4478 -0.0098
22968SOL    HW273361   0.368   0.818   8.264  0.0123  1.4956  0.1374
22969SOL     OW73362  10.930   2.005   2.048  0.6762 -0.2350 -0.2598
22969SOL    HW173363  10.848   1.986   2.092  1.3445  0.1877  1.2311
22969SOL    HW273364  10.941   2.100   2.056  0.2093  0.0689 -2.4988
22970SOL     OW73365   8.552   7.588   6.118  0.0298  0.3404  0.6188
22970SOL    HW173366   8.547   7.562   6.209 -3.1910  0.2856  0.5526
22970SOL    HW273367   8.546   7.506   6.069 -1.8188  0.5341  0.4316
22971SOL     OW73368   1.818   0.463   3.010  0.4545 -0.2570 -0.5211
22971SOL    HW173369   1.770   0.405   2.951 -3.0553 -0.3501  2.0992
22971SOL    HW273370   1.794   0.552   2.982 -0.8794 -0.2972  0.3817
22972SOL     OW73371   6.922   1.306   7.359  0.0049  0.0294  0.0966
22972SOL    HW173372   6.924   1.213   7.380 -0.3406  0.1639  0.7412
22972SOL    HW273373   6.877   1.311   7.275  2.9545 -0.6878 -1.6875
22973SOL     OW73374   6.052   8.360   3.428  0.2253  0.2859  0.1918
22973SOL    HW173375   6.016   8.373   3.516  1.3744  0.6213  0.6421
22973SOL    HW273376   6.147   8.366   3.441  0.3966  0.7748 -1.1390
22974SOL     OW73377   7.921   5.752   6.004 -0.2023  0.5996  0.2909
22974SOL    HW173378   7.867   5.805   6.063 -1.0075 -0.8440  0.9147
22974SOL    HW273379   7.914   5.663   6.038  2.4493  0.3020  0.2571
22975SOL     OW73380   6.234   6.168   2.267 -0.0638  0.0642 -1.0098
22975SOL    HW173381   6.319   6.170   2.224  0.1357 -0.4742 -0.6414
22975SOL    HW273382   6.252   6.138   2.355 -0.5837  0.3564 -0.7988
22976SOL     OW73383   4.023   7.697   3.019  0.3044 -0.5055  0.1074
22976SOL    HW173384   4.083   7.639   2.972  0.1071 -0.7334  0.1351
22976SOL    HW273385   3.940   7.651   3.019 -0.2961  0.5296 -1.3265
22977SOL     OW73386   9.600  10.804   6.946  0.1184  0.4361  0.1235
22977SOL    HW173387   9.693  10.805   6.924  0.1626  1.8587  0.2801
22977SOL    HW273388   9.582  10.713   6.972  1.1964 -0.1189 -0.9437
22978SOL     OW73389   3.449   9.552   3.053  0.5643  0.6666 -0.0688
22978SOL    HW173390   3.397   9.474   3.032  0.3717  0.1558  2.0995
22978SOL    HW273391   3.529   9.543   3.001  0.4773 -0.8965  0.0368
22979SOL     OW73392   4.074   6.908   0.591  0.1481 -0.9087 -0.1770
22979SOL    HW173393   4.101   6.820   0.619  1.0698 -0.4941  0.2696
22979SOL    HW273394   4.070   6.959   0.671  2.8185  0.2987 -0.6920
22980SOL     OW73395   0.008   3.716   1.955 -0.0973 -0.2166  0.1430
22980SOL    HW173396   0.062   3.638   1.970  0.8487  0.2680 -0.5899
22980SOL    HW273397   0.065   3.774   1.903  0.4603  2.3232  3.3038
22981SOL     OW73398  10.166   4.047   7.288  0.0179  0.0712  0.3708
22981SOL    HW173399  10.108   4.052   7.364  0.1627 -0.1591  0.4961
22981SOL    HW273400  10.237   4.109   7.309 -0.0760  0.2012  0.3071
22982SOL     OW73401   7.281   5.734   5.429  0.1053 -0.1169 -0.6815
22982SOL    HW173402   7.230   5.722   5.509  0.5196  1.4966 -0.1437
22982SOL    HW273403   7.326   5.650   5.416  0.9587 -0.0279  1.4379
22983SOL     OW73404   3.416   0.335   3.336  0.1890  0.4552  0.4752
22983SOL    HW173405   3.395   0.384   3.256  0.4684  0.8747  0.6541
22983SOL    HW273406   3.436   0.403   3.401  1.5416  0.1012  0.4651
22984SOL     OW73407   3.248   3.400   7.121  0.5230 -0.5070  0.4463
22984SOL    HW173408   3.219   3.489   7.143  1.2700  0.1313 -1.0058
22984SOL    HW273409   3.237   3.351   7.202  0.3680  0.9869  1.3801
22985SOL     OW73410   1.493   7.344   1.713  0.1144 -0.3091 -0.6689
22985SOL    HW173411   1.469   7.326   1.623 -1.1558 -3.0713  0.1094
22985SOL    HW273412   1.432   7.413   1.741 -0.9613 -0.9801 -1.3038
22986SOL     OW73413   9.811   5.652   7.065  0.0220 -0.1895  0.2603
22986SOL    HW173414   9.855   5.677   6.984  1.1016  0.6701  1.0878
22986SOL    HW273415   9.864   5.691   7.135 -0.3861 -1.6278  1.4303
22987SOL     OW73416   4.385   3.286   6.593 -0.0872  0.3130  0.1609
22987SOL    HW173417   4.433   3.231   6.531  0.5174  1.4467 -0.4075
22987SOL    HW273418   4.298   3.295   6.555 -0.0787  0.0488  0.0748
22988SOL     OW73419   4.572   2.365   6.408 -0.2435 -0.1781  0.6841
22988SOL    HW173420   4.516   2.401   6.339 -1.5977 -1.3878  1.1064
22988SOL    HW273421   4.511   2.342   6.479  0.7857 -1.4189  1.2100
22989SOL     OW73422  10.535   0.747  10.321  0.2670 -0.0023  0.2295
22989SOL    HW173423  10.458   0.770  10.373 -1.1523  0.4719 -1.9560
22989SOL    HW273424  10.523   0.794  10.239  1.4619 -2.1403 -1.2625
22990SOL     OW73425   4.197  10.371   8.762  1.0713  0.8480 -0.0509
22990SOL    HW173426   4.244  10.440   8.807 -0.9323  2.6340 -0.5252
22990SOL    HW273427   4.196  10.399   8.670  0.2002  0.2024 -0.2514
22991SOL     OW73428   4.607   1.803   0.302  0.2201 -0.4439  0.7598
22991SOL    HW173429   4.697   1.814   0.331  0.5563 -2.3010  0.5771
22991SOL    HW273430   4.556   1.794   0.382 -0.0627  2.0192  0.9089
22992SOL     OW73431   0.157   3.143   0.100  0.5670  0.2755 -0.1235
22992SOL    HW173432   0.237   3.157   0.049 -0.1703  0.5581 -1.2366
22992SOL    HW273433   0.087   3.183   0.048 -0.3421 -0.1586  0.7162
22993SOL     OW73434  11.054  10.619   5.760  0.8868 -0.0701  0.7458
22993SOL    HW173435  11.114  10.660   5.697 -0.6734  1.1252 -0.0209
22993SOL    HW273436  11.085  10.649   5.846  1.3639  0.5663  0.3591
22994SOL     OW73437   9.016   7.985   2.388  0.3074 -0.1555 -0.5423
22994SOL    HW173438   8.945   7.937   2.345  0.6657 -1.7908  0.6356
22994SOL    HW273439   9.095   7.935   2.368  0.5598 -0.6549  1.4995
22995SOL     OW73440   0.587   0.273   5.019  0.0731 -0.3533 -0.2338
22995SOL    HW173441   0.587   0.188   5.064 -0.1142  0.0096  0.4647
22995SOL    HW273442   0.494   0.289   5.000 -0.1348  0.5745  1.3624
22996SOL     OW73443   1.013   5.785   3.786  0.3225  0.0869  0.1209
22996SOL    HW173444   1.077   5.851   3.760 -1.2516  0.9418 -1.8250
22996SOL    HW273445   1.009   5.724   3.711  0.3837 -1.1664  1.0998
22997SOL     OW73446   1.463   6.193   8.788 -0.2326 -0.1590 -0.1247
22997SOL    HW173447   1.376   6.158   8.810 -0.7342 -0.2982 -2.1574
22997SOL    HW273448   1.510   6.119   8.751  0.7110 -0.0250  0.7650
22998SOL     OW73449   1.703   8.853   8.220  0.0270 -0.5109 -0.2722
22998SOL    HW173450   1.641   8.848   8.293 -0.7189 -0.0837 -0.8580
22998SOL    HW273451   1.759   8.927   8.241 -0.2886 -0.2884 -0.1971
22999SOL     OW73452   6.907  10.330   2.681 -0.1528  0.1062 -0.2015
22999SOL    HW173453   6.960  10.274   2.739  0.7311  1.9968  0.9106
22999SOL    HW273454   6.818  10.324   2.718  0.1685  0.3549  0.6489
23000SOL     OW73455   6.927   2.311   2.880 -0.3835 -0.2530  0.0685
23000SOL    HW173456   6.867   2.363   2.827 -2.5319 -3.2839 -0.7301
23000SOL    HW273457   7.003   2.296   2.824 -0.0801  1.2883  0.0346
23001SOL     OW73458   3.392   7.521   6.614  0.1849  0.4636  0.1399
23001SOL    HW173459   3.465   7.582   6.632 -1.0277  2.2017 -0.6118
23001SOL    HW273460   3.353   7.506   6.700  0.5324  0.7106  0.3454
23002SOL     OW73461   6.012   2.075  10.802 -0.3544  0.3998  0.6531
23002SOL    HW173462   5.926   2.034  10.810 -0.0973 -0.0704  1.0688
23002SOL    HW273463   6.005   2.157  10.851 -0.0303 -0.4944  2.2471
23003SOL     OW73464   3.416   5.053   0.377 -0.5695  0.3324 -0.1315
23003SOL    HW173465   3.500   5.055   0.422 -0.9220  2.0181  0.5185
23003SOL    HW273466   3.351   5.059   0.447 -1.1807  0.8974 -0.7340
23004SOL     OW73467   4.647   1.187   7.470  0.9338  0.2974 -0.2963
23004SOL    HW173468   4.722   1.149   7.516 -1.7152 -2.9291  1.9410
23004SOL    HW273469   4.619   1.118   7.410 -0.2036  1.4570 -1.1490
23005SOL     OW73470   7.597   5.175   4.576 -0.2628  0.5173 -0.0329
23005SOL    HW173471   7.547   5.197   4.498  1.6210  1.3551 -1.0675
23005SOL    HW273472   7.579   5.246   4.637  0.1465  1.1437 -0.6343
23006SOL     OW73473   1.858   6.640   1.214 -0.0565 -0.3683  0.2538
23006SOL    HW173474   1.941   6.676   1.185  0.8855 -2.2917  0.4179
23006SOL    HW273475   1.871   6.622   1.308 -0.2927 -1.5248  0.0881
23007SOL     OW73476   3.564   0.205   4.656  0.1186 -0.3298  0.1462
23007SOL    HW173477   3.632   0.259   4.695 -0.2236  0.6565 -0.5751
23007SOL    HW273478   3.610   0.129   4.620  0.7552  0.0241  0.2083
23008SOL     OW73479   4.617   8.446  10.759 -0.1978  0.7848 -0.0031
23008SOL    HW173480   4.609   8.529  10.711  2.3660  2.6058  2.3566
23008SOL    HW273481   4.537   8.441  10.812 -0.7662  1.3262 -0.7950
23009SOL     OW73482   1.915   7.536   1.154 -0.1936 -0.8726 -0.1200
23009SOL    HW173483   1.853   7.583   1.209 -1.4643 -0.3471 -1.9165
23009SOL    HW273484   1.972   7.604   1.119 -0.0754 -1.0660 -0.3006
23010SOL     OW73485   2.361   1.138   2.257  0.0804  0.0930  0.5474
23010SOL    HW173486   2.456   1.148   2.248  0.3447 -1.0188  1.7300
23010SOL    HW273487   2.351   1.067   2.320 -1.5467  0.4558  0.7359
23011SOL     OW73488  10.035  10.940   6.137 -0.5884 -0.0940  0.3760
23011SOL    HW173489  10.087  10.958   6.215  0.2909  2.2116 -0.6393
23011SOL    HW273490  10.100  10.924   6.069 -1.3268 -1.1646 -0.1039
23012SOL     OW73491   7.655   6.062   9.462 -0.6205 -0.0682  0.3204
23012SOL    HW173492   7.670   6.033   9.372 -1.9228  0.9707 -0.2611
23012SOL    HW273493   7.595   5.997   9.498 -0.0399 -0.5268  0.4832
23013SOL     OW73494   6.386   4.859   6.563  0.3757  0.7128  0.0107
23013SOL    HW173495   6.385   4.953   6.544  0.3944  1.0005  1.3528
23013SOL    HW273496   6.447   4.850   6.637 -2.4217  0.1938  2.4293
23014SOL     OW73497   7.281   0.438   2.465 -0.1606 -0.2410 -0.1681
23014SOL    HW173498   7.254   0.527   2.441 -0.2875 -0.6690 -1.7526
23014SOL    HW273499   7.372   0.432   2.437 -0.1032 -0.5603  0.0801
23015SOL     OW73500   6.918   9.753   8.426  0.1573  0.0143 -0.2615
23015SOL    HW173501   6.937   9.660   8.435  0.9225  0.1596 -0.2863
23015SOL    HW273502   6.990   9.787   8.372 -1.2269  0.2248 -2.0867
23016SOL     OW73503  10.307   0.990   6.221 -0.0583  0.0821  0.2297
23016SOL    HW173504  10.366   0.930   6.176 -1.1561 -0.3852 -0.6271
23016SOL    HW273505  10.231   0.936   6.245 -0.1642  0.6733  1.2711
23017SOL     OW73506   9.717   9.372   9.639  0.1272 -0.1597  0.0865
23017SOL    HW173507   9.660   9.444   9.613  0.5999 -0.2070 -1.1291
23017SOL    HW273508   9.749   9.336   9.557  2.8281  0.5962  0.7105
23018SOL     OW73509   3.251   5.639   2.367  0.5301 -0.6737  0.9489
23018SOL    HW173510   3.210   5.580   2.304  1.0210  1.4061 -1.5017
23018SOL    HW273511   3.178   5.674   2.418  0.0014 -1.6201  0.8771
23019SOL     OW73512   2.283   4.703   3.340 -0.0013 -0.4649  0.3677
23019SOL    HW173513   2.355   4.726   3.398  0.5208  0.6309 -0.6683
23019SOL    HW273514   2.320   4.639   3.279 -0.5865 -1.7256  1.2886
23020SOL     OW73515   6.449   7.123   2.906 -0.2487 -0.2676 -0.6168
23020SOL    HW173516   6.409   7.202   2.943  2.1221 -0.1306  1.9629
23020SOL    HW273517   6.462   7.065   2.982  3.2165 -0.7543 -1.4110
23021SOL     OW73518   7.153   6.265   9.511 -0.2210 -0.6101 -0.0843
23021SOL    HW173519   7.220   6.315   9.464  0.2242 -1.5286 -0.4645
23021SOL    HW273520   7.071   6.307   9.487  0.1662  0.1892 -0.0594
23022SOL     OW73521   6.101   2.238   6.581 -0.3230 -0.1317  0.0854
23022SOL    HW173522   6.088   2.207   6.670  1.2158 -1.2147 -0.0202
23022SOL    HW273523   6.197   2.245   6.572 -0.3885 -1.0640 -1.7927
23023SOL     OW73524   3.810   0.569   2.015  0.1631  0.0432 -0.0010
23023SOL    HW173525   3.728   0.547   2.058 -0.0846 -0.3207 -0.6520
23023SOL    HW273526   3.792   0.652   1.970  0.6765  0.8824  1.2801
23024SOL     OW73527   9.039   1.442   7.789 -0.3324  0.7800  0.3762
23024SOL    HW173528   9.086   1.415   7.711  2.1999  1.5968  1.5187
23024SOL    HW273529   8.978   1.370   7.807  2.4402 -1.7811  0.3419
23025SOL     OW73530   1.737   1.316   7.875  0.2894 -0.0853 -0.1182
23025SOL    HW173531   1.819   1.340   7.919 -0.4358 -0.8004  1.6889
23025SOL    HW273532   1.668   1.347   7.934 -0.7816  0.5675 -1.6420
23026SOL     OW73533   3.465   8.143  10.415 -0.2529 -0.2379 -0.0599
23026SOL    HW173534   3.545   8.195  10.423 -0.7418  0.4243  0.6418
23026SOL    HW273535   3.477   8.071  10.477 -0.2964 -0.0034  0.2228
23027SOL     OW73536   2.388   5.669   6.362 -0.0857 -0.1866 -0.1122
23027SOL    HW173537   2.387   5.764   6.353 -2.0369 -0.0906  0.6763
23027SOL    HW273538   2.467   5.650   6.412  0.7056  0.9294 -0.8859
23028SOL     OW73539   2.581  10.467   1.823 -0.0699 -0.4756  0.0977
23028SOL    HW173540   2.491  10.467   1.789 -0.0472  1.3866 -0.0460
23028SOL    HW273541   2.633  10.426   1.754 -0.4938  0.4609 -0.8015
23029SOL     OW73542   9.970   6.207  10.749  0.4807 -0.1994 -0.2782
23029SOL    HW173543   9.987   6.139  10.815  1.7989  1.5075  1.2547
23029SOL    HW273544  10.047   6.264  10.754 -1.3895  2.4530 -0.1848
23030SOL     OW73545   9.614   7.517   6.630  0.1901 -0.6435 -0.3363
23030SOL    HW173546   9.626   7.460   6.706  0.8715 -1.1574 -0.8152
23030SOL    HW273547   9.523   7.504   6.604 -0.3312  0.2755  0.9693
23031SOL     OW73548  11.015   3.760   9.011  0.3037  0.1015  0.1537
23031SOL    HW173549  11.091   3.776   8.954 -0.3572 -0.5001 -0.9410
23031SOL    HW273550  10.985   3.673   8.985 -0.0994 -0.1268  1.3626
23032SOL     OW73551   6.688   4.118   3.938  0.2584  0.5866  0.0200
23032SOL    HW173552   6.771   4.152   3.903 -0.2649  0.4826 -1.3780
23032SOL    HW273553   6.630   4.112   3.862  0.0824 -2.7985  0.2778
23033SOL     OW73554   9.523   9.588   3.050  0.8779  0.5852  0.6921
23033SOL    HW173555   9.579   9.521   3.010  0.0539  0.2041  0.1603
23033SOL    HW273556   9.434   9.559   3.033  0.5056  1.3116  1.3277
23034SOL     OW73557   2.224   8.278   9.442  0.0723  0.3054  0.0087
23034SOL    HW173558   2.137   8.274   9.402 -0.1104 -0.8750  0.4948
23034SOL    HW273559   2.220   8.217   9.515  0.9232  1.2020  0.8317
23035SOL     OW73560   5.214   8.637   4.903 -0.3005  0.2939 -0.3154
23035SOL    HW173561   5.149   8.607   4.838 -0.2077 -0.5256 -0.0361
23035SOL    HW273562   5.169   8.708   4.950 -1.1588 -0.5491  0.1628
23036SOL     OW73563   6.204   5.771   3.470  0.1893  0.5181  0.4294
23036SOL    HW173564   6.130   5.711   3.469 -0.1789  0.9546  0.8750
23036SOL    HW273565   6.270   5.730   3.414 -0.6095  0.4147 -0.4545
23037SOL     OW73566   1.179   7.965   2.099 -0.2149 -0.3284  0.4369
23037SOL    HW173567   1.241   7.915   2.152  0.2822  1.0451  1.2000
23037SOL    HW273568   1.096   7.959   2.147 -0.7815 -2.2888 -0.6592
23038SOL     OW73569  10.993   9.075   3.859 -0.1660 -0.1630  0.4427
23038SOL    HW173570  11.011   9.157   3.905 -0.3582 -0.2436  0.6632
23038SOL    HW273571  10.932   9.029   3.916  1.0928 -1.1326  1.0518
23039SOL     OW73572   8.865  11.004   3.495 -0.0004  0.2252  0.0817
23039SOL    HW173573   8.952  10.964   3.491 -0.7415 -1.4175 -0.3567
23039SOL    HW273574   8.871  11.080   3.436  1.1794  0.2293  0.1928
23040SOL     OW73575   3.422   0.171   3.549 -0.4343 -0.3491  0.4439
23040SOL    HW173576   3.429   0.085   3.506  0.7679 -0.2794  0.4670
23040SOL    HW273577   3.422   0.233   3.476 -0.6005 -0.3345  0.4563
23041SOL     OW73578   1.371  10.621   4.887  0.4226 -0.2213  0.5718
23041SOL    HW173579   1.322  10.608   4.967 -1.5437 -1.5565 -0.7673
23041SOL    HW273580   1.325  10.692   4.841  0.9250 -0.1487  0.1581
23042SOL     OW73581   7.301   8.853   7.519  0.5828  0.2531  0.0614
23042SOL    HW173582   7.326   8.828   7.609  0.2689  0.5214  0.2248
23042SOL    HW273583   7.293   8.948   7.523  1.5082  0.3676 -0.4892
23043SOL     OW73584   1.806  10.615   6.671 -0.3657  0.6022  0.1392
23043SOL    HW173585   1.844  10.540   6.715 -0.1441  0.8147  0.3112
23043SOL    HW273586   1.760  10.663   6.740  0.2408  1.1012  0.2064
23044SOL     OW73587   8.659   0.977   7.437 -0.0020  0.0375 -0.2574
23044SOL    HW173588   8.607   1.040   7.488  0.4852  0.4861 -0.3044
23044SOL    HW273589   8.660   1.013   7.348 -3.0181 -2.0413 -1.2782
23045SOL     OW73590   0.063   8.138   9.686  0.0253 -0.3585  0.1889
23045SOL    HW173591   0.092   8.218   9.729 -1.1237 -0.3041  0.8971
23045SOL    HW273592  -0.029   8.155   9.663 -0.1181 -1.3384  0.0138
23046SOL     OW73593  10.736   3.809   5.201 -0.2150 -0.1254  0.1504
23046SOL    HW173594  10.752   3.715   5.216 -2.6153 -1.5061 -4.1787
23046SOL    HW273595  10.644   3.821   5.222 -0.5937  0.5586 -1.6985
23047SOL     OW73596   9.050   0.716   8.109 -0.0759 -0.4648  0.5407
23047SOL    HW173597   9.026   0.794   8.059 -1.1693 -0.8024  0.5032
23047SOL    HW273598   9.007   0.728   8.194  0.5025 -0.6078  0.8570
23048SOL     OW73599   0.386   7.303   3.924 -0.2418  0.0811 -0.5034
23048SOL    HW173600   0.380   7.344   4.010  1.9891 -1.2720  0.3831
23048SOL    HW273601   0.372   7.209   3.941  2.9485 -0.6170 -1.0626
23049SOL     OW73602   7.606   7.476   2.502 -0.0646 -0.3650 -0.6037
23049SOL    HW173603   7.546   7.518   2.563  0.5250  2.4362 -1.7982
23049SOL    HW273604   7.585   7.516   2.417  2.6307 -0.1791 -1.2572
23050SOL     OW73605   5.987   8.728   3.567 -0.3111 -0.2284  0.1737
23050SOL    HW173606   6.065   8.675   3.554  0.4788  1.1964 -1.3133
23050SOL    HW273607   6.002   8.774   3.650  1.2052  1.1969 -0.8325
23051SOL     OW73608  10.394   0.224  10.721 -0.6090  0.5528  0.0061
23051SOL    HW173609  10.373   0.317  10.717 -0.4227  0.5696 -1.0850
23051SOL    HW273610  10.409   0.206  10.814 -0.3939  1.6673  0.2016
23052SOL     OW73611   5.573   0.309   3.443 -0.1825  0.3475 -0.3981
23052SOL    HW173612   5.594   0.233   3.498 -0.4274  1.3386  1.1110
23052SOL    HW273613   5.628   0.379   3.476 -1.6116  1.4282 -0.2383
23053SOL     OW73614   3.605  10.839   6.368  0.1776  0.6118 -0.0895
23053SOL    HW173615   3.659  10.761   6.361  1.9679  1.8603 -0.9427
23053SOL    HW273616   3.531  10.823   6.310 -0.0978 -0.8653  0.6076
23054SOL     OW73617   9.359   7.397   5.673  0.4197 -0.2498 -0.2514
23054SOL    HW173618   9.282   7.372   5.621 -1.5149  1.5714  1.5345
23054SOL    HW273619   9.384   7.316   5.718 -0.1453 -0.9978 -1.2391
23055SOL     OW73620   9.549   4.560   0.383 -0.2729 -0.2216 -0.3926
23055SOL    HW173621   9.624   4.510   0.351 -0.3876  0.2746 -1.4762
23055SOL    HW273622   9.584   4.648   0.399  0.1341 -0.7815  2.3216
23056SOL     OW73623   0.304   3.529   4.806 -0.1796 -0.0242 -0.0970
23056SOL    HW173624   0.388   3.544   4.761  0.5215  0.7691  1.3907
23056SOL    HW273625   0.308   3.437   4.833 -0.0485 -0.1554 -0.5525
23057SOL     OW73626   8.336  10.975   6.301 -0.5945 -0.6174  0.3230
23057SOL    HW173627   8.374  10.887   6.303  0.9036 -0.0117  0.2763
23057SOL    HW273628   8.265  10.969   6.237  0.1869 -1.5448 -0.4952
23058SOL     OW73629   0.850   8.652   7.136  0.1133  0.3496  0.0698
23058SOL    HW173630   0.927   8.657   7.193  0.3206 -0.3408 -0.1411
23058SOL    HW273631   0.781   8.695   7.186  0.8337  1.7821 -0.0965
23059SOL     OW73632   4.488   8.171   5.647 -0.5379  0.1519 -0.0775
23059SOL    HW173633   4.558   8.138   5.704  1.2368  0.6694 -1.8597
23059SOL    HW273634   4.509   8.135   5.561 -1.7720  1.3353 -0.8951
23060SOL     OW73635   7.245   1.939   0.334 -0.0745  0.3680 -0.3896
23060SOL    HW173636   7.268   1.999   0.263  1.5351  0.5480  0.2395
23060SOL    HW273637   7.274   1.984   0.413  0.2431 -0.8232  0.1808
23061SOL     OW73638   8.969   8.407   9.439  0.2743  0.1866 -0.7429
23061SOL    HW173639   8.879   8.417   9.467 -0.2993  0.0959 -2.4366
23061SOL    HW273640   8.982   8.312   9.432  0.3714  0.2117 -0.9142
23062SOL     OW73641   8.547  10.391   5.764  0.0464  0.1850 -0.1443
23062SOL    HW173642   8.455  10.371   5.748 -0.3021 -0.2733  2.0423
23062SOL    HW273643   8.546  10.479   5.802  0.4818  0.0816  0.1106
23063SOL     OW73644   9.687   5.718   0.347  0.6764  0.5719  0.2815
23063SOL    HW173645   9.704   5.646   0.286  1.2138  0.3090  0.7432
23063SOL    HW273646   9.743   5.700   0.422 -0.4950  0.5272  1.1629
23064SOL     OW73647   5.257   5.536  10.216  0.0971  0.0894  0.6270
23064SOL    HW173648   5.336   5.508  10.170 -0.5192 -1.1339  0.2814
23064SOL    HW273649   5.191   5.471  10.193 -1.0697  1.1827  0.7801
23065SOL     OW73650   8.208   7.738   1.799 -0.3828  0.2521  0.0599
23065SOL    HW173651   8.256   7.742   1.716  0.1212  1.9809  0.3977
23065SOL    HW273652   8.212   7.646   1.825  0.2568 -0.1426 -1.3559
23066SOL     OW73653   8.746   6.435   5.513  0.1690  0.4266  0.4226
23066SOL    HW173654   8.806   6.504   5.543 -0.2330  0.7752  0.4433
23066SOL    HW273655   8.754   6.436   5.418 -0.6034  1.2249  0.3521
23067SOL     OW73656   1.264   3.983   3.023  0.6552 -0.2731 -0.2019
23067SOL    HW173657   1.343   4.034   3.013  0.3720 -0.0438 -1.3909
23067SOL    HW273658   1.212   4.002   2.945 -1.1573  0.5922  1.1182
23068SOL     OW73659   0.563   1.946   2.552 -0.0137  0.0405 -0.2716
23068SOL    HW173660   0.626   1.874   2.553 -1.9561 -1.7962  1.7861
23068SOL    HW273661   0.478   1.903   2.541 -1.0553  2.3692 -2.4445
23069SOL     OW73662   4.317   9.640   6.651  0.0777 -0.1668  0.2259
23069SOL    HW173663   4.228   9.658   6.682  0.0084  0.1895 -0.1823
23069SOL    HW273664   4.374   9.677   6.718 -0.0712  0.6609 -0.1026
23070SOL     OW73665   9.304   0.703   0.497 -0.0734 -0.3248  0.0279
23070SOL    HW173666   9.277   0.689   0.588 -0.5469 -0.7369 -0.1712
23070SOL    HW273667   9.338   0.619   0.468 -0.5894 -0.3908 -0.3987
23071SOL     OW73668   9.405   1.428   3.642 -0.0466  0.0328 -0.1705
23071SOL    HW173669   9.322   1.450   3.685  0.4351 -0.6350  1.1517
23071SOL    HW273670   9.466   1.496   3.672 -0.2058  0.8309 -1.5548
23072SOL     OW73671   5.416   1.802   6.200  0.2865 -0.6672 -0.4980
23072SOL    HW173672   5.448   1.871   6.258  3.6994 -2.0123 -0.5486
23072SOL    HW273673   5.331   1.778   6.237  0.5751  1.1644  1.5885
23073SOL     OW73674   4.608   9.546   6.952 -0.4455 -0.2375 -0.0078
23073SOL    HW173675   4.650   9.572   6.870 -1.6115 -0.4588 -0.6936
23073SOL    HW273676   4.637   9.456   6.966 -0.4848 -0.3097 -0.3590
23074SOL     OW73677   0.589   0.596   2.554 -0.2443 -0.2899  0.2321
23074SOL    HW173678   0.645   0.639   2.618 -0.2659 -1.1655  0.8572
23074SOL    HW273679   0.611   0.503   2.561 -0.3199 -0.4194 -0.9618
23075SOL     OW73680   4.593   9.003   3.224 -0.2285 -0.0003 -0.0015
23075SOL    HW173681   4.572   8.944   3.151 -0.7425  0.1253  0.0457
23075SOL    HW273682   4.607   9.088   3.183  0.4193 -0.1234 -0.0578
23076SOL     OW73683   5.965   5.536  10.141 -0.3997 -0.6458 -0.2926
23076SOL    HW173684   5.927   5.602  10.200 -1.8405 -0.9312 -0.8417
23076SOL    HW273685   5.966   5.579  10.055 -1.9124 -1.4919 -0.7753
23077SOL     OW73686   2.760   9.639   6.706  0.0906  0.0588  0.0635
23077SOL    HW173687   2.741   9.547   6.722 -2.7170  0.4925 -0.3473
23077SOL    HW273688   2.835   9.638   6.647  0.5895 -1.9188  0.6680
23078SOL     OW73689   3.653   6.508   1.982  0.3389  0.1001 -0.1270
23078SOL    HW173690   3.597   6.554   2.044  0.9261  0.9453 -0.2105
23078SOL    HW273691   3.644   6.416   2.007 -1.2445  0.1750 -0.2747
23079SOL     OW73692   3.624  11.054   7.504  0.3520 -0.1399  0.1403
23079SOL    HW173693   3.687  11.116   7.467  1.6738 -0.9607  0.9428
23079SOL    HW273694   3.539  11.089   7.478  1.1200 -0.5741 -3.6359
23080SOL     OW73695   7.582   7.484   7.295  0.2394  0.0473 -0.5922
23080SOL    HW173696   7.599   7.464   7.387  0.8864 -0.2775 -0.7719
23080SOL    HW273697   7.487   7.482   7.287  0.0080  2.4710  0.5795
23081SOL     OW73698   1.860   3.062   6.101 -0.3648  0.3493  0.1413
23081SOL    HW173699   1.817   3.036   6.019 -0.6386  1.6942 -0.1656
23081SOL    HW273700   1.891   3.151   6.084  2.1405 -0.3794  0.5182
23082SOL     OW73701   4.499   2.467   3.121  0.5896  0.0477 -0.1722
23082SOL    HW173702   4.567   2.534   3.116  0.5874  0.0062 -1.0432
23082SOL    HW273703   4.492   2.434   3.031 -1.9198  1.4159 -0.5848
23083SOL     OW73704  10.078   8.088   2.286  0.0504  0.0487  0.3231
23083SOL    HW173705  10.074   8.068   2.193  0.1187  0.5411  0.2095
23083SOL    HW273706  10.154   8.145   2.295  0.1344 -0.1202  0.7045
23084SOL     OW73707   6.688   1.850   7.434  0.1746 -0.2292  0.0601
23084SOL    HW173708   6.699   1.843   7.528 -0.3529  1.3740  0.2627
23084SOL    HW273709   6.684   1.759   7.403  1.0504 -0.7707  1.4775
23085SOL     OW73710   2.375   7.277   2.389 -0.6600  0.3162 -0.1172
23085SOL    HW173711   2.413   7.225   2.460 -0.5232 -0.6118 -0.8531
23085SOL    HW273712   2.287   7.243   2.377 -0.1738 -0.5790 -1.3822
23086SOL     OW73713   5.564   7.084   0.241 -0.2944  0.0956  0.0405
23086SOL    HW173714   5.530   7.030   0.170  0.2077 -0.1944  0.0150
23086SOL    HW273715   5.502   7.071   0.313  1.0315 -2.3893  0.8453
23087SOL     OW73716   5.166   6.416   0.357  0.0902  0.6129 -0.3362
23087SOL    HW173717   5.153   6.496   0.407 -1.0753  0.1547  0.1235
23087SOL    HW273718   5.259   6.416   0.336  0.1795  1.8901 -0.0129
23088SOL     OW73719   4.408   3.212   6.293 -0.0169  0.0758  0.0498
23088SOL    HW173720   4.484   3.187   6.241 -0.4429  0.2296 -0.6566
23088SOL    HW273721   4.422   3.304   6.313 -0.0817  0.1362 -0.1861
23089SOL     OW73722   0.479   0.015   4.558 -0.1829 -0.3373  0.2632
23089SOL    HW173723   0.559   0.036   4.509 -0.4585  0.7210  0.2488
23089SOL    HW273724   0.435   0.099   4.570 -0.3778 -0.6426  1.9005
23090SOL     OW73725  10.041   2.552   4.459  0.2713  0.1591 -0.1543
23090SOL    HW173726  10.029   2.542   4.364 -2.2360  0.9092 -0.0143
23090SOL    HW273727  10.019   2.466   4.495 -1.9191  0.6578 -0.1337
23091SOL     OW73728   0.292   1.003   7.290  0.1809 -0.4187  0.7830
23091SOL    HW173729   0.293   1.056   7.211  1.1818 -1.5674 -0.0131
23091SOL    HW273730   0.206   1.018   7.329 -0.2137  0.3790 -0.3767
23092SOL     OW73731   7.599   0.481   2.679  0.3215  0.5011 -0.1427
23092SOL    HW173732   7.518   0.455   2.724  0.1125  0.5289 -0.4943
23092SOL    HW273733   7.607   0.575   2.697  0.3003  0.4893 -0.0703
23093SOL     OW73734   5.396  10.774  10.849 -0.2689  0.1905  0.6270
23093SOL    HW173735   5.474  10.769  10.905 -0.6409 -0.0472  1.1335
23093SOL    HW273736   5.429  10.805  10.764  0.3134  0.4882  0.9559
23094SOL     OW73737   6.061   0.882   0.414 -0.4426 -0.1836 -0.0197
23094SOL    HW173738   6.143   0.856   0.457  0.0295 -0.3584 -1.0102
23094SOL    HW273739   6.072   0.975   0.395 -0.8377  0.0040  0.6277
23095SOL     OW73740   8.034   8.510   9.775 -0.1616 -0.2790 -0.0327
23095SOL    HW173741   8.069   8.433   9.820  1.6555  0.0221 -0.8584
23095SOL    HW273742   8.108   8.546   9.728 -1.6311  0.3121 -2.0303
23096SOL     OW73743  10.310   1.955   6.374  0.0060  0.0632  0.2036
23096SOL    HW173744  10.327   1.861   6.382  3.2432  0.4933 -0.0413
23096SOL    HW273745  10.271   1.966   6.287 -1.1509 -1.0920  0.5530
23097SOL     OW73746   5.371   8.011   5.340  0.1281 -0.3117 -0.7317
23097SOL    HW173747   5.450   8.048   5.300 -0.1099  1.5018  0.3523
23097SOL    HW273748   5.395   7.921   5.360  1.4114 -0.2400 -1.7689
23098SOL     OW73749   4.809   0.091   9.564  0.5507 -0.9824 -0.2505
23098SOL    HW173750   4.862   0.052   9.494 -0.3101 -0.6423 -1.1282
23098SOL    HW273751   4.722   0.101   9.524  0.2551 -0.0060  0.6081
23099SOL     OW73752   6.269   0.479  10.355  0.4360 -0.8731  0.3219
23099SOL    HW173753   6.336   0.529  10.309  0.8649 -0.9047  0.8969
23099SOL    HW273754   6.275   0.510  10.446  0.0969 -1.3258  0.5013
23100SOL     OW73755   3.458   4.107   5.901 -0.2432 -1.0415  0.5695
23100SOL    HW173756   3.497   4.183   5.944 -0.6761 -0.2498 -0.4074
23100SOL    HW273757   3.490   4.111   5.811 -1.3167 -1.2638  0.1619
23101SOL     OW73758   7.944   2.598   5.272 -0.2156  0.0274 -0.1993
23101SOL    HW173759   8.038   2.580   5.268 -0.2943 -1.1752  1.9505
23101SOL    HW273760   7.939   2.685   5.312 -0.0340  1.0293 -2.2215
23102SOL     OW73761   5.595   7.268   2.709  0.0830  0.3881  0.2936
23102SOL    HW173762   5.646   7.324   2.650 -0.6697 -1.4368 -2.2885
23102SOL    HW273763   5.647   7.188   2.717 -0.7916 -0.1794  0.4175
23103SOL     OW73764   8.224   9.414   7.515 -0.3383  0.0487  0.4862
23103SOL    HW173765   8.176   9.373   7.442 -0.8660  0.7286  0.4443
23103SOL    HW273766   8.250   9.341   7.570 -1.1788 -0.3661  0.3563
23104SOL     OW73767   9.291   3.417   2.726  0.1757 -0.0209 -0.4709
23104SOL    HW173768   9.323   3.508   2.729  0.3345 -0.0988  1.1120
23104SOL    HW273769   9.264   3.404   2.635 -0.0353  1.6837 -0.6922
23105SOL     OW73770   8.232   9.080   8.569  0.4893  0.4453  0.7947
23105SOL    HW173771   8.232   8.985   8.557 -2.5921  0.3789  0.4461
23105SOL    HW273772   8.323   9.106   8.556  1.3286 -2.3748  0.3394
23106SOL     OW73773   1.412  10.248   9.705 -0.5630  0.5970 -0.6635
23106SOL    HW173774   1.321  10.260   9.732 -0.4010  0.6063 -0.0994
23106SOL    HW273775   1.423  10.153   9.700 -0.0406  0.5084  1.3329
23107SOL     OW73776   6.719   9.354   6.887 -0.0913  0.0672 -0.5297
23107SOL    HW173777   6.758   9.270   6.912 -2.3006 -0.6272  0.8792
23107SOL    HW273778   6.739   9.363   6.794  1.4563 -1.2803 -0.3752
23108SOL     OW73779   3.919   3.712   3.668 -0.2388 -0.4349  0.4571
23108SOL    HW173780   4.014   3.718   3.659 -0.1260 -0.5834  1.4279
23108SOL    HW273781   3.904   3.625   3.706 -0.8043 -0.6102 -0.1487
23109SOL     OW73782   0.050   9.833   5.051 -0.1210 -0.4249  0.1966
23109SOL    HW173783   0.045   9.908   4.990  0.5866  0.6743  1.4330
23109SOL    HW273784   0.141   9.833   5.081  0.2206 -2.5828 -0.7070
23110SOL     OW73785   5.801   4.153   7.947 -0.0163  0.4020  0.4945
23110SOL    HW173786   5.761   4.112   8.024 -0.6785  0.7133  0.3251
23110SOL    HW273787   5.817   4.080   7.887  0.0782  0.2181  0.7408
23111SOL     OW73788   6.873   7.735   3.188  0.3115 -0.3962 -0.3277
23111SOL    HW173789   6.834   7.667   3.243  1.3763  0.1783  1.1773
23111SOL    HW273790   6.925   7.788   3.247 -0.1180  1.4971 -1.5431
23112SOL     OW73791   2.919   4.761   3.725  0.0999 -0.7320  0.2441
23112SOL    HW173792   2.959   4.800   3.647  0.4763 -0.7075  0.4485
23112SOL    HW273793   2.948   4.817   3.797 -0.0422 -0.9023  0.4352
23113SOL     OW73794   2.026   3.457   5.475  0.0351 -0.4948 -0.3185
23113SOL    HW173795   2.064   3.371   5.490 -0.8432 -0.4324  3.2744
23113SOL    HW273796   1.939   3.439   5.440 -0.0390 -1.0954  0.1524
23114SOL     OW73797   7.394   7.845   4.249 -0.0798 -0.2842  0.3094
23114SOL    HW173798   7.346   7.806   4.176  0.1123 -1.5177  0.8174
23114SOL    HW273799   7.486   7.841   4.222 -0.1984  2.2203 -0.7323
23115SOL     OW73800   0.954  10.273   2.292  0.1932  0.0958  0.2554
23115SOL    HW173801   1.001  10.190   2.301 -0.3034 -0.4000 -1.3530
23115SOL    HW273802   0.862  10.248   2.293  0.0501  0.4972 -1.1849
23116SOL     OW73803   6.930   1.742   3.179  0.1626  0.1405  0.3466
23116SOL    HW173804   7.006   1.782   3.223 -1.3633  1.9447  1.5236
23116SOL    HW273805   6.920   1.793   3.099  0.4188 -0.3720 -0.0172
23117SOL     OW73806   5.744   2.675   7.617 -0.8593  0.3484  0.0941
23117SOL    HW173807   5.772   2.690   7.527 -0.8140 -0.3622 -0.0193
23117SOL    HW273808   5.718   2.761   7.649 -0.3891  0.6936 -0.4321
23118SOL     OW73809   0.171   9.053   3.554 -0.2072 -0.0009  0.1447
23118SOL    HW173810   0.201   8.988   3.490 -1.0014 -0.1824 -0.0510
23118SOL    HW273811   0.155   9.132   3.503 -2.3758 -0.5968 -0.1824
23119SOL     OW73812  10.136   2.376  10.632 -0.3419 -0.3478 -0.6747
23119SOL    HW173813  10.231   2.385  10.622 -0.1860 -1.5466 -0.4199
23119SOL    HW273814  10.115   2.295  10.585 -1.4412  0.5452 -1.8010
23120SOL     OW73815   9.631   9.817   0.363 -0.8455 -0.3330  0.0369
23120SOL    HW173816   9.565   9.767   0.315 -0.9079 -0.2142 -0.0023
23120SOL    HW273817   9.587   9.842   0.445  0.2408 -3.2106  1.6293
23121SOL     OW73818   3.179   4.175   6.603 -0.2524 -0.2725 -0.2136
23121SOL    HW173819   3.239   4.150   6.533 -0.3392 -0.3532 -0.2588
23121SOL    HW273820   3.092   4.156   6.569 -0.3445  0.4167 -0.3881
23122SOL     OW73821   5.231  10.020   5.117 -1.1045  0.1134  0.2082
23122SOL    HW173822   5.211  10.047   5.028  0.9369  0.4114 -0.2081
23122SOL    HW273823   5.246  10.102   5.165 -0.6759 -0.0854  0.4257
23123SOL     OW73824   1.536   5.071   2.125  0.0343 -0.1309 -0.1414
23123SOL    HW173825   1.537   5.066   2.029 -0.9726 -0.6076 -0.1408
23123SOL    HW273826   1.622   5.106   2.148  0.1369  0.3793 -1.2402
23124SOL     OW73827   3.698   9.226   0.545 -1.2822  0.3675 -0.1729
23124SOL    HW173828   3.655   9.274   0.474 -0.7732  0.2608 -0.5598
23124SOL    HW273829   3.757   9.166   0.500 -0.7765  0.4658  0.3536
23125SOL     OW73830   9.221   1.573  10.020  0.0097  0.0540 -0.3703
23125SOL    HW173831   9.191   1.506  10.081  0.2722  0.1309 -0.1561
23125SOL    HW273832   9.225   1.528   9.935 -1.7904  0.3266 -0.6412
23126SOL     OW73833   6.797   9.956   6.886 -0.1033  0.4958  0.3504
23126SOL    HW173834   6.816   9.910   6.805 -0.3026 -1.2692  1.2465
23126SOL    HW273835   6.710   9.924   6.912 -0.5124  1.8457  0.7245
23127SOL     OW73836  10.097   7.858   0.374  0.4431  0.2289 -0.1388
23127SOL    HW173837  10.021   7.903   0.338 -0.7115 -0.7570  0.9546
23127SOL    HW273838  10.146   7.926   0.421 -0.2442  0.6983 -0.1014
23128SOL     OW73839   7.722   0.007   7.335  0.3618 -0.0245  0.2896
23128SOL    HW173840   7.743  -0.084   7.354  1.8084 -0.1197 -1.4627
23128SOL    HW273841   7.630   0.016   7.362  0.3196 -1.8515  0.9267
23129SOL     OW73842   3.314   3.731   9.676 -0.1221 -0.3667 -0.4216
23129SOL    HW173843   3.241   3.676   9.647 -0.0537 -1.3531  1.1617
23129SOL    HW273844   3.273   3.813   9.704 -1.0932 -1.8134  2.9467
23130SOL     OW73845   8.771   0.416   2.066 -0.6268 -0.0539  0.0456
23130SOL    HW173846   8.851   0.369   2.043 -0.9548 -0.8569  0.4817
23130SOL    HW273847   8.730   0.361   2.133 -0.2057  1.6664  1.8068
23131SOL     OW73848   4.298   9.917   2.846  0.1500 -0.0378 -0.1240
23131SOL    HW173849   4.291   9.853   2.775  0.9628  0.2934 -0.5080
23131SOL    HW273850   4.387   9.950   2.841 -0.7998  2.6571 -1.2562
23132SOL     OW73851   2.898   5.744   6.319 -0.7459 -0.3107 -0.1832
23132SOL    HW173852   2.886   5.819   6.377 -1.3809  0.5389 -1.3785
23132SOL    HW273853   2.858   5.671   6.367  1.1969 -0.2657  1.6621
23133SOL     OW73854  11.057   3.008   0.314  0.1108 -0.5448  0.2097
23133SOL    HW173855  11.011   3.082   0.355 -1.0930 -1.1219 -0.0515
23133SOL    HW273856  11.125   3.049   0.260 -1.4435  0.4788 -1.0687
23134SOL     OW73857   4.357   7.148   6.091  0.3906 -0.2264 -0.4504
23134SOL    HW173858   4.377   7.238   6.067  0.5758 -0.1572 -0.0527
23134SOL    HW273859   4.263   7.147   6.107  0.6468  0.3444  1.3465
23135SOL     OW73860   4.319   8.714   6.008 -0.2257  0.3579  0.6422
23135SOL    HW173861   4.284   8.658   5.939 -0.9422  2.0567 -0.4140
23135SOL    HW273862   4.414   8.699   6.004 -0.4361 -1.2823  0.8789
23136SOL     OW73863   6.682   2.383   2.544 -0.1241 -0.2462 -0.2875
23136SOL    HW173864   6.588   2.388   2.561  0.0332 -0.8132  0.8931
23136SOL    HW273865   6.722   2.425   2.620  0.5987 -1.3060 -0.0581
23137SOL     OW73866  10.052   4.071  10.153 -0.3641 -0.1373  0.3224
23137SOL    HW173867   9.965   4.034  10.167 -0.6839  1.6250  4.4320
23137SOL    HW273868  10.110   3.996  10.150 -1.7735 -1.2556 -0.2025
23138SOL     OW73869   4.723   9.350   8.607 -0.1339  0.2429  0.2132
23138SOL    HW173870   4.691   9.432   8.570  1.9074  0.1187 -2.1414
23138SOL    HW273871   4.693   9.283   8.545 -0.3318 -0.5614  1.1654
23139SOL     OW73872   3.714   0.932   3.464 -0.1721 -0.4015  0.6206
23139SOL    HW173873   3.810   0.931   3.464 -0.1697 -1.6171 -0.2093
23139SOL    HW273874   3.690   0.917   3.373 -1.1632  0.0714  0.7949
23140SOL     OW73875   3.063   0.362   2.236  0.2004 -0.2513 -0.0457
23140SOL    HW173876   3.098   0.431   2.180  0.5243 -0.0426  0.4045
23140SOL    HW273877   3.001   0.408   2.294 -1.1219 -0.6653 -1.0686
23141SOL     OW73878   7.716   0.686   9.870  0.2564 -0.3797 -0.4666
23141SOL    HW173879   7.675   0.739   9.939  0.2099 -0.6434 -0.2875
23141SOL    HW273880   7.797   0.654   9.911  1.2544  1.0962 -1.2059
23142SOL     OW73881   7.671   5.194  10.496  0.5066  0.5160  0.3306
23142SOL    HW173882   7.606   5.149  10.441  0.4219  0.8196  0.1821
23142SOL    HW273883   7.751   5.193  10.444  0.8972 -0.7213  0.9056
23143SOL     OW73884   1.761   3.955   6.680  0.2831  0.1727  0.1455
23143SOL    HW173885   1.667   3.964   6.667  0.0241  0.1061  1.7221
23143SOL    HW273886   1.789   4.041   6.710  0.2436 -0.4573  2.1168
23144SOL     OW73887  10.646  10.287   7.198  0.0075  0.5068 -0.1305
23144SOL    HW173888  10.673  10.253   7.113 -0.2258  1.5316 -0.6298
23144SOL    HW273889  10.551  10.277   7.199 -0.0200  0.7894 -0.1129
23145SOL     OW73890  10.445   9.634  10.547 -0.1795 -0.0400 -0.0016
23145SOL    HW173891  10.497   9.695  10.599  0.1936 -0.3497 -0.0088
23145SOL    HW273892  10.365   9.682  10.526  0.0283  0.3769  0.1574
23146SOL     OW73893  10.563   1.905  10.731  0.4464  0.1882 -0.2542
23146SOL    HW173894  10.629   1.853  10.777 -0.8215 -0.8296  0.4995
23146SOL    HW273895  10.526   1.845  10.667 -0.4937  0.3935  0.0796
23147SOL     OW73896   1.001   9.464   0.056  0.9702  0.4014 -0.0400
23147SOL    HW173897   0.979   9.532  -0.009  1.1144  1.4339  0.9540
23147SOL    HW273898   1.090   9.485   0.084  0.9304 -0.0596  0.4542
23148SOL     OW73899   8.729   7.490   7.472 -0.5427  0.0427 -0.1521
23148SOL    HW173900   8.741   7.551   7.399 -1.3269 -1.1708 -1.3572
23148SOL    HW273901   8.780   7.412   7.447  0.5555  0.2138  1.4180
23149SOL     OW73902  10.915   4.958   8.499  0.0165  0.0543 -0.0964
23149SOL    HW173903  10.849   5.015   8.460 -0.7660  0.5646  1.8558
23149SOL    HW273904  10.996   5.009   8.493  0.1635 -0.3110 -1.9252
23150SOL     OW73905   5.452   0.913   1.942  0.4410  0.4613 -0.2364
23150SOL    HW173906   5.471   0.956   2.025 -0.9064  0.6362  0.0022
23150SOL    HW273907   5.535   0.917   1.894  1.0156  1.0903  0.7655
23151SOL     OW73908   1.408   1.230   8.741 -0.1008  0.1087 -0.1236
23151SOL    HW173909   1.332   1.260   8.790 -1.8148 -0.6201 -2.1597
23151SOL    HW273910   1.481   1.236   8.803 -1.3215  3.1279  1.2060
23152SOL     OW73911   7.439   9.349   4.627 -0.0639 -0.1318 -0.0039
23152SOL    HW173912   7.347   9.324   4.623  0.0623 -0.4160 -1.8451
23152SOL    HW273913   7.443   9.433   4.580  0.4624  0.4354  1.0128
23153SOL     OW73914   7.683   6.731  10.258  0.3691  0.6024  0.5672
23153SOL    HW173915   7.658   6.823  10.248  0.1841  0.5264  0.3154
23153SOL    HW273916   7.605   6.682  10.231  0.7473  0.3614 -0.1237
23154SOL     OW73917   8.306   9.826   9.820  0.7346 -0.2908 -0.6325
23154SOL    HW173918   8.314   9.854   9.911  0.9144 -0.5838 -0.5528
23154SOL    HW273919   8.258   9.743   9.825  1.1415 -0.5392 -0.7614
23155SOL     OW73920   0.248   1.448   1.529  0.1258 -0.4713  0.1425
23155SOL    HW173921   0.196   1.527   1.515  0.9404 -0.2356 -1.8989
23155SOL    HW273922   0.273   1.452   1.621  0.8902  2.1245 -0.1040
23156SOL     OW73923   7.639  10.185   9.262  0.3765  0.1438 -0.2992
23156SOL    HW173924   7.719  10.220   9.302 -0.5836  1.4354  0.5948
23156SOL    HW273925   7.605  10.258   9.209  0.1838 -0.6488 -1.3019
23157SOL     OW73926   0.830   8.632   1.238 -0.1660 -0.6099  0.0893
23157SOL    HW173927   0.736   8.620   1.250 -0.3729  0.2434 -0.6447
23157SOL    HW273928   0.840   8.659   1.147  0.5606  1.6625  0.7924
23158SOL     OW73929   0.562   5.128   9.586  0.0764  0.3939 -0.2292
23158SOL    HW173930   0.566   5.038   9.553 -1.1252 -0.5087  1.8997
23158SOL    HW273931   0.557   5.182   9.507 -1.8748 -1.5860 -1.5939
23159SOL     OW73932   0.250   8.595   6.064  0.0836  0.2176 -0.7597
23159SOL    HW173933   0.201   8.552   5.995  0.4885  0.0816 -0.9684
23159SOL    HW273934   0.235   8.541   6.142  1.6851 -1.1134 -1.3199
23160SOL     OW73935   4.663   1.599  10.915  0.6838  0.3697  0.3978
23160SOL    HW173936   4.593   1.650  10.874 -0.2905 -1.3683 -0.2317
23160SOL    HW273937   4.744   1.640  10.885 -0.0493  0.9037 -0.9631
23161SOL     OW73938   1.214   9.039   1.688 -0.7080  0.0911  0.0477
23161SOL    HW173939   1.268   8.973   1.731  0.1819  0.7277 -0.0717
23161SOL    HW273940   1.169   9.084   1.760 -1.4072 -0.7033  0.1219
23162SOL     OW73941   0.341   8.077   1.431  0.1078 -0.0289  0.3159
23162SOL    HW173942   0.392   8.096   1.353 -1.0583 -1.2053 -0.7859
23162SOL    HW273943   0.342   8.158   1.481  0.7468  0.8001 -0.9959
23163SOL     OW73944   3.171   7.221   1.203 -0.2196 -0.3982 -0.2875
23163SOL    HW173945   3.255   7.193   1.240 -0.9119  1.4729  3.0480
23163SOL    HW273946   3.106   7.199   1.270 -2.1502  0.0246 -1.9138
23164SOL     OW73947   5.866   4.025   8.292 -0.0374  0.4825 -0.0030
23164SOL    HW173948   5.816   3.950   8.324  1.4642 -0.6665 -0.2106
23164SOL    HW273949   5.911   4.058   8.369  1.7618 -0.8467 -0.4007
23165SOL     OW73950   3.674   2.322   2.062  0.4315 -0.5548  0.0197
23165SOL    HW173951   3.711   2.245   2.018  0.9914 -1.2360  1.6106
23165SOL    HW273952   3.750   2.372   2.091  0.0840 -0.3459  0.5826
23166SOL     OW73953   0.820   0.652   8.484 -0.3099 -0.2127  0.4479
23166SOL    HW173954   0.752   0.593   8.451 -0.6445 -0.8746  2.1736
23166SOL    HW273955   0.817   0.639   8.579  0.4755  1.6805  0.7578
23167SOL     OW73956   8.614   4.163   1.966  0.3809  0.4502 -0.0150
23167SOL    HW173957   8.616   4.117   2.050 -0.8413  1.4397  0.5749
23167SOL    HW273958   8.602   4.094   1.901 -0.9191 -0.1244  0.8114
23168SOL     OW73959   8.461   5.277   6.475 -0.3326 -0.0446  0.4074
23168SOL    HW173960   8.377   5.314   6.501 -0.3347  0.1250  0.1599
23168SOL    HW273961   8.445   5.241   6.387  0.1796  1.1077 -0.1785
23169SOL     OW73962  10.623   3.569   8.101  0.4102  0.1357  0.0709
23169SOL    HW173963  10.656   3.656   8.125 -0.8873  0.6043  0.2685
23169SOL    HW273964  10.625   3.569   8.005  0.7538  0.2448  0.0767
23170SOL     OW73965   0.540   6.668   7.387 -0.1828  0.5660 -0.0215
23170SOL    HW173966   0.454   6.677   7.347 -0.8942  0.2684  1.3753
23170SOL    HW273967   0.582   6.597   7.339 -1.6085 -0.8511  0.7076
23171SOL     OW73968   9.723   4.184   3.304  0.5645 -0.0779  0.0694
23171SOL    HW173969   9.767   4.209   3.385  0.6740 -1.0771  0.3213
23171SOL    HW273970   9.632   4.211   3.317  0.5249 -0.4808  0.6323
23172SOL     OW73971   6.801  10.923   1.619  0.4896 -0.0727 -0.2294
23172SOL    HW173972   6.783  11.015   1.640 -1.0061 -0.3194 -0.3684
23172SOL    HW273973   6.834  10.886   1.701  0.2650  0.3737  0.0698
23173SOL     OW73974   6.222   7.673   3.622  0.2951  0.0024  0.0392
23173SOL    HW173975   6.175   7.648   3.701 -3.0246  2.7910 -0.7894
23173SOL    HW273976   6.219   7.769   3.622 -0.4992  0.1333 -3.7086
23174SOL     OW73977   8.673   0.920   0.355 -0.2104 -0.3918 -0.6511
23174SOL    HW173978   8.661   0.993   0.294 -2.9977  0.3228  0.5561
23174SOL    HW273979   8.608   0.855   0.327  0.2500 -1.1516  0.0167
23175SOL     OW73980   2.852   4.002   3.468 -0.4934 -0.0885  0.4432
23175SOL    HW173981   2.833   4.020   3.376  1.9886 -2.0012 -0.5504
23175SOL    HW273982   2.831   3.909   3.479 -3.3305  0.6784  2.6464
23176SOL     OW73983  10.022   5.490   0.525  0.0145 -0.6237  0.0781
23176SOL    HW173984  10.032   5.398   0.500  0.1541 -0.4343 -0.5848
23176SOL    HW273985  10.107   5.529   0.508  0.5429 -0.7658  2.1668
23177SOL     OW73986   6.476   4.264  10.417  0.2236 -0.5438  0.7852
23177SOL    HW173987   6.553   4.254  10.474  1.0862  0.6315 -0.1385
23177SOL    HW273988   6.509   4.307  10.339 -0.9249 -2.1615 -0.6851
23178SOL     OW73989   1.897   7.750   6.487  0.6196 -0.5632  0.0880
23178SOL    HW173990   1.815   7.722   6.446  0.9572 -1.6018  0.0899
23178SOL    HW273991   1.960   7.751   6.415  0.5727  0.4891  0.0336
23179SOL     OW73992   2.181  10.376   8.334  0.5514 -0.2559  0.2780
23179SOL    HW173993   2.222  10.403   8.416  1.7279 -0.2719 -0.2868
23179SOL    HW273994   2.239  10.309   8.298  0.4735  0.2909 -0.9316
23180SOL     OW73995  10.605   2.424   6.796  0.2239  0.6258 -0.2368
23180SOL    HW173996  10.522   2.470   6.807 -0.7706 -1.3533  1.0757
23180SOL    HW273997  10.587   2.358   6.730  1.3611  1.4291 -1.3940
23181SOL     OW73998   9.049   3.557   4.615  0.0320 -0.1711  0.3638
23181SOL    HW173999   9.094   3.568   4.699 -1.0708  1.7877  0.7547
23181SOL    HW274000   9.096   3.615   4.555 -1.0753  0.7912  0.4176
23182SOL     OW74001   8.103  10.471   1.766 -0.2096  0.0701  0.2772
23182SOL    HW174002   8.073  10.554   1.729  0.8863  0.0696 -0.6419
23182SOL    HW274003   8.081  10.406   1.700  2.6941  0.1996 -0.9479
23183SOL     OW74004   9.385   4.363   9.570  0.0797  0.6917  0.2056
23183SOL    HW174005   9.375   4.458   9.575  0.3529  0.7644 -0.6133
23183SOL    HW274006   9.338   4.337   9.491 -0.3163  0.0920  0.6239
23184SOL     OW74007   6.830   1.177  10.528 -0.0280 -0.0170 -0.3970
23184SOL    HW174008   6.740   1.147  10.515 -0.1454 -0.0706  0.4681
23184SOL    HW274009   6.847   1.161  10.621  0.7026  0.4734 -0.4411
23185SOL     OW74010   5.358   9.680   6.305  0.0669 -0.4544 -0.4972
23185SOL    HW174011   5.319   9.660   6.390 -0.0308  2.2156  0.2007
23185SOL    HW274012   5.451   9.666   6.318 -0.0913 -1.5632 -0.4610
23186SOL     OW74013   6.316   5.356   0.154 -0.0703 -0.0940 -0.0742
23186SOL    HW174014   6.401   5.401   0.154 -0.2488  0.2713  0.7193
23186SOL    HW274015   6.280   5.374   0.241 -0.5470 -1.0301 -0.0633
23187SOL     OW74016   8.106   5.137   3.638  0.1205  0.4572  0.0023
23187SOL    HW174017   8.081   5.091   3.558  1.5216  0.3630 -0.4083
23187SOL    HW274018   8.031   5.127   3.696 -0.3181 -0.7902 -0.7436
23188SOL     OW74019   0.104   1.283   0.141  0.3498  0.5749 -0.8487
23188SOL    HW174020   0.064   1.367   0.163 -0.0612  0.1449  0.1412
23188SOL    HW274021   0.194   1.290   0.174  0.1612  0.4562 -0.2850
23189SOL     OW74022   6.649   7.626   9.421 -0.0783  0.3509  0.0793
23189SOL    HW174023   6.674   7.645   9.331 -1.3925 -2.7098 -1.0873
23189SOL    HW274024   6.620   7.535   9.419 -0.2294  0.1728  3.6187
23190SOL     OW74025  10.990   3.251   8.462 -0.7396  0.3206 -0.0218
23190SOL    HW174026  11.060   3.204   8.509  0.3572  1.8286 -0.0711
23190SOL    HW274027  10.923   3.266   8.528  0.7649  2.3816  1.1662
23191SOL     OW74028   9.382   6.713   4.823 -0.2959  0.0660  0.0864
23191SOL    HW174029   9.425   6.663   4.892 -0.5733  0.4675  0.5524
23191SOL    HW274030   9.414   6.803   4.834  0.9783 -0.1693 -1.3747
23192SOL     OW74031   0.830   8.180   6.952 -0.2901  0.0855  0.3607
23192SOL    HW174032   0.920   8.154   6.932  0.1329  0.1114  2.0733
23192SOL    HW274033   0.805   8.237   6.879  1.0357  0.0089 -0.1893
23193SOL     OW74034   2.855   3.250   9.781 -0.2159  0.3504  0.3763
23193SOL    HW174035   2.834   3.317   9.716  0.0896  0.0456 -0.0405
23193SOL    HW274036   2.773   3.202   9.794 -0.3779  0.6615  0.5077
23194SOL     OW74037   2.932   8.612   6.165 -0.2218  0.5066  0.0152
23194SOL    HW174038   3.014   8.658   6.149  1.0802 -1.5881  0.1808
23194SOL    HW274039   2.914   8.568   6.081 -0.2498 -0.3777  0.4769
23195SOL     OW74040   6.481   6.020   5.189  0.1246 -0.1979  0.0561
23195SOL    HW174041   6.512   6.049   5.103 -3.3435 -2.7341 -2.3407
23195SOL    HW274042   6.530   5.940   5.206 -1.0856 -1.2306 -1.0579
23196SOL     OW74043  10.696   4.449   1.446  0.3977  0.2799 -0.0873
23196SOL    HW174044  10.623   4.394   1.418 -0.6442  0.3608  2.2551
23196SOL    HW274045  10.771   4.390   1.446 -0.5419 -1.0120  1.6028
23197SOL     OW74046   8.869   6.418   7.415 -0.8989 -0.1681  0.5943
23197SOL    HW174047   8.872   6.375   7.500 -1.1574 -0.1735  0.6027
23197SOL    HW274048   8.779   6.452   7.409 -0.7899  0.1016  0.4583
23198SOL     OW74049   6.926   0.745   4.752 -0.1966 -0.3996 -0.3283
23198SOL    HW174050   6.922   0.695   4.833 -1.0857 -2.0261 -1.3062
23198SOL    HW274051   6.834   0.759   4.728  0.0519  0.6807 -0.7049
23199SOL     OW74052   9.642   2.221   3.444  0.8953 -0.1669 -0.4114
23199SOL    HW174053   9.599   2.306   3.454  2.5258  0.8160 -1.2956
23199SOL    HW274054   9.718   2.226   3.502  1.8847 -0.3769 -1.6406
23200SOL     OW74055   9.761  10.368   2.986 -0.0283  0.5318 -0.6373
23200SOL    HW174056   9.823  10.441   2.993  0.4460  0.1423 -0.7385
23200SOL    HW274057   9.747  10.357   2.892  1.4012 -0.7442 -0.7375
23201SOL     OW74058   2.593   2.007   9.764 -0.6117 -0.7798 -0.4348
23201SOL    HW174059   2.662   1.946   9.736  0.9339  1.3858 -1.5973
23201SOL    HW274060   2.625   2.042   9.847 -1.4598 -1.4346  0.1888
23202SOL     OW74061   2.268   0.162   8.767 -0.0260 -0.1459  0.9457
23202SOL    HW174062   2.332   0.093   8.755 -1.4791 -1.4865  0.5232
23202SOL    HW274063   2.274   0.215   8.687 -0.2057 -0.9361  0.3974
23203SOL     OW74064   2.913   9.637   8.321  0.0768 -0.0022  0.2772
23203SOL    HW174065   2.856   9.677   8.256  1.5097 -0.3484 -1.2602
23203SOL    HW274066   2.976   9.587   8.270  1.2382 -0.3280  1.9492
23204SOL     OW74067   9.444   4.896   0.297  0.5612 -0.5697  0.1290
23204SOL    HW174068   9.422   4.978   0.339 -0.3972 -1.4234  1.3733
23204SOL    HW274069   9.517   4.861   0.347  0.4374 -0.8502  0.1219
23205SOL     OW74070   4.963   0.009   4.827  0.3127  0.1332  0.1132
23205SOL    HW174071   4.946   0.048   4.741 -2.4415  1.2378  1.0415
23205SOL    HW274072   4.986   0.083   4.883 -1.1719 -0.0590  1.0277
23206SOL     OW74073   2.185   5.588   0.518  0.5760 -1.0787 -0.1535
23206SOL    HW174074   2.237   5.642   0.577  0.9432  1.0712 -2.2895
23206SOL    HW274075   2.110   5.560   0.570  1.0803  0.4058  1.4284
23207SOL     OW74076   9.603   2.975   4.253 -0.5228 -0.3649  0.0311
23207SOL    HW174077   9.554   2.893   4.246  0.0386 -0.8962  1.7268
23207SOL    HW274078   9.629   2.996   4.164 -2.1934 -1.0661 -0.6662
23208SOL     OW74079   5.401   0.387   9.358  0.0548  0.5979 -0.0592
23208SOL    HW174080   5.409   0.481   9.340  0.4241  0.3459 -1.3341
23208SOL    HW274081   5.436   0.376   9.446 -1.6694  1.9090  0.8607
23209SOL     OW74082   5.746   6.440   8.718 -0.4292  0.2402  0.2180
23209SOL    HW174083   5.721   6.408   8.805 -1.2742  1.1574  0.3378
23209SOL    HW274084   5.833   6.479   8.732 -0.4024  0.0664  0.5663
23210SOL     OW74085   6.849   8.934   3.949  0.7184 -0.1666  0.1861
23210SOL    HW174086   6.886   8.934   3.861 -0.1765  1.1937 -0.2285
23210SOL    HW274087   6.818   9.024   3.962  0.7457 -0.3664  1.8572
23211SOL     OW74088   4.723  10.238  10.800 -0.4086  0.4524 -0.2505
23211SOL    HW174089   4.630  10.261  10.801 -0.1559  1.5584 -0.8912
23211SOL    HW274090   4.768  10.320  10.785  0.6862 -0.0823 -0.0121
23212SOL     OW74091   5.008   2.770   5.000  0.3472  0.8495  0.2208
23212SOL    HW174092   4.961   2.698   5.042  0.7565  0.4187 -0.0328
23212SOL    HW274093   5.093   2.731   4.977  0.7742  1.5719  0.5661
23213SOL     OW74094   2.758   4.479   5.637  0.2639 -0.3304 -0.2946
23213SOL    HW174095   2.774   4.414   5.706 -0.0132 -1.7715 -1.5305
23213SOL    HW274096   2.845   4.512   5.615  0.4989 -0.9000 -0.2330
23214SOL     OW74097   8.261   6.035   9.790  0.2741  0.5658 -0.4217
23214SOL    HW174098   8.219   6.117   9.817  0.9468  1.0294 -0.7508
23214SOL    HW274099   8.339   6.063   9.741  0.0251 -0.2686 -1.3195
23215SOL     OW74100   5.024   6.879   7.313  0.5065 -0.9724 -0.2637
23215SOL    HW174101   5.014   6.931   7.393 -0.8457 -2.5995  0.6868
23215SOL    HW274102   4.978   6.798   7.331 -0.1259 -1.2791 -2.8374
23216SOL     OW74103   3.251   1.629  10.554  0.1719 -0.0973 -0.2145
23216SOL    HW174104   3.269   1.722  10.558 -1.6457  0.3010 -0.2888
23216SOL    HW274105   3.235   1.611  10.461 -1.0284 -0.1367 -0.0124
23217SOL     OW74106   0.916   8.356   4.231  0.3020  0.7763 -0.0824
23217SOL    HW174107   0.924   8.373   4.137  0.5306 -0.8601 -0.3817
23217SOL    HW274108   0.905   8.262   4.238 -1.5674  1.0321  1.4305
23218SOL     OW74109   8.192   6.781   6.589 -0.5410 -0.3157  0.1195
23218SOL    HW174110   8.150   6.723   6.652  0.3631  0.0166  1.0429
23218SOL    HW274111   8.280   6.745   6.578 -0.4062  0.1282 -0.3046
23219SOL     OW74112   4.359   5.325   7.372  0.0704  0.2013  0.3032
23219SOL    HW174113   4.287   5.275   7.335  1.5141 -1.1723 -0.8224
23219SOL    HW274114   4.386   5.385   7.302 -0.2196  0.9999  0.8589
23220SOL     OW74115   7.276   7.905   7.836  0.1723  0.3610  0.0983
23220SOL    HW174116   7.292   7.871   7.748  0.0146  0.4052  0.0520
23220SOL    HW274117   7.359   7.891   7.883  0.0878 -0.1487  0.0984
23221SOL     OW74118   4.533   1.563   6.510 -0.4748 -0.7319  0.6294
23221SOL    HW174119   4.567   1.643   6.470 -0.6427  0.0233  1.9300
23221SOL    HW274120   4.450   1.547   6.465 -0.3173 -0.3209  0.1856
23222SOL     OW74121   0.966   1.958   5.989 -0.1384 -0.4738 -0.0547
23222SOL    HW174122   0.969   2.036   5.934 -0.3580 -0.8078 -0.5453
23222SOL    HW274123   1.057   1.932   5.999 -0.1929 -1.4125 -1.7150
23223SOL     OW74124   4.633   5.218   8.034  0.5197  0.0315  0.3081
23223SOL    HW174125   4.598   5.174   8.112  1.7993 -1.0843  0.2879
23223SOL    HW274126   4.556   5.249   7.987 -0.4649 -2.0241  0.4441
23224SOL     OW74127   6.940   1.663   3.735  0.5977  0.3074 -0.4635
23224SOL    HW174128   7.009   1.672   3.801  0.1580 -1.3457  0.2676
23224SOL    HW274129   6.982   1.615   3.663  0.3547 -0.2949 -0.2120
23225SOL     OW74130   1.286   6.935   2.945  0.2503  0.2670 -0.5027
23225SOL    HW174131   1.324   7.021   2.964 -2.1165  1.4312 -0.7399
23225SOL    HW274132   1.203   6.954   2.903 -1.6104 -2.0591  1.7798
23226SOL     OW74133   8.214   5.259   4.781 -0.4277  0.0360 -0.2229
23226SOL    HW174134   8.198   5.353   4.774  0.3632  0.4142  2.0172
23226SOL    HW274135   8.306   5.252   4.807 -0.3035 -1.4014 -0.9487
23227SOL     OW74136   6.325   2.269   4.305  0.2910  0.4001 -0.1388
23227SOL    HW174137   6.330   2.188   4.254 -0.8016 -0.7672  1.5035
23227SOL    HW274138   6.380   2.252   4.381  0.2516  1.3032  0.0971
23228SOL     OW74139   1.568   9.399   2.314 -0.4070  0.3776  0.4237
23228SOL    HW174140   1.491   9.456   2.322 -0.2650  0.6809 -0.3001
23228SOL    HW274141   1.573   9.354   2.399 -1.7435 -0.1054  0.2732
23229SOL     OW74142  10.073   5.419   2.825 -0.0623  0.2229 -0.1534
23229SOL    HW174143  10.033   5.466   2.751 -3.0184  0.4921  1.4879
23229SOL    HW274144  10.036   5.330   2.820 -0.6884  0.3793  1.2284
23230SOL     OW74145   6.822   0.949   1.137 -0.2733  0.0556  0.1222
23230SOL    HW174146   6.728   0.965   1.143  0.2721  3.6497  1.1087
23230SOL    HW274147   6.841   0.953   1.043 -1.1672 -1.8609 -0.2011
23231SOL     OW74148   1.949   1.824   6.454 -0.2603 -0.1470 -0.3355
23231SOL    HW174149   2.035   1.794   6.424 -0.3614 -1.2196  0.3788
23231SOL    HW274150   1.966   1.861   6.541 -0.5268 -0.4255 -0.1633
23232SOL     OW74151   9.463   9.393   4.405 -0.8827 -0.0506  0.0605
23232SOL    HW174152   9.472   9.304   4.370 -0.0986  0.1519 -0.2659
23232SOL    HW274153   9.477   9.450   4.329 -0.4516  0.3667  0.4521
23233SOL     OW74154   4.617   2.185   7.910  0.5149  0.0319  0.2579
23233SOL    HW174155   4.684   2.118   7.894 -0.2508 -0.9176  0.8529
23233SOL    HW274156   4.657   2.243   7.976  2.5674  2.3224 -2.7105
23234SOL     OW74157   2.936   5.321   3.943  0.5690  0.7574 -0.3304
23234SOL    HW174158   3.023   5.287   3.920  0.3005 -1.1438  1.1872
23234SOL    HW274159   2.940   5.333   4.038 -1.1020 -0.3557 -0.0763
23235SOL     OW74160  10.306   4.367   5.042 -0.1378 -0.1134  0.2874
23235SOL    HW174161  10.302   4.448   5.093 -0.6293  0.3109 -0.4164
23235SOL    HW274162  10.261   4.387   4.960 -0.7150 -1.2509  0.3035
23236SOL     OW74163   8.061   8.837  10.490 -0.0439  0.0128 -0.3927
23236SOL    HW174164   8.114   8.906  10.450 -0.8915  0.2958 -1.0598
23236SOL    HW274165   8.071   8.851  10.584 -1.3849  2.0167 -0.4908
23237SOL     OW74166   1.786   7.464   0.191  0.3144 -0.0624 -0.1240
23237SOL    HW174167   1.863   7.408   0.181  1.5196  1.5179 -0.1481
23237SOL    HW274168   1.768   7.464   0.285  2.4993  2.1895  0.3905
23238SOL     OW74169   7.143   1.283  10.609  0.0194  0.3462  0.2922
23238SOL    HW174170   7.146   1.379  10.613 -1.2452  0.3507  1.7297
23238SOL    HW274171   7.086   1.264  10.535 -0.7912  0.7311  0.8108
23239SOL     OW74172   9.723   8.100   7.763  0.2041  0.0037  0.0883
23239SOL    HW174173   9.675   8.137   7.838 -0.2617 -1.0007  0.3053
23239SOL    HW274174   9.810   8.138   7.770 -0.3609  1.3979  0.0409
23240SOL     OW74175   1.322   2.100   8.415  0.1913  0.0485  0.5870
23240SOL    HW174176   1.334   2.030   8.480 -0.6870 -1.5411 -0.8730
23240SOL    HW274177   1.371   2.070   8.338 -0.3436  0.9657 -0.1295
23241SOL     OW74178   7.118   5.331   1.506 -0.0590  0.2238 -0.2857
23241SOL    HW174179   7.106   5.405   1.566 -1.1485  2.5397 -3.0921
23241SOL    HW274180   7.179   5.364   1.439 -0.8041 -1.2938 -1.7959
23242SOL     OW74181   1.652   6.130   7.856 -0.4158 -0.3263 -0.0147
23242SOL    HW174182   1.712   6.150   7.928 -1.1469 -1.3419  0.9308
23242SOL    HW274183   1.565   6.135   7.896 -0.9851  1.0921 -1.3469
23243SOL     OW74184   5.440  10.628   2.590  0.1391 -0.6838  0.2368
23243SOL    HW174185   5.477  10.715   2.603 -0.1053 -0.6939  1.0443
23243SOL    HW274186   5.350  10.634   2.623 -0.2285 -0.9688 -0.6515
23244SOL     OW74187   9.100   7.517   3.135  0.7766  0.2214  0.4922
23244SOL    HW174188   9.069   7.603   3.165 -0.7472 -0.1338  0.0673
23244SOL    HW274189   9.172   7.495   3.194  1.7720  2.1564  0.0736
23245SOL     OW74190   3.440   2.245   5.225 -0.1396  0.8695  0.6607
23245SOL    HW174191   3.433   2.309   5.295 -0.1370  0.7879  0.7356
23245SOL    HW274192   3.437   2.160   5.269  2.2198  0.8034  0.8158
23246SOL     OW74193   6.290   9.624   6.537 -0.3833 -0.1846  0.3618
23246SOL    HW174194   6.335   9.548   6.498 -2.2847 -2.0655  1.6142
23246SOL    HW274195   6.308   9.617   6.630  0.4804  1.7330  0.3806
23247SOL     OW74196   1.458   9.322  10.238 -0.2529 -0.1841  0.0123
23247SOL    HW174197   1.469   9.304  10.144  0.6792  2.4655 -0.4717
23247SOL    HW274198   1.367   9.351  10.246 -0.2633 -0.1855 -0.0961
23248SOL     OW74199   9.818   9.127   7.339 -0.0504  0.0578  0.2715
23248SOL    HW174200   9.864   9.078   7.407 -0.3177 -0.1308  0.3218
23248SOL    HW274201   9.726   9.123   7.366 -0.1815 -0.1977 -0.2100
23249SOL     OW74202   7.647  10.577   6.373  0.5648 -0.0758  0.2181
23249SOL    HW174203   7.590  10.649   6.347  0.3122  0.5070  2.2465
23249SOL    HW274204   7.613  10.501   6.326 -2.6179  0.0088  2.1044
23250SOL     OW74205   9.718   9.486   1.684 -0.0542  0.2970  0.0845
23250SOL    HW174206   9.770   9.517   1.610 -0.9671 -0.1150 -0.7482
23250SOL    HW274207   9.667   9.413   1.649  1.6274 -1.8534  1.8463
23251SOL     OW74208   1.001   3.816   6.109  0.2341 -0.3924  0.3072
23251SOL    HW174209   0.928   3.872   6.081  0.7714  0.9334  1.4180
23251SOL    HW274210   0.961   3.732   6.128 -1.0527  0.3293  0.9557
23252SOL     OW74211   5.268   3.343   7.908 -0.4360 -0.4360  0.0001
23252SOL    HW174212   5.184   3.374   7.876 -0.9713 -0.5077  1.3017
23252SOL    HW274213   5.248   3.293   7.987  1.0230  2.0087  2.0770
23253SOL     OW74214   0.257   4.788   7.089  0.1408 -0.0590 -0.1172
23253SOL    HW174215   0.298   4.776   7.175  0.8276 -2.4021 -0.6941
23253SOL    HW274216   0.323   4.835   7.037  0.5932 -0.5022  0.0445
23254SOL     OW74217   2.247   4.778   9.828 -0.7697 -0.6635  0.0781
23254SOL    HW174218   2.171   4.835   9.841 -2.0742 -1.9992 -1.2907
23254SOL    HW274219   2.256   4.770   9.733  0.4276 -1.3675  0.2285
23255SOL     OW74220  10.392   8.346   6.739 -0.1418 -0.1439 -0.4565
23255SOL    HW174221  10.368   8.261   6.777  1.2425 -0.2308  0.2936
23255SOL    HW274222  10.313   8.399   6.748 -0.0644 -0.3142  2.1683
23256SOL     OW74223   8.944  10.829   0.324 -0.3098  0.0907  0.0587
23256SOL    HW174224   8.911  10.900   0.380 -1.5921 -1.5938  1.6048
23256SOL    HW274225   9.014  10.869   0.272 -0.3604  2.2388  1.5039
23257SOL     OW74226   1.442   0.961   8.780  0.7266  0.4067  0.3639
23257SOL    HW174227   1.534   0.960   8.806  0.8963 -0.7468 -0.2562
23257SOL    HW274228   1.440   1.015   8.701  1.6420 -2.9456 -2.1815
23258SOL     OW74229  10.166   6.906   0.163  0.4023  0.1892 -0.5680
23258SOL    HW174230  10.099   6.891   0.096  1.9800 -1.1188 -1.9681
23258SOL    HW274231  10.204   6.819   0.178  1.4586  0.8082  0.5029
23259SOL     OW74232   2.971   1.232   0.689 -0.7139  0.0523 -0.1506
23259SOL    HW174233   2.885   1.196   0.712 -0.5858  0.0845  0.3964
23259SOL    HW274234   2.970   1.320   0.726 -0.5739  0.1813 -0.4503
23260SOL     OW74235   4.560   7.206  11.010 -0.0112 -0.5472  0.2668
23260SOL    HW174236   4.555   7.272  11.079  1.4310 -0.6663  0.5242
23260SOL    HW274237   4.487   7.225  10.952  1.3410  2.4234 -0.6733
23261SOL     OW74238   8.626   2.739   9.012 -0.0007  0.2034 -0.1084
23261SOL    HW174239   8.676   2.748   8.930 -0.4006 -0.5606 -0.4461
23261SOL    HW274240   8.537   2.766   8.989 -0.6987 -2.2429 -0.5794
23262SOL     OW74241   3.340   7.142   9.052 -0.2491 -0.4542  0.2967
23262SOL    HW174242   3.329   7.051   9.079  1.6599 -1.5767 -2.2616
23262SOL    HW274243   3.433   7.161   9.067 -0.9055  1.6917  2.2479
23263SOL     OW74244  10.487   0.114   4.326  0.3236  0.1039 -0.2645
23263SOL    HW174245  10.514   0.101   4.417 -1.9229 -2.8277  0.1271
23263SOL    HW274246  10.568   0.110   4.276  1.4555  0.2041  1.4732
23264SOL     OW74247   6.306  10.073   4.030 -0.0315  0.3047  0.4060
23264SOL    HW174248   6.272  10.079   4.119  0.9416 -1.9446  0.9861
23264SOL    HW274249   6.337   9.983   4.022 -0.7997  0.2223 -2.4914
23265SOL     OW74250   7.630   2.048   4.704  0.2638 -0.6218  0.1951
23265SOL    HW174251   7.635   2.102   4.783  0.4311  0.9476 -0.8428
23265SOL    HW274252   7.561   2.089   4.652  2.0886  0.1825 -1.7287
23266SOL     OW74253   5.879   1.571   6.833  0.1444  0.4666  0.5538
23266SOL    HW174254   5.783   1.580   6.833 -0.2570 -2.4361  1.6552
23266SOL    HW274255   5.898   1.532   6.748  0.2391  0.3137  0.6451
23267SOL     OW74256  10.115   8.393   5.598 -0.2351 -0.4094  0.2173
23267SOL    HW174257  10.059   8.351   5.662  0.2244 -2.9201 -0.9254
23267SOL    HW274258  10.183   8.328   5.578  0.7429  1.0129 -1.3910
23268SOL     OW74259   9.103   2.838   1.275  0.1194 -0.0381 -0.3702
23268SOL    HW174260   9.032   2.878   1.326 -0.9146 -1.3630 -0.7138
23268SOL    HW274261   9.073   2.845   1.184  1.3620  1.1505 -0.7230
23269SOL     OW74262   3.403   2.938   0.462  0.0698  0.1278  0.2770
23269SOL    HW174263   3.388   2.868   0.398  0.9046  1.3910 -1.3809
23269SOL    HW274264   3.316   2.969   0.486 -0.2975 -1.2030  0.7578
23270SOL     OW74265  10.959   9.089   8.181 -0.1868  0.1356 -0.0985
23270SOL    HW174266  11.053   9.084   8.163 -0.2649 -0.9160 -0.2805
23270SOL    HW274267  10.922   9.135   8.106  0.0526 -0.4129 -0.5618
23271SOL     OW74268   9.050  10.300  10.349  0.1148 -0.0674  0.3997
23271SOL    HW174269   9.103  10.232  10.307 -0.1582  0.2303 -0.4503
23271SOL    HW274270   9.068  10.379  10.298 -0.3654  0.2613  0.7306
23272SOL     OW74271   8.400   0.236   2.690  0.1077 -0.0566  0.3960
23272SOL    HW174272   8.354   0.169   2.741 -0.9196 -0.4367 -0.9593
23272SOL    HW274273   8.338   0.260   2.621  0.8018  1.6749  0.3438
23273SOL     OW74274   0.948  10.888   9.001  0.3533  0.2966 -0.5520
23273SOL    HW174275   1.035  10.850   9.003  0.1567 -0.3640 -2.5429
23273SOL    HW274276   0.944  10.936   8.918 -1.1968  0.2640 -0.5342
23274SOL     OW74277   9.525   7.816  10.126  0.2124 -0.4311 -0.1692
23274SOL    HW174278   9.569   7.745  10.079  0.7518 -0.2652  0.0852
23274SOL    HW274279   9.548   7.895  10.077  0.6179 -0.2812  0.2625
23275SOL     OW74280   8.361  10.342   1.288 -0.2713  0.0497  0.9496
23275SOL    HW174281   8.288  10.402   1.306 -0.3064 -0.0674  1.1989
23275SOL    HW274282   8.349  10.270   1.349 -0.4692 -0.4275  0.3610
23276SOL     OW74283   8.246  10.984   0.996  0.0335  0.1637 -0.2996
23276SOL    HW174284   8.276  11.035   0.920  1.2049 -0.5636 -0.3449
23276SOL    HW274285   8.325  10.970   1.048  0.0306 -2.7255 -0.9401
23277SOL     OW74286   0.208   2.509   3.359 -0.1250  0.2680  0.2053
23277SOL    HW174287   0.301   2.492   3.375 -0.3757 -2.1490 -0.6558
23277SOL    HW274288   0.207   2.568   3.283  0.6908  1.9767  1.4325
23278SOL     OW74289   1.796   6.547  10.984 -0.7646 -0.3866 -0.3806
23278SOL    HW174290   1.888   6.521  10.975 -0.5521  0.4975 -0.8806
23278SOL    HW274291   1.782   6.555  11.078  0.1282  1.0396 -0.3478
23279SOL     OW74292   6.160   5.119   2.665 -0.4301 -0.3711 -0.4694
23279SOL    HW174293   6.153   5.084   2.754  0.6900 -1.5286 -0.7946
23279SOL    HW274294   6.172   5.213   2.676 -0.2490 -0.5116  0.6098
23280SOL     OW74295   5.970   2.886  10.300  1.3607 -0.0355  0.0742
23280SOL    HW174296   5.997   2.847  10.383 -0.9387 -1.1475  0.3742
23280SOL    HW274297   6.025   2.964  10.292  2.7915 -0.7821  1.8049
23281SOL     OW74298   3.023   6.835   0.780 -0.0495  0.0272  0.7938
23281SOL    HW174299   2.997   6.760   0.727 -0.7718  0.5623  0.3844
23281SOL    HW274300   2.987   6.911   0.735 -0.1431  0.5448  1.7100
23282SOL     OW74301   5.566   8.920   5.123 -0.0216 -0.6224  0.1962
23282SOL    HW174302   5.573   8.831   5.087 -1.3993 -0.1407 -1.4121
23282SOL    HW274303   5.592   8.977   5.051 -1.6808  0.3469  0.3206
23283SOL     OW74304   0.893   1.798   5.718 -0.2846  0.1412 -0.1677
23283SOL    HW174305   0.823   1.750   5.674 -1.9313  1.2377  1.1076
23283SOL    HW274306   0.924   1.737   5.786  0.2693 -0.4732 -0.9506
23284SOL     OW74307   7.002   9.789   5.439 -0.4797 -0.3678  0.2246
23284SOL    HW174308   6.960   9.704   5.430  0.8648 -1.0460  0.0460
23284SOL    HW274309   7.096   9.770   5.435 -0.1503  1.3584 -1.9344
23285SOL     OW74310  10.255   9.108   1.698 -0.0365 -0.1262 -0.3241
23285SOL    HW174311  10.245   9.045   1.770 -0.9511 -0.9461 -1.1479
23285SOL    HW274312  10.172   9.105   1.651 -0.0933  1.6851 -0.4263
23286SOL     OW74313   3.983   4.932   9.207  0.6388 -0.8506 -0.0779
23286SOL    HW174314   4.022   4.906   9.291  0.3547 -1.0542 -0.0103
23286SOL    HW274315   3.931   4.857   9.180  0.2583 -0.5658 -0.1500
23287SOL     OW74316   9.019   1.163   3.245 -0.1916  0.1690  0.1692
23287SOL    HW174317   9.079   1.118   3.305  1.0432 -1.3071 -2.0545
23287SOL    HW274318   9.068   1.240   3.217  0.1258 -0.2985 -0.5819
23288SOL     OW74319   1.716   1.696  10.565 -0.2283  0.2920 -0.0606
23288SOL    HW174320   1.787   1.738  10.613 -1.4765  1.1711  1.1109
23288SOL    HW274321   1.716   1.738  10.479  0.7977  0.1156 -0.1511
23289SOL     OW74322   9.115  10.396   8.239 -0.4005  0.3554 -0.4194
23289SOL    HW174323   9.207  10.417   8.254 -0.5457  0.9133 -0.2739
23289SOL    HW274324   9.074  10.403   8.325 -0.4377 -0.6942 -0.3313
23290SOL     OW74325   9.739   5.153   4.332  0.7888 -0.0168 -0.3095
23290SOL    HW174326   9.737   5.244   4.304 -1.6336 -0.5071 -1.9820
23290SOL    HW274327   9.648   5.126   4.335  1.4706 -3.0528 -2.2712
23291SOL     OW74328   6.861   4.766   5.612 -0.3368  0.1831  0.3313
23291SOL    HW174329   6.878   4.674   5.634 -0.8274  0.0751  0.2548
23291SOL    HW274330   6.770   4.780   5.635 -0.3348  0.5792  0.0989
23292SOL     OW74331   9.772   7.129   5.804 -0.1331  0.0665 -0.1236
23292SOL    HW174332   9.860   7.166   5.805  1.0877 -2.5832 -0.7451
23292SOL    HW274333   9.777   7.051   5.860 -2.9314  1.3827  2.2946
23293SOL     OW74334   0.643   7.454   1.231 -0.3664 -0.2273  0.5736
23293SOL    HW174335   0.712   7.387   1.230 -0.4336 -0.3360  1.9086
23293SOL    HW274336   0.570   7.413   1.277 -0.3569  0.8005  1.5308
23294SOL     OW74337   9.302  10.397   1.521  0.5632  0.2523  0.6478
23294SOL    HW174338   9.397  10.402   1.520  0.5373  0.8340  0.6437
23294SOL    HW274339   9.276  10.413   1.430  0.3433  3.2300  1.1389
23295SOL     OW74340   0.466   9.047   3.634 -0.0653 -0.2832  0.0744
23295SOL    HW174341   0.462   8.952   3.649 -0.6520 -0.1525  0.7729
23295SOL    HW274342   0.379   9.079   3.656 -0.1125  0.3209 -0.9416
23296SOL     OW74343   2.328   5.128   9.157 -0.1187  0.1246 -0.1180
23296SOL    HW174344   2.395   5.173   9.105 -1.2880  2.0916 -0.0060
23296SOL    HW274345   2.306   5.051   9.105  0.9704  0.3852 -1.0056
23297SOL     OW74346   5.613   8.442   5.171  0.1013  0.0747 -0.0831
23297SOL    HW174347   5.566   8.407   5.096 -0.6083  1.8939 -0.5362
23297SOL    HW274348   5.706   8.437   5.145 -0.1808  1.6648 -1.5735
23298SOL     OW74349   7.056   5.449   3.980 -0.2542 -0.1518 -0.1322
23298SOL    HW174350   7.000   5.456   3.903 -0.5175  1.4521  0.1703
23298SOL    HW274351   7.010   5.388   4.038 -0.8053 -0.1937 -0.6018
23299SOL     OW74352   5.972  10.613   0.912 -0.6258  0.5939  0.6643
23299SOL    HW174353   6.022  10.564   0.847 -1.8730 -0.9394  0.7962
23299SOL    HW274354   6.012  10.700   0.913  0.4077  0.1828 -1.0093
23300SOL     OW74355   9.512   7.495   9.459  0.6090  0.5622  0.7690
23300SOL    HW174356   9.491   7.529   9.372  2.4518 -0.5004 -0.1488
23300SOL    HW274357   9.436   7.517   9.513 -0.2198  1.9769 -0.8972
23301SOL     OW74358   7.465   1.623   3.763  0.1494  0.2389  0.0859
23301SOL    HW174359   7.502   1.684   3.699 -1.1953  1.4385  0.4070
23301SOL    HW274360   7.522   1.632   3.840  1.4617 -0.8280 -0.7254
23302SOL     OW74361   7.037   5.026   1.313  0.5492 -0.0249  0.1509
23302SOL    HW174362   6.996   4.939   1.312  4.6388 -2.1815  0.8487
23302SOL    HW274363   6.997   5.071   1.238 -2.1113 -2.2271  0.0546
23303SOL     OW74364   5.627   1.618   0.086  0.0285 -0.1683 -0.2559
23303SOL    HW174365   5.698   1.659   0.136  0.3202  0.2905 -1.0325
23303SOL    HW274366   5.614   1.534   0.129 -0.9301  0.9158  1.7011
23304SOL     OW74367   3.809   4.356   1.306  0.1068 -0.1761  0.1017
23304SOL    HW174368   3.813   4.401   1.222 -1.7228 -1.0525 -0.4958
23304SOL    HW274369   3.822   4.263   1.284  0.4375 -0.3232  0.8865
23305SOL     OW74370   0.144   4.959   5.924 -0.4286 -0.1989 -0.2717
23305SOL    HW174371   0.060   4.935   5.885 -1.4822  0.8333  1.2340
23305SOL    HW274372   0.123   4.979   6.015  1.2942  1.0083 -0.0927
23306SOL     OW74373   7.941   3.860   6.830 -0.8965  0.4936  0.0925
23306SOL    HW174374   7.886   3.903   6.764 -0.0315  2.2437  0.4384
23306SOL    HW274375   7.997   3.801   6.780 -2.4377 -0.6316 -0.3610
23307SOL     OW74376   9.050   4.294   4.202 -0.0950 -0.0655  0.3583
23307SOL    HW174377   9.077   4.329   4.287  1.9278  1.0324 -0.6773
23307SOL    HW274378   8.965   4.335   4.186  1.3680  3.1143  0.0228
23308SOL     OW74379   7.370   8.829   3.931  0.8397  0.0792 -0.2132
23308SOL    HW174380   7.381   8.850   4.023  1.7366 -2.7285  0.4104
23308SOL    HW274381   7.275   8.816   3.920  0.7952 -0.2094  0.4828
23309SOL     OW74382   8.480   6.503   5.975  0.4787  0.5707 -0.6738
23309SOL    HW174383   8.480   6.558   6.053  1.5766  1.3154 -1.1615
23309SOL    HW274384   8.457   6.416   6.006  0.4176  0.9633  0.3986
23310SOL     OW74385   1.912   0.880   4.577  0.0326 -0.0867  0.1073
23310SOL    HW174386   1.827   0.838   4.585  0.1075 -0.2335  0.1273
23310SOL    HW274387   1.904   0.935   4.499 -0.6806  1.3032  1.1229
23311SOL     OW74388  10.755   9.787   8.473  0.2554  0.1446 -0.0457
23311SOL    HW174389  10.844   9.783   8.439  0.5877  1.1241  0.6421
23311SOL    HW274390  10.741   9.703   8.517  1.5971  0.7143  1.5866
23312SOL     OW74391   5.910   1.018   5.450 -0.3456 -0.7424  0.1792
23312SOL    HW174392   5.926   1.020   5.545 -0.7064 -1.9410  0.2746
23312SOL    HW274393   5.886   0.927   5.431 -3.4913  0.1059 -0.5271
23313SOL     OW74394   2.503   4.554   3.323 -0.3356 -0.3985  0.2984
23313SOL    HW174395   2.496   4.529   3.231 -0.6672  1.4192 -0.2001
23313SOL    HW274396   2.584   4.604   3.329  0.7950 -2.2290  1.4621
23314SOL     OW74397   9.458   7.737  10.919 -0.0320 -0.0404  0.0730
23314SOL    HW174398   9.387   7.705  10.864  1.3029 -0.0174 -1.7697
23314SOL    HW274399   9.537   7.726  10.865  1.0789  1.9884  1.1471
23315SOL     OW74400   4.874  10.598   4.459 -0.4358  0.1984  0.4015
23315SOL    HW174401   4.872  10.563   4.548  1.8018 -0.6348  0.1988
23315SOL    HW274402   4.902  10.524   4.405 -2.4488  0.4956 -1.1583
23316SOL     OW74403   0.468   1.147   0.000  0.1101  0.6009  0.5881
23316SOL    HW174404   0.382   1.104   0.001  0.4420 -0.0931  1.8562
23316SOL    HW274405   0.481   1.178   0.090  1.5507 -0.0848  0.6496
23317SOL     OW74406   8.889   6.641   3.927 -0.4479  0.3485 -0.0581
23317SOL    HW174407   8.842   6.719   3.958 -2.2251  0.0550 -1.7909
23317SOL    HW274408   8.941   6.613   4.002 -0.0951  2.9355  0.7465
23318SOL     OW74409   3.157  10.139   6.735  0.0180  0.0665  0.6022
23318SOL    HW174410   3.201  10.222   6.720  0.3317 -0.2867 -0.5717
23318SOL    HW274411   3.182  10.114   6.824  2.9189 -0.5103 -0.2891
23319SOL     OW74412   4.879   4.215   6.469 -0.1431  0.3454 -0.0658
23319SOL    HW174413   4.889   4.276   6.395  1.0731  1.1549  0.7321
23319SOL    HW274414   4.895   4.129   6.431  1.9981  0.8805 -0.5093
23320SOL     OW74415  10.975   5.268   4.030 -0.2851  0.0073  0.4987
23320SOL    HW174416  10.978   5.217   4.110 -0.4169  2.4869  2.1905
23320SOL    HW274417  10.925   5.346   4.052  0.2039  1.0834 -1.8188
23321SOL     OW74418   5.946   5.120   6.193 -0.2115  0.7738 -0.4717
23321SOL    HW174419   5.952   5.103   6.099  0.6645  3.1613 -0.9231
23321SOL    HW274420   6.013   5.064   6.232  1.1760  1.5802 -1.5992
23322SOL     OW74421   7.044   8.243   5.928  0.1265  0.5696 -0.2216
23322SOL    HW174422   7.106   8.174   5.954 -1.9841 -0.2828  3.1240
23322SOL    HW274423   7.017   8.283   6.011 -2.1463  2.3973 -1.7324
23323SOL     OW74424   5.156   7.340   4.585 -0.1463 -0.1167 -0.2563
23323SOL    HW174425   5.128   7.408   4.645 -0.9309  0.2127 -0.9735
23323SOL    HW274426   5.119   7.259   4.621  0.3205 -0.0899  0.2939
23324SOL     OW74427   1.230  10.617   5.125 -0.0942 -0.0379  0.1306
23324SOL    HW174428   1.177  10.625   5.204  1.8305 -0.9706  1.5788
23324SOL    HW274429   1.235  10.707   5.091 -1.4746  0.2690  0.6703
23325SOL     OW74430   5.710   3.058   5.679 -0.7871 -0.5679  0.0399
23325SOL    HW174431   5.674   3.023   5.761 -0.9826  1.6590  0.9801
23325SOL    HW274432   5.632   3.086   5.630 -0.6068 -0.7927 -0.3737
23326SOL     OW74433   8.712   7.741  10.131  0.0105  0.1905 -0.1695
23326SOL    HW174434   8.729   7.676  10.199 -2.2793 -0.9588 -0.6007
23326SOL    HW274435   8.749   7.703  10.052 -1.1956 -0.5768 -0.3924
23327SOL     OW74436   7.371   9.334   1.128 -0.2205  0.0824  0.8501
23327SOL    HW174437   7.300   9.395   1.112  0.0823  0.5576  1.2890
23327SOL    HW274438   7.424   9.375   1.196 -0.0566 -0.7051  1.2159
23328SOL     OW74439   8.563   3.741  10.862  0.1988 -0.3162 -0.5121
23328SOL    HW174440   8.574   3.772  10.772  1.0908 -1.7728 -0.9491
23328SOL    HW274441   8.632   3.676  10.873  0.0141 -0.2734  1.1957
23329SOL     OW74442   4.170   4.816   8.615 -0.4961 -0.2676 -0.6458
23329SOL    HW174443   4.187   4.723   8.629  1.2418 -0.1854 -1.9267
23329SOL    HW274444   4.256   4.857   8.622 -1.1958  1.2070 -0.4299
23330SOL     OW74445   5.226   5.045   4.819 -0.4964  0.5673  0.5537
23330SOL    HW174446   5.311   5.054   4.774 -1.6313  0.2578 -1.8094
23330SOL    HW274447   5.216   5.126   4.868  0.3956  1.3979 -0.5666
23331SOL     OW74448   7.809   2.997   6.435 -0.2677  0.2957  0.1308
23331SOL    HW174449   7.749   2.981   6.508  0.1132 -0.0203  0.3734
23331SOL    HW274450   7.892   3.020   6.476 -0.5356  1.9648 -0.2051
23332SOL     OW74451   1.919   8.196   6.497 -0.3754  0.7475  0.0423
23332SOL    HW174452   1.847   8.260   6.504  0.3608  1.6277 -0.2280
23332SOL    HW274453   1.876   8.111   6.500 -1.2627  1.2044  2.0636
23333SOL     OW74454   4.178   5.413   6.199 -0.0602 -0.0692  0.0338
23333SOL    HW174455   4.153   5.324   6.171  1.1185 -0.4628  0.1738
23333SOL    HW274456   4.254   5.434   6.144  0.4297  0.3477  0.8592
23334SOL     OW74457   2.051   8.781   3.413 -0.0578 -0.5206  0.0020
23334SOL    HW174458   2.103   8.805   3.489 -0.0324 -1.2378  0.2153
23334SOL    HW274459   2.111   8.731   3.357  0.2393  0.8829 -1.0016
23335SOL     OW74460   4.875   4.437   0.561 -0.2189  0.6485  0.2200
23335SOL    HW174461   4.824   4.407   0.486 -1.0533  1.8053  0.2985
23335SOL    HW274462   4.831   4.398   0.637 -0.0170  0.3530  0.1889
23336SOL     OW74463   5.811   9.003   1.723  0.2285 -0.0928 -0.2020
23336SOL    HW174464   5.886   8.943   1.720  0.5344  0.2235  0.7785
23336SOL    HW274465   5.817   9.046   1.808 -0.9614  0.0902 -0.1862
23337SOL     OW74466   5.689   8.636   0.047 -0.0809  0.2975 -0.0099
23337SOL    HW174467   5.780   8.663   0.039 -0.2822  1.0746  0.3012
23337SOL    HW274468   5.690   8.571   0.117  0.6264 -1.6497 -1.6810
23338SOL     OW74469   5.907   8.695   8.498  0.2590  0.1294  0.1744
23338SOL    HW174470   5.865   8.665   8.417 -0.1609  0.0999  0.4008
23338SOL    HW274471   5.912   8.617   8.553  2.5866 -0.3788 -0.6603
23339SOL     OW74472   2.404   2.923   6.161 -0.4349  0.3912 -0.4062
23339SOL    HW174473   2.357   2.867   6.099 -0.1591  0.8782 -1.0530
23339SOL    HW274474   2.493   2.888   6.162 -0.2624  0.8165 -0.8091
23340SOL     OW74475  10.720   2.716   0.569  0.1847 -0.1736 -0.2002
23340SOL    HW174476  10.809   2.721   0.536 -0.2201 -0.6455 -1.4234
23340SOL    HW274477  10.689   2.806   0.570 -0.1593 -0.2175 -2.2406
23341SOL     OW74478  10.483   5.480   1.100  0.1436 -0.1741 -0.3069
23341SOL    HW174479  10.501   5.460   1.008  2.2326 -2.8920  0.5791
23341SOL    HW274480  10.415   5.417   1.125 -0.2601  0.4123  0.1129
23342SOL     OW74481   0.888   9.588   8.395 -0.3594 -0.2243 -0.2477
23342SOL    HW174482   0.893   9.506   8.444 -1.2926 -1.1276 -1.5760
23342SOL    HW274483   0.877   9.656   8.461  1.6339 -0.9984  0.9771
23343SOL     OW74484   0.553   4.568  10.067 -0.1266  0.2050 -0.2259
23343SOL    HW174485   0.587   4.524   9.990  2.1696  0.3033  0.6397
23343SOL    HW274486   0.580   4.660  10.056 -0.0597  0.2835  0.5165
23344SOL     OW74487   3.696   7.169   5.798  0.0408 -0.1348 -0.3677
23344SOL    HW174488   3.735   7.121   5.871  2.6584  3.2441  0.6845
23344SOL    HW274489   3.601   7.160   5.812  0.4479 -0.9060  2.5278
23345SOL     OW74490   5.196  10.678   2.703  0.4024  0.2505  0.2030
23345SOL    HW174491   5.179  10.721   2.787  0.8524  0.4169  0.2125
23345SOL    HW274492   5.114  10.687   2.655 -0.2534 -0.8607  1.0485
23346SOL     OW74493   3.404   4.069   2.186  0.7542  0.1207  0.0621
23346SOL    HW174494   3.489   4.111   2.191  0.2082  1.3630 -0.6999
23346SOL    HW274495   3.351   4.127   2.132 -0.8412 -0.1776  1.2239
23347SOL     OW74496   8.716   7.318  10.642 -0.2183  0.4254  0.6331
23347SOL    HW174497   8.806   7.352  10.648 -0.0143  0.6189 -2.1206
23347SOL    HW274498   8.716   7.267  10.561 -1.8186 -2.2075  2.1347
23348SOL     OW74499   9.146   2.896   3.485 -0.6076 -0.0819 -0.8495
23348SOL    HW174500   9.150   2.932   3.396 -0.9272  1.9283 -0.0789
23348SOL    HW274501   9.124   2.970   3.541  1.5374 -0.8553  1.1878
23349SOL     OW74502   6.563   8.345   6.380  0.3335  0.0031 -0.0537
23349SOL    HW174503   6.568   8.251   6.365  0.8628  0.1511 -0.8713
23349SOL    HW274504   6.516   8.354   6.463  2.2674 -1.0637  1.2274
23350SOL     OW74505   0.455   7.779   0.759 -0.1968  0.2158 -0.2569
23350SOL    HW174506   0.390   7.792   0.828  0.5238  1.3597  0.2226
23350SOL    HW274507   0.451   7.685   0.741 -2.5851  0.3464 -0.8669
23351SOL     OW74508  10.448   3.131   9.635  0.1341 -0.2226  0.1778
23351SOL    HW174509  10.413   3.142   9.547  0.9795 -0.3669 -0.1856
23351SOL    HW274510  10.451   3.220   9.671 -1.2522 -0.2825  0.4839
23352SOL     OW74511   0.123   1.334  10.238  0.2652  0.0008  0.6369
23352SOL    HW174512   0.105   1.259  10.181  1.2181  1.2541 -1.4332
23352SOL    HW274513   0.218   1.338  10.244  0.1903  0.2752  1.8162
23353SOL     OW74514   3.264   3.578   9.339  0.1933 -0.2105 -0.3454
23353SOL    HW174515   3.320   3.502   9.351  0.6334  0.5089  3.4161
23353SOL    HW274516   3.188   3.562   9.395 -1.4466  0.6233 -2.2054
23354SOL     OW74517   5.937  10.493   6.099  0.1323 -0.4692  0.4342
23354SOL    HW174518   5.952  10.565   6.161  2.2308 -0.6794  0.2509
23354SOL    HW274519   5.947  10.534   6.013  2.9996 -1.1698  0.3224
23355SOL     OW74520  10.761  10.500   4.200  0.6002  0.4161 -0.1682
23355SOL    HW174521  10.793  10.411   4.186 -1.1881 -0.4217  0.6834
23355SOL    HW274522  10.701  10.516   4.128  1.4000  1.2046 -0.6756
23356SOL     OW74523   9.154   2.292   1.791 -0.1358 -0.3988  0.3785
23356SOL    HW174524   9.154   2.202   1.758 -1.3914 -0.5827  0.8205
23356SOL    HW274525   9.169   2.283   1.885 -0.6705 -0.1886  0.4884
23357SOL     OW74526   2.285   2.636   4.898 -0.2934 -0.4327 -0.0188
23357SOL    HW174527   2.317   2.660   4.811 -1.1619  0.4306 -0.1061
23357SOL    HW274528   2.261   2.719   4.939  0.1048 -0.8292  1.0584
23358SOL     OW74529   9.911   5.906   5.911  0.1521  0.6530 -0.8250
23358SOL    HW174530   9.837   5.934   5.857  1.4130  1.8563 -2.0020
23358SOL    HW274531   9.916   5.971   5.981 -0.2920  0.1783 -0.3346
23359SOL     OW74532   0.544   8.455   7.495 -0.1399 -1.1311 -0.7254
23359SOL    HW174533   0.468   8.481   7.444  0.0862 -0.5975 -0.8055
23359SOL    HW274534   0.523   8.368   7.528 -0.5008 -1.2626 -1.2972
23360SOL     OW74535   8.797   2.516  10.357 -0.4781 -0.3130 -0.1183
23360SOL    HW174536   8.800   2.499  10.451 -3.0337  0.9709  0.2905
23360SOL    HW274537   8.727   2.458  10.325 -1.1848  0.8816 -0.7874
23361SOL     OW74538   5.808   5.812   0.223 -0.1013 -0.0101 -0.0006
23361SOL    HW174539   5.724   5.790   0.183 -0.5678 -0.5164  1.2153
23361SOL    HW274540   5.870   5.815   0.150 -0.7100 -1.9137 -0.6321
23362SOL     OW74541   9.071   0.602   5.132 -0.4500  0.6133 -0.0312
23362SOL    HW174542   9.146   0.630   5.080  0.1540  1.3872  1.2009
23362SOL    HW274543   9.109   0.557   5.208 -1.3472 -1.5786 -0.8114
23363SOL     OW74544   6.036   6.306   2.584  0.1152  0.0551  0.3167
23363SOL    HW174545   5.952   6.269   2.557 -0.3690  0.4141  1.2770
23363SOL    HW274546   6.057   6.262   2.666  0.5279  0.4611  0.4361
23364SOL     OW74547   2.122   6.470   3.103  0.2132 -0.1619 -0.4779
23364SOL    HW174548   2.088   6.474   3.014 -0.3573 -0.1638 -0.2655
23364SOL    HW274549   2.211   6.506   3.097  0.0167  0.2478 -0.9607
23365SOL     OW74550   8.321   7.012   9.399 -0.5457 -0.2698 -0.0943
23365SOL    HW174551   8.341   6.943   9.335 -1.4581  0.3585 -1.0980
23365SOL    HW274552   8.397   7.071   9.395  0.1456 -1.0925  0.6216
23366SOL     OW74553  10.014   7.212   5.895 -0.1556  0.2216  0.0875
23366SOL    HW174554  10.106   7.218   5.921  0.5288 -0.7946 -1.8885
23366SOL    HW274555   9.965   7.207   5.978  1.4955  1.2946  1.1817
23367SOL     OW74556   4.790  10.131   4.526 -0.5345  0.5447  0.2878
23367SOL    HW174557   4.855  10.157   4.591  0.2895 -1.0966  0.1813
23367SOL    HW274558   4.826  10.159   4.443  0.0758 -0.3588  0.2300
23368SOL     OW74559   2.112   1.713   8.728  0.1772 -0.4695 -0.2674
23368SOL    HW174560   2.094   1.773   8.655  0.4617 -0.3602 -0.2486
23368SOL    HW274561   2.116   1.770   8.805 -0.0290 -0.5733 -0.1793
23369SOL     OW74562   7.006   0.105   9.139  0.0769 -0.3699  0.2451
23369SOL    HW174563   7.006   0.122   9.233  0.8921  0.5622  0.0899
23369SOL    HW274564   7.094   0.128   9.110 -0.6319  0.9284 -1.0083
23370SOL     OW74565   1.043  10.403   2.697  0.8561 -0.0988 -0.1228
23370SOL    HW174566   0.978  10.473   2.686  0.2083 -0.4143  1.5049
23370SOL    HW274567   1.083  10.394   2.610 -0.1136  1.2396 -0.7394
23371SOL     OW74568   9.446   2.878   1.695  0.0235  0.2384  0.4479
23371SOL    HW174569   9.376   2.825   1.734 -0.0038 -1.1831 -1.3509
23371SOL    HW274570   9.425   2.879   1.602  0.8574  2.2406  0.2397
23372SOL     OW74571   8.831   5.354   5.882 -0.1592 -0.1240  0.1490
23372SOL    HW174572   8.848   5.432   5.829  0.7260 -0.0151  0.5794
23372SOL    HW274573   8.870   5.283   5.832 -1.8581 -0.4724 -0.7488
23373SOL     OW74574   9.738   1.781  10.129  1.0659 -0.1613  0.2740
23373SOL    HW174575   9.823   1.825  10.128  0.6649  0.6369  1.0166
23373SOL    HW274576   9.703   1.797  10.216 -0.3199  0.4271 -0.3761
23374SOL     OW74577   5.792   3.360   6.676  0.4069  0.4792  0.2473
23374SOL    HW174578   5.729   3.325   6.614 -0.0955  1.4968  0.1742
23374SOL    HW274579   5.848   3.418   6.624  0.3919  0.8289  0.6146
23375SOL     OW74580   7.400   3.600   5.748 -0.9031  0.7478  0.0196
23375SOL    HW174581   7.401   3.569   5.657 -1.3036  0.0645  0.2401
23375SOL    HW274582   7.486   3.638   5.761 -0.2256 -0.6782 -0.1386
23376SOL     OW74583   8.072   7.306   6.558 -0.0913 -0.4212  0.0684
23376SOL    HW174584   8.080   7.328   6.465 -1.1240  0.3720  0.1404
23376SOL    HW274585   8.136   7.237   6.572  1.1777  0.5029 -0.8905
23377SOL     OW74586   9.084   3.072   1.518  0.0838  0.3152  0.3716
23377SOL    HW174587   9.167   3.115   1.537 -0.2684  0.5016  1.5703
23377SOL    HW274588   9.030   3.089   1.595 -0.6128 -0.9444  0.1861
23378SOL     OW74589   6.912   7.394   2.799  0.4731 -0.1532 -0.4132
23378SOL    HW174590   6.944   7.372   2.711  0.1826  1.1698 -0.8697
23378SOL    HW274591   6.817   7.396   2.790  0.4831  1.9247 -0.6046
23379SOL     OW74592   1.467   5.431   0.698  0.1640 -0.8635  0.0738
23379SOL    HW174593   1.528   5.460   0.631  0.4139 -0.2466  0.5575
23379SOL    HW274594   1.523   5.399   0.769  0.0524  1.9189  1.5331
23380SOL     OW74595  10.171   2.880   1.999 -0.2907  0.2819 -0.8060
23380SOL    HW174596  10.146   2.815   1.934  0.7880 -0.7825 -0.1974
23380SOL    HW274597  10.249   2.922   1.962  1.9773 -2.1525  0.8289
23381SOL     OW74598   1.391   7.102   8.021 -0.1730 -0.2614 -0.4591
23381SOL    HW174599   1.352   7.135   8.102 -2.8423 -1.2412 -1.2534
23381SOL    HW274600   1.359   7.162   7.953  2.2006  0.6747 -0.8402
23382SOL     OW74601   3.895   2.084   6.483  0.7402 -0.4096 -0.6742
23382SOL    HW174602   3.933   1.997   6.492  2.4982  0.2219 -1.6544
23382SOL    HW274603   3.811   2.068   6.439  0.8994 -1.6269 -0.5777
23383SOL     OW74604  10.698   7.123   0.415  0.0501  0.0847  0.3512
23383SOL    HW174605  10.657   7.038   0.399 -3.3882  1.3244  1.6670
23383SOL    HW274606  10.715   7.158   0.327 -2.0139 -0.4398 -0.2974
23384SOL     OW74607   9.252   3.553   8.527 -0.3592  0.1856 -0.6075
23384SOL    HW174608   9.168   3.577   8.566 -1.2805 -0.8014 -1.8880
23384SOL    HW274609   9.237   3.465   8.491  1.4705 -0.3599 -0.1728
23385SOL     OW74610   8.803   2.078   3.320  0.1681 -0.0689  0.5571
23385SOL    HW174611   8.869   2.128   3.366 -0.7982  2.5810 -0.7510
23385SOL    HW274612   8.845   2.051   3.238  0.2683 -0.2140  0.6561
23386SOL     OW74613   3.208   4.451   5.911 -0.0384  0.5774  0.0649
23386SOL    HW174614   3.160   4.531   5.888 -3.2009 -1.0764  0.3098
23386SOL    HW274615   3.233   4.463   6.002 -1.0297  1.1020  0.2853
23387SOL     OW74616   5.110   1.537   3.769  0.0550  0.0873  0.0137
23387SOL    HW174617   5.191   1.503   3.805  0.1000  1.1767  1.0052
23387SOL    HW274618   5.132   1.627   3.742 -0.9760  0.6326  0.9280
23388SOL     OW74619   5.748   3.950  10.391  0.4166 -0.2747  0.0080
23388SOL    HW174620   5.820   3.978  10.447  0.5885  2.4333 -1.4152
23388SOL    HW274621   5.768   3.987  10.305 -1.6252 -1.2168 -0.9423
23389SOL     OW74622   8.204   1.153   2.327  0.2490 -0.1808 -0.5090
23389SOL    HW174623   8.148   1.163   2.250 -1.0219 -1.3378  0.2268
23389SOL    HW274624   8.162   1.208   2.394  1.5578  1.1250 -0.7081
23390SOL     OW74625  10.917   9.077   9.081  0.2466  0.3303 -0.7850
23390SOL    HW174626  10.840   9.046   9.128 -0.3008  1.0914 -1.1551
23390SOL    HW274627  10.962   8.998   9.053 -0.4702 -0.1252 -0.6712
23391SOL     OW74628   2.707   3.118   6.424 -0.4385  0.4117 -0.0689
23391SOL    HW174629   2.736   3.091   6.336  0.0263  1.8887 -0.3945
23391SOL    HW274630   2.629   3.171   6.408 -0.6369  0.2824  0.4640
23392SOL     OW74631   6.371   3.520   0.525  0.0082  0.0159  0.1855
23392SOL    HW174632   6.360   3.425   0.528 -0.0870  0.0432  0.8034
23392SOL    HW274633   6.465   3.533   0.532 -0.0444 -0.0064  1.0508
23393SOL     OW74634   3.021   2.981   9.602 -0.5790  0.3091  0.4049
23393SOL    HW174635   2.970   3.057   9.575 -1.2521  0.2411  1.4247
23393SOL    HW274636   3.112   3.009   9.594 -0.7257  0.3131 -1.7988
23394SOL     OW74637   9.529  10.382  11.016  0.3879 -0.0234  0.3061
23394SOL    HW174638   9.558  10.417  11.101  4.3818 -3.9957  0.9423
23394SOL    HW274639   9.562  10.445  10.952  0.0892  1.4381  1.5182
23395SOL     OW74640   4.930   7.003   9.372  0.0983  0.4321 -0.1478
23395SOL    HW174641   4.934   6.908   9.385 -0.7351  0.5987  1.7029
23395SOL    HW274642   4.980   7.019   9.292  3.0249 -1.2679  1.1594
23396SOL     OW74643   8.186   1.815   1.211 -0.2870  0.0231  0.5112
23396SOL    HW174644   8.147   1.800   1.124 -0.2448 -0.1202  0.5185
23396SOL    HW274645   8.249   1.886   1.196 -0.3223  0.0395  0.4361
23397SOL     OW74646   9.605   1.184   1.092  0.1904 -0.4786  0.1851
23397SOL    HW174647   9.510   1.174   1.083  0.4097 -1.4763 -1.5942
23397SOL    HW274648   9.630   1.239   1.018  0.8433  1.2051  1.5910
23398SOL     OW74649   6.146   2.424   5.987 -0.0481 -0.7100 -0.3609
23398SOL    HW174650   6.085   2.419   5.914  1.0325 -1.1435 -1.2619
23398SOL    HW274651   6.105   2.371   6.056 -2.4393  1.9461  0.4431
23399SOL     OW74652   5.692   0.691   9.319  0.0961  0.0864 -0.0100
23399SOL    HW174653   5.636   0.702   9.241 -0.1978 -2.7367 -0.2893
23399SOL    HW274654   5.634   0.708   9.393  0.8272  4.7919 -0.2220
23400SOL     OW74655  10.992   9.640   5.727 -0.0659 -0.1673 -0.3051
23400SOL    HW174656  11.038   9.684   5.798 -0.2928 -1.1301  0.4589
23400SOL    HW274657  11.052   9.645   5.653  1.0261 -0.8451  0.4957
23401SOL     OW74658   0.639   3.800   8.953  0.0342  0.1838 -0.7823
23401SOL    HW174659   0.675   3.889   8.948  0.0226  0.1435 -1.6846
23401SOL    HW274660   0.544   3.813   8.957  0.1035  0.3049  1.9778
23402SOL     OW74661   9.392   0.470   4.523  0.0211  0.2142  0.0112
23402SOL    HW174662   9.328   0.453   4.592 -0.1706 -0.9400 -0.4260
23402SOL    HW274663   9.473   0.490   4.570  0.0821 -1.2828  0.6120
23403SOL     OW74664   2.032   7.033   4.647 -0.3220  0.2166 -0.7238
23403SOL    HW174665   1.976   6.957   4.631  0.5479 -0.6424  0.2185
23403SOL    HW274666   2.026   7.084   4.566 -1.3278 -0.5807 -1.1772
23404SOL     OW74667   4.589  10.101   6.207  0.5559  0.0046 -0.6689
23404SOL    HW174668   4.621  10.141   6.125  0.8492 -0.5515 -0.8268
23404SOL    HW274669   4.595  10.007   6.192 -1.4536 -0.1393 -0.8160
23405SOL     OW74670   1.949   6.198   2.672  0.3935  0.0853  0.3893
23405SOL    HW174671   1.884   6.261   2.703  0.2532  1.7212 -2.7688
23405SOL    HW274672   1.907   6.154   2.599  2.4174  0.5081 -1.1348
23406SOL     OW74673   8.026   6.622   1.276 -0.2608  0.4505 -0.3391
23406SOL    HW174674   8.075   6.700   1.249  0.2645  0.2671  0.0809
23406SOL    HW274675   8.086   6.574   1.333 -0.5283 -0.3405 -0.7152
23407SOL     OW74676  10.193   4.817   8.379  0.5050  0.3905 -0.5021
23407SOL    HW174677  10.140   4.817   8.299 -0.5667 -1.8256  0.1144
23407SOL    HW274678  10.227   4.728   8.385 -0.1421  0.2455  1.9224
23408SOL     OW74679   6.857   0.526   7.354  0.2414  0.6904 -0.2487
23408SOL    HW174680   6.879   0.608   7.310 -0.0208  0.4638 -0.8150
23408SOL    HW274681   6.809   0.552   7.432  0.6216  1.0967 -0.1492
23409SOL     OW74682   2.414   0.958   9.577 -0.2320  0.2151 -0.1669
23409SOL    HW174683   2.504   0.931   9.558 -0.1989  0.2493 -0.0598
23409SOL    HW274684   2.413   1.052   9.556 -0.3009  0.1671 -0.3765
23410SOL     OW74685   0.273   1.460   4.251 -0.1973 -0.5841  0.2301
23410SOL    HW174686   0.304   1.543   4.287  0.4776 -0.4438 -0.6276
23410SOL    HW274687   0.316   1.394   4.304 -2.3536 -0.4465  2.2874
23411SOL     OW74688   8.923   8.206   3.814  0.0139 -0.5905 -0.2037
23411SOL    HW174689   8.894   8.293   3.843  2.1697  1.0217 -2.4179
23411SOL    HW274690   9.013   8.199   3.845 -0.0527 -1.9430 -0.2786
23412SOL     OW74691   1.556   7.199   0.151 -0.1945  0.1160  0.2642
23412SOL    HW174692   1.606   7.146   0.088  2.1240  2.3438  0.0611
23412SOL    HW274693   1.575   7.159   0.236  0.6576 -0.0487  0.0099
23413SOL     OW74694   3.424   0.387   5.105 -0.0356  0.3967 -0.1985
23413SOL    HW174695   3.426   0.363   5.012 -2.3522 -0.4869 -0.0964
23413SOL    HW274696   3.419   0.483   5.105 -0.4635  0.3821 -1.0151
23414SOL     OW74697   7.007   9.839   7.946  0.3340 -0.1550 -0.2557
23414SOL    HW174698   7.080   9.865   7.890  0.2804 -0.7430 -0.6013
23414SOL    HW274699   7.048   9.789   8.017  0.2885 -0.2800 -0.3192
23415SOL     OW74700   2.166   3.157   4.389 -0.7914  0.5031  0.0550
23415SOL    HW174701   2.224   3.215   4.438  0.8325 -1.9774  1.2618
23415SOL    HW274702   2.225   3.096   4.344 -2.4023 -0.4295 -0.8920
23416SOL     OW74703   1.230   7.815   7.409  0.1547  0.6611 -0.3862
23416SOL    HW174704   1.177   7.876   7.461  2.9452  2.1174  0.9829
23416SOL    HW274705   1.235   7.856   7.322 -1.8854 -0.1673 -0.9736
23417SOL     OW74706   2.870   9.232   3.999  0.1455 -0.0676 -0.2068
23417SOL    HW174707   2.965   9.235   4.014  0.4352 -0.7805 -1.7372
23417SOL    HW274708   2.858   9.165   3.933 -1.4913 -0.2543  0.2396
23418SOL     OW74709   8.507   8.671   9.226 -0.2099  0.3791  0.8519
23418SOL    HW174710   8.494   8.766   9.222  1.4546  0.6987  2.0120
23418SOL    HW274711   8.561   8.658   9.304  0.8211 -1.3824 -0.0954
23419SOL     OW74712  10.301  10.346   0.442 -0.0506 -0.2600 -0.1999
23419SOL    HW174713  10.270  10.318   0.356 -0.7625  2.5373 -0.9585
23419SOL    HW274714  10.244  10.300   0.504  0.8550 -2.7755 -1.1328
23420SOL     OW74715   8.538   7.364   7.760 -0.4088 -0.0258  0.3067
23420SOL    HW174716   8.510   7.415   7.685  0.7589  0.1267 -0.0401
23420SOL    HW274717   8.475   7.385   7.829  0.5279  2.5681  0.4550
23421SOL     OW74718   7.197   3.934  11.044 -0.0643  0.4592  0.3019
23421SOL    HW174719   7.132   3.992  11.005  3.4166  4.2574 -0.5408
23421SOL    HW274720   7.214   3.868  10.977 -0.1881  1.8689 -1.1665
23422SOL     OW74721   2.325   0.725   5.907  0.1011  0.3271  0.6046
23422SOL    HW174722   2.230   0.719   5.920  0.1979 -0.1462  1.1412
23422SOL    HW274723   2.360   0.646   5.949  0.7712  0.7189  0.7981
23423SOL     OW74724   7.190   7.683   0.302  0.2394  0.0172  0.0147
23423SOL    HW174725   7.234   7.689   0.218 -1.8935  1.2923 -1.1011
23423SOL    HW274726   7.103   7.649   0.282  0.2023 -1.2132  1.9523
23424SOL     OW74727   7.438   4.877   0.533  0.2894 -0.1742  0.4842
23424SOL    HW174728   7.353   4.871   0.577  0.3060  1.3474  0.7884
23424SOL    HW274729   7.468   4.967   0.552  0.2174  0.6366 -2.7763
23425SOL     OW74730   5.024   6.213   7.164 -0.2860 -0.2657  0.5000
23425SOL    HW174731   5.016   6.151   7.236  0.2260 -1.1170 -0.1581
23425SOL    HW274732   4.971   6.176   7.093 -0.2150  0.1959  0.1944
23426SOL     OW74733   0.247   7.322   8.622 -0.2008 -0.6437  0.2501
23426SOL    HW174734   0.153   7.315   8.606 -0.1552  1.0745 -1.0086
23426SOL    HW274735   0.255   7.319   8.717 -1.8634  1.9341  0.5830
23427SOL     OW74736   9.580   6.314   4.641 -0.7799  0.0089 -0.2105
23427SOL    HW174737   9.672   6.292   4.628 -1.1463 -1.5146 -0.3433
23427SOL    HW274738   9.580   6.410   4.650  0.8049  0.0378 -0.1900
23428SOL     OW74739   1.311   7.223   4.276  0.2769  1.0848  0.0608
23428SOL    HW174740   1.280   7.132   4.271  1.7348  0.5853 -0.5462
23428SOL    HW274741   1.304   7.246   4.369  0.2341  0.2158  0.2805
23429SOL     OW74742   7.539   3.759   1.814  0.6365 -0.4527 -0.0651
23429SOL    HW174743   7.557   3.846   1.849  0.5852 -0.8149  0.8929
23429SOL    HW274744   7.612   3.705   1.844  0.0205 -1.0216  0.4405
23430SOL     OW74745   4.277   4.738  10.429 -0.1584 -0.0395  0.0574
23430SOL    HW174746   4.209   4.685  10.386  1.7957 -0.8934 -2.1713
23430SOL    HW274747   4.324   4.675  10.484 -0.8591  0.4702  1.2808
23431SOL     OW74748   6.192   4.434   6.259  0.4535  0.0306  0.5551
23431SOL    HW174749   6.126   4.395   6.315  0.5488 -0.5770  0.2567
23431SOL    HW274750   6.263   4.369   6.258  1.4040  1.0221  1.5228
23432SOL     OW74751   9.842   7.720   0.124 -0.7318  0.5794  0.4664
23432SOL    HW174752   9.759   7.676   0.105 -0.6786 -0.3018  2.1061
23432SOL    HW274753   9.827   7.811   0.101 -2.4129  0.5793  1.3959
23433SOL     OW74754   7.828   8.799   3.857 -0.3287  0.3425 -0.2692
23433SOL    HW174755   7.743   8.759   3.840 -0.0168  0.1733 -1.5399
23433SOL    HW274756   7.871   8.800   3.771  0.7619  0.8523  0.2714
23434SOL     OW74757   7.098   1.121   6.770  0.1612  0.0375 -0.0445
23434SOL    HW174758   7.054   1.187   6.824 -3.0042 -1.4926 -0.4853
23434SOL    HW274759   7.113   1.047   6.830 -1.2331 -0.7866 -0.6675
23435SOL     OW74760   1.555  10.493   7.719  0.2365 -0.0323  0.6476
23435SOL    HW174761   1.495  10.456   7.784 -0.1356 -0.4210  0.0941
23435SOL    HW274762   1.630  10.434   7.719 -0.9992 -1.7635 -1.3218
23436SOL     OW74763   9.917   1.954   2.192 -0.0365  0.7360  0.2570
23436SOL    HW174764   9.903   1.863   2.167  2.6765  0.2809  0.1196
23436SOL    HW274765   9.845   1.973   2.253 -0.9001 -1.3334 -0.0177
23437SOL     OW74766   5.418   9.115  10.478 -0.2878 -0.3174 -0.6383
23437SOL    HW174767   5.367   9.196  10.474  0.2390  0.1888  1.5798
23437SOL    HW274768   5.490   9.129  10.417 -0.9948  0.2687 -1.3685
23438SOL     OW74769   2.908   0.645  10.452 -0.5869 -0.4880 -0.0196
23438SOL    HW174770   2.918   0.735  10.422  0.0756 -0.7555 -0.6573
23438SOL    HW274771   2.895   0.652  10.546 -0.9248  0.2933 -0.1203
23439SOL     OW74772   0.679   2.804   2.110 -0.1397 -0.2866  0.0673
23439SOL    HW174773   0.626   2.806   2.030  0.7207  0.2890 -0.5115
23439SOL    HW274774   0.616   2.787   2.180 -0.6969 -2.6578 -0.9041
23440SOL     OW74775   1.733   3.670   5.094  0.0912  0.2963  0.6103
23440SOL    HW174776   1.759   3.682   5.003 -1.0322  0.0103  0.2322
23440SOL    HW274777   1.638   3.659   5.090 -0.1220  1.4000  1.9201
23441SOL     OW74778   3.083  10.590   7.964 -0.1850 -0.4482  0.1102
23441SOL    HW174779   3.066  10.534   8.040 -1.0465  0.3418  0.5171
23441SOL    HW274780   3.160  10.551   7.923  0.8167 -0.4094  1.8548
23442SOL     OW74781   3.557   0.939   5.947  0.3620  0.6360  0.4185
23442SOL    HW174782   3.616   0.919   6.020  1.0140  1.1975  0.0573
23442SOL    HW274783   3.569   0.867   5.886  1.0290  0.9719  0.1392
23443SOL     OW74784   9.048   0.399   3.958 -0.1160 -0.8679 -0.2182
23443SOL    HW174785   9.072   0.334   3.892  1.9716 -1.1473  0.7381
23443SOL    HW274786   8.966   0.436   3.927  0.7244 -1.0742 -2.9210
23444SOL     OW74787   9.757   8.119   5.860  0.2016  0.2564  0.1220
23444SOL    HW174788   9.829   8.089   5.916  0.4443 -1.8657 -1.2201
23444SOL    HW274789   9.678   8.082   5.900  0.3111 -0.7658 -0.5900
23445SOL     OW74790   5.021   9.967   0.057 -0.3130 -0.3944  0.1052
23445SOL    HW174791   5.047   9.939   0.145 -1.4714  1.2287  1.0029
23445SOL    HW274792   5.104   9.975   0.010  0.6759  1.5814  1.9584
23446SOL     OW74793   5.722   2.289   9.761 -0.2117 -0.2921  0.1856
23446SOL    HW174794   5.723   2.360   9.697 -1.0046 -2.2226 -2.1077
23446SOL    HW274795   5.636   2.297   9.803 -1.2959 -1.1658 -1.7101
23447SOL     OW74796   7.427  10.717   3.003 -0.5871 -0.0111 -0.4014
23447SOL    HW174797   7.413  10.663   2.925  1.0102  0.2852 -0.9398
23447SOL    HW274798   7.343  10.760   3.018 -0.3608  1.7547 -3.4185
23448SOL     OW74799   7.512   4.825   8.342 -0.3836  0.2247 -0.2462
23448SOL    HW174800   7.607   4.820   8.355 -0.3244  0.9048 -0.3578
23448SOL    HW274801   7.499   4.904   8.289 -1.0264  0.2454 -0.0710
23449SOL     OW74802   7.734   1.403   4.190 -0.4490  1.0344  0.5849
23449SOL    HW174803   7.820   1.390   4.149 -0.1917 -0.0144  1.4019
23449SOL    HW274804   7.672   1.389   4.119 -0.0073 -0.6196  0.4619
23450SOL     OW74805   7.029   8.836   0.319 -0.3768 -0.2803  0.0663
23450SOL    HW174806   7.053   8.758   0.369 -1.4337 -1.0328 -0.5585
23450SOL    HW274807   7.009   8.901   0.386  1.5870 -0.1630  0.6012
23451SOL     OW74808   5.335   3.282  10.211  0.1476 -0.8199  0.5989
23451SOL    HW174809   5.399   3.212  10.220  0.6053 -0.4056  0.6268
23451SOL    HW274810   5.300   3.273  10.122  0.5768 -0.7711  0.4246
23452SOL     OW74811   7.043   8.149  10.933  0.3230 -0.0424  0.0378
23452SOL    HW174812   7.087   8.234  10.940  0.8822 -0.2100 -1.1030
23452SOL    HW274813   7.101   8.098  10.876 -0.4496 -0.8943  0.0035
23453SOL     OW74814   1.490   0.194   6.074 -0.3811 -0.0209 -0.1289
23453SOL    HW174815   1.400   0.161   6.078 -0.3038 -0.0948  1.9273
23453SOL    HW274816   1.485   0.282   6.110  0.5701 -0.5989  1.5508
23454SOL     OW74817   0.989   5.437   5.870 -0.5325 -0.1335  0.2309
23454SOL    HW174818   1.034   5.459   5.789 -0.2241 -0.1215  0.4038
23454SOL    HW274819   1.043   5.476   5.939  0.1050 -1.5358  0.5620
23455SOL     OW74820   8.646   5.350  10.137  0.2674 -0.1474 -0.3216
23455SOL    HW174821   8.565   5.352  10.189  0.2101 -0.7691 -0.3791
23455SOL    HW274822   8.706   5.407  10.185  0.2162 -0.7113  0.4430
23456SOL     OW74823   6.596  10.606   4.366  0.1422 -0.5578 -0.1661
23456SOL    HW174824   6.575  10.690   4.408  0.1173 -1.4165  1.6310
23456SOL    HW274825   6.519  10.586   4.313  0.4624  0.9051 -1.2271
23457SOL     OW74826   9.750   3.225   9.842  0.4134  0.2135 -0.3157
23457SOL    HW174827   9.725   3.202   9.931  1.6205  1.4448  0.4007
23457SOL    HW274828   9.684   3.288   9.814  0.3932  0.3188 -0.0337
23458SOL     OW74829   7.809   3.505   7.150 -0.3746  0.5165  0.2361
23458SOL    HW174830   7.794   3.441   7.220  1.5444  1.2411  1.3845
23458SOL    HW274831   7.887   3.473   7.104 -0.4143  1.1372 -0.2739
23459SOL     OW74832   7.209   6.927   4.354 -0.6573 -0.1141  0.2954
23459SOL    HW174833   7.187   7.012   4.316 -3.6851 -1.2714 -0.7949
23459SOL    HW274834   7.303   6.917   4.336 -0.8473  1.6936 -2.2465
23460SOL     OW74835   7.520   4.217   9.479  0.0593 -0.1920  0.5574
23460SOL    HW174836   7.536   4.203   9.385  1.5894  0.4618  0.6991
23460SOL    HW274837   7.546   4.134   9.519  0.3466 -0.1351  0.4943
23461SOL     OW74838   1.453   3.828   5.532  0.4781 -0.3544 -0.5039
23461SOL    HW174839   1.378   3.778   5.564  0.6479 -0.5686 -0.4389
23461SOL    HW274840   1.465   3.897   5.598 -0.3563  0.3805 -1.0793
23462SOL     OW74841   7.837   1.635   0.736 -0.3894 -0.3317 -0.4257
23462SOL    HW174842   7.824   1.724   0.769  0.0112 -0.4355  0.0245
23462SOL    HW274843   7.770   1.624   0.668 -1.8718 -0.4524  0.9914
23463SOL     OW74844   4.077   9.722  10.052 -0.1754  0.0710 -0.0848
23463SOL    HW174845   4.141   9.787  10.079  0.1219 -0.6118  0.8997
23463SOL    HW274846   4.009   9.772  10.007  0.0439  1.0586  0.6517
23464SOL     OW74847   3.367   8.020   5.603  0.0278 -0.0984  0.3949
23464SOL    HW174848   3.320   8.055   5.679 -2.8487 -2.4361 -0.1058
23464SOL    HW274849   3.316   8.050   5.528  0.7647 -0.7406 -0.3803
23465SOL     OW74850   8.130   4.609   6.547 -0.0214  0.3427 -0.0462
23465SOL    HW174851   8.162   4.667   6.616 -0.2082  0.8311 -0.3671
23465SOL    HW274852   8.037   4.630   6.539  0.3228  1.4449 -1.5536
23466SOL     OW74853   4.676   4.397   1.139 -0.4564  0.0424 -0.6448
23466SOL    HW174854   4.612   4.403   1.210  0.1791  0.6733 -0.0970
23466SOL    HW274855   4.760   4.390   1.184  0.0190  1.1423 -1.3173
23467SOL     OW74856   1.611   4.815   5.754  0.5094  0.4080 -0.1142
23467SOL    HW174857   1.704   4.790   5.747  0.3109  0.0341 -1.9469
23467SOL    HW274858   1.567   4.734   5.776  0.4827  0.2929 -0.5745
23468SOL     OW74859   8.324   6.128  10.993  0.2002  0.4610 -0.0296
23468SOL    HW174860   8.324   6.127  10.898  0.8017 -1.8928 -0.0628
23468SOL    HW274861   8.263   6.198  11.016  0.6386  1.6110 -2.1058
23469SOL     OW74862   1.398   3.201   8.090 -0.4872 -0.0729 -0.7741
23469SOL    HW174863   1.407   3.164   8.178  1.8363  0.5832 -0.6891
23469SOL    HW274864   1.336   3.143   8.047 -2.4553  0.1160  1.5399
23470SOL     OW74865   0.694   0.704   4.692 -0.0504  0.4574 -0.3435
23470SOL    HW174866   0.744   0.648   4.750 -0.1985  0.4806 -0.1941
23470SOL    HW274867   0.606   0.706   4.730  0.4774  2.5540  0.8966
23471SOL     OW74868   9.734   4.191   7.394  0.1256  0.7918  0.1256
23471SOL    HW174869   9.725   4.129   7.322 -0.3710  1.8386 -0.7299
23471SOL    HW274870   9.776   4.140   7.464 -1.0737 -0.7498 -0.2195
23472SOL     OW74871  10.484   3.808   8.309  0.3874 -0.3973 -0.3500
23472SOL    HW174872  10.492   3.824   8.403  0.8017 -1.3444 -0.2155
23472SOL    HW274873  10.574   3.815   8.276  0.2652 -0.2286 -0.6578
23473SOL     OW74874  10.961   9.744   2.366  0.0724  0.2286 -0.5706
23473SOL    HW174875  10.963   9.692   2.446 -0.5550  1.9967  0.6442
23473SOL    HW274876  11.038   9.715   2.317 -1.0017 -2.8588 -0.6947
23474SOL     OW74877   8.340   9.998   2.515 -0.2923  0.5491 -0.2205
23474SOL    HW174878   8.393   9.982   2.436  0.7855 -1.1916  0.7925
23474SOL    HW274879   8.261  10.041   2.482  1.2902  2.3742 -1.9121
23475SOL     OW74880  10.229   7.568   9.086 -0.2685 -0.1885 -0.3526
23475SOL    HW174881  10.291   7.553   9.157 -1.1739  1.5027  0.8666
23475SOL    HW274882  10.163   7.500   9.098 -0.2710 -0.0825  0.2765
23476SOL     OW74883   7.906   7.212   2.074 -0.4093 -0.1232 -0.3567
23476SOL    HW174884   7.946   7.286   2.027 -0.0566 -0.6532 -0.9038
23476SOL    HW274885   7.906   7.240   2.166  0.4452  0.2375 -0.4553
23477SOL     OW74886  10.797   2.023   4.064  0.2150  0.6031 -0.1486
23477SOL    HW174887  10.751   2.099   4.099  0.6325  1.6986 -1.8375
23477SOL    HW274888  10.781   2.027   3.969 -1.9883 -2.9161 -0.1505
23478SOL     OW74889   7.710  10.375   0.292 -0.0646  0.7543 -0.3971
23478SOL    HW174890   7.805  10.375   0.306 -0.0973  0.0929 -0.1015
23478SOL    HW274891   7.686  10.283   0.296 -0.6462  0.8753 -1.0331
23479SOL     OW74892  10.125   4.775   4.803 -0.0248 -0.0248 -0.1861
23479SOL    HW174893  10.069   4.747   4.731 -1.6933  1.0105  0.6507
23479SOL    HW274894  10.087   4.733   4.880  0.6479  0.3072  0.3383
23480SOL     OW74895   4.137   8.333  11.043 -0.0749 -0.2719  0.0712
23480SOL    HW174896   4.178   8.246  11.048 -0.6083 -0.5447 -0.1902
23480SOL    HW274897   4.044   8.316  11.059 -1.0291 -0.4536 -4.3692
23481SOL     OW74898   5.979  10.512  10.129 -0.1115 -0.3346 -0.2835
23481SOL    HW174899   6.011  10.601  10.144  2.3914 -1.1035 -0.6736
23481SOL    HW274900   6.037  10.476  10.062 -1.1548 -2.2146 -0.2393
23482SOL     OW74901   8.071  10.369   7.846  0.4441  0.1142 -0.2859
23482SOL    HW174902   8.005  10.430   7.877  0.0987 -0.1131 -0.5731
23482SOL    HW274903   8.146  10.424   7.824  0.7424  0.2795  1.0404
23483SOL     OW74904  10.078   1.976   9.440 -0.1754  0.0623  0.0242
23483SOL    HW174905   9.999   1.925   9.426  0.7947 -1.7671  0.8280
23483SOL    HW274906  10.146   1.931   9.390  0.3337  1.7881 -0.9331
23484SOL     OW74907   4.524   2.385   0.314 -0.8291 -0.0582 -0.1632
23484SOL    HW174908   4.536   2.393   0.408 -0.5078  1.6174 -0.3298
23484SOL    HW274909   4.430   2.371   0.303 -0.6855 -1.7501  0.4634
23485SOL     OW74910  10.543   9.558   5.300 -0.0041 -0.6580 -0.4323
23485SOL    HW174911  10.635   9.532   5.299  0.3715  0.5365 -2.4040
23485SOL    HW274912  10.494   9.476   5.293  0.9436 -1.2325 -0.4562
23486SOL     OW74913   9.360   9.954   9.603  0.5069 -0.6876  0.3882
23486SOL    HW174914   9.356   9.864   9.572 -0.4559 -0.2409 -0.8743
23486SOL    HW274915   9.432   9.993   9.553  0.9446 -0.7505  0.9570
23487SOL     OW74916   4.807   0.426   7.805  0.0099 -0.4123  0.0262
23487SOL    HW174917   4.865   0.471   7.866  1.8425 -1.5277 -0.8200
23487SOL    HW274918   4.749   0.373   7.860 -0.4017  0.8919  0.8861
23488SOL     OW74919   3.661   8.110   8.506 -0.8057 -0.1548 -0.1221
23488SOL    HW174920   3.642   8.140   8.595 -0.0759 -0.1284  0.0258
23488SOL    HW274921   3.708   8.028   8.517 -0.9764 -0.3069 -0.4931
23489SOL     OW74922  10.480   4.152   9.773 -0.8849 -0.0588 -0.9158
23489SOL    HW174923  10.439   4.235   9.750  0.0119  0.0912 -2.0281
23489SOL    HW274924  10.559   4.148   9.720 -1.1516 -1.8508 -1.2410
23490SOL     OW74925   5.059   0.394   2.431  0.3214 -0.2897 -0.7725
23490SOL    HW174926   4.979   0.364   2.388  0.4549  0.8180 -1.8320
23490SOL    HW274927   5.098   0.455   2.370  0.3635  1.6159  1.0401
23491SOL     OW74928   3.178   3.399  10.588 -0.6114 -0.1263  0.2053
23491SOL    HW174929   3.234   3.322  10.581 -1.1310 -0.4844 -0.1289
23491SOL    HW274930   3.202   3.453  10.513 -1.0597 -0.5149 -0.2222
23492SOL     OW74931  11.013   6.631   2.707 -0.0735 -0.4200 -0.1270
23492SOL    HW174932  10.969   6.566   2.652 -2.4276 -0.1780  1.3527
23492SOL    HW274933  11.011   6.711   2.655  0.3185 -0.8405 -0.8139
23493SOL     OW74934   9.544   5.154   5.109 -0.0112  0.4181  0.3509
23493SOL    HW174935   9.636   5.139   5.087 -0.2854  2.0628 -2.3385
23493SOL    HW274936   9.548   5.207   5.188  1.3228 -0.0454  0.6305
23494SOL     OW74937   1.505   2.068   4.102 -0.0785 -0.0889  0.1000
23494SOL    HW174938   1.547   2.110   4.027 -1.1388 -1.6470 -1.4544
23494SOL    HW274939   1.458   2.138   4.146  0.9223  0.9440 -0.4284
23495SOL     OW74940   7.136   0.491   1.416  0.2699 -0.2235  0.1431
23495SOL    HW174941   7.044   0.516   1.403  0.3491  0.3320  0.5946
23495SOL    HW274942   7.175   0.568   1.459  0.5338 -1.0890  1.5161
23496SOL     OW74943   9.023   7.839   4.553 -0.5488  0.3363 -0.4598
23496SOL    HW174944   9.073   7.761   4.528  0.8068  1.2835 -0.8510
23496SOL    HW274945   9.015   7.889   4.471 -1.1209  0.7479 -0.1552
23497SOL     OW74946   8.188   7.104   1.664 -0.6118 -0.0063  0.0865
23497SOL    HW174947   8.099   7.130   1.688 -0.2725  0.6217  0.7085
23497SOL    HW274948   8.215   7.170   1.601 -0.0922  0.6317  0.9530
23498SOL     OW74949   5.906   8.298   8.033 -0.0160 -0.3916  0.1902
23498SOL    HW174950   5.863   8.379   8.060 -1.5125 -0.1555 -2.5399
23498SOL    HW274951   5.998   8.323   8.019  0.3300 -0.0488  2.6299
23499SOL     OW74952   6.810   8.895   2.444  0.4040 -0.1796  0.2425
23499SOL    HW174953   6.783   8.985   2.466 -2.1035 -0.5929 -0.8210
23499SOL    HW274954   6.806   8.848   2.526 -1.9116 -0.1017  0.2379
23500SOL     OW74955   1.258   0.160   8.289  0.0776  0.0922  0.0199
23500SOL    HW174956   1.199   0.235   8.287  0.0456  0.1083 -2.9389
23500SOL    HW274957   1.342   0.195   8.317  0.4643  1.6838 -2.7622
23501SOL     OW74958   4.381   7.022   7.567  0.0209 -0.2910  0.4936
23501SOL    HW174959   4.475   7.022   7.581  0.1239 -0.1992 -0.1515
23501SOL    HW274960   4.371   7.029   7.472 -0.6313 -0.4894  0.5398
23502SOL     OW74961  10.177  10.720   3.886 -0.5350 -0.0566  0.5002
23502SOL    HW174962  10.220  10.745   3.967 -0.7840  0.6533  0.4227
23502SOL    HW274963  10.132  10.637   3.907 -0.4396  0.0217  1.0248
23503SOL     OW74964  10.422  10.307   2.727  0.7209 -0.0615  0.0382
23503SOL    HW174965  10.377  10.281   2.807 -0.1524  0.9360 -0.1131
23503SOL    HW274966  10.429  10.402   2.732 -0.8997  0.2144 -1.8381
23504SOL     OW74967   4.324   1.678   2.849 -0.1361  0.4064  0.0414
23504SOL    HW174968   4.356   1.642   2.932 -0.8501 -0.3548 -0.0053
23504SOL    HW274969   4.354   1.616   2.783 -1.0395  0.0939 -0.0854
23505SOL     OW74970   4.461   4.071   0.967  0.6738 -0.4391  0.0391
23505SOL    HW174971   4.489   4.049   1.056 -0.1412 -1.1047  0.1406
23505SOL    HW274972   4.366   4.081   0.973  0.5460 -0.9869 -0.8499
23506SOL     OW74973   9.810   3.267   4.818 -0.0736 -0.2378  0.0932
23506SOL    HW174974   9.798   3.182   4.861 -0.2478 -0.9100 -1.2217
23506SOL    HW274975   9.899   3.293   4.841 -0.5577 -0.0121  1.7853
23507SOL     OW74976   4.919   0.672   4.909 -0.2009  0.7913  1.0289
23507SOL    HW174977   4.868   0.592   4.900 -1.6144  1.4260  2.8029
23507SOL    HW274978   5.000   0.645   4.953  0.8724 -0.1416 -1.3552
23508SOL     OW74979   9.637   7.866   8.939  0.0013 -0.2042 -0.4993
23508SOL    HW174980   9.652   7.881   9.032 -2.4732  0.5626 -0.1425
23508SOL    HW274981   9.721   7.885   8.897  0.1447  3.6558  1.1587
23509SOL     OW74982  10.310   4.802   2.302  0.3599 -0.3821 -0.6184
23509SOL    HW174983  10.356   4.885   2.292 -0.2336  0.1369  0.6578
23509SOL    HW274984  10.367   4.737   2.261  2.1712  0.2574  0.7561
23510SOL     OW74985   9.216   3.128   4.380 -0.2106  0.9484  0.3842
23510SOL    HW174986   9.124   3.129   4.357 -0.2421  1.8391  0.5299
23510SOL    HW274987   9.263   3.136   4.297 -0.2261 -0.7392  0.1841
23511SOL     OW74988   9.636   0.094   2.042 -0.0440 -0.0362 -0.2044
23511SOL    HW174989   9.643   0.105   1.947 -0.5579  1.6603 -0.0804
23511SOL    HW274990   9.542   0.101   2.060  0.1958  1.6048  0.6059
23512SOL     OW74991   6.711   7.776   7.134 -0.0562  0.5231 -0.4825
23512SOL    HW174992   6.749   7.755   7.219  1.1703  1.4446 -0.7746
23512SOL    HW274993   6.704   7.692   7.088  0.1144  0.1406  0.1908
23513SOL     OW74994   1.423   5.147   8.468  0.0214  0.8824 -0.1489
23513SOL    HW174995   1.439   5.224   8.523 -2.0951  0.3537  1.3118
23513SOL    HW274996   1.510   5.108   8.456  0.9869  2.8483  0.0048
23514SOL     OW74997   5.320   9.964   2.609  0.4119  0.0781 -0.4352
23514SOL    HW174998   5.298   9.873   2.631  1.5146 -0.1874 -0.3889
23514SOL    HW274999   5.413   9.972   2.630  0.5364  0.9630 -1.2590
23515SOL     OW75000   8.342   1.583   7.684  0.1319 -0.5608 -0.5684
23515SOL    HW175001   8.366   1.676   7.687 -0.9369 -0.2997  1.3891
23515SOL    HW275002   8.250   1.582   7.659 -0.0684 -1.0459  0.1566
23516SOL     OW75003   7.994   0.312   2.262 -0.2652  0.0330 -0.2706
23516SOL    HW175004   8.040   0.352   2.188 -2.9615  0.7334 -1.6734
23516SOL    HW275005   7.981   0.385   2.323  0.1624 -0.0970 -0.0178
23517SOL     OW75006   1.913   7.019   7.971  0.3849  0.8844  0.1656
23517SOL    HW175007   1.836   7.075   7.964  0.6464  1.0714 -2.1280
23517SOL    HW275008   1.886   6.934   7.936  0.4192 -0.0243  2.1982
23518SOL     OW75009   2.681   0.197   2.773 -0.3574 -0.6002  0.1156
23518SOL    HW175010   2.726   0.120   2.806 -0.3342 -1.5897 -2.0382
23518SOL    HW275011   2.589   0.183   2.796 -0.6601 -2.2553 -1.8025
23519SOL     OW75012   9.997   0.099   3.845  0.1996 -0.0910 -0.1932
23519SOL    HW175013  10.078   0.051   3.863  0.4438  0.2416 -0.3890
23519SOL    HW275014  10.026   0.185   3.815 -0.2349  0.8901  2.0125
23520SOL     OW75015   8.185   0.352   5.449 -0.1727  0.7070 -0.0298
23520SOL    HW175016   8.266   0.368   5.401  0.1392  0.3779  0.3756
23520SOL    HW275017   8.195   0.403   5.530  0.1298 -0.2339  0.5375
23521SOL     OW75018   6.101   2.399   5.389  0.0286 -0.0914 -0.6514
23521SOL    HW175019   6.063   2.322   5.346 -1.7261 -0.6419  1.7102
23521SOL    HW275020   6.149   2.364   5.464 -0.6685  1.0484  0.3794
23522SOL     OW75021   9.852   4.852   5.782  0.0667 -0.0914 -0.3558
23522SOL    HW175022   9.783   4.787   5.770  0.2617 -0.3995  0.1460
23522SOL    HW275023   9.933   4.801   5.773  0.2419  0.3815 -1.6041
23523SOL     OW75024   1.437   8.062   3.469 -0.4317  0.4585  0.1128
23523SOL    HW175025   1.506   8.003   3.500  0.3036  0.1375 -1.9460
23523SOL    HW275026   1.356   8.011   3.479 -0.0255 -0.2286  0.0111
23524SOL     OW75027  10.630   4.433  11.063 -0.5439 -0.5104  0.0511
23524SOL    HW175028  10.566   4.362  11.064 -0.0395 -0.9826 -0.3309
23524SOL    HW275029  10.637   4.457  10.971 -1.3678  0.6510  0.2778
23525SOL     OW75030   2.535   4.610   0.258 -0.0769  0.2894  0.3859
23525SOL    HW175031   2.453   4.588   0.214 -0.5432  0.5414  1.1121
23525SOL    HW275032   2.514   4.604   0.352  1.0978 -1.0349  0.6034
23526SOL     OW75033   5.611   3.957   0.707  0.1466  0.5704 -0.1467
23526SOL    HW175034   5.558   3.894   0.657  1.4081 -0.7196  0.1036
23526SOL    HW275035   5.618   4.033   0.649 -0.8387  0.2450 -0.7230
23527SOL     OW75036   2.834   7.646  10.658 -0.4595  0.1893  0.3702
23527SOL    HW175037   2.879   7.587  10.597 -2.1197 -0.8991  0.1283
23527SOL    HW275038   2.839   7.732  10.617 -0.1376 -0.2340 -0.5006
23528SOL     OW75039   7.026   2.396   1.404  0.3715  0.0429  0.1682
23528SOL    HW175040   6.956   2.424   1.345  0.2614 -2.4047 -1.0217
23528SOL    HW275041   7.106   2.427   1.362  0.2041 -0.4614 -0.5450
23529SOL     OW75042   8.121   4.881   2.451 -0.0501  0.2650  0.2148
23529SOL    HW175043   8.169   4.830   2.387  1.0746  0.7244  0.6723
23529SOL    HW275044   8.104   4.820   2.523  1.1130  0.4615  0.6722
23530SOL     OW75045   5.809   4.150   4.410  0.0427 -0.3211  0.1836
23530SOL    HW175046   5.860   4.148   4.491 -0.1848 -2.3189  0.3115
23530SOL    HW275047   5.726   4.108   4.431 -0.3878 -0.0558 -0.8673
23531SOL     OW75048   2.361   6.750   8.594 -0.6092 -0.2281 -0.4847
23531SOL    HW175049   2.306   6.698   8.535 -1.0289  1.5966 -1.7951
23531SOL    HW275050   2.406   6.812   8.537  1.4295 -0.4434  0.7886
23532SOL     OW75051   7.618   1.823   5.268 -0.1902 -0.3089  0.4326
23532SOL    HW175052   7.554   1.762   5.231  0.2839  0.8119 -2.5645
23532SOL    HW275053   7.583   1.847   5.353 -3.8375  0.2910 -1.0588
23533SOL     OW75054   2.512  10.358   9.122 -0.6628  0.2512 -0.4992
23533SOL    HW175055   2.553  10.431   9.076 -0.2136 -0.6004 -1.4909
23533SOL    HW275056   2.485  10.297   9.053  0.3858 -1.2482  0.3499
23534SOL     OW75057   7.841   5.277   0.545 -0.0355  0.8546  0.3455
23534SOL    HW175058   7.804   5.218   0.480  0.6458 -0.2498  0.9267
23534SOL    HW275059   7.910   5.226   0.588 -0.2315  1.6636  1.6919
23535SOL     OW75060   9.902   3.672   5.645  0.0861 -0.0387 -0.7626
23535SOL    HW175061   9.994   3.666   5.619 -0.3467 -0.8458 -2.2378
23535SOL    HW275062   9.883   3.766   5.646  1.1959  0.2057  0.6882
23536SOL     OW75063   1.220   5.832   3.522 -0.4761 -0.4714 -0.4228
23536SOL    HW175064   1.131   5.869   3.516 -0.5014 -0.5408 -0.4729
23536SOL    HW275065   1.230   5.782   3.441 -0.5407 -0.7981 -0.2282
23537SOL     OW75066   8.225   5.129   1.526 -0.0118 -0.2511  0.2449
23537SOL    HW175067   8.255   5.052   1.574  0.9450  0.1008  0.2301
23537SOL    HW275068   8.248   5.111   1.435 -2.9137 -1.4695 -0.3840
23538SOL     OW75069   1.851   3.380   1.711 -0.2475 -0.0112 -0.0532
23538SOL    HW175070   1.802   3.316   1.763 -0.6150  1.8142  1.9656
23538SOL    HW275071   1.790   3.453   1.700  0.6614  0.6247 -1.0580
23539SOL     OW75072  10.269   2.728   8.849 -0.2720 -0.2702  0.9228
23539SOL    HW175073  10.215   2.739   8.927  0.1864 -1.0930  1.3627
23539SOL    HW275074  10.309   2.814   8.835  0.2922 -0.3314  2.0816
23540SOL     OW75075   8.994   9.581   4.582 -0.0574  0.6939  0.3169
23540SOL    HW175076   9.084   9.604   4.606  1.4262 -1.5737 -2.4672
23540SOL    HW275077   9.003   9.529   4.502 -3.9547  1.2237 -0.6763
23541SOL     OW75078   3.906  10.988   5.118  0.2509 -0.2051  0.9807
23541SOL    HW175079   3.872  11.048   5.052 -1.4527  0.5094  2.4216
23541SOL    HW275080   3.972  11.038   5.166  1.2522 -0.6191  0.0751
23542SOL     OW75081   2.797   2.802   2.089  0.8834  0.2622  0.3407
23542SOL    HW175082   2.720   2.790   2.033  1.1074  1.9232 -0.3683
23542SOL    HW275083   2.822   2.713   2.113 -0.6615 -0.3694 -0.2161
23543SOL     OW75084   5.145   8.207   8.954 -0.1491 -0.3110  0.3458
23543SOL    HW175085   5.237   8.229   8.936 -0.4928  1.6796  0.8442
23543SOL    HW275086   5.139   8.208   9.050 -0.5217 -1.2410  0.3382
23544SOL     OW75087   8.757   6.893   3.619 -0.7255 -0.1203 -0.0194
23544SOL    HW175088   8.749   6.818   3.560  0.2762 -0.5721  0.3930
23544SOL    HW275089   8.675   6.941   3.608 -1.6783 -1.6399  0.2218
23545SOL     OW75090   6.143  10.110   6.768 -0.1502  0.4667 -0.4040
23545SOL    HW175091   6.118  10.065   6.849  1.5529  0.8547  0.3802
23545SOL    HW275092   6.093  10.065   6.699 -0.9726 -0.4454  0.7435
23546SOL     OW75093   6.373   2.933   3.249  0.1775 -0.4063  0.3663
23546SOL    HW175094   6.281   2.908   3.246  0.1614 -0.3064 -1.6415
23546SOL    HW275095   6.390   2.955   3.341 -0.9788 -3.3686  1.3851
23547SOL     OW75096  10.376   9.341   7.646 -0.3994 -0.5792 -0.0298
23547SOL    HW175097  10.428   9.350   7.567 -0.6264  1.0910 -0.0187
23547SOL    HW275098  10.310   9.410   7.640 -0.6724 -0.6761  1.4318
23548SOL     OW75099   9.272   8.091   6.176  0.1948  0.3376 -0.2166
23548SOL    HW175100   9.272   8.175   6.222 -0.9950  0.4527 -0.4033
23548SOL    HW275101   9.350   8.046   6.209  1.9266  2.2234 -1.4828
23549SOL     OW75102   0.548   0.728   5.409 -0.0933 -0.7859  0.0516
23549SOL    HW175103   0.634   0.745   5.448 -0.6710  1.0053  0.6258
23549SOL    HW275104   0.567   0.702   5.319  1.0543 -0.8055  0.2823
23550SOL     OW75105  10.232   2.195   8.216 -0.0586 -0.1681  0.1923
23550SOL    HW175106  10.294   2.150   8.274 -1.2896 -1.9131  0.2321
23550SOL    HW275107  10.157   2.136   8.210  0.2617 -0.4374 -3.7658
23551SOL     OW75108   6.258  10.351   7.080 -0.0183  0.1267  0.5698
23551SOL    HW175109   6.297  10.288   7.020 -3.8066 -2.8064  0.7764
23551SOL    HW275110   6.214  10.414   7.023  0.5176  0.3012  0.3392
23552SOL     OW75111   1.433   5.931   6.439  0.4136  0.2906 -0.0229
23552SOL    HW175112   1.468   5.847   6.411 -0.3569 -0.4366  1.1049
23552SOL    HW275113   1.487   5.956   6.514 -2.3863 -1.7516  2.9654
23553SOL     OW75114   1.400   4.826   2.714  0.2274 -0.5119 -0.1569
23553SOL    HW175115   1.450   4.851   2.637  0.4480 -1.9696 -0.5172
23553SOL    HW275116   1.310   4.815   2.681  0.2168 -0.6097 -0.0955
23554SOL     OW75117   1.074   3.821   1.205 -0.3501 -0.0339  0.5146
23554SOL    HW175118   1.000   3.760   1.204 -1.1714  0.9439 -0.5447
23554SOL    HW275119   1.035   3.907   1.219  0.8053  0.2724  2.1737
23555SOL     OW75120   5.829   5.827  10.847 -0.3511  0.0471  0.2897
23555SOL    HW175121   5.791   5.914  10.838  0.4191  0.4940  1.1899
23555SOL    HW275122   5.879   5.831  10.928  1.4004 -0.5834 -0.7071
23556SOL     OW75123   1.349   3.244   4.210 -0.4713 -0.2619  0.5470
23556SOL    HW175124   1.315   3.331   4.229  0.3742  0.1128  0.4029
23556SOL    HW275125   1.391   3.252   4.124 -0.6171 -0.8767  0.4137
23557SOL     OW75126   5.512   0.477   2.122 -0.0522 -0.0539  0.2866
23557SOL    HW175127   5.539   0.392   2.088  2.5803  0.6331  0.4692
23557SOL    HW275128   5.468   0.519   2.048 -0.0858 -1.0067 -0.2563
23558SOL     OW75129  11.073   3.450   2.526 -0.3584 -0.2241 -0.1910
23558SOL    HW175130  11.097   3.522   2.584  1.0524 -1.1792  0.4683
23558SOL    HW275131  11.091   3.482   2.438  2.0576 -0.3745  0.1958
23559SOL     OW75132   6.384   3.438   1.263  0.0131 -0.4184 -0.2654
23559SOL    HW175133   6.435   3.413   1.186 -0.9954 -2.8457 -0.2562
23559SOL    HW275134   6.301   3.391   1.253  0.1578 -1.5023  2.6429
23560SOL     OW75135   0.046  10.044   6.013  0.3316 -0.2755  0.5701
23560SOL    HW175136   0.113  10.101   6.052  0.6340  0.1189 -0.4771
23560SOL    HW275137  -0.030  10.101   6.004 -0.2346 -0.7784  1.9441
23561SOL     OW75138   0.399   9.988   3.652 -0.5572  0.1048 -0.3168
23561SOL    HW175139   0.474  10.037   3.686 -2.0747  2.5190 -0.2628
23561SOL    HW275140   0.431   9.946   3.572  1.1445  0.1151  0.3316
23562SOL     OW75141  10.206  10.813   5.970  0.3449  0.0155 -0.5321
23562SOL    HW175142  10.282  10.777   5.925  0.4566 -0.6452  0.1665
23562SOL    HW275143  10.183  10.747   6.035  0.6353  1.2364  0.8738
23563SOL     OW75144   4.061  11.022   2.076  0.5684 -0.0575 -0.0624
23563SOL    HW175145   4.107  11.063   2.002  0.8492  0.4681  0.3999
23563SOL    HW275146   4.125  10.960   2.112  0.7923  0.4148  0.3594
23564SOL     OW75147   8.617   0.772   3.709 -0.2146 -0.0925 -0.3790
23564SOL    HW175148   8.545   0.773   3.773  0.5052 -1.7781  0.5206
23564SOL    HW275149   8.652   0.861   3.712 -1.0211  0.2190  0.6313
23565SOL     OW75150   5.476   6.430   7.251 -0.4263 -0.0846 -0.2175
23565SOL    HW175151   5.418   6.475   7.312 -0.8506  0.4366 -0.9842
23565SOL    HW275152   5.417   6.383   7.192 -0.0404 -0.2970 -0.4366
23566SOL     OW75153   8.510  10.345   2.924 -0.0354 -0.9007 -0.3932
23566SOL    HW175154   8.557  10.359   2.842 -0.6186 -1.4422 -0.8302
23566SOL    HW275155   8.557  10.399   2.988  1.2610 -1.5380 -0.7777
23567SOL     OW75156   4.220  10.039   4.051  0.1599 -0.4106  0.4402
23567SOL    HW175157   4.125  10.052   4.054  0.2733  0.6082  0.0242
23567SOL    HW275158   4.242  10.043   3.958  0.8741  1.6134  0.6432
23568SOL     OW75159   7.944   9.545   9.027 -0.0405 -0.0094  0.1745
23568SOL    HW175160   7.871   9.607   9.023 -1.4643 -1.5629  0.8599
23568SOL    HW275161   8.022   9.600   9.029 -1.2532  1.7704  1.0297
23569SOL     OW75162   6.436   1.147   7.891  0.6002  0.9822 -0.8137
23569SOL    HW175163   6.371   1.085   7.923  2.5987 -0.0957  1.5031
23569SOL    HW275164   6.393   1.232   7.893 -0.8196  0.2715  0.3974
23570SOL     OW75165   8.523   1.416   4.027 -0.0233  0.1832  0.4240
23570SOL    HW175166   8.471   1.392   4.104 -0.6727 -0.7542 -0.2985
23570SOL    HW275167   8.465   1.402   3.953  1.1796 -0.6764 -0.3898
23571SOL     OW75168  10.142   8.985  10.633 -0.5423 -0.7669  0.1545
23571SOL    HW175169  10.096   9.029  10.561 -0.8908 -0.8164  0.3419
23571SOL    HW275170  10.190   9.056  10.677 -0.9875 -0.5928  0.3677
23572SOL     OW75171   4.163  10.924   5.492 -0.0014 -0.3019 -0.0473
23572SOL    HW175172   4.212  10.927   5.410  1.0781  0.3067  0.5986
23572SOL    HW275173   4.071  10.934   5.466  0.2949 -0.4743 -1.1996
23573SOL     OW75174   6.194   5.420   4.724  0.3230 -0.1596  0.0631
23573SOL    HW175175   6.150   5.346   4.680 -1.1584  0.9539 -0.4025
23573SOL    HW275176   6.145   5.433   4.805  1.3658 -0.4612  0.7664
23574SOL     OW75177   2.750   5.655   9.331 -0.0807  0.6087 -0.5318
23574SOL    HW175178   2.667   5.678   9.288 -0.1793  0.6786 -0.3064
23574SOL    HW275179   2.728   5.648   9.424  0.0584  0.1018 -0.5328
23575SOL     OW75180  10.440   6.936   6.651 -0.0540  0.4270 -0.2036
23575SOL    HW175181  10.494   7.013   6.667  0.7619  0.1694 -1.5331
23575SOL    HW275182  10.388   6.958   6.574 -1.7822  0.6032  0.9498
23576SOL     OW75183   9.188   2.800   8.358 -0.1966 -0.8724  0.0662
23576SOL    HW175184   9.127   2.788   8.286  0.9714 -1.9244 -0.7945
23576SOL    HW275185   9.133   2.806   8.436 -1.4327 -0.7296 -0.7938
23577SOL     OW75186  10.845  10.494   5.999  0.4936  0.1073  0.1351
23577SOL    HW175187  10.847  10.403   5.970  1.2088  0.1899 -0.0961
23577SOL    HW275188  10.880  10.544   5.925 -1.4437  0.7776 -0.3996
23578SOL     OW75189   4.909  10.718   1.695 -0.1047 -0.1555  0.7452
23578SOL    HW175190   4.980  10.654   1.698 -1.2079 -1.4374  0.4213
23578SOL    HW275191   4.859  10.695   1.616 -1.3070  0.2356  1.3643
23579SOL     OW75192   8.665   5.413   8.883 -0.2617  0.2328  0.5777
23579SOL    HW175193   8.647   5.405   8.789  0.3619 -0.7287  0.5266
23579SOL    HW275194   8.747   5.461   8.888  0.9005 -1.6613  0.5169
23580SOL     OW75195   1.329   0.341   3.246  0.5885 -0.0413  0.3070
23580SOL    HW175196   1.310   0.271   3.183 -1.6620  1.4938 -0.8385
23580SOL    HW275197   1.267   0.327   3.317 -0.9909  1.6373 -0.6798
23581SOL     OW75198   3.494   3.198   1.496  0.2362 -0.3201 -0.2583
23581SOL    HW175199   3.444   3.256   1.553  0.7664  0.7062 -0.8167
23581SOL    HW275200   3.436   3.181   1.422 -0.1799 -1.0790  0.2259
23582SOL     OW75201  10.533   1.135   9.361 -0.4907  0.3786 -0.1472
23582SOL    HW175202  10.594   1.161   9.291  0.2013 -0.1322  0.2589
23582SOL    HW275203  10.475   1.072   9.318  2.6085 -3.4649  0.6433
23583SOL     OW75204   1.229   5.463   8.963  0.0413 -0.4323 -0.2750
23583SOL    HW175205   1.196   5.508   8.885 -1.9829  0.3572  0.9523
23583SOL    HW275206   1.238   5.372   8.935 -0.7127 -0.1870 -1.4289
23584SOL     OW75207   3.812   2.809   7.521 -0.3314  0.1131  0.4344
23584SOL    HW175208   3.898   2.768   7.530 -0.6912 -0.5455  0.8978
23584SOL    HW275209   3.758   2.744   7.477 -1.1227 -0.2547  1.8789
23585SOL     OW75210   9.967   8.972   3.973  0.4058 -0.2666  0.0231
23585SOL    HW175211   9.932   8.971   3.884  2.6190 -1.5882 -0.9173
23585SOL    HW275212   9.926   8.897   4.015  0.3609 -0.4336 -0.3138
23586SOL     OW75213   0.466   9.199   6.170  0.1780  0.4460  0.2537
23586SOL    HW175214   0.446   9.112   6.135  1.3834 -0.0023  0.6559
23586SOL    HW275215   0.561   9.206   6.167  0.0428  2.6330 -1.8472
23587SOL     OW75216   0.384   0.515   4.310  0.0954  0.1138  0.6049
23587SOL    HW175217   0.462   0.478   4.352  0.5715 -0.3500 -0.6447
23587SOL    HW275218   0.418   0.564   4.236 -0.8001 -0.1101  0.0312
23588SOL     OW75219   7.126   6.502   5.389 -0.0558 -0.5735 -0.5670
23588SOL    HW175220   7.188   6.467   5.452  2.0055 -0.5126 -2.4493
23588SOL    HW275221   7.107   6.428   5.330 -0.1192 -0.0354 -1.2355
23589SOL     OW75222   6.680   4.977   9.933 -0.1197  0.0939  0.3161
23589SOL    HW175223   6.659   4.884   9.924 -0.1995  0.0849  0.5897
23589SOL    HW275224   6.775   4.979   9.948  0.0539  0.1220 -0.7071
23590SOL     OW75225   5.115   4.954   5.189 -0.2020 -0.2779 -0.5970
23590SOL    HW175226   5.129   4.919   5.101  0.1440  0.3788 -0.8081
23590SOL    HW275227   5.104   4.876   5.244  1.3566 -0.7597 -0.9236
23591SOL     OW75228   2.832   7.700  10.155  0.1222 -0.0302 -0.3803
23591SOL    HW175229   2.925   7.683  10.164 -0.0340 -1.3254 -1.0268
23591SOL    HW275230   2.827   7.791  10.127  1.3548 -0.6471 -2.9463
23592SOL     OW75231   4.358   4.240   6.155  0.1024  0.1284  0.3103
23592SOL    HW175232   4.303   4.285   6.220 -0.0346  0.0294  0.2624
23592SOL    HW275233   4.416   4.308   6.122  0.4864  0.0822  0.8717
23593SOL     OW75234   8.522  10.484   3.261  0.1812  0.6549  0.5850
23593SOL    HW175235   8.589  10.487   3.193 -0.0329 -0.6506  0.3000
23593SOL    HW275236   8.489  10.395   3.259 -1.9488  1.3997  0.3677
23594SOL     OW75237  10.611   4.942  10.412 -0.1866 -0.2054  0.0090
23594SOL    HW175238  10.654   4.989  10.340 -0.2550  0.7305  0.5557
23594SOL    HW275239  10.552   5.007  10.450  0.9444 -0.2038  1.8733
23595SOL     OW75240  10.879   9.899   9.097  0.7035 -0.1225  0.5094
23595SOL    HW175241  10.850   9.987   9.119  0.3588 -0.2470  0.5553
23595SOL    HW275242  10.951   9.882   9.158  0.9657  0.2359  0.3062
23596SOL     OW75243   0.578  10.433   8.725 -0.1756 -0.2795  0.1962
23596SOL    HW175244   0.562  10.361   8.786 -0.8545  1.9407  2.7874
23596SOL    HW275245   0.645  10.486   8.767 -0.9654  1.5827 -0.7862
23597SOL     OW75246  10.894   3.348   7.188  0.0274  0.9209 -0.6329
23597SOL    HW175247  10.829   3.296   7.236  0.3345 -2.1407 -3.2517
23597SOL    HW275248  10.970   3.351   7.247 -0.7359  0.2121  0.4348
23598SOL     OW75249   4.974   3.823   9.928  0.1952  0.9889 -0.1580
23598SOL    HW175250   5.012   3.744   9.967  1.9870  1.6257 -0.5144
23598SOL    HW275251   5.033   3.844   9.856 -1.2816  1.6411 -1.2222
23599SOL     OW75252   6.002   7.210   3.644 -0.5841 -0.1436  0.0445
23599SOL    HW175253   6.005   7.207   3.739  0.3418  2.3381  0.1521
23599SOL    HW275254   5.930   7.270   3.623 -1.0533 -0.9727 -0.8727
23600SOL     OW75255   0.686   2.081   4.486  0.6225 -0.3404  0.3192
23600SOL    HW175256   0.610   2.137   4.499 -0.3875 -1.6010  0.1320
23600SOL    HW275257   0.755   2.120   4.539  0.2528  1.5852 -0.5354
23601SOL     OW75258   9.073   6.532   3.517  0.5322 -0.9284  0.1276
23601SOL    HW175259   9.080   6.625   3.536 -2.5258 -0.5768  0.0201
23601SOL    HW275260   9.021   6.496   3.589 -1.3894 -1.7738 -1.5650
23602SOL     OW75261   0.052   9.894   9.241  0.5467  0.1389  0.5811
23602SOL    HW175262   0.116   9.884   9.311  1.1875 -0.4093 -0.0632
23602SOL    HW275263   0.102   9.875   9.161 -0.0121  1.3483 -0.0788
23603SOL     OW75264   3.930   1.777   0.270  0.6399  0.1938  0.3934
23603SOL    HW175265   3.994   1.749   0.335 -1.0073 -0.4101  1.8290
23603SOL    HW275266   3.867   1.830   0.319 -0.9739 -0.7667 -0.5467
23604SOL     OW75267   3.712   5.962   9.255  0.2040  0.2255 -0.0324
23604SOL    HW175268   3.734   6.053   9.236 -0.1702  0.2410 -0.3953
23604SOL    HW275269   3.786   5.911   9.222 -1.4399  0.0157 -3.8645
23605SOL     OW75270   1.787   0.397   2.228 -1.0492  0.2986  0.5293
23605SOL    HW175271   1.713   0.343   2.202  0.1088 -1.2634  0.3318
23605SOL    HW275272   1.847   0.394   2.153 -0.7094  1.4416  0.7233
23606SOL     OW75273   2.332   5.321   5.160  0.5608 -0.2060 -0.0852
23606SOL    HW175274   2.389   5.251   5.191 -0.6446 -0.9466  0.5416
23606SOL    HW275275   2.246   5.279   5.151 -0.7603  1.6780  2.5271
23607SOL     OW75276   3.259   4.478   9.865 -0.0642 -0.2867 -0.2798
23607SOL    HW175277   3.187   4.473   9.929 -0.3954  0.7912 -0.5473
23607SOL    HW275278   3.331   4.430   9.906  0.5583  2.3753  2.0477
23608SOL     OW75279   9.917   6.253  10.412  0.3397  0.0165 -0.8249
23608SOL    HW175280  10.003   6.266  10.452 -0.1673  2.0395 -0.2805
23608SOL    HW275281   9.881   6.177  10.457  0.6207  1.0036  1.1911
23609SOL     OW75282   2.276   0.287   8.484  0.1767  0.5968  0.4054
23609SOL    HW175283   2.180   0.290   8.489  0.1299  1.5994 -0.6359
23609SOL    HW275284   2.294   0.243   8.401  0.5121  3.7843 -1.3557
23610SOL     OW75285   9.096   2.819  10.893 -0.2066 -0.4906 -0.2196
23610SOL    HW175286   9.132   2.746  10.842 -0.5116 -1.1854  0.5396
23610SOL    HW275287   9.052   2.777  10.967 -1.8106  0.3871 -0.6388
23611SOL     OW75288  10.318   9.891   2.843  0.0564  0.1706  0.1829
23611SOL    HW175289  10.232   9.863   2.875 -0.2763  0.9677  0.0140
23611SOL    HW275290  10.305   9.905   2.750  0.0261  1.5319  0.3757
23612SOL     OW75291  10.675   8.136   9.348 -0.4627 -0.0338  0.5688
23612SOL    HW175292  10.747   8.190   9.316  0.5394 -0.7160  1.5754
23612SOL    HW275293  10.650   8.177   9.431 -0.7114 -0.2587  0.6053
23613SOL     OW75294   9.860   9.753   5.361 -0.1979  0.4115  0.1358
23613SOL    HW175295   9.775   9.744   5.318 -1.1545  1.1924  1.7821
23613SOL    HW275296   9.854   9.697   5.438  1.1988 -0.3480 -0.2641
23614SOL     OW75297  10.562   7.635   0.668 -0.3539 -0.4142  0.3967
23614SOL    HW175298  10.479   7.641   0.620 -0.6256 -1.0265  0.7705
23614SOL    HW275299  10.623   7.596   0.606  0.6452  3.1024 -1.0713
23615SOL     OW75300   9.569   4.396   1.418  0.1561  0.2966 -0.1898
23615SOL    HW175301   9.574   4.422   1.326  0.1979  0.0309 -0.2629
23615SOL    HW275302   9.532   4.308   1.417 -0.7212  0.6495  0.1057
23616SOL     OW75303   7.819   9.491   1.540  0.2204  0.0418 -0.2151
23616SOL    HW175304   7.909   9.467   1.517 -0.1929 -0.3931 -1.4455
23616SOL    HW275305   7.807   9.578   1.501 -0.2526 -0.3921 -1.0644
23617SOL     OW75306  10.519  11.062   3.646 -0.1856 -0.2858 -0.3074
23617SOL    HW175307  10.457  11.060   3.573 -1.0951 -0.9195  0.4472
23617SOL    HW275308  10.469  11.027   3.720 -0.2551  3.0507  1.3894
23618SOL     OW75309   5.396   0.079   9.842 -0.0516  0.8915 -0.0821
23618SOL    HW175310   5.380   0.029   9.763 -2.1585  0.5891  0.4918
23618SOL    HW275311   5.440   0.158   9.811 -1.2625  1.0100 -1.6408
23619SOL     OW75312   4.309   7.307   8.855 -0.0382  0.0850  0.4284
23619SOL    HW175313   4.292   7.360   8.933 -0.3947 -0.7296  0.9099
23619SOL    HW275314   4.323   7.371   8.785 -1.9584  0.8278  0.6705
23620SOL     OW75315  10.167  10.261   8.821 -0.1772 -0.3995  0.1747
23620SOL    HW175316  10.146  10.213   8.902  0.1559 -0.5101  0.1984
23620SOL    HW275317  10.262  10.266   8.821 -0.2268  1.0617  0.6261
23621SOL     OW75318   4.064   7.851   9.494 -0.9248 -0.4211  0.5953
23621SOL    HW175319   3.981   7.814   9.465 -1.4732 -0.0699  1.6719
23621SOL    HW275320   4.080   7.810   9.579 -0.5862  0.3853  0.9297
23622SOL     OW75321   1.856   2.481   7.413 -0.3371 -0.0800 -0.0943
23622SOL    HW175322   1.869   2.461   7.320  0.7013  0.2505 -0.0311
23622SOL    HW275323   1.761   2.492   7.422 -0.4215  0.2076 -1.1847
23623SOL     OW75324   2.632   3.125   9.702  0.2905  0.5855 -0.2683
23623SOL    HW175325   2.541   3.152   9.713  0.1432  0.1258 -0.3653
23623SOL    HW275326   2.637   3.090   9.613  0.8301  1.6648 -0.6861
23624SOL     OW75327   7.262   4.837   6.559  0.1241 -0.1684  0.4717
23624SOL    HW175328   7.225   4.812   6.475 -1.6996  1.4032  0.7496
23624SOL    HW275329   7.290   4.928   6.546  0.3773 -0.1091  1.3879
23625SOL     OW75330   5.877   0.480   5.077  0.3687 -0.2234  0.1153
23625SOL    HW175331   5.807   0.470   5.141 -0.9521  0.3782 -1.1704
23625SOL    HW275332   5.879   0.574   5.058  0.0018 -0.4907 -1.4517
23626SOL     OW75333   2.018   5.989  11.074 -0.2713  0.1873  0.7565
23626SOL    HW175334   1.996   5.896  11.071  0.5618  0.0128 -0.7324
23626SOL    HW275335   2.114   5.990  11.083 -0.2908  0.9104  0.9704
23627SOL     OW75336   2.310   8.500   3.805 -0.1701 -0.1454 -0.3224
23627SOL    HW175337   2.332   8.541   3.889 -2.7073  0.9624 -0.0931
23627SOL    HW275338   2.315   8.406   3.823 -0.3612  0.0679  1.0073
23628SOL     OW75339   1.206   2.781   2.604 -0.6371 -0.0403 -0.4393
23628SOL    HW175340   1.284   2.837   2.595 -0.0530 -0.8477 -0.5605
23628SOL    HW275341   1.155   2.822   2.674  1.1655 -0.8904  1.4840
23629SOL     OW75342   9.366   5.237   4.948 -0.1270  0.0550 -0.0845
23629SOL    HW175343   9.437   5.201   5.002  0.6048 -0.0101 -1.0557
23629SOL    HW275344   9.304   5.273   5.011  1.3066  1.1218  0.8022
23630SOL     OW75345   1.757   0.172   3.225  0.0201  0.1293  0.3400
23630SOL    HW175346   1.835   0.143   3.271  1.6814 -2.2283 -3.4903
23630SOL    HW275347   1.699   0.096   3.224 -1.1124  0.9546  0.6843
23631SOL     OW75348   6.301   3.631   2.655  0.4641  0.2221  0.0403
23631SOL    HW175349   6.380   3.578   2.647 -1.0251 -2.2592  0.7729
23631SOL    HW275350   6.322   3.712   2.609  2.9140 -0.9151 -1.0228
23632SOL     OW75351   1.322   2.342  10.789  0.1611 -0.0173  0.1072
23632SOL    HW175352   1.278   2.395  10.856  1.9067  0.4870  0.9162
23632SOL    HW275353   1.290   2.253  10.804 -0.7344  0.3557  0.5178
23633SOL     OW75354   3.043   9.317   1.421  0.5446 -0.0950  0.2514
23633SOL    HW175355   3.102   9.378   1.466  1.1822  1.0581 -1.9605
23633SOL    HW275356   3.099   9.244   1.397  1.2390  1.0757 -1.9965
23634SOL     OW75357   3.958   1.224   0.204 -0.6933 -0.2918  0.0787
23634SOL    HW175358   4.046   1.219   0.167 -0.1178 -1.8415  1.4983
23634SOL    HW275359   3.966   1.181   0.289 -2.5003  0.8869  0.9054
23635SOL     OW75360   0.269   8.320   7.713 -0.1271 -0.2474  0.4722
23635SOL    HW175361   0.294   8.412   7.705 -0.4878 -0.1576  0.3806
23635SOL    HW275362   0.178   8.317   7.683 -1.0817 -0.1427  3.1262
23636SOL     OW75363   8.924   4.745   5.940 -0.2471  0.1827 -0.6008
23636SOL    HW175364   8.876   4.687   6.000 -1.4763  1.5724 -0.1839
23636SOL    HW275365   9.015   4.718   5.948 -0.8382 -2.1262 -0.9286
23637SOL     OW75366   4.636   3.113   4.410 -0.1798  0.1446  0.3241
23637SOL    HW175367   4.685   3.190   4.382  1.4615 -0.6255  0.9215
23637SOL    HW275368   4.704   3.050   4.436 -1.5049 -0.1046  3.5968
23638SOL     OW75369   5.364   0.226   8.709 -0.4868  0.0775 -0.4936
23638SOL    HW175370   5.385   0.303   8.656 -1.7409 -0.1321 -1.3363
23638SOL    HW275371   5.425   0.159   8.680  2.0867  1.2710  1.7262
23639SOL     OW75372   6.210   2.250   0.384 -0.3671 -0.3647  0.4802
23639SOL    HW175373   6.138   2.288   0.435  0.1344 -0.3721  1.2090
23639SOL    HW275374   6.203   2.156   0.400 -0.5869 -0.4314  0.0204
23640SOL     OW75375   8.825   8.916   5.524  0.4100 -0.1893 -0.3941
23640SOL    HW175376   8.910   8.949   5.553  0.4788 -0.8745  0.2082
23640SOL    HW275377   8.774   8.995   5.506  0.3824  0.2797  1.5594
23641SOL     OW75378  10.254   8.297   3.106 -0.0561 -0.3162  0.3350
23641SOL    HW175379  10.214   8.221   3.148  0.6775 -1.5017 -1.0134
23641SOL    HW275380  10.316   8.260   3.043 -1.1250  1.3535 -1.8428
23642SOL     OW75381   2.718   2.347   4.091  0.2308 -0.4064  0.0717
23642SOL    HW175382   2.657   2.354   4.164  0.7912 -0.6721  0.5727
23642SOL    HW275383   2.705   2.258   4.058 -0.2475 -0.1807 -0.3582
23643SOL     OW75384   7.051   7.410   3.697  0.4983  0.2310 -0.1545
23643SOL    HW175385   6.957   7.425   3.691  0.0829 -1.1473  1.8966
23643SOL    HW275386   7.062   7.360   3.778  3.3054  2.8253  1.2474
23644SOL     OW75387   9.053   7.751   5.347  0.1477 -0.1759 -0.3893
23644SOL    HW175388   9.107   7.706   5.412 -0.5840 -2.3662 -1.2004
23644SOL    HW275389   8.974   7.777   5.395 -0.7246 -2.4561 -0.4852
23645SOL     OW75390   6.019  10.903   3.029  0.7560  0.3776 -0.0144
23645SOL    HW175391   5.966  10.916   2.950  1.9110 -0.0797 -0.8907
23645SOL    HW275392   6.005  10.983   3.079  1.1043  1.3148 -1.3467
23646SOL     OW75393   0.653   2.960   6.113 -0.0207  0.0009 -0.0838
23646SOL    HW175394   0.694   2.927   6.193 -0.4111  2.2713  1.1209
23646SOL    HW275395   0.588   3.022   6.144 -0.8070  0.2617 -2.1622
23647SOL     OW75396   0.117   7.256   1.770 -0.2329  0.0905  0.0669
23647SOL    HW175397   0.156   7.290   1.851 -1.2322  0.3455  0.4529
23647SOL    HW275398   0.181   7.193   1.737  0.4907  0.4797  0.6917
23648SOL     OW75399   1.371   9.571   2.339  0.0487  0.2292  0.5405
23648SOL    HW175400   1.299   9.591   2.398  0.0836 -0.3792  0.7986
23648SOL    HW275401   1.389   9.653   2.294 -1.4638  0.1544 -0.2656
23649SOL     OW75402   8.692  10.873   7.271  0.0766  0.5360  0.4447
23649SOL    HW175403   8.621  10.843   7.327  0.7586  2.7205  2.6581
23649SOL    HW275404   8.647  10.912   7.195 -1.1190  1.6174  1.6550
23650SOL     OW75405   4.113   0.990   6.295  0.5449 -0.1140 -0.6819
23650SOL    HW175406   4.116   0.931   6.370 -0.2704  0.6582 -0.0182
23650SOL    HW275407   4.150   0.939   6.223 -0.2084 -1.4643 -0.1535
23651SOL     OW75408   5.356   1.734   4.626 -0.1346 -0.1670 -0.0339
23651SOL    HW175409   5.349   1.776   4.711  0.9426  0.5129 -0.2662
23651SOL    HW275410   5.328   1.801   4.564 -0.3673 -0.4693 -0.2600
23652SOL     OW75411   1.262   6.100   9.489 -0.7915 -0.0600  0.6795
23652SOL    HW175412   1.254   6.152   9.569 -1.2173  1.0583 -0.0639
23652SOL    HW275413   1.213   6.149   9.424 -0.3148 -0.8687 -0.3102
23653SOL     OW75414   7.456   6.808   3.030  0.3898  0.6216 -0.3696
23653SOL    HW175415   7.361   6.798   3.021 -0.0354  2.0480  1.8112
23653SOL    HW275416   7.482   6.856   2.951 -1.0022  1.6732 -0.2391
23654SOL     OW75417   8.849   2.237   4.800  0.0340  0.1136  0.1299
23654SOL    HW175418   8.933   2.242   4.756  0.3262  1.6937  0.7990
23654SOL    HW275419   8.863   2.280   4.884 -1.8181  1.9078 -0.3915
23655SOL     OW75420   5.023   0.427  10.849 -0.1726  0.0454 -0.0473
23655SOL    HW175421   5.025   0.374  10.769 -0.0539  0.8317 -0.5865
23655SOL    HW275422   5.080   0.502  10.828 -0.7008  0.6119  0.5207
23656SOL     OW75423   2.487   1.494   6.979  0.4721 -0.2375  0.1106
23656SOL    HW175424   2.574   1.522   6.951  0.6226 -0.3949  0.4275
23656SOL    HW275425   2.502   1.441   7.057  0.0816 -0.1360  0.2573
23657SOL     OW75426   5.870   3.524   0.683 -0.6228 -0.1197  0.2364
23657SOL    HW175427   5.874   3.474   0.602 -2.5159 -2.1202  1.2694
23657SOL    HW275428   5.877   3.615   0.656 -0.0065 -0.7844 -2.0272
23658SOL     OW75429   9.484   2.728   2.545 -0.0470 -0.1965 -0.1440
23658SOL    HW175430   9.570   2.741   2.505  0.6722  0.1043  1.4019
23658SOL    HW275431   9.425   2.709   2.472  0.8042  2.1215 -1.5406
23659SOL     OW75432   1.775  10.328   7.682  0.5484 -0.2226 -0.4797
23659SOL    HW175433   1.768  10.236   7.708  1.4113 -0.1088  0.2211
23659SOL    HW275434   1.847  10.362   7.735  1.5643  0.3455 -2.1427
23660SOL     OW75435   4.444  10.441   8.912  0.4987 -0.2668 -0.2991
23660SOL    HW175436   4.486  10.471   8.993  1.2613 -0.6116 -0.5574
23660SOL    HW275437   4.509  10.455   8.844  0.6782 -1.9386 -0.5195
23661SOL     OW75438   2.336   3.196  10.214  0.0325 -0.1303  0.3586
23661SOL    HW175439   2.404   3.132  10.231 -0.1874 -0.4459  0.0601
23661SOL    HW275440   2.256   3.157  10.250  0.0183  0.2692  0.7759
23662SOL     OW75441   3.242   9.084   4.670 -0.2036  0.2076  0.0889
23662SOL    HW175442   3.200   8.999   4.658 -1.6768  0.7969  0.8423
23662SOL    HW275443   3.311   9.086   4.603  0.3109 -1.8332  0.4843
23663SOL     OW75444   3.029   9.940   5.762  0.3791  0.2344  0.0506
23663SOL    HW175445   2.937   9.938   5.791  0.4445 -0.0698  0.2424
23663SOL    HW275446   3.035   9.872   5.695  0.1812  1.0727 -0.8483
23664SOL     OW75447   3.797   0.438   0.336  0.0457 -0.1436  0.1697
23664SOL    HW175448   3.855   0.402   0.268 -1.8263 -1.4543 -0.8240
23664SOL    HW275449   3.719   0.467   0.288 -0.5740  0.6175  1.5823
23665SOL     OW75450   4.617   5.526   5.035  0.2821  0.6551  0.1756
23665SOL    HW175451   4.686   5.474   5.076  0.4732  0.7672 -0.0005
23665SOL    HW275452   4.541   5.468   5.032  0.4529  0.4365  0.1078
23666SOL     OW75453   8.563  10.223  10.346  0.9635  0.0505  0.2530
23666SOL    HW175454   8.537  10.255  10.432  0.4979  0.6752 -0.1099
23666SOL    HW275455   8.578  10.303  10.295 -0.5862 -0.2755 -0.7870
23667SOL     OW75456   2.997   3.340  10.772  0.3699 -0.0103 -0.0477
23667SOL    HW175457   3.063   3.363  10.706 -1.1266  1.1525 -1.2193
23667SOL    HW275458   3.016   3.397  10.846  1.1979 -0.2933 -0.0352
23668SOL     OW75459   2.396   1.602  10.397 -0.0023 -0.4685 -0.0690
23668SOL    HW175460   2.323   1.660  10.375  0.3496 -0.3867 -1.0991
23668SOL    HW275461   2.464   1.661  10.431  0.4038 -0.2328 -1.2391
23669SOL     OW75462   7.282   6.286   2.956  0.3196 -0.2109  0.3089
23669SOL    HW175463   7.289   6.193   2.976  1.0776 -0.6567 -1.8396
23669SOL    HW275464   7.252   6.290   2.866 -1.5274  1.6795  0.9163
23670SOL     OW75465   7.770   6.008   4.077  0.4861  0.0515  0.1894
23670SOL    HW175466   7.675   6.019   4.081  0.4551  0.5401 -1.2600
23670SOL    HW275467   7.791   5.948   4.149 -0.8014  0.6146  1.0666
23671SOL     OW75468   5.261   8.036   5.075 -0.3198 -0.4656  0.1857
23671SOL    HW175469   5.277   8.103   5.142  0.3607 -0.3498 -0.0783
23671SOL    HW275470   5.240   7.957   5.124 -1.7287  0.0721  0.4934
23672SOL     OW75471   2.778   8.705   0.637 -0.0418  0.2548  0.3675
23672SOL    HW175472   2.723   8.669   0.707 -1.1078  1.1852  0.0334
23672SOL    HW275473   2.730   8.686   0.556 -0.6839  2.3877  0.1740
23673SOL     OW75474   6.197   9.585   5.427  0.3083 -0.4559 -1.0366
23673SOL    HW175475   6.221   9.524   5.356 -0.4852 -0.3942 -1.3612
23673SOL    HW275476   6.102   9.589   5.425  0.3082  0.0739 -0.3962
23674SOL     OW75477  10.223   8.399   6.281 -0.0446  0.3367  0.0987
23674SOL    HW175478  10.162   8.388   6.353  0.0569 -1.2358 -0.0057
23674SOL    HW275479  10.287   8.463   6.312 -0.6414  0.5178  0.9657
23675SOL     OW75480   8.626   6.172   2.909 -0.2253  0.1594  0.0254
23675SOL    HW175481   8.707   6.123   2.901  0.0196  0.6123 -0.3147
23675SOL    HW275482   8.560   6.118   2.866 -0.3781 -0.8152  1.4061
23676SOL     OW75483   3.571   1.951   7.682 -0.4821 -0.1349 -0.3466
23676SOL    HW175484   3.539   1.995   7.604 -2.1893  0.3998  0.6017
23676SOL    HW275485   3.567   1.858   7.660 -3.4070 -0.1728 -0.1358
23677SOL     OW75486   9.937   7.898  10.174 -0.0763  0.3503  0.2586
23677SOL    HW175487   9.855   7.868  10.214  0.0185 -0.7672 -0.3299
23677SOL    HW275488   9.999   7.901  10.246 -0.3829  0.2074  0.5332
23678SOL     OW75489  10.362   3.830   7.274 -0.1685 -0.4364 -0.0032
23678SOL    HW175490  10.286   3.886   7.285 -0.8837 -1.0934 -1.4124
23678SOL    HW275491  10.384   3.836   7.181  0.2665 -1.8101 -0.0077
23679SOL     OW75492   9.085   1.474  11.024 -0.2507 -0.2055  0.0293
23679SOL    HW175493   9.125   1.498  11.107 -0.2370 -0.6102  0.1374
23679SOL    HW275494   9.137   1.400  10.993  0.7367  0.8944 -1.0868
23680SOL     OW75495   8.363   7.747   5.630 -0.0536 -0.3004  0.0754
23680SOL    HW175496   8.302   7.712   5.566 -0.3824  0.1533  0.1327
23680SOL    HW275497   8.308   7.777   5.702  0.3635 -1.4684  0.9011
23681SOL     OW75498   7.770   0.751  10.710 -0.3849  0.1693 -0.2991
23681SOL    HW175499   7.738   0.714  10.627  0.5274 -0.8792 -0.2091
23681SOL    HW275500   7.829   0.821  10.683  0.2714 -0.4719 -0.5611
23682SOL     OW75501   3.952   1.498   6.031 -0.0369  0.0520 -0.5075
23682SOL    HW175502   3.952   1.514   6.125 -0.5366 -0.5726 -0.3979
23682SOL    HW275503   3.995   1.575   5.994  2.0616 -0.6015  0.3814
23683SOL     OW75504   5.337   1.359   6.527 -0.0878 -0.0799  0.2514
23683SOL    HW175505   5.394   1.421   6.571 -0.6306 -1.0695  2.5343
23683SOL    HW275506   5.354   1.276   6.571 -1.0603 -1.0644 -1.1231
23684SOL     OW75507   1.685  10.964   3.463 -0.7636 -0.6089  0.2229
23684SOL    HW175508   1.719  11.040   3.509  0.6824 -0.2730 -1.3235
23684SOL    HW275509   1.657  10.904   3.533  0.8969  0.0597  1.5322
23685SOL     OW75510   3.946   9.700   1.588 -0.3656 -0.7686  0.1314
23685SOL    HW175511   3.914   9.667   1.673 -0.0590  0.0139  0.5561
23685SOL    HW275512   3.996   9.627   1.551 -1.3307 -1.4672  0.1664
23686SOL     OW75513   2.094   1.190   0.730 -0.5551 -0.2618 -0.6413
23686SOL    HW175514   2.019   1.249   0.738 -0.6502 -0.3445 -0.9040
23686SOL    HW275515   2.087   1.154   0.642  0.1339  0.1930 -0.8904
23687SOL     OW75516   2.208   4.755   4.324 -0.2192 -0.0022  0.2117
23687SOL    HW175517   2.253   4.814   4.384 -0.1409  1.2584 -1.0485
23687SOL    HW275518   2.162   4.693   4.381  1.0308  0.2448  1.5434
23688SOL     OW75519   4.156   1.909   9.314 -0.5358 -0.5460  0.4387
23688SOL    HW175520   4.138   1.815   9.311 -0.7318 -0.5028  0.2301
23688SOL    HW275521   4.250   1.915   9.330 -0.1135 -0.7941 -1.7111
23689SOL     OW75522   8.545  10.942   8.236  0.0539  0.0937  0.2415
23689SOL    HW175523   8.507  10.884   8.170  1.7664 -1.9179  0.9278
23689SOL    HW275524   8.570  10.883   8.308  1.8457  1.6951  0.9905
23690SOL     OW75525   4.909   7.958   6.289  0.6589  0.1803 -0.1366
23690SOL    HW175526   4.951   8.032   6.245  3.3933 -0.3685  1.2712
23690SOL    HW275527   4.966   7.884   6.268  0.3542 -0.6650  1.8478
23691SOL     OW75528  10.419   0.620   4.020 -0.3531  0.0763 -0.6600
23691SOL    HW175529  10.491   0.673   3.985 -0.1107  1.0141  1.1416
23691SOL    HW275530  10.382   0.576   3.943  0.9407  1.0349 -1.8864
23692SOL     OW75531  10.714   8.902   0.082 -0.1687  0.0244  0.5066
23692SOL    HW175532  10.654   8.954   0.135  0.6043 -0.5792  2.0170
23692SOL    HW275533  10.676   8.814   0.082 -0.0532 -0.0273  0.2109
23693SOL     OW75534   9.938   1.187   6.745 -0.0145 -0.3414  0.1169
23693SOL    HW175535   9.889   1.269   6.750 -1.3629 -1.1010 -0.0199
23693SOL    HW275536   9.906   1.135   6.818  1.3951 -0.4674  0.6627
23694SOL     OW75537   1.674   2.874   4.726 -0.2924 -0.4353 -0.3335
23694SOL    HW175538   1.591   2.879   4.678 -0.4606 -1.0572 -0.1169
23694SOL    HW275539   1.730   2.818   4.673 -0.0335 -0.0795 -0.4399
23695SOL     OW75540   2.304   1.818   5.048  0.1715  0.3253  0.3643
23695SOL    HW175541   2.381   1.871   5.070  0.4727 -0.5564  1.5433
23695SOL    HW275542   2.330   1.770   4.969 -0.1756  2.0308 -0.8319
23696SOL     OW75543   8.095   9.432   1.780 -0.1879  0.3258 -0.2138
23696SOL    HW175544   8.071   9.507   1.725  0.0898 -0.1229 -0.9657
23696SOL    HW275545   8.188   9.418   1.763  0.2692  1.0815  1.4922
23697SOL     OW75546   6.699   9.227   8.146  0.5528 -0.3077  0.0396
23697SOL    HW175547   6.773   9.280   8.175 -0.9531  1.0686  1.6163
23697SOL    HW275548   6.727   9.136   8.161  2.0193  0.1707  0.3190
23698SOL     OW75549   0.795   1.790   9.316  0.6697 -0.0161  0.4880
23698SOL    HW175550   0.723   1.810   9.256  0.6185  0.0421  0.5685
23698SOL    HW275551   0.868   1.765   9.259  0.7515  0.4589  0.3868
23699SOL     OW75552   8.598   4.822   4.805  0.2045  0.6012 -0.2247
23699SOL    HW175553   8.561   4.735   4.794  1.1417  0.3792 -1.9426
23699SOL    HW275554   8.689   4.813   4.777  1.0189  1.6100  1.8448
23700SOL     OW75555  10.293  10.870  10.834 -0.1053  0.3562 -0.0455
23700SOL    HW175556  10.345  10.870  10.753 -0.1175  1.2374 -0.0578
23700SOL    HW275557  10.216  10.817  10.813  1.1073 -1.6097  0.1988
23701SOL     OW75558   9.375   1.576   4.123 -0.9556 -0.4257  0.3879
23701SOL    HW175559   9.369   1.559   4.217  0.7104  1.1778  0.8313
23701SOL    HW275560   9.317   1.510   4.083 -1.4880 -1.3095  2.4922
23702SOL     OW75561   5.663   6.786   9.672  0.4121  0.7700 -0.1254
23702SOL    HW175562   5.661   6.788   9.576  1.4389  1.0831 -0.1592
23702SOL    HW275563   5.626   6.870   9.698 -1.4397  0.0177 -0.1786
23703SOL     OW75564   3.897   1.170   1.617 -0.2892  0.1054  0.5569
23703SOL    HW175565   3.987   1.142   1.600 -0.1304  0.1210  1.3284
23703SOL    HW275566   3.904   1.229   1.691 -0.9122  0.3053  0.4650
23704SOL     OW75567   0.933   6.200   0.705 -0.6745 -0.7327  0.0682
23704SOL    HW175568   0.873   6.216   0.633 -0.3851 -1.0543 -0.2481
23704SOL    HW275569   1.008   6.154   0.665 -0.0824 -0.0794  0.4034
23705SOL     OW75570   8.101  10.820   8.358  0.7139  0.0931 -0.0561
23705SOL    HW175571   8.180  10.766   8.358  1.1766  0.7568  0.8882
23705SOL    HW275572   8.122  10.895   8.414 -0.3548  0.6171 -0.3246
23706SOL     OW75573   2.293   3.045   4.825  0.6762  0.1950  0.4094
23706SOL    HW175574   2.235   3.121   4.820  0.5190  0.0403 -0.2684
23706SOL    HW275575   2.265   2.998   4.904 -0.9974 -0.5730 -0.5842
23707SOL     OW75576   4.383   7.105   0.317 -0.6018  0.5340 -0.2523
23707SOL    HW175577   4.435   7.083   0.240 -0.5240  1.0863 -0.3579
23707SOL    HW275578   4.298   7.064   0.302 -0.2671 -0.2212 -0.1625
23708SOL     OW75579   5.087   2.669  10.850  0.4989 -0.1106 -0.6516
23708SOL    HW175580   5.140   2.699  10.924  0.9041 -0.1778 -0.9155
23708SOL    HW275581   5.002   2.647  10.889  0.7062 -0.1330 -0.2103
23709SOL     OW75582   5.137   2.177   3.781  0.2570 -0.8984  0.1823
23709SOL    HW175583   5.115   2.253   3.835 -0.5609  0.3535 -1.7974
23709SOL    HW275584   5.053   2.150   3.744  0.8407 -1.5435 -0.6756
23710SOL     OW75585   9.770   9.850   3.913  0.3436 -0.0607 -0.0545
23710SOL    HW175586   9.738   9.763   3.890 -0.3389  0.4499 -1.1308
23710SOL    HW275587   9.840   9.867   3.851 -0.4114  0.6752 -0.7250
23711SOL     OW75588   7.510   0.278   7.008  0.2638 -0.1390  0.6092
23711SOL    HW175589   7.416   0.263   7.016 -0.6349  2.7633 -2.5007
23711SOL    HW275590   7.539   0.217   6.940  0.6777 -0.8624  1.3977
23712SOL     OW75591   7.056   8.932  10.326 -0.0304 -0.0637  0.5739
23712SOL    HW175592   7.131   8.873  10.323  0.3629  0.4529 -1.5928
23712SOL    HW275593   7.095   9.019  10.333 -0.4183  0.1690 -0.0141
23713SOL     OW75594   7.947   9.579   4.791 -0.0212 -0.3608  0.0639
23713SOL    HW175595   7.889   9.505   4.769 -1.4429  0.5728  0.5277
23713SOL    HW275596   7.927   9.598   4.882  0.3011  0.6123 -0.0654
23714SOL     OW75597   0.101   7.283  10.999  0.6789 -0.4775  0.1794
23714SOL    HW175598   0.095   7.240  11.085 -4.7147 -1.3102 -0.2672
23714SOL    HW275599   0.015   7.320  10.985  1.5851  0.4531 -4.5673
23715SOL     OW75600   6.779   6.555  10.961  0.0977  0.0759 -0.4797
23715SOL    HW175601   6.824   6.473  10.939  2.5489  0.7950  1.4547
23715SOL    HW275602   6.817   6.619  10.900  0.9140  0.4534  0.3990
23716SOL     OW75603  10.516   0.276   7.289  0.2819 -0.1643  0.5710
23716SOL    HW175604  10.456   0.272   7.214 -0.5748  0.1394  1.2147
23716SOL    HW275605  10.562   0.192   7.287  0.9722  0.2222 -0.8382
23717SOL     OW75606   6.995   1.706   1.198 -0.5321 -0.5586  0.1398
23717SOL    HW175607   6.998   1.728   1.291  0.0677  0.0455 -0.0107
23717SOL    HW275608   7.057   1.767   1.158 -1.6026 -0.0592 -0.8028
23718SOL     OW75609   2.208   4.192   4.845 -0.6308  0.4258  0.0683
23718SOL    HW175610   2.139   4.255   4.867 -0.6019  0.8813 -1.0811
23718SOL    HW275611   2.162   4.122   4.798 -0.6215 -0.3114  1.1178
23719SOL     OW75612  10.164   4.221   3.211  0.2846 -0.3234  0.5930
23719SOL    HW175613  10.217   4.206   3.133 -0.1221 -1.6477  0.5541
23719SOL    HW275614  10.134   4.134   3.237 -2.7418  0.4470  0.0265
23720SOL     OW75615   8.944   0.900   0.782 -0.0370 -0.2933 -0.0994
23720SOL    HW175616   9.023   0.941   0.747  0.2313  1.6581  2.4632
23720SOL    HW275617   8.872   0.956   0.752 -0.2685 -1.0005 -0.8948
23721SOL     OW75618   5.133  10.756   1.133  0.6552  0.7060 -0.2629
23721SOL    HW175619   5.177  10.837   1.108  1.1404  0.5937  0.2133
23721SOL    HW275620   5.193  10.714   1.193  0.5417 -0.1575 -0.7366
23722SOL     OW75621   0.990   3.682  10.346  0.5610  0.2905 -0.7623
23722SOL    HW175622   1.039   3.729  10.278  1.3873  0.6088  0.0316
23722SOL    HW275623   1.048   3.610  10.371  0.3621  0.3053 -0.2418
23723SOL     OW75624   6.609   6.939   4.026 -0.7621  0.5542 -0.2547
23723SOL    HW175625   6.664   6.998   4.079 -0.3247  1.1312 -1.3268
23723SOL    HW275626   6.563   6.997   3.966  0.1287 -0.2193 -1.7508
23724SOL     OW75627   3.601   4.784   4.094  0.1569 -0.2325  0.3777
23724SOL    HW175628   3.683   4.795   4.142  1.0309 -0.6355 -0.9551
23724SOL    HW275629   3.603   4.850   4.025  0.3204 -1.4850 -0.8846
23725SOL     OW75630   6.999   4.125   5.710  0.2703 -1.3896 -0.6889
23725SOL    HW175631   7.063   4.194   5.729  1.2253 -2.1304 -1.1581
23725SOL    HW275632   6.982   4.084   5.795 -0.5452 -0.4008 -0.3493
23726SOL     OW75633   2.193   4.343   6.477  0.2599  0.1026  0.4489
23726SOL    HW175634   2.155   4.334   6.564 -0.4061  1.7354  0.3595
23726SOL    HW275635   2.119   4.359   6.419  0.8565  1.1501 -0.0671
23727SOL     OW75636   6.076   7.082   4.647 -0.3394 -0.5951  0.3975
23727SOL    HW175637   6.017   7.039   4.586  0.5278  2.4443 -2.9139
23727SOL    HW275638   6.020   7.140   4.699 -0.7218 -0.9342  0.3691
23728SOL     OW75639   6.216  10.631   5.396  0.2624  0.7030 -0.1420
23728SOL    HW175640   6.258  10.697   5.451  0.6482  0.9255 -0.6934
23728SOL    HW275641   6.231  10.548   5.442 -0.5976  1.0332  0.7702
23729SOL     OW75642   5.228   2.295   0.291 -0.4416  0.2190  0.4130
23729SOL    HW175643   5.240   2.368   0.230  1.3609 -0.6144 -0.3101
23729SOL    HW275644   5.311   2.289   0.339 -1.8270  0.8947  3.0828
23730SOL     OW75645   0.174   4.386   9.873 -0.0799  0.7385 -0.0470
23730SOL    HW175646   0.178   4.351   9.962  2.0754 -2.6283 -1.2304
23730SOL    HW275647   0.227   4.466   9.876  0.4175  0.3856  1.5964
23731SOL     OW75648  10.188   5.675   3.794  0.0452  0.2271 -0.1031
23731SOL    HW175649  10.126   5.605   3.815 -0.8272  1.4601  1.6975
23731SOL    HW275650  10.151   5.718   3.716  0.2598 -0.8909 -0.8356
23732SOL     OW75651   2.668   9.167   2.064  0.4106 -0.0193 -0.2180
23732SOL    HW175652   2.580   9.190   2.034 -0.4733 -2.5458  0.2560
23732SOL    HW275653   2.682   9.222   2.141 -0.3957  0.9715 -0.7479
23733SOL     OW75654   6.267  10.393   0.707  0.1967 -0.3506 -0.6997
23733SOL    HW175655   6.269  10.413   0.613  1.0870  0.1746 -0.5839
23733SOL    HW275656   6.278  10.478   0.749  1.2412 -0.7424 -0.1489
23734SOL     OW75657  10.557   0.966   9.036  0.2613  0.2135  0.2784
23734SOL    HW175658  10.488   0.998   8.978 -0.3564 -0.2990  0.7224
23734SOL    HW275659  10.612   1.042   9.053 -0.5061  0.7553  0.3598
23735SOL     OW75660  10.062   8.584   0.921 -0.0435  0.2328 -0.1411
23735SOL    HW175661  10.155   8.594   0.942  0.1659  0.5533 -1.2040
23735SOL    HW275662  10.055   8.604   0.828 -1.3157  1.0321  0.1031
23736SOL     OW75663   5.760   2.898   2.122 -0.3907 -0.0943  0.4583
23736SOL    HW175664   5.722   2.985   2.134  0.7463  0.5925 -0.7644
23736SOL    HW275665   5.850   2.906   2.154 -0.2577 -0.8255  0.2963
23737SOL     OW75666   8.310   6.779   5.560 -0.3262 -0.2062 -0.0558
23737SOL    HW175667   8.285   6.860   5.515  1.0471  0.3492  0.1334
23737SOL    HW275668   8.377   6.806   5.622  1.1163 -1.6757 -0.9033
23738SOL     OW75669   1.670   6.866   3.916 -0.2331 -0.1699  0.0709
23738SOL    HW175670   1.690   6.778   3.946  0.4431 -0.3479 -0.8611
23738SOL    HW275671   1.612   6.902   3.983  1.6988 -0.3229  1.9283
23739SOL     OW75672   9.750   6.405   4.390 -0.8754  0.1205 -1.0901
23739SOL    HW175673   9.736   6.421   4.297 -0.8149 -0.0183 -1.1233
23739SOL    HW275674   9.679   6.346   4.415  1.2726 -3.0554 -1.9436
23740SOL     OW75675   3.998   1.370   9.994  0.3104  0.4295 -0.4701
23740SOL    HW175676   3.958   1.433  10.053 -1.2009 -1.1128  0.2223
23740SOL    HW275677   3.932   1.355   9.926 -0.2115 -1.8337  0.4495
23741SOL     OW75678  10.227   2.214  10.179 -0.3857  0.2074 -0.7035
23741SOL    HW175679  10.272   2.152  10.122 -1.1213 -1.0976  0.0780
23741SOL    HW275680  10.205   2.287  10.122  0.4165 -0.2917 -1.6862
23742SOL     OW75681   1.898  10.511   3.920  0.4063  0.6231 -0.3046
23742SOL    HW175682   1.979  10.555   3.893  0.3895  0.1930 -1.0939
23742SOL    HW275683   1.927  10.444   3.982  0.3143  2.4222  1.7656
23743SOL     OW75684   9.445   4.857   2.664  0.3448 -0.0531  0.5252
23743SOL    HW175685   9.365   4.910   2.661 -1.5799 -2.8145  0.1334
23743SOL    HW275686   9.447   4.822   2.753 -0.7505 -2.5813 -0.3714
23744SOL     OW75687   2.432   6.149  10.791 -0.0935  0.2302 -0.3184
23744SOL    HW175688   2.438   6.220  10.854  0.0797  0.8401 -1.0020
23744SOL    HW275689   2.520   6.142  10.754 -0.6344  1.2306 -1.9040
23745SOL     OW75690   5.134   6.646   3.354 -0.3184 -0.6281 -0.4097
23745SOL    HW175691   5.194   6.577   3.383 -0.4904 -0.6044  0.0150
23745SOL    HW275692   5.050   6.622   3.393  0.1755  1.2346  2.0460
23746SOL     OW75693   3.533  10.152   4.082 -0.2167  0.4020  0.0284
23746SOL    HW175694   3.520  10.063   4.114 -0.1660  0.0408 -0.9195
23746SOL    HW275695   3.614  10.181   4.124 -0.3323  0.0790  0.4863
23747SOL     OW75696   6.395   9.728  10.274 -0.0859  0.2007 -0.3680
23747SOL    HW175697   6.365   9.701  10.187 -1.5310  0.8011 -0.0959
23747SOL    HW275698   6.364   9.819  10.282  0.6750  0.3923  0.4880
23748SOL     OW75699   1.050   9.579   4.638  0.5268 -0.2777 -0.4088
23748SOL    HW175700   1.122   9.610   4.583  0.2670 -0.3401 -0.7887
23748SOL    HW275701   1.084   9.500   4.680  1.3683  0.7442  0.9437
23749SOL     OW75702   8.794   9.190  10.953 -0.1954  0.1420  0.2999
23749SOL    HW175703   8.761   9.105  10.925 -1.1315  0.0431  1.6084
23749SOL    HW275704   8.715   9.238  10.979  0.5684  0.2950  2.5104
23750SOL     OW75705   0.292   7.660   1.650 -0.1761  0.7300 -0.1433
23750SOL    HW175706   0.362   7.601   1.676 -2.4872 -1.3078  2.0538
23750SOL    HW275707   0.291   7.728   1.717  0.1697  1.1808 -0.5944
23751SOL     OW75708  11.013   8.986   9.437 -0.0216  0.3089  0.0062
23751SOL    HW175709  11.072   9.047   9.480  2.7208 -2.1884  0.1196
23751SOL    HW275710  11.054   8.900   9.448 -3.3697 -1.5665 -0.5489
23752SOL     OW75711   8.721   3.059   9.982 -0.1504  0.2553 -0.4078
23752SOL    HW175712   8.788   3.123   9.960  1.1463 -1.1607 -0.7122
23752SOL    HW275713   8.764   2.974   9.974 -1.4153 -0.6282  1.3889
23753SOL     OW75714   7.166   0.928   3.418  0.1926  0.4995  0.6640
23753SOL    HW175715   7.169   1.001   3.480  0.1711 -0.1647  1.4704
23753SOL    HW275716   7.118   0.860   3.465  0.4924 -0.1448  0.0428
23754SOL     OW75717   0.204   9.175   9.981 -0.6853 -0.3116 -0.2849
23754SOL    HW175718   0.155   9.093   9.973  0.5578 -1.3341  1.6802
23754SOL    HW275719   0.212   9.190  10.075 -1.8227  2.7256 -0.5633
23755SOL     OW75720   7.803   0.297   6.331 -0.0453  0.2974  0.7384
23755SOL    HW175721   7.748   0.360   6.379  1.3638 -0.0429  2.9894
23755SOL    HW275722   7.870   0.351   6.290 -0.2041  0.4523  0.6796
23756SOL     OW75723   8.108   8.468   7.136  0.0277 -0.7262 -0.4873
23756SOL    HW175724   8.036   8.483   7.075  0.2020 -0.1232 -0.5511
23756SOL    HW275725   8.182   8.513   7.096  0.9433 -2.8708 -1.3785
23757SOL     OW75726   7.244   8.930   6.846  0.3134  0.1717  0.0041
23757SOL    HW175727   7.199   8.851   6.876  1.0248  0.0862  0.8936
23757SOL    HW275728   7.315   8.942   6.908 -0.8417  2.5329  1.0298
23758SOL     OW75729   3.016   8.034   9.297  0.2656 -0.2452 -0.4829
23758SOL    HW175730   2.980   8.084   9.370 -1.0346 -0.7579 -0.7412
23758SOL    HW275731   2.956   8.052   9.224  0.0214 -1.8049 -0.7005
23759SOL     OW75732   6.313   6.246   3.373 -0.3605  0.5048 -0.4676
23759SOL    HW175733   6.296   6.190   3.449  0.3819 -1.0902 -1.4435
23759SOL    HW275734   6.408   6.255   3.371 -0.3772  0.5310 -1.2252
23760SOL     OW75735   8.655   3.207   1.938  0.0881 -0.4332  0.1736
23760SOL    HW175736   8.635   3.281   1.880 -0.1004  0.2741  1.1174
23760SOL    HW275737   8.732   3.236   1.987  0.1016 -0.9278  0.4437
23761SOL     OW75738   9.037  10.186   2.230 -0.0194 -0.1474  0.7632
23761SOL    HW175739   8.968  10.160   2.169  0.9522 -0.3944 -0.2649
23761SOL    HW275740   9.099  10.234   2.176  0.8465 -0.3212  1.5831
23762SOL     OW75741   8.328   3.676   2.893 -0.4385 -0.1466 -0.5268
23762SOL    HW175742   8.419   3.649   2.903  0.0610  1.2584 -1.0830
23762SOL    HW275743   8.297   3.630   2.815  0.5689  1.2142 -1.7896
23763SOL     OW75744   4.679   2.004   2.375  0.3196 -0.2476  0.5143
23763SOL    HW175745   4.663   2.055   2.455 -3.3513 -2.4266  1.4208
23763SOL    HW275746   4.736   1.932   2.403  2.4874  1.2022  0.0708
23764SOL     OW75747   5.466   8.108   8.024 -0.6507  0.4792  0.0754
23764SOL    HW175748   5.546   8.066   8.056 -0.4736  1.0979  0.4671
23764SOL    HW275749   5.481   8.202   8.037 -2.3394  0.5274  2.3548
23765SOL     OW75750   9.037   7.478   1.758 -0.1456 -0.2270  0.4011
23765SOL    HW175751   9.032   7.408   1.693  0.3244 -0.1920  0.3205
23765SOL    HW275752   9.105   7.537   1.725 -1.1466  0.7480  0.0142
23766SOL     OW75753   2.031   4.521   8.512  0.1825  0.5693 -0.0442
23766SOL    HW175754   2.041   4.613   8.534 -2.6013  0.8079  0.5093
23766SOL    HW275755   1.944   4.514   8.473  1.0408 -1.5461 -1.8207
23767SOL     OW75756   5.643  10.618   1.182 -0.1592 -0.6752  0.1705
23767SOL    HW175757   5.735  10.609   1.207 -0.6109 -2.9850  1.1940
23767SOL    HW275758   5.646  10.629   1.087  1.1531 -1.8374  0.0399
23768SOL     OW75759   7.590   1.701   4.771 -0.5525 -0.2771  0.4971
23768SOL    HW175760   7.599   1.692   4.866 -0.7326 -0.8425  0.4600
23768SOL    HW275761   7.561   1.615   4.741  1.2263 -0.6500 -0.2902
23769SOL     OW75762  10.697   9.890   7.406  0.0812 -0.0612  0.9781
23769SOL    HW175763  10.714   9.812   7.458  0.8516 -0.9167 -0.4788
23769SOL    HW275764  10.614   9.924   7.439  0.0518 -1.1379  2.0546
23770SOL     OW75765   8.988   6.538   8.016  0.6971 -0.3121  0.9090
23770SOL    HW175766   8.911   6.586   7.985 -0.6921 -0.9178  3.1718
23770SOL    HW275767   8.966   6.446   7.999  1.5783 -0.4161  0.2743
23771SOL     OW75768   4.529  10.910   6.692 -0.0443 -0.3905  0.4875
23771SOL    HW175769   4.437  10.890   6.675  0.1113  0.0175 -0.9073
23771SOL    HW275770   4.530  11.005   6.705  0.1833 -0.3956  0.5054
23772SOL     OW75771   1.981   6.235   1.576 -0.2019 -0.3696  0.4096
23772SOL    HW175772   1.905   6.289   1.596  0.3744  0.2058  1.1145
23772SOL    HW275773   2.051   6.298   1.557 -0.1332 -0.8886 -1.2129
23773SOL     OW75774   1.517   0.671   0.677  0.0820  0.2350 -0.6910
23773SOL    HW175775   1.432   0.627   0.669  0.1808  0.1917 -1.7542
23773SOL    HW275776   1.562   0.626   0.748 -0.4887 -0.2522 -0.6352
23774SOL     OW75777   5.418   1.970   2.721 -0.0899  0.0663  0.1563
23774SOL    HW175778   5.375   1.973   2.806  1.5931 -0.0190  1.0605
23774SOL    HW275779   5.428   2.062   2.696 -3.3864  0.0961 -1.5195
23775SOL     OW75780   2.741   5.444   1.199 -0.2689 -0.0360  0.0242
23775SOL    HW175781   2.805   5.404   1.257 -0.6866 -0.7775 -0.0041
23775SOL    HW275782   2.667   5.466   1.256 -0.7829 -0.9931 -0.2358
23776SOL     OW75783   3.213   5.344   0.369 -0.0545 -0.1231 -0.0465
23776SOL    HW175784   3.212   5.418   0.429 -1.4712  0.5679 -0.8712
23776SOL    HW275785   3.275   5.282   0.408  0.0242  0.8480  1.4394
23777SOL     OW75786   6.377   0.818   7.887 -0.1228  0.1768  0.2149
23777SOL    HW175787   6.454   0.842   7.836  0.4018 -2.9649 -0.6863
23777SOL    HW275788   6.407   0.816   7.978  1.0118 -1.2622 -0.1512
23778SOL     OW75789   7.232   8.128   4.539  0.4282  0.3681  0.5560
23778SOL    HW175790   7.250   8.036   4.560 -0.5373 -0.6154 -2.5086
23778SOL    HW275791   7.312   8.158   4.496  0.8491  1.0973  1.8083
23779SOL     OW75792   5.641  10.672   1.860 -0.1720 -0.4027 -0.0154
23779SOL    HW175793   5.621  10.717   1.942 -0.0058  0.8049 -0.6205
23779SOL    HW275794   5.681  10.589   1.888  3.6775  1.6356  1.1882
23780SOL     OW75795   5.061   0.716   9.596  0.3392 -0.0063 -0.1468
23780SOL    HW175796   5.062   0.663   9.675  0.0940  0.9543  0.5180
23780SOL    HW275797   5.047   0.805   9.627  0.8195  0.4669 -1.2309
23781SOL     OW75798  10.963  10.179   7.296  0.6157 -0.1977  0.3968
23781SOL    HW175799  10.879  10.191   7.341  0.0599  0.7367 -0.8461
23781SOL    HW275800  10.964  10.086   7.271 -0.2256 -0.1263  0.0771
23782SOL     OW75801   5.650   1.042   2.654  0.5292  0.5107 -0.3345
23782SOL    HW175802   5.590   0.997   2.594  1.1162 -0.8459  0.0560
23782SOL    HW275803   5.733   1.044   2.607  0.8484 -0.0538  0.1941
23783SOL     OW75804   5.778   4.477   6.343  0.8957  0.1312 -0.6740
23783SOL    HW175805   5.733   4.394   6.325 -1.7231  0.4365  3.2665
23783SOL    HW275806   5.851   4.453   6.400  0.8194  0.3751 -0.4683
23784SOL     OW75807   5.111   1.235   0.041  0.2022  0.0915 -0.6293
23784SOL    HW175808   5.067   1.248   0.124  1.4325 -0.0357  0.0724
23784SOL    HW275809   5.144   1.145   0.045 -2.2540 -0.9992 -2.5183
23785SOL     OW75810   2.860   1.626   1.444 -0.1551 -0.3541 -0.4696
23785SOL    HW175811   2.908   1.708   1.446  0.4546 -0.7107 -0.0069
23785SOL    HW275812   2.926   1.559   1.460 -1.1994 -0.6731  3.7879
23786SOL     OW75813   5.719   5.277  10.027  0.1034 -0.0695  0.0627
23786SOL    HW175814   5.677   5.350  10.072  1.9729  0.4485  1.0882
23786SOL    HW275815   5.653   5.244   9.966 -1.2012  1.6774  0.4722
23787SOL     OW75816   5.904   3.327  10.611  0.1757  0.3540 -0.7004
23787SOL    HW175817   5.859   3.250  10.648  1.0691 -0.1498 -0.6346
23787SOL    HW275818   5.870   3.400  10.663  0.3979 -0.1772  0.2350
23788SOL     OW75819   2.794   9.423   5.370 -0.4458 -0.5095  0.0552
23788SOL    HW175820   2.879   9.418   5.327 -0.7663 -0.1932 -0.6261
23788SOL    HW275821   2.782   9.515   5.390 -1.4434 -0.2531 -1.5586
23789SOL     OW75822   7.633   7.452   1.878 -0.7261 -0.1202 -0.1477
23789SOL    HW175823   7.655   7.440   1.786  1.5342  0.8644  0.1955
23789SOL    HW275824   7.606   7.364   1.908 -0.8534 -0.5826 -1.5655
23790SOL     OW75825   8.979   2.324   5.426 -0.2760  0.4280  0.4951
23790SOL    HW175826   8.901   2.380   5.418 -1.3267 -0.9660  0.5201
23790SOL    HW275827   9.053   2.384   5.418 -1.3539  1.7547  0.1159
23791SOL     OW75828   4.809   3.153   0.367 -0.2618  0.4703  0.2724
23791SOL    HW175829   4.887   3.172   0.314 -0.7442 -0.2689 -0.7545
23791SOL    HW275830   4.789   3.235   0.411  2.4857  0.0878  2.4899
23792SOL     OW75831   2.504   8.227   8.498  0.3454 -0.0953  0.4954
23792SOL    HW175832   2.570   8.288   8.466 -2.0701  1.9096 -1.0412
23792SOL    HW275833   2.516   8.226   8.593  1.5311  1.4410  0.3911
23793SOL     OW75834   5.749   7.215  11.075 -0.6751  0.0728 -0.0036
23793SOL    HW175835   5.717   7.184  11.160  2.4170  2.0180  2.0940
23793SOL    HW275836   5.820   7.154  11.052 -1.3516 -0.3172 -1.1208
23794SOL     OW75837   7.609   0.310  10.575 -0.3216  0.4002 -0.3088
23794SOL    HW175838   7.666   0.233  10.569 -1.5324 -0.4328 -2.3202
23794SOL    HW275839   7.530   0.278  10.620 -0.3621  0.7688 -0.1133
23795SOL     OW75840   6.837   9.424   0.969 -0.2542  0.3283  0.1450
23795SOL    HW175841   6.910   9.477   0.937 -0.0013  0.8550  1.5144
23795SOL    HW275842   6.800   9.475   1.042  0.7040 -1.8330  2.2725
23796SOL     OW75843   6.094   9.921   6.231  0.0504 -0.1418  0.9245
23796SOL    HW175844   6.123   9.854   6.169 -2.1209 -0.3885  0.0864
23796SOL    HW275845   6.079   9.873   6.313  2.8461  0.1722  1.7163
23797SOL     OW75846   7.775   0.223   7.158 -0.2495 -0.7289 -0.7857
23797SOL    HW175847   7.688   0.231   7.120 -1.4632 -1.5178  1.6370
23797SOL    HW275848   7.769   0.147   7.217  1.5863  0.1597  0.6676
23798SOL     OW75849  10.654   1.849   2.377  0.5258  0.5139 -0.4406
23798SOL    HW175850  10.734   1.799   2.396 -1.0359 -0.8478  3.5995
23798SOL    HW275851  10.590   1.783   2.351  0.6638  1.6516 -4.2075
23799SOL     OW75852   8.455   5.990   0.407 -0.2919  0.2254 -0.6852
23799SOL    HW175853   8.360   5.994   0.400 -0.3804 -0.5354 -0.1155
23799SOL    HW275854   8.487   6.060   0.351 -1.2552  2.4815  1.4063
23800SOL     OW75855   5.604   8.084   2.731 -0.0641  0.2250  0.4573
23800SOL    HW175856   5.538   8.150   2.710 -0.8156  0.0755  2.1859
23800SOL    HW275857   5.688   8.128   2.718 -0.5468  1.2407  0.7525
23801SOL     OW75858   0.253   2.690   6.239  0.3227 -0.5933 -0.9438
23801SOL    HW175859   0.331   2.635   6.240  1.2794  0.7016 -0.0627
23801SOL    HW275860   0.200   2.658   6.312  2.3812  1.5437  1.7461
23802SOL     OW75861   2.336   6.410   7.671 -0.4858 -0.2864  0.3315
23802SOL    HW175862   2.351   6.414   7.576 -1.1761 -0.7330  0.1933
23802SOL    HW275863   2.246   6.441   7.682 -0.5410 -0.6004  0.7981
23803SOL     OW75864   1.395   2.295   4.539  0.4501  0.2134  0.0463
23803SOL    HW175865   1.394   2.335   4.451 -3.9880 -1.6881 -1.0224
23803SOL    HW275866   1.422   2.205   4.524 -0.2624 -0.1055  0.6239
23804SOL     OW75867  10.988   3.640   8.641 -0.2633 -0.1653 -0.0508
23804SOL    HW175868  10.997   3.637   8.546  0.6824  2.2163 -0.1115
23804SOL    HW275869  11.078   3.645   8.674 -0.6120  0.5183  0.8557
23805SOL     OW75870   1.672   9.938   1.060 -0.1819 -0.5362  0.5149
23805SOL    HW175871   1.748   9.990   1.034 -0.0778 -1.3065 -0.8278
23805SOL    HW275872   1.692   9.850   1.028 -2.2938 -0.4514 -1.3228
23806SOL     OW75873   1.657   7.961   3.614  0.6467 -0.2368 -0.8632
23806SOL    HW175874   1.655   7.878   3.661  1.1623 -1.0026 -2.1252
23806SOL    HW275875   1.745   7.965   3.577  1.6114  2.2215  1.4318
23807SOL     OW75876   5.023   3.114   1.248  0.1890  0.0511 -0.0205
23807SOL    HW175877   5.085   3.041   1.241  1.7475  1.0906  1.8813
23807SOL    HW275878   4.948   3.078   1.295  0.0331 -0.8159 -0.9023
23808SOL     OW75879   6.692   4.886  11.050  0.5209  0.3104  0.1510
23808SOL    HW175880   6.622   4.935  11.092  0.0144  0.0141 -0.3255
23808SOL    HW275881   6.745   4.852  11.122 -0.6440 -0.6454  0.5824
23809SOL     OW75882   1.670  10.545   9.765  0.7667  0.3168 -0.1541
23809SOL    HW175883   1.679  10.624   9.818  1.3038 -0.3933  0.8157
23809SOL    HW275884   1.578  10.546   9.737  0.9075  1.5896 -0.6664
23810SOL     OW75885   8.822   7.887   7.188 -0.1789 -0.7908 -0.1795
23810SOL    HW175886   8.779   7.802   7.190  0.3593 -1.0905 -1.1289
23810SOL    HW275887   8.886   7.883   7.259  0.0396 -1.2833 -0.3991
23811SOL     OW75888   5.178   2.277   2.802 -0.0445  0.2677  0.1782
23811SOL    HW175889   5.149   2.367   2.786  0.5280  0.5315  0.5826
23811SOL    HW275890   5.245   2.261   2.735 -0.3552  0.0348 -0.0803
23812SOL     OW75891   6.069   8.640   9.535 -0.0932 -0.2075  0.5327
23812SOL    HW175892   6.004   8.707   9.555  0.2025 -0.0438  0.9691
23812SOL    HW275893   6.019   8.567   9.500 -0.4263  0.2092  0.1409
23813SOL     OW75894   3.682   3.928   2.019  1.0721  0.1078  0.1954
23813SOL    HW175895   3.653   3.987   1.949 -0.4494  1.6548  1.9955
23813SOL    HW275896   3.625   3.949   2.093  0.8871 -3.2665  1.1645
23814SOL     OW75897   4.697   7.922   2.649  0.3339 -0.0505 -0.0663
23814SOL    HW175898   4.649   7.863   2.708  1.5104  0.6099  1.6540
23814SOL    HW275899   4.780   7.937   2.694  1.8443 -0.4689 -2.5081
23815SOL     OW75900   9.798   0.974   0.290 -0.0293 -0.3015 -0.0626
23815SOL    HW175901   9.848   0.907   0.337  0.2494 -1.1029 -1.4469
23815SOL    HW275902   9.860   1.046   0.277 -0.0448 -0.1665  0.5792
23816SOL     OW75903   2.047   2.551   4.679  0.1998 -0.0156 -0.0283
23816SOL    HW175904   2.034   2.457   4.691 -0.7296  0.0970 -0.0549
23816SOL    HW275905   2.127   2.557   4.627  0.3809 -0.7772  0.1362
23817SOL     OW75906   9.905   2.564  10.447  0.0939 -0.3764 -0.5695
23817SOL    HW175907   9.828   2.507  10.447 -0.6138  0.5183  1.1925
23817SOL    HW275908   9.979   2.505  10.436 -0.7175 -1.4775 -0.2798
23818SOL     OW75909   2.487   2.709   1.071 -0.1549 -0.8875  0.0463
23818SOL    HW175910   2.449   2.696   0.985  1.8925  0.0600 -1.0883
23818SOL    HW275911   2.442   2.786   1.106  0.4819  0.0743 -1.1644
23819SOL     OW75912   6.641   8.453   9.945 -0.4594  0.2623  0.4846
23819SOL    HW175913   6.728   8.492   9.934 -0.3323 -0.4820 -1.7033
23819SOL    HW275914   6.605   8.452   9.857 -1.9525 -1.1616  1.0750
23820SOL     OW75915  10.381   0.396  10.146  0.0667  0.0855  0.0219
23820SOL    HW175916  10.418   0.338  10.080 -0.7286  0.2861 -0.6233
23820SOL    HW275917  10.330   0.338  10.203  1.6430 -0.2460  1.1455
23821SOL     OW75918   4.844   3.656   8.190 -0.5711 -0.1435 -0.2022
23821SOL    HW175919   4.866   3.631   8.280 -1.5603 -0.7518 -0.1125
23821SOL    HW275920   4.923   3.638   8.140 -0.4191 -1.0166  0.3294
23822SOL     OW75921   6.540   0.495   4.409 -0.3579  0.1881 -0.0255
23822SOL    HW175922   6.602   0.437   4.366 -0.9679 -0.6440  0.1972
23822SOL    HW275923   6.505   0.549   4.339  2.3899  2.4255  0.1374
23823SOL     OW75924   1.688   9.209   5.688 -0.3605  0.1218  0.0436
23823SOL    HW175925   1.628   9.146   5.727  0.6977 -0.2524  1.1207
23823SOL    HW275926   1.665   9.293   5.730 -0.3575  0.0483  0.1936
23824SOL     OW75927  10.581   0.824   3.914 -0.1505 -0.5349  0.1534
23824SOL    HW175928  10.652   0.888   3.912 -0.6770  0.0580 -1.1332
23824SOL    HW275929  10.553   0.818   3.823 -1.8424 -0.6490  0.6548
23825SOL     OW75930   7.452   2.074   0.555 -0.2581  0.2955 -0.6611
23825SOL    HW175931   7.403   2.120   0.623  1.1377 -0.8141  1.1848
23825SOL    HW275932   7.508   2.142   0.516 -1.3840  1.0293 -1.0540
23826SOL     OW75933   5.205   8.889   5.399  0.0854 -0.3613  0.0652
23826SOL    HW175934   5.275   8.824   5.402  0.4426  0.0061 -0.2070
23826SOL    HW275935   5.158   8.877   5.481  0.9196 -0.1194  0.5927
23827SOL     OW75936  10.331   2.791   6.495  0.4275  0.3731 -0.0321
23827SOL    HW175937  10.293   2.736   6.563  0.9790 -0.1323 -0.1215
23827SOL    HW275938  10.423   2.801   6.521  0.6703  0.0808 -0.7543
23828SOL     OW75939   9.354   6.147   1.923 -0.0815  0.1391  0.6508
23828SOL    HW175940   9.381   6.076   1.865 -0.3309  0.5371  0.0352
23828SOL    HW275941   9.436   6.190   1.948 -0.0509  0.8194 -0.5342
23829SOL     OW75942   9.276   5.359   4.267 -0.0646  0.0173  0.4498
23829SOL    HW175943   9.262   5.414   4.345 -0.7110 -1.9444  1.7909
23829SOL    HW275944   9.188   5.347   4.231  0.0782 -0.0956  0.1347
23830SOL     OW75945   6.322   2.326   9.945  0.4060 -0.5979  0.1177
23830SOL    HW175946   6.391   2.362   9.889  0.5036 -0.6204  0.2240
23830SOL    HW275947   6.352   2.343  10.034  0.1269 -0.3344  0.1590
23831SOL     OW75948   8.046   0.779   0.579 -0.4228 -0.5235  0.0052
23831SOL    HW175949   8.057   0.745   0.668  0.3191 -1.6016 -0.4772
23831SOL    HW275950   7.952   0.774   0.563 -0.3553 -2.4112 -0.0279
23832SOL     OW75951   7.211   1.203   0.323  0.1457  0.0826 -0.5205
23832SOL    HW175952   7.271   1.141   0.283 -0.0711  0.1350 -0.9262
23832SOL    HW275953   7.258   1.287   0.319  0.8304 -0.1976  0.8610
23833SOL     OW75954   7.460   1.776   1.190  0.2289 -0.6421  0.0755
23833SOL    HW175955   7.523   1.707   1.210 -0.4523 -1.4223 -0.3734
23833SOL    HW275956   7.375   1.733   1.198 -0.2570  0.3975  0.7026
23834SOL     OW75957  10.912   5.618   5.162 -0.5545  0.0130 -0.1108
23834SOL    HW175958  10.903   5.656   5.249 -0.4132  1.1914 -0.5898
23834SOL    HW275959  10.896   5.524   5.174 -0.8916  0.2187  1.1101
23835SOL     OW75960   2.062   3.159   7.810  0.5856 -0.1462  0.0219
23835SOL    HW175961   2.081   3.077   7.855  1.5471  0.9341  1.6886
23835SOL    HW275962   2.012   3.210   7.874  0.3262  0.7109 -0.8485
23836SOL     OW75963   5.765   5.212   1.041 -0.0665  0.0593 -0.2757
23836SOL    HW175964   5.852   5.208   1.001 -0.1202 -2.3574 -0.2521
23836SOL    HW275965   5.772   5.159   1.120 -1.2903  0.7679  0.3439
23837SOL     OW75966   6.344   1.860   5.317 -0.1339 -0.0295 -0.1265
23837SOL    HW175967   6.405   1.796   5.282 -0.6447  0.5685 -2.2670
23837SOL    HW275968   6.258   1.832   5.284 -0.4752  1.2551 -0.4029
23838SOL     OW75969   9.163   5.381   1.903 -0.4626  0.6471  0.0487
23838SOL    HW175970   9.157   5.459   1.958  4.1770 -0.4045  2.5779
23838SOL    HW275971   9.090   5.326   1.930 -0.3072  1.6422  2.7677
23839SOL     OW75972  10.063   5.498   9.564 -0.4443  0.7432  0.1568
23839SOL    HW175973  10.066   5.447   9.645 -0.8661  1.7738  0.8380
23839SOL    HW275974   9.994   5.457   9.512 -0.2387  0.1348  0.3591
23840SOL     OW75975   9.549   1.689   7.509 -0.0162  0.3889  0.2684
23840SOL    HW175976   9.643   1.705   7.505 -0.2987  1.9152 -0.8131
23840SOL    HW275977   9.523   1.673   7.418 -0.8128  0.0166  0.5527
23841SOL     OW75978   7.426   6.602  10.392  0.1536 -0.0259  0.1094
23841SOL    HW175979   7.497   6.543  10.417  0.2439  0.1114  0.1823
23841SOL    HW275980   7.404   6.578  10.302 -1.0833 -1.4385  0.7345
23842SOL     OW75981   6.304   6.414   0.325  0.5582  0.1947  0.0776
23842SOL    HW175982   6.375   6.365   0.366  0.8861 -0.3632 -1.0944
23842SOL    HW275983   6.346   6.494   0.294  0.8296 -0.3807 -1.1039
23843SOL     OW75984   8.315   0.939   2.463  0.1711  0.4603 -0.1996
23843SOL    HW175985   8.283   1.013   2.411  0.6737  0.8887  0.0884
23843SOL    HW275986   8.239   0.882   2.473  0.1310  0.2214 -1.6452
23844SOL     OW75987   4.781  10.201   2.731 -0.3914  0.0307 -0.0921
23844SOL    HW175988   4.697  10.235   2.699  0.0123  1.1762  0.0279
23844SOL    HW275989   4.830  10.279   2.755 -0.7447 -0.7263  3.6023
23845SOL     OW75990  10.438   6.682   8.834 -0.0393  0.4582 -0.7485
23845SOL    HW175991  10.441   6.688   8.929 -1.6790  1.2365 -0.7052
23845SOL    HW275992  10.529   6.693   8.806  0.7893 -1.7264  0.7858
23846SOL     OW75993   9.770   6.468   0.764  0.2246  0.3008  0.0088
23846SOL    HW175994   9.707   6.420   0.817 -0.6721 -0.3059 -1.5430
23846SOL    HW275995   9.854   6.455   0.809 -0.2130 -1.6001  0.3651
23847SOL     OW75996  10.723   6.542   6.549 -0.9550 -0.3733  0.2452
23847SOL    HW175997  10.768   6.594   6.482 -1.6532  1.0848  0.8574
23847SOL    HW275998  10.782   6.468   6.565 -0.5117 -0.4567 -1.5484
23848SOL     OW75999   4.708   5.909   4.856 -0.0164 -0.1180 -0.5362
23848SOL    HW176000   4.730   5.877   4.943 -2.3069 -1.0582 -0.2196
23848SOL    HW276001   4.747   5.845   4.796  3.8190  1.8800 -0.4831
23849SOL     OW76002   2.769   7.966   4.421 -0.6845 -0.2226 -0.4087
23849SOL    HW176003   2.759   8.005   4.335  0.8070  2.9340  0.6961
23849SOL    HW276004   2.715   8.021   4.478  2.0530  0.9037  1.3420
23850SOL     OW76005   6.652   6.681  10.210  0.0049  0.3906 -0.3468
23850SOL    HW176006   6.692   6.594  10.205 -0.7360  0.0731 -0.9148
23850SOL    HW276007   6.635   6.705  10.119  0.1594  1.1064 -0.1875
23851SOL     OW76008   7.679   5.082   8.354  0.4019 -0.2024 -0.0240
23851SOL    HW176009   7.654   5.111   8.266  1.1999  0.4560 -0.0417
23851SOL    HW276010   7.769   5.051   8.343  0.8859  0.8916  0.7828
23852SOL     OW76011  10.414   0.319   8.688  0.6210  0.0674  0.1503
23852SOL    HW176012  10.380   0.248   8.634  1.7424 -0.6344  0.3339
23852SOL    HW276013  10.508   0.319   8.671  0.5904  1.8070 -0.1917
23853SOL     OW76014   4.373   4.219   7.826  0.2748  0.2721  0.0047
23853SOL    HW176015   4.309   4.235   7.896  2.7431 -0.3451  2.5635
23853SOL    HW276016   4.348   4.134   7.791 -0.2319 -0.0468  1.0720
23854SOL     OW76017   7.177   6.291   5.958 -0.1130  0.2462  0.1627
23854SOL    HW176018   7.112   6.252   6.016 -0.3859 -0.0201 -0.3138
23854SOL    HW276019   7.254   6.233   5.966  0.4042  1.0562  1.4059
23855SOL     OW76020   2.571   5.911   8.474 -0.1857 -0.5286  0.2037
23855SOL    HW176021   2.574   5.843   8.406  1.4484  0.3160 -0.6261
23855SOL    HW276022   2.551   5.992   8.426  1.0436  0.0884  0.6734
23856SOL     OW76023   6.930   9.646   5.012 -0.0190 -0.2740 -0.3477
23856SOL    HW176024   6.970   9.635   5.099  1.9402 -0.0130 -1.1552
23856SOL    HW276025   7.004   9.646   4.952 -1.2465  0.5602 -1.9401
23857SOL     OW76026   9.490   5.697   2.667 -0.9832  0.0708  0.1250
23857SOL    HW176027   9.486   5.653   2.752  2.4479 -0.4322  0.1544
23857SOL    HW276028   9.534   5.780   2.684  1.7578 -0.9358 -1.3097
23858SOL     OW76029   2.166   4.783   7.098 -0.1984 -0.1082  0.2410
23858SOL    HW176030   2.155   4.778   7.003 -0.4615 -0.1075  0.2707
23858SOL    HW276031   2.248   4.738   7.115 -0.1403 -0.0918  0.0104
23859SOL     OW76032   5.432   3.582   9.531 -0.3311 -0.2083  0.4318
23859SOL    HW176033   5.512   3.580   9.584  0.7303 -1.6088 -1.1435
23859SOL    HW276034   5.418   3.674   9.512  0.8572  0.0662  0.8198
23860SOL     OW76035   1.590  10.507   1.870 -0.5147 -0.0364 -0.2265
23860SOL    HW176036   1.510  10.548   1.837 -0.7119  1.1204  1.5258
23860SOL    HW276037   1.658  10.573   1.859 -0.8055  0.8312  2.5075
23861SOL     OW76038   7.938   5.789   9.540 -0.2106 -0.4110  0.1121
23861SOL    HW176039   7.926   5.728   9.467  0.8784 -1.5449  0.8196
23861SOL    HW276040   8.032   5.807   9.540 -0.2473 -0.1742  1.0332
23862SOL     OW76041  10.498   9.492   0.684 -0.2476  0.1098  0.1605
23862SOL    HW176042  10.539   9.550   0.620  0.0419 -0.5792 -0.2856
23862SOL    HW276043  10.449   9.551   0.741  0.8297  0.8965  0.3174
23863SOL     OW76044   7.819  10.923   0.172 -0.1987 -0.2910  0.3562
23863SOL    HW176045   7.874  10.917   0.093 -1.2655  1.4054 -0.5631
23863SOL    HW276046   7.864  10.868   0.236  1.5205 -0.5115 -0.9583
23864SOL     OW76047   3.986   6.261  10.226  0.0907  0.2652 -0.8865
23864SOL    HW176048   4.043   6.317  10.279 -0.1786 -0.5000  0.2518
23864SOL    HW276049   3.945   6.321  10.164  1.3886  0.9877 -1.0876
23865SOL     OW76050   1.192  10.795   4.734 -0.5205 -0.0336  0.0672
23865SOL    HW176051   1.250  10.832   4.668  1.3341 -0.0635  1.6055
23865SOL    HW276052   1.142  10.870   4.767 -0.0407  0.3114  0.0101
23866SOL     OW76053   3.253   4.367   3.101  0.5542 -0.2346  0.1129
23866SOL    HW176054   3.291   4.325   3.024  0.8840  0.1573  0.0523
23866SOL    HW276055   3.201   4.439   3.066  0.9158  0.1066  0.2584
23867SOL     OW76056   4.241   0.509  10.508  0.1283 -0.5358 -0.2292
23867SOL    HW176057   4.166   0.564  10.486  0.7835  0.9351  1.0242
23867SOL    HW276058   4.210   0.419  10.498 -1.6485  0.0447 -0.1281
23868SOL     OW76059   2.462   9.153   8.919 -0.2902 -0.1085  0.4795
23868SOL    HW176060   2.368   9.160   8.936 -0.3395 -1.3410  0.8079
23868SOL    HW276061   2.501   9.226   8.968 -1.2878  2.3092 -2.0752
23869SOL     OW76062   5.516   4.059   6.673 -0.6211  0.4837  0.2537
23869SOL    HW176063   5.585   3.994   6.669  0.6103  1.7810 -0.7199
23869SOL    HW276064   5.497   4.081   6.581  0.1110  2.5766  0.5382
23870SOL     OW76065   9.112   5.283   9.470  0.7274  0.3518  0.4384
23870SOL    HW176066   9.048   5.319   9.531 -1.6057 -1.8493 -0.5103
23870SOL    HW276067   9.157   5.214   9.520 -0.5676 -0.8499  0.0277
23871SOL     OW76068   8.841   9.765   5.057  0.3401 -0.1747  0.1148
23871SOL    HW176069   8.854   9.673   5.033  1.7203 -0.0467  0.2817
23871SOL    HW276070   8.924   9.791   5.096 -0.6992  0.5939  1.9216
23872SOL     OW76071  10.068   4.553   1.208  0.3977  0.0477  0.0347
23872SOL    HW176072  10.055   4.559   1.303 -0.3573 -1.8178  0.1042
23872SOL    HW276073  10.160   4.573   1.195  0.4116  0.7668  1.1121
23873SOL     OW76074   7.872   3.615   6.538 -0.0320  0.4869  0.3132
23873SOL    HW176075   7.801   3.670   6.506 -0.8657 -0.7675 -0.0605
23873SOL    HW276076   7.860   3.532   6.493  0.7905 -0.2296  1.3784
23874SOL     OW76077   1.012   7.068   5.534  0.3427  0.5334 -0.3643
23874SOL    HW176078   0.925   7.105   5.524  1.1033  2.1222 -1.7772
23874SOL    HW276079   1.043   7.057   5.444  1.1830 -1.0925  0.0886
23875SOL     OW76080   9.759   2.530   0.274  0.8610 -0.7431  0.2338
23875SOL    HW176081   9.707   2.605   0.243 -1.3632 -1.9207  0.9547
23875SOL    HW276082   9.820   2.513   0.202  2.1682  2.3523  0.4535
23876SOL     OW76083   8.188   8.837   4.827  0.0992 -0.2855  0.2279
23876SOL    HW176084   8.253   8.792   4.881  0.6947  0.1056 -0.1422
23876SOL    HW276085   8.141   8.894   4.887 -0.8713 -1.5965  0.7607
23877SOL     OW76086  10.360   7.879   8.260 -0.1950 -0.7703 -0.0486
23877SOL    HW176087  10.442   7.858   8.214 -0.4680 -1.2221 -0.3303
23877SOL    HW276088  10.326   7.794   8.287  0.6903 -0.4729  2.2867
23878SOL     OW76089   4.146   4.302   4.899 -0.0844  0.1665 -0.5879
23878SOL    HW176090   4.104   4.225   4.861 -0.6462  1.0156 -1.7308
23878SOL    HW276091   4.144   4.285   4.994  2.2595 -2.4527 -0.8693
23879SOL     OW76092   5.466   7.612   2.686  0.2540  0.1252  0.6679
23879SOL    HW176093   5.517   7.652   2.616 -0.5188  0.7622  0.4507
23879SOL    HW276094   5.432   7.530   2.647 -0.7894  0.8380  0.0177
23880SOL     OW76095  10.983   4.116   1.877 -0.3629  0.3838  0.2008
23880SOL    HW176096  10.913   4.082   1.821 -2.3949  1.7507  1.7618
23880SOL    HW276097  10.964   4.209   1.886  0.4416  0.4018  2.3089
23881SOL     OW76098   6.208  10.763   1.629 -0.1244 -0.4059  0.0701
23881SOL    HW176099   6.150  10.792   1.699  1.6472  0.2733  1.3205
23881SOL    HW276100   6.295  10.765   1.668  0.7344 -1.6451 -1.6619
23882SOL     OW76101   3.325   2.293   4.959 -0.2320  0.0205 -0.1019
23882SOL    HW176102   3.372   2.285   5.042  0.2379 -0.1269 -0.3819
23882SOL    HW276103   3.346   2.213   4.912 -0.5978  0.0493 -0.3152
23883SOL     OW76104  10.557   8.022   6.707  0.4229  0.3940 -0.5346
23883SOL    HW176105  10.610   8.082   6.654 -0.2829  0.9531 -0.6380
23883SOL    HW276106  10.529   7.954   6.645  1.2933 -0.1010 -0.3988
23884SOL     OW76107   2.872   7.791   1.882 -0.2468  0.3305 -0.5607
23884SOL    HW176108   2.852   7.698   1.894 -0.9286  0.4672 -0.5701
23884SOL    HW276109   2.873   7.827   1.970 -1.1589  0.5385 -0.6296
23885SOL     OW76110   0.757   1.957   0.211  0.1326 -0.5763 -0.5824
23885SOL    HW176111   0.662   1.965   0.218  0.0120 -1.9475 -0.3062
23885SOL    HW276112   0.772   1.863   0.199  1.4483 -0.3680 -0.7040
23886SOL     OW76113   8.451   0.976   5.083  0.1857 -0.1095  0.2807
23886SOL    HW176114   8.407   1.051   5.043 -0.8905 -1.0332 -0.3253
23886SOL    HW276115   8.419   0.975   5.173 -0.7545 -0.5493 -0.0517
23887SOL     OW76116   1.102   6.214   7.532  0.1476  0.6121  0.1412
23887SOL    HW176117   1.094   6.118   7.526  2.3644  0.3604  0.2608
23887SOL    HW276118   1.039   6.239   7.600 -1.0035 -0.6505 -0.4066
23888SOL     OW76119   4.655   7.560   9.950  0.0741 -0.4198  0.5462
23888SOL    HW176120   4.566   7.568   9.915  0.4027 -0.7707 -0.4002
23888SOL    HW276121   4.681   7.650   9.971 -0.8160 -0.4043  1.6485
23889SOL     OW76122   5.418   7.841   7.600  0.3054  0.8890  0.3617
23889SOL    HW176123   5.355   7.913   7.597  0.6453  1.1624 -0.3477
23889SOL    HW276124   5.453   7.835   7.511 -0.8491 -1.1912 -0.0224
23890SOL     OW76125   9.735   6.435   9.632  0.2393  0.5128  0.0775
23890SOL    HW176126   9.798   6.398   9.570  0.6093 -0.0499  0.7769
23890SOL    HW276127   9.787   6.456   9.710 -0.6431 -1.3532  1.2323
23891SOL     OW76128   7.943   3.520   9.598 -0.0733 -0.3740 -0.4713
23891SOL    HW176129   7.914   3.573   9.523  1.3490 -0.0437 -0.8132
23891SOL    HW276130   7.991   3.581   9.654 -0.9145 -0.6689  0.6221
23892SOL     OW76131   7.679   9.636   0.773 -0.4708 -0.6719 -0.2726
23892SOL    HW176132   7.606   9.634   0.834  0.1920  0.0556  0.5598
23892SOL    HW276133   7.689   9.728   0.750  0.6469 -0.6610  0.2025
23893SOL     OW76134   3.684   5.090   9.313  0.0052  0.3784  0.5249
23893SOL    HW176135   3.589   5.086   9.325 -0.5948 -0.1543 -3.1942
23893SOL    HW276136   3.705   5.183   9.319 -0.8587  0.5682  0.7251
23894SOL     OW76137   3.301   3.245   3.058  0.6641 -0.7856  0.0806
23894SOL    HW176138   3.296   3.254   3.153  1.8584  1.1327  0.0221
23894SOL    HW276139   3.289   3.334   3.025  2.2870 -1.0730 -1.4291
23895SOL     OW76140   2.934   6.601   1.731  0.0065 -0.2607  0.2257
23895SOL    HW176141   2.893   6.516   1.751 -0.6233 -0.6478 -2.3595
23895SOL    HW276142   2.862   6.664   1.737  0.5470  0.2428  2.5183
23896SOL     OW76143  10.754   9.923   3.578  0.0565 -0.2747 -0.3838
23896SOL    HW176144  10.739  10.008   3.620 -0.1104  0.8084 -2.4795
23896SOL    HW276145  10.849   9.918   3.567  0.0445 -0.2237 -0.5111
23897SOL     OW76146  11.010  10.317   6.172 -0.1652 -0.1959 -0.1413
23897SOL    HW176147  10.951  10.287   6.103  1.4292 -0.6067 -1.3940
23897SOL    HW276148  11.083  10.357   6.125  0.9495 -0.4409  1.3099
23898SOL     OW76149   6.782   2.472   7.717  0.0971 -0.3467  0.5332
23898SOL    HW176150   6.849   2.520   7.668  0.9557 -1.7052  0.3399
23898SOL    HW276151   6.779   2.516   7.802  1.6932 -0.6480  0.7681
23899SOL     OW76152   8.129   1.479   2.886  0.0156 -0.2139 -0.0752
23899SOL    HW176153   8.163   1.567   2.867 -0.2363  0.9857  3.9543
23899SOL    HW276154   8.037   1.494   2.908 -0.7398 -1.9689 -1.8073
23900SOL     OW76155   6.731   8.875   4.336  0.2232  0.6055  0.3309
23900SOL    HW176156   6.705   8.883   4.428 -0.8412  0.4908  0.0448
23900SOL    HW276157   6.663   8.820   4.296  1.5115 -0.6826 -0.1867
23901SOL     OW76158   1.968   6.770   6.418 -0.0064  0.1600 -0.3949
23901SOL    HW176159   1.929   6.822   6.488 -1.1468 -0.3319 -0.6497
23901SOL    HW276160   2.045   6.730   6.458 -1.1371 -0.8374  0.8662
23902SOL     OW76161   1.781   2.490   2.595 -0.0459 -0.2229  0.0013
23902SOL    HW176162   1.716   2.532   2.652  1.8689 -0.0164  2.1758
23902SOL    HW276163   1.796   2.405   2.635  1.2547 -0.1374 -0.2792
23903SOL     OW76164  10.301   3.252   4.162 -0.3413 -0.4383  0.3660
23903SOL    HW176165  10.386   3.216   4.135  0.1258 -0.3869  1.6869
23903SOL    HW276166  10.271   3.192   4.230 -1.0691 -0.0872  0.3544
23904SOL     OW76167   4.656   9.813   7.748 -0.3590  0.1313 -0.4675
23904SOL    HW176168   4.731   9.754   7.742 -0.1491  0.2886  0.4307
23904SOL    HW276169   4.623   9.801   7.837  0.4035  2.2224  0.1615
23905SOL     OW76170   9.065   4.918   6.930  0.0572 -0.0432  0.0439
23905SOL    HW176171   9.092   5.010   6.934  1.6965 -0.4414 -0.6814
23905SOL    HW276172   9.147   4.870   6.918 -0.7982 -1.5847  0.0859
23906SOL     OW76173   6.043   7.842   0.046 -0.4543 -0.7361  0.1136
23906SOL    HW176174   6.122   7.881   0.082 -0.9598 -0.0600  0.5128
23906SOL    HW276175   6.028   7.888  -0.036 -0.7200 -0.5002  0.2927
23907SOL     OW76176   2.702   6.103   7.103 -0.1948 -0.0283 -0.1452
23907SOL    HW176177   2.615   6.080   7.136 -0.5951  1.0101 -0.4558
23907SOL    HW276178   2.761   6.039   7.145 -0.6236  1.3098  2.7831
23908SOL     OW76179   6.958   0.202  10.660  0.1205  0.1861  0.0398
23908SOL    HW176180   6.885   0.231  10.605 -0.2597  2.1594  1.4836
23908SOL    HW276181   6.932   0.226  10.748  0.6460 -3.0165  1.2141
23909SOL     OW76182   1.138   1.655   9.520 -0.5199  0.7521  0.7126
23909SOL    HW176183   1.064   1.684   9.573 -1.0445 -0.0606  0.4420
23909SOL    HW276184   1.149   1.562   9.543 -1.3174  0.1288 -1.2145
23910SOL     OW76185   4.562  10.861   4.956  0.5891  0.2215 -0.3002
23910SOL    HW176186   4.593  10.781   4.915 -1.3147 -1.1981  0.8482
23910SOL    HW276187   4.587  10.853   5.048  0.6380  1.0882 -0.2229
23911SOL     OW76188   5.048   1.654   6.607  0.2788 -0.7814 -0.6630
23911SOL    HW176189   5.112   1.722   6.590 -0.3848 -0.6328 -2.9862
23911SOL    HW276190   4.989   1.691   6.672  0.7977  0.2707 -0.7792
23912SOL     OW76191   6.765   4.559   8.192 -0.5874  0.0620  0.4948
23912SOL    HW176192   6.796   4.645   8.218  0.0460 -0.4330  1.4067
23912SOL    HW276193   6.842   4.503   8.198 -0.9113 -0.5148 -0.4182
23913SOL     OW76194  10.865   6.263  10.031  0.0290 -0.0604  0.8283
23913SOL    HW176195  10.823   6.334  10.080 -0.0096 -0.5343  1.4978
23913SOL    HW276196  10.959   6.276  10.046  0.0451  0.0809  0.6164
23914SOL     OW76197   6.904   9.387   2.205 -0.2325 -1.0225  0.3630
23914SOL    HW176198   6.847   9.339   2.265 -0.1960 -1.4231  0.0814
23914SOL    HW276199   6.918   9.472   2.248  1.8930 -2.2010  2.1982
23915SOL     OW76200   6.032   3.655   8.221 -0.1484 -0.0063  0.2176
23915SOL    HW176201   6.010   3.678   8.312 -0.7231 -1.2954  0.4253
23915SOL    HW276202   6.126   3.639   8.223 -0.0068  0.7796  0.3917
23916SOL     OW76203   8.452   6.578   2.813 -0.2638 -0.4303  0.4810
23916SOL    HW176204   8.425   6.602   2.901  0.5129 -3.5002  1.6762
23916SOL    HW276205   8.373   6.546   2.771 -0.0788 -1.8877  1.1934
23917SOL     OW76206   4.368  10.547   6.697  0.7556  0.1930  0.6728
23917SOL    HW176207   4.369  10.642   6.687  0.4827  0.3094  1.6339
23917SOL    HW276208   4.295  10.518   6.642  0.4729  0.5974  0.8299
23918SOL     OW76209   2.630   9.199   2.720  0.5996 -0.4169  0.4148
23918SOL    HW176210   2.625   9.126   2.660 -0.1661 -0.8030  0.9371
23918SOL    HW276211   2.723   9.221   2.724  0.7506 -0.9270 -0.2466
23919SOL     OW76212   2.094   0.036   0.173  0.3834 -0.3383  0.8244
23919SOL    HW176213   2.161   0.037   0.105 -0.6400 -1.4265 -0.2445
23919SOL    HW276214   2.047   0.119   0.162  0.7289 -0.1563  0.7271
23920SOL     OW76215   5.806  10.198   1.916 -0.5013  0.4150 -0.0684
23920SOL    HW176216   5.821  10.253   1.992  0.9588  0.7143 -0.5361
23920SOL    HW276217   5.788  10.111   1.952 -1.8092  0.9685  0.6453
23921SOL     OW76218   0.983   3.246   7.811 -0.1072  0.6002  0.8500
23921SOL    HW176219   1.003   3.338   7.797 -2.3431  0.9553 -0.5809
23921SOL    HW276220   1.055   3.199   7.768 -1.0565  1.7513 -2.2568
23922SOL     OW76221   8.119   8.549   3.663 -0.2858  0.9103  0.1831
23922SOL    HW176222   8.076   8.471   3.699  1.3647  0.9629  2.4765
23922SOL    HW276223   8.198   8.515   3.621 -0.9626  1.1168 -1.3212
23923SOL     OW76224   7.338   8.826  10.067 -0.0066  0.2553 -0.4729
23923SOL    HW176225   7.348   8.909  10.112 -1.8478  0.8096 -0.9736
23923SOL    HW276226   7.384   8.762  10.121  1.1149  1.5263  0.1115
23924SOL     OW76227   0.788   3.443   2.600 -0.2099 -1.0298 -0.5839
23924SOL    HW176228   0.881   3.421   2.609 -0.6139 -2.9362 -0.7548
23924SOL    HW276229   0.773   3.441   2.505 -0.4812 -0.9553 -0.5417
23925SOL     OW76230   2.677   2.897   8.480 -0.4003  0.4110 -0.1397
23925SOL    HW176231   2.727   2.902   8.561  0.5492  1.5218 -0.7686
23925SOL    HW276232   2.623   2.818   8.490  1.4631 -0.8473  0.5672
23926SOL     OW76233  10.288   4.673   3.729 -0.2655 -0.1911  0.0576
23926SOL    HW176234  10.285   4.765   3.703  0.0203 -0.2938 -0.3476
23926SOL    HW276235  10.300   4.625   3.647 -0.9948 -0.6306  0.1961
23927SOL     OW76236  10.542   1.504   7.326 -0.3786  0.3472  0.1735
23927SOL    HW176237  10.499   1.587   7.348  0.5500  0.7527  0.5117
23927SOL    HW276238  10.492   1.438   7.373 -0.3150  0.8627  0.9918
23928SOL     OW76239   5.864   4.226   0.667  0.8163  0.1555 -0.0206
23928SOL    HW176240   5.853   4.320   0.651 -1.0991  0.1781  1.0975
23928SOL    HW276241   5.878   4.188   0.580 -1.7795  1.1174 -0.9572
23929SOL     OW76242   3.768   2.640   1.836 -0.1768 -0.2328 -0.2296
23929SOL    HW176243   3.791   2.710   1.775  1.4422 -1.0662 -0.6433
23929SOL    HW276244   3.852   2.601   1.860 -1.0083 -1.7914  0.2683
23930SOL     OW76245   5.455   4.763  10.610 -0.3143 -0.5866 -0.3939
23930SOL    HW176246   5.418   4.706  10.677  0.8994  0.4863  1.2722
23930SOL    HW276247   5.478   4.843  10.657 -1.3711  1.0715 -2.5172
23931SOL     OW76248   2.332   9.048   1.584 -0.3826 -0.1489  0.0695
23931SOL    HW176249   2.239   9.066   1.569  0.5028  2.7548 -3.4735
23931SOL    HW276250   2.352   8.976   1.524 -0.0287  0.4662 -0.5641
23932SOL     OW76251   2.183   1.740   6.342 -0.6608  0.5069 -0.1767
23932SOL    HW176252   2.215   1.683   6.272 -0.4381 -1.2460  1.2895
23932SOL    HW276253   2.262   1.771   6.386 -0.8407 -0.6385  0.9933
23933SOL     OW76254   9.744   3.910   4.192  0.1546 -0.1716  0.7544
23933SOL    HW176255   9.736   3.951   4.106  1.2966  0.8327  1.0984
23933SOL    HW276256   9.711   3.821   4.179 -0.4754  0.2158 -0.5085
23934SOL     OW76257   9.094   6.496   0.388  0.2533 -0.0799  0.2461
23934SOL    HW176258   9.006   6.466   0.409  0.3447  1.0305  2.4965
23934SOL    HW276259   9.094   6.589   0.410  2.0497 -0.1139  0.5768
23935SOL     OW76260   4.458   0.897   6.212  0.4768  0.1909 -0.2773
23935SOL    HW176261   4.371   0.896   6.172  0.7117 -0.2284 -0.7940
23935SOL    HW276262   4.445   0.937   6.298 -0.1072  0.7584 -0.6234
23936SOL     OW76263   5.559   2.562   9.645 -0.2886 -0.5611 -0.4405
23936SOL    HW176264   5.609   2.640   9.621 -1.7365  1.1370  1.6911
23936SOL    HW276265   5.471   2.579   9.609 -0.5293 -1.4007 -0.2675
23937SOL     OW76266  10.550  10.467   0.624 -0.1119 -0.0354 -0.6594
23937SOL    HW176267  10.586  10.395   0.573  0.3416 -0.5443  0.3502
23937SOL    HW276268  10.462  10.481   0.588 -0.3686 -1.3705 -0.6020
23938SOL     OW76269   3.332   2.778   1.365 -0.4558 -0.1445 -0.1416
23938SOL    HW176270   3.384   2.706   1.330 -1.2551 -1.0017  0.3861
23938SOL    HW276271   3.242   2.745   1.366 -0.8104  0.7891  0.2879
23939SOL     OW76272   8.387   8.173  10.185 -0.1706 -0.0171 -0.3961
23939SOL    HW176273   8.463   8.132  10.226 -0.5004 -0.1847  0.0667
23939SOL    HW276274   8.378   8.131  10.100  0.9754  0.8590 -0.9801
23940SOL     OW76275   5.792  10.136   7.303 -0.7011 -0.4145  0.5907
23940SOL    HW176276   5.876  10.182   7.306  0.8061 -3.0211  0.8665
23940SOL    HW276277   5.771  10.132   7.210 -1.2785  1.3993  0.5893
23941SOL     OW76278   4.062   7.507   3.952 -0.4539  0.1516 -0.1681
23941SOL    HW176279   4.098   7.480   3.868 -0.4322 -0.5595  0.0596
23941SOL    HW276280   3.987   7.562   3.931 -0.7296 -0.4015 -0.6560
23942SOL     OW76281   9.364   2.724   3.758  0.1250  0.2743  0.3453
23942SOL    HW176282   9.313   2.785   3.811 -1.7213  0.2182 -1.2380
23942SOL    HW276283   9.305   2.650   3.744  1.2892 -0.5808 -0.1314
23943SOL     OW76284  10.079   2.770   9.058 -0.3074 -0.0033  0.0054
23943SOL    HW176285   9.993   2.729   9.052 -0.2967  0.0129 -0.3024
23943SOL    HW276286  10.101   2.767   9.151 -0.7474  0.2084  0.1229
23944SOL     OW76287   8.216   9.979   3.174  0.3257  0.0920  0.1516
23944SOL    HW176288   8.210  10.048   3.240  0.9427 -0.2290  0.5587
23944SOL    HW276289   8.187  10.020   3.093  3.0150  1.5843 -0.1758
23945SOL     OW76290   3.759   9.674   8.269 -0.3959  0.2385 -0.6483
23945SOL    HW176291   3.684   9.645   8.219 -1.7491 -0.0821  1.4410
23945SOL    HW276292   3.745   9.768   8.282  0.9443  0.7274 -2.4237
23946SOL     OW76293   7.839   6.823   9.348  0.3887  0.0578  0.3310
23946SOL    HW176294   7.916   6.767   9.358  1.2319  1.0385 -0.3450
23946SOL    HW276295   7.875   6.906   9.314 -0.5104  1.7518  3.1832
23947SOL     OW76296   4.642   5.979   8.953 -0.0051 -0.0839 -0.0256
23947SOL    HW176297   4.611   6.009   9.039  1.3845  1.0576  0.1049
23947SOL    HW276298   4.583   6.019   8.890  1.2256  2.2375  0.2088
23948SOL     OW76299  11.043   8.305   1.429 -0.6762  0.2537 -0.0995
23948SOL    HW176300  10.949   8.288   1.430 -0.7907  0.5632 -1.9380
23948SOL    HW276301  11.072   8.274   1.343  1.0409 -0.5033  0.7120
23949SOL     OW76302   9.930   0.336  10.705 -0.4439 -0.0947  0.0231
23949SOL    HW176303   9.913   0.265  10.643  0.0503  0.2636 -0.5314
23949SOL    HW276304   9.856   0.396  10.694  0.7204  1.0969 -1.8624
23950SOL     OW76305   7.911  10.472   3.255 -0.0383 -0.3879 -0.0133
23950SOL    HW176306   7.896  10.448   3.347  1.6589 -0.6096  0.2352
23950SOL    HW276307   7.825  10.466   3.215 -0.8733 -0.0699  1.6102
23951SOL     OW76308   0.299  10.180   4.938 -0.3583  0.4069 -0.5885
23951SOL    HW176309   0.214  10.139   4.922 -1.2506  2.1181 -0.4411
23951SOL    HW276310   0.346  10.117   4.993 -0.9286 -1.2364 -1.9097
23952SOL     OW76311   2.667   2.331  10.816  0.1797  0.1558  0.3072
23952SOL    HW176312   2.703   2.366  10.898  0.4425  0.2035  0.1735
23952SOL    HW276313   2.642   2.409  10.766 -2.4545  0.1197  1.4004
23953SOL     OW76314   0.688   7.157   4.932  0.1707 -0.0482  0.0676
23953SOL    HW176315   0.627   7.207   4.986  2.2536  1.4398  1.2175
23953SOL    HW276316   0.771   7.205   4.940  1.3926 -1.7096 -1.7590
23954SOL     OW76317   2.574   1.151  10.950  0.7845 -0.0600  0.1602
23954SOL    HW176318   2.615   1.179  11.032  1.2947  1.6426 -0.6273
23954SOL    HW276319   2.610   1.210  10.884  1.8116 -2.5195 -1.6621
23955SOL     OW76320   2.560   4.601  10.305 -0.5802  0.4762 -0.3426
23955SOL    HW176321   2.591   4.544  10.376 -1.7995 -0.1924 -0.3287
23955SOL    HW276322   2.597   4.563  10.226 -1.0659 -0.0983 -0.2918
23956SOL     OW76323   0.821   7.474   4.826  0.5283  0.0724  0.2829
23956SOL    HW176324   0.816   7.516   4.911 -2.8724 -1.0890  0.8131
23956SOL    HW276325   0.840   7.382   4.845  0.9887  0.0308 -0.3269
23957SOL     OW76326  10.272   4.787   6.821 -0.3614 -0.4859 -0.7380
23957SOL    HW176327  10.269   4.817   6.912 -0.7256  1.9987 -1.4933
23957SOL    HW276328  10.193   4.824   6.781  0.5657 -0.2134 -2.4220
23958SOL     OW76329   7.491   2.508   7.084 -0.2691 -0.2481  0.0299
23958SOL    HW176330   7.581   2.540   7.094 -0.1940 -0.2675 -0.5659
23958SOL    HW276331   7.451   2.522   7.170  0.2408 -0.0482  0.2398
23959SOL     OW76332   4.468   8.979   1.083 -0.0336  0.8116  0.3702
23959SOL    HW176333   4.433   9.010   1.166 -1.0593  1.6391 -0.3522
23959SOL    HW276334   4.563   8.989   1.092  0.0000 -0.6317  2.0189
23960SOL     OW76335   7.288   9.641   0.819  0.2286 -0.1743 -0.3661
23960SOL    HW176336   7.349   9.595   0.876 -0.3707 -0.4598  0.0540
23960SOL    HW276337   7.322   9.730   0.815  0.5977 -0.2971 -0.0301
23961SOL     OW76338  10.178   0.365   2.494  0.3904 -0.2551 -0.1175
23961SOL    HW176339  10.122   0.441   2.483 -0.1603 -0.7370 -0.7048
23961SOL    HW276340  10.183   0.353   2.589  1.1937  1.0179  0.0132
23962SOL     OW76341   3.386   5.924   5.365 -0.0304  0.2541  1.1563
23962SOL    HW176342   3.404   5.947   5.456  0.1273  0.2027  1.1387
23962SOL    HW276343   3.465   5.950   5.317 -0.4501  1.0673  0.8969
23963SOL     OW76344   4.877   5.774   4.699 -0.0189 -0.1733  0.0124
23963SOL    HW176345   4.943   5.717   4.740 -1.2505 -2.2819 -0.7770
23963SOL    HW276346   4.835   5.718   4.634 -0.5168  2.0432 -1.6780
23964SOL     OW76347   3.620   9.092   2.351  0.1345  0.3775  0.0802
23964SOL    HW176348   3.710   9.118   2.371  0.4552 -0.4950 -0.1803
23964SOL    HW276349   3.579   9.171   2.316  0.6439  0.9257  0.6956
23965SOL     OW76350   3.340   5.944  11.024 -0.2737  0.1394 -0.0698
23965SOL    HW176351   3.274   5.923  10.958 -1.3221 -1.2371  1.3526
23965SOL    HW276352   3.328   6.037  11.041 -1.6176 -0.0210 -0.0946
23966SOL     OW76353  10.391   0.687   8.775  0.0301  0.0745 -0.0268
23966SOL    HW176354  10.448   0.764   8.776  0.1587 -0.0150 -0.4812
23966SOL    HW276355  10.422   0.634   8.702  0.7717 -1.0381  1.0499
23967SOL     OW76356   6.854   2.880   6.461 -0.3237  0.1847 -0.1536
23967SOL    HW176357   6.775   2.827   6.475 -0.0525  0.3037  2.0730
23967SOL    HW276358   6.925   2.830   6.499  0.4325  0.8256 -0.6763
23968SOL     OW76359   6.088   4.259   2.335 -0.0036  0.0275 -0.1614
23968SOL    HW176360   6.093   4.342   2.383  0.1499 -0.3610  0.4932
23968SOL    HW276361   6.009   4.216   2.367 -0.8355  0.5098 -1.4785
23969SOL     OW76362   9.839   2.757  11.044  0.8752 -0.2288  0.0005
23969SOL    HW176363   9.933   2.751  11.025  0.9780 -0.5112  0.5856
23969SOL    HW276364   9.833   2.822  11.114  0.4591  1.1419 -1.2662
23970SOL     OW76365   4.644   6.819   5.655  0.3796 -0.0100  0.2611
23970SOL    HW176366   4.684   6.894   5.612 -0.3125 -0.6140 -1.5583
23970SOL    HW276367   4.567   6.855   5.699  0.5777  0.4859  0.2076
23971SOL     OW76368   1.297   1.343   0.964  0.6113  0.0987 -0.6527
23971SOL    HW176369   1.294   1.256   0.923  0.6715  0.0860 -0.6299
23971SOL    HW276370   1.244   1.398   0.907  0.4435  0.0111 -0.5834
23972SOL     OW76371   4.726   2.386   7.149 -0.1673 -0.2266  0.2226
23972SOL    HW176372   4.688   2.331   7.080  0.1388 -0.0096 -0.1222
23972SOL    HW276373   4.701   2.342   7.230 -0.4179 -0.5612 -0.0292
23973SOL     OW76374   9.729  10.468   4.708 -0.2489 -0.3180  0.3451
23973SOL    HW176375   9.814  10.512   4.710  0.6588 -1.9224 -1.0056
23973SOL    HW276376   9.704  10.463   4.800  1.7717 -0.9730  0.9271
23974SOL     OW76377   1.536  10.566   8.429  0.3245  0.7133 -0.6787
23974SOL    HW176378   1.474  10.506   8.388 -0.8897  1.3021  0.2477
23974SOL    HW276379   1.548  10.531   8.518  0.2550  1.3610 -0.4077
23975SOL     OW76380   7.290   5.857   1.030  0.1921 -0.0654 -0.8929
23975SOL    HW176381   7.234   5.810   1.092  1.0464 -0.8198 -0.6644
23975SOL    HW276382   7.302   5.796   0.958  1.7588 -0.4459 -0.3458
23976SOL     OW76383   7.145   1.526   8.553  0.6626 -0.2437  0.2876
23976SOL    HW176384   7.136   1.618   8.579  0.2021  0.8124 -3.0321
23976SOL    HW276385   7.101   1.521   8.468  1.4269 -3.3664 -0.0555
23977SOL     OW76386   3.989  10.385   1.200 -0.6599  0.2115 -0.0475
23977SOL    HW176387   4.071  10.408   1.242  0.0706  1.2824 -1.9227
23977SOL    HW276388   3.944  10.468   1.187 -0.2486  0.1227 -2.4680
23978SOL     OW76389   6.482   2.132   4.470  0.3779 -0.5315  0.2200
23978SOL    HW176390   6.512   2.088   4.550 -0.5678  0.4467  1.1236
23978SOL    HW276391   6.437   2.063   4.421 -2.3374 -0.3755  2.2692
23979SOL     OW76392   7.669   2.890   3.880  0.2259 -0.2250 -0.5928
23979SOL    HW176393   7.673   2.814   3.937  0.5651  0.9131  0.9573
23979SOL    HW276394   7.760   2.918   3.870 -0.0621  1.4178  0.9123
23980SOL     OW76395   2.863  10.977   5.618 -0.0103  0.1036 -0.0917
23980SOL    HW176396   2.783  11.027   5.602  0.4249 -0.1653 -4.1102
23980SOL    HW276397   2.838  10.886   5.603  1.3892  0.2005 -4.2934
23981SOL     OW76398   0.642   6.443   2.200 -0.3033  0.4126  0.5793
23981SOL    HW176399   0.717   6.391   2.172 -1.0553  1.1693 -3.3661
23981SOL    HW276400   0.569   6.381   2.203 -0.1787  0.2850  1.2917
23982SOL     OW76401   1.221   5.280   4.927 -0.4678  0.0408  0.2109
23982SOL    HW176402   1.207   5.188   4.950  0.5234  0.1777  1.4816
23982SOL    HW276403   1.158   5.297   4.857 -0.2008 -1.7986 -0.5455
23983SOL     OW76404   0.785   0.368   2.446 -0.2987 -0.5013  0.5123
23983SOL    HW176405   0.816   0.383   2.535 -0.0670  1.4900  0.1387
23983SOL    HW276406   0.840   0.297   2.413  2.1077  1.1059  0.7993
23984SOL     OW76407   7.133  10.123   9.141 -0.6303  0.2528  0.7501
23984SOL    HW176408   7.107  10.176   9.065  1.6564  1.3941  0.6880
23984SOL    HW276409   7.161  10.187   9.206  0.2933 -0.8156  1.4437
23985SOL     OW76410   8.153   0.396   0.711  0.8646 -0.3903 -0.0806
23985SOL    HW176411   8.118   0.329   0.770  0.5997 -0.4063 -0.2576
23985SOL    HW276412   8.113   0.477   0.741  0.9316 -0.3586 -0.0760
23986SOL     OW76413   6.553   3.272   6.314 -0.7746 -0.0314 -0.1854
23986SOL    HW176414   6.522   3.200   6.260 -0.5125 -0.5345  0.3313
23986SOL    HW276415   6.614   3.320   6.258 -0.0500 -0.8939 -0.1451
23987SOL     OW76416   4.235   1.174   9.045  0.0518 -0.2223 -0.0521
23987SOL    HW176417   4.319   1.128   9.054  0.8018  1.3746  1.7585
23987SOL    HW276418   4.203   1.147   8.959  1.7801 -1.9008 -0.2481
23988SOL     OW76419   9.150   6.865   7.206  0.7516  0.0584  0.0252
23988SOL    HW176420   9.098   6.864   7.286  1.6101  1.3393  0.6415
23988SOL    HW276421   9.111   6.934   7.153  0.5935 -0.3369 -0.3762
23989SOL     OW76422   2.567   6.961   4.510  0.1187  0.0495  0.5194
23989SOL    HW176423   2.605   6.929   4.592 -0.5174  1.9324  1.6194
23989SOL    HW276424   2.585   7.055   4.511 -1.1707  0.3466 -0.8090
23990SOL     OW76425   2.271   0.283   7.019  0.1588 -0.0861 -0.2990
23990SOL    HW176426   2.290   0.295   6.926 -0.1827 -1.7764 -0.6207
23990SOL    HW276427   2.177   0.298   7.027  0.5081  2.2396  0.2121
23991SOL     OW76428   8.709   5.733   7.638  0.5982  0.0803  0.7119
23991SOL    HW176429   8.683   5.642   7.649 -0.7918  0.3578 -0.0899
23991SOL    HW276430   8.767   5.751   7.713  1.4138 -1.6240  0.5318
23992SOL     OW76431   8.470   7.174   6.924  0.1851  0.0750  0.0636
23992SOL    HW176432   8.411   7.153   6.997  2.0380 -0.3896  1.4907
23992SOL    HW276433   8.411   7.195   6.851 -1.7479  1.0515  1.8077
23993SOL     OW76434   1.621   3.764   8.446  0.2258  0.2035 -0.5426
23993SOL    HW176435   1.532   3.787   8.420 -0.3087  0.6012  1.4572
23993SOL    HW276436   1.627   3.670   8.432 -0.4499  0.2025 -0.8619
23994SOL     OW76437   6.932   2.292   6.310  0.0336 -0.4200  0.3915
23994SOL    HW176438   6.947   2.273   6.402 -1.8014  0.1356  0.8330
23994SOL    HW276439   6.934   2.387   6.304 -1.4051 -0.3821  0.1736
23995SOL     OW76440   3.515   8.837   4.311  0.1418  0.5324 -0.1321
23995SOL    HW176441   3.535   8.788   4.231  0.4450 -1.2794  0.9909
23995SOL    HW276442   3.599   8.871   4.340 -0.0814  1.9018 -0.9615
23996SOL     OW76443   3.154   9.403   3.253 -0.0235 -0.0080  0.1113
23996SOL    HW176444   3.105   9.442   3.180  0.2388  2.5352  1.1921
23996SOL    HW276445   3.087   9.381   3.318 -0.0055  0.7726  0.4056
23997SOL     OW76446  10.241   1.916   9.803 -0.6390 -0.2602 -0.2037
23997SOL    HW176447  10.174   1.857   9.765 -1.8428  0.4073  0.8113
23997SOL    HW276448  10.261   1.877   9.888  0.5276 -0.6165 -0.6189
23998SOL     OW76449   8.237   0.113   2.426  0.3356 -0.2926 -0.2278
23998SOL    HW176450   8.246   0.208   2.431 -0.8198 -0.1535 -0.5885
23998SOL    HW276451   8.248   0.093   2.333 -1.5873 -0.2433 -0.5110
23999SOL     OW76452  10.239   5.022   1.756  0.1381  0.0362 -0.1216
23999SOL    HW176453  10.191   5.105   1.756 -0.1313 -0.1065  0.8185
23999SOL    HW276454  10.257   5.005   1.848  1.6051 -0.1509 -0.4118
24000SOL     OW76455   7.178   4.928   7.041  0.2216  0.4112  0.0993
24000SOL    HW176456   7.130   4.859   6.995 -1.1789 -0.4576  2.6674
24000SOL    HW276457   7.265   4.893   7.054  0.7248  0.7598 -1.9481
24001SOL     OW76458   9.073   2.937   2.133  0.2071  0.1228  0.0788
24001SOL    HW176459   9.107   2.850   2.112  1.8155  0.8200 -0.3659
24001SOL    HW276460   8.979   2.930   2.120  0.6361 -0.6184 -3.5126
24002SOL     OW76461   8.682   7.104   0.970 -0.2454  0.1409  0.1756
24002SOL    HW176462   8.767   7.065   0.990 -0.3405  1.0661  2.8309
24002SOL    HW276463   8.694   7.197   0.985 -1.8543  0.2245  1.2733
24003SOL     OW76464   7.295  10.690   1.331 -0.5548 -0.2362 -0.2586
24003SOL    HW176465   7.205  10.674   1.359  0.1525 -0.3636  2.1336
24003SOL    HW276466   7.330  10.751   1.395  1.3298 -0.8905 -0.6030
24004SOL     OW76467   1.385   5.088   9.298  0.1555 -0.3889  0.2316
24004SOL    HW176468   1.372   5.134   9.381  1.7797  2.0828 -0.7879
24004SOL    HW276469   1.345   5.145   9.232  0.4677 -1.4371 -0.8984
24005SOL     OW76470   0.407  10.171   1.549 -0.2944 -0.0010 -0.5674
24005SOL    HW176471   0.465  10.095   1.549  0.8452  0.8369 -0.7206
24005SOL    HW276472   0.361  10.166   1.465  0.7753  0.1899 -1.1949
24006SOL     OW76473   6.970   4.018   5.960  0.3546 -0.7021  0.8066
24006SOL    HW176474   6.989   4.102   6.002 -0.9418 -0.7940  1.6403
24006SOL    HW276475   6.896   3.983   6.010 -0.7622 -1.1792 -1.0757
24007SOL     OW76476   3.157   4.642   7.435 -0.1564  0.5773 -0.6184
24007SOL    HW176477   3.244   4.616   7.464  0.7603  1.4655 -2.4104
24007SOL    HW276478   3.172   4.720   7.382 -2.1027  0.9828 -0.6347
24008SOL     OW76479   9.296   8.735  10.810 -0.3431 -0.0711  0.6094
24008SOL    HW176480   9.390   8.715  10.803 -0.5250 -0.9718  0.6256
24008SOL    HW276481   9.294   8.825  10.842  0.5084  0.3430 -0.4236
24009SOL     OW76482   2.090   5.491  10.497 -0.4808  0.3767 -0.7216
24009SOL    HW176483   2.040   5.427  10.548 -0.8401  0.3739 -1.0765
24009SOL    HW276484   2.127   5.441  10.425  0.5972  0.2396 -0.0959
24010SOL     OW76485   6.656   2.221  10.123  0.1264 -0.2166  0.1363
24010SOL    HW176486   6.732   2.194  10.071  1.6876  1.0784  1.6202
24010SOL    HW276487   6.659   2.317  10.121 -0.2716 -0.1496  1.8639
24011SOL     OW76488   8.018   2.724   7.400  0.3575 -0.2461 -0.3843
24011SOL    HW176489   8.071   2.698   7.476 -0.0683 -1.4528 -0.4774
24011SOL    HW276490   7.930   2.693   7.420  0.1383 -0.1715 -1.1798
24012SOL     OW76491   2.212   8.477   6.774  0.0152  0.3184 -0.3654
24012SOL    HW176492   2.289   8.447   6.824 -0.9344  0.1892  1.0869
24012SOL    HW276493   2.211   8.421   6.697  0.3179 -0.9689  0.5296
24013SOL     OW76494  10.938   0.445   0.011  0.3858  0.2669  0.2873
24013SOL    HW176495  10.946   0.387   0.087  0.9181  0.0626  0.0791
24013SOL    HW276496  10.956   0.532   0.045 -1.8276  0.5439  0.9044
24014SOL     OW76497   1.974   8.502   6.579  0.7909 -0.2021 -0.2645
24014SOL    HW176498   2.018   8.426   6.617 -0.3335  0.0142  1.5501
24014SOL    HW276499   1.965   8.564   6.651 -2.0333 -0.0427 -0.6229
24015SOL     OW76500   0.364   3.329   9.765  0.0645 -0.7173  0.2515
24015SOL    HW176501   0.328   3.417   9.764  2.3763  0.3395 -2.0162
24015SOL    HW276502   0.371   3.306   9.857 -0.1881  1.6369  0.9056
24016SOL     OW76503   4.085   2.336  10.487  0.6293  0.3678  0.3603
24016SOL    HW176504   4.085   2.351  10.582 -0.5034 -0.4666  0.5097
24016SOL    HW276505   4.079   2.241  10.478  0.1341  0.4788 -0.5559
24017SOL     OW76506   4.858   3.411   7.977 -0.7089 -0.3034 -0.0056
24017SOL    HW176507   4.896   3.385   7.892  0.9218 -1.8795  1.1326
24017SOL    HW276508   4.920   3.475   8.012 -0.1227 -1.3482  0.9472
24018SOL     OW76509   1.924   2.964   4.993 -0.2068  0.2935 -0.0802
24018SOL    HW176510   1.905   2.871   4.980 -1.8851  0.6174 -0.1106
24018SOL    HW276511   1.893   3.007   4.914 -0.4170  1.0002  0.3738
24019SOL     OW76512   4.922   0.775   7.328  0.1402 -0.7200  0.3359
24019SOL    HW176513   4.943   0.685   7.357 -1.1641 -1.8859 -2.0722
24019SOL    HW276514   5.008   0.817   7.320  0.8566 -2.0397  0.6165
24020SOL     OW76515   9.259   2.006   0.030  0.7925 -0.4572  1.0600
24020SOL    HW176516   9.172   2.045   0.031  0.6644 -0.3618 -2.5538
24020SOL    HW276517   9.244   1.914   0.054 -0.6138 -0.8156 -0.9312
24021SOL     OW76518   3.791   1.993   4.919  0.0775  0.1391  0.3866
24021SOL    HW176519   3.716   1.970   4.974  1.0909  0.3464  1.9209
24021SOL    HW276520   3.774   2.084   4.892 -1.6620 -0.7350 -1.8534
24022SOL     OW76521   6.965   2.009   1.590 -0.7471  0.4811  0.5679
24022SOL    HW176522   6.938   1.953   1.518 -2.5682  1.1734  0.6787
24022SOL    HW276523   6.968   1.951   1.666 -0.7578  0.1517  0.3175
24023SOL     OW76524   5.349   2.805   5.542  0.1394  0.0408  0.2529
24023SOL    HW176525   5.337   2.825   5.449  0.7928  3.7257  0.8123
24023SOL    HW276526   5.261   2.787   5.574 -0.7761  2.8485 -0.3770
24024SOL     OW76527   6.337   3.227   7.960  0.1284  0.1515 -0.2428
24024SOL    HW176528   6.329   3.145   7.911 -0.2643  1.0183 -1.6879
24024SOL    HW276529   6.318   3.203   8.050 -0.5901 -1.2362 -0.7329
24025SOL     OW76530   7.960   3.623   0.883  0.1056  0.2791 -0.0637
24025SOL    HW176531   7.955   3.691   0.950 -1.0758  0.9884 -0.8420
24025SOL    HW276532   7.888   3.563   0.903 -0.7282  0.9024 -1.1082
24026SOL     OW76533   2.844   4.724   9.413 -0.1691 -0.1974  0.0367
24026SOL    HW176534   2.785   4.739   9.340  1.1476 -1.1613 -1.2760
24026SOL    HW276535   2.858   4.629   9.414 -0.4467 -0.2559  1.7840
24027SOL     OW76536   2.408   8.906   8.329 -0.0243 -0.1195  0.5448
24027SOL    HW176537   2.359   8.968   8.383 -1.0257 -1.1142  0.8017
24027SOL    HW276538   2.463   8.858   8.392  1.7497  1.3458  0.2060
24028SOL     OW76539   8.170   8.470   4.617 -0.1880  0.1373 -0.0454
24028SOL    HW176540   8.217   8.389   4.599 -0.4912  0.0659 -0.5246
24028SOL    HW276541   8.181   8.484   4.711  0.3875 -0.1282 -0.0683
24029SOL     OW76542   6.925   6.030   5.296  0.1032  0.2113  0.0414
24029SOL    HW176543   6.841   5.990   5.315  0.5826 -0.4376  0.8848
24029SOL    HW276544   6.944   6.084   5.373 -0.8428  2.6697 -1.3444
24030SOL     OW76545   0.149   8.547   2.959  0.0138 -0.1773 -0.4716
24030SOL    HW176546   0.158   8.454   2.938 -0.8297 -0.1554 -0.9754
24030SOL    HW276547   0.057   8.559   2.980  0.1571  0.5053 -0.1932
24031SOL     OW76548   0.202   1.095  10.425  0.1991  0.1875  0.2708
24031SOL    HW176549   0.159   1.013  10.449 -0.0143  0.3249  0.3598
24031SOL    HW276550   0.141   1.136  10.364  0.0382  0.5514  0.6758
24032SOL     OW76551   0.273   1.170   7.072 -0.3466  0.1473 -0.3209
24032SOL    HW176552   0.315   1.215   7.000  1.8214  0.9845  1.3504
24032SOL    HW276553   0.217   1.236   7.113 -1.1131 -0.1611 -0.8424
24033SOL     OW76554   8.176  10.414   2.027 -0.0330  0.2995  0.2790
24033SOL    HW176555   8.263  10.450   2.045 -0.4912  1.5438  0.1035
24033SOL    HW276556   8.146  10.463   1.951 -1.4708  0.9209  1.2138
24034SOL     OW76557   9.754  11.015   6.492 -0.3560 -0.4833  0.1964
24034SOL    HW176558   9.694  10.953   6.451  0.7755 -1.3587 -0.1873
24034SOL    HW276559   9.704  11.097   6.496 -1.0525 -0.7697 -1.4982
24035SOL     OW76560   6.459   9.424   0.524 -0.2561  0.1287  0.2441
24035SOL    HW176561   6.535   9.405   0.579 -0.2243  0.6174  0.3751
24035SOL    HW276562   6.384   9.419   0.583 -0.5402 -2.1273 -0.2391
24036SOL     OW76563   4.821   5.214   4.533  0.1229 -0.3411  0.0444
24036SOL    HW176564   4.792   5.224   4.624  2.8093  1.3851  0.8414
24036SOL    HW276565   4.867   5.296   4.513  2.0204 -1.7571 -1.8957
24037SOL     OW76566   5.417   1.008   6.971 -0.4150 -0.2918  0.1602
24037SOL    HW176567   5.473   1.086   6.973 -0.0560 -0.5280  2.4745
24037SOL    HW276568   5.335   1.038   6.932 -0.0180  1.0600  0.3256
24038SOL     OW76569  10.176   2.075   5.091 -0.1164  0.2353  0.6313
24038SOL    HW176570  10.108   2.007   5.080  0.6263 -0.3845 -0.3440
24038SOL    HW276571  10.129   2.150   5.128 -0.8058 -1.0551  2.5264
24039SOL     OW76572   0.668   9.846   4.688 -0.2260  0.2182 -0.1240
24039SOL    HW176573   0.739   9.794   4.649 -0.8857 -0.4067 -0.5237
24039SOL    HW276574   0.712   9.901   4.752  0.6210 -0.1929 -0.3247
24040SOL     OW76575   9.063   4.154  11.028  0.6824 -0.1950 -0.0048
24040SOL    HW176576   9.054   4.084  11.093  0.3516  0.1226  0.2911
24040SOL    HW276577   9.109   4.224  11.074  1.3160 -0.3353 -0.4009
24041SOL     OW76578   2.193   0.244   5.282 -0.0511 -0.0695 -0.0198
24041SOL    HW176579   2.279   0.205   5.267 -0.0831  0.0764 -0.5934
24041SOL    HW276580   2.176   0.228   5.375 -0.6410 -2.5998 -0.4855
24042SOL     OW76581   9.831   4.296   3.576  0.0313 -0.1570  0.3250
24042SOL    HW176582   9.873   4.214   3.603  1.4650  0.3516 -0.2637
24042SOL    HW276583   9.903   4.360   3.572 -1.1504  1.3029  1.3754
24043SOL     OW76584   2.049   6.939   8.812 -0.0974  0.0777 -0.1601
24043SOL    HW176585   2.056   7.033   8.828  0.6770  0.3257 -1.6750
24043SOL    HW276586   2.140   6.908   8.813 -0.2679 -0.4537 -0.6534
24044SOL     OW76587   4.075   5.045   9.684  0.0934 -0.4522  0.3643
24044SOL    HW176588   4.015   5.014   9.616 -0.5892  1.4484  0.0356
24044SOL    HW276589   4.153   4.992   9.673 -0.6306 -1.3274 -0.8033
24045SOL     OW76590   4.058   3.544   5.516  0.3888 -0.1800  0.9664
24045SOL    HW176591   3.988   3.575   5.574 -0.2936 -0.4418  0.3088
24045SOL    HW276592   4.091   3.465   5.559 -0.5524 -0.7405  0.6982
24046SOL     OW76593   0.490   6.758   8.226 -0.2710  0.5731  0.2416
24046SOL    HW176594   0.560   6.811   8.262 -0.0953  1.1320 -0.9085
24046SOL    HW276595   0.512   6.746   8.134  0.4453 -2.6827  0.7056
24047SOL     OW76596   8.061   1.033  10.949 -0.2147 -0.0443  0.4151
24047SOL    HW176597   8.122   1.050  11.020  0.7233  1.1462 -0.6263
24047SOL    HW276598   8.005   1.111  10.946  1.4104  1.1588 -1.7257
24048SOL     OW76599   3.856   5.105   3.755 -0.0144  0.5669 -0.8293
24048SOL    HW176600   3.831   5.047   3.683 -2.2119  0.7018 -0.2268
24048SOL    HW276601   3.842   5.193   3.721  1.5453  0.7498 -1.1028
24049SOL     OW76602  10.273   5.237   5.249  0.1991 -0.2674  0.5111
24049SOL    HW176603  10.321   5.228   5.167 -0.1565 -0.8032  0.3546
24049SOL    HW276604  10.187   5.270   5.223 -0.5581 -2.1736  0.4535
24050SOL     OW76605   9.220   2.957   0.175  0.6159  0.4007  0.0283
24050SOL    HW176606   9.174   3.019   0.119 -1.2737 -1.1698 -0.2677
24050SOL    HW276607   9.151   2.920   0.231  1.7582 -1.0080  0.5618
24051SOL     OW76608   1.462   7.833   6.247 -0.2151 -0.5902 -0.8184
24051SOL    HW176609   1.426   7.891   6.179  0.7422  0.7365 -0.2384
24051SOL    HW276610   1.529   7.886   6.290 -0.6728 -1.4765  1.0481
24052SOL     OW76611   7.159  10.920   7.595  0.0442 -0.1141  0.0210
24052SOL    HW176612   7.068  10.943   7.613  0.4841  0.7909  1.2408
24052SOL    HW276613   7.154  10.839   7.543 -1.4425 -0.0299 -0.0027
24053SOL     OW76614   7.291   1.762   8.350 -0.7502  0.7196 -0.0582
24053SOL    HW176615   7.207   1.804   8.331 -1.4127 -0.7460 -0.5383
24053SOL    HW276616   7.356   1.832   8.338 -1.6753  1.3160 -2.1452
24054SOL     OW76617   2.102   5.157   5.171 -0.5466 -0.1437  0.0100
24054SOL    HW176618   2.093   5.069   5.136  0.7879 -0.3968  0.2580
24054SOL    HW276619   2.121   5.144   5.264 -0.1690  0.3961  0.0152
24055SOL     OW76620   6.317   8.671   0.509 -0.3430 -0.5522  0.0501
24055SOL    HW176621   6.310   8.664   0.605  0.4825  0.5080  0.2085
24055SOL    HW276622   6.259   8.744   0.486  0.9232  0.4735 -0.0056
24056SOL     OW76623   8.486   1.254   6.517 -0.2455  0.4001 -0.2087
24056SOL    HW176624   8.444   1.186   6.569  0.4189 -0.9923 -1.4196
24056SOL    HW276625   8.574   1.260   6.553 -0.1891  0.3519 -0.3374
24057SOL     OW76626   6.359   3.199   6.767 -0.0422 -0.6481 -0.1470
24057SOL    HW176627   6.396   3.133   6.708  1.2055  1.0090 -1.3076
24057SOL    HW276628   6.268   3.209   6.740  0.4001 -0.2213 -1.5317
24058SOL     OW76629   8.117   3.185   3.724  0.7363  0.2210  0.1715
24058SOL    HW176630   8.053   3.226   3.667  0.1621  1.4293  1.6207
24058SOL    HW276631   8.066   3.128   3.782  0.7888  1.8386  1.9025
24059SOL     OW76632   1.529   4.027  10.622 -0.4544 -0.1901  0.1947
24059SOL    HW176633   1.503   4.101  10.568 -1.0671 -0.1176  0.5786
24059SOL    HW276634   1.461   4.020  10.689  0.0744 -0.5250  0.7196
24060SOL     OW76635   4.000   7.003   8.609 -0.4973  0.0651 -0.4971
24060SOL    HW176636   4.060   6.998   8.534  0.0089 -1.7810 -0.0078
24060SOL    HW276637   4.046   7.057   8.673  1.0562 -1.9751  0.1854
24061SOL     OW76638   7.242  10.928   6.711  0.0874 -0.5111  0.0506
24061SOL    HW176639   7.276  11.015   6.691 -1.4587 -0.3213 -2.1627
24061SOL    HW276640   7.160  10.944   6.758  0.5536 -0.8218  0.9802
24062SOL     OW76641   4.734   5.243   6.180 -0.2817 -0.1836 -0.2641
24062SOL    HW176642   4.666   5.186   6.216  0.3751 -1.5116 -1.0522
24062SOL    HW276643   4.714   5.248   6.086 -0.5330  1.1927 -0.1553
24063SOL     OW76644   2.230   4.460   8.046 -0.1121  0.3940 -0.1998
24063SOL    HW176645   2.174   4.407   7.989 -0.8881  1.3631 -0.3530
24063SOL    HW276646   2.199   4.440   8.134 -0.6557  0.8679 -0.2789
24064SOL     OW76647   5.929  10.654   7.115 -0.7423 -0.0014 -0.8813
24064SOL    HW176648   5.945  10.620   7.204  0.5353  1.0300 -0.6988
24064SOL    HW276649   5.950  10.747   7.121 -3.2555  0.6925 -1.6196
24065SOL     OW76650   7.587   8.273   4.046  0.5141  0.0187  0.5259
24065SOL    HW176651   7.540   8.191   4.031 -1.3510  1.1246 -0.0260
24065SOL    HW276652   7.532   8.321   4.109  1.9916  0.5366  1.4967
24066SOL     OW76653   0.031   6.271   5.096  0.0187 -0.0257  0.4448
24066SOL    HW176654   0.019   6.361   5.065  0.6412 -0.2002 -0.3289
24066SOL    HW276655   0.050   6.220   5.017 -0.6287 -0.9021  0.8357
24067SOL     OW76656  10.410   7.863   5.485 -0.6248  0.0333  0.1223
24067SOL    HW176657  10.419   7.955   5.511 -1.1236  0.2433 -0.4203
24067SOL    HW276658  10.340   7.830   5.541 -0.3738 -0.0500  0.3918
24068SOL     OW76659  10.302   2.318   2.690 -0.3499 -0.2966  0.0586
24068SOL    HW176660  10.291   2.327   2.785  0.6376 -0.3683  0.1821
24068SOL    HW276661  10.301   2.224   2.675  0.5276 -0.3276  0.1345
24069SOL     OW76662  10.791   1.341   2.874 -0.3324 -0.8873 -1.0317
24069SOL    HW176663  10.726   1.409   2.857  0.4312 -0.1137 -0.9287
24069SOL    HW276664  10.873   1.389   2.885 -0.1040 -1.6367  1.0466
24070SOL     OW76665   5.731   7.843  10.269  0.4067  0.2191  0.6128
24070SOL    HW176666   5.736   7.753  10.237 -0.7292  0.2370  0.3501
24070SOL    HW276667   5.818   7.878  10.254 -0.0855  0.3061 -2.7413
24071SOL     OW76668   7.643   9.563   3.689  0.0709 -0.3789  0.2245
24071SOL    HW176669   7.610   9.607   3.611 -1.3808 -1.1817  0.3604
24071SOL    HW276670   7.738   9.558   3.675  0.3784  2.9282  0.3053
24072SOL     OW76671   7.945   1.293   8.688  0.2156  0.4021 -0.3957
24072SOL    HW176672   7.929   1.238   8.765  0.4680  0.2783 -0.4271
24072SOL    HW276673   7.921   1.381   8.716  2.1827  0.7164  0.5070
24073SOL     OW76674   2.394   6.595   1.985 -0.5006  0.4981 -0.3059
24073SOL    HW176675   2.489   6.599   1.975 -0.4732 -1.3657 -1.2804
24073SOL    HW276676   2.363   6.555   1.904 -2.1175  0.9660  0.0419
24074SOL     OW76677   0.143   3.154   1.377 -0.6615  0.4119 -0.4579
24074SOL    HW176678   0.193   3.217   1.429 -0.1367  0.8060 -1.3949
24074SOL    HW276679   0.210   3.108   1.326 -1.0627 -0.7748  0.0789
24075SOL     OW76680   4.000   4.462   5.978 -0.4687 -0.0432  0.8946
24075SOL    HW176681   3.946   4.536   5.950  0.0665  0.5033  1.2658
24075SOL    HW276682   3.940   4.404   6.025 -1.2648 -0.6994 -0.8374
24076SOL     OW76683  10.255   3.393   0.630 -0.4519  0.2898 -0.3525
24076SOL    HW176684  10.316   3.446   0.682  1.1542 -1.3181 -0.4694
24076SOL    HW276685  10.311   3.347   0.567 -1.6559 -1.8221  0.0089
24077SOL     OW76686   5.888   7.133   2.921 -0.1359  0.5041  0.1571
24077SOL    HW176687   5.867   7.200   2.986 -0.4275  1.2234 -0.6513
24077SOL    HW276688   5.948   7.177   2.860 -1.4225  0.5063 -1.1746
24078SOL     OW76689   8.813   0.530   0.336 -0.1760 -0.2553  0.0924
24078SOL    HW176690   8.906   0.518   0.318 -0.1615 -0.0856  0.0521
24078SOL    HW276691   8.770   0.460   0.288 -0.1824  0.4934 -1.0358
24079SOL     OW76692   9.492   6.463   9.513  0.1310 -0.0822  0.6742
24079SOL    HW176693   9.492   6.545   9.463  0.1924 -0.7037 -0.3656
24079SOL    HW276694   9.568   6.471   9.571  0.3749  0.4235  0.2962
24080SOL     OW76695   0.496   7.737   5.231 -0.4818  0.3126 -1.0779
24080SOL    HW176696   0.580   7.784   5.234 -0.3903  0.1182 -0.4221
24080SOL    HW276697   0.450   7.775   5.156 -0.1115  0.9336 -0.9959
24081SOL     OW76698   3.874  10.097   9.238 -0.1906 -0.4685 -0.6782
24081SOL    HW176699   3.929  10.080   9.315 -1.1857 -0.6442  0.0148
24081SOL    HW276700   3.935  10.129   9.172  0.3671  2.2399  0.9815
24082SOL     OW76701   9.529  10.422   7.638 -0.0819 -0.4457 -0.3233
24082SOL    HW176702   9.477  10.350   7.673  0.0865 -0.5645 -0.3163
24082SOL    HW276703   9.468  10.473   7.585 -0.3178 -0.3172  0.0690
24083SOL     OW76704   7.633   2.968  10.195 -0.1477  0.1508 -0.3648
24083SOL    HW176705   7.626   2.945  10.288  3.7203  0.2430  0.1062
24083SOL    HW276706   7.622   3.063  10.193 -1.8206 -0.0184 -0.2756
24084SOL     OW76707  10.633   8.661   8.560 -0.2932  0.1989  0.4118
24084SOL    HW176708  10.572   8.590   8.579  1.0112 -0.6041  1.7656
24084SOL    HW276709  10.651   8.701   8.645  1.8448 -0.2495  0.2225
24085SOL     OW76710   4.241  10.023   0.483 -0.2758 -0.3149 -0.1281
24085SOL    HW176711   4.225  10.098   0.540  0.5017 -1.2341  1.3886
24085SOL    HW276712   4.206  10.048   0.398 -0.7687  1.4273  0.5587
24086SOL     OW76713   0.339   8.259   8.416  0.0756  0.1659 -0.0776
24086SOL    HW176714   0.266   8.320   8.419 -0.2464 -0.2536  2.0588
24086SOL    HW276715   0.413   8.307   8.453 -0.3534 -0.8435  2.3108
24087SOL     OW76716   7.650   5.388   6.842 -0.0070  0.2010 -0.4591
24087SOL    HW176717   7.637   5.448   6.916 -0.0839 -0.4959  0.1037
24087SOL    HW276718   7.697   5.440   6.777 -0.7687  1.1029 -0.3004
24088SOL     OW76719   1.577   8.358   5.095  0.4450  0.1397 -0.7451
24088SOL    HW176720   1.536   8.345   5.180  0.3936  1.4608 -0.5575
24088SOL    HW276721   1.671   8.353   5.112  0.4687 -3.0141 -1.1954
24089SOL     OW76722   8.086   3.321  10.819 -0.2537  0.3841 -0.1031
24089SOL    HW176723   8.041   3.237  10.813 -1.3735  0.8741  0.9678
24089SOL    HW276724   8.110   3.330  10.911 -2.6464  2.4203  0.4293
24090SOL     OW76725   0.801   6.260   1.623 -0.6170  0.4586 -0.7366
24090SOL    HW176726   0.884   6.233   1.662 -0.3532  0.4023 -1.3341
24090SOL    HW276727   0.745   6.182   1.629 -0.0644 -0.0532 -1.8835
24091SOL     OW76728   5.656  10.951  10.815 -0.4141 -0.0900 -0.0258
24091SOL    HW176729   5.726  10.981  10.757 -1.5529  0.6445 -1.0564
24091SOL    HW276730   5.681  10.983  10.902 -0.9834  2.8885 -0.8767
24092SOL     OW76731   5.842   7.259   7.167  0.6595  0.4774 -0.0256
24092SOL    HW176732   5.853   7.260   7.072  0.4796 -2.1303 -0.1508
24092SOL    HW276733   5.930   7.277   7.201  1.0489 -0.0124 -0.7362
24093SOL     OW76734   6.016  10.364   1.782  0.2802 -0.0771 -0.3364
24093SOL    HW176735   5.979  10.297   1.839  0.8911 -1.6457 -1.7212
24093SOL    HW276736   5.943  10.425   1.767 -0.9213 -1.5464 -0.7005
24094SOL     OW76737   4.597   2.644   0.961  0.1112  0.5666 -0.4719
24094SOL    HW176738   4.563   2.554   0.958  1.4738  0.0485 -1.8740
24094SOL    HW276739   4.585   2.671   1.052  1.0280 -1.5830  0.3656
24095SOL     OW76740  10.506  10.361   6.722 -0.1234  0.4086 -0.8606
24095SOL    HW176741  10.479  10.270   6.710  1.4561 -0.1940 -0.0928
24095SOL    HW276742  10.460  10.389   6.802 -0.4194  0.2114 -0.9600
24096SOL     OW76743   0.966   4.815   7.260 -0.2366 -0.5073 -0.1484
24096SOL    HW176744   1.023   4.849   7.192 -0.7007  0.3491 -0.1307
24096SOL    HW276745   1.025   4.782   7.327  0.2353 -2.4305 -1.4417
24097SOL     OW76746   8.932   0.846   3.403  0.3173  0.3791  0.2291
24097SOL    HW176747   8.898   0.881   3.321  1.4048 -0.8157 -0.8018
24097SOL    HW276748   9.009   0.899   3.422 -0.8361  1.6931  1.3864
24098SOL     OW76749   1.351   1.113   8.094 -0.4266  0.1209 -0.0711
24098SOL    HW176750   1.331   1.150   8.180  2.0014  1.7295 -0.0973
24098SOL    HW276751   1.371   1.021   8.111 -1.7556 -0.0337  0.7693
24099SOL     OW76752   5.096   3.060   0.036 -0.0895  0.1676  0.1338
24099SOL    HW176753   5.121   3.103   0.117 -0.4964  0.7759 -0.0500
24099SOL    HW276754   5.175   3.060  -0.017  0.2880 -0.6019  0.6723
24100SOL     OW76755   7.342   9.960   4.090 -0.0455  0.2358 -0.3684
24100SOL    HW176756   7.346   9.864   4.084 -2.2635  0.1120 -0.8613
24100SOL    HW276757   7.330   9.978   4.183 -0.6870 -0.0447 -0.3924
24101SOL     OW76758   1.468   0.389  11.043  0.6818  0.0133  0.1304
24101SOL    HW176759   1.403   0.351  10.984  1.6804 -0.4718 -0.6896
24101SOL    HW276760   1.438   0.479  11.057 -0.7672 -0.5215  0.6936
24102SOL     OW76761   7.511   6.466   6.564 -0.0981 -0.4492 -0.1314
24102SOL    HW176762   7.489   6.455   6.657  0.8358 -0.0684  0.1473
24102SOL    HW276763   7.531   6.559   6.555  2.9439 -0.9658  0.0406
24103SOL     OW76764   9.688   6.211  10.947 -0.5528  0.3983  0.9147
24103SOL    HW176765   9.633   6.239  11.020 -1.2836 -0.7709  0.8433
24103SOL    HW276766   9.737   6.136  10.983  1.3466  1.6538  1.1153
24104SOL     OW76767  10.670   2.260  10.903 -0.0638 -0.0996 -0.2340
24104SOL    HW176768  10.730   2.199  10.946  1.1195  1.8908  1.1009
24104SOL    HW276769  10.723   2.300  10.834 -0.9177 -0.7421 -1.2997
24105SOL     OW76770   9.444   3.097   9.325 -0.2677  0.1965 -0.5348
24105SOL    HW176771   9.509   3.166   9.308 -0.4937  0.6045  0.2230
24105SOL    HW276772   9.392   3.095   9.245  0.2642  0.3224 -0.8946
24106SOL     OW76773   6.128   7.935   2.652 -0.1589 -0.3717  0.3140
24106SOL    HW176774   6.215   7.907   2.681  1.3393  1.5383 -1.9864
24106SOL    HW276775   6.091   7.978   2.729 -0.0189 -2.9919  1.9893
24107SOL     OW76776   7.849   7.227   0.152 -0.0193 -0.4805  0.0092
24107SOL    HW176777   7.832   7.301   0.211 -2.7661  0.4717 -1.7954
24107SOL    HW276778   7.944   7.231   0.137  0.3751  0.7796  2.3097
24108SOL     OW76779  10.263   2.185   9.333 -0.3960 -0.5226 -0.2792
24108SOL    HW176780  10.263   2.215   9.424 -0.9611  0.0793 -0.4683
24108SOL    HW276781  10.185   2.130   9.326 -0.1457 -0.8801 -0.3090
24109SOL     OW76782   8.562   1.677   2.402 -0.2762 -0.3924 -0.0613
24109SOL    HW176783   8.487   1.691   2.344  0.2139  1.8394 -0.2780
24109SOL    HW276784   8.531   1.704   2.489  0.0484 -0.1744 -0.0101
24110SOL     OW76785   0.072   2.271   0.363 -0.1418  0.3523 -0.3972
24110SOL    HW176786   0.008   2.342   0.374 -1.5558 -0.6709 -1.5030
24110SOL    HW276787   0.033   2.196   0.408 -0.3721 -0.6191 -2.0978
24111SOL     OW76788   9.763   7.145   8.416  0.4681  0.1416 -0.4453
24111SOL    HW176789   9.845   7.185   8.447 -0.4839 -0.1101  2.7502
24111SOL    HW276790   9.711   7.218   8.384  1.5222  0.4371 -1.5396
24112SOL     OW76791   2.495   0.148  11.022 -0.0729 -0.0461  0.3444
24112SOL    HW176792   2.487   0.202  10.943  0.0135  0.2036  0.5042
24112SOL    HW276793   2.470   0.207  11.094 -1.2781 -0.6081  0.3966
24113SOL     OW76794   6.183   4.872  10.544 -0.1607  0.1515 -0.2434
24113SOL    HW176795   6.108   4.864  10.485 -0.2346  2.0289 -0.4548
24113SOL    HW276796   6.146   4.903  10.626  0.2223 -0.3258  0.1189
24114SOL     OW76797   8.433   3.857   1.378  0.2820  0.8153  0.4773
24114SOL    HW176798   8.517   3.826   1.345  0.0898 -0.0932  0.8203
24114SOL    HW276799   8.418   3.806   1.457  0.2307  2.2020  1.4036
24115SOL     OW76800   9.246   7.232   7.060 -0.2568 -0.5260 -0.3550
24115SOL    HW176801   9.323   7.199   7.106 -1.3564 -0.0292  1.9736
24115SOL    HW276802   9.171   7.200   7.111 -1.5914 -0.2942 -2.0609
24116SOL     OW76803   1.911   7.633   3.994  0.5874 -0.4274 -0.0999
24116SOL    HW176804   1.893   7.540   3.981 -0.9473  0.0160 -1.5149
24116SOL    HW276805   2.001   7.636   4.027  0.7565 -2.3837 -0.2905
24117SOL     OW76806   4.117   6.176   0.799  0.0200  0.1639 -0.3632
24117SOL    HW176807   4.117   6.080   0.801  0.0380  0.0192  4.0864
24117SOL    HW276808   4.204   6.200   0.769  0.4670 -1.2652 -0.2888
24118SOL     OW76809   0.915   3.015   1.832  0.2335 -0.0083 -0.0850
24118SOL    HW176810   0.926   2.939   1.775  1.6728 -0.3001  0.5479
24118SOL    HW276811   0.912   3.090   1.772 -0.7437 -0.4999 -0.6835
24119SOL     OW76812   1.922  10.718   4.105  0.3247  0.2394 -0.6554
24119SOL    HW176813   1.850  10.682   4.053  0.0601 -0.6675  0.2931
24119SOL    HW276814   1.985  10.647   4.110 -0.1026 -0.0663  1.0734
24120SOL     OW76815   7.962   1.969   2.673 -0.5081 -0.8678  0.0653
24120SOL    HW176816   7.990   2.036   2.611  0.8361 -1.1824  0.3126
24120SOL    HW276817   7.872   1.949   2.646 -0.8692  0.8490 -0.1498
24121SOL     OW76818   6.845   0.345   1.072 -0.6997  0.7489  0.3033
24121SOL    HW176819   6.837   0.315   0.982  0.3066  3.0568 -0.6489
24121SOL    HW276820   6.876   0.268   1.121 -0.2502 -0.2866 -1.5223
24122SOL     OW76821   5.935   7.503   4.258 -0.2429  0.1392 -0.2881
24122SOL    HW176822   5.935   7.540   4.170  0.6193  1.1743  0.1174
24122SOL    HW276823   5.843   7.492   4.280 -0.5752  2.3764 -0.3313
24123SOL     OW76824   4.739   7.507   0.207 -0.4127 -0.5170  0.1205
24123SOL    HW176825   4.748   7.572   0.276 -0.4396 -0.8923  0.4852
24123SOL    HW276826   4.731   7.424   0.254 -0.0500 -0.8214 -0.3454
24124SOL     OW76827  10.706   7.889   9.219  0.2239  0.4774  0.4912
24124SOL    HW176828  10.617   7.853   9.220 -0.6194  2.0051 -2.9063
24124SOL    HW276829  10.700   7.971   9.269 -0.3864  0.7098  0.0505
24125SOL     OW76830   2.071   2.871  10.461 -0.2132 -0.3602  0.0529
24125SOL    HW176831   2.000   2.871  10.524  0.2453 -0.0754  0.5814
24125SOL    HW276832   2.125   2.795  10.484 -0.9704 -1.2649 -1.0795
24126SOL     OW76833   4.847   1.652   3.190 -0.0108 -0.3854 -0.1885
24126SOL    HW176834   4.925   1.605   3.219  0.7076  0.6157 -0.4534
24126SOL    HW276835   4.878   1.741   3.171 -1.3468  0.2309  0.3929
24127SOL     OW76836   4.046   7.495  10.846 -0.1097  0.3914 -0.1708
24127SOL    HW176837   4.104   7.488  10.770  0.1764 -0.6617  0.1170
24127SOL    HW276838   4.084   7.434  10.910  0.0473  1.7465  1.0834
24128SOL     OW76839   0.681   1.707   4.271  0.2273 -0.4109  0.2100
24128SOL    HW176840   0.647   1.697   4.360 -0.6066 -2.9433 -0.3161
24128SOL    HW276841   0.751   1.642   4.265 -0.3946 -0.9720 -1.2636
24129SOL     OW76842   3.168   5.353   1.694 -0.1176 -0.1005 -0.0065
24129SOL    HW176843   3.237   5.389   1.638  0.1444 -0.9920 -0.2819
24129SOL    HW276844   3.210   5.279   1.738 -0.9318 -0.7205 -0.2562
24130SOL     OW76845   2.026   6.987   6.244  0.6535 -0.0261  0.0433
24130SOL    HW176846   1.944   7.004   6.198  0.8343 -0.1495 -0.3287
24130SOL    HW276847   2.009   6.907   6.294  0.5395 -0.0406 -0.0175
24131SOL     OW76848   8.375   9.451   9.391  0.3226 -0.3781 -0.0779
24131SOL    HW176849   8.431   9.446   9.468 -0.9708 -2.3370  0.8092
24131SOL    HW276850   8.413   9.389   9.329  0.4772  0.0585 -0.4283
24132SOL     OW76851   2.954   8.296   6.229 -0.1706 -0.2107 -0.0549
24132SOL    HW176852   2.958   8.292   6.324  0.3133  0.3941 -0.0386
24132SOL    HW276853   3.045   8.312   6.202 -0.4290  0.4366 -0.5651
24133SOL     OW76854   2.705   6.861   4.085  0.0939  0.1427 -0.2691
24133SOL    HW176855   2.676   6.770   4.074  0.6841  0.1696 -2.7776
24133SOL    HW276856   2.650   6.911   4.025 -0.6601  1.6134  1.5435
24134SOL     OW76857   4.796   0.013   5.985  0.5458 -0.2515 -0.0034
24134SOL    HW176858   4.859   0.005   5.913 -1.4307 -1.5569 -1.7274
24134SOL    HW276859   4.717  -0.031   5.952 -1.3240  1.4246  1.9757
24135SOL     OW76860   0.980   4.040   8.538 -0.1229 -0.6922  0.1140
24135SOL    HW176861   0.981   4.114   8.598 -3.6109 -0.6144  0.3051
24135SOL    HW276862   0.957   3.965   8.593 -1.0645 -1.0429 -0.7176
24136SOL     OW76863  10.621   0.429   5.386 -0.2040 -0.0547 -0.2455
24136SOL    HW176864  10.573   0.346   5.389 -1.0284  0.4224 -0.1805
24136SOL    HW276865  10.593   0.476   5.464 -1.5355  1.2585 -1.4647
24137SOL     OW76866   1.772   2.845   2.647  0.2095  0.1688 -0.0106
24137SOL    HW176867   1.838   2.794   2.600  0.4369 -0.8447  1.3539
24137SOL    HW276868   1.822   2.902   2.705 -0.0849  0.7839 -0.3498
24138SOL     OW76869   2.201   8.683   4.202  0.3455  0.5674  0.2381
24138SOL    HW176870   2.121   8.733   4.186  0.2223  0.0664 -0.7903
24138SOL    HW276871   2.221   8.698   4.295 -1.7627 -0.4711  0.9127
24139SOL     OW76872   2.923   6.026   0.349  0.0434 -0.0194 -0.4700
24139SOL    HW176873   2.889   5.937   0.336  1.4819 -0.8851  1.1516
24139SOL    HW276874   2.904   6.072   0.267  0.4752 -2.2332 -1.8952
24140SOL     OW76875   8.455   7.585   9.950  0.1126  0.1037  0.2046
24140SOL    HW176876   8.532   7.528   9.958 -0.9747 -1.8321 -1.8944
24140SOL    HW276877   8.394   7.551  10.016  0.1002 -0.0818  0.0999
24141SOL     OW76878   8.866   4.946   4.884 -0.1602  0.0044  0.3242
24141SOL    HW176879   8.862   4.932   4.978  2.7600 -1.2046  0.4017
24141SOL    HW276880   8.886   4.859   4.848 -0.5900  0.5615 -1.3493
24142SOL     OW76881   2.629   4.463  10.812  0.1748 -0.0662 -0.3845
24142SOL    HW176882   2.721   4.442  10.791  0.4325  0.2530  0.3864
24142SOL    HW276883   2.635   4.526  10.884 -0.6383  0.6874 -0.9539
24143SOL     OW76884  10.658   5.774   9.333  0.6035 -0.0933  0.0138
24143SOL    HW176885  10.607   5.762   9.414 -0.0138  1.1523 -0.1595
24143SOL    HW276886  10.625   5.706   9.274 -1.0185  0.7519 -0.1364
24144SOL     OW76887   0.811  10.932   9.692 -0.6352 -0.2768  0.0585
24144SOL    HW176888   0.768  10.886   9.764  0.3608 -1.5499 -0.1267
24144SOL    HW276889   0.805  11.024   9.716 -0.0560 -0.6864  1.9258
24145SOL     OW76890   7.610   0.377   3.297 -0.1205 -0.1338  0.1179
24145SOL    HW176891   7.665   0.455   3.299 -0.4914  0.2285 -1.5859
24145SOL    HW276892   7.571   0.372   3.384 -0.3397  1.7839  0.1676
24146SOL     OW76893   0.408   9.184   6.558  0.6652  0.0180 -0.3683
24146SOL    HW176894   0.503   9.183   6.549  0.7368 -1.0596  0.3353
24146SOL    HW276895   0.375   9.158   6.472  1.0283 -0.1263 -0.4650
24147SOL     OW76896   1.073   5.959   2.370 -0.0144  0.3715 -0.5840
24147SOL    HW176897   1.114   5.897   2.431 -1.7577  1.5134  1.9421
24147SOL    HW276898   0.991   5.917   2.345 -0.5170  1.0007 -0.0267
24148SOL     OW76899   8.356   2.602   9.963 -0.2158  0.9485  0.1814
24148SOL    HW176900   8.342   2.507   9.954  1.6792  0.7904 -2.2624
24148SOL    HW276901   8.395   2.612  10.050 -0.8893 -0.4561  0.6715
24149SOL     OW76902   6.609   9.070   3.223  0.1042 -0.3164 -0.2183
24149SOL    HW176903   6.573   8.981   3.229 -0.5050  0.0071  1.1638
24149SOL    HW276904   6.557   9.121   3.285 -1.2093  1.5801 -2.7009
24150SOL     OW76905   0.527   6.724   3.488 -0.2553  0.2993  0.3532
24150SOL    HW176906   0.617   6.757   3.499 -0.6118  0.9335  1.5593
24150SOL    HW276907   0.507   6.680   3.571 -0.4135 -1.5237 -0.5949
24151SOL     OW76908   5.529   3.085   2.200 -0.3819  0.8591 -0.6313
24151SOL    HW176909   5.489   3.010   2.243  1.4640 -0.2131 -0.6832
24151SOL    HW276910   5.472   3.159   2.223 -2.1631 -0.5091 -0.4838
24152SOL     OW76911   1.365   3.320  10.703  0.1342  0.0827 -0.0570
24152SOL    HW176912   1.343   3.413  10.693 -0.6356 -0.0367  0.4808
24152SOL    HW276913   1.448   3.310  10.656 -1.2582  0.4038 -2.7701
24153SOL     OW76914   1.459   3.736   0.086 -0.0593  0.6494  0.1010
24153SOL    HW176915   1.396   3.680   0.130  0.6138  1.3689  2.0573
24153SOL    HW276916   1.522   3.675   0.047 -0.4389 -0.0033  0.5055
24154SOL     OW76917   2.345   3.855   8.718  0.3539 -0.4189  0.1677
24154SOL    HW176918   2.439   3.869   8.705  0.5064  0.3353  1.8050
24154SOL    HW276919   2.337   3.763   8.742  1.0419  0.0872  2.5897
24155SOL     OW76920   7.211   6.631   0.478 -0.2751  0.2033  0.4416
24155SOL    HW176921   7.213   6.573   0.554  0.1633  1.3461  1.3308
24155SOL    HW276922   7.145   6.593   0.421 -0.7664 -0.5776  1.4972
24156SOL     OW76923   7.550   8.642   5.507  0.1355 -0.0638 -0.1162
24156SOL    HW176924   7.468   8.603   5.539 -0.1314  1.1818  0.7959
24156SOL    HW276925   7.561   8.606   5.419 -2.0286  0.6200 -0.7325
24157SOL     OW76926   9.188   6.862  10.543  0.6630  0.4316  0.1354
24157SOL    HW176927   9.097   6.839  10.562  1.2430 -0.3894  2.1590
24157SOL    HW276928   9.197   6.848  10.448 -1.1114 -0.1602  0.0204
24158SOL     OW76929   7.962   4.764   4.287  0.2231  0.3265  0.4095
24158SOL    HW176930   8.014   4.784   4.210 -2.3142  1.4419 -1.1327
24158SOL    HW276931   7.928   4.848   4.316 -1.8295 -0.4481  0.4563
24159SOL     OW76932   2.528   9.338   8.557 -0.2395  0.1931  0.4808
24159SOL    HW176933   2.588   9.410   8.538 -1.4035  1.2037  0.5182
24159SOL    HW276934   2.584   9.261   8.564  0.9024  0.8547 -0.8655
24160SOL     OW76935   6.886   4.426   7.314 -0.1879 -0.4250 -0.8320
24160SOL    HW176936   6.952   4.494   7.325  0.3931 -1.1159  0.1046
24160SOL    HW276937   6.803   4.473   7.319  0.1660  0.1012  1.0575
24161SOL     OW76938   9.004   3.847   9.271 -0.0779 -0.0252  0.5078
24161SOL    HW176939   8.921   3.856   9.317  0.0535  1.4226  0.5014
24161SOL    HW276940   8.990   3.887   9.185 -0.3739 -2.8749 -0.8687
24162SOL     OW76941   9.190   2.329   3.369  0.4667 -0.0605  0.1719
24162SOL    HW176942   9.230   2.404   3.412  2.5722 -0.7792 -0.4386
24162SOL    HW276943   9.245   2.312   3.293 -0.5710 -1.5825 -0.2938
24163SOL     OW76944   3.827   8.406   9.514 -0.3977  0.1313  0.5678
24163SOL    HW176945   3.790   8.493   9.531 -0.3470 -0.2207  2.7856
24163SOL    HW276946   3.780   8.348   9.575  0.0743 -1.2718 -0.3709
24164SOL     OW76947   6.078   6.979   5.119  0.2621 -0.0139  0.1752
24164SOL    HW176948   5.991   7.004   5.086  1.0517  2.1903 -0.4416
24164SOL    HW276949   6.139   7.033   5.068  2.0218 -1.5239  0.5750
24165SOL     OW76950   8.422   5.441   2.943 -0.5061  0.0955  0.1371
24165SOL    HW176951   8.334   5.478   2.932 -0.0920  0.7850 -1.0351
24165SOL    HW276952   8.445   5.409   2.856  0.0396 -0.9599  0.6463
24166SOL     OW76953   7.822  10.120   0.405 -0.5336  0.0017  0.8561
24166SOL    HW176954   7.883  10.194   0.407 -0.6850  0.2178 -0.9009
24166SOL    HW276955   7.878  10.043   0.410 -0.1826  0.2105  0.2528
24167SOL     OW76956   3.187   6.726   3.556 -0.2462 -0.1123 -0.1565
24167SOL    HW176957   3.231   6.698   3.475 -1.1616  0.9135 -1.0368
24167SOL    HW276958   3.228   6.673   3.624 -0.7500 -2.4270 -1.5110
24168SOL     OW76959   7.106  10.884   1.547 -0.8787  0.2342 -0.1051
24168SOL    HW176960   7.114  10.828   1.624 -0.9920 -0.2967 -0.4713
24168SOL    HW276961   7.071  10.967   1.580 -0.5148  0.1576  0.4707
24169SOL     OW76962   2.580   0.397   9.079  1.0956 -0.2744  0.2366
24169SOL    HW176963   2.634   0.345   9.019  1.6792  2.1180 -1.4315
24169SOL    HW276964   2.512   0.435   9.024  1.6109  1.9478  1.0394
24170SOL     OW76965   3.192   7.892   3.630  0.4310 -0.3467  0.2324
24170SOL    HW176966   3.106   7.866   3.662  0.2983  0.3728  0.4871
24170SOL    HW276967   3.186   7.883   3.535 -0.0992  0.1916  0.2093
24171SOL     OW76968   7.305  10.780  10.386 -0.0682  0.0240 -0.2287
24171SOL    HW176969   7.232  10.835  10.356 -0.0928 -0.1290 -0.4522
24171SOL    HW276970   7.279  10.750  10.472  0.7808  1.9401  0.7577
24172SOL     OW76971   5.684   9.413  10.642  0.4523  0.7777 -0.1179
24172SOL    HW176972   5.622   9.483  10.626  0.0461  0.0929 -1.7348
24172SOL    HW276973   5.630   9.334  10.648  0.9212  0.5403  1.4151
24173SOL     OW76974   6.203   3.245   1.982 -0.1046 -0.3557  0.4027
24173SOL    HW176975   6.157   3.322   2.015  1.7947  0.5503  1.0457
24173SOL    HW276976   6.250   3.276   1.905  1.3495 -0.6407  1.1552
24174SOL     OW76977   3.622   1.858   7.979 -0.2005 -0.2733  0.1877
24174SOL    HW176978   3.598   1.921   7.911  1.7996 -0.3213 -0.6557
24174SOL    HW276979   3.586   1.895   8.060 -0.9632  0.8064 -0.6136
24175SOL     OW76980   1.968   7.907   8.676  0.0665 -0.0517  0.3109
24175SOL    HW176981   2.042   7.931   8.732  1.0780  0.0496 -0.9988
24175SOL    HW276982   1.963   7.978   8.612 -0.0406 -0.9001 -0.6559
24176SOL     OW76983   6.714   1.837   6.277  0.3178 -0.2738 -0.1363
24176SOL    HW176984   6.624   1.855   6.305  0.4319 -1.2188  0.8944
24176SOL    HW276985   6.741   1.917   6.232 -0.2508  0.9750  1.6051
24177SOL     OW76986   9.983   5.248   1.341  0.3517 -1.1565 -0.0044
24177SOL    HW176987  10.044   5.194   1.391 -0.1878 -1.6150  0.1595
24177SOL    HW276988   9.907   5.258   1.398 -1.1655 -3.4060 -1.4677
24178SOL     OW76989  10.243   0.480   6.357 -0.5624 -0.2003  0.0229
24178SOL    HW176990  10.309   0.479   6.288 -0.9234  0.8809 -0.3520
24178SOL    HW276991  10.281   0.427   6.427 -0.0870 -1.1155 -0.8983
24179SOL     OW76992   7.522   9.171   0.155  0.4371 -0.0881 -0.0329
24179SOL    HW176993   7.458   9.101   0.147 -0.1275  0.4533 -0.3603
24179SOL    HW276994   7.607   9.129   0.137  0.3177 -1.0338  1.4370
24180SOL     OW76995   0.020   1.753   6.792 -0.0926 -0.2129  0.1723
24180SOL    HW176996   0.050   1.790   6.709 -0.3431  0.1408  0.2388
24180SOL    HW276997   0.013   1.659   6.775 -0.8771 -0.0584 -0.4392
24181SOL     OW76998   9.085   5.374   3.835  0.2915 -0.1994  1.2314
24181SOL    HW176999   9.001   5.416   3.850  1.5260  2.6489  0.8779
24181SOL    HW277000   9.117   5.413   3.754  1.4269 -2.1637  0.6652
24182SOL     OW77001   8.129   4.001   4.001  0.0528  0.1880  0.0449
24182SOL    HW177002   8.195   4.063   4.032  1.3969 -0.1879 -1.8819
24182SOL    HW277003   8.124   4.017   3.906 -2.7812  0.3093  0.1298
24183SOL     OW77004   3.001   3.273   9.087 -0.1838  0.3154 -0.0701
24183SOL    HW177005   2.990   3.295   8.995 -1.9779 -0.0075  0.0293
24183SOL    HW277006   3.026   3.181   9.087 -2.7442 -0.4732 -0.2334
24184SOL     OW77007  10.361   9.573   4.812  0.5537  0.0724 -0.2874
24184SOL    HW177008  10.343   9.514   4.886 -1.8287 -0.8843 -1.5204
24184SOL    HW277009  10.435   9.533   4.766 -1.6951 -2.7735 -1.7449
24185SOL     OW77010   2.978   7.609   4.776 -0.3472  0.4567 -0.5166
24185SOL    HW177011   2.961   7.620   4.683  0.0572  1.7145 -0.4540
24185SOL    HW277012   2.962   7.695   4.814  0.0967  0.1176  0.4776
24186SOL     OW77013   6.327   0.587   1.415 -0.2780 -0.2408  0.3023
24186SOL    HW177014   6.292   0.651   1.352 -1.4469  0.8549  1.9986
24186SOL    HW277015   6.410   0.626   1.445  0.8623 -1.2901 -1.2881
24187SOL     OW77016   4.851   0.082   2.501  0.8149 -0.0867  0.1542
24187SOL    HW177017   4.844   0.165   2.454 -0.0795  0.1432  0.6746
24187SOL    HW277018   4.777   0.031   2.469 -0.7396  0.6375  2.3766
24188SOL     OW77019   7.987   8.021   5.268 -0.0555  1.1573  0.2424
24188SOL    HW177020   7.918   7.977   5.317  1.1930  1.4433  2.3711
24188SOL    HW277021   8.035   7.950   5.225  1.1778  0.4335  2.6305
24189SOL     OW77022  10.916  10.991   2.512 -0.2237  0.3447  0.4967
24189SOL    HW177023  10.980  10.920   2.504  0.3204  0.9176 -0.4043
24189SOL    HW277024  10.833  10.952   2.483  0.0979  0.1090 -0.1295
24190SOL     OW77025   4.552   3.313   9.890  0.1599 -0.6123 -0.3779
24190SOL    HW177026   4.536   3.397   9.846 -0.2329  0.3704  1.5125
24190SOL    HW277027   4.502   3.249   9.839 -0.9447  0.5990 -0.8897
24191SOL     OW77028   7.312   0.796   4.618  0.1184  0.1425 -0.2266
24191SOL    HW177029   7.277   0.879   4.585  1.8632  0.9752 -0.0685
24191SOL    HW277030   7.306   0.804   4.714 -0.0690 -0.0842 -0.2181
24192SOL     OW77031   4.046   2.600   0.052 -0.2780  0.0280  0.3402
24192SOL    HW177032   4.042   2.509   0.024 -2.2215 -0.1449  1.0447
24192SOL    HW277033   4.061   2.595   0.146  3.0672  0.5574 -0.0382
24193SOL     OW77034   8.727   9.696   5.439 -0.8739 -0.4480 -0.2422
24193SOL    HW177035   8.670   9.729   5.508 -1.9073 -1.6011 -0.5097
24193SOL    HW277036   8.708   9.751   5.363  0.9783  1.4750  0.5900
24194SOL     OW77037   3.718  10.884   5.947  0.1484 -0.1937 -0.0218
24194SOL    HW177038   3.735  10.803   5.899  0.5126 -1.0636  1.5027
24194SOL    HW277039   3.623  10.894   5.946  0.2014  1.7723 -3.9406
24195SOL     OW77040   9.151   7.671   5.923 -0.4244  0.1433 -0.1431
24195SOL    HW177041   9.102   7.656   5.842 -0.2247  0.4022 -0.3105
24195SOL    HW277042   9.084   7.673   5.991 -0.5537 -0.5389 -0.2410
24196SOL     OW77043  10.510   5.465   3.817 -0.4857  0.1026 -0.0815
24196SOL    HW177044  10.480   5.553   3.795  0.2146  0.4812  0.4131
24196SOL    HW277045  10.485   5.453   3.908  1.6781  0.8301  0.6689
24197SOL     OW77046   1.022   9.116   2.486  0.3595 -0.3912 -0.4481
24197SOL    HW177047   1.071   9.199   2.485 -0.5346  0.1511 -0.3284
24197SOL    HW277048   1.080   9.054   2.442  1.5425  0.0059  0.4695
24198SOL     OW77049   3.044   4.927   0.919 -0.3545 -0.0047  0.4352
24198SOL    HW177050   3.096   4.915   0.999  0.2916 -0.5380 -0.0469
24198SOL    HW277051   2.974   4.862   0.925  1.0493 -1.7159 -0.4890
24199SOL     OW77052   2.438   3.043   7.199 -0.3532  0.1132  0.0869
24199SOL    HW177053   2.474   2.976   7.257  0.4234 -0.4621 -1.0218
24199SOL    HW277054   2.508   3.107   7.190 -0.8323  0.7103  0.5666
24200SOL     OW77055   3.122   6.039   5.492 -0.7460  0.2198 -0.1947
24200SOL    HW177056   3.108   6.114   5.435  1.8817  0.5447 -0.5264
24200SOL    HW277057   3.172   5.977   5.438 -0.9223 -0.8025  0.7820
24201SOL     OW77058   8.138   9.959   7.445 -0.1474 -0.2287 -0.1422
24201SOL    HW177059   8.136   9.864   7.459  0.4290 -0.0394  1.3258
24201SOL    HW277060   8.230   9.980   7.436 -0.2336  0.2821  0.1723
24202SOL     OW77061   9.620   7.424   3.108 -0.0767  0.3082 -0.1084
24202SOL    HW177062   9.549   7.410   3.046 -0.5809 -0.5702  0.6451
24202SOL    HW277063   9.700   7.412   3.056 -0.4733 -1.8564 -0.3240
24203SOL     OW77064   2.893   4.899   6.175  0.3074 -0.6390 -0.1782
24203SOL    HW177065   2.878   4.976   6.120  1.3854 -0.0183  0.3676
24203SOL    HW277066   2.824   4.837   6.148  0.2247 -0.0006 -1.5436
24204SOL     OW77067   0.146   4.038   9.362  0.6930 -0.7560 -0.3744
24204SOL    HW177068   0.058   4.075   9.365  2.0662  3.0584 -1.2581
24204SOL    HW277069   0.154   3.989   9.444 -1.1371  1.7193  1.4356
24205SOL     OW77070   9.769   8.794   4.515  0.0807  0.0833  0.2076
24205SOL    HW177071   9.773   8.736   4.591 -1.4060  1.8660  1.7459
24205SOL    HW277072   9.749   8.735   4.442 -1.6872 -1.3458  1.7325
24206SOL     OW77073   4.346  10.708   2.962 -0.0432 -0.2708  0.7119
24206SOL    HW177074   4.397  10.786   2.940  0.4902 -0.6945  0.4122
24206SOL    HW277075   4.334  10.662   2.879  0.9767 -1.2833  1.0830
24207SOL     OW77076   5.872   7.103   5.413 -0.3079  0.5721 -0.3733
24207SOL    HW177077   5.884   7.197   5.429 -1.7156  0.4666  1.6876
24207SOL    HW277078   5.957   7.064   5.435 -0.0932  1.2320  0.0015
24208SOL     OW77079   7.935   1.323   1.345 -0.8103  0.0514 -0.4762
24208SOL    HW177080   7.912   1.415   1.360 -1.0659 -0.1424  0.3992
24208SOL    HW277081   7.896   1.277   1.419  1.1586 -0.4791  0.2902
24209SOL     OW77082  10.805   0.536   9.537  0.2620  0.0360  0.7324
24209SOL    HW177083  10.755   0.586   9.473  0.1862 -1.2880 -0.2777
24209SOL    HW277084  10.875   0.595   9.565 -0.7429  1.2443  0.7689
24210SOL     OW77085   1.732   1.910   4.400  0.4595 -0.1745 -0.4572
24210SOL    HW177086   1.648   1.956   4.401  1.7904  2.4578 -0.1418
24210SOL    HW277087   1.768   1.923   4.487  0.9288 -1.8658 -0.3698
24211SOL     OW77088   0.603   2.960   4.120 -0.1385 -0.1110  0.4221
24211SOL    HW177089   0.590   2.865   4.127  1.8988 -0.3419  1.9416
24211SOL    HW277090   0.537   2.988   4.056 -1.5715 -2.3532  0.7806
24212SOL     OW77091   1.747   3.410  10.909  0.1447  0.1705  0.3856
24212SOL    HW177092   1.670   3.353  10.907 -0.2381  0.6625  0.8408
24212SOL    HW277093   1.801   3.374  10.980  0.9423 -0.9206 -0.7164
24213SOL     OW77094   4.602   3.939   7.721 -0.2604  0.5637 -0.3438
24213SOL    HW177095   4.521   3.922   7.769  0.9119  0.7819  1.8658
24213SOL    HW277096   4.647   3.855   7.720 -0.6222  0.3577 -1.8770
24214SOL     OW77097   4.601   1.376  11.070 -0.4807  0.4176 -0.1931
24214SOL    HW177098   4.679   1.360  11.122  0.2620  2.7777 -0.5020
24214SOL    HW277099   4.629   1.434  11.000 -2.0777 -0.4054 -1.6079
24215SOL     OW77100   7.670   7.452   0.275 -0.7909  0.1169  0.2519
24215SOL    HW177101   7.606   7.381   0.273 -0.6376 -0.0949  1.9239
24215SOL    HW277102   7.617   7.531   0.288 -0.8808  0.2075 -0.6235
24216SOL     OW77103  10.185  10.048   9.649  0.0856  0.2192 -0.4352
24216SOL    HW177104  10.208   9.955   9.644 -1.8626 -0.3362 -0.0491
24216SOL    HW277105  10.095  10.048   9.683 -0.9848  2.1160 -2.9935
24217SOL     OW77106   9.892   5.061   1.917 -0.7315  0.0852 -0.4237
24217SOL    HW177107   9.977   5.104   1.909  0.7297 -2.4555  0.3530
24217SOL    HW277108   9.869   5.035   1.828  0.3414 -1.0236 -0.3909
24218SOL     OW77109   1.420   6.462  10.036  0.0792 -0.6713  0.5647
24218SOL    HW177110   1.469   6.519  10.095  1.0298 -0.5953 -0.2646
24218SOL    HW277111   1.372   6.402  10.094 -2.5752  2.1519  1.5769
24219SOL     OW77112   2.851   7.150  10.820 -0.3567  0.0209  0.2905
24219SOL    HW177113   2.772   7.197  10.847 -0.2730  1.2750 -1.4963
24219SOL    HW277114   2.831   7.117  10.732  1.5346  1.5299 -0.7848
24220SOL     OW77115   6.822   3.907   4.423 -0.1776 -0.7564  0.1606
24220SOL    HW177116   6.839   3.841   4.490 -1.5460 -0.3516  0.9410
24220SOL    HW277117   6.836   3.991   4.468 -1.7493 -0.4668  0.1427
24221SOL     OW77118   1.045   0.366   2.582  0.7495 -0.1956 -0.2823
24221SOL    HW177119   1.112   0.299   2.594 -0.3102 -1.2320 -0.0460
24221SOL    HW277120   0.971   0.337   2.635 -0.1436  0.5946 -1.0499
24222SOL     OW77121   7.016   8.191   7.751 -0.5552 -0.1214  0.2470
24222SOL    HW177122   6.992   8.167   7.841 -0.5830 -0.5870  0.1171
24222SOL    HW277123   7.032   8.107   7.707 -1.7770  0.0332 -0.5306
24223SOL     OW77124   1.943   3.287   4.377 -0.4962  0.6086 -0.1584
24223SOL    HW177125   2.014   3.223   4.367 -1.0161  0.1763 -1.2244
24223SOL    HW277126   1.885   3.270   4.303 -0.7814  2.1533 -0.3224
24224SOL     OW77127  10.444   8.562   4.542  0.1633 -0.8784 -0.0073
24224SOL    HW177128  10.433   8.607   4.458  0.9698 -0.9535 -0.1612
24224SOL    HW277129  10.369   8.503   4.547 -0.7239  0.2037  0.0353
24225SOL     OW77130   2.529   3.649   1.398 -0.6268  0.5886 -0.4882
24225SOL    HW177131   2.517   3.558   1.425 -0.5897  0.7966  0.2413
24225SOL    HW277132   2.454   3.695   1.434 -0.9421  0.7552 -1.3331
24226SOL     OW77133   8.040  10.357   7.048  0.3905 -0.2016 -0.5868
24226SOL    HW177134   8.097  10.376   7.123 -1.8717 -1.4560  1.5912
24226SOL    HW277135   8.092  10.298   6.993  2.5203  1.6306 -0.6798
24227SOL     OW77136   9.806   2.891   3.433  0.4924 -0.0559 -0.8970
24227SOL    HW177137   9.844   2.907   3.346  1.2315  0.0058 -0.5775
24227SOL    HW277138   9.874   2.923   3.494 -0.8300  1.8028 -0.3017
24228SOL     OW77139   7.876   9.829   9.881 -0.1899 -0.1825  0.0628
24228SOL    HW177140   7.927   9.895   9.833 -0.8359 -0.4568 -1.0390
24228SOL    HW277141   7.942   9.777   9.926  0.4049  0.4796 -0.0107
24229SOL     OW77142   9.105   8.047   5.211 -0.0179  0.4637 -0.2508
24229SOL    HW177143   9.177   8.022   5.153 -0.1993 -1.8090  0.4142
24229SOL    HW277144   9.077   7.965   5.252 -2.0391  1.5055  0.6134
24230SOL     OW77145   3.388   0.497  10.421 -0.2721  0.0447  0.0163
24230SOL    HW177146   3.384   0.575  10.475 -1.1655 -1.0519  1.6127
24230SOL    HW277147   3.321   0.510  10.354 -2.2726 -0.3984  1.8212
24231SOL     OW77148   3.152   6.572   4.334 -0.1911 -0.0865  0.2470
24231SOL    HW177149   3.129   6.491   4.379  1.8705 -1.8186 -1.6069
24231SOL    HW277150   3.234   6.600   4.376 -0.4726  0.5957  0.3435
24232SOL     OW77151  10.587   2.584   1.267 -0.5149  0.6301  0.7756
24232SOL    HW177152  10.492   2.583   1.254 -0.4763  0.6996  0.4851
24232SOL    HW277153  10.600   2.539   1.350 -0.7888  0.4570  0.7255
24233SOL     OW77154   7.325  11.023   0.160 -0.1602 -0.0446 -0.3202
24233SOL    HW177155   7.351  10.953   0.220 -0.8579 -0.5381 -0.5774
24233SOL    HW277156   7.401  11.035   0.103  0.0611 -0.4090 -0.1079
24234SOL     OW77157   0.402   7.927   2.125  0.2184  0.1652 -0.7638
24234SOL    HW177158   0.443   8.013   2.112 -0.6982  0.4676 -1.8114
24234SOL    HW277159   0.462   7.881   2.183  0.6541  1.5694 -0.0475
24235SOL     OW77160   5.270   9.314   4.245  0.0370  0.1684 -0.7044
24235SOL    HW177161   5.264   9.409   4.236  0.9148  0.2173 -0.8111
24235SOL    HW277162   5.315   9.300   4.329 -0.2199 -0.1539 -0.6168
24236SOL     OW77163   8.011   0.451   6.314  0.2236 -0.2277 -1.2376
24236SOL    HW177164   8.008   0.500   6.396 -1.4882  2.9363 -2.9547
24236SOL    HW277165   8.085   0.391   6.324  0.6391  0.6460  2.2224
24237SOL     OW77166   0.287   5.097   7.451  0.3824  0.6186 -1.0131
24237SOL    HW177167   0.201   5.127   7.421  0.0582 -0.6138 -1.3731
24237SOL    HW277168   0.304   5.150   7.530 -1.4239 -0.1860 -0.0136
24238SOL     OW77169   3.707   0.520   9.859  0.2616 -0.2153  0.2181
24238SOL    HW177170   3.694   0.614   9.850 -1.0756 -0.4610 -0.8269
24238SOL    HW277171   3.632   0.481   9.813 -0.5345 -1.7785  2.6372
24239SOL     OW77172   4.075   4.151   7.265 -0.6079 -0.5693 -0.0641
24239SOL    HW177173   4.145   4.086   7.274 -0.5912 -0.8273 -1.6832
24239SOL    HW277174   4.081   4.180   7.174 -1.6546  0.5261  0.1875
24240SOL     OW77175   7.481   2.631  10.279 -0.0326  0.0169  0.1461
24240SOL    HW177176   7.514   2.657  10.193 -2.6080 -1.9439 -1.5741
24240SOL    HW277177   7.386   2.640  10.273 -0.3272 -0.6524  2.6274
24241SOL     OW77178   3.616   8.341   4.565  0.1808  0.5472  0.1909
24241SOL    HW177179   3.661   8.291   4.497  1.2779 -0.3698  1.5230
24241SOL    HW277180   3.547   8.282   4.597 -1.3991  1.5808 -1.1729
24242SOL     OW77181   5.824  10.075   3.908 -0.2441  0.4620 -0.3610
24242SOL    HW177182   5.876  10.148   3.875  0.2633  0.7399  0.9906
24242SOL    HW277183   5.826  10.010   3.837  0.3211  1.2499 -1.0904
24243SOL     OW77184   8.806   6.995   8.286  0.3434 -0.1031  0.2500
24243SOL    HW177185   8.887   6.952   8.314 -0.1548 -1.2216  0.0421
24243SOL    HW277186   8.766   7.027   8.367  1.0327  0.5506  0.3443
24244SOL     OW77187   9.492   9.909   7.771 -0.2440  0.7091  0.1450
24244SOL    HW177188   9.422   9.890   7.835 -0.4022 -0.3505 -0.3135
24244SOL    HW277189   9.529   9.823   7.751  0.1147  1.0824 -0.8389
24245SOL     OW77190   6.539   1.559   2.711  0.0339 -0.3408 -0.2292
24245SOL    HW177191   6.482   1.483   2.721  0.6050 -0.6451  0.8866
24245SOL    HW277192   6.513   1.618   2.782  0.1929  0.1265 -0.5515
24246SOL     OW77193   7.406   1.542   8.237 -0.4416  0.3009  0.1154
24246SOL    HW177194   7.334   1.526   8.175 -1.1143 -1.7525  1.3204
24246SOL    HW277195   7.378   1.618   8.287 -0.7183  0.8839 -0.8933
24247SOL     OW77196   7.610   9.024  10.025  0.4897 -0.7252  0.0822
24247SOL    HW177197   7.703   9.013  10.004  1.3113 -1.8989  3.5191
24247SOL    HW277198   7.568   9.042   9.942  3.7956 -0.1015 -1.6280
24248SOL     OW77199   6.277   7.216   3.584 -0.0008 -0.0349  0.4388
24248SOL    HW177200   6.182   7.218   3.594 -0.1883 -0.4999 -0.9988
24248SOL    HW277201   6.311   7.225   3.673 -1.3744  0.6704  0.9196
24249SOL     OW77202   8.548   3.025  10.795 -0.0854 -0.2432 -0.0103
24249SOL    HW177203   8.490   2.982  10.733 -1.6565  0.3135  1.0217
24249SOL    HW277204   8.588   3.097  10.746  1.2863 -1.7785 -1.2723
24250SOL     OW77205   9.033   3.861   2.249 -0.6217 -0.3545 -0.6043
24250SOL    HW177206   9.102   3.799   2.274 -0.5304  0.5068  1.4355
24250SOL    HW277207   9.009   3.835   2.160  1.8106 -1.1549 -1.1049
24251SOL     OW77208   7.906   4.253   8.242 -0.0517 -0.3080 -0.1341
24251SOL    HW177209   7.842   4.304   8.292 -1.0713 -1.6792  0.0064
24251SOL    HW277210   7.959   4.319   8.197 -0.2030  0.9112  1.4020
24252SOL     OW77211   8.163   6.269   1.791  0.1099 -0.0750 -0.0809
24252SOL    HW177212   8.126   6.181   1.803  0.7478 -0.4573 -0.8201
24252SOL    HW277213   8.200   6.267   1.703 -0.7935  1.2842 -0.5291
24253SOL     OW77214   1.008   6.177   4.044  0.2192 -0.3452  0.1922
24253SOL    HW177215   0.948   6.105   4.030  0.1872 -0.1430 -0.7858
24253SOL    HW277216   1.041   6.199   3.957  0.4603  0.6167  0.5052
24254SOL     OW77217  11.000   4.202   5.709  0.0260  0.2122  0.7513
24254SOL    HW177218  10.950   4.211   5.628 -0.5727  0.8952  1.1832
24254SOL    HW277219  10.964   4.123   5.751  2.2888 -1.8551 -0.9684
24255SOL     OW77220   0.693   2.967   3.592 -0.0158 -0.6553  0.4468
24255SOL    HW177221   0.699   3.019   3.512 -1.3177  1.0387  1.3749
24255SOL    HW277222   0.717   2.878   3.565  1.4266  0.2165 -1.3999
24256SOL     OW77223   6.462  10.173   2.727  0.0153 -0.3348 -0.6933
24256SOL    HW177224   6.387  10.186   2.786 -0.0711  0.9130 -1.0681
24256SOL    HW277225   6.455  10.081   2.702 -1.8040 -0.0891 -1.2448
24257SOL     OW77226   3.989  10.620   5.910  0.2754  0.2828 -0.0462
24257SOL    HW177227   3.910  10.578   5.878  0.9735 -0.9757 -0.1717
24257SOL    HW277228   4.016  10.679   5.839  0.2468 -0.3711 -0.6024
24258SOL     OW77229   7.158   6.860   3.317 -0.0004 -0.1611 -0.5958
24258SOL    HW177230   7.243   6.817   3.327  0.0607  0.2365  0.8285
24258SOL    HW277231   7.179   6.953   3.306 -0.2593  0.0354  0.4941
24259SOL     OW77232   2.117   8.015   0.701  0.2756  0.0002 -0.3086
24259SOL    HW177233   2.030   7.988   0.672 -0.7570  2.2218  0.5146
24259SOL    HW277234   2.106   8.036   0.794  1.1077  2.4383 -0.6955
24260SOL     OW77235   0.583   1.935   8.703 -0.0909  0.3793  0.4713
24260SOL    HW177236   0.489   1.951   8.707 -0.7708 -1.2599 -3.5435
24260SOL    HW277237   0.622   2.021   8.692 -1.4542  0.9019 -0.5507
24261SOL     OW77238   2.094   9.844   1.589  0.1690 -0.3237  0.1145
24261SOL    HW177239   2.170   9.893   1.622  1.0427 -0.8909 -0.9676
24261SOL    HW277240   2.132   9.780   1.528 -1.0408 -1.6758  0.7333
24262SOL     OW77241   3.542  10.456   0.661 -0.1628  0.2623 -0.1947
24262SOL    HW177242   3.585  10.461   0.746 -0.9683  1.2733  0.1867
24262SOL    HW277243   3.530  10.548   0.636 -0.4261 -0.0228 -1.1430
24263SOL     OW77244   8.345   2.799   7.037 -0.2216  0.1832 -0.1090
24263SOL    HW177245   8.338   2.890   7.006  0.3052  0.0751 -0.5741
24263SOL    HW277246   8.293   2.796   7.116 -2.1868  0.3135 -1.3326
24264SOL     OW77247   5.747  10.534   0.572  0.0488 -0.1192  0.6781
24264SOL    HW177248   5.690  10.484   0.630  0.6762  0.7510  2.1245
24264SOL    HW277249   5.738  10.493   0.486 -2.9381  0.1318  0.7670
24265SOL     OW77250   8.128   6.623   8.209 -0.0544 -0.0376 -0.0593
24265SOL    HW177251   8.138   6.714   8.236 -0.6821 -0.7439  2.9948
24265SOL    HW277252   8.078   6.583   8.280 -1.9403 -2.2691 -2.4545
24266SOL     OW77253   3.640  10.817   3.661  0.5234  0.5734  0.0172
24266SOL    HW177254   3.574  10.785   3.600  0.7071 -0.0966  0.1685
24266SOL    HW277255   3.592  10.836   3.741  0.4994  0.1882  0.0927
24267SOL     OW77256   0.696   0.481   3.573  0.0226  0.1484  0.2160
24267SOL    HW177257   0.693   0.416   3.643  1.8128  1.0151  1.1554
24267SOL    HW277258   0.615   0.531   3.583 -0.6255 -0.9312  0.4660
24268SOL     OW77259   1.273   6.141   4.635 -0.2454 -0.5193  0.1499
24268SOL    HW177260   1.352   6.115   4.683  1.4365  2.2507 -0.8962
24268SOL    HW277261   1.274   6.086   4.556 -0.5654 -1.9160  1.0664
24269SOL     OW77262   6.414   3.618  10.392 -0.4241 -0.3722 -0.0487
24269SOL    HW177263   6.432   3.540  10.339  0.8825  0.5883 -1.0810
24269SOL    HW277264   6.499   3.643  10.427 -1.0630 -0.1996  1.4310
24270SOL     OW77265  10.317   0.730   3.257 -0.4335  0.5161  0.7622
24270SOL    HW177266  10.227   0.705   3.278 -0.7377  0.2796 -0.6991
24270SOL    HW277267  10.308   0.811   3.207 -0.0137 -0.4941 -1.0510
24271SOL     OW77268   5.338   6.190   5.820 -0.1590 -0.6950 -0.5127
24271SOL    HW177269   5.419   6.238   5.833 -1.6560  1.9770 -0.4455
24271SOL    HW277270   5.299   6.184   5.907 -2.0994  2.1277 -1.0466
24272SOL     OW77271   9.291   3.038   6.294 -0.2264 -0.0156 -0.0368
24272SOL    HW177272   9.314   3.002   6.209 -0.4989 -0.0312 -0.1058
24272SOL    HW277273   9.375   3.052   6.338 -0.0977 -0.2624 -0.2016
24273SOL     OW77274   9.484  10.667   1.530  0.0840 -0.0503 -0.3045
24273SOL    HW177275   9.495  10.663   1.625 -1.7157 -2.1498 -0.0897
24273SOL    HW277276   9.551  10.606   1.496  1.4928  1.5444 -0.5469
24274SOL     OW77277   6.786   2.719   2.053 -0.1785  0.4126 -0.1550
24274SOL    HW177278   6.760   2.634   2.087 -0.6091  0.2924 -0.7604
24274SOL    HW277279   6.834   2.700   1.973 -0.3098  0.7392 -0.3154
24275SOL     OW77280   4.714   2.513   2.260  0.0103 -0.1989  0.1525
24275SOL    HW177281   4.748   2.553   2.180 -0.3068 -0.2903 -0.0288
24275SOL    HW277282   4.743   2.422   2.254  1.4390  0.1673  0.9578
24276SOL     OW77283   8.401   6.785   0.622  0.7037 -0.2180  0.1048
24276SOL    HW177284   8.460   6.827   0.684 -1.1722  1.2473  0.9850
24276SOL    HW277285   8.417   6.830   0.539  0.3040  0.6937  0.5178
24277SOL     OW77286   2.653   2.111   6.081 -0.1821 -0.1494 -0.4196
24277SOL    HW177287   2.558   2.101   6.092 -0.1493 -1.1888 -0.9497
24277SOL    HW277288   2.685   2.022   6.069  1.0429  0.0698  0.9632
24278SOL     OW77289   6.255   8.194   9.116 -0.1928 -0.0376 -0.8353
24278SOL    HW177290   6.350   8.200   9.111 -0.1043 -0.6103 -0.0122
24278SOL    HW277291   6.236   8.101   9.102 -0.5943 -0.0143 -0.4544
24279SOL     OW77292   9.146   8.191   4.685  0.2303 -0.6135 -0.2514
24279SOL    HW177293   9.072   8.178   4.745  0.4539 -2.8257 -0.3625
24279SOL    HW277294   9.162   8.285   4.687 -1.7947 -0.2339  0.7178
24280SOL     OW77295   2.867   4.583   1.859  0.1238  0.0404  0.0484
24280SOL    HW177296   2.792   4.566   1.803 -0.3488 -0.2395  0.7479
24280SOL    HW277297   2.896   4.672   1.835 -0.5194  0.2078 -0.1206
24281SOL     OW77298   7.666  10.526   3.128  0.5899  0.3127  0.0976
24281SOL    HW177299   7.693  10.588   3.061  1.2624 -0.6864 -0.5853
24281SOL    HW277300   7.640  10.448   3.079  2.3485 -0.9143  1.0064
24282SOL     OW77301  10.367   1.566   2.992 -0.2179 -0.5885 -0.1964
24282SOL    HW177302  10.343   1.480   3.027  0.4009 -1.7478 -2.4243
24282SOL    HW277303  10.434   1.547   2.925 -1.3279  1.4355 -2.0137
24283SOL     OW77304   8.529   5.324   9.756 -0.5166  0.0273 -0.3656
24283SOL    HW177305   8.451   5.315   9.702 -1.0581  0.4680  0.3302
24283SOL    HW277306   8.538   5.239   9.799  0.9179 -0.9480 -2.4200
24284SOL     OW77307  10.577   0.995   5.093 -0.2083 -0.2062 -0.1742
24284SOL    HW177308  10.616   1.035   5.171 -0.8052 -1.5570  0.8712
24284SOL    HW277309  10.574   1.065   5.029  1.3128  0.6691  0.6522
24285SOL     OW77310   9.601   5.895   5.903  0.1617  0.2839 -0.1706
24285SOL    HW177311   9.655   5.965   5.866 -0.7311  0.3037 -1.5176
24285SOL    HW277312   9.646   5.869   5.984  1.2626  1.4304 -0.3946
24286SOL     OW77313  10.154   8.626   7.476  0.2953 -0.2202 -0.1446
24286SOL    HW177314  10.234   8.666   7.441  0.1421 -0.4436 -0.7626
24286SOL    HW277315  10.083   8.672   7.430  0.0627  0.0993  0.5308
24287SOL     OW77316  10.460   8.173   8.999 -0.5743 -0.7401 -0.2120
24287SOL    HW177317  10.504   8.163   9.083  0.0705  1.0800 -0.2898
24287SOL    HW277318  10.415   8.257   9.005  2.1769  1.1386 -2.7686
24288SOL     OW77319   2.241   9.743  10.517 -0.2511 -0.4756  0.1076
24288SOL    HW177320   2.324   9.709  10.550  0.5530  2.1506  1.0450
24288SOL    HW277321   2.264   9.788  10.436 -0.6944  0.4996  0.5149
24289SOL     OW77322   8.526   2.851   9.483 -0.0724 -0.2795  0.6726
24289SOL    HW177323   8.605   2.804   9.511 -0.7900 -2.3859 -0.5433
24289SOL    HW277324   8.483   2.874   9.564  1.4488  0.3178  1.3531
24290SOL     OW77325   2.363  10.394   9.674 -0.1671  0.0159  0.2567
24290SOL    HW177326   2.354  10.370   9.582  1.8389  1.4260 -0.3700
24290SOL    HW277327   2.377  10.310   9.719  0.7534 -0.5406 -1.0012
24291SOL     OW77328   3.573   6.956   7.061 -0.4137  0.8423  0.3385
24291SOL    HW177329   3.490   6.911   7.071 -0.3376  0.6212 -0.0224
24291SOL    HW277330   3.639   6.889   7.078 -0.2764  0.5299 -1.2426
24292SOL     OW77331   3.047   1.303   2.214  0.0584  0.0523  0.1730
24292SOL    HW177332   3.011   1.256   2.290 -0.3707 -2.2112 -1.3286
24292SOL    HW277333   2.976   1.301   2.149  1.8554 -2.1736 -1.9082
24293SOL     OW77334   7.910   3.413   0.586 -0.4691  0.5254 -0.1479
24293SOL    HW177335   7.932   3.320   0.583 -0.3149  0.5482  0.1681
24293SOL    HW277336   7.826   3.417   0.632 -0.2627  0.5708  0.2368
24294SOL     OW77337   2.108   2.294   2.834 -0.5271 -0.0707 -0.2024
24294SOL    HW177338   2.112   2.251   2.748  0.7028 -1.2321  0.3997
24294SOL    HW277339   2.197   2.286   2.868 -0.6435  1.6690  0.5841
24295SOL     OW77340   5.452   4.670   2.213 -0.1836 -0.3955 -0.3464
24295SOL    HW177341   5.396   4.604   2.255  1.4111  0.2705  3.2181
24295SOL    HW277342   5.424   4.753   2.252  1.8399  0.1990 -0.0643
24296SOL     OW77343  10.537   3.535   2.694 -0.1405  0.1874  0.3234
24296SOL    HW177344  10.601   3.606   2.682 -0.2487  0.3791  0.8883
24296SOL    HW277345  10.454   3.573   2.668 -0.2161  0.3012  0.7295
24297SOL     OW77346   4.633   3.116   8.757  0.4020 -0.7577 -0.0825
24297SOL    HW177347   4.618   3.203   8.792  0.6232 -1.3995  1.6845
24297SOL    HW277348   4.574   3.110   8.682 -0.6388  0.4027  0.6158
24298SOL     OW77349  10.177   2.883   3.750 -0.2059 -0.3220 -0.3752
24298SOL    HW177350  10.206   2.937   3.823  1.5667 -1.3115 -0.2967
24298SOL    HW277351  10.257   2.862   3.702 -1.4945  2.4621 -4.2622
24299SOL     OW77352  10.668   9.831   1.148 -0.4028 -0.6933 -0.0435
24299SOL    HW177353  10.684   9.864   1.060 -3.5458  0.5789 -0.2989
24299SOL    HW277354  10.716   9.748   1.152  1.8579  0.3910 -1.9992
24300SOL     OW77355   8.917  10.459   6.020  0.1368 -0.2082 -0.4462
24300SOL    HW177356   8.903  10.382   6.075 -0.8705  0.3244  0.0727
24300SOL    HW277357   8.951  10.424   5.938  1.2239 -1.0526  0.3362
24301SOL     OW77358   6.142   7.958   5.529  0.9537 -0.6394  0.4132
24301SOL    HW177359   6.218   7.975   5.474  0.1782  1.0878 -0.1903
24301SOL    HW277360   6.114   8.044   5.558 -1.1483 -1.1684  0.0997
24302SOL     OW77361  10.174   1.394   1.645 -0.8147 -0.4605  0.2438
24302SOL    HW177362  10.084   1.360   1.647 -1.2706  0.6489 -0.5759
24302SOL    HW277363  10.176   1.452   1.569  0.7069 -0.7316  0.0537
24303SOL     OW77364  10.198  10.291   3.132  0.2396 -0.3065 -0.4758
24303SOL    HW177365  10.117  10.334   3.160  1.0070  1.7375 -1.2229
24303SOL    HW277366  10.173  10.245   3.052 -0.1254  0.5623 -0.8744
24304SOL     OW77367   1.842   0.268   5.355 -0.4599 -0.2956  0.0311
24304SOL    HW177368   1.931   0.233   5.357 -0.6620 -1.9126 -4.9929
24304SOL    HW277369   1.844   0.332   5.284 -3.1850  0.0548  0.1796
24305SOL     OW77370   4.245  10.201   5.466  0.0165  0.0627  0.2482
24305SOL    HW177371   4.340  10.197   5.453  0.0498  2.7742 -0.9733
24305SOL    HW277372   4.208  10.183   5.379 -0.4948  1.0591  0.2467
24306SOL     OW77373   7.810   0.720   9.330 -0.3203 -0.1983  0.1513
24306SOL    HW177374   7.793   0.734   9.423 -0.5320  0.1652  0.0572
24306SOL    HW277375   7.729   0.746   9.286 -0.2118 -0.3406 -0.1391
24307SOL     OW77376   5.413   2.498   3.761 -0.8397 -0.5994  0.7928
24307SOL    HW177377   5.436   2.475   3.851 -0.3723 -1.4480  0.4634
24307SOL    HW277378   5.326   2.538   3.768  0.1489  1.4746  1.8969
24308SOL     OW77379  10.125   0.630   8.472  0.4350  0.1545  0.4382
24308SOL    HW177380  10.171   0.644   8.389  1.1748 -1.2299  0.5904
24308SOL    HW277381  10.071   0.552   8.456 -1.8331  1.6528  0.2975
24309SOL     OW77382   1.693   8.517   3.120 -0.1816 -0.3097 -0.0855
24309SOL    HW177383   1.706   8.538   3.028  0.6735  0.8030  0.2688
24309SOL    HW277384   1.774   8.476   3.148  0.3540  1.1457  0.6295
24310SOL     OW77385   7.503   9.821   2.500  0.6788 -0.1789 -0.0700
24310SOL    HW177386   7.553   9.859   2.572 -0.2115  0.3365  0.2863
24310SOL    HW277387   7.459   9.745   2.538  0.0247  0.2297 -0.0098
24311SOL     OW77388   7.280   6.836   9.817  0.8868  0.0697  0.0423
24311SOL    HW177389   7.306   6.916   9.770  0.2275  0.0461 -0.3803
24311SOL    HW277390   7.207   6.802   9.766  2.3631 -1.8782 -0.8919
24312SOL     OW77391   6.527   7.807  10.933 -0.0237  0.0741  0.0141
24312SOL    HW177392   6.617   7.819  10.963  0.3704 -0.8359 -0.7843
24312SOL    HW277393   6.517   7.870  10.862  0.0355  0.0365 -0.0270
24313SOL     OW77394   5.024   5.944   2.417  0.2962  0.4631 -0.0269
24313SOL    HW177395   5.112   5.979   2.429  0.5732 -0.4075  0.5917
24313SOL    HW277396   5.037   5.850   2.403 -0.3924  0.6411 -2.1856
24314SOL     OW77397  10.371   0.636   9.275 -0.3688  0.0427  0.1441
24314SOL    HW177398  10.355   0.647   9.182  0.0637 -1.5716 -0.1628
24314SOL    HW277399  10.284   0.618   9.313 -0.4993  0.3719 -0.0004
24315SOL     OW77400   2.015   3.235   2.878 -0.4928 -0.2262 -0.2093
24315SOL    HW177401   2.077   3.187   2.932  0.0605  1.3855  0.6246
24315SOL    HW277402   2.047   3.325   2.877 -1.7311  0.2422 -1.3959
24316SOL     OW77403   5.931   7.063   2.522 -0.0037  0.1720  0.5734
24316SOL    HW177404   6.005   7.115   2.491  0.6800 -0.4421  1.1419
24316SOL    HW277405   5.969   6.978   2.545 -1.0178 -0.4092  0.1415
24317SOL     OW77406   7.303   8.647   3.062 -0.5868 -0.3519 -0.2969
24317SOL    HW177407   7.321   8.716   2.998  0.5945 -1.0342 -0.7321
24317SOL    HW277408   7.243   8.688   3.125 -0.6585  0.7688 -1.0620
24318SOL     OW77409   7.073  10.637   8.161  0.3325  0.4436  0.0387
24318SOL    HW177410   7.112  10.694   8.095 -0.2550  0.6841 -0.1090
24318SOL    HW277411   7.023  10.696   8.217 -0.3185  0.0769 -0.1432
24319SOL     OW77412   9.194   5.941   6.397 -0.2916 -0.5457 -0.3262
24319SOL    HW177413   9.259   5.912   6.332 -0.4008 -1.5715 -0.0024
24319SOL    HW277414   9.166   5.860   6.440 -0.7319  0.0451  0.5237
24320SOL     OW77415   6.963   4.026   3.302 -1.5423 -0.2777  0.2898
24320SOL    HW177416   6.980   4.054   3.392 -0.7688  0.1436  0.0213
24320SOL    HW277417   7.022   4.079   3.249 -1.3891 -1.1268 -0.4029
24321SOL     OW77418   1.139   4.288   6.227 -0.1141  0.3595  0.2381
24321SOL    HW177419   1.149   4.193   6.214  0.2383  0.4963 -0.5181
24321SOL    HW277420   1.112   4.322   6.142  0.5338  1.0450  0.2971
24322SOL     OW77421   5.538   9.831  10.704  0.0025 -0.3511  0.5415
24322SOL    HW177422   5.603   9.801  10.767  1.0167 -1.8889 -1.1241
24322SOL    HW277423   5.520   9.754  10.650 -2.3206  0.3839  0.1815
24323SOL     OW77424   0.562   7.956   9.003  0.1998  0.0248  0.2099
24323SOL    HW177425   0.510   8.022   9.048 -0.9464  0.5054 -1.7163
24323SOL    HW277426   0.596   8.000   8.925  1.4685 -0.9849  0.1481
24324SOL     OW77427   6.772   6.680   5.599  0.2392 -0.1196 -0.1532
24324SOL    HW177428   6.751   6.597   5.641  1.0485  0.5290  1.6437
24324SOL    HW277429   6.863   6.697   5.623 -0.2017  1.7357  0.3897
24325SOL     OW77430   7.414   4.163   4.859 -0.4650 -0.6525 -0.3337
24325SOL    HW177431   7.383   4.074   4.839 -1.1072 -0.2585 -1.1311
24325SOL    HW277432   7.492   4.174   4.804 -0.0083 -0.9393  0.2384
24326SOL     OW77433   1.137   9.510   9.153  0.3279 -0.2789 -0.4471
24326SOL    HW177434   1.217   9.562   9.155  0.4586 -0.4004  2.5112
24326SOL    HW277435   1.163   9.424   9.184 -0.8666 -0.4410  0.1853
24327SOL     OW77436   0.686   9.961   8.925 -0.6286  0.0035 -0.1519
24327SOL    HW177437   0.742  10.039   8.924  0.0409 -0.4569 -1.7914
24327SOL    HW277438   0.728   9.902   8.987  0.2366  0.0101 -0.7149
24328SOL     OW77439  10.021   3.270   5.492  0.4654  0.0963  0.5214
24328SOL    HW177440   9.984   3.272   5.580  0.7140 -0.5271  0.6465
24328SOL    HW277441   9.949   3.238   5.437  0.9469 -1.6288  0.8468
24329SOL     OW77442  10.105  10.183   9.386  0.0058 -0.0213  0.2287
24329SOL    HW177443  10.144  10.135   9.458 -2.0088 -2.2006 -0.0161
24329SOL    HW277444  10.012  10.191   9.409 -0.5746 -0.2248 -1.7767
24330SOL     OW77445  10.871   3.963   9.079 -0.2587  0.2549 -0.5347
24330SOL    HW177446  10.919   4.010   9.010  0.5467  1.8223  1.0083
24330SOL    HW277447  10.902   3.873   9.073  0.9222  0.6848 -1.2802
24331SOL     OW77448   6.427   8.331   5.636 -0.2797 -0.0808 -0.4642
24331SOL    HW177449   6.407   8.256   5.691 -1.9477  0.3592 -0.4003
24331SOL    HW277450   6.515   8.314   5.602 -1.0301 -2.6246 -1.3511
24332SOL     OW77451   7.586   4.086   7.456  0.1590  0.1373  0.4095
24332SOL    HW177452   7.534   4.007   7.444  1.4828 -0.9824  1.6205
24332SOL    HW277453   7.536   4.140   7.516 -0.2909 -0.2363  0.3739
24333SOL     OW77454   5.260   6.202   9.666  0.6495  0.0513 -0.1093
24333SOL    HW177455   5.179   6.237   9.703 -1.4563 -2.2595 -2.1364
24333SOL    HW277456   5.286   6.134   9.728  0.6920  0.3716  0.2278
24334SOL     OW77457   4.474   5.835   8.601  0.3759 -1.2151  0.6071
24334SOL    HW177458   4.412   5.839   8.528 -0.1875  0.3471  1.1364
24334SOL    HW277459   4.559   5.825   8.558  0.4946  2.9483 -0.6402
24335SOL     OW77460   2.037   1.618   7.303 -0.2364 -0.1771  1.3825
24335SOL    HW177461   2.037   1.523   7.305  0.5103 -0.4728 -2.6998
24335SOL    HW277462   1.950   1.642   7.270 -0.1141  0.4779  1.5169
24336SOL     OW77463   1.123   4.343   4.939  0.2008  0.3687  0.0560
24336SOL    HW177464   1.077   4.425   4.919 -0.8751  0.0705  1.1705
24336SOL    HW277465   1.146   4.351   5.032  2.2568  0.4119 -0.4201
24337SOL     OW77466   3.493   2.060   4.285 -0.5189 -0.0729 -0.0511
24337SOL    HW177467   3.418   2.106   4.247 -0.4341 -0.3410 -0.5412
24337SOL    HW277468   3.526   2.005   4.215  0.3289  0.2708  0.0679
24338SOL     OW77469   9.354   7.866   0.062  0.1811  0.5158  0.1447
24338SOL    HW177470   9.395   7.811   0.128  0.2242  0.0884 -0.2395
24338SOL    HW277471   9.380   7.828  -0.022  1.0695  1.7130 -0.1564
24339SOL     OW77472   6.976   8.843  10.568  0.0032 -0.9101  0.0158
24339SOL    HW177473   6.984   8.935  10.593  0.2394 -1.2126  1.0658
24339SOL    HW277474   6.992   8.843  10.474  1.0934 -0.0237  0.1861
24340SOL     OW77475   2.332   1.478   0.258  0.0019  0.2664 -0.3782
24340SOL    HW177476   2.276   1.473   0.336  0.8942 -0.3998  0.2333
24340SOL    HW277477   2.303   1.405   0.203  0.4577 -0.2683  0.0772
24341SOL     OW77478   9.949   6.524   0.567  0.4486  0.5542  0.0472
24341SOL    HW177479   9.887   6.489   0.631 -0.2611  0.2781 -0.7738
24341SOL    HW277480   9.999   6.448   0.539  0.5069  0.6085  0.0055
24342SOL     OW77481   6.528   8.890  10.034  0.2423  0.0452  0.4060
24342SOL    HW177482   6.454   8.949  10.015 -0.1064 -0.1484  1.1198
24342SOL    HW277483   6.519   8.820   9.970  1.4755  1.4389 -1.3824
24343SOL     OW77484   8.471   3.841   4.046 -0.7009 -0.2295 -0.1127
24343SOL    HW177485   8.447   3.868   3.957  2.0303  0.5237 -0.7328
24343SOL    HW277486   8.470   3.922   4.097  1.0696 -0.0149 -0.3550
24344SOL     OW77487   4.370   1.640   6.900 -0.0933  0.2835 -0.3605
24344SOL    HW177488   4.393   1.680   6.817  0.9799  1.4694  0.4761
24344SOL    HW277489   4.454   1.617   6.940 -0.6265 -1.2911 -0.0711
24345SOL     OW77490   0.119   4.142   8.577 -0.3050 -0.0076  0.3180
24345SOL    HW177491   0.187   4.116   8.515 -1.5609  1.2172 -1.6830
24345SOL    HW277492   0.142   4.097   8.658  1.3692 -1.7610 -1.0355
24346SOL     OW77493  10.532   0.488   5.664  0.6145 -0.2129 -0.0276
24346SOL    HW177494  10.524   0.423   5.733 -0.7455  0.3202  0.3334
24346SOL    HW277495  10.479   0.562   5.693 -0.6105 -0.2554 -1.9493
24347SOL     OW77496   4.846   1.404   7.398 -0.0079  0.6125  0.5783
24347SOL    HW177497   4.787   1.331   7.381  2.3130 -0.7960 -2.3132
24347SOL    HW277498   4.896   1.378   7.476 -1.8521  1.0312  1.9730
24348SOL     OW77499   1.242   7.753   4.581 -0.4004 -0.3928  0.0749
24348SOL    HW177500   1.258   7.813   4.654  2.5819  0.0798 -0.8369
24348SOL    HW277501   1.195   7.680   4.620 -0.5022  0.6616  2.0659
24349SOL     OW77502   6.659   0.992   4.373 -0.2976 -0.9055 -0.7198
24349SOL    HW177503   6.697   1.070   4.331 -0.7483  0.5287  1.3531
24349SOL    HW277504   6.574   1.022   4.406  0.7936 -1.2311  2.8510
24350SOL     OW77505   9.222   0.701   1.638  0.0484 -0.6975 -0.3625
24350SOL    HW177506   9.204   0.793   1.623  0.7188  0.1621  3.1657
24350SOL    HW277507   9.136   0.661   1.647 -0.2307 -0.0246 -0.0055
24351SOL     OW77508   6.883   1.241   1.356  0.0091  0.0884  0.3407
24351SOL    HW177509   6.875   1.290   1.275  0.5386  1.0315  0.8507
24351SOL    HW277510   6.796   1.203   1.369 -0.4014  0.8548 -0.0822
24352SOL     OW77511   6.597   4.630   6.823  0.3455  0.0047  0.6076
24352SOL    HW177512   6.583   4.552   6.770  1.9634  0.9371 -1.2834
24352SOL    HW277513   6.647   4.598   6.899  1.7457 -0.6820 -0.5667
24353SOL     OW77514   7.731   7.134   9.696 -0.3504  0.2185 -0.0362
24353SOL    HW177515   7.688   7.205   9.742 -0.5879 -0.0091  0.0961
24353SOL    HW277516   7.795   7.099   9.758  0.8565  1.3052 -0.6346
24354SOL     OW77517   3.861  10.526   8.840 -0.3424 -0.2798 -0.1265
24354SOL    HW177518   3.796  10.456   8.851 -1.5458  0.9752  1.1538
24354SOL    HW277519   3.816  10.605   8.869  0.7022  1.2117 -2.2917
24355SOL     OW77520   2.763   8.226   4.832  0.7174 -0.4801 -0.0037
24355SOL    HW177521   2.847   8.189   4.802 -0.3594 -1.2988 -2.2675
24355SOL    HW277522   2.746   8.182   4.915  2.4512 -0.4004  0.4365
24356SOL     OW77523  10.491   3.282   2.713 -0.0942  0.0066 -0.3498
24356SOL    HW177524  10.522   3.371   2.698 -0.1162 -0.2080 -1.8140
24356SOL    HW277525  10.433   3.264   2.639 -2.5021 -0.1634  1.4400
24357SOL     OW77526   6.734   5.919   9.884 -0.0319 -0.3079 -0.1815
24357SOL    HW177527   6.687   5.835   9.882  0.0146 -0.3307 -0.3058
24357SOL    HW277528   6.782   5.917   9.967 -0.6639 -0.0589  0.1916
24358SOL     OW77529  11.047  10.415   6.726  0.2697  0.0414  0.4872
24358SOL    HW177530  11.012  10.403   6.637  0.5575 -0.6795  0.4635
24358SOL    HW277531  10.983  10.471   6.769  0.4563  0.9500 -0.3742
24359SOL     OW77532   3.069   8.872  10.465  0.0653  0.3459 -0.0372
24359SOL    HW177533   3.056   8.907  10.554 -3.2389  0.6487 -0.5033
24359SOL    HW277534   3.017   8.930  10.409 -1.0993 -2.0588 -1.6088
24360SOL     OW77535   9.484   1.909   2.400 -0.3480  0.3403 -0.1283
24360SOL    HW177536   9.410   1.967   2.417 -1.4029 -1.0791  0.3697
24360SOL    HW277537   9.470   1.835   2.460  1.8323  0.3187  0.4483
24361SOL     OW77538  10.882   3.691   3.318  0.6136  1.2566  0.1407
24361SOL    HW177539  10.888   3.663   3.409 -1.5022 -0.0441 -0.0372
24361SOL    HW277540  10.960   3.655   3.276  1.7813  2.1491  1.4517
24362SOL     OW77541   6.253   6.460   4.935 -0.3469  0.2325 -0.1707
24362SOL    HW177542   6.213   6.380   4.968  1.8391 -0.3666  1.2725
24362SOL    HW277543   6.196   6.530   4.966 -2.0440 -0.6856 -1.0577
24363SOL     OW77544   8.542   9.333  10.394 -0.4650 -0.3902  0.2474
24363SOL    HW177545   8.541   9.393  10.319  0.4001  0.1721  0.6724
24363SOL    HW277546   8.515   9.249  10.358 -1.8620  0.2787 -0.3322
24364SOL     OW77547   3.853   6.838   3.214  1.1999 -0.1033  0.4853
24364SOL    HW177548   3.920   6.904   3.232 -0.1995  1.7192 -0.5393
24364SOL    HW277549   3.812   6.868   3.133 -2.7410  0.5992  2.4742
24365SOL     OW77550   6.405   9.033   6.983  0.4041 -0.9221 -0.0587
24365SOL    HW177551   6.454   9.058   6.904 -0.4231 -0.9541 -0.5962
24365SOL    HW277552   6.471   9.031   7.052  1.0355 -0.2634 -0.6186
24366SOL     OW77553   5.607   6.597   7.558  0.3905  0.0826 -0.2056
24366SOL    HW177554   5.579   6.505   7.565  1.0237 -0.1074 -0.0959
24366SOL    HW277555   5.702   6.592   7.550  0.3753  0.7076 -0.8265
24367SOL     OW77556   3.453   1.710   5.681 -0.0469  0.5560 -0.6061
24367SOL    HW177557   3.401   1.641   5.722  0.5407  0.0718 -0.6607
24367SOL    HW277558   3.402   1.737   5.605 -0.9251  1.1393  0.1770
24368SOL     OW77559   5.182   6.513   9.559  0.1212 -0.4002 -0.0329
24368SOL    HW177560   5.278   6.504   9.561  0.0759 -1.0470 -0.4588
24368SOL    HW277561   5.163   6.575   9.629  0.9982  1.2745 -1.2003
24369SOL     OW77562   1.146   5.309   7.627 -0.0527  0.5333 -1.0675
24369SOL    HW177563   1.128   5.277   7.539 -0.1901  0.8205 -1.1464
24369SOL    HW277564   1.104   5.395   7.630 -0.7661  0.1796 -0.4480
24370SOL     OW77565  10.956   7.112   5.401 -0.0867 -0.3269  0.1393
24370SOL    HW177566  10.934   7.090   5.310 -1.4468  1.1265  0.0806
24370SOL    HW277567  10.996   7.199   5.395  2.3208 -1.3232  0.6825
24371SOL     OW77568   1.798   8.480   6.206  0.1368 -0.2938  0.5945
24371SOL    HW177569   1.771   8.466   6.296  0.1774  0.2953  0.6979
24371SOL    HW277570   1.840   8.566   6.205 -1.5001  0.5317 -0.3495
24372SOL     OW77571   9.245   6.483   6.170 -0.1526 -0.1794 -0.2263
24372SOL    HW177572   9.222   6.535   6.094  0.8526  1.7591  0.7144
24372SOL    HW277573   9.166   6.482   6.224 -0.4722 -0.4830 -0.6932
24373SOL     OW77574   3.381   1.798  10.240 -0.6141 -0.5094  0.6008
24373SOL    HW177575   3.452   1.741  10.210 -0.5907 -0.6975  1.0090
24373SOL    HW277576   3.316   1.795  10.170  0.4056  0.8177 -0.4760
24374SOL     OW77577   7.673   2.062   9.730  0.0169 -0.7892 -0.3479
24374SOL    HW177578   7.591   2.106   9.752  0.3772 -0.4480  0.3760
24374SOL    HW277579   7.741   2.118   9.769  0.6003 -0.9795 -1.0820
24375SOL     OW77580   4.065   6.931   1.692 -0.0650 -0.5479  0.2795
24375SOL    HW177581   4.148   6.914   1.736 -0.1788 -2.0926 -0.0432
24375SOL    HW277582   4.020   6.994   1.749  2.1333  1.9967 -0.5795
24376SOL     OW77583   6.116  10.792   0.648 -0.4681 -0.2794 -0.1132
24376SOL    HW177584   6.174  10.862   0.678 -1.4660  0.7563 -0.5249
24376SOL    HW277585   6.088  10.820   0.561  0.4644 -2.0446 -1.0392
24377SOL     OW77586   9.848   1.494  10.896 -0.6462  0.0966  0.9753
24377SOL    HW177587   9.911   1.429  10.927 -0.6439  0.7708  2.4476
24377SOL    HW277588   9.828   1.547  10.973 -0.0365  2.3771 -0.3402
24378SOL     OW77589   4.621   4.347   2.113  0.0741  0.0827  0.2540
24378SOL    HW177590   4.680   4.409   2.071  0.0508 -0.8726 -1.2359
24378SOL    HW277591   4.654   4.341   2.203  0.2939  1.9415  0.3456
24379SOL     OW77592   9.499   0.794   9.313 -0.2919  0.0637  0.0047
24379SOL    HW177593   9.532   0.707   9.333 -1.9113 -0.2899  1.2668
24379SOL    HW277594   9.472   0.789   9.221 -1.4064 -1.1186  0.3717
24380SOL     OW77595   3.647   0.990   0.401  0.6739 -0.9707 -0.2112
24380SOL    HW177596   3.571   1.000   0.459 -0.2874 -0.8192 -1.4493
24380SOL    HW277597   3.689   1.075   0.402  0.3698 -0.8200 -0.1394
24381SOL     OW77598   0.775   3.121   8.888 -0.2080 -0.4408 -0.3081
24381SOL    HW177599   0.829   3.162   8.955 -3.6148  1.3911  1.6229
24381SOL    HW277600   0.767   3.030   8.916  0.0489 -0.1770  0.6739
24382SOL     OW77601   3.081   8.232  10.997 -0.3899  0.2686  0.0023
24382SOL    HW177602   3.116   8.300  11.055  0.3591  0.8865 -1.1427
24382SOL    HW277603   3.035   8.172  11.056  2.7709 -0.7673  1.6849
24383SOL     OW77604   2.363   9.753   5.611  0.3245 -0.0018  0.6468
24383SOL    HW177605   2.328   9.671   5.647 -1.5403  0.4793  0.0376
24383SOL    HW277606   2.308   9.821   5.649 -0.1058  0.7176 -1.1877
24384SOL     OW77607   4.701   4.515   3.133 -0.6138 -0.0610  0.1502
24384SOL    HW177608   4.764   4.497   3.203  0.9206 -0.1581 -1.1946
24384SOL    HW277609   4.661   4.598   3.158 -0.2175 -0.1811  1.2369
24385SOL     OW77610  10.353   2.887   4.437 -1.0463 -0.3215 -0.6879
24385SOL    HW177611  10.276   2.830   4.432  0.6540 -2.8401 -0.2819
24385SOL    HW277612  10.319   2.971   4.465 -3.5400 -1.6563  0.6470
24386SOL     OW77613   8.012   4.257   5.010  0.4931 -0.0703  0.6578
24386SOL    HW177614   8.012   4.224   4.920  1.8045  0.3397  0.4824
24386SOL    HW277615   7.952   4.331   5.009  0.2806 -0.2482  0.1862
24387SOL     OW77616   6.040   2.399   7.386  0.4113 -0.3472 -0.1048
24387SOL    HW177617   5.978   2.470   7.369 -1.2263 -1.6677  0.0692
24387SOL    HW277618   6.115   2.420   7.331 -0.5035  0.9126 -0.9393
24388SOL     OW77619   6.960   5.219   9.106  0.2043  0.3010  0.2122
24388SOL    HW177620   6.879   5.168   9.101  0.6650 -0.9628  3.3798
24388SOL    HW277621   6.955   5.263   9.191  2.2381  1.2974 -0.1183
24389SOL     OW77622   5.430   0.817   3.049  0.3122 -0.3645  0.1275
24389SOL    HW177623   5.470   0.758   3.112 -0.3551 -0.9603 -0.0007
24389SOL    HW277624   5.466   0.791   2.964  0.0885 -0.5242  0.0820
24390SOL     OW77625   7.977   3.202   4.509 -0.5607  0.3591 -0.4471
24390SOL    HW177626   7.983   3.198   4.605  1.3846 -0.4837 -0.5473
24390SOL    HW277627   8.026   3.282   4.486 -0.0225 -0.0590 -0.7782
24391SOL     OW77628   1.221   8.862  10.281  0.0136 -0.5108  0.9868
24391SOL    HW177629   1.234   8.791  10.345 -0.7949 -0.3224  1.3670
24391SOL    HW277630   1.149   8.913  10.316 -1.3787 -1.1743 -0.7532
24392SOL     OW77631   6.426   1.966   9.243 -0.4725  0.1430 -0.1778
24392SOL    HW177632   6.463   1.880   9.222 -1.6600 -1.3155  2.9402
24392SOL    HW277633   6.499   2.016   9.279 -0.0255 -0.0049 -0.8656
24393SOL     OW77634   7.905   1.708   1.753 -0.0448 -0.0867  0.7593
24393SOL    HW177635   7.832   1.759   1.718  0.7746  0.5821 -0.0614
24393SOL    HW277636   7.879   1.685   1.842 -1.4571 -0.3017  0.3122
24394SOL     OW77637   1.238   2.417   5.652 -0.7663  0.3651  0.2687
24394SOL    HW177638   1.223   2.404   5.558  0.2166 -0.3830  0.1972
24394SOL    HW277639   1.329   2.447   5.657  0.7132 -3.7364  1.2406
24395SOL     OW77640   6.991   6.873   1.587 -0.6694  0.1452 -0.0364
24395SOL    HW177641   6.915   6.915   1.628  0.2489  1.5527  0.2810
24395SOL    HW277642   7.066   6.924   1.618  0.7303 -2.7229  1.7425
24396SOL     OW77643  10.412   3.723   1.661 -0.4156  0.1134  0.6657
24396SOL    HW177644  10.459   3.654   1.613  1.2652  1.1352  0.7722
24396SOL    HW277645  10.448   3.719   1.749  2.9702  3.7903 -0.2688
24397SOL     OW77646   4.140  10.361   0.869 -0.4719  0.2648 -0.1626
24397SOL    HW177647   4.076  10.422   0.832  1.5805  0.7020 -3.4747
24397SOL    HW277648   4.193  10.415   0.928 -1.5946  0.4878  0.6603
24398SOL     OW77649   8.403   3.273   6.701  0.1122 -0.1766  0.4719
24398SOL    HW177650   8.467   3.218   6.746  0.6939 -0.0450 -0.1824
24398SOL    HW277651   8.443   3.293   6.616 -0.8951 -0.2930 -0.0478
24399SOL     OW77652   8.637   7.182   4.918 -0.1570 -0.1787 -0.1635
24399SOL    HW177653   8.574   7.253   4.907  0.5141  0.2890 -1.1680
24399SOL    HW277654   8.630   7.131   4.837 -0.9094 -1.5160  0.7059
24400SOL     OW77655   0.359   0.657   2.849  0.5294 -0.5850 -0.1355
24400SOL    HW177656   0.319   0.586   2.898 -1.2768 -0.1196 -0.8443
24400SOL    HW277657   0.348   0.632   2.757  0.4596  0.2906 -0.3763
24401SOL     OW77658   4.187   9.794   9.652  0.2474 -0.1517  0.2995
24401SOL    HW177659   4.205   9.812   9.559  0.8150  1.3280  0.6664
24401SOL    HW277660   4.248   9.851   9.699 -1.4657  0.7100  1.5957
24402SOL     OW77661   7.611   0.987   3.136 -0.4646  0.2601 -0.4288
24402SOL    HW177662   7.530   0.943   3.162 -1.2755  1.8466 -0.1075
24402SOL    HW277663   7.587   1.080   3.133  1.1188  0.6716 -1.2308
24403SOL     OW77664   0.827   6.578   9.236 -0.4091 -0.7333  0.9141
24403SOL    HW177665   0.858   6.488   9.237  2.1134  0.0246 -0.4402
24403SOL    HW277666   0.771   6.583   9.159  0.3875 -0.9014  0.3057
24404SOL     OW77667   3.307   9.696   5.134 -0.1534 -0.7055 -0.1262
24404SOL    HW177668   3.279   9.617   5.088 -1.8918  0.8959 -2.0217
24404SOL    HW277669   3.226   9.735   5.166  0.3863  1.3254 -1.0652
24405SOL     OW77670   8.972   9.679   8.277 -0.4258 -0.4542 -0.5595
24405SOL    HW177671   8.914   9.608   8.251 -0.5880 -0.2355 -0.8019
24405SOL    HW277672   8.918   9.757   8.273 -0.1765 -0.2812 -0.5618
24406SOL     OW77673   4.676   9.850   3.597 -0.3637  0.8193  0.1227
24406SOL    HW177674   4.591   9.884   3.623 -0.0516  0.4355  1.7875
24406SOL    HW277675   4.696   9.894   3.515 -1.5893  1.8736  0.3617
24407SOL     OW77676   5.080  10.258  10.013  0.0096  0.4236  0.1323
24407SOL    HW177677   5.170  10.251  10.043 -0.1274 -2.2242  0.1732
24407SOL    HW277678   5.085  10.305   9.930  1.5414 -0.4469 -0.2959
24408SOL     OW77679  10.647   8.275  10.405 -0.4485  0.0880  0.1229
24408SOL    HW177680  10.677   8.244  10.490  0.5413  0.8562  0.0773
24408SOL    HW277681  10.601   8.357  10.425 -1.4362 -0.4424  0.0570
24409SOL     OW77682   4.704   0.653   2.151  0.0605 -0.1198 -0.1128
24409SOL    HW177683   4.653   0.700   2.216  0.4561 -0.6764  0.6126
24409SOL    HW277684   4.705   0.710   2.074 -0.6776  0.3949  0.2611
24410SOL     OW77685   1.859   4.766   6.134  0.1034  0.3229  0.3522
24410SOL    HW177686   1.775   4.723   6.115 -0.6259  1.5223  0.7865
24410SOL    HW277687   1.924   4.697   6.122 -0.7630 -0.1969 -1.7220
24411SOL     OW77688   3.589  10.753   5.412  0.0862  0.0487 -0.6094
24411SOL    HW177689   3.499  10.726   5.426  0.7745 -3.3048 -1.6436
24411SOL    HW277690   3.589  10.790   5.323 -0.5020  1.5975  0.0061
24412SOL     OW77691   0.017   5.405   9.751  0.3312  0.5305 -0.3531
24412SOL    HW177692   0.006   5.313   9.777 -1.0519  0.2470 -1.7697
24412SOL    HW277693   0.104   5.408   9.713  0.2506 -0.3195 -0.6468
24413SOL     OW77694  10.737   2.815   1.128 -0.1195  0.0461  0.4593
24413SOL    HW177695  10.829   2.812   1.157  0.6731 -0.7721 -1.9213
24413SOL    HW277696  10.699   2.735   1.162  0.8571 -1.0216 -0.8611
24414SOL     OW77697  10.776   2.751   7.546 -0.4511 -0.1634 -0.1727
24414SOL    HW177698  10.712   2.695   7.590  1.0492 -0.8197  1.2774
24414SOL    HW277699  10.851   2.754   7.605  0.3975  1.6011 -1.2324
24415SOL     OW77700   3.549   2.816   2.634 -0.2298  0.0984 -0.3421
24415SOL    HW177701   3.624   2.757   2.623  1.1011  1.4293  1.1838
24415SOL    HW277702   3.585   2.904   2.619 -1.9206  0.6556 -1.4347
24416SOL     OW77703   6.124   7.550   3.408 -0.3652 -0.3565  0.5974
24416SOL    HW177704   6.181   7.589   3.474  0.5576 -1.5432  0.5403
24416SOL    HW277705   6.044   7.527   3.456 -0.2804  0.1268  0.9727
24417SOL     OW77706   4.746  10.343   0.152  0.5859  0.2967  0.7486
24417SOL    HW177707   4.728  10.433   0.126  0.4717  0.0878  0.0959
24417SOL    HW277708   4.738  10.292   0.071 -1.8010 -0.6833  1.5091
24418SOL     OW77709   2.729   3.772   1.649  0.2615 -0.3016  0.0456
24418SOL    HW177710   2.789   3.720   1.703 -0.3721 -1.3250 -0.2097
24418SOL    HW277711   2.644   3.730   1.660 -0.2253  0.5474 -0.3670
24419SOL     OW77712   6.964   8.495   8.293 -0.5390  0.2067 -0.2996
24419SOL    HW177713   6.907   8.571   8.302  0.3140  0.7320  1.0141
24419SOL    HW277714   6.916   8.436   8.235 -0.9690  1.9551 -1.8226
24420SOL     OW77715   0.047   6.965   7.017  0.4443 -0.5579 -0.2544
24420SOL    HW177716  -0.032   6.923   6.983 -0.7373  0.4458  1.1720
24420SOL    HW277717   0.095   6.991   6.939 -1.3089  0.0547 -1.1826
24421SOL     OW77718   1.710   2.507   6.933 -0.1294 -0.1986 -0.3940
24421SOL    HW177719   1.744   2.571   6.870 -0.1211 -1.5056 -1.7771
24421SOL    HW277720   1.677   2.560   7.005  0.7670  1.3138 -1.0419
24422SOL     OW77721   1.279   7.503   4.253 -0.7707  0.0262 -0.2703
24422SOL    HW177722   1.194   7.524   4.293 -0.4245 -2.0734  1.8019
24422SOL    HW277723   1.273   7.410   4.232  0.7263  0.0426 -0.8883
24423SOL     OW77724  10.903   7.673   3.711  0.1282 -0.4185  0.3777
24423SOL    HW177725  10.829   7.710   3.760 -0.5477 -0.1224 -0.8216
24423SOL    HW277726  10.862   7.610   3.652  0.9770 -1.0774  0.4899
24424SOL     OW77727   7.742   1.577   7.134  0.2382  0.6281 -0.2784
24424SOL    HW177728   7.650   1.553   7.125 -0.0558  0.8529  1.6966
24424SOL    HW277729   7.770   1.538   7.217  1.4394  1.9667 -0.0044
24425SOL     OW77730  10.166   7.378   0.157  0.1619 -0.3492  0.3569
24425SOL    HW177731  10.162   7.303   0.217 -0.2210 -2.1080 -1.7788
24425SOL    HW277732  10.105   7.441   0.195 -1.9995 -2.4119  0.5551
24426SOL     OW77733   5.789   8.265   2.859  0.0420  0.3799 -0.7343
24426SOL    HW177734   5.701   8.272   2.897 -0.1688  1.0511 -1.3010
24426SOL    HW277735   5.828   8.352   2.873  1.5785 -0.6094  1.7031
24427SOL     OW77736  10.625   1.026  10.473  0.4045 -0.0170  0.2566
24427SOL    HW177737  10.541   1.062  10.446  0.0263 -0.9780  0.1157
24427SOL    HW277738  10.669   1.002  10.391 -0.4094 -2.1864  0.3856
24428SOL     OW77739   0.190   8.908   6.536 -0.0085  0.0205 -0.1821
24428SOL    HW177740   0.139   8.982   6.569  0.7756  0.0016  1.1618
24428SOL    HW277741   0.248   8.947   6.470  0.2350  0.5880  0.3506
24429SOL     OW77742   3.058   3.341   8.285 -0.3894 -0.2653  0.0994
24429SOL    HW177743   2.997   3.304   8.349 -0.4438  1.0922  0.8687
24429SOL    HW277744   3.002   3.374   8.215 -0.5089  0.3280  0.4637
24430SOL     OW77745   1.420   5.900   5.811  0.0248  0.5534  0.2266
24430SOL    HW177746   1.445   5.955   5.737 -0.6019  1.0750  0.3921
24430SOL    HW277747   1.441   5.953   5.889 -1.7197  1.0929  0.3680
24431SOL     OW77748   0.254   3.328   3.929  0.3134 -0.1960 -0.0658
24431SOL    HW177749   0.261   3.234   3.942 -2.4163 -0.4149  0.5662
24431SOL    HW277750   0.271   3.366   4.015 -3.1863 -0.5701  0.9567
24432SOL     OW77751  10.329   6.493   8.519  0.1143  0.0246  0.4404
24432SOL    HW177752  10.362   6.559   8.459  1.0373 -0.2307  0.6571
24432SOL    HW277753  10.270   6.541   8.578 -0.3038  0.3858 -0.2584
24433SOL     OW77754   5.502   0.035   4.392 -0.1713  0.4014 -0.1573
24433SOL    HW177755   5.565   0.103   4.415  0.7843 -0.8106  0.9775
24433SOL    HW277756   5.548  -0.047   4.409 -2.1654 -0.5405  1.0098
24434SOL     OW77757   6.776   2.683   2.502  0.0080 -0.0274  0.6362
24434SOL    HW177758   6.745   2.748   2.438 -0.0017  0.2858  0.9601
24434SOL    HW277759   6.696   2.652   2.544 -0.0358 -0.6103  0.1448
24435SOL     OW77760   4.568   2.022   6.059  0.7710 -0.7742  0.0219
24435SOL    HW177761   4.589   2.111   6.031 -0.3687 -0.2969  0.6222
24435SOL    HW277762   4.550   1.974   5.978  0.8602 -0.3166 -0.2689
24436SOL     OW77763   5.640   7.602   9.823  0.1495 -0.0648 -0.4889
24436SOL    HW177764   5.618   7.642   9.739  0.9576 -0.0878 -0.7184
24436SOL    HW277765   5.617   7.668   9.888  0.2093  0.2420 -0.7779
24437SOL     OW77766   6.156   0.092  10.552 -0.3779 -0.0085 -0.1743
24437SOL    HW177767   6.202   0.008  10.545  0.4147  0.3280  0.6486
24437SOL    HW277768   6.083   0.074  10.612  0.8619  0.2738  1.5014
24438SOL     OW77769   7.930   9.337   2.189 -0.1369 -0.4699  0.4440
24438SOL    HW177770   7.952   9.255   2.233  0.1652  0.0660  1.3453
24438SOL    HW277771   7.988   9.402   2.231 -0.8557  0.3210  0.2529
24439SOL     OW77772   8.839   4.286   3.921  0.3733  0.8333  0.2232
24439SOL    HW177773   8.915   4.344   3.918  0.2089  0.9999 -0.8996
24439SOL    HW277774   8.764   4.344   3.923  0.1714  0.7017 -1.8171
24440SOL     OW77775   4.782   8.540   4.461  0.1977  0.0655 -0.2110
24440SOL    HW177776   4.702   8.487   4.474 -0.9399  1.6544 -0.4933
24440SOL    HW277777   4.844   8.479   4.421 -0.6194 -1.4106  0.6429
24441SOL     OW77778   8.813   4.903   2.336  0.6162  0.3978 -1.0045
24441SOL    HW177779   8.898   4.890   2.378  0.1972  0.4460 -0.1043
24441SOL    HW277780   8.760   4.829   2.367  0.0249  0.9270 -0.7243
24442SOL     OW77781   5.311   6.059   4.649 -0.1424  0.0195 -0.3176
24442SOL    HW177782   5.312   6.129   4.584 -0.6810 -1.7492 -2.3600
24442SOL    HW277783   5.244   5.998   4.616 -1.0775 -0.5294  2.4023
24443SOL     OW77784   9.021   5.501   1.639  0.9598  0.3091 -0.3612
24443SOL    HW177785   9.013   5.496   1.735 -1.3710 -0.4107 -0.5181
24443SOL    HW277786   8.954   5.564   1.613 -0.5114 -1.6774 -1.6666
24444SOL     OW77787   4.670  11.065   0.851 -0.1883  0.1408  0.3642
24444SOL    HW177788   4.707  11.124   0.785  0.5592  1.5568  1.9467
24444SOL    HW277789   4.575  11.073   0.840 -0.0773 -0.3301 -1.0739
24445SOL     OW77790   0.168   9.191   1.044 -0.2534  0.2937 -0.1700
24445SOL    HW177791   0.193   9.115   1.098 -0.4572  0.1771 -0.2363
24445SOL    HW277792   0.188   9.164   0.955  2.6449  1.4907  0.0300
24446SOL     OW77793   9.911   6.549  10.474 -0.1024  0.6973  0.1995
24446SOL    HW177794   9.904   6.453  10.472 -1.2525  0.6756  2.6065
24446SOL    HW277795  10.001   6.565  10.501  0.1300  0.3191 -0.3153
24447SOL     OW77796   3.349   0.041   4.633  0.0211 -0.3885  0.6197
24447SOL    HW177797   3.309   0.076   4.553  1.0019 -1.0769 -0.2053
24447SOL    HW277798   3.408   0.110   4.663 -0.8266  0.1283  1.1288
24448SOL     OW77799   3.862   2.138   3.188 -0.1065 -0.6365  0.1515
24448SOL    HW177800   3.915   2.104   3.260  1.5680 -2.1613 -1.7028
24448SOL    HW277801   3.789   2.077   3.180  0.2085 -0.9915 -0.0245
24449SOL     OW77802   8.267   5.060   5.204  0.3499  0.3099 -0.0014
24449SOL    HW177803   8.296   5.030   5.118  0.1354 -1.9371  0.6527
24449SOL    HW277804   8.273   5.155   5.199 -1.3402  0.3711 -3.0760
24450SOL     OW77805  10.784   8.001   3.065  0.4036  0.3944 -0.0019
24450SOL    HW177806  10.712   8.062   3.081  1.2640  1.1945  1.0417
24450SOL    HW277807  10.766   7.964   2.979 -1.5723  0.0887  0.4900
24451SOL     OW77808   8.060   4.361   6.893  0.4439 -0.1751  0.1308
24451SOL    HW177809   8.039   4.273   6.924  0.8191 -0.2324  0.2264
24451SOL    HW277810   8.121   4.347   6.820 -0.8761 -0.0708 -1.0310
24452SOL     OW77811   9.804   8.869   0.884  0.2654 -0.2396  0.0324
24452SOL    HW177812   9.856   8.876   0.804 -0.6070 -0.7244 -0.5948
24452SOL    HW277813   9.737   8.936   0.874  0.1413 -0.3168  0.3559
24453SOL     OW77814   9.422   9.899   3.355 -0.6674  0.5359  0.0722
24453SOL    HW177815   9.494   9.862   3.304 -1.0812  1.8880 -1.5531
24453SOL    HW277816   9.343   9.861   3.317 -0.9477  0.9459  0.2331
24454SOL     OW77817   3.092   8.104   2.031  0.0588 -0.3399 -0.0875
24454SOL    HW177818   3.184   8.107   2.005 -0.3480 -0.0458 -1.5854
24454SOL    HW277819   3.073   8.192   2.064  0.1583 -0.2228 -0.3427
24455SOL     OW77820  10.996  10.656   1.413 -0.5818 -0.1474  0.6032
24455SOL    HW177821  11.056  10.582   1.416 -0.6376 -0.2036  0.3565
24455SOL    HW277822  10.915  10.620   1.376 -0.0709  0.4101 -1.1646
24456SOL     OW77823   6.065  10.275   4.300 -0.0364  0.3385 -0.2119
24456SOL    HW177824   6.038  10.324   4.222  2.7169  0.0889 -1.4290
24456SOL    HW277825   6.129  10.331   4.343  1.1772 -1.0314 -0.1611
24457SOL     OW77826   3.214   6.773   8.267  0.1923 -0.1725 -0.4078
24457SOL    HW177827   3.156   6.789   8.192  0.8437 -0.6163 -1.0235
24457SOL    HW277828   3.221   6.858   8.311 -0.2401  0.0824 -0.8293
24458SOL     OW77829   0.225   9.475   0.457  0.0906  0.1290  0.2006
24458SOL    HW177830   0.281   9.549   0.435 -0.5340  0.4831 -0.2608
24458SOL    HW277831   0.157   9.512   0.514 -0.5325  0.0411 -0.4649
24459SOL     OW77832   7.994   0.773   8.353 -0.0064  0.3416 -0.1978
24459SOL    HW177833   8.078   0.817   8.369  0.1009 -0.2228  0.8232
24459SOL    HW277834   7.993   0.701   8.415 -0.5580 -0.6005 -1.2802
24460SOL     OW77835   4.095   0.312   5.388  0.9162  0.5777 -0.6402
24460SOL    HW177836   4.105   0.224   5.425  0.1569  1.1805  1.0983
24460SOL    HW277837   4.008   0.341   5.417  0.8681  1.6316 -1.7761
24461SOL     OW77838   9.898   2.616   7.816  0.9041  0.2653 -0.2315
24461SOL    HW177839   9.872   2.534   7.859  2.0975  0.3486  0.6980
24461SOL    HW277840   9.884   2.683   7.882  3.0320  0.3595  0.1931
24462SOL     OW77841   8.999   6.269   0.066 -0.0781 -0.2194  0.1793
24462SOL    HW177842   9.006   6.252   0.160 -1.8876  0.8210  0.5428
24462SOL    HW277843   8.933   6.206   0.035  0.2892 -0.3535 -0.3610
24463SOL     OW77844   6.903   6.415   9.138 -0.7867 -0.2478  0.0086
24463SOL    HW177845   6.983   6.363   9.134 -1.3202 -1.0598 -0.5349
24463SOL    HW277846   6.877   6.427   9.047 -0.1216  1.9128  0.0496
24464SOL     OW77847  10.358   5.518   3.525  0.0614  0.0525  0.1723
24464SOL    HW177848  10.268   5.513   3.494 -0.1411 -0.7942  0.8718
24464SOL    HW277849  10.381   5.611   3.516 -1.5431  0.6612  1.7544
24465SOL     OW77850   0.114   6.820   8.676  0.2687 -0.4862 -0.0235
24465SOL    HW177851   0.121   6.727   8.655  3.2838 -0.2079 -0.8652
24465SOL    HW277852   0.122   6.825   8.771 -0.4222 -1.1004  0.0692
24466SOL     OW77853   2.327   9.249   3.844  0.1081  0.0203  0.1961
24466SOL    HW177854   2.327   9.157   3.818 -0.3775 -0.1567  0.7905
24466SOL    HW277855   2.275   9.251   3.924  0.9447  0.6568  0.7464
24467SOL     OW77856   5.038   0.235   9.839  0.3227 -0.1935 -0.3221
24467SOL    HW177857   5.062   0.149   9.872  0.9059 -0.1535 -0.6314
24467SOL    HW277858   4.995   0.278   9.913 -2.3002 -1.6491 -0.9016
24468SOL     OW77859   7.319   1.205   0.802 -0.4423  0.4472 -0.0270
24468SOL    HW177860   7.322   1.182   0.895  0.0258  0.3044 -0.0751
24468SOL    HW277861   7.259   1.141   0.763  0.4074 -0.3474 -0.0582
24469SOL     OW77862   6.684   6.399   5.538 -0.1701 -0.4355  0.4557
24469SOL    HW177863   6.625   6.382   5.465 -1.7036 -0.5069  1.6504
24469SOL    HW277864   6.657   6.337   5.605  0.3635  0.4402  1.5172
24470SOL     OW77865   9.555   5.631   3.182  0.1798  0.0347  0.0872
24470SOL    HW177866   9.486   5.626   3.116 -1.8149  0.8661  1.9951
24470SOL    HW277867   9.628   5.580   3.145 -0.0610  2.0255 -3.5766
24471SOL     OW77868   3.228   5.902   2.588  0.5093  0.3387  0.2671
24471SOL    HW177869   3.175   5.948   2.523  1.5564  0.1528 -0.7411
24471SOL    HW277870   3.312   5.947   2.588  0.5425  0.3022  1.4647
24472SOL     OW77871   6.401   5.230   6.279  0.1641  0.0115 -0.0459
24472SOL    HW177872   6.328   5.198   6.333  0.3192 -1.4038 -0.6374
24472SOL    HW277873   6.378   5.321   6.260 -1.6480 -0.4889 -0.5141
24473SOL     OW77874   0.816   6.035  10.273  0.2002  0.2675 -0.1575
24473SOL    HW177875   0.783   6.054  10.361 -0.2467 -1.3373  0.0506
24473SOL    HW277876   0.784   5.947  10.254 -0.1569  0.7835 -2.1566
24474SOL     OW77877   9.345   8.310   9.035  0.7949  0.7051  0.1188
24474SOL    HW177878   9.344   8.215   9.025  1.4373  0.9668 -4.3022
24474SOL    HW277879   9.253   8.336   9.036  0.6044  0.1184  1.8087
24475SOL     OW77880   3.006   3.073   3.030  0.3129 -0.8050 -0.3013
24475SOL    HW177881   2.946   3.135   2.990 -0.3391 -0.2341  1.4885
24475SOL    HW277882   3.091   3.118   3.031  0.0955 -0.3998 -0.0635
24476SOL     OW77883   0.455   4.855   7.909  0.2275  0.1317 -0.0911
24476SOL    HW177884   0.491   4.783   7.857  0.6723  0.1171  0.2338
24476SOL    HW277885   0.374   4.821   7.945 -0.0544  0.1166 -0.7149
24477SOL     OW77886  10.332   5.824   2.193 -0.0896  0.1400 -0.0249
24477SOL    HW177887  10.376   5.850   2.111  1.7925 -0.4117  0.7572
24477SOL    HW277888  10.289   5.904   2.223  0.8809  0.8834 -0.5547
24478SOL     OW77889   8.856   5.026   5.424  0.0362  0.2824  0.4918
24478SOL    HW177890   8.830   4.958   5.486  1.1109  0.5430  1.2519
24478SOL    HW277891   8.798   5.099   5.443 -0.4698 -0.0735  0.3363
24479SOL     OW77892   4.444   2.959   4.867  0.4475  0.1512 -0.2338
24479SOL    HW177893   4.452   2.996   4.780  1.0557 -0.4924 -0.4642
24479SOL    HW277894   4.413   2.869   4.852  1.3148 -0.2215  0.1551
24480SOL     OW77895   6.239   5.424   3.451 -0.4728  0.5825 -0.4106
24480SOL    HW177896   6.263   5.428   3.544  0.8177  1.6246 -0.7582
24480SOL    HW277897   6.217   5.332   3.436  0.2980  0.1909  0.6983
24481SOL     OW77898   2.323   9.580   6.153  0.0866 -0.0160  0.1602
24481SOL    HW177899   2.318   9.672   6.127  0.0083 -0.0398  0.0923
24481SOL    HW277900   2.390   9.543   6.095 -1.5993 -0.5845 -1.5458
24482SOL     OW77901   8.752   9.430   1.811  0.1255  0.4108 -0.0631
24482SOL    HW177902   8.723   9.479   1.734 -0.0624  1.2049  0.5017
24482SOL    HW277903   8.687   9.360   1.820 -0.2246  0.7129 -0.2359
24483SOL     OW77904   1.691   2.196   1.457  0.3863  0.5715 -0.5027
24483SOL    HW177905   1.710   2.113   1.500  0.8859  0.4358 -0.9715
24483SOL    HW277906   1.772   2.219   1.412  0.4861  1.6777  0.1985
24484SOL     OW77907   5.913   4.207   4.671  0.4247 -0.3738  0.0034
24484SOL    HW177908   5.866   4.225   4.753 -1.2713  0.2781 -1.0535
24484SOL    HW277909   5.967   4.285   4.657 -1.0689  0.5879 -0.6520
24485SOL     OW77910   9.336   4.348   0.843 -0.1313  0.2161 -0.2853
24485SOL    HW177911   9.384   4.285   0.896 -1.7283  0.5323  1.6725
24485SOL    HW277912   9.298   4.297   0.772 -2.3605 -1.3451  1.8996
24486SOL     OW77913   3.830   3.097   1.863 -0.1627  0.5956 -0.0216
24486SOL    HW177914   3.832   3.003   1.845  0.9637  0.5660  0.1785
24486SOL    HW277915   3.825   3.137   1.776 -1.0073  0.3552 -0.0937
24487SOL     OW77916   9.913   4.317   1.452  0.0030  0.1135 -0.3159
24487SOL    HW177917   9.867   4.235   1.469 -1.8245  0.8050 -1.5133
24487SOL    HW277918   9.987   4.293   1.397 -0.1130 -0.8210 -0.0718
24488SOL     OW77919   9.674   4.419   4.242 -0.2612 -0.4124  0.1308
24488SOL    HW177920   9.702   4.405   4.152  1.5817 -2.0915  0.8909
24488SOL    HW277921   9.579   4.405   4.241 -0.4459  0.7436 -1.7185
24489SOL     OW77922   0.145  10.233   6.524  0.4853  0.0439  0.2051
24489SOL    HW177923   0.082  10.170   6.488  0.4650 -0.7563  1.5512
24489SOL    HW277924   0.098  10.276   6.596  0.7376  1.1001 -0.2472
24490SOL     OW77925   4.410   3.969   2.868 -0.2665  0.1562  0.6159
24490SOL    HW177926   4.496   3.928   2.878 -0.0054  0.2685 -0.9449
24490SOL    HW277927   4.350   3.896   2.854 -0.0086  0.1868 -0.8144
24491SOL     OW77928   5.977   0.038   3.180  0.5147  0.2079 -0.2175
24491SOL    HW177929   5.906   0.101   3.191 -0.6566 -1.1704  0.4485
24491SOL    HW277930   6.014   0.028   3.267  3.0687  2.5437 -0.8990
24492SOL     OW77931   2.693   3.728  10.937  0.0440 -0.2496  0.0785
24492SOL    HW177932   2.667   3.820  10.927 -1.7771 -0.2156  3.6089
24492SOL    HW277933   2.610   3.681  10.946  1.0020 -1.7136  1.6692
24493SOL     OW77934   2.617   8.717   0.905 -0.2211 -0.0384 -0.2517
24493SOL    HW177935   2.580   8.693   0.990  1.9185  0.3773  0.8809
24493SOL    HW277936   2.677   8.645   0.884  0.1620  0.4328 -0.8027
24494SOL     OW77937   4.810   8.080   4.549  0.1297 -0.3010  0.5134
24494SOL    HW177938   4.745   8.089   4.620 -0.9169 -0.5144 -0.3863
24494SOL    HW277939   4.865   8.158   4.557 -1.2414  0.7224  0.3229
24495SOL     OW77940   3.015   1.138   6.716 -0.2250  0.5583  0.3079
24495SOL    HW177941   3.087   1.165   6.774 -0.1897  0.5112  0.2864
24495SOL    HW277942   2.948   1.205   6.728 -0.1504  0.6388  0.2784
24496SOL     OW77943   3.377   7.418   2.921  0.1834 -0.9645  0.0882
24496SOL    HW177944   3.368   7.453   3.010  1.3404  0.1513 -0.1996
24496SOL    HW277945   3.394   7.496   2.867  0.7064 -1.7639 -0.9205
24497SOL     OW77946  10.701   1.559   1.522  0.2300 -0.3089 -0.2174
24497SOL    HW177947  10.772   1.614   1.555  0.6784  1.6283 -3.9014
24497SOL    HW277948  10.623   1.613   1.533  0.3590  0.2786 -1.9826
24498SOL     OW77949   9.037   4.058   9.485  0.2436  0.4576  0.0007
24498SOL    HW177950   8.947   4.093   9.485  0.1713  0.2703  0.0073
24498SOL    HW277951   9.035   3.986   9.422 -0.4164 -1.5759  2.1625
24499SOL     OW77952   7.232   2.868   5.648  0.2720  0.2094  0.6967
24499SOL    HW177953   7.192   2.789   5.611  0.0867  0.0813  1.1622
24499SOL    HW277954   7.302   2.891   5.587 -0.3311  0.2722  0.0172
24500SOL     OW77955   4.756   4.676   9.024 -0.0541 -0.5996 -0.2107
24500SOL    HW177956   4.838   4.692   8.977  0.1555 -0.5877  0.1492
24500SOL    HW277957   4.784   4.631   9.104 -0.3996 -0.5913 -0.0855
24501SOL     OW77958   3.132   2.085  10.173  0.4376 -0.3458  0.0232
24501SOL    HW177959   3.101   1.997  10.193  1.1573 -0.8759 -1.0976
24501SOL    HW277960   3.165   2.079  10.083  0.0732  1.1827 -0.2352
24502SOL     OW77961   1.005  10.132   1.440  0.0017 -0.4364 -0.5517
24502SOL    HW177962   0.993  10.153   1.533  1.1318 -0.3903 -0.4071
24502SOL    HW277963   1.065  10.057   1.440 -0.5842 -0.9187 -1.2291
24503SOL     OW77964   0.083   4.560   7.900 -0.1103  0.2885  0.3109
24503SOL    HW177965   0.113   4.502   7.970 -0.8128  2.4883  2.5804
24503SOL    HW277966   0.128   4.643   7.916 -1.5477  1.3442 -0.8608
24504SOL     OW77967   2.991   0.511   8.005  0.4502 -0.2249  0.3359
24504SOL    HW177968   2.901   0.478   8.012  0.8117 -1.0697  1.1169
24504SOL    HW277969   2.991   0.562   7.923 -1.6648  2.7371  1.9895
24505SOL     OW77970   9.662   9.742   9.229  0.4518 -0.1300  0.4863
24505SOL    HW177971   9.586   9.796   9.247  0.9357  0.7467 -0.0385
24505SOL    HW277972   9.686   9.762   9.138  0.9196 -0.8743  0.4292
24506SOL     OW77973   7.073  10.754   2.304  0.7766  0.0004  0.5440
24506SOL    HW177974   7.033  10.717   2.383  1.1892 -1.0689  0.2687
24506SOL    HW277975   7.113  10.679   2.260  1.8496  0.8155  0.0789
24507SOL     OW77976   1.682   1.485   9.574 -0.6102  0.1986  0.6076
24507SOL    HW177977   1.680   1.439   9.490 -1.5622 -0.2572  0.8585
24507SOL    HW277978   1.591   1.513   9.587  0.2472  4.0108 -0.5106
24508SOL     OW77979   4.717   1.812   3.497 -0.3234  0.7342 -0.0342
24508SOL    HW177980   4.630   1.781   3.473 -0.2597  0.7708 -0.3119
24508SOL    HW277981   4.733   1.773   3.583 -0.2796  0.0534 -0.3410
24509SOL     OW77982   5.421   8.010   4.216 -0.2576 -0.4109  0.6845
24509SOL    HW177983   5.490   8.046   4.160  0.2530  1.2374  2.2995
24509SOL    HW277984   5.465   7.987   4.298 -1.3671 -0.7838  1.2033
24510SOL     OW77985   7.721   7.555   6.829  0.9256 -0.4883 -0.0339
24510SOL    HW177986   7.723   7.542   6.923 -0.0053 -0.4360 -0.0045
24510SOL    HW277987   7.676   7.478   6.795  0.9390 -0.3336 -0.4070
24511SOL     OW77988   5.409   6.821   3.340  0.2382 -0.0722 -0.7429
24511SOL    HW177989   5.418   6.830   3.435  2.7994  2.0345 -1.0677
24511SOL    HW277990   5.386   6.909   3.309 -3.4221 -1.2805 -1.9535
24512SOL     OW77991   0.208   7.448   6.432 -0.0386  0.3647 -0.2628
24512SOL    HW177992   0.226   7.357   6.457 -0.6775 -0.0579 -1.2537
24512SOL    HW277993   0.128   7.470   6.479 -0.5557 -0.0145 -0.9324
24513SOL     OW77994   9.644   4.508   9.050  0.2421  0.3381 -0.2637
24513SOL    HW177995   9.648   4.473   9.139  2.0232  1.2253  0.0412
24513SOL    HW277996   9.655   4.603   9.062  0.4747  0.4647 -1.4291
24514SOL     OW77997   4.252   3.250   4.532  0.2270  0.3374  0.1252
24514SOL    HW177998   4.205   3.195   4.471 -0.9668  0.9060  0.5016
24514SOL    HW277999   4.206   3.240   4.615  2.1396 -0.8468  1.1168
24515SOL     OW78000  10.645   9.536   5.639 -0.1503 -0.7692 -0.1022
24515SOL    HW178001  10.661   9.629   5.621 -0.9868 -0.6443 -0.2333
24515SOL    HW278002  10.569   9.514   5.586 -1.7494 -0.7747  2.0501
24516SOL     OW78003   2.528  10.241   2.793  0.0787 -0.5427  0.2144
24516SOL    HW178004   2.529  10.336   2.804 -0.3054 -0.4176 -0.7231
24516SOL    HW278005   2.522  10.228   2.698  1.0375 -1.5132  0.2674
24517SOL     OW78006   6.852  10.529   8.499  0.2756  0.1483  0.1270
24517SOL    HW178007   6.810  10.486   8.424  0.2152 -1.0101  0.7992
24517SOL    HW278008   6.917  10.586   8.459 -1.1202  1.1094 -0.8872
24518SOL     OW78009   2.771   5.556   9.060 -0.1144 -0.3635  0.4289
24518SOL    HW178010   2.759   5.560   9.155 -1.0526 -0.2964  0.3129
24518SOL    HW278011   2.684   5.574   9.024  0.6995  2.1342 -0.4879
24519SOL     OW78012   9.788   3.543   7.148 -0.1472  0.0596 -0.3037
24519SOL    HW178013   9.833   3.564   7.230 -0.2790 -1.3851  0.1794
24519SOL    HW278014   9.811   3.614   7.088 -0.1560  1.2064  1.0227
24520SOL     OW78015  10.949   2.591   9.590 -0.3909  0.1397  0.2212
24520SOL    HW178016  10.971   2.503   9.619 -1.6972  0.3384  1.9873
24520SOL    HW278017  10.859   2.585   9.560 -0.2740  0.7486 -0.2875
24521SOL     OW78018   0.866   5.040   9.718  0.1320  0.3843  0.2089
24521SOL    HW178019   0.903   5.116   9.762 -1.5867  0.3844  1.7749
24521SOL    HW278020   0.914   5.034   9.635  2.8722  0.9224  1.6634
24522SOL     OW78021   7.819   2.179   2.284 -0.6725 -0.1379  0.2735
24522SOL    HW178022   7.795   2.258   2.332  2.4103  0.1072  1.6168
24522SOL    HW278023   7.799   2.200   2.192 -0.7425  1.8676  0.7031
24523SOL     OW78024   4.080   5.130   6.184 -0.0486 -0.7075 -0.4112
24523SOL    HW178025   4.002   5.151   6.235  0.3611 -1.7454  0.7090
24523SOL    HW278026   4.060   5.046   6.142 -0.2732  0.0005 -1.7557
24524SOL     OW78027   5.429  10.983   9.611 -0.4595  0.5098  0.0576
24524SOL    HW178028   5.428  10.999   9.517  2.3246  1.1877  0.0473
24524SOL    HW278029   5.509  10.932   9.626 -1.6378 -0.9475  1.9028
24525SOL     OW78030   7.611   6.022   1.657  0.4233 -0.2535 -0.5111
24525SOL    HW178031   7.548   5.976   1.602 -0.8192 -0.5803  1.1100
24525SOL    HW278032   7.562   6.097   1.692  1.2642  0.1082 -0.0764
24526SOL     OW78033   4.789   5.793   5.114 -0.0535 -0.3142 -0.3856
24526SOL    HW178034   4.759   5.702   5.110 -0.9019 -0.0908  0.4216
24526SOL    HW278035   4.863   5.792   5.174 -0.7165 -0.3257  0.4506
24527SOL     OW78036   2.048   3.094   1.177  0.1626  0.4432 -0.0648
24527SOL    HW178037   2.077   3.105   1.268 -0.0306  0.3515  0.0082
24527SOL    HW278038   1.988   3.019   1.180  0.5667  0.0981 -0.3573
24528SOL     OW78039   9.015  10.493   0.076 -0.7892 -0.3274  0.5321
24528SOL    HW178040   9.098  10.458   0.108 -0.2323  0.1563 -0.3189
24528SOL    HW278041   9.034  10.585   0.056 -1.0272 -0.6265 -1.2932
24529SOL     OW78042   9.377  10.640   7.235 -0.0490 -0.6819  0.0648
24529SOL    HW178043   9.377  10.734   7.254  0.0538 -0.6689  0.0046
24529SOL    HW278044   9.465  10.624   7.200 -0.3100 -0.6607 -0.6120
24530SOL     OW78045   1.051   3.517   7.917  0.3274  0.2432  0.2331
24530SOL    HW178046   1.144   3.496   7.928 -0.5160 -3.5427  1.6259
24530SOL    HW278047   1.014   3.511   8.005 -1.6831 -1.4502 -0.6323
24531SOL     OW78048   8.445   0.196   4.915 -0.7937 -0.3914  0.2011
24531SOL    HW178049   8.539   0.211   4.924 -1.1697  3.1306 -0.3036
24531SOL    HW278050   8.427   0.213   4.823 -2.1210  0.9175  0.6501
24532SOL     OW78051   9.558   8.197  10.493  0.2560 -0.1729 -0.2549
24532SOL    HW178052   9.563   8.102  10.480  0.0651 -0.6527  2.6160
24532SOL    HW278053   9.642   8.230  10.462  0.6915 -1.3914 -0.4263
24533SOL     OW78054   3.999   9.768   6.503  0.6490  0.1347  0.2261
24533SOL    HW178055   4.016   9.861   6.486  0.2815  0.2983  0.7063
24533SOL    HW278056   3.910   9.753   6.469 -0.0197  0.4235  1.7622
24534SOL     OW78057   5.880   7.597   3.334 -0.7537 -0.9052 -0.2637
24534SOL    HW178058   5.827   7.677   3.322  0.1012  0.0647  2.0065
24534SOL    HW278059   5.968   7.623   3.308 -0.2441 -0.7243  1.5231
24535SOL     OW78060   9.410   1.714   3.224 -0.2137 -0.1138 -0.4021
24535SOL    HW178061   9.403   1.666   3.306  0.3007  0.3380 -0.0871
24535SOL    HW278062   9.368   1.798   3.242 -1.1841 -0.4500 -0.9752
24536SOL     OW78063   5.652   8.555   2.395  0.0785  0.0074  0.0465
24536SOL    HW178064   5.617   8.583   2.480  0.4353  2.3144 -0.5056
24536SOL    HW278065   5.585   8.583   2.332  1.6610  2.2286 -0.7802
24537SOL     OW78066   6.258   4.306   7.477 -0.1366 -0.0468  0.4064
24537SOL    HW178067   6.180   4.252   7.466 -0.5315 -0.3292  3.6345
24537SOL    HW278068   6.331   4.244   7.480  0.5338  0.2871 -3.7987
24538SOL     OW78069   7.987   0.082   3.282  0.1734  0.0453  0.0420
24538SOL    HW178070   7.985   0.080   3.186 -1.6711 -1.3639  0.0503
24538SOL    HW278071   7.950   0.168   3.304  0.4628  0.3161 -0.5056
24539SOL     OW78072   0.739   8.896   4.802 -0.0907  0.4141  0.1632
24539SOL    HW178073   0.679   8.917   4.874 -1.0558 -2.1256  0.1936
24539SOL    HW278074   0.763   8.981   4.765 -2.6914  1.5943  0.9670
24540SOL     OW78075   8.624   5.086   5.569 -0.3612  0.2556  0.0435
24540SOL    HW178076   8.629   5.096   5.664 -1.0167  1.3939 -0.0225
24540SOL    HW278077   8.532   5.103   5.548  0.1600  2.1984 -0.9896
24541SOL     OW78078   0.515   5.496   0.013  0.6481 -0.4997  0.2025
24541SOL    HW178079   0.600   5.533  -0.007  1.4645 -1.0612  2.3193
24541SOL    HW278080   0.476   5.558   0.075 -0.1623 -0.6442 -0.1429
24542SOL     OW78081   9.381   0.822   2.044 -0.0447 -0.1330 -0.1414
24542SOL    HW178082   9.400   0.804   1.952  1.8831  1.9017 -0.2207
24542SOL    HW278083   9.356   0.736   2.080 -0.3776 -1.0631 -2.4058
24543SOL     OW78084  10.577   8.893   6.344  0.2717  0.0412 -0.6739
24543SOL    HW178085  10.640   8.832   6.305  0.2863 -0.8575  0.7185
24543SOL    HW278086  10.503   8.838   6.370  1.1458  0.2025  2.5096
24544SOL     OW78087   8.256   0.038   5.489  0.3099 -0.3251  0.0236
24544SOL    HW178088   8.198   0.095   5.440 -0.2917 -1.9201 -1.2053
24544SOL    HW278089   8.336   0.033   5.436  1.2953  1.1612  1.2721
24545SOL     OW78090   4.177   9.242   1.471 -0.2274 -0.3576  0.2555
24545SOL    HW178091   4.100   9.188   1.488 -0.8699  0.5663  0.3865
24545SOL    HW278092   4.210   9.266   1.557 -1.9811  2.2274  0.3269
24546SOL     OW78093   1.117   0.845   7.083  0.1055 -0.2462  0.9944
24546SOL    HW178094   1.095   0.777   7.019  0.2033 -1.2822  2.0288
24546SOL    HW278095   1.138   0.921   7.030 -0.6312 -0.8262 -0.1869
24547SOL     OW78096   4.497   0.186   4.402 -0.2474  0.4653 -0.0203
24547SOL    HW178097   4.514   0.108   4.349  1.8712 -0.2740  1.5788
24547SOL    HW278098   4.499   0.258   4.340 -0.8248 -0.6099 -1.3417
24548SOL     OW78099   2.213   8.526   5.107 -0.5172 -0.0173 -0.2949
24548SOL    HW178100   2.205   8.469   5.031 -1.5390  1.1457 -1.1038
24548SOL    HW278101   2.186   8.612   5.075 -1.2598  0.4432  1.4508
24549SOL     OW78102  10.738  10.832   1.730  0.0330 -0.2531  0.1875
24549SOL    HW178103  10.762  10.862   1.818  1.6439 -1.4773  0.1957
24549SOL    HW278104  10.812  10.854   1.675 -1.0169  0.6187 -0.9345
24550SOL     OW78105   1.118   0.984   3.751 -0.3109  0.3740 -0.5932
24550SOL    HW178106   1.174   0.908   3.736 -0.7764  0.2967 -2.0188
24550SOL    HW278107   1.162   1.056   3.707 -0.2141  0.8049  0.1833
24551SOL     OW78108   8.360   0.435   5.255  0.4030  0.1020  0.1302
24551SOL    HW178109   8.319   0.414   5.171 -0.8864 -0.8977  0.9592
24551SOL    HW278110   8.452   0.451   5.234 -0.0724  0.8065 -1.5829
24552SOL     OW78111   2.142   7.318   3.551 -0.3960  0.1742  0.0287
24552SOL    HW178112   2.164   7.379   3.622  1.9256 -0.2718 -0.2307
24552SOL    HW278113   2.155   7.231   3.589  0.1554 -0.0787 -0.7355
24553SOL     OW78114  10.625   3.795   7.346 -0.0303  0.3387 -0.0631
24553SOL    HW178115  10.678   3.783   7.267  1.2789  1.0666  0.6733
24553SOL    HW278116  10.535   3.796   7.314  0.4658  0.6215 -1.5474
24554SOL     OW78117   3.493   0.939  10.221 -0.3225  0.1879  0.4280
24554SOL    HW178118   3.491   0.911  10.312  0.1454 -2.2181 -0.2167
24554SOL    HW278119   3.429   1.010  10.215  0.9480  1.6497  2.9685
24555SOL     OW78120   0.386   2.501   2.890  0.0723 -0.5688 -0.4441
24555SOL    HW178121   0.376   2.481   2.797  0.3785 -1.3567 -0.3117
24555SOL    HW278122   0.297   2.497   2.925 -0.2232  1.0059 -0.9356
24556SOL     OW78123   8.435   9.179   9.533  0.6362  0.1025  0.0561
24556SOL    HW178124   8.422   9.090   9.501 -0.6284 -1.3140  3.9628
24556SOL    HW278125   8.519   9.177   9.579  1.9034  1.7826 -1.9739
24557SOL     OW78126  10.467   4.003   0.058 -0.5158  0.1015  0.2075
24557SOL    HW178127  10.372   4.016   0.056 -0.9375 -2.4546 -0.1536
24557SOL    HW278128  10.485   3.952  -0.020  1.3916  1.5923 -0.3839
24558SOL     OW78129  10.929   5.697  10.941  0.2568  0.3100 -0.0872
24558SOL    HW178130  10.858   5.699  10.878 -0.6220  1.9517  0.8852
24558SOL    HW278131  10.996   5.756  10.904 -1.0709  2.8657  1.3107
24559SOL     OW78132   4.173   8.934   0.726 -0.1179 -0.3155  0.1683
24559SOL    HW178133   4.152   8.862   0.667 -0.6801 -0.6748  0.8054
24559SOL    HW278134   4.269   8.931   0.735 -0.1114 -0.7791 -0.0473
24560SOL     OW78135   8.892   1.688   3.096 -0.3025  0.0737  0.0666
24560SOL    HW178136   8.846   1.610   3.067  1.2410 -0.6910 -0.4129
24560SOL    HW278137   8.861   1.703   3.185 -3.0226  0.8396 -0.9232
24561SOL     OW78138   1.076   2.909   4.760 -0.0476  0.5302  0.1001
24561SOL    HW178139   1.011   2.891   4.829 -0.3224 -0.5425 -0.4196
24561SOL    HW278140   1.023   2.927   4.682  0.2601 -1.0358 -0.4972
24562SOL     OW78141   1.596   4.906   0.668  0.1086  0.0290  0.1370
24562SOL    HW178142   1.537   4.875   0.736 -0.1827  1.1262  0.4171
24562SOL    HW278143   1.592   5.002   0.675 -0.2198  0.1928 -1.6426
24563SOL     OW78144   0.313  10.052  10.980 -0.6466 -0.2185  0.2734
24563SOL    HW178145   0.351  10.117  11.040 -0.9447 -1.9592  2.4906
24563SOL    HW278146   0.233  10.094  10.947 -2.2203 -0.2431  3.6067
24564SOL     OW78147   1.354  11.061   8.497 -0.4599 -0.8063 -0.1744
24564SOL    HW178148   1.409  11.008   8.556 -1.4790 -1.5618  0.1298
24564SOL    HW278149   1.408  11.136   8.475  0.3566 -1.0654  0.8531
24565SOL     OW78150   5.057   4.402   1.885 -0.8186 -0.4664 -0.2380
24565SOL    HW178151   5.126   4.465   1.863 -1.3346  0.2143  0.0701
24565SOL    HW278152   5.064   4.334   1.817  1.0103 -1.1098  0.5228
24566SOL     OW78153  10.725   8.707   2.686 -0.0749  0.5875  0.3931
24566SOL    HW178154  10.741   8.617   2.657  0.9882  0.6786  0.6612
24566SOL    HW278155  10.652   8.736   2.632  1.1763  0.4067 -1.4968
24567SOL     OW78156   8.496   6.742   8.645 -0.4394 -0.1498  0.0125
24567SOL    HW178157   8.470   6.663   8.598  1.4922 -0.4116 -0.6662
24567SOL    HW278158   8.494   6.716   8.737  1.4135 -1.4337 -0.2567
24568SOL     OW78159   6.775  10.471   5.009  0.2831 -0.1302  0.2790
24568SOL    HW178160   6.693  10.495   5.053  0.5998  1.4566  0.0966
24568SOL    HW278161   6.748  10.426   4.930 -0.3480 -1.3889  1.1793
24569SOL     OW78162   0.180   9.499   8.500  0.0165 -0.0813 -0.1245
24569SOL    HW178163   0.276   9.509   8.497 -0.0422  0.5487 -0.0657
24569SOL    HW278164   0.148   9.588   8.514 -0.6005 -0.2143 -0.6554
24570SOL     OW78165   8.937   2.882   6.349 -1.0064 -0.1036 -0.4300
24570SOL    HW178166   8.943   2.977   6.340  0.5607 -0.1487 -0.2747
24570SOL    HW278167   8.863   2.868   6.408  1.1849  1.3196  3.0393
24571SOL     OW78168   5.508   1.201  10.601 -0.0494  0.6365 -0.6260
24571SOL    HW178169   5.574   1.175  10.536 -0.5389  0.5416 -1.0883
24571SOL    HW278170   5.531   1.291  10.622  0.6407  0.3868 -0.2701
24572SOL     OW78171   2.241   2.613   8.825  0.0722  0.3781 -0.4694
24572SOL    HW178172   2.154   2.572   8.827  0.4976 -0.5182  0.0996
24572SOL    HW278173   2.297   2.552   8.872  0.7325  1.6394  0.4273
24573SOL     OW78174   2.801   7.597   0.224  0.5135  0.6580 -0.7066
24573SOL    HW178175   2.885   7.554   0.236 -0.7594 -1.8631 -0.1045
24573SOL    HW278176   2.746   7.530   0.182 -2.8578 -0.0383  4.0223
24574SOL     OW78177   8.881   3.055   6.059 -0.0981  0.3132 -0.3780
24574SOL    HW178178   8.936   2.996   6.008 -0.6647 -0.8331  0.3178
24574SOL    HW278179   8.808   3.001   6.089  0.3988  0.8283  1.9651
24575SOL     OW78180   0.073   7.452   9.225 -0.0410 -0.4138  0.0433
24575SOL    HW178181   0.067   7.356   9.231  1.0722 -0.5245 -0.4602
24575SOL    HW278182   0.057   7.483   9.314  2.6302 -1.2542  0.8986
24576SOL     OW78183   0.801   7.694   0.157  0.4752 -0.5422 -0.4090
24576SOL    HW178184   0.716   7.692   0.113  0.5639  1.0528 -0.7257
24576SOL    HW278185   0.814   7.605   0.188 -1.2705 -0.8437 -0.4353
24577SOL     OW78186   0.863   9.981   7.308  0.6701 -0.1930 -0.4036
24577SOL    HW178187   0.881   9.945   7.395 -0.2192  1.1863  0.3994
24577SOL    HW278188   0.773  10.015   7.315  0.3613 -0.5988 -2.0616
24578SOL     OW78189   9.912   1.987   1.779 -0.0399  0.1040 -0.1396
24578SOL    HW178190   9.926   1.924   1.709 -2.7306 -1.0629  0.2433
24578SOL    HW278191   9.873   1.936   1.850  0.8970  1.5879  1.5492
24579SOL     OW78192   9.145   4.010   8.913 -0.1765  0.5295  0.0321
24579SOL    HW178193   9.069   3.980   8.963 -1.0468  0.3840 -1.3255
24579SOL    HW278194   9.156   4.102   8.938 -0.0472  0.2155  1.1389
24580SOL     OW78195   8.783   1.018   3.243  0.2434  0.8132  0.1364
24580SOL    HW178196   8.729   0.957   3.193 -0.3728 -0.9942  2.8071
24580SOL    HW278197   8.848   1.050   3.180 -1.8020  0.4381 -2.3144
24581SOL     OW78198   8.696   5.060   4.672  0.2955  0.2224 -1.0255
24581SOL    HW178199   8.676   4.992   4.736  1.0268  0.3172 -0.6874
24581SOL    HW278200   8.611   5.084   4.635 -0.0307 -0.4694 -0.7407
24582SOL     OW78201   1.886   7.361   3.963 -0.8204  0.4489 -0.1537
24582SOL    HW178202   1.822   7.290   3.966 -0.9347  0.5432 -0.2783
24582SOL    HW278203   1.959   7.331   4.017 -1.1772  0.5445  0.3929
24583SOL     OW78204  10.465   9.121   0.978 -0.0539 -0.2977 -0.2984
24583SOL    HW178205  10.506   9.062   1.041 -1.2264 -1.0569 -0.2102
24583SOL    HW278206  10.531   9.189   0.962 -0.1072  0.6410  2.6903
24584SOL     OW78207   6.685   5.230   6.371  0.1560  0.1644  0.6787
24584SOL    HW178208   6.592   5.207   6.366  0.0961  0.6007 -1.1020
24584SOL    HW278209   6.701   5.281   6.291  1.9843 -0.1109  0.8268
24585SOL     OW78210   2.086   3.198   4.817  0.4088  0.1744  0.4608
24585SOL    HW178211   1.991   3.201   4.811  0.2350  0.2563  2.4705
24585SOL    HW278212   2.115   3.283   4.784 -0.3778  0.8984  1.5469
24586SOL     OW78213  10.142   1.476   3.281  0.7203  0.4432 -0.5234
24586SOL    HW178214  10.169   1.399   3.231  0.7208  0.0817  0.0190
24586SOL    HW278215  10.056   1.498   3.247  0.6052  0.0360 -0.4989
24587SOL     OW78216   8.792   1.992  10.634 -0.6128  0.1663  0.0900
24587SOL    HW178217   8.847   1.931  10.682  0.0887  0.7349  0.0297
24587SOL    HW278218   8.712   1.943  10.615  0.0162 -0.7863 -0.1317
24588SOL     OW78219   2.368   0.037   1.593 -0.2032  0.0710  0.7884
24588SOL    HW178220   2.449   0.033   1.644 -0.6461 -1.5026  1.4477
24588SOL    HW278221   2.302   0.071   1.654 -0.8423 -2.2604  1.5478
24589SOL     OW78222   1.968   9.080   1.120  0.0250  0.1158 -0.4062
24589SOL    HW178223   1.904   9.097   1.189 -0.3855 -0.8903 -0.5163
24589SOL    HW278224   2.036   9.028   1.163  1.3482  2.0653 -0.0254
24590SOL     OW78225   3.149   5.789   0.376  0.2656 -0.0304  0.4466
24590SOL    HW178226   3.071   5.750   0.417  0.6396 -0.2833  0.9309
24590SOL    HW278227   3.115   5.833   0.298  0.1925 -3.9272 -2.0007
24591SOL     OW78228   4.030   4.763   6.516  0.0683 -0.3432 -0.0695
24591SOL    HW178229   4.029   4.852   6.552 -0.7394 -0.3853  0.0282
24591SOL    HW278230   4.031   4.706   6.592 -2.2533 -0.4400 -0.0471
24592SOL     OW78231   6.301   7.328   6.588  0.3106  0.0298  0.1894
24592SOL    HW178232   6.244   7.398   6.555 -0.2876 -1.5487 -2.5122
24592SOL    HW278233   6.248   7.283   6.654  0.7598  2.0818  2.0778
24593SOL     OW78234   0.426   0.128   3.819 -0.0168  0.8763 -0.0262
24593SOL    HW178235   0.398   0.036   3.820 -0.2683  0.9362  1.8289
24593SOL    HW278236   0.349   0.177   3.790 -0.0408  0.5530 -0.5176
24594SOL     OW78237   1.476   1.634   2.405 -0.2626  0.4848 -0.9653
24594SOL    HW178238   1.492   1.679   2.322  1.5649  1.8174  0.0329
24594SOL    HW278239   1.489   1.702   2.471  0.1486 -0.9533  0.4891
24595SOL     OW78240   6.984   0.957   9.708 -0.3290 -0.0581 -0.7321
24595SOL    HW178241   6.894   0.925   9.723 -0.0190 -0.0900  1.2885
24595SOL    HW278242   6.976   1.052   9.710 -0.4422 -0.0417 -1.5214
24596SOL     OW78243   0.431   5.199   1.634 -0.0246 -0.2232  0.5278
24596SOL    HW178244   0.435   5.106   1.656  0.2850  0.0751  1.8151
24596SOL    HW278245   0.405   5.200   1.541 -2.3275 -1.5465  1.0727
24597SOL     OW78246   8.086   7.813   3.772 -0.1379 -0.6446 -0.1319
24597SOL    HW178247   8.102   7.811   3.867 -2.4103  0.0517  0.3276
24597SOL    HW278248   8.154   7.757   3.735  0.5141 -1.3310  1.9633
24598SOL     OW78249   0.332   6.763   0.907 -0.8788 -0.0012 -0.1540
24598SOL    HW178250   0.359   6.854   0.920 -2.0623  0.0976  2.2744
24598SOL    HW278251   0.301   6.760   0.817  0.1875  1.7080 -0.6331
24599SOL     OW78252   8.692   2.841   4.753 -0.1542  0.2524  0.2842
24599SOL    HW178253   8.654   2.843   4.665 -0.1772  2.5732  0.3055
24599SOL    HW278254   8.624   2.799   4.807 -0.7578  0.1678 -0.5227
24600SOL     OW78255   1.169   5.415   8.225 -0.1857  0.0721  0.4988
24600SOL    HW178256   1.220   5.400   8.146 -0.6589  0.0647  0.1929
24600SOL    HW278257   1.131   5.330   8.246  0.1207  0.0248  0.8601
24601SOL     OW78258   9.097   0.460   3.014 -0.2309  0.1220 -0.5944
24601SOL    HW178259   9.003   0.464   3.001 -0.6517 -1.8877  1.1943
24601SOL    HW278260   9.130   0.407   2.942 -0.8640 -1.2455  0.0820
24602SOL     OW78261   5.503   7.585   1.161  0.1854  0.3156  0.3798
24602SOL    HW178262   5.468   7.496   1.165 -1.2371  0.8212 -0.1156
24602SOL    HW278263   5.570   7.581   1.093 -0.4762 -0.1942 -0.2638
24603SOL     OW78264   7.922   4.141   3.140  0.5519  0.0562 -0.1770
24603SOL    HW178265   7.885   4.198   3.073 -1.1792 -1.9222 -0.9840
24603SOL    HW278266   7.932   4.056   3.097 -1.0423 -1.4105  2.1254
24604SOL     OW78267   7.392   7.159   7.594 -0.5376  0.2407 -0.4185
24604SOL    HW178268   7.322   7.146   7.530  0.7632 -0.7826 -1.6888
24604SOL    HW278269   7.427   7.072   7.611 -1.0262  0.4327  1.9721
24605SOL     OW78270   1.203   2.659   9.498  0.3611  0.4996 -0.3714
24605SOL    HW178271   1.138   2.720   9.462 -0.6431 -1.0184 -1.2430
24605SOL    HW278272   1.220   2.690   9.586 -1.0320  1.3373 -0.3801
24606SOL     OW78273   6.147  10.945   9.809 -0.2462  0.4508  0.7019
24606SOL    HW178274   6.125  10.870   9.754  0.3122  0.4651  0.4517
24606SOL    HW278275   6.199  10.909   9.880  2.2911  0.9066 -0.8125
24607SOL     OW78276   5.507   3.888   7.090 -0.3305 -0.3391  0.6107
24607SOL    HW178277   5.436   3.857   7.145 -1.1549  0.3485 -0.0421
24607SOL    HW278278   5.470   3.962   7.042  0.9110  0.2158  0.4679
24608SOL     OW78279   7.284  10.405  10.398  0.8706  0.4526 -0.4214
24608SOL    HW178280   7.202  10.360  10.418 -0.1031  1.6889 -1.4217
24608SOL    HW278281   7.333  10.343  10.344  1.0030 -0.6323  0.8803
24609SOL     OW78282   8.107   1.039   7.520 -0.0543 -0.0385  0.1186
24609SOL    HW178283   8.021   1.062   7.484  0.6481  2.0304 -0.4203
24609SOL    HW278284   8.091   0.965   7.577 -2.3316  0.7295  0.5636
24610SOL     OW78285   9.531   0.116   1.240 -0.7628 -0.4010  0.3915
24610SOL    HW178286   9.526   0.210   1.257 -0.5670 -0.6679  2.0519
24610SOL    HW278287   9.625   0.096   1.243 -0.4738 -0.1814 -3.0365
24611SOL     OW78288   5.495   2.827   1.406 -0.0295 -0.1532  0.5946
24611SOL    HW178289   5.463   2.742   1.436 -2.3489  1.0759  1.9281
24611SOL    HW278290   5.555   2.856   1.475  1.6934 -1.1325 -0.4209
24612SOL     OW78291   2.067   8.964   9.645  0.0784 -0.5708 -0.0314
24612SOL    HW178292   2.006   9.034   9.670  0.2491 -0.6610  0.6739
24612SOL    HW278293   2.100   8.931   9.729  1.1143 -0.5047 -0.4040
24613SOL     OW78294   0.819   4.030   8.796  0.1860  0.2307 -0.1531
24613SOL    HW178295   0.724   4.022   8.790  0.2461 -0.5470 -0.1919
24613SOL    HW278296   0.834   4.091   8.868 -0.3278 -1.1742  1.1955
24614SOL     OW78297   3.762   2.555   0.487 -0.1003 -0.2113  0.0283
24614SOL    HW178298   3.815   2.627   0.454 -0.6539  0.1171 -0.1515
24614SOL    HW278299   3.736   2.507   0.408 -0.1493 -0.3198  0.1109
24615SOL     OW78300   2.533   2.351   2.033 -0.4367 -0.1888  0.0153
24615SOL    HW178301   2.510   2.303   2.112 -0.3134  0.1529  0.2574
24615SOL    HW278302   2.542   2.283   1.966 -2.0609 -0.3450 -0.0771
24616SOL     OW78303  10.911   3.720   3.789 -0.5932  0.0616 -0.2289
24616SOL    HW178304  10.914   3.779   3.713 -1.1703  1.0693  0.4998
24616SOL    HW278305  11.002   3.716   3.820 -0.5959  0.8465 -0.0961
24617SOL     OW78306  11.037   1.461   0.494  0.0406  0.1471 -0.3417
24617SOL    HW178307  11.069   1.429   0.579 -1.3122 -0.3670 -0.0092
24617SOL    HW278308  11.117   1.481   0.445  0.8858 -1.4586  0.3194
24618SOL     OW78309   1.601   7.775   2.182  0.5305 -0.5980  0.0183
24618SOL    HW178310   1.537   7.823   2.128  1.2801  2.6480  1.7790
24618SOL    HW278311   1.547   7.721   2.241 -0.6533  1.5669  1.0173
24619SOL     OW78312   0.433   8.788   6.322 -0.2378 -0.4666 -0.1326
24619SOL    HW178313   0.387   8.711   6.355 -0.0028  0.0675  1.4898
24619SOL    HW278314   0.524   8.776   6.350 -0.6996  1.7344  2.8116
24620SOL     OW78315   3.802   2.293   8.052  0.6579  0.2059  0.6232
24620SOL    HW178316   3.854   2.217   8.080  0.3396  0.2327  1.2997
24620SOL    HW278317   3.725   2.255   8.009  1.7301  0.1596 -1.4095
24621SOL     OW78318   0.887   8.939   6.701 -0.5265  0.0571 -0.1510
24621SOL    HW178319   0.814   8.918   6.643  0.3472 -0.3672 -1.1144
24621SOL    HW278320   0.851   9.004   6.762 -1.9151 -0.6904 -0.1277
24622SOL     OW78321   8.828   3.178   7.745  0.2467 -0.1210  0.1697
24622SOL    HW178322   8.880   3.098   7.746  0.4486 -0.0169  2.2761
24622SOL    HW278323   8.850   3.223   7.827 -1.3152  1.1283 -0.0300
24623SOL     OW78324   4.503   5.664   1.228  0.4278 -0.4183  0.4120
24623SOL    HW178325   4.415   5.630   1.208  0.3850 -0.8368  1.2514
24623SOL    HW278326   4.557   5.633   1.156 -0.1558  0.0523 -0.2476
24624SOL     OW78327   9.844   1.382   7.517  0.1474 -0.2605  0.1666
24624SOL    HW178328   9.849   1.286   7.522 -1.0172 -0.4113 -1.1048
24624SOL    HW278329   9.927   1.411   7.555  0.6020 -1.7754  0.4372
24625SOL     OW78330   4.299   6.451  11.011 -0.3499 -0.1222 -0.1700
24625SOL    HW178331   4.345   6.407  10.940  0.0666  0.9046 -0.5535
24625SOL    HW278332   4.313   6.395  11.087 -0.2425 -0.8893 -0.7434
24626SOL     OW78333   3.936   8.084   2.452  0.9926 -0.4238  0.2319
24626SOL    HW178334   3.973   8.060   2.537 -0.4091 -3.6044  0.0664
24626SOL    HW278335   4.003   8.058   2.388  1.1631 -0.0235  0.2444
24627SOL     OW78336   3.753   4.699   1.050  0.0604  0.4461  0.4549
24627SOL    HW178337   3.681   4.677   1.110  0.6814  0.3344  1.1680
24627SOL    HW278338   3.790   4.780   1.086  1.1976 -0.2673  0.9185
24628SOL     OW78339   1.724   5.990   5.803 -0.1695  0.5291 -0.3754
24628SOL    HW178340   1.744   6.062   5.863  0.5940  0.7937 -0.9320
24628SOL    HW278341   1.703   5.916   5.860  0.8366  0.6953  0.2270
24629SOL     OW78342   5.409   6.846   3.603 -0.3121 -0.2083  0.2019
24629SOL    HW178343   5.479   6.836   3.668 -0.8770 -0.1376  0.8385
24629SOL    HW278344   5.331   6.810   3.647 -0.6221 -0.5093 -0.5869
24630SOL     OW78345   6.834   1.116  10.829  0.4413  0.5687  0.3858
24630SOL    HW178346   6.802   1.026  10.834 -0.7777  1.0032  0.8813
24630SOL    HW278347   6.807   1.155  10.912 -2.8383  2.5651 -1.4101
24631SOL     OW78348   5.973   1.767   1.009  0.0861  0.3233 -0.4596
24631SOL    HW178349   6.023   1.848   1.020  0.0325  0.2279  0.5626
24631SOL    HW278350   5.975   1.750   0.915  0.3247  1.3647 -0.6474
24632SOL     OW78351   1.849   2.020   2.052 -0.3620 -0.1250  0.2371
24632SOL    HW178352   1.829   1.982   1.966  0.8126 -1.9525  0.7133
24632SOL    HW278353   1.943   2.037   2.049 -0.3575  0.0332  1.0907
24633SOL     OW78354   3.816   1.488   1.607 -0.4260  0.1761 -0.1398
24633SOL    HW178355   3.842   1.429   1.678  0.0355  0.9329  0.3425
24633SOL    HW278356   3.888   1.551   1.601 -0.6387  0.3417 -1.0329
24634SOL     OW78357   0.106   5.340   2.676  0.3058 -0.7834  0.5368
24634SOL    HW178358   0.015   5.311   2.670  0.1237 -0.6799  2.2025
24634SOL    HW278359   0.115   5.372   2.766  1.7061  0.2004  0.0870
24635SOL     OW78360   1.201  10.578   6.922  0.2195 -0.3544  0.5335
24635SOL    HW178361   1.122  10.535   6.890  0.6966 -1.1088  0.3323
24635SOL    HW278362   1.246  10.608   6.842 -0.5063  1.2884  0.6970
24636SOL     OW78363   1.623   0.887   4.596  0.1766  0.0096  0.1142
24636SOL    HW178364   1.629   0.981   4.615 -0.1650  0.6623 -2.6132
24636SOL    HW278365   1.640   0.845   4.680  1.1747  2.4887  1.2622
24637SOL     OW78366   0.540   1.992   9.859  0.5335  0.0784  0.1926
24637SOL    HW178367   0.630   1.959   9.867  0.5938  0.0571 -0.5714
24637SOL    HW278368   0.547   2.069   9.803  0.3637  1.3314  1.8301
24638SOL     OW78369   6.757   1.603   2.896 -0.3620 -0.1899 -0.1937
24638SOL    HW178370   6.779   1.623   2.805 -1.9527 -2.4256 -1.1679
24638SOL    HW278371   6.678   1.652   2.914 -1.7166 -1.9288 -1.0786
24639SOL     OW78372   2.327   9.588   5.108 -0.0724 -0.1234 -0.0931
24639SOL    HW178373   2.409   9.619   5.069 -0.8125  1.1987 -0.6881
24639SOL    HW278374   2.307   9.653   5.175 -0.8830 -0.1299 -0.3162
24640SOL     OW78375   5.792   4.417   3.017 -0.2501 -0.1610 -0.0835
24640SOL    HW178376   5.706   4.376   3.010 -0.1941 -0.3228  0.1889
24640SOL    HW278377   5.774   4.505   3.048 -0.5068  0.5563 -2.0736
24641SOL     OW78378   7.273   3.312   1.291  0.0765 -0.0026 -0.2382
24641SOL    HW178379   7.212   3.262   1.346  0.9644 -0.6065  0.2264
24641SOL    HW278380   7.262   3.273   1.204  0.8858 -1.1608  0.1540
24642SOL     OW78381   6.696   0.163   9.415 -0.1987  0.0294  0.9570
24642SOL    HW178382   6.781   0.190   9.449  0.1634 -1.5132  1.3571
24642SOL    HW278383   6.638   0.165   9.491 -0.2051 -0.1451  0.9578
24643SOL     OW78384   4.588  10.784   1.846 -0.7950  0.0996 -0.1237
24643SOL    HW178385   4.651  10.813   1.911  1.8028 -0.4746 -2.2126
24643SOL    HW278386   4.552  10.702   1.881 -0.8206  0.7202  1.3464
24644SOL     OW78387  10.929   8.371   3.539  0.2184 -0.0814  0.4628
24644SOL    HW178388  10.998   8.363   3.605  0.3645  1.2029  0.4951
24644SOL    HW278389  10.848   8.348   3.586  0.4493 -0.2321  0.7937
24645SOL     OW78390   7.065   8.251  10.511  0.3446  0.0057 -0.1265
24645SOL    HW178391   7.030   8.196  10.581 -3.7543  2.0234 -0.2833
24645SOL    HW278392   7.032   8.211  10.430  0.6042  0.6010 -0.5336
24646SOL     OW78393   2.048   6.017   8.666 -0.4076 -0.3137  0.1121
24646SOL    HW178394   1.970   6.067   8.690 -0.3420  0.3255 -0.9455
24646SOL    HW278395   2.121   6.075   8.685 -0.3125 -0.1055 -0.8252
24647SOL     OW78396   3.642   3.388   5.719  0.4834  0.4541 -0.0727
24647SOL    HW178397   3.586   3.448   5.669  1.2017  0.3685 -1.0190
24647SOL    HW278398   3.654   3.431   5.803 -1.9813 -0.0847  0.6567
24648SOL     OW78399   0.954  10.615   7.801  0.0737 -0.0705 -0.6825
24648SOL    HW178400   0.926  10.555   7.869 -0.5828  0.3830 -0.5463
24648SOL    HW278401   1.049  10.601   7.794  0.0679 -0.4691 -0.0311
24649SOL     OW78402   3.600   0.569   8.242  0.3966 -0.1261 -0.5655
24649SOL    HW178403   3.576   0.559   8.150 -1.6671  1.7213 -0.3333
24649SOL    HW278404   3.667   0.638   8.242  0.9061 -0.6171 -0.7235
24650SOL     OW78405   9.823   1.929   8.859 -0.1871  0.5389  0.0236
24650SOL    HW178406   9.823   1.950   8.952 -0.7206  1.5518 -0.1876
24650SOL    HW278407   9.882   1.993   8.819 -0.4625  0.5280 -0.4126
24651SOL     OW78408  10.759   8.033   0.360 -0.5368  0.2757 -0.1621
24651SOL    HW178409  10.771   7.964   0.425 -1.6697  1.9250  1.9037
24651SOL    HW278410  10.675   8.014   0.320  0.4040 -1.0462 -1.6125
24652SOL     OW78411   1.192   9.919   8.008  0.2414 -0.0950  0.2903
24652SOL    HW178412   1.133   9.952   7.940  0.1828 -0.8792 -0.0531
24652SOL    HW278413   1.257   9.988   8.018  0.1775  0.0945 -0.4761
24653SOL     OW78414   7.922   3.635   5.975  0.2937  0.6598 -0.1162
24653SOL    HW178415   7.951   3.546   5.995 -1.5210  0.5527  2.5704
24653SOL    HW278416   7.827   3.630   5.970  0.0894  2.5169  0.7207
24654SOL     OW78417   5.850   4.324   1.631 -0.6184  0.1964 -0.5637
24654SOL    HW178418   5.854   4.290   1.721 -0.4052 -2.8352 -1.5853
24654SOL    HW278419   5.777   4.278   1.591 -1.2905  2.1774 -1.7501
24655SOL     OW78420   5.297   3.290   3.392 -0.4347  0.3473 -0.0811
24655SOL    HW178421   5.215   3.328   3.424 -0.9727 -0.2899 -0.6401
24655SOL    HW278422   5.337   3.250   3.469 -1.0901 -0.0954  0.0405
24656SOL     OW78423   8.184   3.486   8.166 -0.1191 -0.3408 -0.1116
24656SOL    HW178424   8.268   3.457   8.202 -0.7765 -1.5712  0.4861
24656SOL    HW278425   8.207   3.555   8.104  1.3284 -0.6614  0.0381
24657SOL     OW78426   0.624   9.986   8.390 -0.2530  0.2971 -0.1634
24657SOL    HW178427   0.651   9.952   8.475 -0.3015  1.3533  0.2964
24657SOL    HW278428   0.532   9.963   8.383 -0.7387  1.7584  0.9081
24658SOL     OW78429   4.335  10.176   6.077  0.9063  0.8117  0.7334
24658SOL    HW178430   4.345  10.144   5.987  0.3929  0.6728  0.7218
24658SOL    HW278431   4.418  10.221   6.096  0.9814  0.9278  0.1582
24659SOL     OW78432   4.769   3.832  10.964  0.2107  0.3237 -0.4509
24659SOL    HW178433   4.862   3.829  10.982  0.3037  0.0328 -0.9574
24659SOL    HW278434   4.763   3.836  10.868 -0.2631  1.8172 -0.3876
24660SOL     OW78435   4.691   1.169   0.204 -0.1084 -0.0408  0.1477
24660SOL    HW178436   4.692   1.084   0.161  0.6459  1.0388 -2.1867
24660SOL    HW278437   4.780   1.180   0.238 -0.0683 -0.0080  0.0333
24661SOL     OW78438   2.579   6.748   4.326  0.0316 -0.6174  0.4536
24661SOL    HW178439   2.559   6.819   4.386 -0.6839 -0.4247 -0.0021
24661SOL    HW278440   2.650   6.783   4.271 -0.3600 -0.2265  0.1898
24662SOL     OW78441   9.764   7.135   9.801 -0.0760 -0.2184  0.7928
24662SOL    HW178442   9.669   7.141   9.791  0.1745  2.6943 -0.7731
24662SOL    HW278443   9.782   7.041   9.801 -2.6344 -0.9498 -3.1516
24663SOL     OW78444   5.871   4.891  10.023  0.2749  0.6866  0.7391
24663SOL    HW178445   5.927   4.886  10.100  0.1089  1.3686  0.9105
24663SOL    HW278446   5.783   4.905  10.058  0.4826  3.2114  0.3940
24664SOL     OW78447   5.621   2.180   3.599  0.6611  0.0536  0.3869
24664SOL    HW178448   5.547   2.179   3.659  2.3101 -1.7864  2.5180
24664SOL    HW278449   5.680   2.247   3.634 -0.2266  2.1802 -1.8148
24665SOL     OW78450   4.080   6.146   7.951 -0.3596  0.0404  0.0264
24665SOL    HW178451   4.155   6.176   7.899 -1.2764  1.5631 -0.4761
24665SOL    HW278452   4.003   6.170   7.898 -1.3683  2.1298  2.2616
24666SOL     OW78453   2.688  11.055   8.919  0.3426  0.0460 -0.2258
24666SOL    HW178454   2.779  11.083   8.926  0.6467 -0.3230 -2.1233
24666SOL    HW278455   2.642  11.132   8.885  0.3864 -0.4268 -1.3921
24667SOL     OW78456   4.670   2.769  10.411 -0.0758 -0.7887 -0.4137
24667SOL    HW178457   4.641   2.858  10.430  2.3341 -0.0621  0.2446
24667SOL    HW278458   4.641   2.718  10.487 -0.7680 -0.4091 -0.4134
24668SOL     OW78459   9.790   7.836  10.467 -0.3364 -0.3587 -0.4833
24668SOL    HW178460   9.759   7.803  10.551  0.3884 -0.0602 -0.0823
24668SOL    HW278461   9.877   7.797  10.456  1.0417  2.1269  0.5308
24669SOL     OW78462   7.410   3.272   0.588  0.0143  0.1504 -0.3783
24669SOL    HW178463   7.420   3.364   0.563  0.2572 -0.0547 -1.0866
24669SOL    HW278464   7.414   3.224   0.504 -1.7242 -0.3843 -0.1856
24670SOL     OW78465   8.224   3.343   0.046 -0.5179  0.5733  0.4472
24670SOL    HW178466   8.296   3.319  -0.012 -0.7953 -0.3467  0.4709
24670SOL    HW278467   8.219   3.272   0.110 -1.8952  0.2331  0.0181
24671SOL     OW78468   0.683   0.794   8.992 -0.2336 -0.1594 -0.2745
24671SOL    HW178469   0.764   0.779   9.041 -1.5662  0.5540  2.2747
24671SOL    HW278470   0.714   0.819   8.904  2.2201 -2.2686 -0.1406
24672SOL     OW78471   9.390   5.927   7.326  0.4757 -0.0802  0.7107
24672SOL    HW178472   9.427   5.904   7.240  0.9386  0.6903  0.6964
24672SOL    HW278473   9.365   6.019   7.317  0.7418  0.0691  1.4790
24673SOL     OW78474   3.623   4.827   3.333 -0.1744 -0.1479  0.1165
24673SOL    HW178475   3.597   4.741   3.367 -0.3763 -0.3740 -0.5946
24673SOL    HW278476   3.547   4.858   3.283  0.5041 -0.3419 -1.0839
24674SOL     OW78477   1.196   7.848  10.119 -0.4644 -0.1780 -0.0034
24674SOL    HW178478   1.212   7.826  10.211 -1.2385 -1.0521 -0.0688
24674SOL    HW278479   1.283   7.867  10.084 -0.2392  0.9675  1.1038
24675SOL     OW78480   8.600   7.313  11.053  0.0700 -0.0614 -0.1490
24675SOL    HW178481   8.516   7.268  11.047  0.0624 -0.0789  0.0948
24675SOL    HW278482   8.582   7.390  11.106  0.7078 -1.2590  1.9060
24676SOL     OW78483   0.756   6.867   3.544 -0.5456 -0.7256  0.7131
24676SOL    HW178484   0.728   6.934   3.607 -1.3950 -0.8354  0.4692
24676SOL    HW278485   0.842   6.839   3.575 -0.1451  0.5286  0.7832
24677SOL     OW78486   6.409   0.813   8.852  0.3254 -0.5638  0.6153
24677SOL    HW178487   6.474   0.803   8.783  1.6132 -1.4398  1.8980
24677SOL    HW278488   6.428   0.898   8.891  1.3627 -1.2155  1.5953
24678SOL     OW78489   3.303   4.054   1.188  0.1659  0.3954 -0.4563
24678SOL    HW178490   3.289   3.967   1.226 -0.1308  0.3853 -0.5845
24678SOL    HW278491   3.398   4.062   1.180  0.1645 -0.2822 -1.2767
24679SOL     OW78492   4.345   0.677   0.797  0.2029  0.0944 -0.3732
24679SOL    HW178493   4.283   0.650   0.864  2.5036  0.5187  2.0966
24679SOL    HW278494   4.345   0.772   0.801  0.4706  0.1205 -0.8798
24680SOL     OW78495   9.801   0.818   8.804  0.4567  0.3243  0.4151
24680SOL    HW178496   9.896   0.829   8.790  0.4657  0.4869  0.6022
24680SOL    HW278497   9.794   0.762   8.881  0.4000  0.7515  0.7266
24681SOL     OW78498   0.943   8.254  10.114 -0.2534  0.1814 -0.2757
24681SOL    HW178499   1.033   8.261  10.083  0.1522 -0.8752  0.6215
24681SOL    HW278500   0.895   8.215  10.040  0.6317 -1.9708  0.2058
24682SOL     OW78501   5.998   5.850  10.621  0.0467 -0.3342  0.1076
24682SOL    HW178502   5.926   5.828  10.680  0.3855 -2.4501 -0.2085
24682SOL    HW278503   5.970   5.932  10.579 -1.9980 -0.8941  0.2680
24683SOL     OW78504   4.169   2.604   2.254 -0.2994  0.6716  0.5137
24683SOL    HW178505   4.108   2.626   2.184 -0.4262  2.1799  1.0781
24683SOL    HW278506   4.114   2.587   2.330 -0.1548 -0.8821  0.3226
24684SOL     OW78507   1.618   6.449   7.631  0.0057 -0.4703  0.1511
24684SOL    HW178508   1.537   6.400   7.643  0.0454 -0.2503  1.4636
24684SOL    HW278509   1.646   6.472   7.719 -0.3188  2.4206 -0.3885
24685SOL     OW78510   6.293   2.915   8.430 -0.2846  0.2108 -0.5232
24685SOL    HW178511   6.242   2.958   8.498 -0.0727  0.7643 -0.7129
24685SOL    HW278512   6.379   2.901   8.471 -0.7539 -1.3285  0.0339
24686SOL     OW78513  10.804   8.875   9.259  0.2681  1.0382 -0.3391
24686SOL    HW178514  10.811   8.781   9.275 -0.0352  0.9804 -0.5477
24686SOL    HW278515  10.879   8.913   9.306 -0.5459  0.8634  1.1409
24687SOL     OW78516   5.436   2.526   5.674  0.1358  0.0801  0.5677
24687SOL    HW178517   5.476   2.612   5.689  0.8929 -0.2705  0.6252
24687SOL    HW278518   5.502   2.464   5.705 -0.4478 -0.5202  0.6196
24688SOL     OW78519   4.673   2.047   5.227  0.4481  0.0595 -0.3181
24688SOL    HW178520   4.589   2.084   5.253  0.5656 -0.5388  0.9869
24688SOL    HW278521   4.677   1.962   5.270  1.3553 -0.2938 -1.0572
24689SOL     OW78522   0.939   9.591   2.897 -0.0491  0.6324  0.0045
24689SOL    HW178523   0.912   9.676   2.861 -0.7935  0.6573  0.5838
24689SOL    HW278524   0.878   9.576   2.969  0.6295  0.0079  0.4621
24690SOL     OW78525   0.216   4.910  10.796  0.4296 -0.1302 -0.3552
24690SOL    HW178526   0.129   4.919  10.835  0.3638 -0.4098 -0.4355
24690SOL    HW278527   0.247   5.000  10.785 -0.4016  0.0288 -1.5605
24691SOL     OW78528  10.728   4.408   1.139  0.1965 -0.3567  0.2670
24691SOL    HW178529  10.646   4.438   1.102 -1.0474 -0.7674  2.4737
24691SOL    HW278530  10.779   4.376   1.065 -0.8335  1.6652 -1.3877
24692SOL     OW78531   6.708   9.422   0.741  0.1629 -0.0873 -0.1593
24692SOL    HW178532   6.787   9.434   0.687  1.0843 -1.0920  0.9089
24692SOL    HW278533   6.741   9.415   0.830 -1.0831 -1.1491  0.2396
24693SOL     OW78534   6.584   6.644   8.920  0.1813  0.2503  0.0869
24693SOL    HW178535   6.516   6.644   8.988  0.2022  2.0805  0.1466
24693SOL    HW278536   6.543   6.686   8.845  1.0348  0.7696 -0.0961
24694SOL     OW78537   1.657   3.201   5.498  0.1276  0.0761 -0.7532
24694SOL    HW178538   1.735   3.147   5.489  1.5650  1.4290  2.3788
24694SOL    HW278539   1.601   3.154   5.559 -0.3990  0.3221 -1.0322
24695SOL     OW78540   4.119   0.710   9.467  0.4509 -0.1644 -0.4292
24695SOL    HW178541   4.057   0.771   9.508 -0.7052 -1.3537 -0.3370
24695SOL    HW278542   4.171   0.677   9.541  2.8532  2.5060 -0.7378
24696SOL     OW78543   1.651   7.939   7.316 -0.6616 -0.1529  0.0226
24696SOL    HW178544   1.599   7.973   7.243 -0.3875 -0.7010 -0.4297
24696SOL    HW278545   1.737   7.978   7.304 -0.7419  0.1159  0.3137
24697SOL     OW78546   9.014   4.618   8.840  0.2241  0.2953  0.0577
24697SOL    HW178547   8.935   4.672   8.831  0.0995  0.0640 -0.2389
24697SOL    HW278548   9.028   4.613   8.935 -0.7591 -0.5898  0.1785
24698SOL     OW78549  10.066   5.463   1.139 -0.1038 -0.3342  0.0665
24698SOL    HW178550  10.025   5.444   1.223  0.9585  1.2728  0.9959
24698SOL    HW278551  10.012   5.416   1.075 -1.0085 -1.4882  1.6073
24699SOL     OW78552   9.568   2.145   1.401  0.9858 -0.2388 -0.0671
24699SOL    HW178553   9.579   2.197   1.480  0.3034  0.9517 -0.7272
24699SOL    HW278554   9.539   2.207   1.335 -1.7501 -1.7231 -0.4263
24700SOL     OW78555   1.455   1.114   2.669 -0.0330  0.2047  0.0779
24700SOL    HW178556   1.546   1.091   2.683  0.4204  2.3272  1.0119
24700SOL    HW278557   1.405   1.042   2.709  1.1379 -1.7715 -1.8137
24701SOL     OW78558   3.661  10.752   1.977  0.3965 -0.0895 -0.4087
24701SOL    HW178559   3.626  10.840   1.988  0.4433 -0.3440  2.5530
24701SOL    HW278560   3.754  10.766   1.956  0.5551  0.5902  0.6795
24702SOL     OW78561   0.248  10.398   8.875 -0.6480 -0.5525 -0.3358
24702SOL    HW178562   0.300  10.354   8.808  0.7745  0.8548 -0.2281
24702SOL    HW278563   0.305  10.468   8.907 -2.2165  0.3549  0.5999
24703SOL     OW78564  10.797   8.847   5.783  0.1885 -0.5495 -0.0449
24703SOL    HW178565  10.864   8.806   5.838  0.6128 -3.5270 -2.5071
24703SOL    HW278566  10.716   8.837   5.833  0.8298 -1.3705  0.8802
24704SOL     OW78567   1.154   0.334   9.010 -0.4770  0.3664 -0.5510
24704SOL    HW178568   1.079   0.288   8.973 -1.1304  1.5821 -0.8076
24704SOL    HW278569   1.228   0.275   8.998 -1.8031 -2.0699  2.1164
24705SOL     OW78570   8.451  10.227   3.231 -0.2204  0.0999 -0.3455
24705SOL    HW178571   8.500  10.146   3.245 -1.7185 -1.1870 -2.0274
24705SOL    HW278572   8.379  10.223   3.294 -0.1540  0.2615 -0.2574
24706SOL     OW78573   5.388  10.904   7.940  0.2805  0.5213  0.2459
24706SOL    HW178574   5.417  10.995   7.952  1.9269 -0.0912  1.1838
24706SOL    HW278575   5.301  10.912   7.900  0.1363  2.5147  0.8400
24707SOL     OW78576   6.111  10.759   4.733  0.3458 -0.5322 -0.6043
24707SOL    HW178577   6.073  10.705   4.665  0.8781 -0.9252 -0.5933
24707SOL    HW278578   6.186  10.801   4.692  0.1288 -0.0523 -0.5196
24708SOL     OW78579   8.462   2.423  10.755 -0.2561 -0.6526 -0.1345
24708SOL    HW178580   8.370   2.449  10.750  0.2911  1.2291 -1.2813
24708SOL    HW278581   8.472   2.357  10.686 -0.4212  0.2669 -1.0599
24709SOL     OW78582   4.118   2.303   4.981 -0.5439  0.6103 -0.7861
24709SOL    HW178583   4.107   2.221   5.028 -1.1579  0.5105 -1.0898
24709SOL    HW278584   4.128   2.277   4.889 -0.0205  0.8394 -0.8002
24710SOL     OW78585   7.377   3.263   5.184 -0.3980 -0.2038  0.2055
24710SOL    HW178586   7.324   3.218   5.250 -0.2443  0.2057  0.6155
24710SOL    HW278587   7.449   3.302   5.234 -1.6794  2.3221  0.2099
24711SOL     OW78588   9.532   5.392   4.031 -0.0896  0.1205  0.1941
24711SOL    HW178589   9.476   5.358   3.961  0.9979 -0.0503 -0.6049
24711SOL    HW278590   9.492   5.357   4.111  0.1301 -1.8412 -0.5020
24712SOL     OW78591   2.033   0.426   6.670 -0.2499  0.1163 -0.2671
24712SOL    HW178592   2.047   0.331   6.669  0.3130  0.1915 -0.0972
24712SOL    HW278593   2.114   0.461   6.706 -0.3379  0.6835 -0.6130
24713SOL     OW78594  10.064   3.515   1.588 -0.3136  0.2541  0.2018
24713SOL    HW178595  10.138   3.457   1.603 -0.4395 -0.2302 -0.9852
24713SOL    HW278596  10.070   3.539   1.496 -2.3506 -0.8590 -0.2921
24714SOL     OW78597  10.829   5.693   5.895 -0.1015 -0.1500 -0.0589
24714SOL    HW178598  10.865   5.755   5.832  1.5220 -1.2001 -0.2274
24714SOL    HW278599  10.739   5.723   5.909 -0.1304  0.8184 -1.9422
24715SOL     OW78600   8.050   6.019   1.919 -0.1943 -0.0515 -0.4720
24715SOL    HW178601   7.970   5.973   1.892 -0.4766  0.2414 -0.1479
24715SOL    HW278602   8.025   6.064   2.000  0.6404 -0.9289  0.2989
24716SOL     OW78603   9.695   7.944   9.208 -0.0348 -0.5024 -0.0925
24716SOL    HW178604   9.652   8.010   9.262 -1.3768 -0.4864 -1.1229
24716SOL    HW278605   9.774   7.987   9.175  0.2966 -0.1991  1.0578
24717SOL     OW78606   9.737   0.259   8.200  0.4212  0.1027  0.0784
24717SOL    HW178607   9.657   0.207   8.189  1.1229 -0.9353 -0.3547
24717SOL    HW278608   9.798   0.199   8.243  0.6804  1.1771  1.2423
24718SOL     OW78609  11.018   4.053   4.713 -0.8251  0.0919 -0.1430
24718SOL    HW178610  11.034   4.111   4.639  0.7686  0.4825  0.4654
24718SOL    HW278611  11.100   4.006   4.725 -2.4736 -3.5469 -1.6117
24719SOL     OW78612   3.918   4.298   8.219 -0.3448  0.5103  0.1983
24719SOL    HW178613   3.978   4.358   8.175 -0.4550  1.3987  1.2131
24719SOL    HW278614   3.899   4.340   8.303  0.6008 -1.5440  1.5224
24720SOL     OW78615  10.425   7.907   9.712  0.6934 -0.2745  0.4707
24720SOL    HW178616  10.342   7.923   9.668  0.8449 -0.1395  0.2337
24720SOL    HW278617  10.401   7.861   9.792  0.4200 -0.5814  0.2174
24721SOL     OW78618   3.158   9.291   4.080  0.0768  0.2422 -0.0192
24721SOL    HW178619   3.156   9.205   4.121 -0.5419  0.4829  0.4739
24721SOL    HW278620   3.161   9.353   4.154  3.5542  0.6288 -0.3252
24722SOL     OW78621   4.862   9.756   5.924  0.1490  0.3240  0.7318
24722SOL    HW178622   4.885   9.683   5.982 -1.0421  0.2542  1.1394
24722SOL    HW278623   4.826   9.714   5.846  0.0122  0.4676  0.7191
24723SOL     OW78624   8.886   8.228   0.713  0.2753  0.2900  0.2723
24723SOL    HW178625   8.980   8.245   0.701 -0.0537  1.2538 -1.1655
24723SOL    HW278626   8.883   8.151   0.771  1.9304  0.6157  0.8565
24724SOL     OW78627   9.965   0.273  10.282 -0.3382 -0.1469 -0.5745
24724SOL    HW178628   9.962   0.363  10.314  0.3873 -0.5241  0.5940
24724SOL    HW278629  10.055   0.260  10.254  0.4318 -1.4454  2.1897
24725SOL     OW78630   3.533   4.282   4.247 -0.0587  0.3381 -0.7026
24725SOL    HW178631   3.527   4.362   4.194 -0.3589  0.7722 -0.0406
24725SOL    HW278632   3.574   4.218   4.190 -2.4885  0.0684 -2.2756
24726SOL     OW78633   6.992   8.763   2.913  0.4398  0.3020  0.4151
24726SOL    HW178634   6.966   8.845   2.954 -0.6835  0.7547 -1.0978
24726SOL    HW278635   7.075   8.782   2.870 -0.1420  0.8520 -0.4845
24727SOL     OW78636   7.853   1.089   2.438  0.2459 -0.5611  0.1831
24727SOL    HW178637   7.859   1.178   2.474 -1.2400  0.4256 -1.8094
24727SOL    HW278638   7.760   1.067   2.443  0.3504 -1.3105 -0.8873
24728SOL     OW78639   6.230   7.631   8.822 -0.3654  0.3967 -0.0478
24728SOL    HW178640   6.261   7.722   8.818  1.2542 -0.1684 -3.1781
24728SOL    HW278641   6.309   7.578   8.826 -1.2331 -0.9619 -0.2248
24729SOL     OW78642   5.167   6.601   4.881  0.3819 -0.0502 -0.3248
24729SOL    HW178643   5.179   6.657   4.804  0.1590  0.2519 -0.1447
24729SOL    HW278644   5.122   6.657   4.944 -0.6461 -0.7003 -0.4594
24730SOL     OW78645   3.737   8.903   4.027  0.1944  0.3272 -0.1201
24730SOL    HW178646   3.743   8.980   4.084 -4.8316  0.6072  0.4564
24730SOL    HW278647   3.721   8.939   3.940  0.3441 -0.1094 -0.3316
24731SOL     OW78648   7.167   5.743   7.683 -0.4412 -0.0987  0.4866
24731SOL    HW178649   7.193   5.829   7.717 -1.8098  0.3623  0.4275
24731SOL    HW278650   7.223   5.729   7.607  0.7471  0.1057  1.2929
24732SOL     OW78651   8.072   5.977   7.277  0.2140 -0.2201 -0.3864
24732SOL    HW178652   7.991   5.954   7.323 -0.5194  2.0589 -0.4232
24732SOL    HW278653   8.060   5.943   7.188  0.4436 -2.1508  0.2647
24733SOL     OW78654   9.306   2.367   3.950 -0.9187 -0.2163 -0.2070
24733SOL    HW178655   9.291   2.344   4.042 -2.2222 -1.0326 -0.6139
24733SOL    HW278656   9.397   2.340   3.934 -0.7226 -0.1997  0.7928
24734SOL     OW78657   3.771   1.189   5.222 -0.2210 -0.2999  0.0714
24734SOL    HW178658   3.862   1.206   5.198 -0.1181  0.1359  0.7256
24734SOL    HW278659   3.750   1.258   5.285 -0.1534 -1.9089  1.9675
24735SOL     OW78660   4.260   3.733   3.907 -0.0914 -0.0868  0.1151
24735SOL    HW178661   4.196   3.759   3.973 -1.1568 -0.3276 -0.8039
24735SOL    HW278662   4.232   3.646   3.878  0.4409 -0.0482 -0.5559
24736SOL     OW78663   8.096   7.184   4.142 -0.0135 -0.2811  0.0446
24736SOL    HW178664   8.019   7.170   4.197  0.7961 -1.0930  1.0018
24736SOL    HW278665   8.061   7.213   4.058 -1.2993  0.6803  0.8749
24737SOL     OW78666   3.309   2.490   4.771 -0.0913  0.0206  0.1296
24737SOL    HW178667   3.271   2.558   4.828 -1.0859 -1.6457  1.5749
24737SOL    HW278668   3.320   2.415   4.829 -0.8404 -1.6725 -1.8078
24738SOL     OW78669   1.333   7.766   9.152  0.2883  0.3249 -0.3920
24738SOL    HW178670   1.320   7.709   9.228 -0.3576 -0.9475 -1.4202
24738SOL    HW278671   1.337   7.854   9.189 -0.2959 -0.2366  1.0910
24739SOL     OW78672   8.334   4.390   5.704 -0.2166 -0.0349 -0.1213
24739SOL    HW178673   8.306   4.302   5.676 -1.0327 -0.0326  0.6687
24739SOL    HW278674   8.292   4.449   5.641 -0.5795 -0.1369  0.0264
24740SOL     OW78675   6.079   9.648   0.414 -0.1087 -0.1658 -0.3142
24740SOL    HW178676   6.157   9.687   0.375 -0.8013  1.0580 -0.5359
24740SOL    HW278677   6.057   9.576   0.355  0.3524  0.0254 -0.7349
24741SOL     OW78678   0.621   6.226   6.339  0.0465 -0.0398  0.1554
24741SOL    HW178679   0.632   6.286   6.413 -1.6001  0.9175 -0.3176
24741SOL    HW278680   0.590   6.282   6.267  2.5867 -0.7575 -1.6186
24742SOL     OW78681   6.753   2.572   5.738  0.2244 -0.7391  0.2680
24742SOL    HW178682   6.777   2.510   5.807  1.4714 -0.8835 -0.2670
24742SOL    HW278683   6.760   2.521   5.657 -0.5278 -0.3843 -0.0281
24743SOL     OW78684   4.872  10.671   1.209  0.5299 -0.0562 -0.3615
24743SOL    HW178685   4.799  10.662   1.147  0.0715  2.3733 -0.2767
24743SOL    HW278686   4.950  10.673   1.154  0.4429 -1.4786 -0.5544
24744SOL     OW78687   4.881   0.318   9.660  0.1187 -0.3127  0.5463
24744SOL    HW178688   4.947   0.309   9.728 -0.8496 -1.1417  1.4108
24744SOL    HW278689   4.872   0.231   9.622 -0.3098 -0.1558  0.2727
24745SOL     OW78690   2.478   1.751   4.790 -0.2077 -0.1964  0.0803
24745SOL    HW178691   2.502   1.807   4.716  2.1270 -0.4151  0.5674
24745SOL    HW278692   2.563   1.723   4.826 -1.2938 -2.0185  1.3756
24746SOL     OW78693   7.169   0.240   1.896 -0.0129  0.7857 -0.5855
24746SOL    HW178694   7.240   0.233   1.832 -0.6232  1.4463 -1.3553
24746SOL    HW278695   7.210   0.278   1.974  1.0297 -1.2343 -0.0638
24747SOL     OW78696   1.591   2.333   8.512  0.3239 -0.0380 -0.3300
24747SOL    HW178697   1.533   2.368   8.445 -0.1692  0.8682  0.5436
24747SOL    HW278698   1.668   2.302   8.464 -1.2347 -2.1576 -1.6168
24748SOL     OW78699   8.213   2.301   7.560  0.6184 -0.4290  0.1040
24748SOL    HW178700   8.266   2.230   7.525 -0.1596 -0.4287 -1.1308
24748SOL    HW278701   8.252   2.381   7.525  2.3437 -0.0455  2.5790
24749SOL     OW78702   7.806  10.420  10.757  0.0310 -0.2804 -0.0210
24749SOL    HW178703   7.760  10.440  10.838  0.2439 -1.0063  0.2784
24749SOL    HW278704   7.799  10.501  10.706 -0.0060  0.2191  0.7583
24750SOL     OW78705   2.492   6.614   1.527 -0.6554  0.7090 -0.2326
24750SOL    HW178706   2.467   6.526   1.500  0.9875  0.5802 -1.5284
24750SOL    HW278707   2.584   6.621   1.502  0.4212  1.4519  3.4379
24751SOL     OW78708   8.525  10.438   2.070 -0.0419 -0.0545 -0.2207
24751SOL    HW178709   8.594  10.375   2.047 -0.2722  0.0660 -1.3066
24751SOL    HW278710   8.572  10.512   2.108  0.5741  0.5471 -2.0727
24752SOL     OW78711   1.719  10.296   0.373  0.5190  0.5416 -0.7615
24752SOL    HW178712   1.640  10.321   0.421  2.1744  2.1031  1.3221
24752SOL    HW278713   1.740  10.209   0.407  0.8519  1.0216  0.3079
24753SOL     OW78714   9.649   9.103   0.480  0.3287 -0.1164  0.1219
24753SOL    HW178715   9.559   9.070   0.471 -0.1477  0.5134  1.9756
24753SOL    HW278716   9.701   9.047   0.422 -1.2426 -0.5044 -0.9879
24754SOL     OW78717   1.834   1.977   6.091 -0.3492  0.3288 -0.7012
24754SOL    HW178718   1.813   2.047   6.152  1.1125  0.2799 -0.0921
24754SOL    HW278719   1.769   1.985   6.021 -1.1026  1.3500  0.0912
24755SOL     OW78720   3.376   5.543   8.568 -0.1023  0.1935  0.0071
24755SOL    HW178721   3.402   5.604   8.499  2.5022  0.9597  1.5315
24755SOL    HW278722   3.449   5.481   8.574 -1.4170 -1.3907  0.4276
24756SOL     OW78723   1.439   2.975   4.036 -0.6213  0.5272 -0.2714
24756SOL    HW178724   1.487   3.006   3.959 -1.8117 -0.7645 -1.6126
24756SOL    HW278725   1.503   2.976   4.107  1.4119 -1.0278 -1.9416
24757SOL     OW78726   8.550   1.735   6.964 -0.3659 -0.0266  0.0071
24757SOL    HW178727   8.498   1.707   6.889 -0.1612  1.9295 -0.9305
24757SOL    HW278728   8.551   1.659   7.023 -2.9272 -0.6468 -0.6403
24758SOL     OW78729   7.663   5.935   9.202  0.1382 -0.6343 -0.0814
24758SOL    HW178730   7.662   5.848   9.240  0.4867 -0.4395  0.3834
24758SOL    HW278731   7.752   5.946   9.168  0.1874 -0.3477  0.1323
24759SOL     OW78732   8.238   0.090   2.862  0.1052  0.1656 -0.0869
24759SOL    HW178733   8.240  -0.006   2.866  0.9404  0.2154  1.2273
24759SOL    HW278734   8.174   0.115   2.927 -0.5674  0.5053 -0.8610
24760SOL     OW78735   4.410   0.308   3.763 -0.0601  0.2406 -0.4144
24760SOL    HW178736   4.336   0.293   3.822  0.3782 -1.9752 -0.3542
24760SOL    HW278737   4.371   0.318   3.677 -0.5275  0.8080 -0.1419
24761SOL     OW78738   1.747   1.962   1.017 -0.1854  0.1314 -0.2224
24761SOL    HW178739   1.686   1.974   1.090 -0.2846 -1.8023  0.0558
24761SOL    HW278740   1.759   1.867   1.011  0.8962  0.3384 -1.8534
24762SOL     OW78741   3.612   3.027   0.266 -0.3219  0.3760  0.3034
24762SOL    HW178742   3.557   3.005   0.341 -1.1939 -1.0532 -0.7017
24762SOL    HW278743   3.557   3.083   0.211  0.0089  0.7234  0.3244
24763SOL     OW78744   1.347   1.797   1.895 -0.3873  0.4709  0.0086
24763SOL    HW178745   1.258   1.785   1.928 -0.4956  0.9560 -0.0916
24763SOL    HW278746   1.345   1.883   1.852 -0.0227  0.2325 -0.4986
24764SOL     OW78747   7.144   5.718   6.374  0.4287  0.2434 -0.0619
24764SOL    HW178748   7.059   5.702   6.415 -1.0622 -1.1604 -3.3285
24764SOL    HW278749   7.150   5.813   6.367 -0.2048  0.4212  1.4554
24765SOL     OW78750   0.016   0.492   2.240  0.4807  0.0189  0.5970
24765SOL    HW178751   0.082   0.433   2.204  0.8211  0.1311  1.0361
24765SOL    HW278752  -0.038   0.516   2.164 -0.7209 -2.1461  0.6687
24766SOL     OW78753  10.094   3.565   3.742 -1.0860  0.6059 -0.0275
24766SOL    HW178754  10.160   3.615   3.693 -1.2399 -0.6770 -1.5998
24766SOL    HW278755  10.146   3.509   3.800 -0.8395  0.6373 -0.2131
24767SOL     OW78756   8.309   9.471   2.004  0.2054 -0.0984 -0.5717
24767SOL    HW178757   8.316   9.438   2.093 -0.2521 -0.8277 -0.7956
24767SOL    HW278758   8.228   9.432   1.970 -0.0977  0.8748 -1.0063
24768SOL     OW78759   3.366   5.755   1.877  0.6111  0.7486 -0.5895
24768SOL    HW178760   3.335   5.814   1.945  0.3547 -1.3304  1.2190
24768SOL    HW278761   3.292   5.697   1.860  0.3553  1.7384 -3.3722
24769SOL     OW78762   3.350   1.289   7.532 -0.2175  0.1181  0.2052
24769SOL    HW178763   3.412   1.347   7.488 -0.0825 -0.4038 -0.3015
24769SOL    HW278764   3.400   1.210   7.551 -1.1862 -1.0946 -1.9504
24770SOL     OW78765  10.442   9.037   1.406 -0.2278 -0.2007 -0.4346
24770SOL    HW178766  10.478   9.089   1.478 -1.3637 -1.7175  1.3396
24770SOL    HW278767  10.519   9.000   1.362  0.5437 -1.7486  2.0028
24771SOL     OW78768   5.455   2.367   4.693  0.1151  0.1538 -0.2655
24771SOL    HW178769   5.359   2.365   4.688  0.0833  0.4495  0.1584
24771SOL    HW278770   5.482   2.421   4.619 -0.0966  0.7727  0.0994
24772SOL     OW78771   2.593   6.856   4.770 -0.1490  0.3382  0.1542
24772SOL    HW178772   2.645   6.797   4.823  1.0459  1.1514 -0.0875
24772SOL    HW278773   2.610   6.943   4.806 -1.0735  0.6566 -0.1454
24773SOL     OW78774   6.768   5.553   0.214  0.0840 -0.4610 -0.6797
24773SOL    HW178775   6.857   5.558   0.249  0.3024  0.2586 -1.3141
24773SOL    HW278776   6.766   5.468   0.169 -0.8814 -2.4688  2.7497
24774SOL     OW78777   5.882   9.089   1.987 -0.0905  0.9398 -0.3617
24774SOL    HW178778   5.921   9.006   2.013  0.7223  1.3585 -0.2084
24774SOL    HW278779   5.918   9.153   2.049 -0.7626  1.3921 -0.4298
24775SOL     OW78780   1.418   6.868   4.377 -0.0388  0.0082  0.5044
24775SOL    HW178781   1.345   6.918   4.414  0.5601  0.7641  0.6884
24775SOL    HW278782   1.461   6.830   4.453  0.2952  0.3167  0.4713
24776SOL     OW78783   7.206   8.753   5.753  0.7598  0.2410 -0.3394
24776SOL    HW178784   7.141   8.711   5.809  0.0433  1.2457 -0.3845
24776SOL    HW278785   7.255   8.681   5.714 -1.0519 -0.5997 -1.1865
24777SOL     OW78786  11.051   6.613  10.127 -0.2372  0.3831  0.2689
24777SOL    HW178787  11.096   6.694  10.105 -1.5163  0.8850 -0.6260
24777SOL    HW278788  10.990   6.638  10.197  0.2067 -0.0794  0.8306
24778SOL     OW78789   0.025   0.215   6.154  0.0915 -0.1226  0.0741
24778SOL    HW178790  -0.070   0.204   6.162  0.1314 -0.0552  0.6997
24778SOL    HW278791   0.060   0.178   6.235  0.4960  1.1324  0.5069
24779SOL     OW78792   6.605   6.193   5.691 -0.0599  0.5335  0.1301
24779SOL    HW178793   6.687   6.172   5.735  1.0766  0.7501 -1.7517
24779SOL    HW278794   6.578   6.112   5.648 -0.0415  0.8246 -0.4471
24780SOL     OW78795   7.693   8.515   8.205  0.3680 -0.6068 -0.1235
24780SOL    HW178796   7.649   8.451   8.149 -3.3018  0.4360  1.2908
24780SOL    HW278797   7.680   8.482   8.294  0.9858  0.6522  0.4493
24781SOL     OW78798   1.513   4.853   4.517  0.0251  0.2078  0.0910
24781SOL    HW178799   1.589   4.848   4.575 -0.6432 -0.2971  0.9559
24781SOL    HW278800   1.533   4.925   4.457  1.8145 -0.8181 -0.6339
24782SOL     OW78801   7.372   7.559   3.787  0.4174 -0.2232 -0.3722
24782SOL    HW178802   7.439   7.501   3.750  0.2621 -0.4942 -0.2293
24782SOL    HW278803   7.382   7.641   3.738  0.6248 -0.3759 -0.5894
24783SOL     OW78804   4.799   4.091   1.305  0.0282  0.2002  0.4040
24783SOL    HW178805   4.792   4.090   1.400 -0.3761  0.6116  0.3763
24783SOL    HW278806   4.722   4.044   1.274  2.1875 -3.7643  0.3750
24784SOL     OW78807   8.447   9.084   3.576 -0.2578 -0.2179 -0.4991
24784SOL    HW178808   8.439   9.006   3.631 -1.6134  1.1339  1.3324
24784SOL    HW278809   8.513   9.138   3.620 -0.5736  0.4260 -0.7987
24785SOL     OW78810   7.649   3.108   2.443 -0.1437 -0.2850  0.5713
24785SOL    HW178811   7.631   3.198   2.413  0.7143  0.8067  3.0728
24785SOL    HW278812   7.567   3.062   2.429 -0.6537  0.9156 -0.6559
24786SOL     OW78813   3.024   5.324   5.544  0.6331  0.3600  0.3927
24786SOL    HW178814   2.955   5.381   5.578 -1.3412 -0.9243 -1.2142
24786SOL    HW278815   3.049   5.363   5.461  1.4745  0.5128  0.7067
24787SOL     OW78816   3.451   7.260  10.429  0.2600 -0.0594 -0.7670
24787SOL    HW178817   3.510   7.297  10.364 -0.6059  2.5231 -0.2207
24787SOL    HW278818   3.465   7.315  10.507 -1.3246 -0.7330  0.0355
24788SOL     OW78819  10.391   6.422   4.997  0.2492 -0.0044  0.2060
24788SOL    HW178820  10.416   6.493   5.057  2.7506 -0.5691 -0.0750
24788SOL    HW278821  10.451   6.350   5.018 -1.0538 -1.4383 -0.7220
24789SOL     OW78822   1.401   0.377   9.968 -0.0842 -0.4936  0.0210
24789SOL    HW178823   1.350   0.378  10.049  0.1385 -2.2523  0.2379
24789SOL    HW278824   1.418   0.469   9.948  0.2773 -0.0315  2.2414
24790SOL     OW78825   2.846   4.443   0.904  0.4070  0.3338 -0.0603
24790SOL    HW178826   2.807   4.415   0.821  0.0174  0.2710  0.1394
24790SOL    HW278827   2.933   4.402   0.905 -0.3582 -1.4132  0.4903
24791SOL     OW78828   8.588   3.324   8.803  0.3514 -0.0371  0.7709
24791SOL    HW178829   8.577   3.265   8.878  1.3431 -0.8880  0.2686
24791SOL    HW278830   8.630   3.271   8.736 -0.5627  0.6962 -0.4299
24792SOL     OW78831   0.048   4.781   4.795 -0.6078  0.2054 -0.6083
24792SOL    HW178832   0.133   4.798   4.754 -0.3915  1.4477  0.3005
24792SOL    HW278833   0.012   4.706   4.746 -0.0301  1.1247 -2.5251
24793SOL     OW78834   6.753  10.815   3.987 -0.3269  0.5946 -0.0156
24793SOL    HW178835   6.769  10.769   3.904 -1.7930 -1.1476  0.5695
24793SOL    HW278836   6.839  10.826   4.026  0.3530  1.1245 -1.5908
24794SOL     OW78837   3.102  10.051   6.049  0.4373 -0.1794 -0.5969
24794SOL    HW178838   3.074   9.971   6.004 -0.2163  0.0787 -0.6696
24794SOL    HW278839   3.133  10.109   5.979  0.1691 -0.0775 -0.6346
24795SOL     OW78840   6.808   0.659   9.534  0.0185 -0.0521  0.3123
24795SOL    HW178841   6.897   0.625   9.545 -0.7970 -1.5625  3.1012
24795SOL    HW278842   6.759   0.585   9.498 -0.3639  0.4277 -0.1765
24796SOL     OW78843   1.571   4.190   7.248  0.2092 -0.4918  0.0836
24796SOL    HW178844   1.587   4.100   7.219 -0.9793 -0.6271 -0.2049
24796SOL    HW278845   1.644   4.210   7.305 -0.2932 -2.2188  1.4215
24797SOL     OW78846   7.429   9.478   5.098 -0.1747 -0.3515 -0.1997
24797SOL    HW178847   7.342   9.446   5.119 -1.1122  0.6410 -2.2439
24797SOL    HW278848   7.466   9.505   5.182 -1.9890 -0.4055  0.6660
24798SOL     OW78849   3.934  10.339   3.003 -0.3256  0.1842 -0.0655
24798SOL    HW178850   4.004  10.391   3.043  0.1470  0.7740 -1.5869
24798SOL    HW278851   3.903  10.393   2.930 -1.6941 -0.5160 -0.0331
24799SOL     OW78852   7.748   6.861   2.631 -0.5882 -0.0063  0.6069
24799SOL    HW178853   7.736   6.908   2.549 -0.4218  0.6761  0.9624
24799SOL    HW278854   7.687   6.903   2.692 -0.3000 -0.1234  0.9803
24800SOL     OW78855   2.580   8.433   5.697  0.1407  0.2409  0.0024
24800SOL    HW178856   2.668   8.404   5.673  0.0409 -0.1683  0.1247
24800SOL    HW278857   2.546   8.475   5.618  1.0635  1.9248  0.4341
24801SOL     OW78858   2.735   6.220   4.726  0.4166 -0.1901 -0.1382
24801SOL    HW178859   2.786   6.254   4.652  0.2751  0.2865 -0.0187
24801SOL    HW278860   2.689   6.144   4.691  2.3304 -1.5545  0.1028
24802SOL     OW78861   1.420   6.135   9.123  0.0255 -0.1785  0.0298
24802SOL    HW178862   1.369   6.086   9.059 -0.8089  1.1597 -0.3733
24802SOL    HW278863   1.375   6.219   9.130  0.4356 -0.0663  1.9294
24803SOL     OW78864   5.313   4.890   2.346 -0.2830 -0.3768 -0.1196
24803SOL    HW178865   5.225   4.892   2.308 -0.2209  1.6152 -0.2536
24803SOL    HW278866   5.326   4.978   2.380  1.5793 -0.7206  0.1328
24804SOL     OW78867   8.743   6.718   5.068 -0.3171 -0.4947  0.3506
24804SOL    HW178868   8.703   6.759   4.992  2.6750 -1.8572 -2.1701
24804SOL    HW278869   8.765   6.791   5.126 -4.1492  0.4514  0.8856
24805SOL     OW78870   8.308   7.200   4.882 -0.5002  0.0330  0.3069
24805SOL    HW178871   8.288   7.270   4.944 -1.3344 -0.0021  0.0988
24805SOL    HW278872   8.272   7.232   4.799  1.6921  0.6391 -0.4703
24806SOL     OW78873   4.064  10.455  10.282 -0.4159 -0.0955 -0.1548
24806SOL    HW178874   4.011  10.465  10.203 -0.4111  0.1256 -0.1291
24806SOL    HW278875   4.068  10.543  10.320 -0.6026 -0.2404  0.2109
24807SOL     OW78876   9.367   0.893   3.543 -0.7590 -0.1557 -1.0941
24807SOL    HW178877   9.428   0.957   3.579 -0.9508 -0.7164  0.3137
24807SOL    HW278878   9.423   0.824   3.507 -0.5357 -0.4697 -0.1777
24808SOL     OW78879   3.244   4.684   1.784 -0.0440  0.2883 -0.3288
24808SOL    HW178880   3.189   4.683   1.706 -0.7873 -1.1748  0.1773
24808SOL    HW278881   3.205   4.619   1.842  0.7570  1.0170  1.0925
24809SOL     OW78882   4.935   3.270  10.355  0.2493 -0.2027 -0.1101
24809SOL    HW178883   4.919   3.360  10.383  1.3901 -0.4104  1.3577
24809SOL    HW278884   4.979   3.230  10.430 -0.8033 -2.1669 -0.4805
24810SOL     OW78885   8.390  10.781   8.051  0.0273  0.2079 -0.1556
24810SOL    HW178886   8.374  10.687   8.042  2.1280 -0.5053  2.2626
24810SOL    HW278887   8.303  10.819   8.066 -0.8980 -1.2771 -1.4542
24811SOL     OW78888   0.466   7.588   6.084  0.3005  0.4652  0.1811
24811SOL    HW178889   0.406   7.600   6.011 -0.1027 -0.5791  0.3242
24811SOL    HW278890   0.472   7.493   6.095  1.8114  0.5506  0.3124
24812SOL     OW78891   8.591   9.494   9.573  0.1034  0.0494  0.3908
24812SOL    HW178892   8.607   9.492   9.667 -0.5086 -1.7706  0.4883
24812SOL    HW278893   8.664   9.446   9.535 -1.0642 -1.6996  0.2188
24813SOL     OW78894   0.821   1.806   0.792  0.6365 -0.0559 -0.6011
24813SOL    HW178895   0.900   1.794   0.738  2.0158 -1.0648  1.5241
24813SOL    HW278896   0.790   1.894   0.769  2.6435  0.5620 -1.1671
24814SOL     OW78897   1.115   4.922   7.078  0.6473 -0.5848  0.0528
24814SOL    HW178898   1.172   4.995   7.101 -1.8335  1.5173 -0.0395
24814SOL    HW278899   1.172   4.861   7.031  2.6735  1.6389 -0.5748
24815SOL     OW78900   3.113   2.592   0.539  0.2811 -0.2721  0.4139
24815SOL    HW178901   3.041   2.532   0.521 -0.6910  0.5574  1.3831
24815SOL    HW278902   3.192   2.540   0.523 -0.4666 -0.7321 -2.3150
24816SOL     OW78903   3.956   3.139   6.473  0.0239 -0.0146 -0.6235
24816SOL    HW178904   3.965   3.153   6.379  1.8035 -3.6482 -1.1889
24816SOL    HW278905   3.870   3.096   6.483 -0.4251  0.9011 -0.4788
24817SOL     OW78906   5.014   4.150   5.254  0.2961 -0.1812 -0.8461
24817SOL    HW178907   4.977   4.190   5.332 -0.5876 -0.4728 -1.1051
24817SOL    HW278908   5.026   4.223   5.193 -0.5876 -0.1828 -1.0372
24818SOL     OW78909   5.196   4.119   5.607  0.0664 -0.0178 -0.2867
24818SOL    HW178910   5.259   4.047   5.597 -0.7276 -0.8666  0.6095
24818SOL    HW278911   5.129   4.101   5.542 -0.3081 -0.2883  0.1706
24819SOL     OW78912   9.940   0.824   8.351 -0.5355  0.2269  0.5198
24819SOL    HW178913  10.010   0.884   8.323  0.0214 -1.7285 -2.8005
24819SOL    HW278914   9.984   0.760   8.407 -0.0628  0.1095  0.0216
24820SOL     OW78915   2.391   1.517   0.942 -0.5280  0.6712 -0.2265
24820SOL    HW178916   2.475   1.562   0.943  0.9954 -1.9567  1.9339
24820SOL    HW278917   2.344   1.552   1.018 -0.7820  1.0244 -0.5395
24821SOL     OW78918   5.671   3.639   8.036  0.3618 -0.1269  0.0693
24821SOL    HW178919   5.591   3.587   8.046  0.4676 -0.0556  1.5710
24821SOL    HW278920   5.742   3.575   8.047  0.4955  0.3099  2.2199
24822SOL     OW78921   9.320   8.548   2.014 -0.3114  0.1843 -0.5317
24822SOL    HW178922   9.259   8.561   1.942  0.3971  0.8634 -1.0226
24822SOL    HW278923   9.312   8.455   2.036 -3.1639  0.6674  0.9294
24823SOL     OW78924   1.830   0.506   6.334 -0.1036  0.7616 -0.5125
24823SOL    HW178925   1.804   0.503   6.242  0.4559  1.2413 -0.6927
24823SOL    HW278926   1.798   0.590   6.365 -1.2686  0.1356  0.0430
24824SOL     OW78927   0.710   4.543   5.926  0.0226 -0.5340 -0.2134
24824SOL    HW178928   0.727   4.564   6.018 -1.4169  0.0444 -0.0558
24824SOL    HW278929   0.763   4.464   5.909 -0.5773 -1.3247  1.4320
24825SOL     OW78930   3.623   3.126   5.256  0.0945  0.3548 -0.1443
24825SOL    HW178931   3.579   3.144   5.339  1.3553 -0.0115  0.6373
24825SOL    HW278932   3.583   3.187   5.194 -0.3855  1.1310  0.8945
24826SOL     OW78933   7.798   4.608   9.695  0.3053 -0.4197  0.1364
24826SOL    HW178934   7.853   4.560   9.756 -0.9572  0.1083  1.7937
24826SOL    HW278935   7.749   4.541   9.647  0.9303 -0.8345  0.0817
24827SOL     OW78936   6.988  10.216   1.945  0.2283 -0.0833 -0.4343
24827SOL    HW178937   7.017  10.246   2.031  2.9404  0.6135 -1.4951
24827SOL    HW278938   7.061  10.165   1.911 -2.1926 -3.6192 -0.9198
24828SOL     OW78939   9.591   8.296   6.019  0.6093 -0.0975 -0.3969
24828SOL    HW178940   9.681   8.265   6.030  0.0234 -2.3018 -1.4723
24828SOL    HW278941   9.542   8.220   5.988 -1.3442  1.4221 -1.2458
24829SOL     OW78942   6.020   4.355   8.716  0.2126  0.0683 -0.8442
24829SOL    HW178943   5.960   4.346   8.790 -0.8190  0.5334 -1.5982
24829SOL    HW278944   5.972   4.319   8.641  1.1878 -0.2809 -1.3224
24830SOL     OW78945   8.702   1.275   1.496  0.2924  0.0855  0.2290
24830SOL    HW178946   8.617   1.247   1.530 -0.0542 -1.4649 -1.7112
24830SOL    HW278947   8.764   1.213   1.534  0.3626  0.3350  0.5243
24831SOL     OW78948   1.998   0.903   7.177  0.3871  0.3749  0.3959
24831SOL    HW178949   1.965   0.943   7.097  1.1176 -0.1475 -0.1725
24831SOL    HW278950   1.958   0.815   7.178  0.2656  0.4329  0.6762
24832SOL     OW78951   8.806   5.780   7.047 -0.2244 -0.0875  0.3341
24832SOL    HW178952   8.807   5.697   7.094 -1.8540 -1.6691 -2.1810
24832SOL    HW278953   8.713   5.804   7.043  0.2713  2.5122  1.9260
24833SOL     OW78954   5.670   5.452   0.488  0.0481 -0.0303  0.5877
24833SOL    HW178955   5.601   5.408   0.538  0.6147 -1.0926  0.4441
24833SOL    HW278956   5.732   5.482   0.554  0.9286 -1.6589  0.5396
24834SOL     OW78957   3.284   3.682   3.700 -0.0219 -0.0620 -0.6177
24834SOL    HW178958   3.237   3.675   3.783 -0.1184 -0.8266 -0.7371
24834SOL    HW278959   3.249   3.612   3.646  1.5560 -0.9365 -0.5685
24835SOL     OW78960   4.577   0.308   3.260  0.0062 -0.3316  0.4208
24835SOL    HW178961   4.524   0.235   3.229 -0.4450 -0.6270  1.8028
24835SOL    HW278962   4.520   0.385   3.249  0.9289  0.0716 -2.2097
24836SOL     OW78963   7.504  10.537   3.887 -0.1447 -0.5189 -0.5710
24836SOL    HW178964   7.495  10.514   3.794  0.8861  0.8643 -1.0571
24836SOL    HW278965   7.572  10.605   3.888 -1.7416  1.1610  0.9197
24837SOL     OW78966   0.380   5.827   4.566 -0.2809 -0.4467 -1.1581
24837SOL    HW178967   0.311   5.878   4.608 -0.4744 -0.5588 -1.3384
24837SOL    HW278968   0.461   5.865   4.600 -0.4312 -0.4796 -0.7500
24838SOL     OW78969   1.063   6.319   4.768  0.1609  1.5214 -0.3409
24838SOL    HW178970   1.126   6.256   4.734 -0.5948  0.6928 -0.2439
24838SOL    HW278971   1.111   6.402   4.770  0.8492  1.1860 -1.4974
24839SOL     OW78972  11.013   5.305   3.185  0.0585  0.1358  0.4023
24839SOL    HW178973  11.051   5.344   3.263 -1.0492  0.4326  0.8016
24839SOL    HW278974  11.067   5.338   3.113 -0.6708  2.2096  0.7510
24840SOL     OW78975   1.820   5.399  10.367  0.4280 -0.0988 -0.0361
24840SOL    HW178976   1.911   5.382  10.392  0.8092  0.6283 -0.8947
24840SOL    HW278977   1.801   5.333  10.300  0.9142  0.8298 -1.1321
24841SOL     OW78978   0.745  10.719  10.429  0.1002  0.5350 -0.0669
24841SOL    HW178979   0.724  10.803  10.469 -1.2869  0.6003 -0.8778
24841SOL    HW278980   0.682  10.710  10.358 -1.3644 -2.2719  1.4347
24842SOL     OW78981   1.485   4.125   7.566  0.8932 -0.1528  0.3754
24842SOL    HW178982   1.525   4.185   7.502  1.8142  0.4815  1.5184
24842SOL    HW278983   1.438   4.061   7.512  2.0748  0.0553 -0.9643
24843SOL     OW78984  10.582  10.932   9.456  0.5708 -0.6448  0.4244
24843SOL    HW178985  10.636  10.992   9.405  0.5119 -0.7628  0.2221
24843SOL    HW278986  10.492  10.962   9.441  0.4971 -1.1723 -0.1851
24844SOL     OW78987   4.066   5.395   5.119  0.0682  0.3254 -0.2843
24844SOL    HW178988   4.102   5.323   5.169  2.8560  1.9778  0.2847
24844SOL    HW278989   4.097   5.474   5.164 -1.5744  1.9133 -1.7435
24845SOL     OW78990   9.727   5.802   3.025  0.3015 -0.0967 -0.3298
24845SOL    HW178991   9.802   5.743   3.027 -0.5967 -1.2713  0.1650
24845SOL    HW278992   9.653   5.747   3.051 -0.7834  0.9497 -1.1111
24846SOL     OW78993   5.548   7.689   6.085  0.3192  0.4382  0.4259
24846SOL    HW178994   5.542   7.685   5.990  1.9649  2.0230  0.2071
24846SOL    HW278995   5.520   7.602   6.114 -1.9632  0.4907 -1.3552
24847SOL     OW78996  10.640   9.262  10.872 -0.2727 -0.9809 -0.5361
24847SOL    HW178997  10.650   9.276  10.966  0.6705 -0.2697 -0.7192
24847SOL    HW278998  10.665   9.346  10.833  0.7786 -1.7031 -1.4767
24848SOL     OW78999   4.236   4.609   3.919  0.0571 -0.2967  0.0838
24848SOL    HW179000   4.261   4.558   3.842 -2.4168 -2.2476  0.4283
24848SOL    HW279001   4.238   4.546   3.991 -1.1862  0.5746  0.9181
24849SOL     OW79002   6.134   5.171   3.171 -0.2112  0.1239  0.0988
24849SOL    HW179003   6.226   5.155   3.192  0.2692  0.9830 -1.2775
24849SOL    HW279004   6.131   5.262   3.141 -1.6311  0.3182  0.7385
24850SOL     OW79005   8.006   9.418   5.636 -0.2538 -0.5158 -0.1521
24850SOL    HW179006   8.043   9.371   5.561 -1.3722 -1.6790 -0.0045
24850SOL    HW279007   8.025   9.361   5.711  0.4633  0.4229  0.4035
24851SOL     OW79008   2.290   6.568   0.891  0.1555  0.1032 -0.0693
24851SOL    HW179009   2.312   6.646   0.942  0.3143  1.0673 -1.5489
24851SOL    HW279010   2.375   6.526   0.875  0.5260  1.5262 -2.1746
24852SOL     OW79011   2.808   8.697   3.107  0.2033  0.0601 -0.0544
24852SOL    HW179012   2.866   8.754   3.056  1.2669 -1.8985 -1.1512
24852SOL    HW279013   2.720   8.724   3.081  0.6556  1.2858 -0.4189
24853SOL     OW79014   2.099   7.261   2.993  0.1536  0.0628 -0.1697
24853SOL    HW179015   2.017   7.226   2.957 -0.6252  0.1751  1.3995
24853SOL    HW279016   2.165   7.196   2.968 -0.2827  0.2402 -1.9278
24854SOL     OW79017   4.407   5.698   3.637 -0.2322  0.0416  0.0778
24854SOL    HW179018   4.411   5.686   3.732  1.4373 -0.2043  0.0094
24854SOL    HW279019   4.334   5.643   3.608 -0.3547 -0.3668  1.1438
24855SOL     OW79020   4.653   4.826   2.313  0.2253 -0.5828  0.5062
24855SOL    HW179021   4.739   4.795   2.341  0.8310 -2.3395 -2.7037
24855SOL    HW279022   4.594   4.754   2.333  0.2602 -0.9260 -0.5356
24856SOL     OW79023   7.085   4.610   1.463 -0.2250 -0.1328 -0.0321
24856SOL    HW179024   6.997   4.617   1.500 -0.0505 -0.3219  0.4189
24856SOL    HW279025   7.083   4.666   1.385 -0.8894 -0.5185 -0.2975
24857SOL     OW79026   6.086   1.975   8.847  0.2661  0.1525 -0.1540
24857SOL    HW179027   6.130   2.021   8.918 -0.8098  0.7732  0.1402
24857SOL    HW279028   6.090   1.882   8.873 -2.6333  0.5525  2.2895
24858SOL     OW79029   9.795   6.826   3.171  0.6241 -0.5494  0.2099
24858SOL    HW179030   9.750   6.849   3.090 -2.0935 -1.9964  1.2094
24858SOL    HW279031   9.872   6.777   3.142 -1.7383 -3.5498 -1.5894
24859SOL     OW79032   3.547   4.991   9.959 -0.0002  0.2113  0.3258
24859SOL    HW179033   3.639   4.999   9.987 -0.1564 -1.3146  1.4004
24859SOL    HW279034   3.497   4.991  10.040 -0.8461 -0.1881 -0.1845
24860SOL     OW79035   7.333   1.472   0.343 -0.5734  0.5426 -0.2749
24860SOL    HW179036   7.374   1.432   0.420  0.6523 -1.5103 -1.8664
24860SOL    HW279037   7.370   1.560   0.339 -3.5172  2.2578  3.4916
24861SOL     OW79038   2.910   6.719   6.134 -0.4480  0.1469 -0.1179
24861SOL    HW179039   2.936   6.636   6.093 -1.0424 -0.0620 -0.0820
24861SOL    HW279040   2.922   6.784   6.066 -1.7362 -0.2457 -0.7473
24862SOL     OW79041   6.751   1.417   6.808 -0.1959 -0.2645  0.3753
24862SOL    HW179042   6.687   1.352   6.781 -0.5590  0.1140  0.3076
24862SOL    HW279043   6.715   1.453   6.889  1.5853 -2.4265  2.2668
24863SOL     OW79044   4.645   0.799   4.647  0.1991  0.1772  0.2934
24863SOL    HW179045   4.590   0.728   4.680  1.0954 -0.8826 -0.3995
24863SOL    HW279046   4.626   0.802   4.553  3.1942 -2.1077 -0.5687
24864SOL     OW79047   8.937   3.192   7.469  0.0099 -0.0246  0.2533
24864SOL    HW179048   8.915   3.198   7.561 -2.3205 -0.3292 -0.2247
24864SOL    HW279049   8.916   3.101   7.446 -0.8407  0.4375 -0.8793
24865SOL     OW79050   9.632   8.857   7.584 -0.1521 -0.4318  1.0250
24865SOL    HW179051   9.565   8.921   7.559  1.1164  0.1023 -1.3357
24865SOL    HW279052   9.622   8.848   7.678 -2.1700  1.1863  1.0478
24866SOL     OW79053  10.097   1.808   5.593 -0.0315 -0.1143  0.2813
24866SOL    HW179054  10.022   1.752   5.575 -0.8500  0.6919  1.0404
24866SOL    HW279055  10.170   1.748   5.609 -0.9724 -0.9770  1.4448
24867SOL     OW79056   3.534  10.284   4.898  0.4254 -0.5049  0.6607
24867SOL    HW179057   3.619  10.257   4.865  0.5689  0.1475  0.4802
24867SOL    HW279058   3.523  10.373   4.865  0.1151 -0.2224  1.5016
24868SOL     OW79059  10.864   3.369   0.074  0.0113 -0.1905  0.4241
24868SOL    HW179060  10.925   3.356   0.147  0.6107 -3.4232 -0.4732
24868SOL    HW279061  10.780   3.339   0.107 -0.3797  1.1075  0.6394
24869SOL     OW79062   5.422   1.400   5.998  0.7821  0.3918 -0.1895
24869SOL    HW179063   5.422   1.317   6.044 -0.7768  0.6566  0.3434
24869SOL    HW279064   5.499   1.396   5.941  0.9945 -1.2067  0.1672
24870SOL     OW79065   5.316   7.099   3.481  0.0234  0.7850  0.1062
24870SOL    HW179066   5.288   7.089   3.572  0.4613 -2.1025  0.0105
24870SOL    HW279067   5.409   7.076   3.482  0.1977  1.4101 -0.9777
24871SOL     OW79068  10.717   0.773   4.352  0.0031  0.0580 -0.1584
24871SOL    HW179069  10.715   0.822   4.270 -0.7347  1.1829  0.5115
24871SOL    HW279070  10.749   0.837   4.417 -1.2756 -0.2245  0.7919
24872SOL     OW79071   1.328   5.511   4.456 -0.4773 -0.3631  0.0925
24872SOL    HW179072   1.279   5.533   4.376 -0.4979  1.1621  0.5101
24872SOL    HW279073   1.260   5.490   4.520 -0.4535 -2.5231 -0.4845
24873SOL     OW79074   9.864   0.947   9.063  0.1298  0.1696 -0.0520
24873SOL    HW179075   9.820   0.865   9.041  0.8897  0.0347 -1.1867
24873SOL    HW279076   9.794   1.012   9.068 -0.6104 -0.6988  1.8380
24874SOL     OW79077   7.423   7.312   5.534 -0.5010 -0.4709  0.0430
24874SOL    HW179078   7.362   7.318   5.461  0.8700  1.1157 -1.0524
24874SOL    HW279079   7.450   7.402   5.550  1.6491 -1.1105  0.3719
24875SOL     OW79080   7.579   5.157   7.330 -0.4707 -0.6368 -0.2140
24875SOL    HW179081   7.504   5.154   7.271 -0.4000 -0.5908 -0.3056
24875SOL    HW279082   7.624   5.239   7.308 -0.4630 -0.6042 -0.0745
24876SOL     OW79083   2.521   2.940   5.374 -0.0210 -0.1838  0.2063
24876SOL    HW179084   2.469   2.898   5.305 -1.2016  0.4000  0.7047
24876SOL    HW279085   2.506   2.886   5.452  0.4961 -0.2685  0.2508
24877SOL     OW79086   1.292   5.335   9.480  0.5315 -1.1570  0.2335
24877SOL    HW179087   1.218   5.305   9.427  1.5818 -1.0968 -1.3545
24877SOL    HW279088   1.268   5.423   9.508  0.5647 -0.5578 -1.4926
24878SOL     OW79089   4.948   8.004  10.994  0.1362  0.1017  0.3829
24878SOL    HW179090   4.965   7.943  10.923  1.4728  0.7591  0.1041
24878SOL    HW279091   4.896   8.074  10.954  1.5902  0.8971 -0.2122
24879SOL     OW79092   2.252   9.744   3.059  0.3211  0.0960 -0.1787
24879SOL    HW179093   2.321   9.695   3.103 -0.4069 -0.7934 -0.0064
24879SOL    HW279094   2.211   9.680   3.000 -0.4059  0.5863 -0.2192
24880SOL     OW79095   9.187   2.481   0.048 -0.2748 -0.1095  0.0520
24880SOL    HW179096   9.224   2.569   0.057 -1.5313  0.3204  1.7211
24880SOL    HW279097   9.244   2.436  -0.014 -0.6532  2.4609 -2.3597
24881SOL     OW79098   0.530  10.268   4.699 -0.4014 -0.0466 -0.3219
24881SOL    HW179099   0.462  10.243   4.761  1.7269 -2.9045  1.0789
24881SOL    HW279100   0.496  10.239   4.614 -0.3440 -3.1149  0.5786
24882SOL     OW79101   5.197   1.286   8.848 -0.1878  0.3108 -0.0781
24882SOL    HW179102   5.288   1.306   8.868 -0.4617 -0.3553  1.9867
24882SOL    HW279103   5.177   1.341   8.771  2.0096  0.2212 -0.7826
24883SOL     OW79104   4.020   5.770   7.181  0.0169 -0.3269 -0.0854
24883SOL    HW179105   3.942   5.816   7.211 -1.1393 -1.9669 -0.4913
24883SOL    HW279106   4.053   5.825   7.109 -0.6203  0.5063  0.2443
24884SOL     OW79107   8.638   3.755   0.155 -0.2211 -0.0378 -0.6166
24884SOL    HW179108   8.562   3.713   0.195  0.3211  0.4375  0.9630
24884SOL    HW279109   8.604   3.835   0.116 -0.4236  0.6249  0.8571
24885SOL     OW79110   2.073   6.722   7.498 -0.1774 -0.6501  0.2416
24885SOL    HW179111   2.116   6.712   7.413  0.6675  1.9431  0.2651
24885SOL    HW279112   1.984   6.748   7.477 -0.4916 -1.7156  0.1899
24886SOL     OW79113   1.690   7.315   2.322 -0.2445  0.5711 -0.2643
24886SOL    HW179114   1.742   7.363   2.386 -0.2757 -0.8513  0.8857
24886SOL    HW279115   1.610   7.366   2.313 -0.5597  0.4329  1.4292
24887SOL     OW79116   4.900   1.087   2.765 -0.5990 -0.2446  0.2868
24887SOL    HW179117   4.873   1.023   2.700 -1.0112 -0.5619  0.7653
24887SOL    HW279118   4.871   1.171   2.729  1.5116 -0.0792 -1.2010
24888SOL     OW79119   5.128   8.380   3.999 -0.3152  0.3779 -0.7801
24888SOL    HW179120   5.149   8.473   4.008  0.7816 -0.0375  1.7338
24888SOL    HW279121   5.205   8.342   3.955 -0.6097  0.5688 -1.4806
24889SOL     OW79122   9.032   3.891   3.089 -0.0250 -0.0839 -0.6519
24889SOL    HW179123   9.022   3.967   3.146  0.3956 -0.1192 -0.5301
24889SOL    HW279124   8.953   3.891   3.035  0.6253  1.3130 -1.6835
24890SOL     OW79125   2.877   1.353  10.387  0.1872  0.1761  0.2338
24890SOL    HW179126   2.876   1.271  10.337 -0.0759  0.6684 -0.6018
24890SOL    HW279127   2.789   1.390  10.375  0.3675  0.6803  0.4172
24891SOL     OW79128   0.199   1.847   3.901 -0.2112  0.4675 -0.0355
24891SOL    HW179129   0.170   1.926   3.947 -0.5704 -0.0623  0.6685
24891SOL    HW279130   0.281   1.823   3.945  1.3772  1.9342 -1.9874
24892SOL     OW79131   8.367   5.464   2.277  0.0382 -0.7405  0.0507
24892SOL    HW179132   8.444   5.501   2.233  0.2138  0.4170  1.2612
24892SOL    HW279133   8.401   5.425   2.357 -0.9267  3.5197  2.8731
24893SOL     OW79134   2.264   6.226   8.384 -0.6469  0.0405  0.0626
24893SOL    HW179135   2.223   6.268   8.459 -0.6786  0.4571 -0.1872
24893SOL    HW279136   2.353   6.261   8.384 -0.3858 -0.5956  0.3966
24894SOL     OW79137  10.529   3.965   4.091 -0.3010  0.4033 -0.6025
24894SOL    HW179138  10.598   3.898   4.089 -0.2715  0.3799  0.6906
24894SOL    HW279139  10.455   3.924   4.045  0.0421 -0.1369 -0.6846
24895SOL     OW79140   0.022  10.728   5.995 -0.6547 -0.3329 -0.0644
24895SOL    HW179141   0.043  10.811   6.037 -1.2346 -0.5064  0.6015
24895SOL    HW279142  -0.066  10.742   5.958  0.1403  0.0721 -1.9442
24896SOL     OW79143   7.476   4.025   0.638 -0.1909 -0.6423  0.2818
24896SOL    HW179144   7.517   3.939   0.626 -0.3943 -0.6590 -0.3265
24896SOL    HW279145   7.550   4.086   0.641 -0.1070 -0.4361 -2.7310
24897SOL     OW79146   9.389   3.255   3.444  0.4981 -0.0529 -0.3989
24897SOL    HW179147   9.396   3.350   3.431 -1.6926  0.4263  1.2466
24897SOL    HW279148   9.371   3.220   3.357  2.0676  0.8970 -1.1592
24898SOL     OW79149   9.812   2.340   6.292 -0.4346 -0.4552  0.2377
24898SOL    HW179150   9.797   2.286   6.369  0.2350 -0.3263  0.4712
24898SOL    HW279151   9.905   2.327   6.271 -0.8917 -1.4825 -1.3236
24899SOL     OW79152   4.667   5.696   1.006  0.3890 -0.1494  0.3611
24899SOL    HW179153   4.746   5.723   0.959  0.9501 -1.4634  0.4721
24899SOL    HW279154   4.623   5.777   1.030  1.4673  0.5965 -0.1240
24900SOL     OW79155   8.067   9.839   6.955 -0.1583  0.2987  0.8867
24900SOL    HW179156   8.099   9.921   6.917  1.8982 -1.1940 -0.8313
24900SOL    HW279157   7.983   9.823   6.912  0.7849  0.1090 -0.9835
24901SOL     OW79158   1.386   7.509   0.934 -0.3991 -0.6833 -0.6229
24901SOL    HW179159   1.338   7.507   0.852  1.0144 -0.0869 -1.5090
24901SOL    HW279160   1.478   7.514   0.908  0.1077 -0.8864  0.9997
24902SOL     OW79161   0.573   7.395   6.498 -0.1866  0.3859  0.0303
24902SOL    HW179162   0.576   7.373   6.591 -0.1542 -1.1244 -0.2996
24902SOL    HW279163   0.623   7.476   6.490  2.4729 -1.0682  0.9193
24903SOL     OW79164   0.483   0.112   6.301  1.1628 -0.0071  0.0821
24903SOL    HW179165   0.437   0.055   6.240 -2.1880  1.0707  1.3445
24903SOL    HW279166   0.539   0.053   6.352 -0.3607 -1.8294 -0.2327
24904SOL     OW79167   3.777   2.497   1.250  0.0981  0.1547  0.1411
24904SOL    HW179168   3.784   2.470   1.159  3.5086  1.2713 -0.0829
24904SOL    HW279169   3.749   2.418   1.296 -1.4182 -0.5107 -1.7923
24905SOL     OW79170   8.462   0.294   1.596  0.6602  0.0106 -0.7424
24905SOL    HW179171   8.538   0.351   1.581  1.3344 -0.8750 -0.8152
24905SOL    HW279172   8.399   0.320   1.530  0.5410  1.3722 -0.1062
24906SOL     OW79173   5.132   2.972   2.020 -0.3994 -0.1001  0.4457
24906SOL    HW179174   5.039   2.983   2.037 -0.0294  0.5432  2.2983
24906SOL    HW279175   5.169   2.942   2.103  0.7156 -2.8399 -0.9114
24907SOL     OW79176   8.420   9.831   8.673 -0.2904 -0.1168  0.3515
24907SOL    HW179177   8.490   9.863   8.730 -0.9839  0.1870  1.0486
24907SOL    HW279178   8.415   9.896   8.602  1.6922 -1.3578 -1.0151
24908SOL     OW79179   1.506   6.039   9.362  0.0596 -0.4119 -0.0477
24908SOL    HW179180   1.479   6.062   9.274  0.4715  1.2389  0.2243
24908SOL    HW279181   1.426   6.048   9.415 -0.0116 -0.6654 -0.1062
24909SOL     OW79182   1.780   3.090  10.684  0.1764 -0.3615  0.1344
24909SOL    HW179183   1.829   3.012  10.657  0.2439 -0.4363  0.4682
24909SOL    HW279184   1.848   3.153  10.708  0.1014 -0.7305  1.3414
24910SOL     OW79185   8.872   5.966   3.473  0.7129  0.1933 -0.0446
24910SOL    HW179186   8.862   6.061   3.461  3.1316  0.7886  1.7302
24910SOL    HW279187   8.966   5.950   3.460  0.6727 -1.6308  1.4433
24911SOL     OW79188   6.575   9.158   5.776 -0.0687  0.4773  0.3561
24911SOL    HW179189   6.506   9.095   5.755 -1.1302  1.5376  0.5917
24911SOL    HW279190   6.529   9.240   5.793  1.3145  1.4636 -0.4509
24912SOL     OW79191   1.656   1.552   1.839  0.0194  0.2769  0.8314
24912SOL    HW179192   1.681   1.497   1.913 -0.8164 -0.8811  0.2837
24912SOL    HW279193   1.734   1.552   1.783  0.3013  0.3190  1.2189
24913SOL     OW79194   4.866   0.529  11.025  0.1413 -0.0109  0.5019
24913SOL    HW179195   4.929   0.505  10.958  2.0384 -0.5048  2.3541
24913SOL    HW279196   4.797   0.576  10.978  1.8944  0.5817 -1.6108
24914SOL     OW79197   4.062   7.051   9.092  0.5257  0.5545 -0.1104
24914SOL    HW179198   4.063   7.124   9.154  0.3473 -0.4298  1.0887
24914SOL    HW279199   4.139   6.998   9.116 -0.6319 -0.8772  0.5790
24915SOL     OW79200   6.913   2.494   5.154  0.1740  0.0997 -0.2108
24915SOL    HW179201   6.825   2.477   5.188  0.2383  0.4472  0.1383
24915SOL    HW279202   6.900   2.563   5.088  0.1366 -0.1122 -0.4263
24916SOL     OW79203  10.630   8.673   1.684 -0.0536 -0.0885 -0.0305
24916SOL    HW179204  10.623   8.759   1.725 -0.3207 -1.1815  2.3785
24916SOL    HW279205  10.715   8.673   1.640 -0.6263  1.8295 -1.2393
24917SOL     OW79206   0.232   0.668   8.865 -0.7601  0.0182 -0.4528
24917SOL    HW179207   0.156   0.727   8.864 -2.1496 -1.6013  1.3204
24917SOL    HW279208   0.232   0.628   8.779 -2.1284 -0.1610 -0.3922
24918SOL     OW79209   7.999   7.429   1.929  0.2796 -0.8192 -0.0996
24918SOL    HW179210   7.958   7.488   1.866 -1.1384 -0.4022  1.1536
24918SOL    HW279211   8.091   7.426   1.903 -0.1587 -0.2411 -1.8324
24919SOL     OW79212   4.498   6.772   9.934 -0.0684 -0.1659  0.4222
24919SOL    HW179213   4.589   6.782   9.907 -0.1092 -0.7123  0.0579
24919SOL    HW279214   4.503   6.729  10.020  0.0435  0.9702  0.9980
24920SOL     OW79215   3.546  11.006   3.865 -0.2294 -0.1436  0.1326
24920SOL    HW179216   3.455  10.993   3.837 -0.7096  1.1093  1.0121
24920SOL    HW279217   3.546  10.983   3.958  0.8408 -2.0630 -0.2793
24921SOL     OW79218   2.781   3.391   9.171  0.7296 -0.1005 -0.0280
24921SOL    HW179219   2.804   3.483   9.169  0.3172 -0.0065 -1.6485
24921SOL    HW279220   2.864   3.345   9.183  0.8072  0.4789  2.1087
24922SOL     OW79221   8.448   1.093  10.615 -0.2515  0.4532 -0.0136
24922SOL    HW179222   8.459   1.002  10.587 -0.2505  0.7716 -1.1158
24922SOL    HW279223   8.359   1.096  10.651 -0.7373  0.2897 -1.1557
24923SOL     OW79224   8.802   9.979  10.666 -0.4496 -0.0187 -0.0665
24923SOL    HW179225   8.811  10.001  10.574 -2.6191  3.4465  0.3550
24923SOL    HW279226   8.721  10.022  10.693  0.5116 -0.2082  3.6566
24924SOL     OW79227   2.313   9.398   1.628  0.1919  0.1113 -0.0008
24924SOL    HW179228   2.294   9.363   1.541  0.2853 -0.0731  0.0532
24924SOL    HW279229   2.229   9.399   1.672 -0.0380  1.1108 -0.4154
24925SOL     OW79230  10.735  10.521   9.930  0.0199  0.3758 -0.1189
24925SOL    HW179231  10.698  10.610   9.932  1.0275  0.7989  1.5284
24925SOL    HW279232  10.817  10.528   9.978  0.4799 -1.3218 -0.5821
24926SOL     OW79233   1.164   7.782   1.368 -0.4207  0.3750 -0.3983
24926SOL    HW179234   1.080   7.749   1.335 -1.1703  1.7819 -0.0251
24926SOL    HW279235   1.196   7.838   1.297 -0.4712  0.9037 -0.0073
24927SOL     OW79236  10.425  10.104   2.056  0.1761  0.1276 -0.2234
24927SOL    HW179237  10.517  10.085   2.040  0.3371 -1.0797  1.8545
24927SOL    HW279238  10.417  10.198   2.040  1.5578  0.1092 -1.2164
24928SOL     OW79239   8.963   6.481   2.599 -0.5761  0.0126 -0.0162
24928SOL    HW179240   9.043   6.505   2.553 -0.4438 -1.7360 -0.7650
24928SOL    HW279241   8.965   6.385   2.603 -1.5246  0.0295  1.9777
24929SOL     OW79242   9.380   5.449   0.489 -0.1007  0.0423 -0.0155
24929SOL    HW179243   9.319   5.522   0.477 -0.8614 -0.5219  0.2673
24929SOL    HW279244   9.374   5.429   0.582 -0.1704 -0.5956 -0.1531
24930SOL     OW79245   9.082   2.206   9.303 -0.6747  0.8585  0.8666
24930SOL    HW179246   9.050   2.116   9.306 -0.6545  0.6363 -2.2971
24930SOL    HW279247   9.004   2.260   9.318 -0.7695  0.3784  2.3081
24931SOL     OW79248   3.274  10.780   0.078  0.0117  0.1758 -0.6086
24931SOL    HW179249   3.207  10.716   0.103 -0.9974  1.2871 -0.3963
24931SOL    HW279250   3.254  10.801  -0.013  1.1819 -0.7967 -1.1241
24932SOL     OW79251   1.592   9.673   0.068 -0.5268  0.0831  0.2750
24932SOL    HW179252   1.576   9.638   0.156  1.5622  2.5391  1.7751
24932SOL    HW279253   1.683   9.650   0.049 -0.2815  1.4302 -0.2906
24933SOL     OW79254   9.701   9.042   3.397  0.6125 -0.3671 -0.2340
24933SOL    HW179255   9.791   9.019   3.372  1.2868  2.3640 -0.6675
24933SOL    HW279256   9.711   9.095   3.476 -0.5790  0.1876 -0.4306
24934SOL     OW79257   3.776   2.298   6.126 -0.2337 -0.0077  0.4883
24934SOL    HW179258   3.697   2.264   6.168 -0.3194  1.0008  1.1896
24934SOL    HW279259   3.757   2.295   6.032 -1.3591  0.8075  0.6698
24935SOL     OW79260   0.643  10.264  10.340  0.3580  0.3133 -0.3123
24935SOL    HW179261   0.640  10.171  10.320 -1.0392  0.1451  0.5174
24935SOL    HW279262   0.602  10.306  10.264  0.1752  0.1566 -0.3025
24936SOL     OW79263   9.928   2.050   0.165  0.3492  0.3068 -0.1667
24936SOL    HW179264   9.867   2.084   0.231  1.7174  0.9563  0.8351
24936SOL    HW279265   9.977   1.981   0.211 -1.1490 -1.8450 -1.6469
24937SOL     OW79266   4.104   3.031   5.491 -0.0876  0.7795 -0.6479
24937SOL    HW179267   4.054   2.988   5.561  0.3137  0.7596 -0.3732
24937SOL    HW279268   4.046   3.101   5.460 -0.3828  0.6059 -0.4910
24938SOL     OW79269   8.398   6.652   7.541  0.5107  0.1094 -0.5444
24938SOL    HW179270   8.475   6.618   7.586 -0.0390 -0.4415  0.0064
24938SOL    HW279271   8.346   6.693   7.610 -0.0229 -0.1452 -0.7841
24939SOL     OW79272  10.080   6.430   8.935 -0.0218 -0.1536 -0.2746
24939SOL    HW179273  10.061   6.521   8.912  0.5528  0.5185  1.7114
24939SOL    HW279274  10.053   6.422   9.027  2.1080 -1.3017  0.3293
24940SOL     OW79275   4.998   2.517   5.522  0.0383  0.5766 -0.1000
24940SOL    HW179276   5.033   2.485   5.439 -0.8467  0.6817 -0.5229
24940SOL    HW279277   4.914   2.556   5.499  0.0805  1.1833  0.7554
24941SOL     OW79278   0.734   3.419   9.985 -0.3807 -0.5859  0.2140
24941SOL    HW179279   0.816   3.420   9.936 -0.0973  0.2606  0.6838
24941SOL    HW279280   0.697   3.333   9.968 -0.5029 -0.2011 -1.8416
24942SOL     OW79281   2.688  10.548   2.493 -0.3768  0.3831 -0.1386
24942SOL    HW179282   2.605  10.585   2.466 -0.7439  1.3408  2.0529
24942SOL    HW279283   2.750  10.620   2.487  0.4754 -0.4530 -2.2489
24943SOL     OW79284   4.644   7.426   4.831  0.0728 -0.3634  0.6172
24943SOL    HW179285   4.652   7.351   4.889 -0.2068 -0.4205  0.5810
24943SOL    HW279286   4.734   7.455   4.818  0.2589 -1.1854 -0.0078
24944SOL     OW79287   9.596   5.380   7.218 -0.3613  0.5595  0.3074
24944SOL    HW179288   9.652   5.303   7.224 -1.5695 -0.4067 -0.4329
24944SOL    HW279289   9.647   5.450   7.260  1.3184 -0.3077 -0.1934
24945SOL     OW79290   3.980   0.783   9.886 -0.1084 -0.3900  0.7066
24945SOL    HW179291   4.066   0.741   9.897 -0.1906 -1.0523 -0.9080
24945SOL    HW279292   3.956   0.812   9.974  3.2850  2.8511  0.7936
24946SOL     OW79293   9.846   5.166   6.696  0.3076 -0.0149  0.3417
24946SOL    HW179294   9.755   5.142   6.681  0.1495 -0.4099  1.7951
24946SOL    HW279295   9.894   5.124   6.625 -0.4064 -1.5025  0.6943
24947SOL     OW79296   0.199   4.726   3.771 -0.1843 -0.0355  0.2917
24947SOL    HW179297   0.221   4.720   3.678 -0.6704  1.2580  0.0681
24947SOL    HW279298   0.202   4.636   3.802 -0.9198 -0.6105 -1.1910
24948SOL     OW79299   9.947  10.304  10.246 -0.3901 -0.3546 -0.5132
24948SOL    HW179300  10.022  10.355  10.217 -0.4215 -0.1498 -0.2406
24948SOL    HW279301   9.871  10.347  10.207 -0.2087 -2.0737 -2.9666
24949SOL     OW79302   7.424   3.975   4.646 -0.4060 -0.5792  0.1579
24949SOL    HW179303   7.401   3.889   4.610 -0.2269 -0.9045  0.8018
24949SOL    HW279304   7.518   3.984   4.629 -0.5940 -0.1087 -0.7107
24950SOL     OW79305   7.794   6.387   2.118 -0.0634  0.0421  0.0857
24950SOL    HW179306   7.889   6.394   2.127 -0.2960  1.0834  2.3113
24950SOL    HW279307   7.765   6.346   2.199 -1.5060 -0.6526 -0.7431
24951SOL     OW79308   6.512   8.860   3.647 -0.1044  0.4483  0.1280
24951SOL    HW179309   6.464   8.899   3.719  0.8678 -0.1206  1.1205
24951SOL    HW279310   6.592   8.826   3.687  0.2115 -0.3631 -1.1238
24952SOL     OW79311   7.578   6.858   8.929 -0.4536 -0.6273 -0.4420
24952SOL    HW179312   7.554   6.766   8.941  1.1672 -1.2238 -1.3430
24952SOL    HW279313   7.495   6.904   8.921 -1.3427 -1.7937  1.3758
24953SOL     OW79314   0.671   3.879  11.032  0.3567  0.0536 -0.0220
24953SOL    HW179315   0.584   3.907  11.061  0.2071  2.1111 -2.1244
24953SOL    HW279316   0.671   3.784  11.046 -2.5672 -0.1657 -0.7155
24954SOL     OW79317   0.235   4.470  10.334  0.2261 -0.0387 -0.5398
24954SOL    HW179318   0.320   4.492  10.297 -0.2875 -0.3527 -1.9530
24954SOL    HW279319   0.249   4.471  10.429  1.7910 -0.0826 -0.7507
24955SOL     OW79320   4.675   1.642   7.396  0.0316  0.0741 -0.4775
24955SOL    HW179321   4.744   1.575   7.398  2.0935  2.0797 -0.3748
24955SOL    HW279322   4.679   1.677   7.307  0.2517  1.2546 -0.0240
24956SOL     OW79323   8.397   9.807   8.128  0.7067 -0.2293 -0.1746
24956SOL    HW179324   8.415   9.892   8.087 -0.4149  0.0451 -0.1552
24956SOL    HW279325   8.463   9.748   8.092  2.2037  0.8764  0.6454
24957SOL     OW79326   3.252   9.069   5.088  0.1636 -0.5593  0.1095
24957SOL    HW179327   3.207   9.026   5.015  0.1658  0.9069 -0.7994
24957SOL    HW279328   3.229   9.017   5.165 -2.6469 -0.2093 -0.3933
24958SOL     OW79329   6.305   5.464   1.819 -0.4121  0.3052  0.1385
24958SOL    HW179330   6.276   5.521   1.748 -0.8797  0.9400  0.8215
24958SOL    HW279331   6.330   5.524   1.889  0.2472 -0.3067  0.4359
24959SOL     OW79332   7.446   4.475   8.270 -0.0252  0.0504  0.2311
24959SOL    HW179333   7.386   4.408   8.236 -0.5674 -0.3550  1.9028
24959SOL    HW279334   7.391   4.533   8.322  0.8732  0.2482  0.9901
24960SOL     OW79335   9.569   7.851   1.356  0.3382 -0.4264 -0.1296
24960SOL    HW179336   9.654   7.816   1.383  1.3927  3.1535  1.9312
24960SOL    HW279337   9.505   7.797   1.402  1.5090 -2.2728 -0.5457
24961SOL     OW79338   0.267  10.098   9.599 -0.1954  0.3412 -0.2907
24961SOL    HW179339   0.248  10.018   9.551 -0.3960  1.0714 -1.4750
24961SOL    HW279340   0.181  10.138   9.614 -0.1566  0.0357  0.8722
24962SOL     OW79341   3.193   2.289   3.683 -0.4071  0.7020  0.2450
24962SOL    HW179342   3.156   2.289   3.771 -1.0975  0.9149 -0.0405
24962SOL    HW279343   3.124   2.254   3.627 -0.5059  1.9067 -0.4202
24963SOL     OW79344   8.510   4.602   5.540  0.1191  1.4588 -0.6273
24963SOL    HW179345   8.487   4.611   5.448 -1.0444  2.0624 -0.2904
24963SOL    HW279346   8.427   4.588   5.585  0.8839 -1.9708  0.0146
24964SOL     OW79347   5.135  10.659   5.458  0.1521 -0.5749 -0.0822
24964SOL    HW179348   5.167  10.608   5.383  0.5119 -0.3767 -0.0676
24964SOL    HW279349   5.040  10.650   5.454  0.1403 -0.1828 -0.8369
24965SOL     OW79350   5.639   8.362  10.342 -0.0870  0.1118  0.2143
24965SOL    HW179351   5.721   8.337  10.385 -1.3475  1.0962  3.4332
24965SOL    HW279352   5.614   8.283  10.293  2.0005 -0.6997  0.3124
24966SOL     OW79353   5.830   8.505   5.766  0.5155 -0.0888 -0.0637
24966SOL    HW179354   5.830   8.440   5.836 -0.4563 -1.0672 -0.9417
24966SOL    HW279355   5.923   8.521   5.748  0.7763  0.1249  1.3811
24967SOL     OW79356   4.485   0.928   5.025  0.2887 -0.0625  0.1211
24967SOL    HW179357   4.545   0.948   4.953 -0.6593 -1.1404 -1.0115
24967SOL    HW279358   4.526   0.854   5.070  0.6535  0.3195  0.4296
24968SOL     OW79359   3.788   6.019   3.507  0.9881  0.0951 -0.1295
24968SOL    HW179360   3.794   6.049   3.597 -0.8894  1.3880 -0.3691
24968SOL    HW279361   3.837   6.084   3.456 -0.4161  1.0708 -0.3056
24969SOL     OW79362  10.413   3.446   9.706 -0.2540 -0.6155  0.4730
24969SOL    HW179363  10.475   3.518   9.690 -0.1459 -0.5114  1.3251
24969SOL    HW279364  10.328   3.484   9.687 -0.0767 -0.7325 -0.6226
24970SOL     OW79365   9.039   8.660   4.782  0.0553  0.8797 -0.9976
24970SOL    HW179366   8.971   8.642   4.717 -0.6179  0.0897 -0.0970
24970SOL    HW279367   9.096   8.584   4.778 -1.5902 -0.5842  1.3007
24971SOL     OW79368   8.795   4.888   6.340  0.0817 -0.1726 -0.0336
24971SOL    HW179369   8.870   4.939   6.309 -0.1748  1.0274  1.2188
24971SOL    HW279370   8.757   4.851   6.260  0.2899  1.5982 -1.0132
24972SOL     OW79371   2.650   5.368   8.062 -0.1661  0.3691 -0.0098
24972SOL    HW179372   2.654   5.295   8.124  0.9194  0.2151 -0.2303
24972SOL    HW279373   2.596   5.335   7.990  1.7014 -0.9182 -0.9274
24973SOL     OW79374  10.893   0.622   3.335 -0.3030  0.2892  0.0281
24973SOL    HW179375  10.903   0.718   3.340 -0.1338  0.3512 -1.2683
24973SOL    HW279376  10.825   0.609   3.269  1.2423 -0.5328 -1.4643
24974SOL     OW79377   1.470  10.657  10.488  0.0109  0.0207  0.3488
24974SOL    HW179378   1.482  10.661  10.393  1.7484  1.3433  0.5840
24974SOL    HW279379   1.377  10.636  10.499 -0.1510 -0.5100 -1.6305
24975SOL     OW79380   9.758   6.132   1.421 -0.8657 -0.2320 -0.1697
24975SOL    HW179381   9.782   6.089   1.339  0.8616 -0.1574  0.2573
24975SOL    HW279382   9.792   6.221   1.412 -1.2275 -0.0310  0.3789
24976SOL     OW79383   5.123   0.624   5.056 -0.2211 -0.4017  0.7866
24976SOL    HW179384   5.201   0.666   5.092  0.2536  0.0781 -0.7380
24976SOL    HW279385   5.135   0.531   5.076  1.5071 -0.5462 -0.7266
24977SOL     OW79386   8.360   4.586   3.907 -0.2998  0.5452 -0.4379
24977SOL    HW179387   8.365   4.569   3.813  0.0962 -1.7087 -0.0791
24977SOL    HW279388   8.268   4.606   3.923 -0.5532  0.0252 -1.1950
24978SOL     OW79389   6.482   8.696   8.605 -0.1917 -0.0340 -0.0343
24978SOL    HW179390   6.428   8.774   8.617  0.2664  0.3081 -0.1357
24978SOL    HW279391   6.429   8.637   8.552 -0.0607  0.7392 -1.0817
24979SOL     OW79392   4.739   4.380   1.480 -0.1094 -0.0437  0.1717
24979SOL    HW179393   4.766   4.471   1.496  1.3393 -0.4210 -0.0144
24979SOL    HW279394   4.646   4.387   1.458 -0.4204  1.2349  1.6324
24980SOL     OW79395   9.798   2.406   7.950 -0.1678 -0.7198  0.0668
24980SOL    HW179396   9.860   2.418   8.022 -0.2926 -0.2540  0.1024
24980SOL    HW279397   9.737   2.340   7.982 -0.4327 -0.2553  0.5367
24981SOL     OW79398   4.605   2.580   7.663  0.3925 -0.2125  0.2085
24981SOL    HW179399   4.527   2.525   7.660 -0.2623  0.7245 -0.8997
24981SOL    HW279400   4.666   2.540   7.601 -0.0247  0.1978 -0.4814
24982SOL     OW79401   1.083   5.398  10.403  0.1117 -0.0105  0.1632
24982SOL    HW179402   1.003   5.347  10.407  0.3070 -0.3356  0.0339
24982SOL    HW279403   1.123   5.372  10.319  0.6958 -0.3843  0.5466
24983SOL     OW79404   2.219   3.055   5.499 -0.0070 -0.2163 -0.3304
24983SOL    HW179405   2.161   3.046   5.574 -0.0439  1.3093 -0.1604
24983SOL    HW279406   2.244   2.965   5.478  0.6877 -0.6488  2.0239
24984SOL     OW79407   1.842   0.790   6.504  0.3275 -0.1521  0.7338
24984SOL    HW179408   1.886   0.865   6.545 -0.3029 -0.1228  1.3658
24984SOL    HW279409   1.851   0.719   6.567 -0.6822 -0.0959  0.9649
24985SOL     OW79410   7.291   5.655   1.465  0.0621 -0.3004  0.7356
24985SOL    HW179411   7.375   5.629   1.503  0.4867 -1.7005 -1.0426
24985SOL    HW279412   7.308   5.658   1.371 -1.4768  1.0361  0.4648
24986SOL     OW79413   0.946   0.541   0.673 -0.0687 -0.0353 -0.2272
24986SOL    HW179414   0.925   0.508   0.585  1.2025 -1.3153 -0.0900
24986SOL    HW279415   0.861   0.557   0.713 -0.6933  1.4166 -1.9657
24987SOL     OW79416   9.891   0.345   4.522  0.0728 -0.1470  0.3205
24987SOL    HW179417   9.871   0.272   4.463 -0.2358 -1.2578  1.7358
24987SOL    HW279418   9.938   0.408   4.467 -2.7602  0.2689 -1.8966
24988SOL     OW79419   0.773   8.853   8.982 -0.1541  0.4590 -0.3523
24988SOL    HW179420   0.782   8.902   9.064  1.1198 -1.2387  0.5992
24988SOL    HW279421   0.705   8.788   9.001 -0.7216  0.8310 -1.0732
24989SOL     OW79422   1.419   2.556   5.199  0.0708  0.0365  0.0200
24989SOL    HW179423   1.470   2.476   5.188  3.0188  2.0569 -3.8873
24989SOL    HW279424   1.339   2.541   5.148  2.1870  0.4689 -3.8334
24990SOL     OW79425   1.173   2.101   7.356 -0.8748  0.2348 -0.1329
24990SOL    HW179426   1.175   2.009   7.382  1.1398  0.5855  1.1662
24990SOL    HW279427   1.160   2.099   7.261  2.8938 -1.6138 -0.8070
24991SOL     OW79428   2.790   4.506   4.316 -0.1943  0.1773  0.0054
24991SOL    HW179429   2.722   4.463   4.369  0.3900  0.7147  1.2431
24991SOL    HW279430   2.742   4.555   4.250 -0.9327 -0.9774 -0.3271
24992SOL     OW79431   7.159   9.635   4.853 -0.1849  0.4892 -0.0470
24992SOL    HW179432   7.185   9.553   4.809  0.6417  0.1221  1.0780
24992SOL    HW279433   7.107   9.681   4.788  0.3255 -0.4024 -1.1288
24993SOL     OW79434   8.415  10.156   1.824 -0.5205 -0.3258  0.2747
24993SOL    HW179435   8.458  10.078   1.860  0.5277  0.1399  0.0746
24993SOL    HW279436   8.342  10.121   1.772  0.6415 -1.2664 -0.7939
24994SOL     OW79437   0.283  10.670   5.800  0.0052 -0.2550 -0.0501
24994SOL    HW179438   0.292  10.618   5.720 -1.3198  0.7522 -0.9059
24994SOL    HW279439   0.347  10.741   5.789  0.4515 -0.6122  0.2125
24995SOL     OW79440   2.244   0.230   8.223 -0.3810 -0.1947 -0.1676
24995SOL    HW179441   2.153   0.214   8.199 -0.8445  0.7080  0.9308
24995SOL    HW279442   2.258   0.323   8.207 -0.2678  0.1169  1.5349
24996SOL     OW79443   5.777   5.863   3.047  0.0845 -0.1769 -0.1054
24996SOL    HW179444   5.743   5.776   3.023  2.2098 -1.0260 -0.2461
24996SOL    HW279445   5.778   5.912   2.965  2.0817 -1.2162 -0.7710
24997SOL     OW79446   8.963   3.852   8.556  0.3124  0.4792  0.0831
24997SOL    HW179447   9.024   3.813   8.619  0.9714 -0.3270 -1.0152
24997SOL    HW279448   8.918   3.777   8.518  0.2148  0.9273 -0.6917
24998SOL     OW79449   4.617   0.613   4.176  0.4872  0.0414 -0.2917
24998SOL    HW179450   4.656   0.677   4.235 -0.5968  0.1152  0.3762
24998SOL    HW279451   4.652   0.635   4.090 -0.1854  1.8115 -0.1539
24999SOL     OW79452   1.005   3.119   0.808 -0.2021 -0.0144 -0.1875
24999SOL    HW179453   1.063   3.178   0.761 -1.1072 -0.1826 -1.5723
24999SOL    HW279454   1.032   3.127   0.900  0.4535  1.6454 -0.4900
25000SOL     OW79455   6.290   4.854   9.500  0.5504 -0.3747  0.3619
25000SOL    HW179456   6.368   4.801   9.480 -0.3861 -1.6923  0.0410
25000SOL    HW279457   6.230   4.792   9.542 -1.4316 -0.1572 -1.9732
25001SOL     OW79458   0.185  10.188   5.324 -0.1530 -0.7807 -0.2635
25001SOL    HW179459   0.134  10.258   5.283  0.2815 -1.5065 -2.1338
25001SOL    HW279460   0.124  10.116   5.334  0.4610 -1.7151 -2.6740
25002SOL     OW79461   6.557   0.062   9.025 -0.2942 -0.2314 -0.2674
25002SOL    HW179462   6.513   0.124   8.965  1.5095 -0.7226 -2.2398
25002SOL    HW279463   6.651   0.076   9.008  0.2522 -1.1682  1.7356
25003SOL     OW79464   0.287   2.230   3.123 -0.0590  0.1464 -0.1175
25003SOL    HW179465   0.308   2.176   3.199 -1.3315 -1.7637 -1.0532
25003SOL    HW279466   0.345   2.198   3.054  0.8189  1.6098 -0.1211
25004SOL     OW79467   9.934   8.527   7.752  0.0843  0.6664  0.1470
25004SOL    HW179468  10.029   8.529   7.763  0.0934  1.5821 -0.0371
25004SOL    HW279469   9.912   8.612   7.714 -0.8888  0.7761  0.8959
25005SOL     OW79470   4.995   4.875   8.073  0.2458  0.4177  0.1934
25005SOL    HW179471   4.917   4.867   8.128 -0.7555 -0.0702 -1.2663
25005SOL    HW279472   5.049   4.801   8.098 -0.1120  0.3030  0.6407
25006SOL     OW79473   4.171   3.037   2.211 -0.5831  0.0458  0.0276
25006SOL    HW179474   4.154   3.117   2.261  0.2159 -0.2934  0.8669
25006SOL    HW279475   4.258   3.009   2.239 -0.8577 -1.1397 -0.2216
25007SOL     OW79476   1.548   5.752   8.154 -0.2452  0.3124 -0.1623
25007SOL    HW179477   1.622   5.710   8.198 -1.1282 -0.7117  0.3866
25007SOL    HW279478   1.492   5.781   8.226 -1.8247 -1.5903 -0.5484
25008SOL     OW79479   6.616   3.809   0.278  0.0308  0.1009 -0.6737
25008SOL    HW179480   6.701   3.853   0.275  0.4030 -0.5513 -0.0412
25008SOL    HW279481   6.553   3.878   0.298  0.0487  1.0364 -3.3998
25009SOL     OW79482   2.764   0.097   8.452 -0.2295  0.1550 -0.5774
25009SOL    HW179483   2.801   0.149   8.381  0.7321  0.3578  0.0470
25009SOL    HW279484   2.802   0.135   8.532  1.3316 -2.1122 -0.1429
25010SOL     OW79485   9.717   9.602   4.090 -0.3437 -0.2302  0.7111
25010SOL    HW179486   9.677   9.689   4.100 -1.5574 -0.5624 -0.7748
25010SOL    HW279487   9.643   9.544   4.074  0.6270 -1.0830 -0.9797
25011SOL     OW79488   7.760   7.300   7.844 -0.1682  0.1897  0.2658
25011SOL    HW179489   7.752   7.220   7.792 -1.1881  1.0176 -0.9157
25011SOL    HW279490   7.853   7.323   7.837  0.7851 -2.2353  2.8154
25012SOL     OW79491   6.439   7.610   9.906 -0.3037 -0.4019  0.4480
25012SOL    HW179492   6.482   7.525   9.900  1.1461  0.3123  0.4678
25012SOL    HW279493   6.451   7.649   9.819  0.6311  0.5122  0.9708
25013SOL     OW79494   7.253   3.975   9.537 -0.4887  0.0686 -0.3561
25013SOL    HW179495   7.326   4.027   9.571 -0.7787 -0.3742  1.0466
25013SOL    HW279496   7.291   3.922   9.467  0.0425  1.3781 -1.0953
25014SOL     OW79497   4.448   3.690   1.312  0.0689  0.9640  0.3887
25014SOL    HW179498   4.354   3.702   1.322  0.1228  0.3590  1.7644
25014SOL    HW279499   4.481   3.682   1.401  1.1319 -1.0687 -0.1229
25015SOL     OW79500   8.547   7.787   7.781  0.0922  0.1758 -0.3686
25015SOL    HW179501   8.633   7.783   7.821  0.2346 -0.5266 -0.7369
25015SOL    HW279502   8.556   7.741   7.698 -0.5784  0.2934 -0.5176
25016SOL     OW79503   9.127   3.698   7.700  0.2340  0.1643 -0.2005
25016SOL    HW179504   9.219   3.682   7.679  0.1313  0.4620 -0.9302
25016SOL    HW279505   9.080   3.676   7.619 -0.5563 -1.9455  0.7581
25017SOL     OW79506   6.616   3.227  10.508  0.2208 -0.2897 -0.0247
25017SOL    HW179507   6.628   3.154  10.569  0.7799  0.5914  0.9533
25017SOL    HW279508   6.652   3.303  10.554  0.5853  0.4249 -1.4237
25018SOL     OW79509   3.489   6.961   0.376 -0.1787 -0.1437 -0.0923
25018SOL    HW179510   3.412   6.995   0.422 -0.1527 -1.2050  0.7830
25018SOL    HW279511   3.466   6.966   0.283 -0.7975  0.7332  0.0974
25019SOL     OW79512   7.005  10.308  10.159 -0.0359  0.0912 -0.7303
25019SOL    HW179513   7.067  10.244  10.124  0.5494  0.6899 -0.8035
25019SOL    HW279514   7.041  10.393  10.133  0.8870  0.6275  2.0006
25020SOL     OW79515  11.011  10.781   4.862 -0.7861  0.0540  0.0783
25020SOL    HW179516  11.030  10.688   4.869  0.2382  0.2114 -0.4530
25020SOL    HW279517  10.923  10.791   4.900 -1.2549 -1.2378 -0.6383
25021SOL     OW79518   0.643   6.636   0.349  0.4920 -0.0470  0.6687
25021SOL    HW179519   0.558   6.649   0.308  0.6127 -1.4136 -0.0541
25021SOL    HW279520   0.625   6.639   0.443  0.0833  2.2694  0.5761
25022SOL     OW79521  10.171   3.157   7.042  0.6292 -0.6577 -0.1380
25022SOL    HW179522  10.115   3.214   6.990 -0.7597 -0.8212  1.1251
25022SOL    HW279523  10.158   3.070   7.004 -0.0301 -0.7017  0.1723
25023SOL     OW79524   6.540   7.344   9.871 -0.1744 -0.1454  0.4095
25023SOL    HW179525   6.469   7.318   9.813  0.1188  0.9363 -0.4494
25023SOL    HW279526   6.614   7.288   9.846 -0.4096 -0.5586  0.6182
25024SOL     OW79527   4.771   7.763   3.758  0.1777  0.5178  0.1411
25024SOL    HW179528   4.763   7.670   3.735  1.5925 -0.1430  1.9966
25024SOL    HW279529   4.823   7.762   3.839  0.5971  2.9639 -0.0407
25025SOL     OW79530   5.733   3.383   8.899 -0.0944 -0.5902 -0.3175
25025SOL    HW179531   5.678   3.449   8.941 -0.3229 -0.6154 -0.5734
25025SOL    HW279532   5.721   3.305   8.952 -0.4648 -0.6508 -0.4862
25026SOL     OW79533   4.939  10.695   5.942  0.3307 -0.1449  0.0595
25026SOL    HW179534   4.940  10.599   5.942  1.2804 -0.1522  0.5507
25026SOL    HW279535   4.847  10.718   5.951  0.2568 -1.0446  2.1703
25027SOL     OW79536   5.276   0.426   1.359 -0.1983 -0.1408  0.1451
25027SOL    HW179537   5.322   0.345   1.337 -1.1583 -0.2444 -1.6905
25027SOL    HW279538   5.207   0.399   1.420 -0.8181 -0.8097 -0.8335
25028SOL     OW79539   9.326   4.215   7.245 -0.1588  0.2849  0.0932
25028SOL    HW179540   9.385   4.280   7.284  0.3519  0.5423 -1.0612
25028SOL    HW279541   9.346   4.134   7.291  0.9907  0.4073 -0.1517
25029SOL     OW79542   6.489   7.315   6.064 -0.1495  0.4876 -0.2615
25029SOL    HW179543   6.519   7.279   5.981 -1.8865 -1.4708 -0.1382
25029SOL    HW279544   6.543   7.271   6.130  1.7742  2.6267 -0.3032
25030SOL     OW79545   9.897  10.661  10.255  0.8204 -0.2020 -0.8095
25030SOL    HW179546   9.922  10.642  10.165  2.0272 -3.2246  0.0197
25030SOL    HW279547   9.972  10.635  10.307 -1.1102 -2.1287  1.2672
25031SOL     OW79548  11.034   2.524   1.383  0.9970  0.0168  0.3305
25031SOL    HW179549  11.055   2.550   1.473  2.2023 -1.0885  0.4052
25031SOL    HW279550  10.946   2.489   1.388  0.5457  1.1579  0.8154
25032SOL     OW79551   9.117  10.967   4.934  0.0469 -0.2164  0.1761
25032SOL    HW179552   9.040  11.024   4.940  0.3914  0.3177 -0.4334
25032SOL    HW279553   9.085  10.888   4.890 -0.1129  0.0847 -0.2512
25033SOL     OW79554   1.801   9.389   1.069  0.3656 -0.3170  0.4475
25033SOL    HW179555   1.810   9.441   1.149 -1.4737 -2.4426  2.1643
25033SOL    HW279556   1.846   9.307   1.088 -1.3434 -1.4324 -0.0987
25034SOL     OW79557   0.888  10.900   1.692  0.0532  0.3722 -0.0975
25034SOL    HW179558   0.856  10.894   1.782 -1.4106 -1.0339 -0.6736
25034SOL    HW279559   0.813  10.876   1.637  1.2509 -0.0652 -1.6389
25035SOL     OW79560   1.709   1.350   0.157  0.1695 -0.0678 -0.1283
25035SOL    HW179561   1.651   1.415   0.117  0.2896  0.5187  0.6371
25035SOL    HW279562   1.797   1.377   0.132  0.3098  0.7953  1.1868
25036SOL     OW79563  10.561   4.642   6.909  0.6199  0.2047 -0.6589
25036SOL    HW179564  10.539   4.666   6.818  0.4772  1.3438 -0.3394
25036SOL    HW279565  10.478   4.649   6.956  1.1422  2.1812  0.0720
25037SOL     OW79566   7.181  10.746   0.222 -0.1422 -0.3272 -0.1523
25037SOL    HW179567   7.271  10.750   0.188 -0.6001  1.3457 -1.2765
25037SOL    HW279568   7.131  10.702   0.154 -0.3249 -0.6476  0.1826
25038SOL     OW79569  10.946   9.161   5.447 -0.0221  0.0330  0.2158
25038SOL    HW179570  10.993   9.100   5.504 -1.3976 -1.0024  0.3256
25038SOL    HW279571  10.930   9.238   5.501  2.0852  0.7137 -0.0447
25039SOL     OW79572   3.899   6.046   2.493  0.1474  0.6435  0.4633
25039SOL    HW179573   3.988   6.012   2.501  0.5514  0.9393 -1.9378
25039SOL    HW279574   3.900   6.128   2.543  1.4412  0.9850 -0.0916
25040SOL     OW79575   9.680   2.005   3.710  0.1071 -0.1896  0.0435
25040SOL    HW179576   9.636   1.991   3.794  1.0331 -1.3568  0.3620
25040SOL    HW279577   9.773   2.012   3.732  0.2297  0.9691 -0.7455
25041SOL     OW79578   3.074   0.402   8.441  0.4987  0.3070  0.1286
25041SOL    HW179579   3.036   0.489   8.454  0.0298  0.1546 -0.1785
25041SOL    HW279580   3.071   0.389   8.346 -0.5982 -0.5463  0.2543
25042SOL     OW79581   4.226   8.481  10.137 -0.2080  0.8575 -0.6514
25042SOL    HW179582   4.316   8.453  10.150 -1.0249 -1.8567 -0.3450
25042SOL    HW279583   4.204   8.453  10.049 -1.8890 -2.1665  0.5939
25043SOL     OW79584   7.898   3.095   6.204  0.7796 -0.5535 -0.2752
25043SOL    HW179585   7.864   3.051   6.281  1.6628  0.1552  0.5470
25043SOL    HW279586   7.984   3.056   6.190 -0.1287 -2.0514 -2.0929
25044SOL     OW79587   8.575   3.352  10.214  0.2158  0.6857 -0.5560
25044SOL    HW179588   8.570   3.261  10.244 -0.8292  0.7705 -0.4248
25044SOL    HW279589   8.668   3.367  10.197  0.2282 -0.9217 -2.2122
25045SOL     OW79590   0.536   3.746   1.911  0.5171 -0.4645 -0.3422
25045SOL    HW179591   0.496   3.659   1.913  0.8410 -0.6162  2.0440
25045SOL    HW279592   0.616   3.736   1.962  0.6278  1.2096 -0.1512
25046SOL     OW79593   8.811   3.280   6.361 -0.1666  0.2140  0.2837
25046SOL    HW179594   8.891   3.234   6.334 -0.6633  0.2535 -1.3669
25046SOL    HW279595   8.810   3.271   6.456  1.7962  0.2101  0.3489
25047SOL     OW79596  10.232  10.740   0.251 -0.3747 -0.1834 -0.1252
25047SOL    HW179597  10.263  10.729   0.161 -0.7419  0.6745 -0.3631
25047SOL    HW279598  10.300  10.699   0.304 -0.6508 -1.6513 -0.8280
25048SOL     OW79599   1.595   4.571  10.052  0.1972 -0.4265 -0.2110
25048SOL    HW179600   1.547   4.488  10.062  0.1582 -0.2804  0.9621
25048SOL    HW279601   1.543   4.635  10.102 -0.1329  0.4719 -1.6475
25049SOL     OW79602   4.171   2.888   5.222  0.0591 -0.9838 -0.3725
25049SOL    HW179603   4.217   2.951   5.165  0.0435 -2.3821 -1.9875
25049SOL    HW279604   4.152   2.938   5.301 -0.7323  1.3466 -1.9114
25050SOL     OW79605   2.546   1.776   1.258  0.2007  0.1551  0.3928
25050SOL    HW179606   2.591   1.811   1.335 -1.2750  1.0979  0.8814
25050SOL    HW279607   2.616   1.745   1.201  1.4622  1.5950  1.0776
25051SOL     OW79608   7.758   0.413   2.468  0.2015 -0.0809 -0.0894
25051SOL    HW179609   7.709   0.438   2.546  2.2278  0.1683  1.1451
25051SOL    HW279610   7.763   0.317   2.472  0.1469 -0.0813 -0.0330
25052SOL     OW79611   5.236  10.015   4.146 -0.1247 -0.1749 -0.3384
25052SOL    HW179612   5.224   9.927   4.181  2.6254 -0.5380 -0.1104
25052SOL    HW279613   5.313  10.009   4.090  0.5342  2.2123  0.1802
25053SOL     OW79614  10.977   0.221   8.283 -0.2807  0.3207  0.5239
25053SOL    HW179615  10.930   0.287   8.232 -2.9031 -0.6237  1.5207
25053SOL    HW279616  10.934   0.221   8.368 -0.4486 -2.6625  0.5712
25054SOL     OW79617   2.020   6.275   3.770  0.1319  0.3555  0.0777
25054SOL    HW179618   1.966   6.312   3.839 -0.5081  1.1589 -0.8377
25054SOL    HW279619   2.097   6.332   3.766  1.1741 -0.8763  1.4849
25055SOL     OW79620   3.977   8.297  10.423  0.0543  0.2267  0.0466
25055SOL    HW179621   4.043   8.285  10.356 -0.2507  0.9510 -0.3874
25055SOL    HW279622   4.026   8.309  10.504  0.4428  0.5139 -0.2344
25056SOL     OW79623   9.884   7.284   4.892 -0.0842  0.2811  0.3095
25056SOL    HW179624   9.886   7.222   4.964 -1.6189  1.6252  1.5919
25056SOL    HW279625   9.826   7.354   4.922  0.6776  1.7901 -1.5101
25057SOL     OW79626   5.508   4.366   6.998  0.0148  0.0048  0.7937
25057SOL    HW179627   5.528   4.458   6.979  4.4051 -0.4406  2.1634
25057SOL    HW279628   5.481   4.365   7.090 -2.0822  0.0757  0.2138
25058SOL     OW79629  10.401   5.472   4.079 -0.1412 -0.2080 -0.0711
25058SOL    HW179630  10.314   5.449   4.112 -0.4266  0.2933 -0.4692
25058SOL    HW279631  10.408   5.566   4.095 -0.7128  0.2849 -2.3777
25059SOL     OW79632   8.567   7.502   5.128 -0.8864 -0.0813 -0.3177
25059SOL    HW179633   8.554   7.415   5.166 -0.4946 -0.9177 -2.0029
25059SOL    HW279634   8.571   7.487   5.034  1.8598  1.3925 -0.5643
25060SOL     OW79635   3.942   1.294   5.819  0.1868 -0.1599 -0.0364
25060SOL    HW179636   3.914   1.354   5.889  0.4967 -1.6303  1.3951
25060SOL    HW279637   3.861   1.257   5.785  0.1216 -1.0356  1.0287
25061SOL     OW79638   2.744   8.379   8.416 -0.3052  0.4959  0.1555
25061SOL    HW179639   2.789   8.454   8.377  0.4405 -1.0848 -2.2766
25061SOL    HW279640   2.812   8.334   8.467  0.1314 -0.2049 -0.9972
25062SOL     OW79641   8.039   6.298   4.730 -0.3266  0.0304 -0.5416
25062SOL    HW179642   8.067   6.378   4.687 -2.2802  0.1404 -1.6915
25062SOL    HW279643   7.946   6.310   4.747 -0.5923 -1.8639 -0.4238
25063SOL     OW79644   0.397   8.376   8.833  0.0620  0.2465 -0.1451
25063SOL    HW179645   0.443   8.295   8.811 -0.3080 -0.6087  2.0177
25063SOL    HW279646   0.439   8.443   8.779  0.9139 -1.2235 -1.3824
25064SOL     OW79647   7.171   8.130   4.149 -0.0869  0.0882 -0.1293
25064SOL    HW179648   7.111   8.055   4.154  0.8381 -0.7868 -1.4613
25064SOL    HW279649   7.113   8.206   4.149 -1.0231 -0.5626  1.8523
25065SOL     OW79650   4.607   9.153   6.705 -0.2660  0.1527 -0.4527
25065SOL    HW179651   4.626   9.228   6.649 -0.8846  0.6310 -0.0509
25065SOL    HW279652   4.530   9.112   6.666 -2.2405  1.9157  1.2975
25066SOL     OW79653   8.914   8.702   8.680 -0.1491  0.6896 -0.3047
25066SOL    HW179654   8.963   8.688   8.599  1.1648  1.5150  0.3065
25066SOL    HW279655   8.833   8.746   8.652 -1.3285 -2.0473 -1.4915
25067SOL     OW79656   2.199   3.392   9.477 -0.2772 -0.1903  0.0210
25067SOL    HW179657   2.127   3.453   9.465 -1.3848 -1.2744  0.8600
25067SOL    HW279658   2.192   3.331   9.404 -0.8943 -0.9311  0.6839
25068SOL     OW79659   6.123   3.964   2.431  0.2372 -0.0304  0.2097
25068SOL    HW179660   6.047   3.906   2.422  0.0505 -0.0606  1.6683
25068SOL    HW279661   6.095   4.029   2.496  1.3860  0.0596  0.6332
25069SOL     OW79662   3.421   6.851   8.601  0.7368 -0.0246  0.4005
25069SOL    HW179663   3.494   6.913   8.594  1.9138 -1.3064  0.7726
25069SOL    HW279664   3.356   6.896   8.655  1.2463  1.1569  0.0527
25070SOL     OW79665   8.754   1.209   6.349 -0.0862  0.2851 -0.1084
25070SOL    HW179666   8.723   1.135   6.298  0.5890  0.6664 -1.1020
25070SOL    HW279667   8.800   1.169   6.424 -0.1630 -0.2876 -0.3618
25071SOL     OW79668   6.923   6.933   5.008  0.3377  0.5805 -0.6075
25071SOL    HW179669   6.827   6.937   5.017  0.1834 -1.9859 -0.5590
25071SOL    HW279670   6.938   6.892   4.923  1.3844  0.0309 -0.1736
25072SOL     OW79671   3.044  10.007   7.915  0.4217 -0.0448 -0.2751
25072SOL    HW179672   2.990  10.028   7.839  0.2758  1.3844  0.1813
25072SOL    HW279673   3.088  10.089   7.936  2.2861 -1.0052 -0.2298
25073SOL     OW79674   4.701   8.921   6.103  0.3168  0.1981 -0.0648
25073SOL    HW179675   4.777   8.965   6.065  0.1343  0.1623 -0.4729
25073SOL    HW279676   4.669   8.982   6.169  2.2634 -0.8652  2.0172
25074SOL     OW79677   1.417   8.445  10.538 -0.8132  0.2641  0.6197
25074SOL    HW179678   1.437   8.428  10.629 -2.2999 -0.1236  0.9015
25074SOL    HW279679   1.357   8.520  10.540 -0.0135  0.9493 -0.1179
25075SOL     OW79680   4.372   2.143   4.222  0.6118 -0.5127 -0.6296
25075SOL    HW179681   4.336   2.118   4.307  0.9704  0.0639 -0.3106
25075SOL    HW279682   4.298   2.184   4.176  0.2988 -1.2100 -0.7721
25076SOL     OW79683   8.158  10.093   2.932 -0.1269  0.2171  0.5150
25076SOL    HW179684   8.195  10.181   2.933  0.7938 -0.1671  1.2139
25076SOL    HW279685   8.064  10.107   2.921  0.3136  1.1433 -3.4410
25077SOL     OW79686   3.615   7.760   5.485  0.2388 -0.0093 -0.0854
25077SOL    HW179687   3.519   7.763   5.487  0.1703 -1.5045 -0.1213
25077SOL    HW279688   3.638   7.700   5.556  1.0504 -0.9081 -1.0780
25078SOL     OW79689   6.689   0.545   3.612  0.1619 -0.2067  0.1755
25078SOL    HW179690   6.682   0.561   3.706  1.4411  2.4639 -0.1099
25078SOL    HW279691   6.782   0.530   3.597  0.3326  1.7045 -0.9320
25079SOL     OW79692   0.864  10.973   8.740  0.1503 -0.2334 -0.3151
25079SOL    HW179693   0.820  11.027   8.806  0.5358  1.7591 -1.6026
25079SOL    HW279694   0.793  10.933   8.691 -0.1452 -2.1573  1.5629
25080SOL     OW79695   5.353   5.671   4.951  0.0954  0.4020 -0.0476
25080SOL    HW179696   5.322   5.760   4.931  0.5489  0.4017 -0.7861
25080SOL    HW279697   5.442   5.669   4.917 -0.0250 -0.4409 -0.3167
25081SOL     OW79698   0.094   3.023   4.524  0.2203 -0.4147  0.4848
25081SOL    HW179699   0.018   3.057   4.571 -1.2727 -2.5870 -0.1931
25081SOL    HW279700   0.161   3.012   4.591 -1.2026 -1.6047  1.7729
25082SOL     OW79701   9.136   1.319  10.064  0.7887 -0.1582  0.3332
25082SOL    HW179702   9.045   1.347  10.052  0.7446 -1.0686 -2.0765
25082SOL    HW279703   9.137   1.228  10.034  2.5924  0.0144 -0.2550
25083SOL     OW79704   0.770   5.053   1.518 -0.2729 -0.0278  0.0238
25083SOL    HW179705   0.739   4.974   1.474  0.0726 -0.7915  1.1104
25083SOL    HW279706   0.703   5.072   1.584  1.0524 -1.1996  1.8145
25084SOL     OW79707   1.711   7.635   8.641  0.4292 -0.2720  0.5444
25084SOL    HW179708   1.645   7.680   8.588 -0.4132 -1.3812  0.6085
25084SOL    HW279709   1.794   7.673   8.613 -0.1110  0.1301 -0.5954
25085SOL     OW79710  10.669   1.114   6.368 -0.4436 -0.0176  0.1188
25085SOL    HW179711  10.714   1.066   6.299  0.2318  0.2059  0.3870
25085SOL    HW279712  10.739   1.164   6.411 -0.7076 -0.7780  1.4862
25086SOL     OW79713   4.694   0.913   9.719  0.0399 -0.2074  0.3684
25086SOL    HW179714   4.774   0.963   9.700  1.0480 -1.5452  0.9337
25086SOL    HW279715   4.713   0.825   9.686 -0.7262 -0.8559  1.6049
25087SOL     OW79716   3.682   4.013   8.152  0.5228  0.2859  0.1861
25087SOL    HW179717   3.718   4.036   8.066 -1.7599 -0.2512 -1.0222
25087SOL    HW279718   3.610   4.075   8.164 -0.5129 -0.9702  0.6922
25088SOL     OW79719   7.451   9.574   2.629  0.6512  0.4301  0.6070
25088SOL    HW179720   7.400   9.496   2.650  0.8951  0.4585  1.3073
25088SOL    HW279721   7.533   9.540   2.594  0.1569  0.3825 -0.5643
25089SOL     OW79722   9.708   7.353   0.274 -0.1442  0.3839  0.1981
25089SOL    HW179723   9.649   7.391   0.338 -0.8893  2.1411 -1.4590
25089SOL    HW279724   9.701   7.409   0.197  2.0392 -0.6228 -0.8384
25090SOL     OW79725   6.080   1.412   0.295  0.0139 -0.3098  0.2542
25090SOL    HW179726   6.102   1.322   0.272  2.0545  0.2184 -0.0283
25090SOL    HW279727   6.152   1.441   0.351  0.2973  1.6830 -1.0308
25091SOL     OW79728   5.205   1.844   9.093  0.8629 -0.2662  0.2034
25091SOL    HW179729   5.191   1.755   9.125 -0.2891  0.5250  2.0743
25091SOL    HW279730   5.231   1.893   9.171 -1.4319  1.6287 -0.1322
25092SOL     OW79731   7.621   2.787   4.438 -1.0111 -0.2409 -0.2075
25092SOL    HW179732   7.713   2.811   4.455 -0.3209 -2.3359 -0.6512
25092SOL    HW279733   7.616   2.780   4.343 -1.7496  0.2041 -0.2051
25093SOL     OW79734  10.954   7.047  10.771  0.0710  0.4433  0.1969
25093SOL    HW179735  11.013   7.103  10.720 -0.8068  0.9005 -0.3513
25093SOL    HW279736  10.920   6.985  10.707 -0.4679  0.5433  0.3847
25094SOL     OW79737   8.503   9.509   0.348  0.0532  0.0539  0.2182
25094SOL    HW179738   8.515   9.566   0.273  0.9683  0.9083  0.9735
25094SOL    HW279739   8.438   9.444   0.320  0.6597  0.1119 -1.4206
25095SOL     OW79740   5.529   2.117   9.546  0.0423 -0.1464 -0.0570
25095SOL    HW179741   5.478   2.058   9.601 -0.6289  0.1433 -0.3500
25095SOL    HW279742   5.614   2.075   9.537 -0.2041 -0.7270  0.3037
25096SOL     OW79743   7.214   4.397   8.503 -0.8007 -0.0459 -0.2533
25096SOL    HW179744   7.287   4.428   8.556 -1.2414 -0.5413  0.6655
25096SOL    HW279745   7.240   4.415   8.413  1.8716 -2.9619 -0.2525
25097SOL     OW79746   2.018   6.317   6.595  0.1317 -0.6087  0.4419
25097SOL    HW179747   1.971   6.324   6.677 -0.4392  0.0885  0.0628
25097SOL    HW279748   2.108   6.298   6.621  0.5344  2.1668  1.3596
25098SOL     OW79749   0.333   0.527   9.729  0.0839 -0.4028 -0.1046
25098SOL    HW179750   0.239   0.546   9.736 -0.3243 -2.4620  0.7013
25098SOL    HW279751   0.375   0.613   9.729 -1.7155  0.5343  0.8381
25099SOL     OW79752   0.783   7.666   0.794  0.3160 -0.1795 -0.4727
25099SOL    HW179753   0.772   7.644   0.887 -0.0156  0.8728 -0.2562
25099SOL    HW279754   0.814   7.584   0.754  0.5769 -0.6120  0.5783
25100SOL     OW79755   8.265   1.195   0.724 -0.2176 -0.1737  0.1904
25100SOL    HW179756   8.197   1.217   0.660  0.0025 -1.3211 -0.4595
25100SOL    HW279757   8.281   1.277   0.771 -0.2073  0.7571 -1.3793
25101SOL     OW79758   0.685   5.537  10.379 -0.1422 -0.2953  0.0861
25101SOL    HW179759   0.711   5.604  10.316 -0.7234 -1.6812 -1.7427
25101SOL    HW279760   0.710   5.454  10.337 -0.1827 -1.2687  1.8855
25102SOL     OW79761   5.850   0.759   5.364 -0.0258  0.3289 -0.0551
25102SOL    HW179762   5.878   0.671   5.389 -1.0923  0.1060  0.4390
25102SOL    HW279763   5.821   0.749   5.273 -2.5339 -0.4672  0.7493
25103SOL     OW79764   5.581   8.926   0.811  0.2213  0.0076  0.0554
25103SOL    HW179765   5.638   8.911   0.887 -0.0786  1.9314  0.7215
25103SOL    HW279766   5.630   8.890   0.737  1.2488 -0.4796  0.9484
25104SOL     OW79767   1.865  10.601   6.998  0.4323 -0.0621 -0.4624
25104SOL    HW179768   1.949  10.563   6.972  1.0231  0.3892  0.6756
25104SOL    HW279769   1.865  10.596   7.093 -0.2455  1.1417 -0.3715
25105SOL     OW79770   0.123   3.673  10.461 -0.3555 -0.4175  0.0635
25105SOL    HW179771   0.147   3.758  10.425  1.8137 -0.5276  1.0866
25105SOL    HW279772   0.037   3.687  10.499 -1.7699  0.2747 -3.0494
25106SOL     OW79773   3.071   2.390   4.654  0.1461 -0.7076 -0.0163
25106SOL    HW179774   3.140   2.438   4.699 -1.7760 -0.3059  2.7453
25106SOL    HW279775   3.049   2.445   4.578  2.5540 -0.7244 -0.8144
25107SOL     OW79776   7.794   3.996   8.336  0.7956  0.0991 -0.4118
25107SOL    HW179777   7.792   4.088   8.309 -0.8208  0.1777 -0.1177
25107SOL    HW279778   7.887   3.971   8.330  1.3785  1.9528  0.2689
25108SOL     OW79779   7.494   2.942   4.652  0.1255 -0.0556  0.3273
25108SOL    HW179780   7.519   2.890   4.729  0.2607  0.3127  0.5346
25108SOL    HW279781   7.492   2.878   4.580 -2.7202 -0.9875  1.0954
25109SOL     OW79782  10.192   6.274   8.404  0.4573 -0.2293 -0.0483
25109SOL    HW179783  10.194   6.321   8.320 -0.5184 -0.4187 -0.1868
25109SOL    HW279784  10.247   6.327   8.462 -1.0553  1.4107 -0.0496
25110SOL     OW79785  10.700   9.811   6.564  0.2157  0.1286 -0.0861
25110SOL    HW179786  10.727   9.750   6.633  1.2113  1.1606  0.4759
25110SOL    HW279787  10.613   9.839   6.590  0.0452 -0.4902  0.0363
25111SOL     OW79788   5.288   7.653  10.116 -0.3222 -0.2789 -0.7565
25111SOL    HW179789   5.197   7.623  10.126 -0.0511 -0.9268 -0.1767
25111SOL    HW279790   5.314   7.682  10.203  1.2188 -3.5917  0.0274
25112SOL     OW79791   0.795   0.768   3.079  0.1461 -0.1032 -0.0351
25112SOL    HW179792   0.729   0.820   3.033 -0.3612 -0.5097  0.2228
25112SOL    HW279793   0.771   0.777   3.172  0.5089 -0.1816  0.0668
25113SOL     OW79794   9.972   3.289  10.314  0.3713 -0.1767  0.6109
25113SOL    HW179795   9.978   3.237  10.234 -2.1465  1.8977 -1.1132
25113SOL    HW279796  10.060   3.323  10.328  0.3460  1.9785 -3.2537
25114SOL     OW79797   4.448   0.696   6.683 -0.0411  0.0765  0.8262
25114SOL    HW179798   4.353   0.709   6.684 -0.0211  0.2314  0.7742
25114SOL    HW279799   4.464   0.652   6.599 -0.1280 -0.4301  1.0747
25115SOL     OW79800   6.313   9.894   1.699  0.5101 -0.1707  0.7497
25115SOL    HW179801   6.342   9.841   1.624  0.8456  0.3877  0.4783
25115SOL    HW279802   6.266   9.832   1.755 -0.0048 -0.5450 -0.0620
25116SOL     OW79803   0.778   6.598  10.429 -0.0942 -0.1211 -0.1501
25116SOL    HW179804   0.754   6.572  10.340 -2.0590  0.4026  0.1890
25116SOL    HW279805   0.727   6.541  10.486  1.5290 -0.7897  0.6821
25117SOL     OW79806   0.569   1.096   4.933 -0.1967 -0.3044 -0.2046
25117SOL    HW179807   0.593   1.106   4.841  1.3150 -0.4145  0.1515
25117SOL    HW279808   0.652   1.100   4.980 -1.0572  1.1081  1.2936
25118SOL     OW79809   2.732   7.489   8.774  0.4069 -0.3491  0.7240
25118SOL    HW179810   2.747   7.406   8.728  2.1826  0.3885 -0.0961
25118SOL    HW279811   2.678   7.540   8.714 -0.3856 -0.7434  1.0774
25119SOL     OW79812   3.868  10.588   0.342 -1.1116  0.7651  0.0276
25119SOL    HW179813   3.777  10.619   0.342 -1.1943  0.5524 -1.0817
25119SOL    HW279814   3.920  10.667   0.327 -1.2163  0.6581 -0.9555
25120SOL     OW79815   9.323   4.890   3.385 -0.5144 -0.3931  0.5628
25120SOL    HW179816   9.391   4.826   3.366 -0.2887  0.3663 -1.3278
25120SOL    HW279817   9.247   4.837   3.410 -0.1598 -1.3686 -0.3839
25121SOL     OW79818   3.974   0.568   4.641  0.3980 -0.0950 -0.2922
25121SOL    HW179819   4.008   0.520   4.565  1.1783 -0.1326  0.0736
25121SOL    HW279820   3.954   0.655   4.606  0.7916 -0.0989 -0.5418
25122SOL     OW79821   3.026   5.351   0.182  0.2912 -0.0086  0.0493
25122SOL    HW179822   3.106   5.342   0.233  0.8494 -1.3528 -1.0000
25122SOL    HW279823   2.961   5.298   0.229 -0.0388  1.1848  0.9686
25123SOL     OW79824   4.902   5.402   7.599 -0.0551 -0.4634  0.0500
25123SOL    HW179825   4.816   5.360   7.593  0.1566 -0.9974  0.6494
25123SOL    HW279826   4.963   5.337   7.564 -0.2127  1.1886 -3.7692
25124SOL     OW79827   1.927   7.870   2.422 -0.4207 -0.4893 -0.0458
25124SOL    HW179828   1.848   7.884   2.476  0.9677  1.0943  1.7133
25124SOL    HW279829   1.997   7.911   2.472  1.0731  0.7055 -2.8951
25125SOL     OW79830   7.421   8.703   8.083 -0.4333 -0.0159  0.3042
25125SOL    HW179831   7.411   8.705   8.178 -0.6601  0.1411  0.2765
25125SOL    HW279832   7.359   8.769   8.050  1.1848  1.5431  0.1881
25126SOL     OW79833   8.837   6.456   6.331  0.0927  0.0383  0.7341
25126SOL    HW179834   8.773   6.508   6.379  0.6394  1.5654 -0.1164
25126SOL    HW279835   8.922   6.493   6.356  0.5080 -0.5491  0.2322
25127SOL     OW79836   4.959   3.022   0.693 -0.0992  0.6103 -0.6527
25127SOL    HW179837   5.050   2.993   0.692 -0.6638 -1.2899 -0.2722
25127SOL    HW279838   4.913   2.962   0.634 -0.9990  2.0440 -1.4931
25128SOL     OW79839   4.565   0.345   1.952  1.0396  0.2720 -0.2277
25128SOL    HW179840   4.502   0.412   1.977 -0.6772 -1.3446  0.0498
25128SOL    HW279841   4.598   0.372   1.867 -1.0182  0.5595 -0.9931
25129SOL     OW79842   8.729   0.909  10.144 -0.0940  0.6935 -0.7517
25129SOL    HW179843   8.779   0.838  10.103  0.1463  0.9204 -0.8561
25129SOL    HW279844   8.715   0.972  10.073 -0.6943  0.5423 -0.7703
25130SOL     OW79845   7.233   0.183   9.687  0.2120  0.7022 -0.1409
25130SOL    HW179846   7.299   0.243   9.720  0.0588  1.7018 -1.5880
25130SOL    HW279847   7.283   0.112   9.646  0.3836  0.0177  1.1823
25131SOL     OW79848   1.255   6.645   7.477  0.0737  0.0209  0.0964
25131SOL    HW179849   1.161   6.629   7.475  0.0116  0.3319  0.3727
25131SOL    HW279850   1.289   6.585   7.544  0.2947 -1.1627 -1.0409
25132SOL     OW79851   3.543   4.821   2.926 -0.6121  0.1161 -0.3756
25132SOL    HW179852   3.526   4.889   2.990 -0.7410 -0.5684  0.3335
25132SOL    HW279853   3.485   4.749   2.951  1.2380 -1.1804  0.3829
25133SOL     OW79854   5.296   4.401   6.154 -0.1094 -0.2027  0.3051
25133SOL    HW179855   5.384   4.375   6.128  0.2208  0.3365  0.8599
25133SOL    HW279856   5.308   4.482   6.204 -1.0634  0.7933 -0.9889
25134SOL     OW79857   8.579   4.919   3.553 -0.1366 -0.2110  0.3523
25134SOL    HW179858   8.512   4.986   3.567  0.7224  0.6395  0.4915
25134SOL    HW279859   8.547   4.869   3.478 -1.0544  0.0075  0.5818
25135SOL     OW79860   9.398   1.889   3.622  0.2005  0.2826 -0.0230
25135SOL    HW179861   9.390   1.984   3.609  0.2571  0.2734 -0.1293
25135SOL    HW279862   9.486   1.869   3.589  1.0932  0.5466  2.0190
25136SOL     OW79863   3.891   8.088   8.779  0.6524  0.1282  0.3992
25136SOL    HW179864   3.808   8.077   8.732  0.4390 -0.9181  0.9956
25136SOL    HW279865   3.865   8.122   8.864  0.9712  1.1978  0.0868
25137SOL     OW79866   6.875   9.737   0.427  0.3356 -0.5239 -0.8308
25137SOL    HW179867   6.803   9.744   0.365  0.0406  0.7864 -0.3746
25137SOL    HW279868   6.951   9.771   0.379 -0.3215  2.7175  0.1251
25138SOL     OW79869   1.194   5.065   0.596  0.0716  0.4072 -0.2172
25138SOL    HW179870   1.175   5.046   0.688 -0.5618  1.9772 -0.0004
25138SOL    HW279871   1.144   4.998   0.548  1.1407 -1.0031  0.5626
25139SOL     OW79872   0.432   5.337   8.938  0.0658 -0.0181 -0.2715
25139SOL    HW179873   0.438   5.413   8.996  0.9031 -0.9859  0.9723
25139SOL    HW279874   0.351   5.294   8.963 -0.7445  0.7644 -1.4179
25140SOL     OW79875   8.786   7.135   2.502  0.6485  0.3404  0.5165
25140SOL    HW179876   8.697   7.106   2.480  0.2645  2.7414 -1.4764
25140SOL    HW279877   8.773   7.217   2.550  1.6864  2.9023 -3.2071
25141SOL     OW79878   1.969   2.591   7.950 -0.4142 -0.0502 -0.2008
25141SOL    HW179879   1.881   2.577   7.914  0.3216  0.4400 -2.3217
25141SOL    HW279880   1.994   2.505   7.984 -0.8507 -0.8036 -1.6724
25142SOL     OW79881   6.460   3.807   1.850 -0.2784 -0.3429  0.5865
25142SOL    HW179882   6.479   3.755   1.772 -1.1041  0.4214 -0.1593
25142SOL    HW279883   6.375   3.774   1.880  0.0825 -0.6963  1.2180
25143SOL     OW79884   4.268  10.356   3.008  0.8064  0.0018  0.5070
25143SOL    HW179885   4.249  10.268   3.043  1.1920  0.6400  2.4567
25143SOL    HW279886   4.244  10.350   2.915 -0.3911 -1.7983  0.8598
25144SOL     OW79887   6.083   1.959   0.616  0.1619  0.2833 -0.0834
25144SOL    HW179888   6.050   1.884   0.666  2.3971  0.0009  1.0798
25144SOL    HW279889   6.156   1.924   0.565 -0.3529  1.1751 -1.5007
25145SOL     OW79890  10.426   9.097   5.411  0.0828  0.2650 -0.6919
25145SOL    HW179891  10.424   9.004   5.385  0.9157 -0.0428  0.2580
25145SOL    HW279892  10.487   9.099   5.485 -1.1894  1.3203  0.3584
25146SOL     OW79893   2.649   9.957   5.167 -0.3652 -0.3461  0.6115
25146SOL    HW179894   2.733   9.932   5.204 -0.5606 -0.4718  0.9725
25146SOL    HW279895   2.587   9.894   5.203 -0.3666 -1.2591 -0.9091
25147SOL     OW79896   7.203   1.199   8.746 -0.2239 -0.1855  0.3321
25147SOL    HW179897   7.128   1.256   8.726  0.5107  0.4321 -0.7307
25147SOL    HW279898   7.214   1.146   8.667  0.1771 -0.5918  0.6595
25148SOL     OW79899   3.144   6.205   3.543 -0.3198  0.6298  1.0606
25148SOL    HW179900   3.064   6.258   3.550 -1.6554 -1.2887  1.1535
25148SOL    HW279901   3.146   6.177   3.451  0.5266  1.0408  0.9446
25149SOL     OW79902   2.083  10.098   8.620 -0.2237 -0.4435  0.1415
25149SOL    HW179903   2.072  10.189   8.647 -1.9490 -0.0927 -1.5303
25149SOL    HW279904   2.068  10.047   8.700 -1.1283  0.6824  0.7115
25150SOL     OW79905   2.207   3.117  10.523 -0.4663  0.2026 -0.0106
25150SOL    HW179906   2.165   3.045  10.476  2.2862 -1.8840  0.4398
25150SOL    HW279907   2.209   3.189  10.461 -1.7696 -0.6638 -1.1098
25151SOL     OW79908   3.193   2.653  10.521 -0.2806 -0.4498  0.4633
25151SOL    HW179909   3.140   2.715  10.572  0.0746  0.6855 -0.4965
25151SOL    HW279910   3.139   2.633  10.445  0.6585  0.8122 -0.5861
25152SOL     OW79911   3.709   9.509   1.958 -0.2439  0.1658  0.2733
25152SOL    HW179912   3.748   9.547   2.036 -0.4224 -0.5927  0.7432
25152SOL    HW279913   3.625   9.556   1.948  0.7341  1.7981 -0.7430
25153SOL     OW79914   8.168   6.693   8.970  0.4909  0.5300  0.0093
25153SOL    HW179915   8.127   6.773   8.937  0.0226  0.4786  0.4631
25153SOL    HW279916   8.096   6.642   9.007  0.9633  0.4616  0.8627
25154SOL     OW79917   0.398   7.017   8.775  0.1591 -0.1164  0.0442
25154SOL    HW179918   0.312   7.054   8.759  0.7745  2.2628  1.6886
25154SOL    HW279919   0.402   7.001   8.869  1.1189 -1.3313 -0.1623
25155SOL     OW79920   1.704   1.049   9.967  0.3984  0.2898 -0.0876
25155SOL    HW179921   1.764   1.039   9.893 -0.4311 -0.4520 -0.6817
25155SOL    HW279922   1.639   1.113   9.937  0.0356 -0.0432 -0.0183
25156SOL     OW79923   4.201   5.999   8.682 -0.4012 -0.3644 -0.0588
25156SOL    HW179924   4.134   5.932   8.697 -1.9140  0.8669 -0.9462
25156SOL    HW279925   4.253   5.965   8.609 -2.2627  0.1103 -1.7169
25157SOL     OW79926   7.276   5.159   8.622  0.2087  0.1477 -0.1971
25157SOL    HW179927   7.363   5.168   8.582 -1.0143  2.4260 -2.6837
25157SOL    HW279928   7.277   5.218   8.697  0.9374 -0.2312  0.1017
25158SOL     OW79929   3.818   3.340   8.809  0.4180 -0.1871  0.6258
25158SOL    HW179930   3.756   3.300   8.870 -0.5665 -0.4778 -0.5484
25158SOL    HW279931   3.856   3.413   8.859 -3.0869  1.9818  0.4649
25159SOL     OW79932   4.137   7.910   7.541  0.3315  0.3937  0.3068
25159SOL    HW179933   4.165   7.861   7.464 -0.7866 -0.4445  0.3993
25159SOL    HW279934   4.117   7.842   7.606  1.2168  1.0839  1.3356
25160SOL     OW79935   9.258   4.224   6.064 -0.2791 -0.5079  0.1383
25160SOL    HW179936   9.203   4.269   6.128 -0.5208 -0.7386  0.0955
25160SOL    HW279937   9.198   4.163   6.020 -0.2237 -0.0058 -0.6400
25161SOL     OW79938   1.515   5.546   6.565  0.1530  0.3652 -0.5123
25161SOL    HW179939   1.521   5.564   6.472  1.3560 -2.6416 -1.1420
25161SOL    HW279940   1.578   5.605   6.606 -1.5887  2.9182 -1.2899
25162SOL     OW79941   8.543   1.449   0.251 -0.4154  0.5543 -0.2564
25162SOL    HW179942   8.505   1.471   0.166  1.5805 -2.0338 -1.9751
25162SOL    HW279943   8.637   1.442   0.234  0.0512  0.0416  2.1943
25163SOL     OW79944   0.553   2.534   1.098  0.1656  0.4374 -0.2346
25163SOL    HW179945   0.550   2.611   1.155  1.3757  1.5862 -1.6250
25163SOL    HW279946   0.631   2.486   1.126 -0.0327  0.2395 -0.0157
25164SOL     OW79947   8.404   9.964   8.411  0.4618 -0.1133  0.2726
25164SOL    HW179948   8.453   9.940   8.332 -2.5867 -1.5727 -1.3626
25164SOL    HW279949   8.370  10.051   8.391  0.7364  0.0552  0.5388
25165SOL     OW79950   2.402  10.214   7.129  0.4249  0.4093 -0.9405
25165SOL    HW179951   2.423  10.144   7.192 -1.8069 -0.4241 -1.0543
25165SOL    HW279952   2.370  10.168   7.052 -0.6927  1.5474 -1.1812
25166SOL     OW79953   7.499   4.095   1.539 -0.0122 -0.0115 -0.2171
25166SOL    HW179954   7.558   4.129   1.606 -0.0337  0.6314 -0.5202
25166SOL    HW279955   7.552   4.089   1.461 -0.1222 -0.2714 -0.2741
25167SOL     OW79956   2.871   8.151   1.238 -0.3965  0.5725  0.0557
25167SOL    HW179957   2.911   8.070   1.206 -0.2892  1.2683 -1.6769
25167SOL    HW279958   2.809   8.122   1.305  0.9423 -0.7662  0.7901
25168SOL     OW79959   9.740   5.910   6.821  0.3166 -0.2081 -0.0913
25168SOL    HW179960   9.831   5.892   6.846  1.5402  0.2557 -3.6954
25168SOL    HW279961   9.722   5.849   6.750 -1.3867  1.2012 -0.9430
25169SOL     OW79962  10.099   9.166   7.710  0.4696 -0.2885 -0.3248
25169SOL    HW179963  10.071   9.158   7.801  0.1177 -0.0828 -0.4133
25169SOL    HW279964  10.135   9.255   7.704 -2.1307  0.7898 -1.0789
25170SOL     OW79965   7.823   8.011   4.731  0.7204  0.5482  0.5905
25170SOL    HW179966   7.857   7.925   4.756  1.3190  0.2159 -1.2189
25170SOL    HW279967   7.737   7.993   4.693  2.4536  0.0281 -3.7283
25171SOL     OW79968   7.990   1.032   4.254 -0.4698  0.6434  0.2718
25171SOL    HW179969   7.990   0.949   4.302 -2.0339  1.1394  1.1886
25171SOL    HW279970   8.040   1.013   4.174  2.5544 -0.0910  2.1896
25172SOL     OW79971   4.850   1.115   9.370 -0.4008  0.3276 -0.4276
25172SOL    HW179972   4.836   1.180   9.302  3.0686  0.4928 -1.1810
25172SOL    HW279973   4.924   1.149   9.420 -0.0151 -1.9040  0.6375
25173SOL     OW79974   1.126   1.467  10.977  0.0132 -0.3387  0.1808
25173SOL    HW179975   1.100   1.556  10.999  1.8929  0.1314  0.7700
25173SOL    HW279976   1.090   1.413  11.048 -2.0908 -0.2486 -0.7763
25174SOL     OW79977   7.563   3.018   8.339 -0.1797  0.4328 -0.2655
25174SOL    HW179978   7.604   2.933   8.323  0.6176  0.3790  1.7959
25174SOL    HW279979   7.634   3.081   8.327  0.2703  0.4428  2.0954
25175SOL     OW79980   9.321   1.701   2.509 -0.3582 -0.0205  0.7215
25175SOL    HW179981   9.245   1.755   2.529  0.6262  1.5979  0.2976
25175SOL    HW279982   9.297   1.654   2.430 -0.4526  1.5586 -0.2366
25176SOL     OW79983   4.426   5.487   6.054 -1.4568  0.2890  0.1515
25176SOL    HW179984   4.476   5.421   6.006  0.1638  1.0624  0.7213
25176SOL    HW279985   4.409   5.556   5.989  0.8459  1.3956  0.5964
25177SOL     OW79986   5.661   2.810   2.660  0.5884 -0.0498 -0.4824
25177SOL    HW179987   5.571   2.779   2.666  0.8760 -0.5680  2.7791
25177SOL    HW279988   5.657   2.887   2.604 -1.5172 -1.1459 -1.9665
25178SOL     OW79989   4.266   4.276   8.083 -0.0364  0.2250 -0.1243
25178SOL    HW179990   4.283   4.221   8.159 -1.2159  0.4619  0.3365
25178SOL    HW279991   4.325   4.350   8.093 -1.7748  1.4591  1.8706
25179SOL     OW79992   1.666   8.953   0.923 -0.5069 -0.4910 -0.3178
25179SOL    HW179993   1.673   8.904   0.841  0.9065  0.0267 -0.5229
25179SOL    HW279994   1.698   8.893   0.990 -0.8643 -0.6162 -0.2569
25180SOL     OW79995   3.971   2.596   8.755 -0.1212  0.5964  0.1658
25180SOL    HW179996   4.063   2.623   8.755  0.2221 -0.4843  1.4280
25180SOL    HW279997   3.968   2.522   8.695 -0.1311  0.5586  0.2122
25181SOL     OW79998   3.073   1.071   0.274 -0.1854  0.2820  0.0051
25181SOL    HW179999   3.038   1.082   0.185 -2.2927 -0.4066  0.6870
25181SOL    HW280000   3.101   0.979   0.277 -2.8528 -0.6034  0.8554
25182SOL     OW80001  10.987   3.521  10.010  0.2028 -0.3700  0.0793
25182SOL    HW180002  10.960   3.595   9.956 -0.2574 -1.6585 -1.5303
25182SOL    HW280003  11.080   3.534  10.024 -0.0482  1.0152  0.6729
25183SOL     OW80004  10.521   6.647   9.563  0.4140  0.4060  0.0078
25183SOL    HW180005  10.460   6.705   9.518  0.7562  1.0227  0.3253
25183SOL    HW280006  10.522   6.678   9.654 -0.2142 -0.7765  0.4418
25184SOL     OW80007   6.243   9.190   0.710 -0.5471 -0.3285 -0.1596
25184SOL    HW180008   6.249   9.263   0.772 -2.1459 -1.1630  1.0562
25184SOL    HW280009   6.152   9.192   0.680 -1.0653 -2.6749  1.0305
25185SOL     OW80010   2.836   2.436   9.833 -0.5649  0.2799  0.0362
25185SOL    HW180011   2.801   2.353   9.800 -0.4427  0.9249 -1.8171
25185SOL    HW280012   2.773   2.502   9.805 -0.6370  0.8468  1.4523
25186SOL     OW80013   2.111   0.540   7.197 -0.0124 -0.0197  0.3289
25186SOL    HW180014   2.083   0.480   7.128 -0.2392 -0.6202  0.9319
25186SOL    HW280015   2.030   0.577   7.231  0.1096  0.4129  0.1530
25187SOL     OW80016  10.087   4.911   6.708  0.1332 -0.1672  0.3493
25187SOL    HW180017  10.055   4.947   6.625  0.7938 -0.8905 -0.2372
25187SOL    HW280018  10.025   4.942   6.774 -1.1380 -0.6296 -0.5908
25188SOL     OW80019   9.846   9.928   8.137  0.1878  0.2037  0.2731
25188SOL    HW180020   9.909   9.856   8.132 -1.1711 -1.3621  3.3686
25188SOL    HW280021   9.817   9.940   8.046  2.7588 -0.9362 -0.7994
25189SOL     OW80022   0.765   7.327   0.464  0.0726 -0.6946 -0.1508
25189SOL    HW180023   0.750   7.337   0.371  1.5512  1.1928 -0.2445
25189SOL    HW280024   0.748   7.413   0.502 -1.6626 -1.6930  1.5619
25190SOL     OW80025   1.009   3.507   7.436  0.2234  0.5295 -0.2651
25190SOL    HW180026   1.098   3.474   7.424 -0.1995 -0.3787 -1.0214
25190SOL    HW280027   1.021   3.590   7.483  1.3674 -0.2533  0.8832
25191SOL     OW80028   4.959   3.347   2.674 -0.4972  0.4035 -0.0373
25191SOL    HW180029   4.998   3.403   2.741 -1.4543  0.6765  0.3025
25191SOL    HW280030   4.876   3.388   2.653 -0.8410 -0.4374 -0.3830
25192SOL     OW80031   8.821   9.330   7.004 -0.1780 -0.0847 -0.1498
25192SOL    HW180032   8.907   9.319   6.964  0.1949  0.2724  0.5379
25192SOL    HW280033   8.787   9.242   7.015  1.1586 -0.4100  1.8510
25193SOL     OW80034  10.450   1.108   0.873 -0.3147 -0.1619 -0.0551
25193SOL    HW180035  10.395   1.156   0.812 -2.2070  0.2482  1.8651
25193SOL    HW280036  10.413   1.020   0.875  0.0553 -0.3174  0.1325
25194SOL     OW80037   6.746   0.116   6.007 -0.4000 -0.7962 -0.0441
25194SOL    HW180038   6.790   0.172   6.071 -0.5970  0.0146 -0.5987
25194SOL    HW280039   6.664   0.091   6.049 -1.6534  1.6921 -0.8419
25195SOL     OW80040   7.162   1.985   5.212  0.1940 -0.1716 -0.4752
25195SOL    HW180041   7.130   2.054   5.153  0.1205 -1.9784 -2.6986
25195SOL    HW280042   7.086   1.929   5.226  0.4606 -0.2707  0.6588
25196SOL     OW80043   6.400   2.094  10.131  0.6032 -0.1203 -0.6070
25196SOL    HW180044   6.411   2.047  10.214  2.0729  0.2610 -0.5496
25196SOL    HW280045   6.471   2.159  10.131  0.6348 -0.1150 -2.1587
25197SOL     OW80046  10.663   4.833   4.302 -0.4013 -1.0250  0.0351
25197SOL    HW180047  10.628   4.920   4.323 -1.3253 -0.8502 -1.9330
25197SOL    HW280048  10.740   4.824   4.357 -0.7605  0.6922  0.8997
25198SOL     OW80049   9.119   3.035   3.253 -0.1620  0.2460 -0.1775
25198SOL    HW180050   9.055   3.093   3.210 -1.2300  0.5581  1.7183
25198SOL    HW280051   9.199   3.087   3.259 -0.0877  0.3109 -1.4338
25199SOL     OW80052   4.242   6.311   8.921  0.1081  0.5348  0.2077
25199SOL    HW180053   4.279   6.387   8.965  0.5495 -1.1583  2.9629
25199SOL    HW280054   4.147   6.325   8.923  0.2461  2.1604 -1.6870
25200SOL     OW80055   2.771   3.619   0.090  0.4787  0.2308  0.1541
25200SOL    HW180056   2.735   3.653   0.008  1.4825  1.7375  0.3029
25200SOL    HW280057   2.752   3.525   0.087 -1.2127  0.5611 -0.8957
25201SOL     OW80058   9.650  10.502   3.431 -0.0735  0.3330  0.0214
25201SOL    HW180059   9.560  10.537   3.433  0.1449  0.8937  1.7384
25201SOL    HW280060   9.658  10.463   3.345 -1.2691  2.1246 -0.9755
25202SOL     OW80061  10.401   9.595   3.999 -0.4062  0.1623  0.0749
25202SOL    HW180062  10.346   9.667   4.030 -1.4574 -0.1899 -0.9410
25202SOL    HW280063  10.352   9.555   3.928  2.3934  1.6406 -2.9232
25203SOL     OW80064   1.542  10.768   5.627 -0.0506  0.3506 -0.4359
25203SOL    HW180065   1.634  10.782   5.648  0.3629  0.2822 -2.0229
25203SOL    HW280066   1.535  10.674   5.610  0.2121  0.6714 -2.7590
25204SOL     OW80067   1.041   8.998  10.884  0.1922 -0.3888 -0.9839
25204SOL    HW180068   0.959   8.954  10.907 -0.4385  1.6057  0.9614
25204SOL    HW280069   1.091   8.932  10.836 -0.6383 -3.2587  1.7461
25205SOL     OW80070   1.306   4.593   3.567  0.4789  0.1084 -0.0907
25205SOL    HW180071   1.284   4.647   3.492 -0.1375 -0.2029 -0.1438
25205SOL    HW280072   1.276   4.642   3.643 -0.9848 -0.5739 -0.1991
25206SOL     OW80073   5.182   9.394   2.878  0.0905  0.2174 -0.0885
25206SOL    HW180074   5.144   9.407   2.965 -1.3743 -0.9205 -0.5158
25206SOL    HW280075   5.267   9.354   2.895  0.8861  2.2145  0.8806
25207SOL     OW80076   3.573   3.380   8.676 -0.2910  0.0862  0.1258
25207SOL    HW180077   3.667   3.398   8.678 -0.1272 -0.7222  0.8255
25207SOL    HW280078   3.534   3.445   8.734 -0.4755  1.8507 -1.8653
25208SOL     OW80079   4.788   1.852   1.440 -0.1097  0.2716  0.1191
25208SOL    HW180080   4.723   1.884   1.377 -0.0525  0.9528  0.3861
25208SOL    HW280081   4.737   1.801   1.503 -0.6496  1.9235  1.0985
25209SOL     OW80082   0.636   5.004   6.279  0.3988  0.4285  0.2741
25209SOL    HW180083   0.704   4.939   6.258 -0.8813 -0.5206 -1.1403
25209SOL    HW280084   0.667   5.045   6.360  1.7797 -1.2238  0.6595
25210SOL     OW80085   4.705   2.137   6.351  0.5474 -0.4834 -0.2177
25210SOL    HW180086   4.634   2.201   6.344  0.5823 -0.6044 -2.1417
25210SOL    HW280087   4.757   2.166   6.426 -1.2434 -0.1218  0.9361
25211SOL     OW80088   9.845   1.417   2.246  0.4415 -0.2925 -0.4896
25211SOL    HW180089   9.775   1.383   2.303  0.5428  0.7059  0.2589
25211SOL    HW280090   9.923   1.368   2.272  0.3505 -0.2832 -0.1929
25212SOL     OW80091   8.260   0.310   6.675 -0.5459  0.3421  0.4164
25212SOL    HW180092   8.199   0.284   6.607 -0.3972 -0.3079  0.5248
25212SOL    HW280093   8.260   0.237   6.737  2.1020 -0.7655 -0.7471
25213SOL     OW80094   2.268   4.414  10.535  0.1217 -0.0821  0.4281
25213SOL    HW180095   2.298   4.444  10.620  1.6516  0.7350 -0.3517
25213SOL    HW280096   2.341   4.361  10.501 -0.0139  0.4639 -0.7901
25214SOL     OW80097   3.983  10.312  10.932 -0.6511 -0.0119 -0.0853
25214SOL    HW180098   4.034  10.375  10.981 -0.6823 -0.0611  0.0109
25214SOL    HW280099   3.909  10.362  10.898 -1.3681 -0.2537  1.0460
25215SOL     OW80100  10.230   9.419   4.514 -0.4481  0.3773  0.1333
25215SOL    HW180101  10.212   9.334   4.474  2.7407  0.2523 -1.3342
25215SOL    HW280102  10.233   9.480   4.440  1.8579  0.8340  0.5173
25216SOL     OW80103   5.190   6.318   3.197  0.0638  0.4690 -0.1182
25216SOL    HW180104   5.212   6.287   3.285  0.6204 -1.0604 -0.7548
25216SOL    HW280105   5.096   6.303   3.190  0.0042  0.6603  0.2444
25217SOL     OW80106   9.320   4.550   4.015  0.0596 -0.3339  0.7851
25217SOL    HW180107   9.363   4.611   4.075  1.5195 -1.5560  1.0503
25217SOL    HW280108   9.367   4.561   3.932 -2.3664  1.8181 -0.4373
25218SOL     OW80109   0.072   3.680   6.915 -0.0316 -0.2730 -0.6831
25218SOL    HW180110  -0.014   3.722   6.906 -0.1061 -0.2091  0.2046
25218SOL    HW280111   0.055   3.602   6.967  0.4165 -0.3722 -0.6841
25219SOL     OW80112   4.438  10.544   2.350 -0.5932  0.0697  0.3069
25219SOL    HW180113   4.407  10.529   2.260 -3.3333  2.0986  0.7701
25219SOL    HW280114   4.495  10.470   2.368 -2.5284 -2.1995 -2.0058
25220SOL     OW80115   5.373   3.951   0.247  0.3073  0.2099  0.3586
25220SOL    HW180116   5.398   3.891   0.317  0.6198  0.5027  0.4994
25220SOL    HW280117   5.456   3.986   0.214  0.1224  0.6825  0.3818
25221SOL     OW80118   2.234   7.977   2.284 -0.1130  0.0489 -0.0185
25221SOL    HW180119   2.295   7.904   2.274  0.3427  0.7325 -3.2279
25221SOL    HW280120   2.148   7.936   2.295 -0.1143 -1.1449 -3.3339
25222SOL     OW80121   3.431   9.386   2.707 -0.8510 -1.1733 -0.2326
25222SOL    HW180122   3.521   9.405   2.682 -0.3595 -1.9775  0.8611
25222SOL    HW280123   3.378   9.440   2.648  0.3126 -1.2041 -1.3528
25223SOL     OW80124  10.174   0.448   0.238 -0.2256 -0.1888 -0.1124
25223SOL    HW180125  10.103   0.446   0.174  0.1508  1.3755 -0.6313
25223SOL    HW280126  10.153   0.378   0.299 -1.1119 -1.1010 -1.4078
25224SOL     OW80127   4.577   7.807   6.813 -0.0775  0.0257 -0.3064
25224SOL    HW180128   4.656   7.755   6.798  1.7695  2.9803 -1.7882
25224SOL    HW280129   4.523   7.791   6.736  0.3157  0.0311 -0.5844
25225SOL     OW80130   6.305  10.770   9.968 -0.4131  0.2562 -0.6024
25225SOL    HW180131   6.337  10.732  10.050 -0.6347  1.8772  0.2962
25225SOL    HW280132   6.323  10.704   9.902 -1.2450 -1.6024  0.9100
25226SOL     OW80133   8.837   9.584   3.071 -0.2354  0.5237  0.4115
25226SOL    HW180134   8.759   9.627   3.036 -0.3287 -0.8416 -1.2195
25226SOL    HW280135   8.821   9.490   3.056  2.1197  0.2692 -0.9287
25227SOL     OW80136   6.957   7.193   5.107  0.0133 -0.1917  0.0173
25227SOL    HW180137   6.951   7.126   5.038  0.8263 -2.0439  1.6538
25227SOL    HW280138   7.051   7.200   5.125  0.0911  2.4143 -0.9950
25228SOL     OW80139   8.057   6.406   2.159  0.6599 -0.4332  0.4905
25228SOL    HW180140   8.102   6.446   2.233  3.2341 -0.1311 -1.1025
25228SOL    HW280141   8.080   6.461   2.084 -0.0901 -1.8741 -0.8685
25229SOL     OW80142   7.725   8.813   3.514 -0.7027  0.1981 -0.3395
25229SOL    HW180143   7.691   8.802   3.603  0.6380  2.6236  0.5610
25229SOL    HW280144   7.820   8.812   3.524 -0.4740  2.8926 -1.3079
25230SOL     OW80145   0.819   9.025   9.646 -0.8428 -0.1866  0.4152
25230SOL    HW180146   0.791   9.003   9.735 -1.8077 -0.4584  0.0557
25230SOL    HW280147   0.795   8.949   9.593 -0.9372  0.2627 -0.2031
25231SOL     OW80148   9.799   8.587   5.383  0.7072 -0.0756 -0.4929
25231SOL    HW180149   9.888   8.553   5.379  0.4650 -1.2140  2.1464
25231SOL    HW280150   9.744   8.513   5.356  0.4497 -0.0013 -0.1649
25232SOL     OW80151   3.726  10.579   6.409  0.0396  0.4450 -0.4860
25232SOL    HW180152   3.782  10.571   6.487  1.7639  1.8203 -1.5078
25232SOL    HW280153   3.762  10.515   6.348 -0.5596  0.1953 -0.5773
25233SOL     OW80154   8.802   6.300  10.892 -0.1120 -0.5697 -0.1879
25233SOL    HW180155   8.823   6.223  10.839 -0.4507 -1.6622  1.2081
25233SOL    HW280156   8.774   6.264  10.977 -1.3806  1.0608  0.1265
25234SOL     OW80157   6.151   0.029   6.400  0.3085  0.0600  0.1320
25234SOL    HW180158   6.058   0.028   6.422  0.5964 -0.5167  1.4375
25234SOL    HW280159   6.186  -0.050   6.441  2.0670  2.1681  3.1299
25235SOL     OW80160   3.852  10.968   0.392  0.1044  0.1782  0.7177
25235SOL    HW180161   3.867  10.917   0.313  1.7142 -0.2552  1.2474
25235SOL    HW280162   3.821  11.053   0.361 -1.8882 -0.8323 -0.2081
25236SOL     OW80163   8.530   2.393   3.171 -0.0890  0.3875 -0.2412
25236SOL    HW180164   8.454   2.386   3.114  0.7546 -1.5292 -1.2513
25236SOL    HW280165   8.602   2.418   3.113  0.4922 -0.1137  0.2381
25237SOL     OW80166  11.017   7.548   9.006  0.2861 -0.0797  0.5749
25237SOL    HW180167  11.080   7.512   9.068  2.5154  0.6114 -1.1558
25237SOL    HW280168  10.970   7.471   8.973 -0.5606 -0.5085  2.6089
25238SOL     OW80169   3.821   4.691  11.005  0.1767 -0.0536  0.5836
25238SOL    HW180170   3.852   4.619  11.060  0.8533  0.5182  0.9771
25238SOL    HW280171   3.840   4.770  11.056  1.6908  0.5734 -0.8404
25239SOL     OW80172   8.257   5.111   2.819  0.0867  0.1884  0.0612
25239SOL    HW180173   8.241   5.132   2.727  2.5744 -0.6408 -0.6508
25239SOL    HW280174   8.353   5.110   2.827 -0.0634 -0.0292  2.6064
25240SOL     OW80175   5.523   6.022   5.361  0.6649  0.3688 -0.0485
25240SOL    HW180176   5.436   5.985   5.354  1.1027 -0.9526  1.1050
25240SOL    HW280177   5.535   6.071   5.279 -0.6962 -0.3910 -0.7345
25241SOL     OW80178   2.914   3.669   8.181 -0.7956  0.7323 -0.5438
25241SOL    HW180179   3.000   3.710   8.191  0.1181 -1.0810 -0.6045
25241SOL    HW280180   2.866   3.695   8.260  0.0298  1.2303 -0.1868
25242SOL     OW80181   5.678   7.370   3.966 -0.1343  0.3226  0.3038
25242SOL    HW180182   5.585   7.374   3.987 -0.1046 -0.3223  0.5680
25242SOL    HW280183   5.716   7.312   4.032 -0.0457 -1.8130 -1.4911
25243SOL     OW80184   0.681   8.733   1.841  0.1141  0.4837 -0.3694
25243SOL    HW180185   0.622   8.804   1.867  0.9414  0.5307  1.5769
25243SOL    HW280186   0.766   8.776   1.828  0.6881 -0.1358  1.0861
25244SOL     OW80187   8.860   2.000   9.510 -0.4804  0.0457  0.2601
25244SOL    HW180188   8.877   1.958   9.426  1.3448  2.9532 -1.0178
25244SOL    HW280189   8.811   2.080   9.488  1.4958  1.7669  1.6229
25245SOL     OW80190   3.573   7.661  10.352 -0.0552 -0.0194  0.5571
25245SOL    HW180191   3.590   7.612  10.432 -1.0036  0.1958  0.8975
25245SOL    HW280192   3.647   7.638  10.294  0.8987  0.2259  1.6515
25246SOL     OW80193   0.558   2.813   4.617 -0.2879 -0.0597 -0.4559
25246SOL    HW180194   0.588   2.809   4.708 -0.6969  0.7302 -0.2752
25246SOL    HW280195   0.477   2.762   4.616  0.4500 -1.2606 -0.6997
25247SOL     OW80196   8.873   7.933   1.561  0.3126 -0.3338 -0.1849
25247SOL    HW180197   8.794   7.883   1.585  0.6933 -1.6851 -1.5839
25247SOL    HW280198   8.939   7.903   1.623 -0.0077  0.0461  0.3478
25248SOL     OW80199   0.057   6.516   4.971  0.4387  0.6230  0.2124
25248SOL    HW180200   0.066   6.500   4.877 -0.5841  1.6834 -0.0953
25248SOL    HW280201   0.123   6.582   4.991  2.8639 -1.8213  0.9517
25249SOL     OW80202   3.422   2.350   9.378  0.6474 -0.2414 -0.2408
25249SOL    HW180203   3.404   2.399   9.297  0.1610  1.5538  0.9130
25249SOL    HW280204   3.347   2.369   9.435  2.3086  0.9125  1.6898
25250SOL     OW80205   2.104   5.018   2.844  0.3199 -0.0752 -0.2246
25250SOL    HW180206   2.137   4.928   2.843 -3.9067 -1.8638 -1.1031
25250SOL    HW280207   2.120   5.047   2.934  0.5753 -2.2651  0.5191
25251SOL     OW80208   8.312   2.108  10.036  0.3418  0.4222  0.0356
25251SOL    HW180209   8.379   2.051  10.074  1.2501  1.7092  0.4494
25251SOL    HW280210   8.256   2.133  10.109 -2.9702 -3.4791 -0.7898
25252SOL     OW80211  10.624  10.243   5.956 -0.1932  0.3571  0.3094
25252SOL    HW180212  10.631  10.159   5.912 -0.4868 -0.8610  2.4483
25252SOL    HW280213  10.562  10.293   5.904 -1.4554 -1.4578 -0.0015
25253SOL     OW80214  10.087   1.472   6.533 -0.3242  0.1604 -0.1724
25253SOL    HW180215  10.066   1.492   6.625 -1.2995 -0.3617 -0.2722
25253SOL    HW280216  10.003   1.452   6.493  0.1792 -0.3348 -1.0103
25254SOL     OW80217   4.873   2.949   5.578 -0.7400  0.1532 -0.3045
25254SOL    HW180218   4.780   2.944   5.600 -1.1136 -2.6921 -2.0832
25254SOL    HW280219   4.876   2.947   5.483  1.1702  1.3544 -0.3362
25255SOL     OW80220   0.683   6.430   7.678 -0.1628 -0.0333  0.2262
25255SOL    HW180221   0.683   6.524   7.663 -0.8225  0.1009  1.0328
25255SOL    HW280222   0.638   6.394   7.601 -0.1947  0.3319  0.0709
25256SOL     OW80223  10.529   5.611   9.176 -0.3106 -0.5217  0.6854
25256SOL    HW180224  10.467   5.540   9.190 -0.8909  0.2507  2.3596
25256SOL    HW280225  10.484   5.672   9.117 -0.6598 -0.5452  0.9262
25257SOL     OW80226   3.751   5.614   0.249 -0.2599 -0.0407 -0.6264
25257SOL    HW180227   3.806   5.692   0.235 -2.5488  2.0545  1.2742
25257SOL    HW280228   3.802   5.559   0.308  0.0431  1.6918  0.8229
25258SOL     OW80229   8.771   3.884   6.995  0.1706 -0.1165 -0.3518
25258SOL    HW180230   8.804   3.814   7.052  2.3931  1.2005  0.0689
25258SOL    HW280231   8.676   3.873   6.998  0.3479 -1.8655  1.3054
25259SOL     OW80232   8.554  10.102   9.527 -0.2697  0.0709 -0.1499
25259SOL    HW180233   8.499  10.169   9.487  1.3383  0.5428 -1.7308
25259SOL    HW280234   8.495  10.030   9.547 -1.3454  0.1554 -2.6501
25260SOL     OW80235   0.152   3.459   0.571 -0.1815  0.4916  0.4237
25260SOL    HW180236   0.081   3.510   0.611  0.3694  0.0721  1.9967
25260SOL    HW280237   0.232   3.495   0.609  0.4059  0.2760 -0.5586
25261SOL     OW80238   7.971   7.292   3.941  0.5448  0.1735 -0.2267
25261SOL    HW180239   7.876   7.283   3.941  0.6732 -1.7194  0.7039
25261SOL    HW280240   7.988   7.379   3.976 -0.8153 -0.3196  1.7808
25262SOL     OW80241  10.373   6.667   3.916  0.3801  0.3021  0.2130
25262SOL    HW180242  10.372   6.607   3.842 -1.4885 -0.7071  0.9997
25262SOL    HW280243  10.432   6.627   3.980 -0.4470 -0.4435  0.5202
25263SOL     OW80244   6.567   0.763   3.479  0.1671  0.5071 -0.2292
25263SOL    HW180245   6.505   0.732   3.414 -0.5011  0.2574  0.5100
25263SOL    HW280246   6.610   0.684   3.511  0.1540  0.5793 -0.0321
25264SOL     OW80247   7.119   8.957   4.980  0.6942 -0.2437  0.2553
25264SOL    HW180248   7.149   8.887   5.037  1.2626  0.9639  1.5135
25264SOL    HW280249   7.196   8.981   4.929  0.3243 -0.9670 -0.6626
25265SOL     OW80250   8.900   2.842   9.712 -0.0651  0.0231  0.0455
25265SOL    HW180251   8.974   2.786   9.734  0.9206  1.6779  1.1928
25265SOL    HW280252   8.823   2.787   9.724  0.9010 -1.4231 -0.1280
25266SOL     OW80253   0.628   7.790   8.204  0.4476 -0.2149  0.4215
25266SOL    HW180254   0.640   7.883   8.223  1.0313 -0.2867  0.4194
25266SOL    HW280255   0.715   7.752   8.215  0.2076 -0.7651  0.4430
25267SOL     OW80256   6.763   4.862   8.222 -0.1496 -0.3901 -0.3043
25267SOL    HW180257   6.819   4.876   8.145  0.1194 -3.0318 -0.6870
25267SOL    HW280258   6.740   4.950   8.251  1.0505  0.7231 -2.4500
25268SOL     OW80259   8.081   1.469   8.351  0.3860  0.1987 -0.5673
25268SOL    HW180260   8.140   1.402   8.384  0.7760  0.5868 -0.4722
25268SOL    HW280261   7.993   1.434   8.367  0.5876 -0.2372 -0.4162
25269SOL     OW80262   1.980   2.959  10.987  0.2547 -0.3571 -0.1664
25269SOL    HW180263   1.977   3.019  11.061  0.8324 -1.0350  0.4239
25269SOL    HW280264   2.018   3.010  10.916  1.4963 -0.2231  0.5529
25270SOL     OW80265   1.452   5.967   6.944  0.0124 -0.2972  0.0639
25270SOL    HW180266   1.488   6.000   7.026  0.1167  1.1166 -0.5185
25270SOL    HW280267   1.357   5.980   6.952  0.1260  0.9949 -0.5026
25271SOL     OW80268   2.850   5.833   3.222 -0.5641  0.3806 -0.1371
25271SOL    HW180269   2.881   5.760   3.275  0.5122  0.3828 -0.7387
25271SOL    HW280270   2.808   5.792   3.147  0.7613  0.3519 -0.8889
25272SOL     OW80271  11.068   4.525   0.649 -0.4573  0.1256 -0.5553
25272SOL    HW180272  11.091   4.520   0.556 -1.8742 -3.3172 -0.8960
25272SOL    HW280273  10.973   4.537   0.650 -0.2893  1.7117  0.5496
25273SOL     OW80274   4.848  10.770   4.749 -0.5609 -0.6146 -0.1565
25273SOL    HW180275   4.778  10.705   4.743 -1.2122 -0.1301  1.5485
25273SOL    HW280276   4.818  10.843   4.696  0.6231 -1.9733 -2.9348
25274SOL     OW80277   7.780   4.063   2.470 -0.0833 -0.3697 -0.1033
25274SOL    HW180278   7.760   4.141   2.522 -0.6877 -1.1540  0.8423
25274SOL    HW280279   7.804   3.996   2.533 -0.3656 -1.2073 -0.8579
25275SOL     OW80280   4.153  10.318   6.234 -0.1840  0.2282 -0.4112
25275SOL    HW180281   4.070  10.303   6.188 -1.4326 -0.2420  1.8234
25275SOL    HW280282   4.214  10.255   6.196 -0.8152  0.6003 -2.1253
25276SOL     OW80283   4.106   8.933   1.053 -0.3318  0.4678 -0.2353
25276SOL    HW180284   4.033   8.873   1.042  1.4003 -1.8281  0.0569
25276SOL    HW280285   4.141   8.945   0.965  0.0131  0.0965 -0.1534
25277SOL     OW80286   1.053   3.352   1.997 -0.4201 -0.4606  0.3941
25277SOL    HW180287   1.119   3.360   1.929 -0.6795  0.9745  0.2692
25277SOL    HW280288   1.103   3.332   2.077 -0.0238 -1.1287 -0.0097
25278SOL     OW80289   4.499   7.697   7.737 -0.6585 -0.0088  0.0041
25278SOL    HW180290   4.457   7.611   7.734 -1.2676  0.2484  0.7523
25278SOL    HW280291   4.506   7.717   7.831  0.3674  0.3389 -0.1258
25279SOL     OW80292   0.592   1.452   4.007 -0.4071 -0.8784  0.3372
25279SOL    HW180293   0.618   1.455   3.915 -1.6875  1.2492 -0.0279
25279SOL    HW280294   0.670   1.482   4.055 -0.4709  0.3050 -0.2778
25280SOL     OW80295   4.423   4.684   5.840 -0.4545 -0.0594  1.0374
25280SOL    HW180296   4.334   4.657   5.861 -1.1535  0.1204 -1.3857
25280SOL    HW280297   4.478   4.612   5.874 -1.7316 -1.3310  0.5201
25281SOL     OW80298  10.363   1.370   5.789 -1.2366  0.4149  0.3427
25281SOL    HW180299  10.395   1.293   5.836 -0.2753  0.2086 -0.6025
25281SOL    HW280300  10.425   1.440   5.812  0.5328 -0.1927 -2.1679
25282SOL     OW80301   5.847   2.709   1.049 -0.4041  0.1264  0.4888
25282SOL    HW180302   5.823   2.617   1.062 -0.2491  0.0781  0.4307
25282SOL    HW280303   5.763   2.754   1.039 -0.4452 -0.3236 -1.6646
25283SOL     OW80304   5.885   4.306   7.616 -0.0545  0.6117 -0.6748
25283SOL    HW180305   5.943   4.230   7.607  0.2693  0.9274 -1.2805
25283SOL    HW280306   5.824   4.298   7.543  0.5115  1.3845 -1.2538
25284SOL     OW80307   8.512   3.050   0.927 -0.3208  0.4916 -0.6835
25284SOL    HW180308   8.509   3.141   0.897  0.8590  0.3431 -1.3262
25284SOL    HW280309   8.589   3.045   0.984 -1.2129  0.2176  0.5342
25285SOL     OW80310   7.213   7.906   5.483 -0.0850 -0.2891  0.5228
25285SOL    HW180311   7.155   7.838   5.518  0.8911 -2.2744 -1.4850
25285SOL    HW280312   7.179   7.987   5.521 -4.8788 -1.0914 -1.2640
25286SOL     OW80313  10.195   6.008   2.958 -0.1709  0.2366  0.0073
25286SOL    HW180314  10.237   6.057   2.888  0.8227  0.4452  0.7226
25286SOL    HW280315  10.214   5.916   2.940 -0.4095  0.2485 -0.3044
25287SOL     OW80316   7.240   7.033   6.181  0.0319 -0.4389 -0.6020
25287SOL    HW180317   7.225   6.984   6.262 -2.6138 -1.7336 -1.7705
25287SOL    HW280318   7.326   7.073   6.193  0.2652 -1.5945  2.3194
25288SOL     OW80319   1.793  10.343   6.719  0.2724 -0.1819  0.0961
25288SOL    HW180320   1.730  10.404   6.758  0.3762 -0.8724  1.4138
25288SOL    HW280321   1.761  10.330   6.630 -0.1399  1.2433  0.0122
25289SOL     OW80322   7.200   5.029   8.161  0.2314 -0.4776 -0.1702
25289SOL    HW180323   7.209   5.030   8.066 -2.8585  2.9116 -0.6573
25289SOL    HW280324   7.158   4.945   8.180  0.8378 -1.1892 -1.7555
25290SOL     OW80325   2.179   2.517   8.447 -0.4506  0.2594  0.2874
25290SOL    HW180326   2.268   2.513   8.483 -1.0655 -0.9300  1.8158
25290SOL    HW280327   2.185   2.472   8.363  0.5380  0.8538  0.0251
25291SOL     OW80328   4.804   0.645   6.521 -0.1350 -0.4779 -1.0339
25291SOL    HW180329   4.809   0.633   6.426 -1.3681  0.0195 -1.1745
25291SOL    HW280330   4.794   0.740   6.533 -1.4798 -0.6625 -0.5038
25292SOL     OW80331   4.808   0.211   3.042  0.0420  0.1003  0.5244
25292SOL    HW180332   4.754   0.153   3.095 -0.3623  0.4698  0.5185
25292SOL    HW280333   4.749   0.245   2.974  0.8408 -1.3566 -0.9660
25293SOL     OW80334   5.166   0.967  10.417 -0.2882 -0.5003  0.9774
25293SOL    HW180335   5.072   0.950  10.419 -0.3624 -0.0440  2.5192
25293SOL    HW280336   5.205   0.891  10.460 -0.0879  0.0635  1.8006
25294SOL     OW80337   2.474   7.204   4.548  0.8461  0.3042 -0.3825
25294SOL    HW180338   2.489   7.214   4.642 -1.4519  0.1922  0.0588
25294SOL    HW280339   2.424   7.281   4.523 -0.8914 -0.9226 -0.8954
25295SOL     OW80340   4.097   0.287   4.151 -0.6165  0.7620 -0.1399
25295SOL    HW180341   4.018   0.297   4.204 -1.6312 -0.5470 -1.3517
25295SOL    HW280342   4.165   0.331   4.202 -1.7369  0.3724  1.7820
25296SOL     OW80343   0.534   6.894   2.439 -0.0121 -0.1013  0.4998
25296SOL    HW180344   0.611   6.916   2.492 -0.9918 -0.3484  2.0893
25296SOL    HW280345   0.566   6.830   2.376  1.5246  1.3090 -0.2275
25297SOL     OW80346   4.961   0.043   6.601 -0.2433  0.1039 -0.1557
25297SOL    HW180347   4.882   0.006   6.562 -0.6168  1.0451 -0.3288
25297SOL    HW280348   4.984   0.116   6.544  1.9106 -1.3241 -1.2469
25298SOL     OW80349   7.352   3.292  10.712  0.3285 -0.1333  1.0988
25298SOL    HW180350   7.386   3.352  10.779 -0.3594  1.0428  0.4166
25298SOL    HW280351   7.416   3.298  10.641  0.7559 -0.9492  1.4014
25299SOL     OW80352   4.619   9.716   2.069  0.5337 -0.0141 -0.1043
25299SOL    HW180353   4.703   9.670   2.075  0.6178 -0.0259 -1.1242
25299SOL    HW280354   4.603   9.723   1.975  0.4740  1.9503  0.0109
25300SOL     OW80355   0.995   0.371   0.104  0.2854  0.3936  0.2231
25300SOL    HW180356   1.043   0.344   0.181  0.2963  1.3990  0.5865
25300SOL    HW280357   1.020   0.463   0.091  2.1496 -0.3651 -2.3853
25301SOL     OW80358   7.903  10.683   7.784 -0.3244  0.1402 -0.1988
25301SOL    HW180359   7.843  10.631   7.839 -0.1347  1.1190  0.9866
25301SOL    HW280360   7.874  10.667   7.695 -2.1789  0.3520  0.3249
25302SOL     OW80361   3.255   2.221   0.998 -0.2724 -0.2507 -0.5333
25302SOL    HW180362   3.284   2.132   1.013 -0.5053 -0.4042 -0.9594
25302SOL    HW280363   3.185   2.213   0.933 -1.4205  0.0803  0.6193
25303SOL     OW80364   9.201   2.125   2.011 -0.6904  0.6707  0.6829
25303SOL    HW180365   9.136   2.061   1.982  1.0596 -1.2565  0.7345
25303SOL    HW280366   9.231   2.093   2.096  1.0487  0.8846  0.1954
25304SOL     OW80367   0.092   1.871   3.375 -0.1391  0.2450 -0.4899
25304SOL    HW180368   0.002   1.893   3.399 -0.9447 -3.1006 -0.0504
25304SOL    HW280369   0.134   1.848   3.458 -0.3374 -2.7602 -1.1181
25305SOL     OW80370   6.542   6.220   3.007 -0.2956  0.9649 -0.3645
25305SOL    HW180371   6.564   6.140   3.055  0.0381  0.5994 -1.1147
25305SOL    HW280372   6.576   6.290   3.062 -0.9335  0.6245  0.4881
25306SOL     OW80373   9.336   5.279   8.340  0.9782 -0.5133  1.1084
25306SOL    HW180374   9.298   5.367   8.334  1.2101 -0.3701  1.7256
25306SOL    HW280375   9.320   5.241   8.253 -0.3618 -0.3785  1.2726
25307SOL     OW80376   3.557   9.157   1.478  0.2125  0.1925  0.1381
25307SOL    HW180377   3.530   9.181   1.567  1.4989  3.3698 -0.1925
25307SOL    HW280378   3.649   9.135   1.487  0.4416  0.8981 -0.4426
25308SOL     OW80379   8.997   3.014   8.679  0.3854  0.5233  0.0355
25308SOL    HW180380   9.007   3.064   8.598 -1.1637 -1.8746 -1.7696
25308SOL    HW280381   9.006   2.923   8.653  1.8144 -0.2962  2.9626
25309SOL     OW80382   3.244   4.214  10.705  0.0669 -0.2049  0.3028
25309SOL    HW180383   3.316   4.155  10.727 -0.4363 -0.0622  2.5315
25309SOL    HW280384   3.251   4.285  10.768 -1.0808  0.6494 -0.4882
25310SOL     OW80385   0.570   5.083  10.883 -0.0754 -0.5506  0.1483
25310SOL    HW180386   0.585   5.090  10.978 -0.7590 -0.3565  0.2524
25310SOL    HW280387   0.474   5.088  10.874 -0.1213 -2.1620 -0.4299
25311SOL     OW80388   6.302   5.091  10.250 -0.5935  0.1956  0.2689
25311SOL    HW180389   6.275   5.177  10.281 -0.2500  1.2722 -2.2008
25311SOL    HW280390   6.364   5.108  10.179 -0.0993 -2.0842  0.0608
25312SOL     OW80391   1.395   8.873   6.365  0.5572  0.0284  0.0170
25312SOL    HW180392   1.426   8.916   6.286 -1.4303 -0.1051 -0.8990
25312SOL    HW280393   1.308   8.842   6.343 -0.0350 -0.0907  2.2392
25313SOL     OW80394   6.839   8.458   6.580  0.3876  0.1671  0.4431
25313SOL    HW180395   6.761   8.484   6.531  0.6666  0.3928  0.1201
25313SOL    HW280396   6.804   8.406   6.653  0.0195 -0.7766 -0.3755
25314SOL     OW80397   5.925   9.910   1.568  0.6683 -0.2662  0.0626
25314SOL    HW180398   5.885   9.994   1.592 -1.3223 -1.3546  0.7878
25314SOL    HW280399   5.926   9.859   1.649  2.6957 -0.6770 -0.1539
25315SOL     OW80400   3.892   8.819   6.656 -0.2308  0.3529 -0.0997
25315SOL    HW180401   3.921   8.871   6.582  2.0615  1.1966  1.2790
25315SOL    HW280402   3.963   8.756   6.670 -1.2253 -0.6576  0.6020
25316SOL     OW80403   5.264   3.286  10.610  0.0520 -0.0403  0.3132
25316SOL    HW180404   5.221   3.280  10.695 -0.0957  1.3059  0.3498
25316SOL    HW280405   5.253   3.378  10.583  0.6191 -0.2959 -0.8793
25317SOL     OW80406   5.991   4.884   2.211 -0.4948 -0.1540 -0.5446
25317SOL    HW180407   5.921   4.822   2.234  0.6627 -0.7630  1.6455
25317SOL    HW280408   5.991   4.948   2.282  1.8587 -0.8320  0.1575
25318SOL     OW80409   6.913   6.352  10.854  0.3668  0.4283  0.3006
25318SOL    HW180410   6.881   6.356  10.764 -1.5297  0.5897  0.9501
25318SOL    HW280411   6.887   6.265  10.885 -2.0195  1.5244  1.7006
25319SOL     OW80412   6.934   9.235   9.174 -0.3441 -0.3782  0.3833
25319SOL    HW180413   7.023   9.268   9.163 -0.4348  0.1449  1.1552
25319SOL    HW280414   6.899   9.230   9.085 -0.7040  2.7264  0.2428
25320SOL     OW80415   2.056   6.466  10.441  0.3397 -0.8946  0.5028
25320SOL    HW180416   2.007   6.399  10.394 -1.8924  0.5179  0.6569
25320SOL    HW280417   1.998   6.493  10.512  1.0676  1.3341  0.3164
25321SOL     OW80418   6.647   7.691   2.930  0.0238 -0.2239  0.5023
25321SOL    HW180419   6.596   7.768   2.953 -0.3873 -0.3726  0.1039
25321SOL    HW280420   6.715   7.686   2.997 -0.0200  0.4129  0.5970
25322SOL     OW80421   6.228   1.596  10.799  0.4000  0.9806  0.0202
25322SOL    HW180422   6.227   1.691  10.814  2.0332  0.8720  1.0680
25322SOL    HW280423   6.288   1.585  10.725  0.4845  0.7368  0.1257
25323SOL     OW80424   1.915   4.275   3.702 -0.2694 -0.5098  0.1810
25323SOL    HW180425   1.822   4.263   3.718 -0.2852  0.1137  0.6255
25323SOL    HW280426   1.921   4.314   3.615 -0.4609 -0.0971  0.3500
25324SOL     OW80427   4.891   1.730   4.560  0.2438 -0.6032  0.0419
25324SOL    HW180428   4.885   1.800   4.625 -0.9215 -0.3939 -0.2725
25324SOL    HW280429   4.964   1.675   4.590  0.2085 -0.0866  1.1052
25325SOL     OW80430  10.297   2.516   7.804  0.1380  0.3038  0.0001
25325SOL    HW180431  10.222   2.558   7.761 -0.4520 -1.4333 -0.7541
25325SOL    HW280432  10.258   2.458   7.869  0.7729 -0.8294 -0.5919
25326SOL     OW80433   6.292   8.268  10.588 -0.9236 -0.0102 -0.3915
25326SOL    HW180434   6.249   8.207  10.529 -2.2124  0.4313  0.0495
25326SOL    HW280435   6.252   8.353  10.569 -0.4232  0.3755  0.2070
25327SOL     OW80436   5.668   2.079   5.113  0.4712  0.0849 -0.3355
25327SOL    HW180437   5.575   2.103   5.110 -0.0434 -1.6930  0.0999
25327SOL    HW280438   5.710   2.153   5.156 -0.2195  2.2594 -3.1289
25328SOL     OW80439   5.532   8.336   0.495  0.4644  0.0060  0.0317
25328SOL    HW180440   5.553   8.339   0.588 -0.7422  0.8239  0.3077
25328SOL    HW280441   5.615   8.314   0.452  0.6700 -2.1391  1.3943
25329SOL     OW80442   5.854   4.364   9.689  0.0260  0.0881  0.4579
25329SOL    HW180443   5.780   4.342   9.744 -0.4192  0.8655  0.1904
25329SOL    HW280444   5.840   4.456   9.665  0.6674  0.0224 -0.2247
25330SOL     OW80445   7.896   5.060   1.757 -0.7064  0.0366 -0.4773
25330SOL    HW180446   7.965   4.997   1.780 -0.7166  0.5259  1.0578
25330SOL    HW280447   7.844   5.015   1.690  0.4626 -0.7710 -0.8782
25331SOL     OW80448   2.559   3.193   9.320 -0.5550 -0.8183 -0.1164
25331SOL    HW180449   2.575   3.215   9.229 -1.9727  0.4589 -0.1029
25331SOL    HW280450   2.516   3.271   9.356  2.7684  0.0239  2.5204
25332SOL     OW80451   0.008   4.916  10.038  0.0732  0.4819  0.2875
25332SOL    HW180452   0.021   4.842  10.097  2.4458  0.5841 -0.0149
25332SOL    HW280453   0.093   4.961  10.036 -0.6341  1.8817 -1.3274
25333SOL     OW80454  10.566  10.923   4.119  0.5318  0.3343  0.0946
25333SOL    HW180455  10.603  10.985   4.182  0.7610 -1.0939  1.4245
25333SOL    HW280456  10.634  10.856   4.109  0.2566  0.2234 -1.2483
25334SOL     OW80457   1.444   9.804   2.238  0.0878  0.3193  0.1158
25334SOL    HW180458   1.389   9.881   2.222  0.3802  0.5845  0.3550
25334SOL    HW280459   1.515   9.837   2.294  0.0676 -0.1838  0.4468
25335SOL     OW80460   9.376   7.408   6.573 -0.0565 -0.2260  0.0155
25335SOL    HW180461   9.372   7.328   6.624  1.6296  0.5696  1.5221
25335SOL    HW280462   9.285   7.427   6.549 -0.6556 -1.6836  1.0422
25336SOL     OW80463   7.393   5.271   2.804  0.0913  0.0882 -0.2502
25336SOL    HW180464   7.418   5.196   2.750 -1.9443 -0.3677 -0.6518
25336SOL    HW280465   7.473   5.297   2.848  0.6148 -3.2999  1.1268
25337SOL     OW80466   0.667   4.298   8.545 -0.2329  0.1071  0.2037
25337SOL    HW180467   0.685   4.204   8.537 -0.2126  0.2408 -2.0344
25337SOL    HW280468   0.578   4.302   8.581 -0.4551 -0.7901 -0.1987
25338SOL     OW80469   4.295   4.736  10.885  0.2843 -0.5924 -0.7721
25338SOL    HW180470   4.228   4.720  10.818 -1.2576 -0.3946  0.6432
25338SOL    HW280471   4.297   4.655  10.936  0.4878 -0.2715 -0.2683
25339SOL     OW80472   2.976   7.968   5.853  0.4315 -0.2557  0.9661
25339SOL    HW180473   3.066   7.999   5.864 -0.3943  2.9028 -0.1784
25339SOL    HW280474   2.934   8.036   5.800 -2.2595 -2.3720  0.2055
25340SOL     OW80475   1.039   9.597   3.885 -0.0215  0.0604 -0.1770
25340SOL    HW180476   1.105   9.575   3.951  0.2765 -1.9854 -1.0897
25340SOL    HW280477   1.088   9.642   3.816 -0.1325  1.1571  0.4347
25341SOL     OW80478   2.428   7.513   9.673  0.2141  0.3056 -0.1652
25341SOL    HW180479   2.467   7.434   9.635 -2.2937 -1.7307  1.2037
25341SOL    HW280480   2.407   7.568   9.598 -0.0448 -1.3387 -1.3507
25342SOL     OW80481   9.286   9.447   5.679 -0.0771 -0.0921  0.7424
25342SOL    HW180482   9.316   9.440   5.588  0.6257 -0.3911  0.9810
25342SOL    HW280483   9.305   9.361   5.716 -1.6240 -0.4296  0.8196
25343SOL     OW80484   4.570  10.786   4.578 -0.4107 -0.4719  0.2299
25343SOL    HW180485   4.561  10.866   4.631  0.3586 -0.8950  1.0100
25343SOL    HW280486   4.640  10.806   4.516 -1.7255  0.2496 -1.0912
25344SOL     OW80487   9.672  10.503   4.010 -0.2267 -0.5843  0.2253
25344SOL    HW180488   9.662  10.592   3.976 -1.1870  1.1933  4.4706
25344SOL    HW280489   9.765  10.494   4.029 -0.1216 -0.5074 -0.2523
25345SOL     OW80490   6.486   4.745   3.044 -0.4502 -0.0803 -0.6435
25345SOL    HW180491   6.541   4.821   3.025  0.4161 -0.3560  0.6435
25345SOL    HW280492   6.418   4.778   3.102 -1.4240  0.1575 -1.8614
25346SOL     OW80493   0.470   2.094  10.413  0.1227 -1.0567 -0.6173
25346SOL    HW180494   0.516   2.178  10.411  0.3432 -1.1637 -0.2200
25346SOL    HW280495   0.388   2.113  10.459 -0.0055 -0.9743 -0.8794
25347SOL     OW80496   2.235   8.690   2.688 -0.6285 -0.0053  0.2203
25347SOL    HW180497   2.289   8.764   2.660 -0.9166  0.1754  0.1370
25347SOL    HW280498   2.146   8.725   2.689 -0.5684  0.2072  2.0495
25348SOL     OW80499   4.268   0.545   2.614  0.0910 -0.4383 -0.4170
25348SOL    HW180500   4.318   0.619   2.649  1.2141 -1.5197  0.3507
25348SOL    HW280501   4.253   0.488   2.690 -1.0760 -0.8359 -0.9173
25349SOL     OW80502   8.166   6.556   7.357  0.4733  0.2193  0.1912
25349SOL    HW180503   8.185   6.493   7.427  0.6121 -0.8857 -0.8008
25349SOL    HW280504   8.212   6.636   7.383  0.5059 -0.1579  1.3620
25350SOL     OW80505   4.018   4.330   2.979 -0.0472  0.4212  0.4328
25350SOL    HW180506   4.030   4.416   3.020 -1.6443  0.6134  0.5594
25350SOL    HW280507   4.000   4.272   3.053  0.6177  0.0434  0.3059
25351SOL     OW80508   0.217   7.300   9.866  0.2648  0.2994 -0.2559
25351SOL    HW180509   0.264   7.248   9.800  0.0851 -1.3871  0.8891
25351SOL    HW280510   0.131   7.316   9.828  0.7851  1.0117 -1.1999
25352SOL     OW80511   1.231   1.779   6.304 -0.2023 -0.1440  0.2898
25352SOL    HW180512   1.169   1.706   6.296 -0.5152  0.1459 -0.0099
25352SOL    HW280513   1.175   1.857   6.306  0.0659  0.0397  1.6376
25353SOL     OW80514   1.348  11.026   7.295 -0.1922  0.4738  0.1065
25353SOL    HW180515   1.289  10.971   7.346  0.0706 -0.9730 -1.0891
25353SOL    HW280516   1.301  11.044   7.214  1.7594 -2.6992 -1.9394
25354SOL     OW80517   9.568   1.713  10.780  0.2860  0.1200  0.4902
25354SOL    HW180518   9.577   1.808  10.789 -0.3939  0.5737 -2.7077
25354SOL    HW280519   9.658   1.680  10.788  0.8547  1.3026 -0.6235
25355SOL     OW80520   2.632   2.586   9.803 -0.0382  0.8195 -0.2969
25355SOL    HW180521   2.652   2.679   9.792 -1.0239  0.9478 -1.1441
25355SOL    HW280522   2.575   2.583   9.881  0.9015  0.7826  0.4012
25356SOL     OW80523  11.041   0.427   9.967 -0.1998 -0.3873 -0.0955
25356SOL    HW180524  11.090   0.366   9.912 -1.0577 -0.8231 -0.3930
25356SOL    HW280525  10.955   0.433   9.925 -0.0662  1.2127 -0.2098
25357SOL     OW80526   0.385   2.752   9.084  0.3556  0.3542 -0.2539
25357SOL    HW180527   0.365   2.795   9.166 -3.4299 -0.2662 -0.6758
25357SOL    HW280528   0.402   2.823   9.022  3.9228  0.8178  1.0188
25358SOL     OW80529   6.912   6.298   7.429 -0.2564  0.1004 -0.6241
25358SOL    HW180530   6.920   6.227   7.493 -0.2004 -0.0293 -0.7758
25358SOL    HW280531   6.877   6.255   7.351  0.4107  0.1205 -0.9333
25359SOL     OW80532   9.239   0.120   9.135 -0.3845  0.7106 -0.1542
25359SOL    HW180533   9.221   0.212   9.114  0.2414  0.6671 -0.9314
25359SOL    HW280534   9.255   0.120   9.229  0.1733  1.5023 -0.2377
25360SOL     OW80535   3.760   2.300   1.470 -0.6483 -0.1407  0.2683
25360SOL    HW180536   3.781   2.209   1.446 -1.3098 -0.2847  0.2118
25360SOL    HW280537   3.671   2.295   1.506 -0.4338  0.3870  0.8799
25361SOL     OW80538   7.468   5.988   3.262  0.3464 -0.7151 -0.1648
25361SOL    HW180539   7.513   5.907   3.239  1.0076 -1.0526  2.0869
25361SOL    HW280540   7.515   6.021   3.339 -0.0649  1.6939 -0.8524
25362SOL     OW80541   6.657   3.242   4.586  0.0497  1.0971 -0.1554
25362SOL    HW180542   6.734   3.293   4.611  1.3616 -0.2768 -1.1769
25362SOL    HW280543   6.681   3.202   4.502 -1.5867  0.2205 -0.2546
25363SOL     OW80544   1.292   2.241  10.513  0.2618 -0.3665 -0.1049
25363SOL    HW180545   1.200   2.219  10.531 -0.2540  0.9661 -0.9639
25363SOL    HW280546   1.320   2.289  10.591 -0.9831  2.5599 -1.3142
25364SOL     OW80547   6.289   8.249   4.965 -0.1362  0.1681  0.3555
25364SOL    HW180548   6.222   8.196   5.007 -0.2235 -0.6649 -0.7795
25364SOL    HW280549   6.365   8.243   5.023 -0.0716 -1.4163  0.1431
25365SOL     OW80550   9.405   6.293   0.647  0.6172  0.1075 -0.2093
25365SOL    HW180551   9.347   6.321   0.718  0.7300  2.3913 -0.9290
25365SOL    HW280552   9.345   6.269   0.576  0.5298 -0.7000  0.1286
25366SOL     OW80553   5.478   4.573   3.029 -0.0050  0.0383 -0.2089
25366SOL    HW180554   5.469   4.595   2.937 -0.2347 -1.9554 -0.7214
25366SOL    HW280555   5.403   4.615   3.072  1.4750  3.1347 -0.4210
25367SOL     OW80556  10.828  10.555   3.645  0.2110  0.1473  0.1898
25367SOL    HW180557  10.894  10.592   3.586  0.8164  0.0646  0.7991
25367SOL    HW280558  10.878  10.523   3.719 -0.3965 -1.0079  0.1271
25368SOL     OW80559   0.972   8.645   5.716 -0.2230 -0.0055  0.2322
25368SOL    HW180560   0.906   8.584   5.682  0.3408  0.7365 -2.4446
25368SOL    HW280561   0.945   8.731   5.684  2.1240  0.2803 -1.2669
25369SOL     OW80562   8.291   5.500   5.404 -0.6759  0.2116  0.8099
25369SOL    HW180563   8.321   5.511   5.494 -2.1948  1.7586  1.1773
25369SOL    HW280564   8.198   5.482   5.411 -0.9426  0.9479 -0.4708
25370SOL     OW80565   0.427   3.341   9.157 -0.1388 -0.3477  0.1444
25370SOL    HW180566   0.409   3.307   9.069 -0.5198 -0.1406  0.1402
25370SOL    HW280567   0.522   3.350   9.160 -0.0809 -0.8520 -0.0641
25371SOL     OW80568   3.451   4.853   4.633 -0.1540  0.1743  0.5181
25371SOL    HW180569   3.501   4.795   4.690 -1.5231 -1.7508 -0.1382
25371SOL    HW280570   3.451   4.810   4.548  1.5257  2.8050 -0.9474
25372SOL     OW80571   3.786   2.304   2.426  0.3493 -0.1206 -0.0236
25372SOL    HW180572   3.836   2.343   2.498  2.9118 -2.6498 -0.2366
25372SOL    HW280573   3.826   2.341   2.347 -0.8902  0.8736 -0.2107
25373SOL     OW80574  10.034   1.277   4.663 -0.0401 -0.5999  0.0253
25373SOL    HW180575  10.013   1.198   4.612 -0.9143 -0.0954 -0.4098
25373SOL    HW280576  10.088   1.330   4.603  0.6143 -0.8850  0.3452
25374SOL     OW80577   5.870   6.080   5.292  0.4888 -0.1861  0.0977
25374SOL    HW180578   5.838   6.156   5.244 -3.7307 -2.6860 -1.5455
25374SOL    HW280579   5.840   6.093   5.382  1.9047  1.0472  0.4449
25375SOL     OW80580   3.774   2.305   9.605 -0.1499 -0.2989  0.1936
25375SOL    HW180581   3.724   2.256   9.539 -0.7304 -0.2214  0.5678
25375SOL    HW280582   3.754   2.397   9.586  1.6808 -0.1090 -1.1090
25376SOL     OW80583   3.714   2.945   6.862 -0.1813 -0.2059 -0.3803
25376SOL    HW180584   3.695   2.885   6.934  0.2311  0.9206  0.6973
25376SOL    HW280585   3.775   2.897   6.806 -1.5560 -1.6149 -0.7412
25377SOL     OW80586   5.949   6.427   9.658 -0.1668 -0.1257  0.7554
25377SOL    HW180587   6.020   6.367   9.636 -1.3514 -0.7722 -1.5937
25377SOL    HW280588   5.972   6.508   9.612 -0.5084 -0.0481  0.7200
25378SOL     OW80589   8.504   6.878   7.790  0.1895  0.5045 -0.1931
25378SOL    HW180590   8.449   6.924   7.854 -0.1209  1.4805 -1.1245
25378SOL    HW280591   8.570   6.943   7.765  0.7378 -0.1056 -0.3387
25379SOL     OW80592   1.307   5.873   5.177  0.7285 -0.2431  0.4728
25379SOL    HW180593   1.366   5.916   5.239  0.4636  0.5928  0.1553
25379SOL    HW280594   1.220   5.881   5.216  0.3727  1.4418 -0.5950
25380SOL     OW80595   0.671   7.021   3.980  0.2904  0.3672  0.4109
25380SOL    HW180596   0.764   6.998   3.977  0.9919  3.0362 -1.6961
25380SOL    HW280597   0.669   7.105   4.027 -1.1500  0.1208  0.8363
25381SOL     OW80598   4.170  10.593   9.972 -0.0986 -0.4360  0.5135
25381SOL    HW180599   4.163  10.544   9.890 -2.1280 -2.5435  1.8295
25381SOL    HW280600   4.255  10.568  10.007 -0.1086 -1.1902  0.0345
25382SOL     OW80601   7.009  10.258   8.911 -0.4306 -0.3691 -0.5653
25382SOL    HW180602   7.062  10.310   8.851 -0.5893  1.0369  0.4623
25382SOL    HW280603   6.919  10.276   8.885 -0.5350  0.9114  0.5672
25383SOL     OW80604   3.639  10.420   1.276  0.0809 -0.1242  1.0270
25383SOL    HW180605   3.667  10.509   1.254  0.5308 -0.8369 -1.5853
25383SOL    HW280606   3.676  10.404   1.363  1.4696  1.6164  0.8094
25384SOL     OW80607   3.430   6.821   5.989  0.4297  0.4901  0.2406
25384SOL    HW180608   3.399   6.731   5.983  0.4652  0.0691  3.9730
25384SOL    HW280609   3.508   6.824   5.933 -1.8359 -0.5213 -3.2511
25385SOL     OW80610   3.385   6.146  10.737  0.8815  0.3481 -0.2478
25385SOL    HW180611   3.453   6.134  10.671 -0.5694  0.3046 -1.7981
25385SOL    HW280612   3.317   6.196  10.692  0.5346  1.7474  1.7233
25386SOL     OW80613   9.696   3.643   0.386  0.2610 -0.1342  0.1802
25386SOL    HW180614   9.640   3.569   0.363 -0.2166  0.1909  0.2639
25386SOL    HW280615   9.640   3.720   0.373  0.9382  0.2586 -0.5095
25387SOL     OW80616   0.099   8.104   3.031 -0.2702  0.2973  0.3518
25387SOL    HW180617   0.162   8.140   2.969 -0.7629 -0.5788 -0.6888
25387SOL    HW280618   0.014   8.116   2.989 -0.6298 -0.2203  0.9032
25388SOL     OW80619  10.849   7.232  10.358  0.3297  0.0942  0.5391
25388SOL    HW180620  10.809   7.161  10.310  0.2491  0.8448 -0.5342
25388SOL    HW280621  10.934   7.246  10.315  0.0785  1.0526  0.3271
25389SOL     OW80622  10.001   4.172   8.016 -0.6041 -1.0896 -0.2174
25389SOL    HW180623  10.058   4.101   8.046 -0.4991 -1.5963 -1.5794
25389SOL    HW280624  10.042   4.204   7.936 -0.5868  0.6088  0.4249
25390SOL     OW80625   2.729   7.625   3.923 -0.1445 -0.9376 -0.4000
25390SOL    HW180626   2.700   7.606   4.012  1.3207  2.4762  0.9817
25390SOL    HW280627   2.817   7.588   3.918 -0.1617 -0.9785 -0.4066
25391SOL     OW80628   6.258   8.092   3.982 -0.2545 -0.5827  0.0945
25391SOL    HW180629   6.235   8.065   4.071 -0.5661  1.5301  0.7115
25391SOL    HW280630   6.340   8.047   3.963  0.6811  0.1638  2.1147
25392SOL     OW80631   2.169   5.032   5.415  0.0264  0.1473 -0.4407
25392SOL    HW180632   2.259   5.002   5.406 -0.0346 -0.1569 -0.0806
25392SOL    HW280633   2.172   5.096   5.486 -0.2832 -0.9691  0.6151
25393SOL     OW80634   4.520   8.755   9.536  0.6676  0.0646  0.1402
25393SOL    HW180635   4.511   8.684   9.472  0.0668  1.5520 -1.4968
25393SOL    HW280636   4.484   8.832   9.492  0.2696  1.1766  2.2715
25394SOL     OW80637   5.337   1.938   0.388  0.2591  0.2029  0.2385
25394SOL    HW180638   5.378   1.965   0.305  1.2026  0.7628  0.8711
25394SOL    HW280639   5.408   1.901   0.439 -0.2005  0.3684  1.0183
25395SOL     OW80640   5.286   0.526   6.690 -0.0063  0.3328  0.0543
25395SOL    HW180641   5.215   0.505   6.751 -1.0034  0.1314 -1.1334
25395SOL    HW280642   5.362   0.539   6.746 -1.5225  3.2805  1.6572
25396SOL     OW80643   7.342   9.605   3.286  0.2768  0.0191 -0.1768
25396SOL    HW180644   7.404   9.657   3.235  1.8200  0.6323  2.1818
25396SOL    HW280645   7.364   9.514   3.265  1.0032  0.2625 -0.5055
25397SOL     OW80646   3.892   0.199  10.210 -0.8337 -0.2610 -0.2572
25397SOL    HW180647   3.911   0.291  10.231 -2.6725  0.3597 -1.0313
25397SOL    HW280648   3.903   0.152  10.292  0.3040  0.6168  0.1139
25398SOL     OW80649   7.603   5.635   6.141  0.0698 -0.4268 -0.3896
25398SOL    HW180650   7.527   5.633   6.199 -1.6848  0.1416 -2.5364
25398SOL    HW280651   7.610   5.727   6.115  1.1328 -0.5823 -0.6954
25399SOL     OW80652   2.267   3.994   8.072  0.0660 -0.5186 -0.3513
25399SOL    HW180653   2.275   4.084   8.041  2.9551 -0.7947 -0.6445
25399SOL    HW280654   2.353   3.972   8.106 -0.6492 -3.0900  0.0284
25400SOL     OW80655   7.680   3.005   4.193 -0.5450  0.0889  0.0817
25400SOL    HW180656   7.589   2.980   4.205 -0.5225 -0.4875 -0.8973
25400SOL    HW280657   7.701   2.980   4.103 -0.1885  2.6032 -0.6210
25401SOL     OW80658   0.075   9.421  10.483 -0.5460  0.2212  0.1045
25401SOL    HW180659   0.141   9.464  10.536  0.0381 -0.0761 -0.3720
25401SOL    HW280660   0.077   9.468  10.399  0.2276 -0.8227 -0.4871
25402SOL     OW80661   4.559   3.797   7.303  0.2987  0.3173  0.7006
25402SOL    HW180662   4.528   3.882   7.334  2.3872  0.8753  1.4756
25402SOL    HW280663   4.555   3.740   7.380  1.6774  0.5734  0.9911
25403SOL     OW80664   6.289   6.796   9.995 -0.3095 -1.0632 -0.0460
25403SOL    HW180665   6.275   6.877  10.044  0.1591 -1.1575  0.2459
25403SOL    HW280666   6.310   6.731  10.062  0.7427 -1.0986 -0.4003
25404SOL     OW80667   8.873   0.597   9.390 -0.7474 -0.1976  0.2346
25404SOL    HW180668   8.881   0.540   9.313  0.3516 -0.2060  0.3270
25404SOL    HW280669   8.817   0.669   9.362  0.4793  0.3401 -0.9200
25405SOL     OW80670   4.812   4.892   4.925  0.6308 -0.5228 -0.2944
25405SOL    HW180671   4.776   4.804   4.917 -0.7692 -0.0387  0.4755
25405SOL    HW280672   4.870   4.900   4.849  1.5821 -2.4481  0.1632
25406SOL     OW80673   4.566   0.699   3.777  0.4582 -0.4697  0.3096
25406SOL    HW180674   4.567   0.608   3.808  1.9871 -1.5739 -2.5107
25406SOL    HW280675   4.474   0.716   3.757  0.3792 -2.3912 -1.3962
25407SOL     OW80676   8.598   6.323   8.797  0.6263 -0.6608 -0.2096
25407SOL    HW180677   8.569   6.406   8.836  1.3683 -0.9552  0.9812
25407SOL    HW280678   8.641   6.350   8.716  0.6608  0.1038  0.0488
25408SOL     OW80679   7.358  10.405   5.432  0.2440  0.0808  0.3679
25408SOL    HW180680   7.445  10.440   5.450  1.4766 -0.6410 -3.3023
25408SOL    HW280681   7.369  10.310   5.437 -0.7394  0.0090  1.3585
25409SOL     OW80682   8.134   7.961   2.759  0.2535  0.5339  0.0127
25409SOL    HW180683   8.210   7.990   2.811  0.6211 -0.5047  0.0966
25409SOL    HW280684   8.075   7.922   2.823  1.6332 -2.6919 -0.4593
25410SOL     OW80685   7.173   3.801   6.722 -0.2015 -0.5195  0.9066
25410SOL    HW180686   7.079   3.815   6.714 -0.1584  0.1603  1.4578
25410SOL    HW280687   7.212   3.863   6.660 -0.1317 -1.1348  0.3357
25411SOL     OW80688  11.062   8.407   2.469  0.3830 -0.1850  0.0396
25411SOL    HW180689  11.019   8.415   2.554  0.4874 -1.6448  0.2440
25411SOL    HW280690  11.133   8.345   2.483 -0.7634 -1.9561 -1.5087
25412SOL     OW80691  10.172   8.142   7.798  0.3136  0.0813 -0.1966
25412SOL    HW180692  10.191   8.201   7.725 -0.0375 -0.1995 -0.5182
25412SOL    HW280693  10.156   8.200   7.872  1.1353  0.3555 -0.2312
25413SOL     OW80694   9.183   7.832   3.526 -0.4316  0.5916 -0.8152
25413SOL    HW180695   9.100   7.809   3.483  0.3356 -1.9638 -1.0613
25413SOL    HW280696   9.174   7.797   3.615 -0.2364  1.8315 -0.2844
25414SOL     OW80697  10.905   2.248   7.762  0.3712  0.0393  0.5652
25414SOL    HW180698  10.852   2.289   7.831 -0.2369  2.3900 -1.1703
25414SOL    HW280699  10.995   2.269   7.787  0.2306 -0.1152  1.2290
25415SOL     OW80700   3.652   5.319   4.450  0.3272 -0.1914  0.1568
25415SOL    HW180701   3.639   5.226   4.468 -0.2543 -0.1349  0.0344
25415SOL    HW280702   3.568   5.349   4.415  0.9919  0.0163 -1.3193
25416SOL     OW80703   5.978   9.835   8.509  0.0826  0.1902  0.2803
25416SOL    HW180704   6.039   9.905   8.486 -0.9382  0.8175 -0.6197
25416SOL    HW280705   6.032   9.756   8.513  1.2019  0.9558  1.0030
25417SOL     OW80706   1.691   7.078   0.898  0.7484  0.4244  0.6247
25417SOL    HW180707   1.741   7.066   0.979  0.6850 -1.5582  0.4348
25417SOL    HW280708   1.707   6.998   0.849 -1.6862  0.2085  0.0499
25418SOL     OW80709   2.473   5.949   6.087 -0.2347 -0.1905 -0.5597
25418SOL    HW180710   2.411   5.878   6.069 -0.3248 -0.2277 -0.1061
25418SOL    HW280711   2.491   5.987   6.001  2.2763 -2.7712 -1.3401
25419SOL     OW80712   6.982   0.094   7.345 -0.4489 -0.0360 -0.6234
25419SOL    HW180713   6.956   0.164   7.405 -0.9120  0.9003 -1.8539
25419SOL    HW280714   6.915   0.026   7.356 -0.5316  0.1334 -0.0900
25420SOL     OW80715   7.531   7.879   7.952  0.3198 -0.0477 -0.2325
25420SOL    HW180716   7.602   7.942   7.938  0.8244 -0.7443 -0.9457
25420SOL    HW280717   7.573   7.806   7.997  0.0847 -0.4966 -0.7266
25421SOL     OW80718   0.041   5.564   9.477 -0.1683  0.0768 -0.0110
25421SOL    HW180719  -0.045   5.603   9.491 -1.0162 -1.3389 -1.0269
25421SOL    HW280720   0.023   5.471   9.463  1.3920 -0.0282 -1.6442
25422SOL     OW80721  10.410   4.873   8.078  0.0996  0.2402  0.0195
25422SOL    HW180722  10.460   4.812   8.134  1.8697  0.7555 -0.9086
25422SOL    HW280723  10.478   4.920   8.030 -1.1974  3.1852  0.9013
25423SOL     OW80724   1.638   4.679   0.562  0.0236  0.2941 -0.3487
25423SOL    HW180725   1.576   4.609   0.577 -0.2393 -0.2251 -3.2928
25423SOL    HW280726   1.595   4.757   0.598 -1.5528 -0.3481 -0.7635
25424SOL     OW80727  10.144   1.548   2.069 -0.2534  0.5461  0.2394
25424SOL    HW180728  10.126   1.476   2.129 -0.6694 -0.1706 -0.7235
25424SOL    HW280729  10.138   1.509   1.982 -2.6374  2.1527 -0.4330
25425SOL     OW80730   7.808   5.720   3.667 -0.2061 -0.0037 -0.6990
25425SOL    HW180731   7.836   5.781   3.736  2.0181 -0.7525 -0.8435
25425SOL    HW280732   7.753   5.656   3.712  0.2467  0.1907  0.1584
25426SOL     OW80733   7.961   6.911   3.984 -0.3122  0.1028  0.2433
25426SOL    HW180734   7.917   6.831   3.955 -0.2163  0.0466  0.2525
25426SOL    HW280735   7.984   6.957   3.903  0.2748 -0.2260  0.2184
25427SOL     OW80736   0.163   2.489   3.069  0.1607  0.2046  0.1322
25427SOL    HW180737   0.075   2.461   3.042  0.1264 -0.3967  0.8491
25427SOL    HW280738   0.207   2.408   3.096  0.5858  0.6382  0.7735
25428SOL     OW80739   7.573   7.928   2.557  0.4260 -0.3754  0.0570
25428SOL    HW180740   7.496   7.915   2.501  0.1409 -0.6341  0.5057
25428SOL    HW280741   7.538   7.971   2.635  0.9385  0.6728 -0.2690
25429SOL     OW80742   6.858   3.671   7.326 -0.2316 -0.2704 -0.0839
25429SOL    HW180743   6.888   3.581   7.320 -3.3059 -1.3406 -1.5057
25429SOL    HW280744   6.934   3.724   7.304  1.6049 -2.4940  0.6168
25430SOL     OW80745   9.000   9.245   2.922 -0.2241  0.5954  0.4447
25430SOL    HW180746   8.905   9.247   2.930 -0.3398  0.0476 -0.6677
25430SOL    HW280747   9.030   9.205   3.004 -0.9461  0.7514  0.7921
25431SOL     OW80748   1.884  10.768   5.405 -0.7901  0.0677  0.3296
25431SOL    HW180749   1.827  10.702   5.366 -1.2725 -0.4094  1.7900
25431SOL    HW280750   1.886  10.747   5.498 -0.5591  1.8283  0.7606
25432SOL     OW80751   8.425   6.625   1.181 -0.6718  0.0305  0.0283
25432SOL    HW180752   8.363   6.553   1.166 -1.4663  0.4524  1.1317
25432SOL    HW280753   8.457   6.610   1.270  0.6345 -0.0300 -0.4386
25433SOL     OW80754   7.407   0.659   9.897  0.4586  0.3538  0.1895
25433SOL    HW180755   7.424   0.596   9.827 -0.1494 -0.1434  0.4777
25433SOL    HW280756   7.318   0.690   9.881  1.0040  1.6968 -0.3677
25434SOL     OW80757   6.213  10.859   2.650  0.1223  0.2049 -0.1765
25434SOL    HW180758   6.203  10.853   2.555  0.2334 -1.1170 -0.1225
25434SOL    HW280759   6.297  10.905   2.662  0.0553  0.4801 -0.7119
25435SOL     OW80760   9.451   9.395   2.793 -0.0022 -0.0505 -0.3791
25435SOL    HW180761   9.490   9.356   2.871  2.2460 -0.2473 -1.4928
25435SOL    HW280762   9.376   9.339   2.772  0.2693 -0.8796  0.7810
25436SOL     OW80763   1.317   6.589   2.559  0.3684 -0.4120 -0.5353
25436SOL    HW180764   1.321   6.607   2.653  1.5958  0.3562 -0.7115
25436SOL    HW280765   1.408   6.587   2.531  0.0268 -0.9381 -1.6625
25437SOL     OW80766   1.295  10.151   6.032 -0.2094 -0.0757 -0.2981
25437SOL    HW180767   1.260  10.069   5.996  0.7883  0.1768 -1.9637
25437SOL    HW280768   1.275  10.147   6.125  2.3491 -3.6431  0.3411
25438SOL     OW80769   6.048   2.970   6.775  0.2835 -0.2480 -0.2247
25438SOL    HW180770   5.960   2.949   6.744  1.1098 -0.4652 -2.6459
25438SOL    HW280771   6.072   3.050   6.727  1.6601 -0.6019 -0.1716
25439SOL     OW80772   7.608  10.498   8.728  0.2871 -0.5284 -0.1425
25439SOL    HW180773   7.578  10.440   8.658  1.0530 -1.1078 -0.0036
25439SOL    HW280774   7.700  10.475   8.740  0.2284 -0.2576  0.8795
25440SOL     OW80775   5.953   9.477   3.644 -0.0875  0.3460  0.2800
25440SOL    HW180776   5.943   9.569   3.668 -1.4226  0.4631 -0.6555
25440SOL    HW280777   5.928   9.473   3.552  2.6998 -0.4787 -0.5583
25441SOL     OW80778   8.886   3.936   5.255  0.1464  0.3204 -0.2685
25441SOL    HW180779   8.920   4.016   5.295  1.3097  0.4621 -1.4582
25441SOL    HW280780   8.963   3.896   5.214 -0.7128 -0.5793 -1.0463
25442SOL     OW80781   1.779   9.838   8.746 -0.2896  0.1972  0.2824
25442SOL    HW180782   1.707   9.797   8.793  0.2737 -1.7685 -0.4486
25442SOL    HW280783   1.798   9.777   8.674  2.7251  0.1203  1.0150
25443SOL     OW80784   1.751   6.395   2.750 -0.3793 -0.8060  0.1620
25443SOL    HW180785   1.720   6.486   2.756 -0.1314 -0.7493  0.5940
25443SOL    HW280786   1.718   6.354   2.830  0.5395 -0.7838  0.5587
25444SOL     OW80787   1.300   4.191   4.350 -0.5035  0.0891  0.0300
25444SOL    HW180788   1.325   4.266   4.296  1.4281  0.8400  1.8153
25444SOL    HW280789   1.329   4.115   4.300  1.0570  0.7518 -0.1420
25445SOL     OW80790   5.809  10.765   2.493  0.1200 -0.3245 -0.0300
25445SOL    HW180791   5.799  10.670   2.486 -4.1033  0.0213 -1.3779
25445SOL    HW280792   5.870  10.788   2.424 -1.5915 -1.8402 -2.1936
25446SOL     OW80793   3.050   4.783   7.669  0.0262  0.0555 -0.6417
25446SOL    HW180794   3.043   4.803   7.763  1.1331 -0.0324 -0.5212
25446SOL    HW280795   2.964   4.803   7.633 -0.3083  0.4200  0.3377
25447SOL     OW80796   2.946   5.067   9.973  0.0467 -0.1864 -0.1832
25447SOL    HW180797   2.927   4.975   9.993 -0.2059  0.0048  0.4810
25447SOL    HW280798   2.955   5.069   9.878 -0.2684 -0.8410 -0.2359
25448SOL     OW80799   6.323   6.708   8.123  0.0570 -0.3073  0.6232
25448SOL    HW180800   6.406   6.700   8.076  0.4292  1.1010  0.9880
25448SOL    HW280801   6.259   6.664   8.067  0.6018  0.7702 -0.8898
25449SOL     OW80802   5.927   0.832   6.892 -0.2854  0.0922 -0.0519
25449SOL    HW180803   5.863   0.902   6.910  0.7959  1.2788 -0.6326
25449SOL    HW280804   5.976   0.864   6.816  0.0186 -1.4801 -0.5442
25450SOL     OW80805  10.039   0.036   3.170 -0.0767 -0.0628 -0.0684
25450SOL    HW180806  10.119   0.025   3.118  0.0347  0.6918 -0.0654
25450SOL    HW280807  10.056  -0.013   3.250  0.2918 -0.1061 -0.1678
25451SOL     OW80808  10.077   2.992   8.030 -0.1400 -0.2075  0.3291
25451SOL    HW180809   9.999   2.940   8.010  0.3610  0.0747 -2.7373
25451SOL    HW280810  10.047   3.053   8.098 -2.1713 -1.0870  0.2965
25452SOL     OW80811   5.345   7.915   2.495 -0.1033 -0.3072 -0.5504
25452SOL    HW180812   5.310   7.968   2.423  2.3747  0.5799 -1.1919
25452SOL    HW280813   5.278   7.848   2.509 -1.4017  0.4476 -2.5945
25453SOL     OW80814   5.495   7.874   3.642 -0.0250  0.1652 -0.0843
25453SOL    HW180815   5.515   7.856   3.734 -1.1681  0.2519  0.1923
25453SOL    HW280816   5.547   7.952   3.622  3.1556 -1.9238 -0.6347
25454SOL     OW80817  10.242   4.288   8.521  0.2524  0.2713 -0.1193
25454SOL    HW180818  10.275   4.248   8.441 -0.3672  0.5772 -0.5322
25454SOL    HW280819  10.313   4.346   8.550  0.4198  0.2639 -0.5151
25455SOL     OW80820   8.626   2.279   5.312  0.0015  0.6290 -0.0541
25455SOL    HW180821   8.593   2.288   5.402 -0.6031  1.0793 -0.3107
25455SOL    HW280822   8.662   2.191   5.308  1.0607  0.9867  0.9592
25456SOL     OW80823  10.625  10.861   8.071  0.4488  0.0253 -0.2697
25456SOL    HW180824  10.710  10.865   8.115 -0.8725  2.2459  2.3975
25456SOL    HW280825  10.622  10.942   8.019 -0.0498 -0.0579 -0.3696
25457SOL     OW80826   2.511   3.777   4.019 -0.0259  0.4303 -0.7298
25457SOL    HW180827   2.596   3.742   4.044 -0.5648 -0.9815 -0.7659
25457SOL    HW280828   2.474   3.811   4.101  0.3477  0.5676 -0.6163
25458SOL     OW80829   4.392   2.222   2.186  0.1349 -0.1321  0.0196
25458SOL    HW180830   4.474   2.195   2.143  1.0472 -0.0843  1.6471
25458SOL    HW280831   4.352   2.140   2.215 -1.9273 -0.4488 -3.2205
25459SOL     OW80832   8.448   0.527   8.960 -0.2521  0.1759  0.2901
25459SOL    HW180833   8.461   0.588   8.887  1.2469 -0.5238 -0.0737
25459SOL    HW280834   8.531   0.528   9.008  0.0534 -1.9488 -0.0611
25460SOL     OW80835   0.489   0.755   9.664  0.4480 -0.2332  0.2903
25460SOL    HW180836   0.499   0.707   9.582  0.0379 -0.4801  0.3846
25460SOL    HW280837   0.567   0.811   9.669  0.1250  0.3193 -0.6288
25461SOL     OW80838   8.804   7.210   5.534 -0.5929 -0.4697  0.1040
25461SOL    HW180839   8.740   7.145   5.506 -0.7696  0.7158 -2.5773
25461SOL    HW280840   8.751   7.286   5.559 -0.3145 -0.4698  0.6975
25462SOL     OW80841   6.207   7.061  11.000  0.0316  0.1914 -0.3294
25462SOL    HW180842   6.251   7.044  11.083  0.6307 -0.7999 -0.8288
25462SOL    HW280843   6.219   7.154  10.985 -3.9593  1.5668  2.8740
25463SOL     OW80844   7.948   0.904   9.962  0.1042  0.2660  0.2182
25463SOL    HW180845   7.971   0.964   9.891  1.1578 -0.6427 -0.2426
25463SOL    HW280846   7.879   0.949  10.010  1.4571  2.2521  0.4144
25464SOL     OW80847   2.896   7.964   1.000  0.2853 -0.2622 -0.0972
25464SOL    HW180848   2.888   7.895   1.066 -0.4262 -0.1654 -0.0808
25464SOL    HW280849   2.809   7.972   0.962  0.6471 -0.1979 -0.9363
25465SOL     OW80850   1.508   3.978  11.061 -0.0722 -0.0561 -0.3479
25465SOL    HW180851   1.474   3.988  10.972  2.0801 -1.0234 -1.3785
25465SOL    HW280852   1.474   3.894  11.091 -1.5922  0.7166  0.1696
25466SOL     OW80853   1.993   7.209   3.273  0.3179 -0.1372  0.3021
25466SOL    HW180854   2.003   7.266   3.350  1.5709  0.4135 -0.2392
25466SOL    HW280855   2.044   7.253   3.205  1.0025 -1.7104 -0.2421
25467SOL     OW80856   5.404   0.758   4.162 -0.2804  0.6684  0.0682
25467SOL    HW180857   5.417   0.746   4.068  1.8176  1.2736  0.2441
25467SOL    HW280858   5.364   0.845   4.169  2.8103  2.2271 -0.1433
25468SOL     OW80859   1.424   0.303   6.410 -0.0368  0.1335 -0.7051
25468SOL    HW180860   1.453   0.345   6.329 -0.5450 -0.6357 -1.3073
25468SOL    HW280861   1.333   0.332   6.420  0.2166  0.7276 -0.0589
25469SOL     OW80862   7.636   8.219  10.392  0.7265 -0.4893 -0.2062
25469SOL    HW180863   7.544   8.194  10.393  0.5832  0.0445  0.2158
25469SOL    HW280864   7.662   8.209  10.300 -0.8027  3.0900 -1.1989
25470SOL     OW80865   4.573   9.022   8.014 -0.2411  0.1592  0.6678
25470SOL    HW180866   4.511   9.020   8.087 -0.7069  3.5969  0.5492
25470SOL    HW280867   4.527   9.069   7.944  1.1440 -0.6710 -0.8811
25471SOL     OW80868  10.365   6.589   0.200 -0.5503  0.3273  0.3853
25471SOL    HW180869  10.440   6.540   0.233 -0.2282  0.4652 -0.1446
25471SOL    HW280870  10.399   6.640   0.126 -0.2604  3.3212  2.4017
25472SOL     OW80871   4.161   5.133   3.397  0.4319  0.1217 -0.2809
25472SOL    HW180872   4.139   5.048   3.358 -1.7290  0.1438  0.7282
25472SOL    HW280873   4.206   5.112   3.478  0.6040 -0.0294 -0.4143
25473SOL     OW80874   5.751   2.047   0.091 -0.0119 -0.9490 -0.0574
25473SOL    HW180875   5.819   2.108   0.119 -2.1783  0.9464  1.3465
25473SOL    HW280876   5.714   2.086   0.012 -0.7542 -0.9549  0.2815
25474SOL     OW80877   5.843   7.439   3.553  0.1955  0.0559  0.2865
25474SOL    HW180878   5.857   7.510   3.491 -1.5437 -0.4909 -0.8153
25474SOL    HW280879   5.759   7.401   3.527  2.0773 -3.9708 -0.7327
25475SOL     OW80880   9.074   3.307   1.156 -0.0625  0.0612 -0.2409
25475SOL    HW180881   9.155   3.330   1.112  0.1676  1.5834  0.8656
25475SOL    HW280882   9.039   3.233   1.107  2.7099 -1.6004  0.1270
25476SOL     OW80883   6.588   7.206   5.830 -0.5961  0.4445  0.1571
25476SOL    HW180884   6.567   7.130   5.775 -0.1040  0.4584 -0.0608
25476SOL    HW280885   6.610   7.275   5.767  0.4837  0.3102  0.3716
25477SOL     OW80886   5.799   3.427   1.724  0.2453  0.2317 -0.8028
25477SOL    HW180887   5.805   3.333   1.707 -0.3963  0.0306 -0.0035
25477SOL    HW280888   5.758   3.463   1.646 -1.3519 -0.4616 -0.3281
25478SOL     OW80889   6.837   1.857   9.850  1.1930  0.6901  0.6070
25478SOL    HW180890   6.748   1.824   9.842  0.6036  2.5974 -1.7429
25478SOL    HW280891   6.892   1.778   9.850 -0.4442 -0.5402  2.6435
25479SOL     OW80892   3.096   1.367  10.563 -0.4067 -0.0839 -0.2530
25479SOL    HW180893   3.130   1.456  10.571 -0.8518 -0.0573  2.0923
25479SOL    HW280894   3.001   1.378  10.558 -0.6067 -0.4291  1.8722
25480SOL     OW80895   4.756   6.561   3.662 -0.1859  0.6808  0.5509
25480SOL    HW180896   4.728   6.627   3.597  0.7382  0.5092 -0.0382
25480SOL    HW280897   4.676   6.538   3.708 -0.8256  1.0119 -0.3588
25481SOL     OW80898   7.144   7.448   2.920 -0.0925 -0.7420 -0.2364
25481SOL    HW180899   7.060   7.436   2.876 -0.8055  0.9137  0.5797
25481SOL    HW280900   7.148   7.377   2.984 -0.9399 -0.7675 -0.1976
25482SOL     OW80901   0.003   7.511   6.623  0.6014  0.3188 -0.7291
25482SOL    HW180902  -0.024   7.584   6.679  0.0525 -0.7278  0.4277
25482SOL    HW280903  -0.065   7.445   6.636  2.2550 -1.3142  0.1302
25483SOL     OW80904   0.995   3.144   9.960 -0.2272  0.0148  0.3118
25483SOL    HW180905   1.038   3.196  10.028  1.2128  0.1614 -0.6656
25483SOL    HW280906   0.932   3.090  10.008  0.5183  0.3348  1.7199
25484SOL     OW80907   3.040   5.847   0.125  0.4790 -0.3357 -0.2586
25484SOL    HW180908   3.065   5.757   0.102 -0.6346 -0.9098  0.6035
25484SOL    HW280909   3.055   5.898   0.046  2.1429 -1.0591 -0.4443
25485SOL     OW80910   8.043   5.672   8.560  0.3167  0.2442  0.4901
25485SOL    HW180911   8.021   5.765   8.549  0.8105  0.2605 -0.4523
25485SOL    HW280912   7.959   5.627   8.553  0.3621  0.3959 -1.9680
25486SOL     OW80913   5.904   2.933   0.771  0.6231  0.1382 -0.1624
25486SOL    HW180914   5.872   2.869   0.706  0.4108 -0.7883  0.8293
25486SOL    HW280915   5.888   2.891   0.855  0.9829  1.2947  0.4936
25487SOL     OW80916   6.850   4.265   0.785 -0.7318  0.3026 -0.3883
25487SOL    HW180917   6.906   4.189   0.802  1.5078  1.1143 -3.3030
25487SOL    HW280918   6.844   4.309   0.870 -0.5428 -2.0903  0.9556
25488SOL     OW80919   2.969   6.163   8.786  0.2724  0.1265  0.3210
25488SOL    HW180920   3.051   6.147   8.740  0.2130 -0.0086  0.2638
25488SOL    HW280921   2.958   6.258   8.783  0.9593  0.2436  1.2340
25489SOL     OW80922   4.981   7.194   0.568 -0.5931  0.0395 -0.0787
25489SOL    HW180923   5.052   7.222   0.510 -2.0164 -0.5135 -2.2081
25489SOL    HW280924   4.922   7.270   0.573 -0.4008  0.1423  0.8246
25490SOL     OW80925   2.417   0.680   0.951 -0.1621 -0.1586 -0.1251
25490SOL    HW180926   2.483   0.619   0.983  0.0403 -0.8086 -1.6612
25490SOL    HW280927   2.356   0.625   0.901 -1.1225  0.6163  0.1715
25491SOL     OW80928   6.267   0.477   7.822 -0.1430 -0.1068  0.1977
25491SOL    HW180929   6.296   0.484   7.913  0.1798 -1.6383  0.2365
25491SOL    HW280930   6.309   0.398   7.790 -0.2388  0.4294 -1.3080
25492SOL     OW80931   8.500   9.262   7.729  0.0375  0.7247 -0.4131
25492SOL    HW180932   8.411   9.228   7.719  0.6535 -1.3899  0.6572
25492SOL    HW280933   8.523   9.294   7.641 -0.9157 -0.9487 -1.3332
25493SOL     OW80934   3.957   7.833   1.120 -0.0680  0.0552 -0.3492
25493SOL    HW180935   4.003   7.769   1.066  0.7672  0.4224 -0.0976
25493SOL    HW280936   3.948   7.790   1.205  0.7752  0.3723 -0.0870
25494SOL     OW80937   5.269  10.395   2.715  1.2488 -0.1716  0.2370
25494SOL    HW180938   5.228  10.478   2.693  0.2255 -1.2293 -2.2415
25494SOL    HW280939   5.363  10.414   2.717  0.9616  1.2859  1.1150
25495SOL     OW80940   4.034   6.459   6.345 -0.2720  0.1557  0.4406
25495SOL    HW180941   4.073   6.375   6.370 -0.0510  0.7206  2.1482
25495SOL    HW280942   4.020   6.452   6.250  2.1091 -0.8484  0.0877
25496SOL     OW80943  10.203   8.580   0.377  0.4300  0.2341 -0.1299
25496SOL    HW180944  10.171   8.523   0.306  1.9568  0.2138 -0.8426
25496SOL    HW280945  10.218   8.664   0.335 -0.4444  0.7732  0.6130
25497SOL     OW80946   4.643   1.413  10.706  0.1453 -0.4273  0.1912
25497SOL    HW180947   4.689   1.475  10.763  1.2030 -1.4461  0.4805
25497SOL    HW280948   4.705   1.397  10.634 -0.2820 -0.8456 -0.0870
25498SOL     OW80949   2.146   4.012   6.495 -0.2478 -0.3359  0.2661
25498SOL    HW180950   2.105   4.051   6.418  0.5075  0.3277  0.1983
25498SOL    HW280951   2.233   3.986   6.466  0.3952  0.7777  1.1201
25499SOL     OW80952   7.329   9.276   2.152  0.1677 -0.0489 -0.3025
25499SOL    HW180953   7.268   9.266   2.225 -1.9280  1.0489 -1.7996
25499SOL    HW280954   7.355   9.186   2.130 -2.9353 -0.8851 -1.1599
25500SOL     OW80955   8.228   9.897   0.497  0.2969  0.3758  0.2417
25500SOL    HW180956   8.218   9.804   0.479 -1.4077  0.3570  1.1596
25500SOL    HW280957   8.184   9.941   0.424  0.8967  0.4709 -0.0699
25501SOL     OW80958   9.252  10.464   0.216 -0.8613 -0.3712 -0.0816
25501SOL    HW180959   9.205  10.522   0.276  0.1243  1.2112 -0.7933
25501SOL    HW280960   9.317  10.421   0.271 -0.1973  0.8083  0.0823
25502SOL     OW80961   2.173   5.068   1.178  0.3280  0.0563 -0.0549
25502SOL    HW180962   2.203   4.977   1.187  0.5223  0.0123 -1.0913
25502SOL    HW280963   2.242   5.111   1.127 -1.4511 -0.1288 -2.8160
25503SOL     OW80964   7.106   1.215  10.083 -0.0114 -0.2026 -0.6139
25503SOL    HW180965   7.075   1.300  10.052  1.8744  0.8279  0.2139
25503SOL    HW280966   7.041   1.188  10.148  0.7411  1.9275  1.1357
25504SOL     OW80967   4.728   3.855   4.042 -0.1714  0.1191 -0.1747
25504SOL    HW180968   4.751   3.848   4.134  0.6649  1.6929 -0.2354
25504SOL    HW280969   4.811   3.870   3.997 -0.5746 -0.5848 -1.1948
25505SOL     OW80970   7.550   7.572   0.569 -0.5816 -0.0423 -0.1486
25505SOL    HW180971   7.625   7.513   0.575 -0.3733  0.2414  0.0264
25505SOL    HW280972   7.543   7.613   0.655 -0.8228  0.0746 -0.2204
25506SOL     OW80973  10.817   0.568   4.200 -0.1851  0.1472  0.2328
25506SOL    HW180974  10.789   0.651   4.238  0.4830 -0.5265  2.3602
25506SOL    HW280975  10.744   0.509   4.215 -0.0533 -0.0382  0.1453
25507SOL     OW80976   8.818   3.780   2.648 -0.5020  0.2105 -0.3044
25507SOL    HW180977   8.729   3.801   2.675 -0.0663  1.5673  0.1559
25507SOL    HW280978   8.849   3.719   2.715 -1.2374 -0.6774 -0.7493
25508SOL     OW80979   0.659   5.924   7.650 -0.1930  0.7567 -0.0890
25508SOL    HW180980   0.600   5.863   7.606  0.9323 -2.3312  2.3526
25508SOL    HW280981   0.742   5.915   7.602 -0.2557  1.0645 -0.2594
25509SOL     OW80982   1.637   4.043   5.719 -0.8277 -0.2559 -0.1451
25509SOL    HW180983   1.548   4.076   5.719 -0.8769 -0.3833 -0.4984
25509SOL    HW280984   1.650   4.009   5.808 -2.0101 -2.5635 -0.7664
25510SOL     OW80985   5.909   2.124   5.338  0.1172 -0.0539  0.6706
25510SOL    HW180986   5.951   2.094   5.419 -1.2913 -1.0327  1.0727
25510SOL    HW280987   5.952   2.073   5.270  1.3220  0.7838  0.7785
25511SOL     OW80988   3.984   2.846   6.028  0.3051  0.6659  0.0347
25511SOL    HW180989   4.068   2.891   6.028  1.5392 -1.5085  0.7606
25511SOL    HW280990   3.978   2.807   5.941  0.6176 -0.1729  0.3866
25512SOL     OW80991   5.465   7.411   2.031 -1.0418  0.3523  0.1235
25512SOL    HW180992   5.417   7.489   2.059 -0.8763 -0.0064  1.4966
25512SOL    HW280993   5.478   7.423   1.937 -1.9433  1.4697  0.1158
25513SOL     OW80994   5.349   9.630   7.447  0.4361  0.4349 -0.3839
25513SOL    HW180995   5.341   9.718   7.410 -1.6475  1.5824  2.4323
25513SOL    HW280996   5.343   9.643   7.541 -1.3318 -2.8655  0.1054
25514SOL     OW80997   8.405  10.796   0.674  0.7444  0.1085 -0.1691
25514SOL    HW180998   8.449  10.746   0.743  0.3807 -0.2027 -0.1633
25514SOL    HW280999   8.367  10.871   0.721  1.0488  0.2478 -0.1362
25515SOL     OW81000  10.501   1.694  10.193  0.0627  0.3221  0.2350
25515SOL    HW181001  10.438   1.754  10.153 -0.0574  0.9280  1.2791
25515SOL    HW281002  10.459   1.608  10.190  0.1422  0.3083 -1.0770
25516SOL     OW81003  10.052   6.363   7.080 -0.0077 -0.0059 -0.0137
25516SOL    HW181004   9.962   6.374   7.112 -0.1856 -1.1371 -0.0892
25516SOL    HW281005  10.053   6.410   6.997  0.0535  1.7273  0.9142
25517SOL     OW81006   0.700   7.992  10.353 -0.1932 -0.1385  0.0638
25517SOL    HW181007   0.654   8.066  10.314  0.5084  0.5982  0.6063
25517SOL    HW281008   0.769   8.031  10.406  0.1362 -1.1794  0.4386
25518SOL     OW81009   0.332   0.224   3.259 -0.2061  0.0117 -0.6494
25518SOL    HW181010   0.333   0.272   3.342 -0.8971 -1.0532  0.0056
25518SOL    HW281011   0.244   0.237   3.225 -1.1098 -2.4132  0.5669
25519SOL     OW81012   2.121  10.492   3.306  0.2937  0.1266  0.2265
25519SOL    HW181013   2.212  10.464   3.315  0.3946  0.3922  0.0628
25519SOL    HW281014   2.127  10.581   3.271 -0.0519 -0.3672 -1.1775
25520SOL     OW81015  10.669   4.148   7.043 -0.3161  0.4988 -0.5721
25520SOL    HW181016  10.753   4.185   7.016 -0.3666  0.9280 -0.1692
25520SOL    HW281017  10.667   4.061   7.004 -0.6522  1.2997 -2.4431
25521SOL     OW81018   6.764   0.112   2.338  0.0510  0.0426  0.2617
25521SOL    HW181019   6.762   0.083   2.429 -0.0594  2.3782  1.0629
25521SOL    HW281020   6.840   0.067   2.300  1.6441  0.9219  2.2147
25522SOL     OW81021   7.319   8.554   3.766 -0.0112 -0.3982  0.2805
25522SOL    HW181022   7.305   8.460   3.754  1.0170 -0.3773 -1.2694
25522SOL    HW281023   7.272   8.574   3.847 -1.5667 -1.9378 -0.1682
25523SOL     OW81024   0.041   5.089   6.463  0.6430 -0.1786 -0.1316
25523SOL    HW181025   0.004   5.154   6.403 -0.7633 -0.6641  0.1701
25523SOL    HW281026   0.041   5.133   6.548 -1.6953 -0.9905  0.3677
25524SOL     OW81027   8.861   2.102   2.264 -0.2220  0.4049 -0.7010
25524SOL    HW181028   8.773   2.122   2.231  0.2032  1.4669 -1.2236
25524SOL    HW281029   8.920   2.129   2.194  0.5040 -0.9977 -0.6630
25525SOL     OW81030   8.966  10.651   4.266  0.1793  0.7737  0.2144
25525SOL    HW181031   8.907  10.579   4.286 -2.4477  3.4642  3.4887
25525SOL    HW281032   8.933  10.687   4.184 -0.2145 -0.0916 -0.0184
25526SOL     OW81033   3.930   0.843   9.612  0.0474 -0.4131  0.0289
25526SOL    HW181034   3.947   0.815   9.702 -0.8359 -1.4301 -0.0872
25526SOL    HW281035   3.849   0.797   9.588 -0.6278  1.0834 -0.7385
25527SOL     OW81036   0.758  10.094   6.996  0.3449 -0.4759 -0.3196
25527SOL    HW181037   0.818  10.051   6.934  1.4661 -0.9919  1.0513
25527SOL    HW281038   0.680  10.038   6.997 -0.0716  0.0423 -1.9149
25528SOL     OW81039   1.899   2.592   3.799 -0.2452 -0.1568  0.0427
25528SOL    HW181040   1.861   2.665   3.846 -1.4795  0.7241 -2.1492
25528SOL    HW281041   1.979   2.627   3.760  2.7101 -1.8007  4.0235
25529SOL     OW81042  10.015   5.949   2.075 -0.0891  0.4264 -0.1117
25529SOL    HW181043   9.953   6.001   2.023 -1.4883 -0.6894  0.3673
25529SOL    HW281044  10.032   6.003   2.152 -0.3331  0.8192 -0.3275
25530SOL     OW81045   4.471   6.466   5.390  0.0651 -0.2309  0.1605
25530SOL    HW181046   4.413   6.447   5.463 -2.2021 -0.8949 -1.6895
25530SOL    HW281047   4.487   6.561   5.396 -1.8208  0.1199  0.3650
25531SOL     OW81048   6.537   0.248   4.011 -0.2092 -0.3880 -0.2196
25531SOL    HW181049   6.580   0.261   3.927 -0.8754  2.1969 -0.2490
25531SOL    HW281050   6.593   0.293   4.074 -1.4193  0.6967  0.1351
25532SOL     OW81051   6.488   0.351   3.557 -0.2150  0.5368 -0.6636
25532SOL    HW181052   6.547   0.424   3.537 -0.8238  1.1890 -0.1633
25532SOL    HW281053   6.506   0.286   3.490  3.0090 -0.4979  0.9728
25533SOL     OW81054   4.644   9.625   0.829  0.3361  0.1838 -0.2774
25533SOL    HW181055   4.667   9.591   0.915 -0.7803  0.9875  0.3679
25533SOL    HW281056   4.652   9.550   0.770  2.4455 -0.0706  0.2510
25534SOL     OW81057  10.448   3.461   4.373 -0.6887  0.2114  0.7154
25534SOL    HW181058  10.491   3.384   4.410  1.6435  1.8623  1.6444
25534SOL    HW281059  10.507   3.492   4.305 -3.3019 -0.7682 -2.2786
25535SOL     OW81060   6.863   9.652   5.748  0.5446 -0.3015  0.1375
25535SOL    HW181061   6.924   9.595   5.794  0.1425 -0.4768  0.4642
25535SOL    HW281062   6.813   9.593   5.692  0.7213 -0.1491 -0.1824
25536SOL     OW81063   8.719   3.293   5.285 -0.3339  0.2542  0.0415
25536SOL    HW181064   8.740   3.225   5.348  1.4753  0.8823  0.1754
25536SOL    HW281065   8.766   3.267   5.205  0.2679  1.2665  0.0565
25537SOL     OW81066   2.420  10.882   0.802  1.1991 -0.4119 -0.2537
25537SOL    HW181067   2.468  10.965   0.810 -2.4632  2.2396 -2.3698
25537SOL    HW281068   2.332  10.902   0.835  0.4060 -3.8334  0.0470
25538SOL     OW81069   0.126   3.882   1.366  0.1275 -0.1056 -0.3346
25538SOL    HW181070   0.140   3.973   1.341 -0.3097  0.3727  1.0701
25538SOL    HW281071   0.071   3.887   1.444  2.0320 -1.4810  1.1755
25539SOL     OW81072   9.669   1.857   4.490 -0.3839  0.1945  0.4033
25539SOL    HW181073   9.574   1.868   4.498 -0.4811  0.0243 -0.4259
25539SOL    HW281074   9.705   1.907   4.564 -1.0837  0.8844  0.2965
25540SOL     OW81075   7.232   5.381   4.663  0.0944 -0.2561  0.5251
25540SOL    HW181076   7.277   5.334   4.734  1.8602  2.4291  1.3482
25540SOL    HW281077   7.139   5.372   4.683  0.5266  0.3684  3.2653
25541SOL     OW81078   8.472   6.146   6.323 -0.0057 -0.2308  0.3493
25541SOL    HW181079   8.378   6.126   6.323  0.2135 -1.6184  2.6439
25541SOL    HW281080   8.514   6.060   6.322  1.2452  0.3679  0.1248
25542SOL     OW81081   1.787   2.336   0.841 -0.3159  0.1334 -0.0300
25542SOL    HW181082   1.760   2.314   0.930  0.3622 -0.3891  0.0574
25542SOL    HW281083   1.834   2.419   0.850 -1.5445  0.8778 -0.1376
25543SOL     OW81084   9.731   2.974   0.999 -0.4069  0.1899 -0.2424
25543SOL    HW181085   9.764   2.900   0.948  1.1651  1.6579 -1.4786
25543SOL    HW281086   9.810   3.016   1.034 -1.3804 -0.1541  2.6428
25544SOL     OW81087   6.668  10.897   2.265 -0.0920 -0.2768 -0.5548
25544SOL    HW181088   6.757  10.928   2.251 -1.4493  3.5146 -2.1881
25544SOL    HW281089   6.672  10.802   2.251  3.3054  0.0275 -2.6510
25545SOL     OW81090   3.258   1.833   2.954 -0.0595 -0.0771  0.4359
25545SOL    HW181091   3.288   1.893   2.885  0.4324 -1.7435 -0.8946
25545SOL    HW281092   3.162   1.837   2.949 -0.1230  2.3285  2.0201
25546SOL     OW81093  11.075   3.821   0.709  0.2528 -0.4623  0.1530
25546SOL    HW181094  11.159   3.830   0.664  1.0081 -0.5337  1.5010
25546SOL    HW281095  11.038   3.740   0.674  0.6866 -0.3758 -0.5312
25547SOL     OW81096   7.920   5.816   0.218 -0.0404 -0.1373 -0.2052
25547SOL    HW181097   7.869   5.768   0.283  0.3266 -0.8761 -0.4473
25547SOL    HW281098   7.919   5.906   0.248  0.3789 -0.5209  0.9986
25548SOL     OW81099   1.218   8.977   7.689 -0.3749 -0.2268  0.3157
25548SOL    HW181100   1.208   8.904   7.628 -1.6757  0.2696 -0.0935
25548SOL    HW281101   1.131   9.018   7.692  0.3908  1.4612  0.3413
25549SOL     OW81102   5.064   8.620   5.824  0.3347  0.0215 -0.4517
25549SOL    HW181103   5.081   8.626   5.730 -0.6041  1.7188 -0.5652
25549SOL    HW281104   5.129   8.678   5.864  0.4367 -0.3395 -0.0873
25550SOL     OW81105   4.036   9.077   9.140  0.4327 -0.3661 -0.4557
25550SOL    HW181106   4.043   9.013   9.211  0.0731 -0.4548 -0.4975
25550SOL    HW281107   4.003   9.027   9.066  2.8228 -0.7472 -1.3511
25551SOL     OW81108   1.672   0.049   9.333 -0.3608  0.2782 -0.6998
25551SOL    HW181109   1.650   0.138   9.359 -0.3698 -0.2267  1.1954
25551SOL    HW281110   1.768   0.048   9.331 -0.3682  0.5176 -1.4977
25552SOL     OW81111   8.293   7.272   3.312  0.1074 -0.2087 -0.1194
25552SOL    HW181112   8.343   7.191   3.297 -0.7768 -0.6003 -1.0481
25552SOL    HW281113   8.305   7.290   3.405 -0.1954 -1.7741  0.2619
25553SOL     OW81114   3.325   0.317   7.143 -0.5059 -0.1116  0.3896
25553SOL    HW181115   3.410   0.288   7.176  0.4527  0.0073 -1.7810
25553SOL    HW281116   3.310   0.264   7.064 -2.4024 -0.0359  0.6477
25554SOL     OW81117   2.530   3.367   9.110  0.5299 -0.1742  0.0120
25554SOL    HW181118   2.616   3.360   9.151 -0.1777 -2.0408  1.3290
25554SOL    HW281119   2.549   3.367   9.016  1.9630 -0.6921  0.2717
25555SOL     OW81120   8.051   9.614   4.184  0.0010 -0.2595 -0.1495
25555SOL    HW181121   8.071   9.558   4.108  0.0574 -0.3964 -0.0339
25555SOL    HW281122   7.958   9.599   4.201  0.0187 -0.3276 -0.1114
25556SOL     OW81123   2.130   5.902   6.475  0.3323  0.2691  0.0168
25556SOL    HW181124   2.144   5.900   6.570 -0.0925 -0.3036  0.0719
25556SOL    HW281125   2.217   5.892   6.438  0.2410 -2.3873  0.3573
25557SOL     OW81126   4.245   1.827   1.640 -0.7507 -0.0371 -0.5751
25557SOL    HW181127   4.213   1.886   1.709  0.6754  0.0590  0.0482
25557SOL    HW281128   4.310   1.879   1.593  0.5093 -1.0665 -0.0412
25558SOL     OW81129   3.771   2.184   1.117 -0.0481  0.3155 -0.1699
25558SOL    HW181130   3.751   2.150   1.030 -0.1830  0.4454 -0.1894
25558SOL    HW281131   3.827   2.260   1.100  0.9120 -0.3560 -0.0986
25559SOL     OW81132   3.768  10.875   2.427 -0.1557  0.0958 -0.1480
25559SOL    HW181133   3.821  10.945   2.388 -0.2820 -0.6206 -1.6376
25559SOL    HW281134   3.817  10.795   2.411 -1.1720 -0.4504 -0.5851
25560SOL     OW81135   8.876   7.639   4.839 -0.2237 -0.2743 -0.7500
25560SOL    HW181136   8.890   7.608   4.928  0.6546 -2.1179 -1.4691
25560SOL    HW281137   8.955   7.687   4.816 -0.7222  0.7823 -0.3515
25561SOL     OW81138   9.015   8.678   0.648  0.3958 -0.0998 -0.5435
25561SOL    HW181139   8.999   8.664   0.554  3.1238  0.8814 -1.2523
25561SOL    HW281140   8.978   8.765   0.666  0.2339 -0.1125 -0.8059
25562SOL     OW81141  10.761   4.245   9.114 -0.8441  0.2296 -0.0752
25562SOL    HW181142  10.831   4.303   9.143 -1.2398  1.2278 -1.0263
25562SOL    HW281143  10.792   4.157   9.134  0.2476  0.7110  0.4101
25563SOL     OW81144   5.516   1.281   6.293 -0.5791 -0.1192 -0.0714
25563SOL    HW181145   5.438   1.332   6.314 -0.9156 -0.8925  0.5979
25563SOL    HW281146   5.482   1.205   6.244 -0.2130 -0.2778 -0.0799
25564SOL     OW81147   7.300   4.185   6.549 -0.2634  0.0432 -0.2015
25564SOL    HW181148   7.316   4.102   6.505  0.8626  1.0602 -1.8357
25564SOL    HW281149   7.377   4.198   6.605 -1.4556 -1.0044  1.7650
25565SOL     OW81150   3.860   4.228   7.425 -0.2182 -0.6256  0.2305
25565SOL    HW181151   3.923   4.222   7.353  1.0595  0.1512  1.2225
25565SOL    HW281152   3.860   4.141   7.465  0.7783 -0.4675  0.6248
25566SOL     OW81153  10.751  10.529  10.432 -0.1678 -0.2689  0.2628
25566SOL    HW181154  10.750  10.447  10.382 -3.1738 -0.0499 -0.2189
25566SOL    HW281155  10.800  10.508  10.511  0.0040 -2.2481 -0.3091
25567SOL     OW81156   5.621   2.495   2.376 -0.3145  0.2277 -0.2473
25567SOL    HW181157   5.556   2.559   2.406  0.6406  0.7890  0.6832
25567SOL    HW281158   5.665   2.536   2.302  1.8822  1.7066  1.7488
25568SOL     OW81159  10.412   9.624   5.915 -0.4051  0.3856 -0.0561
25568SOL    HW181160  10.492   9.668   5.942 -0.3629 -0.2861  0.9657
25568SOL    HW281161  10.415   9.625   5.819  0.1254  1.6033 -0.0383
25569SOL     OW81162   4.766   0.238   1.102 -0.0863 -0.0228 -0.7675
25569SOL    HW181163   4.673   0.231   1.082 -0.2029  0.2142 -0.3121
25569SOL    HW281164   4.798   0.309   1.047 -0.2589  0.1626 -0.6273
25570SOL     OW81165   0.681   5.324   7.979 -0.1654  0.6955 -0.0770
25570SOL    HW181166   0.714   5.339   8.067 -0.8381  2.6862 -0.1118
25570SOL    HW281167   0.625   5.247   7.987 -2.2798  2.2885  1.8736
25571SOL     OW81168   0.155  10.693   4.222 -0.1068  0.6574 -0.1441
25571SOL    HW181169   0.066  10.667   4.246 -0.3570  1.1916 -0.4637
25571SOL    HW281170   0.194  10.613   4.187  0.0339  0.0510  1.3278
25572SOL     OW81171   7.964   4.911   9.955 -0.5502 -0.2629  0.5570
25572SOL    HW181172   8.036   4.849   9.939 -1.3042 -0.6774 -1.5562
25572SOL    HW281173   7.972   4.934  10.047  2.2472 -0.3501  0.4156
25573SOL     OW81174   0.372   8.242   7.471  0.1983  0.0553 -0.0882
25573SOL    HW181175   0.339   8.255   7.560 -2.0784 -0.4661 -0.8001
25573SOL    HW281176   0.310   8.182   7.431  0.6457  1.0096 -2.3434
25574SOL     OW81177   3.249   3.378   0.543  0.0518 -0.2419  0.1877
25574SOL    HW181178   3.301   3.329   0.607  1.7969  0.5905 -0.5197
25574SOL    HW281179   3.222   3.313   0.478  1.1379 -0.5326  0.0051
25575SOL     OW81180   1.941  10.893   8.045  0.2116 -0.1395  0.2999
25575SOL    HW181181   1.943  10.872   7.952 -1.6850 -0.4973  0.3133
25575SOL    HW281182   2.008  10.836   8.084  1.3573  0.3548 -0.8648
25576SOL     OW81183   0.644   0.566   1.173  0.0880 -0.2995  0.3779
25576SOL    HW181184   0.652   0.519   1.256 -2.2423  0.6657  1.2522
25576SOL    HW281185   0.691   0.649   1.188 -0.5255 -0.0288  0.8394
25577SOL     OW81186   2.495  10.911   1.896 -0.4525  0.1902  0.1254
25577SOL    HW181187   2.550  10.953   1.830  0.4766 -1.6536 -0.3376
25577SOL    HW281188   2.443  10.982   1.933 -0.5583  1.3886 -2.1503
25578SOL     OW81189   5.046   3.294   1.555 -0.0512  0.6954  0.0003
25578SOL    HW181190   5.021   3.319   1.466  2.2069  1.8175 -0.3807
25578SOL    HW281191   5.054   3.199   1.552  0.2575  0.7441 -1.0935
25579SOL     OW81192   7.692   0.027   6.198  0.3237  0.5722 -0.5757
25579SOL    HW181193   7.626   0.092   6.174  0.2257  0.4116 -0.7390
25579SOL    HW281194   7.721  -0.010   6.115 -0.2391 -0.2008 -0.4364
25580SOL     OW81195   5.091   1.015   9.926  0.5291 -0.1302  0.4262
25580SOL    HW181196   5.114   1.063  10.005  0.9457 -0.7070  0.6624
25580SOL    HW281197   5.074   0.926   9.955 -1.1025  0.0520  0.1144
25581SOL     OW81198   3.328  10.601   8.908 -0.0057  0.1584  0.3704
25581SOL    HW181199   3.380  10.674   8.942  1.1584 -0.8132  0.7315
25581SOL    HW281200   3.326  10.538   8.980 -0.7743 -0.2962 -0.0339
25582SOL     OW81201   0.638   5.301   2.471 -0.3146  0.2680 -0.0837
25582SOL    HW181202   0.714   5.289   2.528 -0.6767  1.4420  0.6874
25582SOL    HW281203   0.581   5.227   2.492 -1.3480  1.6676  2.6388
25583SOL     OW81204   6.062   2.986   7.183  0.1446 -0.0043 -0.0623
25583SOL    HW181205   6.106   2.963   7.265 -0.7502 -0.4211  0.3186
25583SOL    HW281206   6.120   2.952   7.115  0.7102 -0.0056  0.4097
25584SOL     OW81207   0.814   1.213   3.745 -0.1216 -0.1136 -0.6484
25584SOL    HW181208   0.746   1.156   3.709 -1.2838  0.5754  0.3782
25584SOL    HW281209   0.894   1.161   3.740 -0.8301 -1.1874 -1.2980
25585SOL     OW81210   1.775   6.149   4.152 -0.4668  0.1044  0.0817
25585SOL    HW181211   1.829   6.223   4.181  1.1195  0.2407 -2.8065
25585SOL    HW281212   1.691   6.189   4.129 -0.1674  0.7505  0.0793
25586SOL     OW81213   0.045   6.372   0.269  0.5487 -0.0403 -0.2510
25586SOL    HW181214   0.139   6.386   0.278  0.3345  0.4958  1.4828
25586SOL    HW281215   0.020   6.324   0.349 -0.4033 -1.6107 -1.4309
25587SOL     OW81216   2.883   2.476  10.573 -0.0389 -0.4283  0.1670
25587SOL    HW181217   2.911   2.492  10.663 -1.5699 -0.0524  0.5944
25587SOL    HW281218   2.951   2.418  10.537  1.7586  1.1664  0.8470
25588SOL     OW81219   0.080   1.993   2.259  0.2515 -0.0183 -0.2538
25588SOL    HW181220   0.043   2.013   2.346  0.3524 -0.5999 -0.0718
25588SOL    HW281221   0.010   2.014   2.198  0.3850  0.9691 -0.0830
25589SOL     OW81222   3.111   8.844   8.101  0.5937  0.1361 -0.2153
25589SOL    HW181223   3.164   8.878   8.029 -0.0117 -0.2723 -0.8608
25589SOL    HW281224   3.043   8.909   8.114 -0.9345 -1.0405 -1.8607
25590SOL     OW81225   4.928   9.721   3.492  0.2114 -0.2411  0.3694
25590SOL    HW181226   4.978   9.673   3.559 -0.7169  0.5218  1.6609
25590SOL    HW281227   4.850   9.752   3.538  1.0389  3.0359 -0.1780
25591SOL     OW81228   8.381   5.183   3.527  0.0408 -0.3605  0.3978
25591SOL    HW181229   8.364   5.209   3.437  1.4987  0.6844  0.3760
25591SOL    HW281230   8.310   5.223   3.578 -0.6891 -0.8064 -0.2533
25592SOL     OW81231   2.762   9.854   9.779  0.0738  0.2588  0.6046
25592SOL    HW181232   2.773   9.812   9.694 -0.0384  2.6084 -0.6385
25592SOL    HW281233   2.699   9.798   9.825  1.1037 -1.7564 -0.3119
25593SOL     OW81234   5.711   0.234   7.420 -0.0424  0.1152 -0.3585
25593SOL    HW181235   5.762   0.235   7.501 -1.7711 -1.1180  0.8261
25593SOL    HW281236   5.776   0.224   7.351  1.4778  1.0881  0.8613
25594SOL     OW81237   6.630   0.806  10.438 -0.0435  0.1350  0.7289
25594SOL    HW181238   6.603   0.865  10.509 -1.0635  0.4712  0.0938
25594SOL    HW281239   6.596   0.720  10.463  1.3115 -0.1710  1.5822
25595SOL     OW81240   4.707   5.079   3.726  0.0939  0.1139 -0.0263
25595SOL    HW181241   4.770   5.007   3.736 -1.6342 -1.4494  0.2074
25595SOL    HW281242   4.736   5.145   3.789  1.5374 -0.5119  0.0052
25596SOL     OW81243   2.557   6.014   4.687 -0.4089  0.0924  0.2561
25596SOL    HW181244   2.519   6.012   4.774 -2.0120 -1.4181 -0.4213
25596SOL    HW281245   2.560   5.922   4.659 -2.1065  0.6649 -2.1262
25597SOL     OW81246  10.277   3.062   9.878 -0.1596 -0.4957 -0.6127
25597SOL    HW181247  10.239   3.145   9.852 -1.2105 -0.6760  0.2692
25597SOL    HW281248  10.315   3.026   9.798  1.2554  1.2925 -0.7947
25598SOL     OW81249   9.652   1.613   4.828 -0.0422 -0.0034  0.1431
25598SOL    HW181250   9.624   1.704   4.833  0.5283  0.4368 -2.8147
25598SOL    HW281251   9.582   1.564   4.872 -0.7619  1.7588  1.0677
25599SOL     OW81252   5.850   6.023   2.811 -0.2569 -0.1648 -0.4921
25599SOL    HW181253   5.917   6.090   2.823  1.1863 -1.6928  0.3982
25599SOL    HW281254   5.852   6.003   2.718  0.2010  0.1371 -0.5511
25600SOL     OW81255   7.348   3.061  10.867  0.0218  0.1490 -0.4668
25600SOL    HW181256   7.337   3.099  10.955 -1.3895  0.8951 -0.9204
25600SOL    HW281257   7.371   3.136  10.812  0.2620 -0.2009 -0.8436
25601SOL     OW81258   8.532   3.146   5.070  0.4390  0.5918  0.2261
25601SOL    HW181259   8.537   3.218   5.133  2.5986 -0.5567  1.5197
25601SOL    HW281260   8.584   3.076   5.110  0.9037 -0.6373 -2.3137
25602SOL     OW81261   1.274   6.653   6.515  0.0773 -0.1514  0.1383
25602SOL    HW181262   1.217   6.680   6.586 -1.8712  0.3628 -1.5474
25602SOL    HW281263   1.316   6.734   6.486  0.2221 -0.2266  0.1357
25603SOL     OW81264   2.284   3.280   0.450 -0.1334  0.1350 -0.0453
25603SOL    HW181265   2.323   3.290   0.537  2.6048  4.3793 -1.4760
25603SOL    HW281266   2.210   3.339   0.450  0.3515  0.7614 -0.7787
25604SOL     OW81267   8.577   5.832   5.233  0.0952 -0.1929 -0.5228
25604SOL    HW181268   8.598   5.856   5.143 -1.9217  4.2956 -0.0472
25604SOL    HW281269   8.494   5.785   5.227  0.6026 -1.0678 -1.0087
25605SOL     OW81270   4.649   3.380   8.858  0.6113 -0.2991  0.3856
25605SOL    HW181271   4.745   3.375   8.862  0.5392 -0.9155  1.7970
25605SOL    HW281272   4.623   3.424   8.938 -0.1647  3.1384 -1.5578
25606SOL     OW81273   1.952   0.302  10.149  0.3721 -0.6936 -0.1277
25606SOL    HW181274   1.917   0.378  10.195 -0.7299 -0.1848 -1.7267
25606SOL    HW281275   1.883   0.237  10.152  0.8039 -1.1522  0.0807
25607SOL     OW81276  10.410   6.929   2.864 -0.0804  0.5487  0.1476
25607SOL    HW181277  10.379   6.894   2.947  1.2875 -1.8594 -0.2588
25607SOL    HW281278  10.332   6.929   2.807 -0.7787  1.2063  1.0660
25608SOL     OW81279   7.866   1.154   5.440 -0.3456 -0.3197 -0.1352
25608SOL    HW181280   7.943   1.210   5.434 -1.3147  0.9806 -1.1749
25608SOL    HW281281   7.792   1.213   5.422 -1.4279 -1.8854 -1.0838
25609SOL     OW81282   4.618   9.325   1.198  0.5671  0.0985 -0.6587
25609SOL    HW181283   4.530   9.350   1.226  0.6049 -0.3864 -0.0657
25609SOL    HW281284   4.649   9.267   1.268  1.6179  0.7932 -0.5350
25610SOL     OW81285   7.843   6.368   9.682  0.2766 -0.6379  0.0807
25610SOL    HW181286   7.759   6.373   9.727  0.4563 -0.7484  0.4305
25610SOL    HW281287   7.874   6.279   9.696 -0.4237 -1.2045 -1.6513
25611SOL     OW81288   6.632   4.963   7.972  0.2632 -0.3202  0.3394
25611SOL    HW181289   6.708   5.019   7.989  1.3812 -1.4803 -0.6717
25611SOL    HW281290   6.586   5.007   7.900 -0.1422  0.4845  1.0791
25612SOL     OW81291   4.221   0.063   0.507 -0.0702 -0.1307  0.2120
25612SOL    HW181292   4.278   0.080   0.582 -0.1520  0.8988  0.0556
25612SOL    HW281293   4.133   0.083   0.539 -0.1362  0.0307 -0.0645
25613SOL     OW81294   3.111   5.380   3.619  0.0829 -0.1687 -0.1727
25613SOL    HW181295   3.038   5.406   3.675 -0.1442 -0.1311 -0.4897
25613SOL    HW281296   3.188   5.385   3.677 -0.1870 -0.3813  0.2038
25614SOL     OW81297   5.562   1.256   6.919  0.2476  0.5380 -0.0484
25614SOL    HW181298   5.489   1.311   6.948 -0.2057 -0.4797  0.8084
25614SOL    HW281299   5.639   1.294   6.961 -0.1820  0.0434  1.2454
25615SOL     OW81300   4.072   6.091  10.040 -0.2078 -0.0720 -0.1717
25615SOL    HW181301   4.137   6.126   9.980  0.5958 -0.7859  0.2515
25615SOL    HW281302   4.053   6.163  10.100  0.1579  0.1569 -0.3306
25616SOL     OW81303   7.373  10.449   0.807 -0.2383  0.1232 -0.8398
25616SOL    HW181304   7.320  10.510   0.858  0.8409 -1.9802  3.2315
25616SOL    HW281305   7.320  10.430   0.729 -1.7113  4.1135 -1.0495
25617SOL     OW81306   9.656   1.026   1.963 -0.1665  0.3246  0.3372
25617SOL    HW181307   9.672   0.997   2.053  0.3330  2.1541  0.8760
25617SOL    HW281308   9.738   1.068   1.936 -0.5247  0.3680 -0.7516
25618SOL     OW81309   4.671   9.520   9.768 -0.1096 -0.0917  0.7184
25618SOL    HW181310   4.767   9.519   9.771 -0.0158  2.3685  0.0964
25618SOL    HW281311   4.646   9.592   9.825 -1.5609 -0.1327  0.1662
25619SOL     OW81312   9.422   1.307   8.322  0.3153  0.7372  0.1503
25619SOL    HW181313   9.461   1.375   8.267 -0.2257  1.9332  1.1725
25619SOL    HW281314   9.335   1.293   8.284  0.4308  0.5973 -0.0664
25620SOL     OW81315  10.507   0.902   7.508 -0.2057 -0.2483  0.4284
25620SOL    HW181316  10.433   0.841   7.498 -1.9819  2.0218 -1.5945
25620SOL    HW281317  10.585   0.847   7.504 -1.6810 -2.3534 -2.2859
25621SOL     OW81318   9.893   2.986   7.609  0.5613  0.0991  0.7340
25621SOL    HW181319   9.846   3.010   7.529 -1.4699  2.3475  2.4611
25621SOL    HW281320   9.980   3.025   7.597  0.6883 -0.5756 -0.8157
25622SOL     OW81321   5.044   1.215   1.649  0.4802  0.5023  0.4484
25622SOL    HW181322   5.131   1.174   1.647  0.5591  0.5066  2.1391
25622SOL    HW281323   5.007   1.196   1.563  1.2828 -1.4630  0.4746
25623SOL     OW81324   3.437   1.584   4.036 -0.9255  0.1778  0.0225
25623SOL    HW181325   3.515   1.609   4.086 -0.6674 -0.9421  0.2141
25623SOL    HW281326   3.466   1.509   3.983 -2.1625 -1.0587  1.0085
25624SOL     OW81327   4.322   1.274   4.549 -0.4947 -0.3887  0.3033
25624SOL    HW181328   4.394   1.282   4.612 -0.9698 -1.4284  1.0058
25624SOL    HW281329   4.268   1.351   4.564 -0.5741 -0.5981  1.1411
25625SOL     OW81330   9.557   2.808   2.127 -0.0009  0.0577 -0.4655
25625SOL    HW181331   9.507   2.726   2.117 -1.0682  0.4361  1.3472
25625SOL    HW281332   9.607   2.815   2.046 -1.1281 -1.5578 -1.3669
25626SOL     OW81333   5.047   7.010   7.543  0.5768  0.4278  0.0497
25626SOL    HW181334   5.073   6.980   7.630 -0.1067 -1.5592 -0.3617
25626SOL    HW281335   4.991   7.085   7.559 -0.1308 -0.3450  1.3858
25627SOL     OW81336   6.252   1.253   2.429 -0.4956 -0.4981  0.2898
25627SOL    HW181337   6.307   1.240   2.352  1.1376 -0.5409  1.4166
25627SOL    HW281338   6.181   1.190   2.418  0.2982 -1.2680 -0.6553
25628SOL     OW81339   3.916   0.964   5.707 -0.1193 -0.6224  0.0943
25628SOL    HW181340   3.972   0.986   5.781  1.2276  0.3574 -1.1682
25628SOL    HW281341   3.943   1.023   5.638 -0.2265 -2.5617 -1.7114
25629SOL     OW81342   9.550   2.428   7.121  0.0581  0.2332  0.2085
25629SOL    HW181343   9.558   2.481   7.200 -0.8636 -0.4644  0.7922
25629SOL    HW281344   9.459   2.439   7.094 -0.5190 -2.0026  1.0625
25630SOL     OW81345   5.286   2.685   3.346 -0.4088 -0.0590 -0.1106
25630SOL    HW181346   5.346   2.612   3.361 -0.2943 -0.3627 -1.8832
25630SOL    HW281347   5.201   2.643   3.332 -1.0763  0.3554  2.1371
25631SOL     OW81348  10.556   7.616   9.854  0.5634 -0.2642  0.5721
25631SOL    HW181349  10.561   7.538   9.799  0.7864 -0.2577  0.5844
25631SOL    HW281350  10.645   7.650   9.856  0.1492  1.0069 -0.8742
25632SOL     OW81351   0.116   6.474   4.707 -0.1211  0.1837  0.5155
25632SOL    HW181352   0.046   6.536   4.687  0.3134  0.0742 -1.5739
25632SOL    HW281353   0.178   6.485   4.635  1.9368  0.1256  2.1865
25633SOL     OW81354   6.191   7.318   8.673  0.9291 -0.9117  0.8110
25633SOL    HW181355   6.264   7.363   8.716  0.7089  1.1969 -0.8317
25633SOL    HW281356   6.227   7.287   8.590  0.1354 -0.3193  0.2185
25634SOL     OW81357   7.165   1.415   4.419 -0.2190 -0.2190 -0.0520
25634SOL    HW181358   7.072   1.419   4.438  0.0201  0.0507  1.1320
25634SOL    HW281359   7.205   1.377   4.498  0.8519  1.2399  0.1547
25635SOL     OW81360  10.197  10.172   6.838 -0.0368  0.2001  0.1675
25635SOL    HW181361  10.234  10.260   6.834 -0.1053  0.2666  0.8500
25635SOL    HW281362  10.270  10.114   6.818 -0.1306  0.4269 -0.9228
25636SOL     OW81363   2.808   3.738   5.631 -0.3462 -0.1135  0.1426
25636SOL    HW181364   2.759   3.731   5.549  0.3084  1.6724 -0.4504
25636SOL    HW281365   2.895   3.703   5.610 -0.9679 -2.2516  0.8889
25637SOL     OW81366   1.701  10.510   3.555 -0.4664 -0.4135 -1.0076
25637SOL    HW181367   1.699  10.503   3.650 -0.1886  0.5758 -0.9268
25637SOL    HW281368   1.757  10.438   3.527 -0.8599 -0.9449 -0.4542
25638SOL     OW81369   0.042   2.872   7.505 -0.3459 -0.0827 -0.0619
25638SOL    HW181370  -0.036   2.927   7.511 -0.7438 -0.6312 -0.1596
25638SOL    HW281371   0.114   2.930   7.531 -0.6252  0.7627 -1.1074
25639SOL     OW81372   9.052   2.901   5.909  0.5424  0.0013 -0.3362
25639SOL    HW181373   9.126   2.961   5.906  0.2245  0.3633 -1.7106
25639SOL    HW281374   9.034   2.880   5.817 -0.1169 -1.2547  0.0513
25640SOL     OW81375   9.639   9.699   8.914  0.0327  0.5642  0.0870
25640SOL    HW181376   9.728   9.734   8.919  0.5003 -0.3918 -1.1098
25640SOL    HW281377   9.606   9.731   8.830 -0.7658  0.9173  0.5280
25641SOL     OW81378   3.065   7.023   8.307 -0.7305 -0.2210 -0.3326
25641SOL    HW181379   2.980   7.054   8.274 -0.5087 -0.4435 -1.1357
25641SOL    HW281380   3.129   7.070   8.254 -0.2702  1.3399  1.4713
25642SOL     OW81381   5.833   5.955   3.855 -0.1256 -0.3146  0.2044
25642SOL    HW181382   5.810   5.995   3.939  0.7726 -0.4644  0.5343
25642SOL    HW281383   5.856   6.029   3.799 -1.0510 -0.1894 -0.0274
25643SOL     OW81384  10.354   1.623   4.495 -0.0578 -0.1216 -0.2030
25643SOL    HW181385  10.442   1.597   4.470  1.6004  2.4506  2.3542
25643SOL    HW281386  10.320   1.671   4.420  0.1391 -2.1552 -1.6748
25644SOL     OW81387  10.108   0.648   5.863  0.4663  0.3235  0.1307
25644SOL    HW181388  10.038   0.650   5.929  1.8455 -1.5793  1.7938
25644SOL    HW281389  10.101   0.562   5.822  0.9493  0.6642 -0.6982
25645SOL     OW81390   1.575   5.260   2.996 -0.7200 -0.4245 -0.1537
25645SOL    HW181391   1.559   5.330   2.932 -1.1667 -0.4252 -0.0455
25645SOL    HW281392   1.535   5.183   2.958 -1.5249 -0.2906  0.4002
25646SOL     OW81393   7.471   6.577   1.227  0.2281  0.1080  0.4007
25646SOL    HW181394   7.417   6.580   1.306 -1.7544 -1.8541 -0.7489
25646SOL    HW281395   7.411   6.546   1.159  2.2340  0.2784 -1.5433
25647SOL     OW81396   7.816   6.485   1.425  0.3645  0.1419  0.3191
25647SOL    HW181397   7.867   6.494   1.505  2.1143 -0.9924 -0.5908
25647SOL    HW281398   7.841   6.561   1.372  2.3471 -1.1121 -0.6979
25648SOL     OW81399   6.049   8.347   0.450  0.2253  0.3896  0.2279
25648SOL    HW181400   6.077   8.400   0.376  0.3907  0.3692  0.2745
25648SOL    HW281401   6.083   8.393   0.527 -0.6118  0.8284  0.3439
25649SOL     OW81402  10.931   8.753   3.939 -0.2099  0.1642  0.2206
25649SOL    HW181403  10.960   8.710   4.020  1.7170  1.0482  0.0495
25649SOL    HW281404  10.846   8.792   3.962  0.5391  0.8562  2.0080
25650SOL     OW81405   3.898  11.052   4.663  0.3085  0.0704 -0.6262
25650SOL    HW181406   3.813  11.068   4.622 -0.2542 -1.2681 -0.0399
25650SOL    HW281407   3.959  11.046   4.589 -0.7613 -2.7811 -1.4037
25651SOL     OW81408   9.537   8.679   7.034 -0.0684 -0.0912  0.6992
25651SOL    HW181409   9.618   8.635   7.011 -0.2107 -0.2742  0.5444
25651SOL    HW281410   9.547   8.767   6.998 -1.0958 -0.9230 -1.9309
25652SOL     OW81411  10.710   1.580   4.217  0.2200 -0.2162 -0.0186
25652SOL    HW181412  10.729   1.499   4.170  2.2474 -0.5372  1.2526
25652SOL    HW281413  10.671   1.552   4.300 -0.2790  0.1901 -0.1076
25653SOL     OW81414   6.934   2.552   4.674 -0.3059  0.4214 -0.4856
25653SOL    HW181415   6.876   2.556   4.749 -0.3775  2.2005 -0.6099
25653SOL    HW281416   7.019   2.529   4.711 -0.6614 -0.2396 -0.0638
25654SOL     OW81417   6.507   6.570   2.698 -0.4589  0.2910 -0.2289
25654SOL    HW181418   6.492   6.607   2.786  0.4705  1.2135 -0.4341
25654SOL    HW281419   6.421   6.538   2.671 -0.5269 -1.2011  1.5318
25655SOL     OW81420   6.248  10.539   1.859 -0.2074 -0.3220  0.0506
25655SOL    HW181421   6.189  10.612   1.877  0.5934  0.1998  0.6156
25655SOL    HW281422   6.193  10.474   1.815 -0.8205  0.8076 -0.8901
25656SOL     OW81423   1.623   7.452   7.197 -0.3467 -0.0768 -0.4919
25656SOL    HW181424   1.627   7.542   7.164 -1.1147  0.0824 -0.1771
25656SOL    HW281425   1.552   7.454   7.262  0.5112 -0.6019  0.4749
25657SOL     OW81426   2.997   9.755   6.532 -0.3189 -0.5083  0.2103
25657SOL    HW181427   3.027   9.695   6.464 -2.5038 -0.2152 -1.1188
25657SOL    HW281428   3.012   9.842   6.496  1.3090 -0.2369  1.4357
25658SOL     OW81429   6.333   5.158   6.791  0.3377  0.6388  0.2995
25658SOL    HW181430   6.240   5.133   6.795  0.0178  1.7414  0.3099
25658SOL    HW281431   6.374   5.111   6.863 -0.5888  1.5213  1.4491
25659SOL     OW81432   0.501   5.470   7.080 -0.1736  0.5938  0.4594
25659SOL    HW181433   0.452   5.395   7.047 -1.9385  1.7925  0.2629
25659SOL    HW281434   0.567   5.487   7.013  0.0527 -0.5827  0.3646
25660SOL     OW81435   2.498   0.884   3.599 -0.6369  0.3615 -0.3109
25660SOL    HW181436   2.408   0.885   3.632 -0.2699 -0.3610  0.7739
25660SOL    HW281437   2.549   0.928   3.667 -0.1396  0.6342 -0.8472
25661SOL     OW81438   4.238   3.780   5.499  0.0276  0.0302 -0.2558
25661SOL    HW181439   4.197   3.703   5.540 -0.7627 -0.2328 -1.4765
25661SOL    HW281440   4.326   3.750   5.475 -0.0779 -0.3191 -0.2182
25662SOL     OW81441   5.889   1.630  10.749 -0.0853  0.4049  0.0837
25662SOL    HW181442   5.801   1.664  10.732 -0.5587 -1.1527 -0.8205
25662SOL    HW281443   5.876   1.536  10.761  1.4201  0.2118  0.3710
25663SOL     OW81444   8.621   6.644   8.859 -0.2603 -0.7303  0.6381
25663SOL    HW181445   8.695   6.625   8.917  0.5686 -0.7453 -0.3779
25663SOL    HW281446   8.553   6.678   8.916  0.8162  0.0314  1.5098
25664SOL     OW81447   3.456   7.441   8.495 -0.2302 -0.6983  0.2810
25664SOL    HW181448   3.494   7.461   8.580  1.6113  1.2352 -0.9164
25664SOL    HW281449   3.398   7.515   8.476  0.9294 -0.0588 -0.9685
25665SOL     OW81450   1.937   1.527   2.257 -0.1812 -0.1556 -0.8140
25665SOL    HW181451   1.985   1.590   2.311 -1.5492  0.1696  0.0701
25665SOL    HW281452   1.882   1.581   2.201 -0.8278 -0.5433 -0.5613
25666SOL     OW81453   4.393   1.480  10.260 -0.5541 -0.0560  0.0007
25666SOL    HW181454   4.443   1.507  10.184 -0.2411 -1.2674 -0.2365
25666SOL    HW281455   4.400   1.385  10.262 -0.8063 -0.0762  1.3673
25667SOL     OW81456   7.973   4.101   6.978 -0.1584 -0.4520 -0.3981
25667SOL    HW181457   7.971   4.019   6.929 -1.1965 -1.2645  0.9414
25667SOL    HW281458   7.946   4.077   7.067  0.7913  1.1258  0.3624
25668SOL     OW81459   8.511   1.720  10.222  0.3576  0.5424  0.2903
25668SOL    HW181460   8.517   1.808  10.184 -0.6138 -0.0111 -1.2331
25668SOL    HW281461   8.422   1.690  10.202 -0.0998  0.0287  2.7218
25669SOL     OW81462   5.838   8.173   2.564  0.3782 -0.1898  0.0700
25669SOL    HW181463   5.804   8.235   2.498  0.0783 -2.0328 -1.6094
25669SOL    HW281464   5.907   8.125   2.518  1.1787 -0.5605  1.5996
25670SOL     OW81465   7.107   4.249   1.587  0.4298  0.1063 -0.6939
25670SOL    HW181466   7.144   4.170   1.626 -0.3621 -0.4017 -0.9387
25670SOL    HW281467   7.104   4.312   1.660  2.1369  0.3218 -0.7687
25671SOL     OW81468   4.484   7.765   8.667 -0.4972  0.5587 -0.1076
25671SOL    HW181469   4.565   7.732   8.706 -1.2258 -1.6728 -0.3469
25671SOL    HW281470   4.487   7.859   8.684  1.5595  0.3801  0.9481
25672SOL     OW81471   6.474   5.163   3.507  0.5366  0.4600  0.1967
25672SOL    HW181472   6.432   5.248   3.512  0.6517  0.4785  0.9337
25672SOL    HW281473   6.551   5.170   3.564 -0.2694 -0.5828  1.4898
25673SOL     OW81474   8.219  10.341   2.892  0.5317  0.9771 -0.9453
25673SOL    HW181475   8.315  10.337   2.883  0.5765 -1.3635 -0.1268
25673SOL    HW281476   8.204  10.407   2.960  1.6609  0.4413 -0.1416
25674SOL     OW81477   3.049   2.974   1.948 -0.0550 -0.0984 -0.1784
25674SOL    HW181478   3.077   2.883   1.934  1.8377  0.5249 -0.8451
25674SOL    HW281479   2.966   2.981   1.902  0.5153 -1.1177 -1.4339
25675SOL     OW81480   0.492   9.421  10.552 -0.2704  0.4166 -0.2120
25675SOL    HW181481   0.455   9.509  10.563  2.4906  1.5027  1.2667
25675SOL    HW281482   0.534   9.423  10.466  1.5990  1.3612  0.6592
25676SOL     OW81483   4.393   8.007   8.319 -0.2889  0.0704 -0.3893
25676SOL    HW181484   4.325   7.955   8.276 -0.0680 -1.8020  1.3456
25676SOL    HW281485   4.475   7.974   8.283 -0.2032  0.7477 -0.8337
25677SOL     OW81486   9.870  11.057   9.047  0.3677 -0.1937  0.5293
25677SOL    HW181487   9.937  10.992   9.065  0.3571 -1.0143 -1.9621
25677SOL    HW281488   9.801  11.009   9.002 -1.3391  0.8769  1.8898
25678SOL     OW81489   9.486   1.533  10.204 -0.0612 -0.3667 -0.1013
25678SOL    HW181490   9.487   1.521  10.299 -2.6799 -0.9024 -0.0453
25678SOL    HW281491   9.450   1.621  10.191 -3.2281 -1.5647 -0.4770
25679SOL     OW81492   9.464   0.850   9.034  0.0508 -0.2120  0.2934
25679SOL    HW181493   9.409   0.774   9.015 -0.3740  0.0044  0.6333
25679SOL    HW281494   9.418   0.924   8.994  0.6004 -0.1714 -0.2662
25680SOL     OW81495   7.869   5.099   9.687 -0.1039 -0.4888 -0.1410
25680SOL    HW181496   7.922   5.102   9.607  0.9523 -2.4193  0.4378
25680SOL    HW281497   7.831   5.011   9.687 -0.4303 -0.3640  1.2844
25681SOL     OW81498   2.012   8.136   5.422 -0.0623 -0.2012  0.9209
25681SOL    HW181499   2.009   8.044   5.445  0.7734  0.0474  2.1315
25681SOL    HW281500   2.105   8.154   5.408  0.2170  1.1033  3.7210
25682SOL     OW81501   8.553   1.406   2.351  0.0966  0.4275  0.0031
25682SOL    HW181502   8.568   1.496   2.379 -1.3179  0.7893 -0.3371
25682SOL    HW281503   8.474   1.410   2.297  0.4198 -0.9078 -0.6183
25683SOL     OW81504   8.261   4.324   6.689 -0.0803  0.0447  0.1934
25683SOL    HW181505   8.352   4.347   6.705  0.5410 -2.1951  0.1698
25683SOL    HW281506   8.235   4.378   6.614  1.1311  0.8465  0.3259
25684SOL     OW81507   6.431   8.031   7.288 -0.1189 -0.1814  0.1788
25684SOL    HW181508   6.361   8.054   7.348  0.2592 -0.1709  0.6222
25684SOL    HW281509   6.493   7.981   7.341  0.7001  0.6681  0.0554
25685SOL     OW81510   1.454   1.575   1.673 -0.1063  0.0020  0.3674
25685SOL    HW181511   1.539   1.560   1.714  0.9769  1.9521 -1.0100
25685SOL    HW281512   1.419   1.651   1.719 -0.5412 -0.0217  0.0761
25686SOL     OW81513   7.902   6.853   5.273  0.0761 -0.1993  0.1638
25686SOL    HW181514   7.936   6.764   5.279 -0.1159 -0.3577 -0.9005
25686SOL    HW281515   7.905   6.873   5.179  0.4215  1.0373  0.4237
25687SOL     OW81516   8.323   0.882  10.848  0.0988 -0.3308 -0.1484
25687SOL    HW181517   8.392   0.821  10.872  2.0832  1.7813 -0.1523
25687SOL    HW281518   8.277   0.900  10.930  1.8326  0.8835  0.6076
25688SOL     OW81519   6.687   3.391   8.545  0.0866 -0.0518  0.2578
25688SOL    HW181520   6.764   3.334   8.551  0.9903  1.0278 -0.7145
25688SOL    HW281521   6.695   3.434   8.460 -0.8477  1.1314  0.7418
25689SOL     OW81522  10.618  10.202   1.640  0.4855  0.0557  0.6516
25689SOL    HW181523  10.666  10.243   1.712  1.7893  0.9493 -0.6847
25689SOL    HW281524  10.527  10.229   1.653  0.8788  1.0827  1.3569
25690SOL     OW81525  10.464  10.206   5.047 -0.3850  0.1453  0.7289
25690SOL    HW181526  10.488  10.165   4.965 -1.0428 -0.4621  0.8241
25690SOL    HW281527  10.520  10.283   5.054  1.5202 -1.2186  0.9773
25691SOL     OW81528  10.010   4.319   4.880  0.3418  0.4856 -0.2710
25691SOL    HW181529   9.993   4.229   4.854  0.6513  0.8938 -1.9738
25691SOL    HW281530   9.975   4.372   4.809 -0.3669  1.7620  0.9686
25692SOL     OW81531   6.859   9.991   2.823 -0.3481  0.2189  0.1301
25692SOL    HW181532   6.801   9.924   2.788  0.1322 -0.5841  0.8240
25692SOL    HW281533   6.861   9.975   2.918  0.2165  0.8512  0.2388
25693SOL     OW81534   9.377   2.050   0.281 -0.0390  0.2144  0.2704
25693SOL    HW181535   9.296   2.073   0.327 -0.0409 -1.2645  1.0684
25693SOL    HW281536   9.346   2.003   0.203  0.0231  0.8536 -0.1434
25694SOL     OW81537   1.465   3.381   5.605  0.0579 -0.1583  0.2162
25694SOL    HW181538   1.542   3.365   5.551 -0.3477 -1.7008  0.0444
25694SOL    HW281539   1.401   3.418   5.544  0.8686  1.8791  0.5218
25695SOL     OW81540   7.716   6.025   3.060  0.3457 -0.2610  0.1884
25695SOL    HW181541   7.673   6.063   3.137  1.5703  0.0580  0.7259
25695SOL    HW281542   7.753   6.100   3.014  1.1506 -0.6138  0.2499
25696SOL     OW81543   3.475   3.474   3.076  0.1611 -0.2706 -0.0529
25696SOL    HW181544   3.520   3.404   3.123  0.2416 -0.7089 -0.7779
25696SOL    HW281545   3.409   3.505   3.138  0.5076 -0.5839  0.4889
25697SOL     OW81546   7.715   8.046   9.614 -0.1132 -0.0753  0.3956
25697SOL    HW181547   7.782   7.985   9.645 -1.1868 -1.1231  0.7520
25697SOL    HW281548   7.697   8.017   9.524  0.3000  0.5643  0.0974
25698SOL     OW81549  10.879   0.612   5.707 -0.6866 -0.0604  0.4248
25698SOL    HW181550  10.820   0.620   5.782 -1.1402 -0.0600  0.0755
25698SOL    HW281551  10.832   0.555   5.646  0.6286 -1.9053  1.0506
25699SOL     OW81552   7.806   1.666   9.031 -0.1497 -0.3642 -0.4977
25699SOL    HW181553   7.815   1.760   9.019  1.4961 -0.7408 -2.8377
25699SOL    HW281554   7.875   1.643   9.094 -0.1077 -0.0956 -0.4453
25700SOL     OW81555   9.075  10.028   9.440 -0.1417  0.0705  0.3276
25700SOL    HW181556   9.093   9.976   9.362  1.2188 -0.3418  0.8929
25700SOL    HW281557   8.997  10.079   9.417  0.0887 -0.2180 -1.2095
25701SOL     OW81558   4.754   6.916   3.297 -0.2298  0.7157  0.3767
25701SOL    HW181559   4.760   6.953   3.209  0.5712 -0.1416  0.0482
25701SOL    HW281560   4.837   6.940   3.339  1.6028 -2.8334 -0.7648
25702SOL     OW81561   5.535   2.806   2.283 -0.1971  0.2526 -0.2354
25702SOL    HW181562   5.605   2.816   2.348  0.5598 -0.1721 -0.9686
25702SOL    HW281563   5.469   2.752   2.327 -0.3801  1.2137  0.6982
25703SOL     OW81564   7.021   4.842   7.616 -0.6795 -0.0717  0.4494
25703SOL    HW181565   6.972   4.763   7.596 -1.9833  0.8697 -0.2234
25703SOL    HW281566   6.954   4.908   7.635  0.3261  1.1897 -0.2308
25704SOL     OW81567   5.004  10.995   7.351 -0.5940 -0.0818 -0.5332
25704SOL    HW181568   5.093  10.999   7.317 -0.2240 -1.8623  0.0791
25704SOL    HW281569   4.959  11.069   7.312  0.0336 -1.4236 -4.1538
25705SOL     OW81570   1.876   2.500   1.200  0.0350 -0.0758  0.3892
25705SOL    HW181571   1.967   2.518   1.177  0.2043  1.1875  1.8516
25705SOL    HW281572   1.826   2.572   1.160 -0.6200 -1.7080 -1.9277
25706SOL     OW81573  10.698   3.586   4.218  0.2787 -0.2882 -0.0719
25706SOL    HW181574  10.779   3.536   4.225  0.5339 -0.2827 -2.3839
25706SOL    HW281575  10.698   3.621   4.129 -2.1902 -0.1597 -0.1021
25707SOL     OW81576   5.606   3.715  11.007 -0.0467 -0.5102  0.4388
25707SOL    HW181577   5.519   3.721  10.967 -0.2892  1.1786  1.1483
25707SOL    HW281578   5.656   3.787  10.968  1.9288 -2.9497 -1.8982
25708SOL     OW81579   6.475   1.654  11.062 -0.0242  0.6117 -0.4701
25708SOL    HW181580   6.522   1.584  11.016 -1.7467 -0.6435 -0.4084
25708SOL    HW281581   6.399   1.673  11.007 -0.9118  0.6669  0.7219
25709SOL     OW81582   6.546   3.212   1.918  0.0248  0.1867 -0.0512
25709SOL    HW181583   6.464   3.217   1.968  0.1992  1.4893  0.1464
25709SOL    HW281584   6.613   3.245   1.978  0.4531  0.5174 -0.6948
25710SOL     OW81585   8.243   6.160   8.923  0.2935  0.1787 -0.4335
25710SOL    HW181586   8.206   6.245   8.900 -0.3351 -0.3849 -1.5786
25710SOL    HW281587   8.260   6.117   8.839  1.4591 -0.4762  0.1117
25711SOL     OW81588   1.289  10.950   2.923  0.3846 -0.5887 -0.5822
25711SOL    HW181589   1.331  10.864   2.927  1.2939 -0.1272  0.1174
25711SOL    HW281590   1.343  11.000   2.862 -1.0174 -0.9529 -2.1883
25712SOL     OW81591   3.927  10.310   5.594  0.0634 -0.8834 -0.2372
25712SOL    HW181592   3.873  10.344   5.666 -0.7289 -0.6455 -0.9260
25712SOL    HW281593   3.880  10.336   5.515  0.4190 -1.9993 -0.8255
25713SOL     OW81594   6.830   6.391   8.465 -0.7716 -0.0920 -0.7139
25713SOL    HW181595   6.840   6.368   8.373 -1.2183 -1.7706 -0.3771
25713SOL    HW281596   6.762   6.459   8.465 -0.1987  0.5127 -1.6615
25714SOL     OW81597   3.527   2.174   8.325  0.2488 -0.0758  0.1056
25714SOL    HW181598   3.518   2.160   8.419 -0.0141 -2.4616 -0.2086
25714SOL    HW281599   3.500   2.265   8.311 -3.9004 -0.7993  1.8192
25715SOL     OW81600   3.714   7.992   4.305 -0.3195 -0.0804 -0.0497
25715SOL    HW181601   3.746   7.916   4.256 -0.8608  0.3451 -1.1149
25715SOL    HW281602   3.660   7.955   4.374 -0.0650 -0.6856 -0.1660
25716SOL     OW81603  10.863  10.308   4.518  0.4615  0.0819  0.7326
25716SOL    HW181604  10.890  10.320   4.609 -0.7038 -1.6518  1.3482
25716SOL    HW281605  10.920  10.238   4.485  0.5756  0.3909  0.2630
25717SOL     OW81606   3.807   4.425   8.419 -0.4702  0.1107  0.2392
25717SOL    HW181607   3.770   4.368   8.486  2.5415 -0.1803  1.8230
25717SOL    HW281608   3.811   4.511   8.459 -2.9164  1.0698 -1.3488
25718SOL     OW81609   9.000   4.176   6.484  0.1388  0.0285 -0.0597
25718SOL    HW181610   8.909   4.200   6.471  0.5279  1.7719  0.2263
25718SOL    HW281611   8.997   4.108   6.552 -0.8239  1.6279  1.5805
25719SOL     OW81612   8.460   8.046   9.144  0.4203  0.2581  0.0653
25719SOL    HW181613   8.443   7.952   9.144 -2.9854  0.7042  1.9190
25719SOL    HW281614   8.428   8.076   9.058  1.4139 -0.2338 -0.4845
25720SOL     OW81615   9.784   3.974  10.788 -0.7305 -0.3373  0.6706
25720SOL    HW181616   9.761   3.886  10.819  0.7609 -1.4465 -1.1781
25720SOL    HW281617   9.761   4.032  10.861 -2.1497 -2.1894  1.7802
25721SOL     OW81618   6.031   6.396   0.274 -0.3892 -0.4244 -0.3133
25721SOL    HW181619   6.004   6.482   0.308 -1.5318 -0.8023 -0.2085
25721SOL    HW281620   6.119   6.411   0.240  1.3838 -0.2247  3.7015
25722SOL     OW81621  10.273   9.385   1.748  0.2329  0.0906 -0.0049
25722SOL    HW181622  10.229   9.302   1.732  0.5151 -0.1252  0.3163
25722SOL    HW281623  10.327   9.399   1.670  0.3384 -0.1312  0.0265
25723SOL     OW81624   4.163   5.361   0.575  0.2058  0.3120 -0.0327
25723SOL    HW181625   4.143   5.399   0.661 -1.9365  0.2233 -0.4237
25723SOL    HW281626   4.171   5.268   0.591 -0.0882  0.3080  0.1113
25724SOL     OW81627   1.256   7.493   1.696 -0.3718 -0.0595 -0.2388
25724SOL    HW181628   1.257   7.571   1.641 -1.1424  0.8164  0.9531
25724SOL    HW281629   1.195   7.433   1.652 -0.3305  0.2894 -0.7763
25725SOL     OW81630   6.633  10.757   1.235  0.2852  0.2332  0.1913
25725SOL    HW181631   6.574  10.701   1.184 -0.4534  1.6335 -0.5515
25725SOL    HW281632   6.620  10.728   1.326 -0.3465 -0.5472 -0.1309
25726SOL     OW81633   0.283   8.558   9.030 -0.5324  0.2223  0.4269
25726SOL    HW181634   0.307   8.507   8.953  0.3264 -1.0537  1.4989
25726SOL    HW281635   0.230   8.498   9.083 -0.1217  0.6812  1.3751
25727SOL     OW81636   5.893   8.469   8.642  0.4479  0.0861  0.2761
25727SOL    HW181637   5.960   8.486   8.709  0.1842  0.7344  0.3779
25727SOL    HW281638   5.814   8.511   8.675  0.5102  1.1164 -0.8031
25728SOL     OW81639   3.995   8.597   2.206 -0.5287 -0.6869  0.1784
25728SOL    HW181640   3.984   8.691   2.223  1.3398 -0.5759  1.0622
25728SOL    HW281641   3.966   8.555   2.287  2.3069 -0.5619  1.3747
25729SOL     OW81642   2.788   7.251  10.120  0.4210  0.2803  0.0673
25729SOL    HW181643   2.855   7.223  10.181  0.7174  1.8914  0.5373
25729SOL    HW281644   2.716   7.281  10.175  0.3069  0.8403 -0.3745
25730SOL     OW81645   5.502   9.445   0.589  0.8851  0.2414  0.0054
25730SOL    HW181646   5.593   9.463   0.611  1.4191 -0.3547 -1.5291
25730SOL    HW281647   5.502   9.437   0.493 -0.3952 -1.7127  0.1133
25731SOL     OW81648   1.563   3.472   3.074  0.5369  0.1744  0.0334
25731SOL    HW181649   1.489   3.518   3.113  2.1275  1.7692  1.3716
25731SOL    HW281650   1.603   3.425   3.147  0.6817 -0.9212 -0.7349
25732SOL     OW81651   4.204   8.137   1.201 -0.0702 -0.0446  0.2305
25732SOL    HW181652   4.292   8.100   1.195  1.5342  3.6609 -3.6341
25732SOL    HW281653   4.162   8.113   1.118 -2.7258 -1.4253  1.8378
25733SOL     OW81654   2.296  10.011   2.967 -0.4101  0.0844 -0.0209
25733SOL    HW181655   2.282   9.921   2.937 -1.6630  0.2613 -0.0261
25733SOL    HW281656   2.371  10.006   3.025 -0.9740 -1.1204  0.6256
25734SOL     OW81657   8.968  10.654   5.287 -0.4762 -0.4088 -0.5166
25734SOL    HW181658   8.895  10.716   5.292 -0.3044 -0.1249 -1.3302
25734SOL    HW281659   9.026  10.691   5.220 -1.0695 -2.1589 -2.0707
25735SOL     OW81660   0.786   9.694   1.386  0.4082 -0.2531 -0.3403
25735SOL    HW181661   0.817   9.604   1.390 -0.4386 -0.5255  1.2498
25735SOL    HW281662   0.691   9.686   1.375  0.3529  0.4481 -0.4250
25736SOL     OW81663  10.528   8.991   9.973  0.5406  0.1264  0.2681
25736SOL    HW181664  10.486   9.036  10.046 -0.6151 -0.3166 -0.1010
25736SOL    HW281665  10.474   8.913   9.959  2.0246 -0.9795  0.3787
25737SOL     OW81666   7.939   3.104   4.147  0.0384 -0.3457 -0.2915
25737SOL    HW181667   7.955   3.061   4.063 -0.3071 -0.4928 -0.2845
25737SOL    HW281668   7.847   3.086   4.166  0.4737 -1.5488  0.8147
25738SOL     OW81669   5.021   6.598  10.143 -0.0050 -0.3027 -0.6801
25738SOL    HW181670   5.044   6.618  10.052  1.6033 -0.6903 -0.3896
25738SOL    HW281671   5.067   6.516  10.161  0.4778  0.2672  0.7863
25739SOL     OW81672  10.313   1.639   3.923  0.3400  0.0425  0.1505
25739SOL    HW181673  10.335   1.649   3.830 -0.1606  0.0763  0.0312
25739SOL    HW281674  10.225   1.601   3.922  0.3406  0.0279  0.6131
25740SOL     OW81675   4.769   6.557  10.097  0.2905  0.2853  0.1445
25740SOL    HW181676   4.764   6.501  10.020  0.1518 -0.6349  0.7952
25740SOL    HW281677   4.861   6.585  10.100  0.2586  0.4631 -0.4373
25741SOL     OW81678   1.905   5.368   8.888  0.1939 -0.0216  0.5455
25741SOL    HW181679   1.979   5.384   8.829 -0.3095  1.2974  0.2377
25741SOL    HW281680   1.834   5.421   8.852 -0.6204 -0.4935  1.4102
25742SOL     OW81681   9.457   2.666   5.325 -0.1299 -0.1881  0.1100
25742SOL    HW181682   9.460   2.724   5.248  2.0985 -0.0469  0.2532
25742SOL    HW281683   9.439   2.725   5.398 -0.4628 -0.0649 -0.0661
25743SOL     OW81684   8.559   0.913   1.402  0.8839 -0.2600  0.1733
25743SOL    HW181685   8.651   0.928   1.423  0.7814 -1.4651  1.6864
25743SOL    HW281686   8.529   0.995   1.363  2.0797  0.8652  1.5123
25744SOL     OW81687  10.837   3.591   2.004 -0.0706  0.2054  0.3527
25744SOL    HW181688  10.832   3.509   1.955  0.7994 -0.4083  1.2696
25744SOL    HW281689  10.923   3.627   1.983  1.3601 -1.2242  3.1162
25745SOL     OW81690   4.413  10.252   2.470 -0.5825 -0.2855 -0.2582
25745SOL    HW181691   4.488  10.198   2.445  1.1638  2.0650 -0.4489
25745SOL    HW281692   4.349  10.189   2.503  2.1134 -2.3480  1.6226
25746SOL     OW81693  10.465   2.977   7.389  0.0667 -0.3811 -0.1765
25746SOL    HW181694  10.377   2.969   7.352  0.3789  0.3161 -1.0944
25746SOL    HW281695  10.455   2.952   7.481 -1.1918  0.2171 -0.1378
25747SOL     OW81696   8.476   1.520   0.697  0.4946  0.4783  0.3816
25747SOL    HW181697   8.433   1.486   0.619  0.1280 -0.1682  0.8620
25747SOL    HW281698   8.555   1.468   0.706 -0.5459 -0.9744  1.6694
25748SOL     OW81699   1.422   4.529   8.178 -0.1968  0.1961  0.0981
25748SOL    HW181700   1.460   4.446   8.206  0.8774  0.6056 -0.0819
25748SOL    HW281701   1.339   4.535   8.225 -1.3856 -1.9946 -1.5102
25749SOL     OW81702   0.627   7.057   3.033  0.4225 -0.7022  0.7907
25749SOL    HW181703   0.649   6.965   3.021 -0.6522 -1.0504  1.3928
25749SOL    HW281704   0.673   7.083   3.112  0.1882 -0.9098  0.9967
25750SOL     OW81705   0.688   8.891   1.573 -0.1581  0.4089  0.5137
25750SOL    HW181706   0.637   8.940   1.638  0.4666 -0.9115  2.0354
25750SOL    HW281707   0.755   8.953   1.544  0.0474  0.7659  1.7222
25751SOL     OW81708  10.874   1.487   9.126  0.0983  0.1187 -0.3782
25751SOL    HW181709  10.933   1.459   9.196  0.8757 -1.4541 -1.5890
25751SOL    HW281710  10.822   1.408   9.106 -1.7253  1.1683 -0.0588
25752SOL     OW81711  10.342   6.824   2.567 -0.8300 -0.5097 -0.3804
25752SOL    HW181712  10.255   6.860   2.585 -0.1424  0.4688  1.2638
25752SOL    HW281713  10.400   6.900   2.569  0.3623 -1.3981  0.8308
25753SOL     OW81714   5.542   1.400   2.608 -0.8120  0.8005  0.0784
25753SOL    HW181715   5.450   1.427   2.599 -0.9933  0.5269  0.9448
25753SOL    HW281716   5.549   1.372   2.699  0.4217  1.9012  0.3550
25754SOL     OW81717   5.326   6.618   7.705  0.2045  0.0256  0.0379
25754SOL    HW181718   5.417   6.595   7.723  0.4739 -0.3061 -1.6172
25754SOL    HW281719   5.317   6.611   7.610 -1.4379  0.4846  0.1205
25755SOL     OW81720   0.823   7.520   3.102 -0.1350  0.1487  0.5739
25755SOL    HW181721   0.843   7.597   3.155 -0.1418 -0.9648  2.2632
25755SOL    HW281722   0.759   7.471   3.153 -0.3259 -0.8710 -0.5794
25756SOL     OW81723   7.965   0.539   2.762  0.2717 -0.6651 -0.1584
25756SOL    HW181724   7.965   0.634   2.778  1.9565 -0.6741 -0.0148
25756SOL    HW281725   8.047   0.508   2.798  0.4454 -1.9567 -1.5745
25757SOL     OW81726   1.566   5.563   4.849  0.4999 -0.0548 -0.3837
25757SOL    HW181727   1.476   5.542   4.873  1.1975 -0.2992  2.3152
25757SOL    HW281728   1.616   5.485   4.871  1.5715  0.5619 -0.5604
25758SOL     OW81729   6.542   1.061   1.165 -0.1757  0.1656  0.3195
25758SOL    HW181730   6.468   1.097   1.117 -0.5305  0.4885  1.0922
25758SOL    HW281731   6.582   1.136   1.209  1.7013  0.2990 -1.4620
25759SOL     OW81732   4.610   7.494  10.791 -0.5211 -0.3706 -0.2531
25759SOL    HW181733   4.643   7.531  10.873 -0.1001 -1.2786  0.0022
25759SOL    HW281734   4.686   7.497  10.732 -0.0051 -2.1804  0.2405
25760SOL     OW81735   1.920   9.964   3.596 -0.0395 -0.2784 -0.6486
25760SOL    HW181736   1.848   9.912   3.563 -0.5318 -0.2657  0.3529
25760SOL    HW281737   1.969   9.904   3.652 -1.7646  0.7412  2.1734
25761SOL     OW81738   2.186   8.759   6.258  0.1956  0.0806 -0.3761
25761SOL    HW181739   2.224   8.847   6.256 -0.5350  0.4254  0.2293
25761SOL    HW281740   2.255   8.702   6.226  0.7517  0.8521 -0.5820
25762SOL     OW81741   8.510   0.490   6.980  0.5226  0.2185 -0.1765
25762SOL    HW181742   8.418   0.480   6.954  1.0459 -2.3250 -1.4262
25762SOL    HW281743   8.554   0.525   6.903  0.7166  0.8467  0.2136
25763SOL     OW81744   9.391   8.463   9.265 -0.0298  0.5147 -0.0943
25763SOL    HW181745   9.363   8.410   9.191 -0.9255 -0.7717  1.1220
25763SOL    HW281746   9.400   8.401   9.338  0.6326  1.7632  0.9362
25764SOL     OW81747   8.785  10.035   1.844  0.0741  0.0041 -0.5786
25764SOL    HW181748   8.750  10.104   1.787 -0.2746 -0.6373 -1.1632
25764SOL    HW281749   8.851   9.991   1.790  0.1916 -0.2080 -0.2643
25765SOL     OW81750   4.480   6.049   3.938 -0.1927  0.4198  0.7054
25765SOL    HW181751   4.533   6.099   3.876  1.4038 -1.4938  0.4364
25765SOL    HW281752   4.433   6.116   3.988 -0.4971  2.0697 -1.6058
25766SOL     OW81753   8.567   0.782   2.791 -0.5997 -0.2990 -0.3450
25766SOL    HW181754   8.596   0.748   2.707  0.4336 -2.0145  0.6552
25766SOL    HW281755   8.603   0.871   2.794 -1.7023  0.2663 -2.1911
25767SOL     OW81756   0.895  10.151   1.800  0.1450 -0.3243  0.4556
25767SOL    HW181757   0.830  10.203   1.847  0.8200  1.7914 -0.8059
25767SOL    HW281758   0.893  10.066   1.844 -0.8176  0.8086  2.8312
25768SOL     OW81759   4.296   3.143   8.252 -0.0513 -0.1089  0.4992
25768SOL    HW181760   4.236   3.186   8.191 -1.6933 -0.1731  2.0034
25768SOL    HW281761   4.354   3.090   8.196 -1.3800 -0.0332 -1.0008
25769SOL     OW81762   1.486   9.455   9.932 -0.5708 -0.1879 -0.1584
25769SOL    HW181763   1.480   9.399   9.855  0.6144 -0.9052  0.2360
25769SOL    HW281764   1.580   9.461   9.950 -0.6465  1.9951 -0.2116
25770SOL     OW81765   4.450   0.227  11.071  0.8406 -0.7101 -0.2354
25770SOL    HW181766   4.386   0.193  11.008 -1.6096  0.2031  1.5933
25770SOL    HW281767   4.464   0.318  11.045  0.3575 -0.5283  0.1385
25771SOL     OW81768   6.626  10.020   4.674 -0.2175  0.5706  0.0592
25771SOL    HW181769   6.561  10.024   4.744  0.4748  0.3882  0.7231
25771SOL    HW281770   6.623   9.930   4.644  0.6807  0.2017  1.0243
25772SOL     OW81771   2.031   1.269   8.066  0.2822 -0.1625  0.3199
25772SOL    HW181772   1.966   1.333   8.094  0.6164  1.1774 -1.7715
25772SOL    HW281773   2.078   1.245   8.146 -1.4733  0.3184  1.5361
25773SOL     OW81774   7.606   3.590   9.232  0.0194  0.2995  0.1384
25773SOL    HW181775   7.615   3.684   9.217  0.5207  0.0002 -1.7024
25773SOL    HW281776   7.696   3.560   9.245 -0.0967  0.0107  0.2716
25774SOL     OW81777   8.934   2.698   3.525  0.2476 -0.1064 -0.0154
25774SOL    HW181778   9.006   2.757   3.548  2.1559 -1.3425 -2.4155
25774SOL    HW281779   8.954   2.669   3.436 -3.6372  0.0007 -1.0809
25775SOL     OW81780   5.822   7.240   6.692 -0.2416  0.5649  0.8507
25775SOL    HW181781   5.742   7.265   6.644 -0.0221  0.3038  0.3359
25775SOL    HW281782   5.891   7.244   6.626 -0.0522 -0.5421  0.9606
25776SOL     OW81783   4.206  10.072   2.552 -0.0829 -0.4161 -0.0641
25776SOL    HW181784   4.270  10.026   2.498 -0.4794 -2.4734  1.1273
25776SOL    HW281785   4.121  10.050   2.513 -0.1706  1.3477 -0.9410
25777SOL     OW81786   4.767   8.098   3.155  0.0579 -0.2249 -0.3961
25777SOL    HW181787   4.843   8.104   3.213 -0.0666 -1.8091 -0.0440
25777SOL    HW281788   4.790   8.153   3.080 -0.2041  2.7863  1.5564
25778SOL     OW81789   5.880   3.122  10.984 -0.0392 -0.4730 -0.4251
25778SOL    HW181790   5.840   3.125  10.897 -1.8735  1.9033  0.4085
25778SOL    HW281791   5.974   3.121  10.967 -0.2817 -3.0628 -2.4115
25779SOL     OW81792   6.192   4.789   3.433  0.2252 -0.0156 -0.7815
25779SOL    HW181793   6.207   4.694   3.436 -0.4496 -0.1271 -0.7308
25779SOL    HW281794   6.274   4.827   3.462  1.3048 -0.5204 -2.9535
25780SOL     OW81795   8.600   8.488   2.676  0.4357 -0.3329 -0.3637
25780SOL    HW181796   8.521   8.511   2.725  0.6533 -0.1955 -0.0742
25780SOL    HW281797   8.642   8.572   2.657  1.2848 -0.4829  0.7781
25781SOL     OW81798   0.058  11.048   2.070  1.2227  0.6369 -0.0810
25781SOL    HW181799   0.140  11.049   2.119  1.3783 -0.1045 -0.3243
25781SOL    HW281800   0.012  10.970   2.102  0.2494  1.4768  0.6444
25782SOL     OW81801   9.429   8.077   0.575  0.6713  0.3248 -0.2065
25782SOL    HW181802   9.496   8.012   0.594  2.1705  1.0348 -2.6755
25782SOL    HW281803   9.406   8.113   0.661  2.1244 -1.1677  0.8802
25783SOL     OW81804   2.581   4.349   4.404  0.3892  0.1818  0.6997
25783SOL    HW181805   2.522   4.326   4.476  0.7454 -1.0003  0.6361
25783SOL    HW281806   2.592   4.267   4.355 -0.8744  1.2078 -1.4869
25784SOL     OW81807   6.298   9.269   3.459 -0.1382 -0.2019  0.2593
25784SOL    HW181808   6.313   9.361   3.436  0.8750 -0.6133 -0.8896
25784SOL    HW281809   6.376   9.224   3.425 -0.6824 -1.4972  0.6898
25785SOL     OW81810  11.007  10.175  10.724  0.1339  0.0599 -0.3804
25785SOL    HW181811  11.016  10.153  10.631 -0.2884  1.3552 -0.7381
25785SOL    HW281812  11.079  10.236  10.741  1.0888 -1.2609  0.5213
25786SOL     OW81813   4.849   7.750   6.789 -0.2911  0.7028 -0.1198
25786SOL    HW181814   4.936   7.722   6.817 -0.7354 -0.6044  0.0155
25786SOL    HW281815   4.863   7.786   6.701  0.5364  1.4758  0.3078
25787SOL     OW81816   3.216   0.081   1.295 -0.1695 -0.0133 -0.0668
25787SOL    HW181817   3.172   0.013   1.244  1.0713 -0.8847 -0.0056
25787SOL    HW281818   3.308   0.055   1.297 -0.0205  0.4819  1.8338
25788SOL     OW81819  10.726   8.707   9.928  0.0125  0.2949  0.2404
25788SOL    HW181820  10.731   8.728   9.835 -1.0932 -0.8676 -0.1196
25788SOL    HW281821  10.663   8.634   9.932 -1.4660  1.5883  2.1027
25789SOL     OW81822   8.631   4.681   1.619  0.3894 -0.1660 -0.0828
25789SOL    HW181823   8.657   4.589   1.615  0.9304  0.0235 -2.9222
25789SOL    HW281824   8.535   4.678   1.622  0.4166 -0.7799  0.9535
25790SOL     OW81825   6.567   8.322  10.585  0.7121 -0.3194 -0.0416
25790SOL    HW181826   6.487   8.272  10.597  0.3647  0.4786  1.0790
25790SOL    HW281827   6.559   8.358  10.497 -0.2491 -0.1010  0.1229
25791SOL     OW81828   2.396   4.107   7.641 -0.0896 -0.0969  0.1825
25791SOL    HW181829   2.476   4.064   7.613 -0.0674 -0.1543  0.3327
25791SOL    HW281830   2.425   4.185   7.689 -0.1306  0.1641 -0.2035
25792SOL     OW81831   1.912   7.204   2.183 -0.1556 -0.6618 -0.1512
25792SOL    HW181832   1.849   7.255   2.233  0.3299  0.8280 -0.9883
25792SOL    HW281833   1.978   7.178   2.247  0.4995  1.2820  0.0313
25793SOL     OW81834   0.317   1.843   8.454 -0.4128 -0.1136  0.5148
25793SOL    HW181835   0.400   1.810   8.420 -0.1019  0.0506  1.1031
25793SOL    HW281836   0.250   1.797   8.404  0.0268  0.9846 -1.1804
25794SOL     OW81837   2.835   3.261   1.818 -0.4733 -0.1233  0.1141
25794SOL    HW181838   2.775   3.212   1.874 -1.0456 -0.2497 -0.5888
25794SOL    HW281839   2.917   3.266   1.868 -1.3508  0.8870  1.5137
25795SOL     OW81840  10.307   2.471   9.292 -0.4226  0.8694  0.4916
25795SOL    HW181841  10.294   2.390   9.342  1.4114  1.7557  2.5734
25795SOL    HW281842  10.240   2.530   9.325 -0.4860  0.8328  0.4297
25796SOL     OW81843   8.121  10.839   7.162 -0.0775  0.2594  0.0370
25796SOL    HW181844   8.126  10.933   7.182  1.3967 -0.0400  1.2130
25796SOL    HW281845   8.198  10.823   7.106 -0.6084 -0.1689 -0.5900
25797SOL     OW81846   8.343   6.059   4.959  0.3729 -0.1955  0.0777
25797SOL    HW181847   8.401   6.007   5.014  0.4399 -0.5756 -0.3451
25797SOL    HW281848   8.362   6.150   4.983  0.3551 -0.3582  0.7186
25798SOL     OW81849   3.406   9.108   3.905 -0.4477  0.7033  0.4764
25798SOL    HW181850   3.397   9.042   3.974 -1.3398  0.6584  0.3289
25798SOL    HW281851   3.384   9.190   3.948  1.8050  1.1225  0.9670
25799SOL     OW81852   3.049   6.446   1.465 -0.0255 -0.2220 -0.5248
25799SOL    HW181853   2.995   6.511   1.510 -1.4015 -1.5466 -0.1683
25799SOL    HW281854   3.109   6.498   1.411  1.3333  1.4283  2.3428
25800SOL     OW81855   5.074   5.844   6.215 -0.1620 -0.4260 -0.2274
25800SOL    HW181856   5.098   5.901   6.287  0.8637  1.8265 -2.1941
25800SOL    HW281857   4.992   5.880   6.181  1.3033  1.0352 -2.4830
25801SOL     OW81858   0.295  10.432   0.946  0.1162 -0.0462  0.6261
25801SOL    HW181859   0.250  10.376   1.008  1.2868 -0.5809  1.0321
25801SOL    HW281860   0.274  10.522   0.973 -0.5616 -0.2860  0.8883
25802SOL     OW81861   3.559   3.874   2.521  0.2593 -0.4035 -0.3122
25802SOL    HW181862   3.475   3.835   2.497 -0.2513  0.9543 -0.8279
25802SOL    HW281863   3.623   3.833   2.462 -0.2381 -0.5201 -0.7708
25803SOL     OW81864  11.001   5.917   4.943  0.4705 -0.4129 -0.0585
25803SOL    HW181865  11.060   5.892   5.014  0.5664 -0.0915 -0.0246
25803SOL    HW281866  11.001   6.013   4.944  1.5723 -0.3740 -1.3745
25804SOL     OW81867  10.575   6.088   5.037  0.5222 -0.0390 -0.0620
25804SOL    HW181868  10.637   6.159   5.052  1.1483 -0.9701  2.1492
25804SOL    HW281869  10.626   6.019   4.994  0.1397  0.4610 -1.3641
25805SOL     OW81870   8.115   2.127   4.209 -0.4032 -0.0183 -0.1371
25805SOL    HW181871   8.141   2.070   4.281  0.2465 -0.4709 -0.7168
25805SOL    HW281872   8.023   2.106   4.194 -0.3118 -0.5328 -0.0007
25806SOL     OW81873   5.764   0.791   7.535 -0.1721 -0.3522 -0.1382
25806SOL    HW181874   5.711   0.712   7.524 -2.6161  1.1707 -0.0140
25806SOL    HW281875   5.793   0.814   7.447 -0.7211 -0.5608 -0.3751
25807SOL     OW81876   8.130   8.024   4.378 -0.5688 -0.3824 -0.2041
25807SOL    HW181877   8.074   8.082   4.327 -0.0253  0.7497  0.4607
25807SOL    HW281878   8.214   8.026   4.332 -0.0707  0.6565  0.7125
25808SOL     OW81879   0.916   5.899   1.282 -0.3422 -0.3508 -0.8058
25808SOL    HW181880   0.909   5.835   1.353 -0.3812 -0.0842 -0.5680
25808SOL    HW281881   0.846   5.876   1.222  0.6464 -1.5591 -1.5565
25809SOL     OW81882   5.288   7.952   6.831  0.1319  0.1667 -0.2348
25809SOL    HW181883   5.243   7.948   6.746  1.3014 -0.4952 -0.8560
25809SOL    HW281884   5.312   8.044   6.842 -1.6606  0.6047  0.2902
25810SOL     OW81885   1.094   7.333   2.706  0.0925 -0.1872  0.2330
25810SOL    HW181886   1.108   7.398   2.774 -0.2278 -0.2085  0.3219
25810SOL    HW281887   1.012   7.360   2.663 -0.8297 -1.3089  1.1931
25811SOL     OW81888   7.734  10.195  11.047 -0.1635  0.8436  0.4130
25811SOL    HW181889   7.645  10.221  11.070 -0.8145 -1.3512  0.6647
25811SOL    HW281890   7.773  10.273  11.009 -1.8333  2.1741  1.2859
25812SOL     OW81891   8.127   4.974   2.994 -0.1940  0.3795 -0.5215
25812SOL    HW181892   8.190   5.021   2.939 -0.3449  0.7575 -0.3715
25812SOL    HW281893   8.066   5.041   3.023 -0.1561  0.1716  0.0500
25813SOL     OW81894   1.894   8.480   3.645 -0.3191 -0.1930  0.0866
25813SOL    HW181895   1.987   8.493   3.666  0.0381 -0.0411 -1.4256
25813SOL    HW281896   1.876   8.391   3.674  0.9209 -1.0132 -1.4383
25814SOL     OW81897   5.236   0.005   1.697  0.5079  0.3662  0.0198
25814SOL    HW181898   5.253  -0.069   1.638  0.8396 -0.8293  1.5692
25814SOL    HW281899   5.141   0.003   1.710  0.5291  0.1556  0.1421
25815SOL     OW81900   3.066   9.534   5.292  0.3434  0.1006  0.1699
25815SOL    HW181901   3.091   9.452   5.334 -2.6551 -1.2575 -0.4364
25815SOL    HW281902   3.095   9.525   5.202  0.1950 -0.2110  0.1519
25816SOL     OW81903   3.376   9.692   5.467 -0.2282  0.0851 -0.3535
25816SOL    HW181904   3.367   9.693   5.372  0.5343  0.9015 -0.4341
25816SOL    HW281905   3.466   9.661   5.482 -0.4734 -0.4054  0.1124
25817SOL     OW81906   0.554  10.680   0.362 -0.1083  0.6093 -0.2268
25817SOL    HW181907   0.517  10.760   0.400  0.2682  0.2867  0.8785
25817SOL    HW281908   0.624  10.656   0.423  1.0762  0.5058 -1.5944
25818SOL     OW81909   8.168   8.474   6.212  0.5110  0.0374 -0.4426
25818SOL    HW181910   8.146   8.447   6.123  1.1336 -3.3498  0.2900
25818SOL    HW281911   8.087   8.460   6.262 -0.0042  2.4381 -0.4453
25819SOL     OW81912   0.142   9.736   4.147  0.3711 -0.1912 -0.1087
25819SOL    HW181913   0.112   9.723   4.057 -1.3295 -0.1056  0.4096
25819SOL    HW281914   0.141   9.648   4.185 -0.1641 -0.0572  0.1896
25820SOL     OW81915   8.961   7.998   3.280  0.3674  0.6474  0.3795
25820SOL    HW181916   9.003   8.081   3.305 -0.9441  1.3410  0.4149
25820SOL    HW281917   8.924   7.965   3.362 -0.0222  0.5880  0.1839
25821SOL     OW81918   9.344   3.755   0.320  0.3343 -0.4006 -0.0285
25821SOL    HW181919   9.259   3.728   0.287  1.3986 -3.8653 -0.2730
25821SOL    HW281920   9.331   3.767   0.414 -0.5459 -0.1063 -0.1772
25822SOL     OW81921   8.374   8.108   6.088  0.5740 -0.0774  0.4848
25822SOL    HW181922   8.293   8.160   6.080  0.1477 -0.8873 -0.7934
25822SOL    HW281923   8.408   8.130   6.174  0.1631  1.9756  0.1934
25823SOL     OW81924   8.383   4.613   8.601  0.4695  0.0409 -0.0958
25823SOL    HW181925   8.362   4.635   8.692 -1.4093 -1.1975 -0.1708
25823SOL    HW281926   8.451   4.546   8.608  1.0181  0.6288  0.3448
25824SOL     OW81927   7.136   2.632   8.957  0.6995 -0.4376  0.3383
25824SOL    HW181928   7.063   2.571   8.945  0.3318 -0.1864  1.1872
25824SOL    HW281929   7.161   2.658   8.869 -0.3939 -0.3441  0.0506
25825SOL     OW81930   7.049   9.578   3.052  0.0711 -0.5411 -0.5013
25825SOL    HW181931   7.068   9.668   3.079  1.0501 -0.5558 -1.1238
25825SOL    HW281932   7.024   9.534   3.133 -0.6966  0.3528 -0.2337
25826SOL     OW81933   3.688   3.630   7.983 -0.3584  0.4205  0.4038
25826SOL    HW181934   3.593   3.630   7.982 -0.5505 -2.5329  2.5364
25826SOL    HW281935   3.711   3.656   8.072  0.7277 -0.0703  0.2846
25827SOL     OW81936   9.671   1.014   7.746 -0.3463  0.2458  0.3041
25827SOL    HW181937   9.619   1.001   7.666  0.3355  0.8090 -0.2406
25827SOL    HW281938   9.654   0.936   7.798 -1.0329  0.0053 -0.2617
25828SOL     OW81939   9.632   5.536   5.316  0.5424  0.6467 -0.0271
25828SOL    HW181940   9.613   5.627   5.293 -0.8858  0.4885  0.4598
25828SOL    HW281941   9.564   5.486   5.270 -0.4133  0.0708  1.9342
25829SOL     OW81942   5.538   4.705  10.337  0.4421 -0.5494 -0.5688
25829SOL    HW181943   5.506   4.616  10.327  1.0568 -0.6540 -1.7608
25829SOL    HW281944   5.505   4.733  10.422 -1.3072 -1.2524 -0.9843
25830SOL     OW81945   8.135   1.902   7.056 -0.2178 -0.4561  0.2593
25830SOL    HW181946   8.154   1.977   7.113 -1.0451  0.1770 -0.2749
25830SOL    HW281947   8.085   1.842   7.111 -2.1251  0.7187 -0.1078
25831SOL     OW81948   5.229   9.368   7.496 -0.3813  0.2212  0.0989
25831SOL    HW181949   5.190   9.351   7.582 -3.0501 -0.5496 -1.1255
25831SOL    HW281950   5.228   9.463   7.487 -0.7597  0.2742  0.6679
25832SOL     OW81951   6.204   3.844   9.772 -0.1271 -0.2139  0.0938
25832SOL    HW181952   6.125   3.899   9.768 -1.7685 -2.5239 -1.3481
25832SOL    HW281953   6.172   3.758   9.796  1.9619 -1.2850 -0.7350
25833SOL     OW81954  11.041   2.471   7.193 -0.3453 -0.6858 -1.0447
25833SOL    HW181955  11.058   2.385   7.231 -1.0484  0.1863  1.4593
25833SOL    HW281956  10.964   2.503   7.240  1.6125  2.5243  0.3515
25834SOL     OW81957   7.386   3.273   2.081 -0.3370  0.1468 -0.5177
25834SOL    HW181958   7.326   3.247   2.151 -1.4728  2.4196 -0.5733
25834SOL    HW281959   7.384   3.199   2.020 -0.7174 -1.0978  0.9434
25835SOL     OW81960   8.093   3.800  10.521  0.6012 -0.1372  0.0521
25835SOL    HW181961   8.116   3.744  10.595  1.0625  2.1251  1.7548
25835SOL    HW281962   8.000   3.820  10.535  1.4187  3.0260  2.1911
25836SOL     OW81963   4.806   9.900   4.120 -0.5349 -0.4312 -0.1916
25836SOL    HW181964   4.806   9.879   4.027  0.1775 -2.5738  0.2221
25836SOL    HW281965   4.714   9.893   4.146 -1.0279  2.0221 -1.0305
25837SOL     OW81966   0.316   8.881   3.380 -0.2991 -0.1943 -0.0496
25837SOL    HW181967   0.408   8.872   3.355  0.0926  1.5506  0.6396
25837SOL    HW281968   0.269   8.826   3.317  1.0379  0.4671 -1.7157
25838SOL     OW81969   8.326   1.176   4.973  0.2529 -0.2888  0.1275
25838SOL    HW181970   8.396   1.228   4.933  1.8098 -1.1247  1.6127
25838SOL    HW281971   8.292   1.122   4.902  1.8900 -0.6360 -0.4388
25839SOL     OW81972  10.643   3.188   6.254 -0.0471 -0.2872  0.2370
25839SOL    HW181973  10.676   3.099   6.243  0.5474  0.0085 -0.4689
25839SOL    HW281974  10.549   3.181   6.235 -0.2516 -0.9612  1.3389
25840SOL     OW81975   0.359   1.715  10.457  0.2340 -0.2289 -0.3108
25840SOL    HW181976   0.265   1.697  10.469  0.4778 -2.9483 -1.7257
25840SOL    HW281977   0.387   1.749  10.542 -1.8591 -0.0935  0.4004
25841SOL     OW81978   2.252   1.747   5.829  0.0491 -0.2425 -0.6974
25841SOL    HW181979   2.310   1.710   5.763  0.7506 -0.4882  0.0352
25841SOL    HW281980   2.165   1.719   5.803  0.3698 -0.7488 -1.2491
25842SOL     OW81981   8.843   4.459   2.320 -0.2577  0.5587  1.0515
25842SOL    HW181982   8.843   4.476   2.414 -0.1072 -1.0506  1.3582
25842SOL    HW281983   8.850   4.364   2.312  1.9448  0.7616 -0.6001
25843SOL     OW81984   1.615   3.490   8.661  0.0674  0.2161  0.1214
25843SOL    HW181985   1.586   3.474   8.571 -1.6677 -0.3624  0.7443
25843SOL    HW281986   1.577   3.418   8.712 -1.8105  2.2523  1.8386
25844SOL     OW81987   6.349   8.405   8.804  0.1517  0.3825 -0.3615
25844SOL    HW181988   6.401   8.466   8.857 -0.5998  0.8260 -0.1180
25844SOL    HW281989   6.413   8.363   8.746  0.7975  0.8239  0.0177
25845SOL     OW81990  10.892   9.413   5.582  0.5317 -0.2068  0.3446
25845SOL    HW181991  10.809   9.441   5.621  1.1035 -0.3794  1.7319
25845SOL    HW281992  10.959   9.464   5.628  1.2998 -1.1180  0.2769
25846SOL     OW81993   2.623   7.028   2.222 -0.2414  0.1986  0.6271
25846SOL    HW181994   2.545   6.993   2.180 -0.2355 -0.1187  0.8725
25846SOL    HW281995   2.635   6.973   2.300 -0.8799  1.4686  1.6546
25847SOL     OW81996   2.762   4.265   4.590 -0.2146  0.1446 -0.0755
25847SOL    HW181997   2.723   4.278   4.504  0.2993 -0.3775 -0.3925
25847SOL    HW281998   2.738   4.176   4.614  1.7822 -0.6493 -0.8221
25848SOL     OW81999   5.956  10.735  10.711  0.2347  0.8870  0.4873
25848SOL    HW182000   6.041  10.764  10.746  0.2367  0.0590  1.1984
25848SOL    HW282001   5.918  10.683  10.781 -0.9455  1.3785  0.2305
25849SOL     OW82002   0.548   2.194   1.559 -0.0966 -0.5309  0.3319
25849SOL    HW182003   0.550   2.228   1.649 -1.2002 -3.8041  1.7521
25849SOL    HW282004   0.581   2.267   1.505  0.4427  1.6391  3.3162
25850SOL     OW82005   5.144   6.236   3.787  0.3853 -0.1929  0.0111
25850SOL    HW182006   5.068   6.226   3.845 -0.5928  0.2606 -1.1579
25850SOL    HW282007   5.219   6.241   3.847 -0.5819  0.1321  1.2329
25851SOL     OW82008   0.771   4.070   4.812  0.0327 -0.7735 -0.1616
25851SOL    HW182009   0.845   4.095   4.757 -0.6270  1.2370 -0.2085
25851SOL    HW282010   0.803   4.080   4.902 -0.4407  1.1747 -0.1614
25852SOL     OW82011   4.283   8.391   2.300 -0.2166  0.2482  0.3271
25852SOL    HW182012   4.260   8.318   2.358  1.3841 -0.7609 -0.2331
25852SOL    HW282013   4.287   8.467   2.357 -1.7594 -0.1240  0.9653
25853SOL     OW82014   5.390   8.455   9.543 -0.7018  0.2205 -0.1678
25853SOL    HW182015   5.469   8.408   9.516 -0.4709 -0.3917  1.4222
25853SOL    HW282016   5.318   8.396   9.523 -0.8511  0.9881 -2.0945
25854SOL     OW82017   9.049   1.181   2.540  0.3198 -0.0361  0.3907
25854SOL    HW182018   8.960   1.204   2.516  0.5440 -0.8767 -1.4055
25854SOL    HW282019   9.088   1.147   2.459  2.1173 -0.1349  1.2472
25855SOL     OW82020   9.251  10.332   1.128  0.3856  0.1679  0.0467
25855SOL    HW182021   9.162  10.354   1.099  0.1670 -0.9143 -0.1484
25855SOL    HW282022   9.242  10.246   1.169  1.4449 -0.2232 -0.5112
25856SOL     OW82023   5.004   1.571   0.934  0.2071  0.1028 -0.1344
25856SOL    HW182024   4.974   1.593   0.846  0.0348  1.4619  0.2468
25856SOL    HW282025   5.029   1.655   0.973 -2.0704 -0.1124  1.9997
25857SOL     OW82026   9.647   4.801   0.451 -0.3513  0.2770  0.2074
25857SOL    HW182027   9.645   4.839   0.539  0.7445  0.4642  0.1672
25857SOL    HW282028   9.730   4.830   0.414 -1.5600  1.6564 -1.5665
25858SOL     OW82029   0.388  10.355   3.774  0.8984  0.3418 -0.0864
25858SOL    HW182030   0.314  10.301   3.801  1.3413 -0.3059 -0.1599
25858SOL    HW282031   0.355  10.406   3.701  0.4997  0.1061 -0.0717
25859SOL     OW82032   6.847   4.646   1.580 -0.1196 -0.1860  0.1695
25859SOL    HW182033   6.810   4.708   1.517  0.6702  0.6992  0.5457
25859SOL    HW282034   6.828   4.685   1.666  2.1547  0.6554  0.3773
25860SOL     OW82035   8.684   1.187   6.958 -0.6485 -0.4062 -0.7712
25860SOL    HW182036   8.732   1.264   6.926  0.4020 -1.1033 -0.9202
25860SOL    HW282037   8.596   1.219   6.973 -0.0091  1.0661  0.0643
25861SOL     OW82038  10.185   8.353  10.725 -1.3325 -0.5336  0.1878
25861SOL    HW182039  10.253   8.307  10.676  0.0813  0.9385  0.6770
25861SOL    HW282040  10.155   8.422  10.665 -1.8976 -0.7341  0.2354
25862SOL     OW82041   3.589   1.014   0.893 -0.4104 -0.0960  0.7607
25862SOL    HW182042   3.616   1.019   0.801  1.2373  0.5011  1.2387
25862SOL    HW282043   3.518   1.078   0.901  0.3096  0.8114  0.1572
25863SOL     OW82044   3.619  10.241   1.702  0.0357 -0.0571  0.8018
25863SOL    HW182045   3.658  10.315   1.656 -0.4718 -1.4746 -2.1304
25863SOL    HW282046   3.694  10.191   1.734  0.4613  0.2509  0.3097
25864SOL     OW82047   9.920  10.300   4.467 -0.5594  0.6091 -0.0815
25864SOL    HW182048   9.832  10.339   4.467 -0.2214  1.4352 -1.6575
25864SOL    HW282049   9.975  10.365   4.511 -0.7647 -0.0485  1.1949
25865SOL     OW82050   9.419   5.517   2.472 -0.0625 -0.0279  0.7093
25865SOL    HW182051   9.514   5.502   2.469  0.2907  2.0626 -0.9803
25865SOL    HW282052   9.406   5.569   2.552  0.2684 -0.0892  0.8071
25866SOL     OW82053   6.599   0.118   6.763  0.0562 -0.1727  0.4178
25866SOL    HW182054   6.669   0.124   6.828  0.8365 -1.7376 -0.2260
25866SOL    HW282055   6.533   0.062   6.803 -0.5943  0.8260  0.7889
25867SOL     OW82056   9.160   1.220   5.639 -0.5660  0.1504  0.4258
25867SOL    HW182057   9.248   1.196   5.667 -1.2443 -0.1297  2.4434
25867SOL    HW282058   9.137   1.297   5.692 -1.9407 -0.4381  0.7311
25868SOL     OW82059   3.421   4.231   6.805  0.0685  0.0465  0.0650
25868SOL    HW182060   3.480   4.214   6.731 -0.7456  2.6484 -1.3365
25868SOL    HW282061   3.334   4.235   6.766 -0.6101 -0.2861  1.4900
25869SOL     OW82062   3.791  10.165   7.620 -0.1014  0.0268 -0.1758
25869SOL    HW182063   3.887  10.164   7.622 -0.1051  0.6469  1.0722
25869SOL    HW282064   3.767  10.255   7.643 -0.9914 -0.1387 -0.4188
25870SOL     OW82065   2.310   1.748   8.020 -0.2826 -0.4760 -0.0091
25870SOL    HW182066   2.362   1.755   8.101 -0.5913  1.1152  0.0780
25870SOL    HW282067   2.375   1.749   7.950 -0.0610 -1.0911  0.1773
25871SOL     OW82068   5.502  10.466   1.627 -0.2968  0.2869  0.8338
25871SOL    HW182069   5.592  10.499   1.628 -0.2724  0.2833 -0.2175
25871SOL    HW282070   5.448  10.544   1.636 -0.1971  0.2382  2.0392
25872SOL     OW82071   3.605   9.784   6.818  0.3346  0.0817 -0.1920
25872SOL    HW182072   3.682   9.840   6.829  0.8271 -0.6582  0.2173
25872SOL    HW282073   3.609   9.723   6.892 -0.3402 -0.3237 -0.4764
25873SOL     OW82074   4.830   2.398  10.392 -0.3026  0.1573  0.2697
25873SOL    HW182075   4.761   2.340  10.359 -0.5768  0.2195  0.7326
25873SOL    HW282076   4.809   2.411  10.484  1.5806 -1.6786  1.0540
25874SOL     OW82077   8.100   3.439   7.853 -0.6260 -0.2764 -0.7874
25874SOL    HW182078   8.187   3.420   7.817 -0.2976 -0.1069 -0.0992
25874SOL    HW282079   8.113   3.438   7.948 -1.1240  0.9543 -0.6911
25875SOL     OW82080   0.851  10.262   7.682 -0.0819 -0.4978  0.5829
25875SOL    HW182081   0.848  10.293   7.592  0.1444 -0.8038  0.4660
25875SOL    HW282082   0.939  10.286   7.713 -0.1915 -0.3131  0.7515
25876SOL     OW82083   6.065   0.121   2.497 -0.1977 -0.2353  0.4404
25876SOL    HW182084   6.084   0.127   2.404 -1.8612  0.1061  0.0859
25876SOL    HW282085   5.994   0.183   2.511 -0.1401 -0.4547  1.8975
25877SOL     OW82086   4.759   0.820   0.968  0.5369  0.4431  0.0140
25877SOL    HW182087   4.806   0.885   1.019 -0.7568  0.4627  1.2443
25877SOL    HW282088   4.778   0.737   1.011 -0.0772  0.3782  0.1626
25878SOL     OW82089   9.948   3.318   5.902 -0.3033 -0.2494 -0.8314
25878SOL    HW182090   9.933   3.224   5.893 -2.4025  0.0055 -0.6338
25878SOL    HW282091   9.866   3.358   5.873 -0.0111  1.4438  0.4993
25879SOL     OW82092   1.234   4.319   3.834 -0.3687  0.0984 -0.5970
25879SOL    HW182093   1.186   4.297   3.913  0.8745  0.1201  0.1954
25879SOL    HW282094   1.264   4.409   3.848  0.4054 -0.1222 -0.8056
25880SOL     OW82095   9.502   1.642   6.851 -0.0874 -0.7086 -0.4332
25880SOL    HW182096   9.541   1.720   6.812  0.8927 -0.4003  1.0875
25880SOL    HW282097   9.551   1.629   6.932 -2.0430 -1.3137  0.7101
25881SOL     OW82098   2.226   4.846   9.362 -0.2240  0.0368  0.9117
25881SOL    HW182099   2.226   4.876   9.271  1.4613 -0.3003  0.7549
25881SOL    HW282100   2.191   4.758   9.359 -1.1594  0.4073  0.7516
25882SOL     OW82101   0.545   2.805   1.250 -0.3740 -0.2871  0.4023
25882SOL    HW182102   0.539   2.828   1.157 -1.7077 -0.5542  0.3946
25882SOL    HW282103   0.477   2.858   1.291  0.1124 -0.2832  1.2095
25883SOL     OW82104   3.488   6.806   9.271 -0.2855  0.2585  0.0604
25883SOL    HW182105   3.537   6.867   9.326 -2.9706  0.1149  2.9456
25883SOL    HW282106   3.502   6.721   9.313 -1.8058  0.0107  0.0994
25884SOL     OW82107   0.387   9.996   5.553 -0.2379  0.3255  0.2337
25884SOL    HW182108   0.294   9.975   5.555 -0.4334  1.0008 -0.9768
25884SOL    HW282109   0.418   9.960   5.469  1.0064 -1.4757  1.3826
25885SOL     OW82110   2.223   5.422   3.664 -0.1821 -0.3955  0.1525
25885SOL    HW182111   2.254   5.346   3.713  1.2261 -0.6551 -1.0643
25885SOL    HW282112   2.127   5.411   3.660 -0.1744 -1.1231  1.5365
25886SOL     OW82113  11.062   9.177   7.317  0.2181 -0.0149 -0.7529
25886SOL    HW182114  11.026   9.098   7.277 -0.0083 -0.4386  0.2629
25886SOL    HW282115  11.149   9.150   7.346  0.0985  0.0834 -0.3114
25887SOL     OW82116   9.816   8.993   6.267  0.0705  0.0411 -0.0305
25887SOL    HW182117   9.725   8.969   6.249  0.0833  0.0905 -0.1606
25887SOL    HW282118   9.867   8.949   6.199  0.2813 -1.0633  0.8187
25888SOL     OW82119   9.841   5.683   0.577  0.4559  0.0546  0.7739
25888SOL    HW182120   9.902   5.609   0.585  1.0599  0.5562  0.9173
25888SOL    HW282121   9.894   5.759   0.599 -0.0091  0.5969  0.0218
25889SOL     OW82122  10.306   9.138   0.062 -0.2897  0.2700 -0.3522
25889SOL    HW182123  10.304   9.229   0.032 -0.1877 -0.4654 -2.8741
25889SOL    HW282124  10.268   9.088  -0.011  0.8771 -1.8404  0.3890
25890SOL     OW82125   8.130   8.135   5.689 -0.0408  0.2149  0.4260
25890SOL    HW182126   8.211   8.094   5.661 -0.4977 -0.7251  0.4415
25890SOL    HW282127   8.099   8.183   5.612  1.1719  1.6582  0.8035
25891SOL     OW82128   8.801   3.102   5.447 -0.5021 -0.1071  0.3750
25891SOL    HW182129   8.884   3.101   5.401 -0.5866  0.8091  0.1733
25891SOL    HW282130   8.822   3.138   5.534 -0.9545  1.9192 -0.2999
25892SOL     OW82131   4.748   0.930   2.992  0.3170  0.6012  0.2600
25892SOL    HW182132   4.681   0.949   2.926  0.1371  0.9832  0.5509
25892SOL    HW282133   4.810   0.873   2.947 -0.7580 -0.6643  0.3069
25893SOL     OW82134   1.620   5.995   1.540 -0.0932 -0.1298  0.0761
25893SOL    HW182135   1.565   5.953   1.474 -1.2922 -1.5855  1.8767
25893SOL    HW282136   1.575   6.078   1.558 -0.3280 -0.1956 -0.1963
25894SOL     OW82137  10.118   1.923   6.118 -0.2870  0.6017  0.8572
25894SOL    HW182138  10.044   1.871   6.149 -0.5612 -0.0507 -0.7757
25894SOL    HW282139  10.078   2.005   6.088 -0.0690  1.0882  1.8633
25895SOL     OW82140  10.797   0.095   5.223  0.0793  0.1844 -0.0512
25895SOL    HW182141  10.715   0.076   5.269 -0.7225  1.6633 -0.7965
25895SOL    HW282142  10.792   0.044   5.142  0.3120 -0.4268  0.3179
25896SOL     OW82143   0.405  10.937   7.536  0.4718  0.5922  0.0411
25896SOL    HW182144   0.496  10.907   7.536  0.6175  1.0218  0.4693
25896SOL    HW282145   0.366  10.895   7.459  0.4844 -1.2908  0.9906
25897SOL     OW82146   2.277   3.773   5.854 -0.2931  0.4453  0.2834
25897SOL    HW182147   2.349   3.733   5.805 -0.0084  1.1080  0.1488
25897SOL    HW282148   2.218   3.700   5.874  1.0843 -0.3554  1.5869
25898SOL     OW82149   4.421   1.193   1.793  0.2617 -0.5734  0.0036
25898SOL    HW182150   4.333   1.159   1.776  1.0243 -1.8568 -1.6463
25898SOL    HW282151   4.438   1.171   1.885 -1.3354  0.2160  0.5147
25899SOL     OW82152   6.564   6.372   6.832 -0.1279 -0.2756  0.0578
25899SOL    HW182153   6.585   6.279   6.838 -0.7670 -0.5611 -1.6318
25899SOL    HW282154   6.647   6.415   6.815 -0.1165 -0.7818 -1.2203
25900SOL     OW82155   2.644   8.518   8.683  0.3453 -0.3931 -0.1125
25900SOL    HW182156   2.733   8.522   8.646 -0.3883  1.3639 -1.9170
25900SOL    HW282157   2.629   8.425   8.698  2.1134 -0.8381 -0.7676
25901SOL     OW82158   8.221   0.108  10.121  0.8299  0.1566  0.2548
25901SOL    HW182159   8.294   0.168  10.103  0.5063  0.5661  0.3003
25901SOL    HW282160   8.236   0.035  10.062  0.3222  1.0481 -1.0326
25902SOL     OW82161   3.806   6.449  11.068  0.4049 -0.0004  0.1563
25902SOL    HW182162   3.876   6.420  11.009  0.9486  0.3973  0.5928
25902SOL    HW282163   3.838   6.425  11.155  0.4606  1.1051  0.4505
25903SOL     OW82164  10.831  10.909   0.174  0.1595  0.0752 -0.2439
25903SOL    HW182165  10.828  10.931   0.081  1.7573 -1.2356 -0.6406
25903SOL    HW282166  10.785  10.982   0.217 -0.1059  0.9908 -1.9915
25904SOL     OW82167   8.235   6.000   3.688  0.8867  0.3946  0.2819
25904SOL    HW182168   8.224   6.066   3.756  0.1875  0.6001 -0.0222
25904SOL    HW282169   8.308   5.946   3.718  1.2687  1.1163  0.6874
25905SOL     OW82170   0.961   9.932   5.458  0.0928 -0.1593  0.1913
25905SOL    HW182171   0.988   9.900   5.545 -3.4285 -0.0328  1.4657
25905SOL    HW282172   0.926   9.854   5.415 -0.0261  0.1928 -0.3470
25906SOL     OW82173   7.376   0.539   2.835 -0.4428 -0.3922  0.1328
25906SOL    HW182174   7.420   0.623   2.824  1.7022 -1.5635 -0.8390
25906SOL    HW282175   7.354   0.536   2.928 -0.4145  1.1544  0.2195
25907SOL     OW82176   3.591   5.654   7.722  0.3312 -0.0657 -0.0578
25907SOL    HW182177   3.545   5.572   7.702  0.8063 -0.9249  2.1465
25907SOL    HW282178   3.665   5.655   7.661 -0.7074 -0.2958 -1.3920
25908SOL     OW82179  10.388   3.307   6.788 -0.7927 -0.4627  1.2592
25908SOL    HW182180  10.311   3.274   6.834  0.1186 -1.2969  2.2422
25908SOL    HW282181  10.462   3.264   6.831  0.2752  0.8985  0.8518
25909SOL     OW82182  10.700  10.291   6.507  0.0721  0.5408 -0.0488
25909SOL    HW182183  10.627  10.329   6.557 -0.6195 -1.0556  0.2309
25909SOL    HW282184  10.665  10.282   6.418 -0.0112 -0.0028  0.0318
25910SOL     OW82185  10.285   1.945   7.268 -0.1860 -0.4997  0.0750
25910SOL    HW182186  10.201   1.938   7.222  0.3223  0.5497 -1.0502
25910SOL    HW282187  10.346   1.978   7.202  0.5297  1.2520  1.5331
25911SOL     OW82188   5.944  10.314   9.069  0.1315 -0.4930  0.2467
25911SOL    HW182189   5.961  10.399   9.109  1.0949 -1.4136  1.9012
25911SOL    HW282190   5.874  10.276   9.122  1.0602 -1.5186  0.7755
25912SOL     OW82191   3.906   0.006   2.277  0.0222  0.1684  0.2748
25912SOL    HW182192   3.946   0.090   2.298  0.4690  0.1664 -0.5435
25912SOL    HW282193   3.955  -0.026   2.202  0.7701 -1.4746  1.4009
25913SOL     OW82194   9.897   7.302   5.399 -0.5417  0.6101  0.0549
25913SOL    HW182195   9.953   7.369   5.359  1.1806  1.4754  3.5127
25913SOL    HW282196   9.818   7.351   5.425  0.6301  1.4082  2.3964
25914SOL     OW82197   2.287   0.537   6.686  0.5396  0.3140 -0.0474
25914SOL    HW182198   2.297   0.594   6.610 -0.8882  0.7237  0.0501
25914SOL    HW282199   2.295   0.596   6.761  1.9470 -0.0892  0.1510
25915SOL     OW82200  10.606   6.308   9.850 -0.1379  0.1014  0.3384
25915SOL    HW182201  10.511   6.318   9.857 -0.0993  0.3880  0.4562
25915SOL    HW282202  10.626   6.228   9.898 -0.1477  0.8129  1.5519
25916SOL     OW82203   5.582   9.178   8.614 -0.6095 -0.0857  0.4711
25916SOL    HW182204   5.594   9.115   8.685  1.6603  2.1196  2.2438
25916SOL    HW282205   5.665   9.177   8.566 -1.2185  0.2431 -0.6389
25917SOL     OW82206   4.391   2.045   3.471  0.3688  0.0982 -0.3681
25917SOL    HW182207   4.338   2.069   3.395  1.1699  2.7162 -0.2038
25917SOL    HW282208   4.353   2.095   3.544  1.0624 -0.5207  0.4354
25918SOL     OW82209   9.509   6.961   0.597  0.0265 -0.2281 -0.1377
25918SOL    HW182210   9.588   6.906   0.591  1.2357  1.4357 -0.0538
25918SOL    HW282211   9.516   7.004   0.683 -1.2618 -0.4445  0.1012
25919SOL     OW82212   4.320   0.648   5.396  0.6075 -0.1869 -0.5965
25919SOL    HW182213   4.286   0.644   5.307 -0.7452 -1.0373 -0.0761
25919SOL    HW282214   4.298   0.736   5.426 -2.2919 -1.0486  0.1057
25920SOL     OW82215   1.742   7.881   3.020 -0.4902  0.1359 -0.1338
25920SOL    HW182216   1.734   7.814   2.953 -0.1516 -0.1601  0.1195
25920SOL    HW282217   1.696   7.844   3.096 -2.1321  1.0552 -0.6230
25921SOL     OW82218   6.776   6.751   9.122  0.0872  0.6227 -0.5795
25921SOL    HW182219   6.763   6.677   9.181  1.1569  1.1299  0.3482
25921SOL    HW282220   6.734   6.725   9.040 -0.7099 -0.4447  0.1471
25922SOL     OW82221   3.313   0.517   7.479  0.6896 -0.5206  0.3534
25922SOL    HW182222   3.388   0.558   7.436  0.4896 -0.2095  0.2984
25922SOL    HW282223   3.272   0.588   7.528 -1.0831 -0.0297 -1.6612
25923SOL     OW82224   7.524   3.156   4.894 -0.2055 -0.4668 -0.1973
25923SOL    HW182225   7.475   3.146   4.812 -1.8762 -0.1228  0.7174
25923SOL    HW282226   7.506   3.245   4.922  0.5707 -0.4921  0.4175
25924SOL     OW82227   1.727   9.093  10.917  0.2633  0.6173 -0.0341
25924SOL    HW182228   1.680   9.159  10.866  1.1919  1.5770  0.3090
25924SOL    HW282229   1.793   9.059  10.857 -0.8776 -0.7820 -0.5386
25925SOL     OW82230   0.140   7.239   4.761 -0.3690  0.0098 -0.1378
25925SOL    HW182231   0.055   7.201   4.739 -1.4907  1.6752  1.1080
25925SOL    HW282232   0.119   7.326   4.794  2.0262  1.6052 -2.4330
25926SOL     OW82233   4.516   5.331   4.214  0.6252  0.1880 -0.6830
25926SOL    HW182234   4.563   5.410   4.186 -0.1236  1.1904  0.7182
25926SOL    HW282235   4.496   5.284   4.133 -0.7938  2.5448 -1.8199
25927SOL     OW82236  10.445   5.731   3.862  0.0404  0.2174 -0.4968
25927SOL    HW182237  10.437   5.743   3.957  0.3203  0.3724 -0.4924
25927SOL    HW282238  10.356   5.712   3.833 -0.0147 -0.0140 -0.1775
25928SOL     OW82239   2.003   7.689   0.511 -0.4579  0.1818  0.5050
25928SOL    HW182240   2.081   7.674   0.458 -0.7359  2.5665 -0.6987
25928SOL    HW282241   1.996   7.611   0.567  1.7148 -0.9026 -0.6411
25929SOL     OW82242   4.546   4.562   8.878 -0.4826 -0.6117  0.4670
25929SOL    HW182243   4.620   4.603   8.924 -0.4604  0.1398 -0.2157
25929SOL    HW282244   4.505   4.507   8.944  0.4333 -0.7080  0.9834
25930SOL     OW82245  11.075  10.890   6.544 -0.4556 -0.3029 -0.0081
25930SOL    HW182246  11.056  10.952   6.614 -1.4227  1.7373 -1.9408
25930SOL    HW282247  11.161  10.855   6.565 -0.7400  0.1961  2.1898
25931SOL     OW82248   3.233   1.540   6.920  0.3600 -0.1153  0.2369
25931SOL    HW182249   3.321   1.542   6.959  0.4511  0.8789 -0.0001
25931SOL    HW282250   3.182   1.600   6.974  0.0849  0.0610 -0.2142
25932SOL     OW82251   6.492   6.074   2.268 -0.1341  0.1854 -0.6297
25932SOL    HW182252   6.554   6.136   2.306 -0.0852 -0.2431  0.0069
25932SOL    HW282253   6.547   6.006   2.230 -0.1089 -1.9151  2.7267
25933SOL     OW82254   4.580   4.235   8.095  0.0166 -0.1050  0.3895
25933SOL    HW182255   4.504   4.188   8.131  0.8231 -0.0690  2.2848
25933SOL    HW282256   4.542   4.303   8.039 -1.3750  0.1131  1.5238
25934SOL     OW82257   1.382   2.630  11.005 -0.3457 -0.4399 -0.2084
25934SOL    HW182258   1.460   2.609  10.953 -0.0030 -0.6288  0.3825
25934SOL    HW282259   1.402   2.713  11.047 -0.3438 -0.6306  0.1749
25935SOL     OW82260   8.102   3.279   1.013  0.3768  0.8904  0.0988
25935SOL    HW182261   8.018   3.315   1.044  0.2589  0.3025  0.4719
25935SOL    HW282262   8.108   3.309   0.922 -0.4421  0.5890 -0.0629
25936SOL     OW82263  10.713   3.347   2.136 -0.0664  0.0000 -0.2773
25936SOL    HW182264  10.624   3.359   2.104  0.5533  1.0729 -1.7032
25936SOL    HW282265  10.757   3.299   2.067  1.4580  2.8581 -1.4537
25937SOL     OW82266   8.727   5.257   3.952  0.0468 -0.0475 -0.0982
25937SOL    HW182267   8.731   5.341   3.998  0.6903  0.5280 -1.1637
25937SOL    HW282268   8.634   5.240   3.941 -0.0934  0.3368  0.4557
25938SOL     OW82269   6.190   2.005   3.115 -0.4771  0.0525  0.2570
25938SOL    HW182270   6.103   1.999   3.155  0.3182 -0.3760  2.0133
25938SOL    HW282271   6.250   1.979   3.184  1.1073  0.7706 -0.7899
25939SOL     OW82272   6.557   3.347   9.460  0.8082  0.1469  0.5209
25939SOL    HW182273   6.524   3.271   9.411  1.3829  0.6508 -0.6781
25939SOL    HW282274   6.588   3.309   9.542  0.2492 -0.7872  0.3296
25940SOL     OW82275   5.869   2.637   7.323 -0.0049 -0.6593  0.3930
25940SOL    HW182276   5.924   2.691   7.267  0.0254 -0.7068  0.3758
25940SOL    HW282277   5.780   2.650   7.290  0.1872 -1.9266 -0.7096
25941SOL     OW82278   5.093   7.397   4.159 -0.2833 -0.1988 -0.1231
25941SOL    HW182279   5.017   7.339   4.161 -1.5273  1.3861  0.9563
25941SOL    HW282280   5.087   7.443   4.076  0.8979 -1.7606 -1.1430
25942SOL     OW82281   2.824   3.806   6.972 -0.5610  0.1002  0.9370
25942SOL    HW182282   2.844   3.770   7.058 -0.6327 -0.7616  0.6097
25942SOL    HW282283   2.908   3.806   6.926 -0.8508 -1.3663  0.3360
25943SOL     OW82284   8.046   0.351   7.312 -0.3967 -0.2558 -0.2171
25943SOL    HW182285   8.091   0.416   7.367 -1.4171  0.0518  0.3045
25943SOL    HW282286   7.953   0.361   7.336 -0.7771 -0.6471 -1.4620
25944SOL     OW82287   7.389   8.946   0.141  0.4121  0.3298 -0.1475
25944SOL    HW182288   7.389   8.888   0.218 -1.7015 -0.6595 -0.8343
25944SOL    HW282289   7.298   8.972   0.130  0.6598  0.4594 -2.3179
25945SOL     OW82290   9.741   3.676   1.722 -0.6480  0.3616 -0.7144
25945SOL    HW182291   9.765   3.723   1.802 -0.7634  0.5883 -0.8138
25945SOL    HW282292   9.777   3.588   1.735  1.1531  0.9617 -1.2845
25946SOL     OW82293   0.130   3.629   6.640  0.5047 -0.4854  0.2600
25946SOL    HW182294   0.075   3.681   6.699 -1.3232 -0.6871 -1.1649
25946SOL    HW282295   0.172   3.564   6.697  0.9238  0.9767  1.6947
25947SOL     OW82296   7.342   0.087   4.395 -0.3005  0.0078  0.0423
25947SOL    HW182297   7.309   0.081   4.305  2.0055 -1.2169 -0.7992
25947SOL    HW282298   7.263   0.078   4.450 -2.0148  2.5076 -1.7754
25948SOL     OW82299   8.623   4.390   4.373 -0.6306 -0.4567  0.1048
25948SOL    HW182300   8.695   4.411   4.314 -0.8749 -2.4627 -1.0198
25948SOL    HW282301   8.612   4.468   4.427  0.9856  0.6774 -1.1058
25949SOL     OW82302   6.799   8.096   3.838  0.2210 -0.4737 -0.3679
25949SOL    HW182303   6.814   8.188   3.816 -0.5103 -0.3867 -0.5317
25949SOL    HW282304   6.817   8.091   3.932  0.1307 -0.1337 -0.3312
25950SOL     OW82305   6.342   2.848   0.503  0.5783  0.1180 -0.0136
25950SOL    HW182306   6.268   2.902   0.478  1.3095  0.7839 -0.8119
25950SOL    HW282307   6.309   2.758   0.498 -0.4475  0.4413  0.6402
25951SOL     OW82308  10.625   6.428   2.382  0.8259 -0.2896  0.1617
25951SOL    HW182309  10.658   6.511   2.416 -0.5896  0.2772  0.2523
25951SOL    HW282310  10.664   6.419   2.295  2.1923 -0.3045  0.7598
25952SOL     OW82311   6.927   4.502   5.646  0.2196  0.3961  0.5436
25952SOL    HW182312   6.890   4.416   5.623  0.3135  0.5996 -0.4132
25952SOL    HW282313   6.937   4.499   5.741 -0.3752 -0.4152  0.5939
25953SOL     OW82314   5.396   3.960   5.487  0.4045 -0.1433  0.3851
25953SOL    HW182315   5.337   3.956   5.412  1.3219 -0.1412 -0.3485
25953SOL    HW282316   5.421   3.868   5.503  2.0817  0.0393 -0.8578
25954SOL     OW82317   0.669   1.558   6.779 -0.3646  0.5128 -0.5307
25954SOL    HW182318   0.666   1.522   6.868 -0.9948 -0.0709 -0.7762
25954SOL    HW282319   0.664   1.482   6.722 -0.0168  0.8886 -1.0746
25955SOL     OW82320  10.561   6.126   0.517 -0.1979 -0.0910 -0.3599
25955SOL    HW182321  10.561   6.056   0.452  2.3998 -0.3173 -0.1950
25955SOL    HW282322  10.583   6.205   0.466  0.6657 -0.0641  0.0528
25956SOL     OW82323   3.965   2.822   9.753 -0.2623 -0.3828 -0.0814
25956SOL    HW182324   3.973   2.901   9.806 -0.2390 -0.9314  0.7478
25956SOL    HW282325   4.049   2.778   9.761 -0.5680 -0.9321  0.1876
25957SOL     OW82326   5.296   5.229   0.868 -0.2290 -0.1098  0.0036
25957SOL    HW182327   5.384   5.263   0.851 -0.5924  0.2771 -1.2367
25957SOL    HW282328   5.287   5.231   0.963  1.7165 -1.7413  0.2744
25958SOL     OW82329   3.977   1.429  11.072 -0.5445  0.4413 -0.2679
25958SOL    HW182330   3.988   1.334  11.073  1.5214  0.5171 -2.8374
25958SOL    HW282331   4.058   1.463  11.111 -0.3963  1.0994 -1.0981
25959SOL     OW82332   2.052   3.480   6.659 -0.0385  0.6285  0.2301
25959SOL    HW182333   1.960   3.463   6.641  0.0093  0.6922 -0.0841
25959SOL    HW282334   2.099   3.441   6.586  0.1193  1.4474 -0.1159
25960SOL     OW82335   2.817   3.668   9.162 -0.9753  0.1783 -0.2237
25960SOL    HW182336   2.862   3.700   9.085 -0.4906  2.2233  0.8297
25960SOL    HW282337   2.729   3.706   9.156 -0.7542  0.8297  0.4855
25961SOL     OW82338   0.138   6.413   5.303  0.1618 -0.3040  0.1791
25961SOL    HW182339   0.110   6.340   5.247  0.0863 -0.4553  0.4152
25961SOL    HW282340   0.233   6.406   5.304  0.1753 -0.1805 -0.0947
25962SOL     OW82341   6.524   4.652   9.225  0.0291 -0.2250 -0.2090
25962SOL    HW182342   6.559   4.587   9.287 -0.8784 -1.6391 -1.1248
25962SOL    HW282343   6.602   4.698   9.193  0.4898  1.2564  2.6357
25963SOL     OW82344   6.127   5.219   4.973 -0.1139 -0.9576 -0.3952
25963SOL    HW182345   6.211   5.222   5.019 -1.0047 -2.3369  1.5143
25963SOL    HW282346   6.142   5.159   4.900  0.2378 -2.4152  0.8156
25964SOL     OW82347   8.964  10.638   9.044  0.3894 -0.1766  0.1386
25964SOL    HW182348   8.979  10.545   9.033  1.3300 -0.2515  1.7492
25964SOL    HW282349   9.025  10.680   8.983 -2.7467 -0.5326 -3.5909
25965SOL     OW82350   1.332   8.471   7.386  0.5617  0.5604 -0.6214
25965SOL    HW182351   1.328   8.480   7.290 -0.1526  0.1639 -0.6341
25965SOL    HW282352   1.263   8.528   7.418  1.3111  1.3009 -0.2888
25966SOL     OW82353   6.318   5.824   1.280 -0.0794  0.3735  0.3270
25966SOL    HW182354   6.383   5.755   1.273  0.4506  0.9425 -0.6791
25966SOL    HW282355   6.304   5.853   1.190 -0.9982  0.9323  0.6311
25967SOL     OW82356   5.086   0.388   0.377  0.0084 -0.7822 -0.5218
25967SOL    HW182357   5.140   0.310   0.384 -0.5359 -1.2300 -1.1782
25967SOL    HW282358   5.081   0.406   0.283 -0.6164 -0.4968 -0.4396
25968SOL     OW82359   2.447   4.543   6.608  0.9727 -0.1966  0.1340
25968SOL    HW182360   2.491   4.585   6.682 -0.4559  0.3560  0.7108
25968SOL    HW282361   2.434   4.453   6.637  3.3120 -0.9031 -0.7818
25969SOL     OW82362   7.503  10.357   5.137 -0.5390 -0.1061 -0.2517
25969SOL    HW182363   7.441  10.284   5.135 -0.7999 -0.0026  1.8707
25969SOL    HW282364   7.455  10.431   5.100 -1.3083 -0.2936  0.3581
25970SOL     OW82365   7.063   0.940   4.605 -0.5414 -0.3014 -0.0692
25970SOL    HW182366   7.030   0.895   4.683  1.0349 -0.8405  0.3330
25970SOL    HW282367   7.028   0.889   4.532  1.2876 -2.3378  0.3764
25971SOL     OW82368   8.011   6.158   1.166 -0.3370 -0.6594 -0.3676
25971SOL    HW182369   7.945   6.227   1.173 -0.0724 -0.5656  1.7155
25971SOL    HW282370   7.972   6.083   1.211 -0.3931 -1.7288 -2.1180
25972SOL     OW82371   8.042   8.230   3.450  0.0912 -0.6569 -0.3372
25972SOL    HW182372   8.059   8.136   3.461 -0.4686 -0.7403 -0.1465
25972SOL    HW282373   7.947   8.235   3.438 -0.1725  0.0744  1.7912
25973SOL     OW82374   6.486   8.771   1.958 -0.2736 -0.3011  0.5813
25973SOL    HW182375   6.507   8.833   2.027 -0.5820  0.0716  0.3421
25973SOL    HW282376   6.421   8.815   1.904 -0.5250 -0.8480  0.4297
25974SOL     OW82377   0.712   7.169   9.657  0.6951  0.6222 -0.3516
25974SOL    HW182378   0.727   7.163   9.563 -0.2493 -1.7172 -0.4129
25974SOL    HW282379   0.800   7.166   9.696  1.0668  1.1907 -1.1203
25975SOL     OW82380   4.412   3.243   7.592 -0.2517 -0.3381 -0.7064
25975SOL    HW182381   4.423   3.187   7.669 -1.6894  0.6055  0.2492
25975SOL    HW282382   4.481   3.216   7.532  1.3931 -0.6312  1.2081
25976SOL     OW82383   3.453   9.272   8.503  0.2323  0.4007 -0.6901
25976SOL    HW182384   3.401   9.197   8.473 -1.3057  0.5660  1.2877
25976SOL    HW282385   3.402   9.349   8.478 -1.7535  0.5290  2.9696
25977SOL     OW82386   5.879   6.837   3.030 -0.2049  0.2571  0.2315
25977SOL    HW182387   5.797   6.858   3.076 -0.2280  0.7870 -0.0345
25977SOL    HW282388   5.881   6.899   2.956  0.2180 -0.0507 -0.0190
25978SOL     OW82389  10.086   5.043   4.944  0.8591  0.2155  0.1240
25978SOL    HW182390  10.087   4.976   5.012  0.0894 -1.0686 -1.0760
25978SOL    HW282391  10.019   5.015   4.883  1.1192  1.6377 -0.8851
25979SOL     OW82392   1.958   2.997   9.356  0.6042  0.2972 -0.0855
25979SOL    HW182393   1.934   3.049   9.432  0.8712  1.6013 -0.8423
25979SOL    HW282394   2.039   2.954   9.381  0.3897  0.2662  0.5640
25980SOL     OW82395   1.469   7.160   6.977 -0.7099 -0.1848 -0.2021
25980SOL    HW182396   1.452   7.254   6.968 -0.5196 -0.1702 -0.3972
25980SOL    HW282397   1.389   7.126   7.017 -1.4497 -0.2119 -1.6386
25981SOL     OW82398  10.394   6.877   1.564  0.2308  0.0976 -0.4821
25981SOL    HW182399  10.475   6.901   1.609  0.0313 -0.1690  0.0185
25981SOL    HW282400  10.343   6.830   1.629 -0.3714  0.3451 -0.7705
25982SOL     OW82401   8.648   3.433   3.350 -0.0926 -0.3636  0.0479
25982SOL    HW182402   8.632   3.352   3.399 -1.4753 -0.9076 -1.2442
25982SOL    HW282403   8.723   3.412   3.294  1.9219  0.4612  2.2507
25983SOL     OW82404   4.534  10.343   5.328 -0.1572 -0.1054  0.1826
25983SOL    HW182405   4.607  10.288   5.300  0.0041 -0.1190  0.6166
25983SOL    HW282406   4.499  10.380   5.247  0.3729 -0.0528 -0.0293
25984SOL     OW82407   3.217   6.222   8.652  0.2039  0.3029 -0.3148
25984SOL    HW182408   3.283   6.273   8.699 -0.1335 -0.6969  1.3076
25984SOL    HW282409   3.227   6.249   8.560 -0.5817  3.9832  0.5090
25985SOL     OW82410   6.108   6.909   9.402 -0.0838 -0.6097 -0.4347
25985SOL    HW182411   6.087   6.922   9.495  1.1113 -2.0071  0.0660
25985SOL    HW282412   6.053   6.835   9.376  0.8621 -1.3705 -0.3310
25986SOL     OW82413   7.114   9.776   4.577 -0.5187  0.3104 -0.3780
25986SOL    HW182414   7.031   9.780   4.625 -0.7525 -1.0244 -0.6362
25986SOL    HW282415   7.088   9.775   4.485 -0.2244 -0.3683 -0.4536
25987SOL     OW82416   5.811   8.953   8.590 -0.1584 -0.5191 -0.5183
25987SOL    HW182417   5.832   8.864   8.562 -2.7869 -1.2994 -0.2060
25987SOL    HW282418   5.832   8.955   8.683 -0.8746 -1.0924 -0.3388
25988SOL     OW82419   7.521   4.938   1.381 -0.3089  0.6127  0.2091
25988SOL    HW182420   7.600   4.906   1.338 -0.9983  1.4340 -1.7345
25988SOL    HW282421   7.452   4.927   1.316 -1.6157  0.8512  1.5111
25989SOL     OW82422   4.678   8.686   4.226 -0.8183  0.0781 -0.2326
25989SOL    HW182423   4.722   8.742   4.291 -0.3162 -0.1831 -0.3386
25989SOL    HW282424   4.585   8.701   4.241 -0.7065  0.2239  0.3800
25990SOL     OW82425   8.017   0.941   7.191 -0.2600 -0.0547 -0.2142
25990SOL    HW182426   7.994   0.888   7.267  0.2196 -1.3789 -0.9678
25990SOL    HW282427   8.007   0.882   7.116  1.3174  0.6120 -0.9889
25991SOL     OW82428   6.561   0.888   5.879  0.0314  0.0018  0.0178
25991SOL    HW182429   6.477   0.936   5.880 -1.5154 -2.5187 -0.0615
25991SOL    HW282430   6.585   0.884   5.787  0.0279  0.3702 -0.0023
25992SOL     OW82431   6.946   7.864   9.840 -0.4438 -0.2299 -0.3455
25992SOL    HW182432   6.964   7.783   9.793 -0.1256  0.4265 -1.3938
25992SOL    HW282433   6.890   7.838   9.912 -1.1454 -1.2384 -1.2261
25993SOL     OW82434  10.475   9.871   2.219  0.3938  0.3933  0.1654
25993SOL    HW182435  10.386   9.902   2.202  0.2555 -0.0506  0.0755
25993SOL    HW282436  10.526   9.904   2.145  0.1886  0.1594 -0.0842
25994SOL     OW82437   7.827   1.403   0.891  0.1913  0.3638  0.0764
25994SOL    HW182438   7.749   1.358   0.857  0.5908 -0.1165 -0.2160
25994SOL    HW282439   7.835   1.481   0.836  1.6150 -1.0825 -1.9152
25995SOL     OW82440   5.830   8.779   9.959 -0.4564 -0.6374 -0.4392
25995SOL    HW182441   5.740   8.812   9.953 -0.7195 -1.3479 -0.5121
25995SOL    HW282442   5.873   8.810   9.880 -0.2393  0.8427  0.2177
25996SOL     OW82443  10.737   1.250   8.047  1.1820  0.2609 -0.9924
25996SOL    HW182444  10.645   1.226   8.032  0.6391  1.6093  0.0106
25996SOL    HW282445  10.770   1.271   7.960  0.5451 -0.2351 -1.3698
25997SOL     OW82446   2.832   2.739   6.830 -0.0852 -0.3079 -0.0224
25997SOL    HW182447   2.816   2.646   6.813 -2.0815 -0.2942  1.3929
25997SOL    HW282448   2.905   2.739   6.892 -1.8421 -1.1992  2.2152
25998SOL     OW82449   0.268   2.786  10.501 -0.7857  0.6160  0.0851
25998SOL    HW182450   0.205   2.807  10.570  0.1751 -0.3460  1.3124
25998SOL    HW282451   0.247   2.696  10.476  0.8009 -0.1530  1.3658
25999SOL     OW82452   2.375   5.394  10.149  0.0923 -0.4956  0.0890
25999SOL    HW182453   2.444   5.342  10.190  3.0149  1.7217 -1.6594
25999SOL    HW282454   2.378   5.369  10.057 -0.8286  0.2870 -0.1694
26000SOL     OW82455   4.668   2.376   8.085 -0.2555  0.4679  0.2070
26000SOL    HW182456   4.585   2.425   8.085 -0.4258  0.2219 -1.1741
26000SOL    HW282457   4.722   2.423   8.022 -0.0936 -0.5845 -0.4546
26001SOL     OW82458   0.502   8.621   8.672  0.0122  0.3811  0.0467
26001SOL    HW182459   0.445   8.698   8.679 -0.1208  0.3267 -0.4090
26001SOL    HW282460   0.489   8.589   8.582 -1.6587 -1.5142  0.8916
26002SOL     OW82461   9.469   0.428   3.182  0.2930  0.0622 -0.1337
26002SOL    HW182462   9.461   0.512   3.136 -1.2318  0.4129  0.7090
26002SOL    HW282463   9.520   0.373   3.123  0.3767  1.2371 -1.1912
26003SOL     OW82464   8.635   0.711   1.679 -0.2572 -1.0848  0.5244
26003SOL    HW182465   8.645   0.712   1.775  0.5038  0.0322  0.4506
26003SOL    HW282466   8.588   0.791   1.659 -0.1699 -1.1771 -0.0568
26004SOL     OW82467   5.829   5.581   3.232  0.2393  0.2888  0.4194
26004SOL    HW182468   5.803   5.659   3.183  1.7902 -0.3104 -1.4427
26004SOL    HW282469   5.747   5.549   3.272 -0.9844  1.1078 -1.3412
26005SOL     OW82470   2.660   1.957   1.490  0.8944 -0.4020  0.0445
26005SOL    HW182471   2.573   1.995   1.505  0.5494 -0.6301 -1.3068
26005SOL    HW282472   2.686   1.924   1.576 -0.1158  0.1645  0.5912
26006SOL     OW82473  10.839   9.918   0.939 -0.6244  0.5547 -0.2822
26006SOL    HW182474  10.911   9.946   0.996 -0.6424  0.6377 -0.3006
26006SOL    HW282475  10.868   9.941   0.851 -0.5768  0.3869 -0.3120
26007SOL     OW82476   8.968   3.039   8.169  0.6389 -0.2236  0.1788
26007SOL    HW182477   8.874   3.030   8.154  0.4997  1.0632  0.1549
26007SOL    HW282478   9.007   2.965   8.124 -0.4158 -1.2715  0.9214
26008SOL     OW82479   4.027   6.935   5.209 -0.1828  0.2831  0.1767
26008SOL    HW182480   3.991   6.921   5.297  0.2489 -1.3704  0.1218
26008SOL    HW282481   3.960   6.987   5.164 -0.8244  0.3766  1.1982
26009SOL     OW82482   6.614   8.281   7.379  0.0414  0.0147  0.3542
26009SOL    HW182483   6.530   8.263   7.337  1.5821 -1.7740 -2.2560
26009SOL    HW282484   6.639   8.368   7.348  0.8390 -1.0079 -2.0585
26010SOL     OW82485   2.649   4.515   1.720  0.2122 -0.5284  0.5124
26010SOL    HW182486   2.566   4.548   1.753 -0.3558 -0.6267 -0.7445
26010SOL    HW282487   2.625   4.452   1.652  1.2893 -2.1926  1.5877
26011SOL     OW82488   3.926   2.131   0.618 -0.3410  0.0786 -0.1002
26011SOL    HW182489   3.971   2.078   0.684 -1.3867 -0.1249  0.4815
26011SOL    HW282490   3.874   2.193   0.670 -0.8751  0.1777 -0.7489
26012SOL     OW82491   5.449   9.681   4.279  0.5061 -0.5412 -0.6100
26012SOL    HW182492   5.509   9.610   4.302 -0.1301 -0.8378  0.1455
26012SOL    HW282493   5.507   9.753   4.252  1.2989 -0.3019  1.5224
26013SOL     OW82494   1.776   4.153   9.073 -0.0656  0.0340 -0.4163
26013SOL    HW182495   1.822   4.163   9.156 -0.0865  2.9855 -0.6435
26013SOL    HW282496   1.845   4.139   9.008  0.5370  2.9049 -0.5388
26014SOL     OW82497   5.932   7.598   5.737  0.7173  0.6474  0.3835
26014SOL    HW182498   5.875   7.531   5.772  0.0827  0.7157 -0.4825
26014SOL    HW282499   6.018   7.580   5.776  0.7173 -1.0563 -0.3029
26015SOL     OW82500   5.023  10.386  10.494  0.0469 -0.3205  0.0832
26015SOL    HW182501   4.986  10.308  10.537 -1.6583  1.1247  1.4268
26015SOL    HW282502   5.051  10.442  10.566 -0.3624  1.0371 -0.7725
26016SOL     OW82503   3.935   2.056   8.039 -0.3124  0.6805  0.2656
26016SOL    HW182504   3.967   2.085   7.954 -1.3021  1.9345  0.2991
26016SOL    HW282505   3.918   1.962   8.027 -2.2622  1.1732 -1.5443
26017SOL     OW82506   0.906   1.698   4.513  0.5775 -0.4991 -0.1536
26017SOL    HW182507   0.811   1.690   4.522  0.4768  0.7344  0.0859
26017SOL    HW282508   0.940   1.673   4.599  0.2840  1.4560  0.5718
26018SOL     OW82509   6.599   5.859   9.225 -0.3280 -0.2868  0.0974
26018SOL    HW182510   6.690   5.886   9.213 -0.5439  0.9701  1.0332
26018SOL    HW282511   6.581   5.878   9.317 -1.1155 -1.8976  0.3151
26019SOL     OW82512   2.054   2.336   8.052 -0.2292  0.2381 -0.1901
26019SOL    HW182513   1.989   2.269   8.073 -1.1304  1.4213  0.9544
26019SOL    HW282514   2.101   2.350   8.134  0.0286  0.9196 -0.4498
26020SOL     OW82515   8.686   2.739   5.425  0.0705  0.3088  0.4549
26020SOL    HW182516   8.746   2.707   5.493  0.0586  0.5624  0.5843
26020SOL    HW282517   8.599   2.730   5.464  0.0346  0.0875  0.3251
26021SOL     OW82518   3.284   9.255   2.333  0.4267 -0.4682  0.0907
26021SOL    HW182519   3.229   9.330   2.356  0.5056 -0.3938  0.0394
26021SOL    HW282520   3.370   9.293   2.319  0.2263 -0.3972 -1.0518
26022SOL     OW82521   6.596   9.526   7.287 -0.2608 -0.1549 -0.1188
26022SOL    HW182522   6.658   9.519   7.215  0.4744  0.0198  0.4824
26022SOL    HW282523   6.515   9.489   7.253  0.0344  0.0696 -1.0775
26023SOL     OW82524   6.759   3.284   0.021  0.3350 -0.4389  0.5782
26023SOL    HW182525   6.667   3.312   0.024  0.4680  0.1673 -0.3939
26023SOL    HW282526   6.793   3.305   0.108  0.0362  1.1427  0.3464
26024SOL     OW82527   6.759   3.364   9.983 -0.1127 -0.0510 -0.1899
26024SOL    HW182528   6.830   3.351  10.045 -0.2814 -1.0386 -0.1897
26024SOL    HW282529   6.797   3.342   9.898 -0.4794 -0.8512 -0.1572
26025SOL     OW82530   3.651  10.487   0.904  0.4885  0.3665  0.4257
26025SOL    HW182531   3.701  10.463   0.982  0.0343  3.6382  1.8804
26025SOL    HW282532   3.564  10.509   0.937  0.1356  1.3962 -1.0846
26026SOL     OW82533   8.754   6.949   7.106  0.1135 -0.2756 -0.1038
26026SOL    HW182534   8.754   6.943   7.201  3.3389 -0.3881  0.0059
26026SOL    HW282535   8.771   6.860   7.076  1.0135  0.0735 -0.6740
26027SOL     OW82536  10.983  10.664   0.992 -0.2149 -0.6493  0.0821
26027SOL    HW182537  10.947  10.590   0.942 -1.4524 -0.0318  0.0248
26027SOL    HW282538  10.912  10.690   1.050  1.3481 -1.6516  2.5883
26028SOL     OW82539   6.345   9.502   6.783  0.1769 -0.0127  0.1872
26028SOL    HW182540   6.264   9.451   6.783  0.6446 -0.8158  1.7032
26028SOL    HW282541   6.404   9.453   6.840  0.9774  1.7252  0.9215
26029SOL     OW82542   8.084  10.437   8.270 -0.2917  0.1277  0.3183
26029SOL    HW182543   8.169  10.393   8.275 -0.4232 -0.4208 -1.5807
26029SOL    HW282544   8.020  10.366   8.265 -0.5470  0.4330 -2.1359
26030SOL     OW82545   1.242   3.535   8.488  0.0835 -0.4435 -0.2881
26030SOL    HW182546   1.156   3.577   8.491 -0.6570 -1.8325 -1.0461
26030SOL    HW282547   1.297   3.589   8.544  0.6095  4.5414 -4.7817
26031SOL     OW82548   6.203   2.376   8.704  0.1146 -0.4423 -0.0473
26031SOL    HW182549   6.145   2.426   8.647 -0.1035 -0.4377  0.1815
26031SOL    HW282550   6.197   2.286   8.671  0.9134 -0.2359 -0.7972
26032SOL     OW82551   6.395   0.727  10.279 -0.0105 -0.5881  0.4500
26032SOL    HW182552   6.378   0.784  10.204  0.0705 -3.0639 -1.5886
26032SOL    HW282553   6.479   0.757  10.314 -0.4777  1.1743  0.1729
26033SOL     OW82554   2.279   4.257   9.445  0.1157 -0.6880 -0.0737
26033SOL    HW182555   2.273   4.210   9.362 -0.1882 -2.6261  0.9826
26033SOL    HW282556   2.191   4.250   9.483 -0.2235  1.6358 -0.2926
26034SOL     OW82557  10.432  11.065   5.217  0.2113 -0.0655 -1.2913
26034SOL    HW182558  10.445  11.031   5.129  0.1872  1.4886 -1.9238
26034SOL    HW282559  10.387  10.995   5.263  0.2991 -0.9367 -2.4850
26035SOL     OW82560   1.746   0.293   5.813 -0.3321 -0.7984  0.3170
26035SOL    HW182561   1.773   0.360   5.750  1.1263 -0.5240  1.1796
26035SOL    HW282562   1.673   0.248   5.771  0.7853 -0.8386 -1.7032
26036SOL     OW82563   6.398   1.712   3.260 -0.1128  0.5875  0.5649
26036SOL    HW182564   6.313   1.678   3.289  0.7304 -2.2913  0.0173
26036SOL    HW282565   6.453   1.707   3.338  0.6068 -1.6651  0.0047
26037SOL     OW82566   8.699   4.954   7.083  0.0488  0.2487 -0.1775
26037SOL    HW182567   8.704   5.006   7.163 -0.8437 -0.0939  0.1161
26037SOL    HW282568   8.775   4.896   7.087 -1.8051 -2.2440  2.2395
26038SOL     OW82569   8.711   8.187   2.982 -0.6926 -0.2351 -0.0153
26038SOL    HW182570   8.667   8.181   3.067  2.0740 -2.8619  1.4067
26038SOL    HW282571   8.655   8.138   2.922 -1.3463 -0.7206  0.9685
26039SOL     OW82572   1.032  10.340   4.819 -0.0038  0.8744  0.6253
26039SOL    HW182573   1.121  10.330   4.785 -0.0081  1.1894  0.5221
26039SOL    HW282574   0.976  10.301   4.751  0.2162 -2.0386  1.9450
26040SOL     OW82575   7.377   8.851   3.347 -0.5917 -0.0801  0.1319
26040SOL    HW182576   7.447   8.862   3.283 -3.1670  0.5425 -2.8356
26040SOL    HW282577   7.412   8.888   3.428  2.8570 -0.8804 -0.8287
26041SOL     OW82578   6.617   2.905   4.623 -0.0432 -0.3017 -0.5248
26041SOL    HW182579   6.637   2.994   4.595  2.0045 -0.8463 -0.9613
26041SOL    HW282580   6.672   2.891   4.700 -0.6529 -1.0705 -0.2114
26042SOL     OW82581   2.563   3.067   2.230  0.4542  0.1567  0.2153
26042SOL    HW182582   2.639   3.057   2.287  1.3171  0.7833 -0.7731
26042SOL    HW282583   2.512   2.987   2.242  1.6567 -0.6085  0.3528
26043SOL     OW82584   9.893   2.822  10.518 -0.3258  0.2387 -0.2418
26043SOL    HW182585   9.880   2.730  10.494 -1.4545 -0.1394  1.5716
26043SOL    HW282586   9.984   2.825  10.549 -0.3225 -0.3310 -0.1644
26044SOL     OW82587   9.588   0.792   4.015 -0.4229 -0.1957 -0.5995
26044SOL    HW182588   9.626   0.871   3.976  2.8790 -1.6080 -0.5847
26044SOL    HW282589   9.624   0.790   4.104 -2.2141 -0.6541  0.1527
26045SOL     OW82590   8.086   4.799   5.473 -0.0415  0.4277  0.6548
26045SOL    HW182591   8.053   4.839   5.392  0.3226 -0.0559  0.2579
26045SOL    HW282592   8.172   4.839   5.486  1.3802 -1.7885 -1.0119
26046SOL     OW82593  10.035   3.355   3.973  0.3053 -0.5995  0.3820
26046SOL    HW182594  10.069   3.308   4.049  0.1824  0.0215  0.8268
26046SOL    HW282595  10.092   3.431   3.966 -0.9551  0.4463  1.1200
26047SOL     OW82596   5.583   7.776   7.361 -0.0254 -0.2970  0.5557
26047SOL    HW182597   5.654   7.840   7.360 -0.1011 -0.2202 -0.2544
26047SOL    HW282598   5.615   7.706   7.418  0.4997 -0.0469  0.5777
26048SOL     OW82599   9.975   1.721   6.331  0.4579 -0.0063  0.4452
26048SOL    HW182600   9.968   1.816   6.329 -1.7250 -0.1044  1.0020
26048SOL    HW282601   9.961   1.697   6.422  2.0179 -0.8414  0.4991
26049SOL     OW82602   2.294   6.189  10.278 -0.1985  0.2556  0.1496
26049SOL    HW182603   2.219   6.134  10.258 -1.1982  0.8455  2.0808
26049SOL    HW282604   2.308   6.179  10.372  2.0175  0.3454 -0.1120
26050SOL     OW82605   3.294   6.786   1.946 -0.6957 -0.2889  0.4745
26050SOL    HW182606   3.219   6.756   1.997  0.1392 -2.5000  0.5051
26050SOL    HW282607   3.279   6.751   1.858  0.7166 -1.6706  0.7201
26051SOL     OW82608   9.783   2.493   1.869 -0.7379 -0.0223 -0.1385
26051SOL    HW182609   9.731   2.453   1.939 -1.2219 -1.0403 -1.0605
26051SOL    HW282610   9.872   2.465   1.887 -0.2904  2.2915  1.8537
26052SOL     OW82611   9.086   0.643   2.469 -0.2775 -0.1668  0.0218
26052SOL    HW182612   9.066   0.552   2.448 -2.1988  0.3592 -0.5862
26052SOL    HW282613   9.182   0.648   2.464 -0.2326 -1.7094 -1.7521
26053SOL     OW82614   2.407   3.598   6.533  0.3037 -0.3840  0.1142
26053SOL    HW182615   2.330   3.637   6.490 -1.3356 -3.1535  0.2717
26053SOL    HW282616   2.436   3.530   6.471  0.3304 -1.7949  1.6126
26054SOL     OW82617   4.323   1.047   0.553  0.0551  0.0789 -0.8603
26054SOL    HW182618   4.293   1.121   0.605  1.9007  0.3740 -0.1459
26054SOL    HW282619   4.374   1.086   0.482 -1.6717 -0.3724 -2.4321
26055SOL     OW82620   0.635   9.451   5.907 -0.5984  0.3108  0.1328
26055SOL    HW182621   0.618   9.539   5.873 -1.4032 -0.2070 -0.8705
26055SOL    HW282622   0.548   9.417   5.928 -0.3484 -0.4802 -0.1036
26056SOL     OW82623   1.618   1.423   6.865 -0.0383  0.3121  0.4732
26056SOL    HW182624   1.587   1.479   6.936 -2.4005 -2.6553  2.0144
26056SOL    HW282625   1.568   1.452   6.788 -2.3918 -0.4955  1.5859
26057SOL     OW82626   8.837   2.962   5.035 -0.1321  0.3669 -0.8029
26057SOL    HW182627   8.882   2.879   5.052 -0.7887  0.1889  0.1042
26057SOL    HW282628   8.771   2.969   5.104  1.6896  2.9704  0.8484
26058SOL     OW82629   9.978   4.047   8.728 -0.2823  0.7054  0.3409
26058SOL    HW182630   9.907   3.983   8.737  0.4614 -0.0108  1.2237
26058SOL    HW282631   9.999   4.046   8.634  0.2977 -0.9995  0.4586
26059SOL     OW82632   2.150   2.088   6.577 -0.0422  0.3559 -0.5864
26059SOL    HW182633   2.206   2.049   6.510 -1.3752 -0.1499 -1.4698
26059SOL    HW282634   2.107   2.014   6.619 -1.7674  0.7518 -1.5227
26060SOL     OW82635   8.889   0.800   2.572 -0.5201 -0.4133 -0.0383
26060SOL    HW182636   8.855   0.852   2.498 -0.0526  0.8573  0.6056
26060SOL    HW282637   8.957   0.745   2.533 -1.1439 -0.6965 -0.7719
26061SOL     OW82638   7.410   8.135   4.272 -0.2065  0.8014 -0.2818
26061SOL    HW182639   7.371   8.049   4.261  0.8188 -0.1041  2.4028
26061SOL    HW282640   7.337   8.196   4.260 -1.3191 -0.5197 -0.4833
26062SOL     OW82641   0.032   3.052   8.648 -0.2281 -0.0571  0.2188
26062SOL    HW182642  -0.004   2.970   8.612  3.4876 -2.0099  0.4384
26062SOL    HW282643   0.016   3.046   8.742 -0.2122 -0.4467  0.2010
26063SOL     OW82644   8.277   8.265   7.947  0.0155  0.6364  0.5425
26063SOL    HW182645   8.201   8.323   7.950  0.2068  0.9109  0.0889
26063SOL    HW282646   8.350   8.322   7.921  0.1988  0.1904  0.0618
26064SOL     OW82647   2.678   5.503   5.281  0.2306  1.0255 -0.0436
26064SOL    HW182648   2.711   5.572   5.339  0.3935 -1.2012  2.7408
26064SOL    HW282649   2.586   5.525   5.267  0.6945  2.7049 -0.7239
26065SOL     OW82650   6.824   7.693   2.008 -0.4112  0.0801 -0.3766
26065SOL    HW182651   6.908   7.739   2.003 -0.6191  0.6097  0.6006
26065SOL    HW282652   6.769   7.738   1.944  0.0818 -0.3706 -1.1345
26066SOL     OW82653   5.351   4.420   7.223  0.1645  0.0721 -0.3582
26066SOL    HW182654   5.336   4.485   7.292 -0.1135  0.2719 -0.6063
26066SOL    HW282655   5.357   4.337   7.270  0.3048  0.2482 -0.0600
26067SOL     OW82656   0.830  10.517   3.912  0.1493 -0.3136 -0.4580
26067SOL    HW182657   0.753  10.460   3.921 -0.3059  0.3377 -0.1760
26067SOL    HW282658   0.807  10.576   3.840  1.0126 -1.0883 -1.4082
26068SOL     OW82659   9.153  10.108   0.016 -1.0526  0.2666  0.1636
26068SOL    HW182660   9.230  10.164   0.007  0.6152 -1.9828 -0.4814
26068SOL    HW282661   9.089  10.144  -0.045  0.3688  0.8511 -1.0422
26069SOL     OW82662   9.113   3.213   2.089 -0.1033 -0.1044 -0.1223
26069SOL    HW182663   9.107   3.121   2.115  1.9756 -0.7011 -1.4909
26069SOL    HW282664   9.172   3.213   2.013 -0.8486  2.2562 -0.8012
26070SOL     OW82665   7.873   1.909   0.852  0.5114  0.1671  0.3597
26070SOL    HW182666   7.842   1.992   0.816  1.0187 -0.3396 -1.3510
26070SOL    HW282667   7.801   1.877   0.906 -0.1480  1.1548  0.0843
26071SOL     OW82668   4.942   0.675   2.283 -0.1054  0.1595 -0.0113
26071SOL    HW182669   4.893   0.638   2.210 -1.0615 -0.9661  1.1473
26071SOL    HW282670   5.030   0.642   2.272 -0.2942 -0.1812 -0.5301
26072SOL     OW82671   6.778   0.036   1.134 -0.9980 -0.4105 -0.0450
26072SOL    HW182672   6.812  -0.044   1.173 -0.2560 -1.0181 -1.8232
26072SOL    HW282673   6.684   0.019   1.124 -1.0112 -0.6636  0.4880
26073SOL     OW82674   3.439   4.228   5.442 -0.6236 -0.1619  0.3232
26073SOL    HW182675   3.351   4.252   5.415 -0.5092  0.2712  0.3412
26073SOL    HW282676   3.493   4.242   5.364 -0.4197  0.4041  0.5614
26074SOL     OW82677   2.210  10.253   5.364 -0.1964 -0.1480  0.0689
26074SOL    HW182678   2.167  10.240   5.449  0.4356 -0.1019  0.4001
26074SOL    HW282679   2.152  10.313   5.317 -1.1471 -1.0671  0.0205
26075SOL     OW82680   8.484   0.765  10.096 -0.5462 -0.4808 -0.1304
26075SOL    HW182681   8.423   0.834  10.121 -1.4929 -0.9784 -1.0099
26075SOL    HW282682   8.569   0.796  10.128 -1.2467  0.1987  1.1505
26076SOL     OW82683   4.825   0.541   8.913  0.3284  0.3382 -0.5315
26076SOL    HW182684   4.835   0.446   8.906  1.6839  0.4446 -0.2829
26076SOL    HW282685   4.823   0.558   9.007  0.6519  0.6140 -0.5766
26077SOL     OW82686   1.046   7.937  10.760 -0.7355  0.1830 -0.2113
26077SOL    HW182687   1.102   7.999  10.807  0.6706 -0.9265 -0.3491
26077SOL    HW282688   1.058   7.854  10.806 -2.0562 -0.1558 -0.4413
26078SOL     OW82689   7.225   8.365   9.527  0.6014  0.3056  0.2750
26078SOL    HW182690   7.233   8.401   9.616  0.6486  0.2072  0.3113
26078SOL    HW282691   7.315   8.354   9.498  0.6286 -1.0173  0.7678
26079SOL     OW82692  10.529   6.688  10.312 -1.2102 -0.0545 -0.3673
26079SOL    HW182693  10.494   6.761  10.363 -0.7213  0.2079 -0.3952
26079SOL    HW282694  10.484   6.693  10.227 -1.0273  0.3440 -0.4427
26080SOL     OW82695   8.247   6.688   2.557 -0.0253  0.2792  0.6698
26080SOL    HW182696   8.163   6.722   2.588 -0.2279  1.1603 -0.7326
26080SOL    HW282697   8.263   6.736   2.475  0.6181 -1.7024 -0.4220
26081SOL     OW82698   4.131   0.820   5.582 -0.1008  0.3525 -0.0485
26081SOL    HW182699   4.071   0.863   5.642 -0.2853  0.3818 -0.2549
26081SOL    HW282700   4.085   0.817   5.498 -0.5232 -1.1705  0.2029
26082SOL     OW82701   8.895   4.775   7.083  0.3326  0.2744 -0.4623
26082SOL    HW182702   8.917   4.767   7.176 -0.8678 -0.5237 -0.2223
26082SOL    HW282703   8.960   4.835   7.048 -0.1428  1.8899  1.2452
26083SOL     OW82704   9.972   0.084   6.417 -0.4458 -0.0596  0.0552
26083SOL    HW182705   9.919   0.158   6.388 -0.8016 -0.3403 -0.0220
26083SOL    HW282706   9.908   0.015   6.436 -0.0554 -0.6824 -0.8326
26084SOL     OW82707   3.376   1.572   4.485  0.0099 -0.0465 -0.3392
26084SOL    HW182708   3.286   1.604   4.487 -0.2891 -0.7715 -1.4613
26084SOL    HW282709   3.429   1.651   4.481 -0.5602  0.3957  0.4389
26085SOL     OW82710  10.250   0.837   0.449  0.1274  0.0948 -0.6046
26085SOL    HW182711  10.200   0.892   0.510 -0.0217  1.0483 -1.5651
26085SOL    HW282712  10.310   0.787   0.505 -1.1889 -0.3328  0.4794
26086SOL     OW82713   7.605   4.473   9.475  0.3592  0.1873 -0.1472
26086SOL    HW182714   7.581   4.381   9.473 -0.6486  0.3865  1.2329
26086SOL    HW282715   7.589   4.505   9.386  2.1611 -1.2706 -1.0699
26087SOL     OW82716   2.273   0.456   1.039 -0.2405 -0.0085  0.1665
26087SOL    HW182717   2.200   0.497   1.086  0.2662  0.5903  0.4533
26087SOL    HW282718   2.303   0.385   1.095 -0.2110  0.1374  0.3347
26088SOL     OW82719   9.418   3.189   8.312  0.3183  0.4528  0.6717
26088SOL    HW182720   9.443   3.163   8.400 -1.0173 -0.9054  0.6789
26088SOL    HW282721   9.341   3.245   8.323  0.0915  0.2053  0.3646
26089SOL     OW82722   6.217   0.974   6.998  0.2424  0.1248  0.5586
26089SOL    HW182723   6.280   1.009   7.061  0.1472  0.2587  0.5784
26089SOL    HW282724   6.163   1.049   6.974 -0.1351 -0.0665  0.8081
26090SOL     OW82725   0.410   3.400   7.973 -0.2817  0.3087 -0.2622
26090SOL    HW182726   0.423   3.488   7.937 -2.8787  0.6322 -0.6323
26090SOL    HW282727   0.440   3.407   8.064 -2.0903  2.1793  0.2825
26091SOL     OW82728   1.166  10.685   3.914  0.9362  0.1521  0.0279
26091SOL    HW182729   1.211  10.712   3.834 -0.0770 -2.2709 -1.4628
26091SOL    HW282730   1.134  10.596   3.895 -2.1666  0.7137  1.9443
26092SOL     OW82731   9.408   7.408   0.064  0.2805  0.4658 -0.7107
26092SOL    HW182732   9.407   7.341   0.132  2.2755  1.1267  0.0405
26092SOL    HW282733   9.334   7.465   0.086 -0.1772 -0.3141 -0.1612
26093SOL     OW82734  10.618   7.836   6.273  0.0640 -0.4427  1.0554
26093SOL    HW182735  10.524   7.833   6.293  0.1139  1.1144  1.6783
26093SOL    HW282736  10.660   7.859   6.356  0.6968  1.7145  0.2150
26094SOL     OW82737   4.100   5.824   1.096 -0.3341 -0.4312  0.2271
26094SOL    HW182738   4.161   5.751   1.083  1.7308  1.1806  0.2515
26094SOL    HW282739   4.130   5.865   1.177 -0.9913  0.8378 -0.1486
26095SOL     OW82740   3.002   9.501   7.349  0.1488  0.1093 -0.5717
26095SOL    HW182741   3.056   9.568   7.307  2.2060 -0.2753  1.2512
26095SOL    HW282742   3.000   9.526   7.441  0.8207 -2.1797  0.1275
26096SOL     OW82743   3.032   0.219   6.157 -0.0251 -0.0345  0.0154
26096SOL    HW182744   3.094   0.220   6.230  1.2994 -0.6295 -1.0825
26096SOL    HW282745   3.066   0.154   6.096 -1.6088 -0.2131 -0.7299
26097SOL     OW82746   1.355   3.316   0.488 -0.3017 -0.4893 -0.2569
26097SOL    HW182747   1.375   3.312   0.394 -0.9310  0.9063 -0.4738
26097SOL    HW282748   1.386   3.402   0.515 -0.8470 -0.5698  0.6416
26098SOL     OW82749   8.831   7.703   9.875 -0.5262 -0.0823  0.3620
26098SOL    HW182750   8.833   7.672   9.784  0.0285 -1.5633  0.8656
26098SOL    HW282751   8.889   7.644   9.922  0.6157  1.7570  1.3652
26099SOL     OW82752   3.453   3.390   1.868 -0.2944 -0.4125  0.0448
26099SOL    HW182753   3.488   3.469   1.908 -1.5094 -0.3380  0.9954
26099SOL    HW282754   3.464   3.322   1.935  0.3657 -0.9733 -0.6096
26100SOL     OW82755   5.327   3.682   1.890 -0.5138  0.0440 -0.1876
26100SOL    HW182756   5.369   3.596   1.892  1.8698  1.0958 -1.1102
26100SOL    HW282757   5.361   3.728   1.966  0.7892  1.1998 -1.3976
26101SOL     OW82758   3.276  10.041   8.706  0.2200  0.0937 -0.1411
26101SOL    HW182759   3.299  10.055   8.614 -1.6126 -3.1812 -1.2239
26101SOL    HW282760   3.184  10.068   8.713 -0.3202 -1.7063  0.1351
26102SOL     OW82761   0.413   6.706   1.511 -0.0157 -0.0772 -0.7324
26102SOL    HW182762   0.324   6.737   1.497 -0.3882 -1.3233 -1.2529
26102SOL    HW282763   0.437   6.662   1.430  1.3330  0.8023 -0.8405
26103SOL     OW82764   5.440   6.332   9.528  0.6248 -0.0763 -0.5791
26103SOL    HW182765   5.488   6.381   9.595  2.1232 -2.1553 -0.0098
26103SOL    HW282766   5.373   6.285   9.577  0.1335  0.2597 -0.9183
26104SOL     OW82767   1.217   2.835   1.235 -0.0926 -0.4072 -0.1711
26104SOL    HW182768   1.254   2.920   1.258  0.4654 -0.6963 -0.0081
26104SOL    HW282769   1.125   2.842   1.262  0.1271 -0.1185  0.5291
26105SOL     OW82770   3.699   1.369   6.451  0.2621 -0.2211 -0.2186
26105SOL    HW182771   3.705   1.374   6.546 -0.7690  1.9587 -0.1946
26105SOL    HW282772   3.679   1.277   6.433 -1.5938 -0.3303  1.8455
26106SOL     OW82773   5.483   2.220   9.011  0.0138  0.2598 -0.6938
26106SOL    HW182774   5.472   2.301   9.062  4.0177  0.3564  0.2945
26106SOL    HW282775   5.533   2.162   9.068 -1.6805 -2.5523 -1.8566
26107SOL     OW82776   8.111   6.016   4.844 -0.3932  0.0689 -0.2594
26107SOL    HW182777   8.116   6.083   4.776 -0.1804 -0.8530 -1.1988
26107SOL    HW282778   8.183   6.037   4.904  1.3092 -0.7088 -1.9021
26108SOL     OW82779   2.031   7.963   3.760  0.2982  0.2838  0.1262
26108SOL    HW182780   2.080   7.917   3.691  1.8952 -0.9743  1.9837
26108SOL    HW282781   1.940   7.941   3.743  0.7794 -1.3227 -0.6845
26109SOL     OW82782   7.362   2.382   3.999  0.3718  0.3018  0.5188
26109SOL    HW182783   7.453   2.379   4.030  0.9345  0.6001 -1.0245
26109SOL    HW282784   7.339   2.290   3.985  1.3849  0.3193 -1.6155
26110SOL     OW82785   7.419   1.229   6.363 -0.6895  0.3458  0.4800
26110SOL    HW182786   7.402   1.185   6.280  1.4645  0.8455 -0.2918
26110SOL    HW282787   7.374   1.313   6.355 -0.0792  0.6008 -0.4093
26111SOL     OW82788   6.911   6.762   3.370 -0.0647  0.3012 -0.1989
26111SOL    HW182789   6.896   6.786   3.461  0.8688  0.2255 -0.0099
26111SOL    HW282790   7.001   6.791   3.352  0.0737 -0.4652 -0.8268
26112SOL     OW82791   0.143   0.087   5.039 -0.0262  0.1527 -0.3656
26112SOL    HW182792   0.206   0.099   5.110  0.1055  1.5103 -0.6843
26112SOL    HW282793   0.162  -0.000   5.004  0.1086 -0.4127  1.0510
26113SOL     OW82794   3.302  10.393   0.519  0.6757  0.3751  0.5011
26113SOL    HW182795   3.362  10.412   0.590  1.9928 -0.1234 -0.4432
26113SOL    HW282796   3.327  10.455   0.449  1.0328 -0.7687 -0.4104
26114SOL     OW82797   0.353   8.938   8.232  0.2348 -0.2220 -0.0553
26114SOL    HW182798   0.385   8.875   8.167 -0.0978 -0.3528 -0.0913
26114SOL    HW282799   0.425   9.001   8.241  0.4751 -0.4754 -0.1908
26115SOL     OW82800   6.326   6.713   5.333  0.2029  0.1217  0.3943
26115SOL    HW182801   6.292   6.629   5.364 -1.0683  0.3383 -0.3274
26115SOL    HW282802   6.251   6.773   5.341 -0.0955  0.2839 -2.6431
26116SOL     OW82803   5.419   8.609   5.267 -0.6775 -0.1951  0.2819
26116SOL    HW182804   5.494   8.551   5.254 -0.0742  0.5782  0.2151
26116SOL    HW282805   5.450   8.673   5.331 -0.5633  1.3691 -1.2732
26117SOL     OW82806   8.023   5.622   0.013 -0.4819 -0.3829 -0.3022
26117SOL    HW182807   7.989   5.688   0.074  2.2537 -0.4678  1.4614
26117SOL    HW282808   7.998   5.538   0.052 -0.7226 -0.4254 -0.5450
26118SOL     OW82809   2.981   5.696   1.601 -0.0834  0.3068 -0.0018
26118SOL    HW182810   2.893   5.660   1.613  0.4853 -1.2570 -0.2054
26118SOL    HW282811   2.978   5.740   1.517 -0.2311 -1.2950 -0.8865
26119SOL     OW82812   8.648   0.387   6.156  0.3813  0.1838 -0.0130
26119SOL    HW182813   8.631   0.340   6.238 -0.3616 -0.1000 -0.3298
26119SOL    HW282814   8.737   0.361   6.132  0.5725  0.2023  0.6600
26120SOL     OW82815  10.849   1.552   3.194  0.1554 -0.1317 -0.6917
26120SOL    HW182816  10.878   1.642   3.179 -0.1680  0.0204 -0.4273
26120SOL    HW282817  10.756   1.560   3.214  0.6316 -0.2404  1.9462
26121SOL     OW82818  10.905   1.511   2.534 -0.0559 -0.2328 -0.3279
26121SOL    HW182819  10.972   1.450   2.566 -0.6852  0.0541  1.6646
26121SOL    HW282820  10.847   1.456   2.481 -0.7207 -1.4792  1.5883
26122SOL     OW82821   5.500  10.037   8.701  0.5872 -0.0108 -0.0112
26122SOL    HW182822   5.559  10.024   8.775 -0.4887 -1.3252  0.6622
26122SOL    HW282823   5.423  10.079   8.738 -0.2635 -1.3284 -0.1955
26123SOL     OW82824   5.295   6.527   5.845  0.0451  0.0953  0.0347
26123SOL    HW182825   5.388   6.508   5.834 -0.3965 -2.0575 -0.5655
26123SOL    HW282826   5.291   6.585   5.921  1.9156  0.9040 -0.4239
26124SOL     OW82827   4.345   0.237   0.268 -0.3227 -0.3256  0.3719
26124SOL    HW182828   4.259   0.197   0.259  0.8166 -3.6022  2.3032
26124SOL    HW282829   4.383   0.233   0.180 -1.4277 -0.5854 -0.1051
26125SOL     OW82830   7.483   4.197   7.031  0.0659  0.1134 -0.5242
26125SOL    HW182831   7.510   4.130   6.969 -1.1356 -0.9756  0.0889
26125SOL    HW282832   7.541   4.184   7.107 -1.3237 -1.4643  0.3247
26126SOL     OW82833   7.146   3.602   0.624  0.8777 -0.2383 -0.7343
26126SOL    HW182834   7.101   3.518   0.636  0.2781  0.3221  1.2365
26126SOL    HW282835   7.076   3.665   0.608  1.2299  0.1193 -0.8973
26127SOL     OW82836   9.111  10.951   7.153 -0.3690 -0.3942 -0.2273
26127SOL    HW182837   9.204  10.939   7.130  0.4736  3.1307  0.6063
26127SOL    HW282838   9.100  10.901   7.234  0.8653 -0.7693 -0.2608
26128SOL     OW82839   3.789   4.949   5.089 -0.2152 -0.4840  0.3566
26128SOL    HW182840   3.710   5.001   5.091  0.3542  0.4021  1.6863
26128SOL    HW282841   3.815   4.945   4.997 -0.6733  0.9694  0.1551
26129SOL     OW82842   2.470   4.593   7.936 -0.2933 -0.2371  0.2243
26129SOL    HW182843   2.498   4.674   7.893  0.6367 -0.2042  0.8753
26129SOL    HW282844   2.379   4.609   7.960  0.4367  1.4212  2.1825
26130SOL     OW82845   5.804   2.661   5.881  0.1315  0.0504 -0.0316
26130SOL    HW182846   5.888   2.693   5.849  0.3195 -2.0168 -1.8796
26130SOL    HW282847   5.741   2.688   5.814 -0.1877 -0.7693 -0.0727
26131SOL     OW82848   6.682   7.002  10.086 -0.3433  0.3881 -0.4226
26131SOL    HW182849   6.622   6.972  10.018 -0.0273  0.5324 -0.7674
26131SOL    HW282850   6.632   6.993  10.168 -0.1482 -1.3965 -0.4625
26132SOL     OW82851   9.227  10.178  10.759 -0.1126  0.2037 -0.8078
26132SOL    HW182852   9.237  10.091  10.720  1.3970 -0.7730  1.5589
26132SOL    HW282853   9.161  10.221  10.704 -0.7283 -2.3225 -2.2102
26133SOL     OW82854   4.122   5.641   4.127 -0.2852  0.2590  0.3924
26133SOL    HW182855   4.101   5.550   4.103  1.4817 -0.0652 -0.0687
26133SOL    HW282856   4.191   5.633   4.193 -0.8441  1.2639  1.1155
26134SOL     OW82857   5.751   4.238   9.192  0.2881 -0.1160 -0.1854
26134SOL    HW182858   5.753   4.142   9.198 -2.0344 -0.3229 -1.6499
26134SOL    HW282859   5.668   4.258   9.149  2.1790  2.3990 -3.0305
26135SOL     OW82860   8.822   5.563  10.231 -0.2990  0.6663 -0.2070
26135SOL    HW182861   8.807   5.611  10.150 -0.6123  0.2506 -0.4002
26135SOL    HW282862   8.914   5.579  10.252 -0.6186  2.0910  0.2333
26136SOL     OW82863  10.513   1.473   9.917  0.1566  0.6515  0.5379
26136SOL    HW182864  10.563   1.395   9.895  2.0605  1.2417  2.3560
26136SOL    HW282865  10.564   1.545   9.880 -0.5404  1.1465  0.5251
26137SOL     OW82866   8.165   3.153   4.299 -0.1031  0.5082  0.0360
26137SOL    HW182867   8.089   3.119   4.253  0.6020  0.8079 -1.4150
26137SOL    HW282868   8.133   3.175   4.387 -1.4109 -0.3892 -0.1905
26138SOL     OW82869   8.802   2.481  10.933 -0.2135  0.0949  0.4442
26138SOL    HW182870   8.870   2.519  10.987 -0.4752  1.1875  0.0317
26138SOL    HW282871   8.733   2.547  10.931 -0.4994 -0.2141 -0.6403
26139SOL     OW82872   8.471   7.069   4.690  0.1221 -0.7254  0.4438
26139SOL    HW182873   8.422   7.068   4.608 -0.0579 -1.1568  0.5476
26139SOL    HW282874   8.418   7.124   4.749  0.3390 -0.2792  0.2199
26140SOL     OW82875   1.314   5.716  10.561 -0.4419  0.1532  0.7449
26140SOL    HW182876   1.285   5.634  10.521 -0.0364  0.2882  0.1601
26140SOL    HW282877   1.283   5.711  10.652 -0.4925 -0.6084  0.6901
26141SOL     OW82878  10.052   8.792   2.243 -0.4497  0.0247 -0.5116
26141SOL    HW182879  10.075   8.709   2.284  1.4973  0.3620 -0.8079
26141SOL    HW282880  10.000   8.838   2.309 -0.2151 -0.7939  0.2653
26142SOL     OW82881   7.789   4.654  10.589 -0.3912 -0.1697 -0.2302
26142SOL    HW182882   7.703   4.686  10.617 -1.0342 -1.4235 -0.7229
26142SOL    HW282883   7.775   4.563  10.566  0.8766 -0.1425 -1.2351
26143SOL     OW82884   1.489   5.558   9.070  0.8147  0.5417 -0.3669
26143SOL    HW182885   1.405   5.534   9.030  1.0269  0.3871 -0.7232
26143SOL    HW282886   1.486   5.518   9.157  0.5269  0.5209 -0.3835
26144SOL     OW82887   8.030   1.086   6.118  0.0581 -0.2425  0.2270
26144SOL    HW182888   8.001   1.069   6.028 -1.3775  0.2679  0.5617
26144SOL    HW282889   8.059   1.000   6.150  0.0871 -0.5317 -0.5585
26145SOL     OW82890   5.005   6.717   3.760  0.1779 -0.4380  0.2823
26145SOL    HW182891   5.045   6.777   3.697 -0.0448 -0.1542  0.4107
26145SOL    HW282892   4.934   6.676   3.711  0.7265 -1.0699  0.0011
26146SOL     OW82893   7.502   5.401   9.595 -0.0270  0.4348  0.5214
26146SOL    HW182894   7.528   5.427   9.683  0.5291 -1.8035  1.0773
26146SOL    HW282895   7.438   5.467   9.568 -0.8355  0.7080  2.9362
26147SOL     OW82896   0.929   6.823  10.391  0.5830  0.6269  0.2571
26147SOL    HW182897   0.947   6.831  10.297  3.6303 -0.5427  0.6177
26147SOL    HW282898   0.868   6.749  10.398 -0.3375  1.2708 -0.8397
26148SOL     OW82899   9.292   5.176   8.098 -0.2934  0.2249  0.1170
26148SOL    HW182900   9.215   5.199   8.046  0.2765 -1.4225 -1.5874
26148SOL    HW282901   9.301   5.081   8.087  1.5051  0.2612  0.9182
26149SOL     OW82902   8.398   1.973   5.180 -0.6152  0.2221 -0.1382
26149SOL    HW182903   8.349   2.048   5.214  0.0154  0.7769 -0.4329
26149SOL    HW282904   8.465   2.012   5.124  1.2189 -0.3811  1.5168
26150SOL     OW82905   6.809  11.064   6.657 -0.3695 -0.4270 -0.2648
26150SOL    HW182906   6.878  11.094   6.717  0.1751 -0.8782 -0.6601
26150SOL    HW282907   6.736  11.125   6.672 -0.3447 -0.6845  1.0441
26151SOL     OW82908   9.593   5.699   0.700  0.2429  0.5133 -0.0000
26151SOL    HW182909   9.543   5.773   0.664 -1.5981 -0.9321 -0.5945
26151SOL    HW282910   9.680   5.709   0.662  0.2158  2.6496  0.3643
26152SOL     OW82911   8.185   0.688   6.878 -0.2866 -0.2014  0.2872
26152SOL    HW182912   8.221   0.645   6.800  2.1518  1.7026  0.2544
26152SOL    HW282913   8.159   0.615   6.935 -2.1281 -1.6605 -2.1927
26153SOL     OW82914   6.598   5.318   9.474  0.4883  0.1200 -0.1659
26153SOL    HW182915   6.568   5.280   9.556  4.3786  0.1079  1.5055
26153SOL    HW282916   6.591   5.247   9.410 -2.2608  0.0189  0.1614
26154SOL     OW82917   6.236   7.916   5.162  0.0966  0.8950  0.3208
26154SOL    HW182918   6.153   7.962   5.173 -0.3475  0.1614  0.1344
26154SOL    HW282919   6.291   7.949   5.233 -0.9549  0.1153  1.5521
26155SOL     OW82920   2.935  11.024  10.214 -0.5161 -0.1663  0.2474
26155SOL    HW182921   2.973  11.093  10.268 -0.4671 -0.3406  0.4346
26155SOL    HW282922   2.841  11.044  10.211 -0.5286 -0.1962  0.4510
26156SOL     OW82923   8.139   6.433   5.129 -0.0764  0.1687  0.2144
26156SOL    HW182924   8.100   6.352   5.161 -0.8887  0.7797  0.8058
26156SOL    HW282925   8.087   6.456   5.052 -0.6026  0.7309  0.7249
26157SOL     OW82926   4.617   5.882   3.596  0.0609  0.2757  0.0565
26157SOL    HW182927   4.540   5.826   3.601 -1.2772  2.0423  0.2799
26157SOL    HW282928   4.626   5.903   3.504  0.5347 -0.2227 -0.0204
26158SOL     OW82929   8.853   4.666   9.076  0.1798 -0.4139  0.3892
26158SOL    HW182930   8.911   4.625   9.140 -0.0767  0.1776  1.0205
26158SOL    HW282931   8.890   4.753   9.063 -0.5056 -0.0516  0.7510
26159SOL     OW82932   9.418  10.158   8.641 -0.1925 -0.6456 -0.8516
26159SOL    HW182933   9.451  10.197   8.560  0.3116 -0.3379 -0.5094
26159SOL    HW282934   9.480  10.188   8.708  0.3547 -2.2393 -0.6007
26160SOL     OW82935   7.018   7.927   9.132 -0.2953 -0.1512  0.2337
26160SOL    HW182936   7.090   7.878   9.173  0.4283  0.3970 -0.3386
26160SOL    HW282937   6.944   7.916   9.191 -0.0778 -1.7082  0.2613
26161SOL     OW82938  10.601   7.466   3.164  0.0674 -0.1541  0.5841
26161SOL    HW182939  10.572   7.520   3.237 -0.4871  1.4730 -0.7773
26161SOL    HW282940  10.521   7.447   3.115  0.5657 -0.2661 -0.2130
26162SOL     OW82941   1.885   0.751   3.744  0.4594  0.2554 -0.1304
26162SOL    HW182942   1.895   0.706   3.660 -1.3021  0.9725 -0.7839
26162SOL    HW282943   1.808   0.711   3.783  0.8432  0.4333  0.8223
26163SOL     OW82944   5.473   4.101   6.051 -0.6687  0.1236 -0.1253
26163SOL    HW182945   5.487   4.153   6.131  0.9885 -0.5889  0.0851
26163SOL    HW282946   5.559   4.065   6.030 -1.0918  0.1848 -2.1848
26164SOL     OW82947  10.656   7.328   3.376  0.4283  0.3096  0.6137
26164SOL    HW182948  10.647   7.362   3.287 -0.3185  0.3773  0.7026
26164SOL    HW282949  10.567   7.303   3.401  0.6515  0.1643  1.2922
26165SOL     OW82950   8.566   5.604   0.619 -0.2617 -0.1096  0.5234
26165SOL    HW182951   8.500   5.671   0.637  0.0167  0.2944  0.0502
26165SOL    HW282952   8.518   5.535   0.573 -0.0668  0.8718 -1.2312
26166SOL     OW82953   9.815   5.971   3.564 -0.0766  0.1039 -0.2297
26166SOL    HW182954   9.722   5.960   3.546  0.3860 -2.9342 -1.3617
26166SOL    HW282955   9.823   5.954   3.658 -0.7930  1.9241  0.1975
26167SOL     OW82956   8.757   3.500  11.035 -0.8338  0.0771 -0.2658
26167SOL    HW182957   8.706   3.482  11.114  2.8363 -1.5262  1.9885
26167SOL    HW282958   8.744   3.422  10.980 -0.4357 -0.5623  0.5252
26168SOL     OW82959   8.268   7.446   7.659  0.1286 -0.5455  0.3815
26168SOL    HW182960   8.348   7.482   7.620 -0.2919  1.4680  1.2618
26168SOL    HW282961   8.197   7.496   7.619 -0.4979 -0.5491  1.4373
26169SOL     OW82962   2.242   2.371   1.438 -0.0359  0.1161 -0.2006
26169SOL    HW182963   2.181   2.315   1.486  1.3653 -1.2617  0.0601
26169SOL    HW282964   2.252   2.327   1.353 -1.1712  1.5967 -1.1339
26170SOL     OW82965   1.624   9.857   6.850 -0.1394 -0.0498 -0.1111
26170SOL    HW182966   1.707   9.871   6.895  0.1958 -0.6323 -0.5293
26170SOL    HW282967   1.565   9.825   6.918 -0.1242  0.7058  0.2630
26171SOL     OW82968   6.544   0.673   7.087 -0.2610  0.0858  0.0307
26171SOL    HW182969   6.472   0.718   7.043  0.7550  1.5254 -0.2107
26171SOL    HW282970   6.542   0.708   7.177 -0.6520 -0.8430  0.3974
26172SOL     OW82971   8.847  10.466   9.999 -0.6143 -0.5432 -0.4682
26172SOL    HW182972   8.845  10.555   9.962 -0.2829 -0.5829 -0.5853
26172SOL    HW282973   8.903  10.417   9.939  1.7040 -0.0900  1.2042
26173SOL     OW82974   2.217   6.248   5.255 -0.2574 -0.7341  0.3087
26173SOL    HW182975   2.297   6.241   5.203 -0.2534 -0.0183  0.2074
26173SOL    HW282976   2.146   6.242   5.192 -0.2703 -0.7368  0.3238
26174SOL     OW82977   0.362   6.758   9.259 -0.8714 -0.2311  0.2764
26174SOL    HW182978   0.416   6.807   9.321  0.3192 -0.8916 -0.2019
26174SOL    HW282979   0.362   6.668   9.293  0.1277 -0.6906 -0.8524
26175SOL     OW82980   5.982   8.392   3.684 -0.1124 -0.4916  0.2213
26175SOL    HW182981   5.937   8.315   3.720  0.3037 -1.4291 -1.1544
26175SOL    HW282982   6.009   8.442   3.760 -1.0158 -1.3542  1.1428
26176SOL     OW82983   3.562   4.816  10.900 -0.0039 -0.2611 -0.0834
26176SOL    HW182984   3.478   4.802  10.944 -2.0101  2.6372 -2.5283
26176SOL    HW282985   3.609   4.877  10.957 -1.0901  0.7603 -0.2374
26177SOL     OW82986   6.677   4.317   9.133 -0.3195  0.2360 -0.0082
26177SOL    HW182987   6.715   4.384   9.076  2.0041 -0.8895  0.1041
26177SOL    HW282988   6.645   4.365   9.210  1.0158  1.2572 -0.0645
26178SOL     OW82989   4.079   5.771   8.904  0.3087  0.1373 -0.1645
26178SOL    HW182990   4.077   5.683   8.941 -0.6654 -0.3169 -1.2658
26178SOL    HW282991   4.116   5.761   8.817  0.9446  0.9605 -0.0146
26179SOL     OW82992  10.982   2.236   2.343 -0.3681  0.1081 -0.3295
26179SOL    HW182993  10.947   2.163   2.395 -1.0373  0.8387  0.2773
26179SOL    HW282994  11.048   2.276   2.400 -0.1177  0.0759 -0.5965
26180SOL     OW82995   7.262   4.752   6.280 -0.0057 -0.3435 -0.4443
26180SOL    HW182996   7.290   4.785   6.194  2.2167  0.0662  0.3675
26180SOL    HW282997   7.320   4.677   6.297 -1.5733 -1.5035 -0.0275
26181SOL     OW82998   0.741   9.256   6.105 -0.6188  0.4628 -0.4767
26181SOL    HW182999   0.822   9.306   6.118  0.4615 -0.9142 -1.5782
26181SOL    HW283000   0.690   9.307   6.042 -0.7069  1.4237  0.3563
26182SOL     OW83001   1.225   7.566   4.811 -0.3214 -0.7615  1.0199
26182SOL    HW183002   1.196   7.600   4.895  0.6496 -0.0972  1.0985
26182SOL    HW283003   1.318   7.549   4.822 -0.2851 -1.1284  0.2299
26183SOL     OW83004   3.312   1.856   7.596  0.2258  0.6720  0.2436
26183SOL    HW183005   3.323   1.949   7.575  0.1344  0.8825  1.0906
26183SOL    HW283006   3.400   1.819   7.586  0.1198  0.6830 -0.8371
26184SOL     OW83007   5.278   1.786   2.570 -0.1831  0.5281 -0.4156
26184SOL    HW183008   5.204   1.775   2.630  0.5183  2.2641  0.8351
26184SOL    HW283009   5.332   1.854   2.610  0.9529  0.8836 -2.4217
26185SOL     OW83010   2.625   3.544   0.482  0.3279  0.1016  0.4766
26185SOL    HW183011   2.571   3.497   0.418  1.7853 -0.2142 -0.5888
26185SOL    HW283012   2.706   3.493   0.487  0.6524  0.7030  1.8165
26186SOL     OW83013   8.574   2.530   6.742 -0.6324 -0.2092 -0.5894
26186SOL    HW183014   8.527   2.612   6.758 -0.2015 -0.2500  1.0307
26186SOL    HW283015   8.658   2.558   6.705 -0.5385  0.0651 -0.1676
26187SOL     OW83016   9.858   1.647   3.564  0.4727  0.3203 -0.1766
26187SOL    HW183017   9.772   1.689   3.562 -0.6426 -1.8351 -2.5167
26187SOL    HW283018   9.840   1.558   3.594  1.5801 -0.6495 -2.2103
26188SOL     OW83019   6.783   4.717   4.777  0.2837 -0.1076  0.0807
26188SOL    HW183020   6.815   4.738   4.865  0.3786  0.9938 -0.1954
26188SOL    HW283021   6.697   4.677   4.792  0.4901 -0.3351  0.6893
26189SOL     OW83022   4.637   6.256   3.749 -0.2928  0.1790 -0.4782
26189SOL    HW183023   4.702   6.186   3.746 -0.0326  0.4526 -1.8637
26189SOL    HW283024   4.591   6.250   3.666 -1.7137  0.3169  0.2679
26190SOL     OW83025   2.983   7.614   3.307  0.6825 -0.4570  0.6357
26190SOL    HW183026   3.001   7.520   3.305  0.9657 -0.4022 -1.9217
26190SOL    HW283027   2.903   7.624   3.255  1.1670  0.8131  0.1051
26191SOL     OW83028   1.657   2.417   3.482  0.0592  0.1478 -0.3555
26191SOL    HW183029   1.636   2.428   3.575  1.0412 -0.1479 -0.0896
26191SOL    HW283030   1.599   2.478   3.437  0.0629  0.8017  0.5019
26192SOL     OW83031   0.366   9.037   3.097  0.4688 -0.0944 -0.4478
26192SOL    HW183032   0.281   8.998   3.120  1.5215 -0.9698  2.4842
26192SOL    HW283033   0.388   8.999   3.012 -2.8460  1.6452 -2.2961
26193SOL     OW83034   3.771   4.096   8.405 -0.2806  0.4482 -0.0496
26193SOL    HW183035   3.753   4.081   8.312 -0.4675 -0.1525  0.0765
26193SOL    HW283036   3.867   4.091   8.412 -0.3462 -1.9766  0.1576
26194SOL     OW83037   5.084   3.531  10.044 -0.1035  0.1010 -0.0299
26194SOL    HW183038   5.130   3.496   9.968  1.1289  0.6944  0.4276
26194SOL    HW283039   4.994   3.499  10.034 -0.0927  0.5766 -1.9905
26195SOL     OW83040   4.980   3.361   0.063 -0.6564  0.4086  0.8483
26195SOL    HW183041   4.965   3.439   0.117  1.4685  0.6942  1.0969
26195SOL    HW283042   5.050   3.314   0.108 -0.8508 -0.8575 -0.1288
26196SOL     OW83043   4.606   1.059   4.141  0.5543 -0.7409 -0.3456
26196SOL    HW183044   4.551   1.060   4.063 -1.1894 -0.7835  0.8205
26196SOL    HW283045   4.693   1.079   4.109 -0.6396  2.7874 -1.9181
26197SOL     OW83046   3.205   3.673   7.211  0.5570  0.0106  0.3646
26197SOL    HW183047   3.187   3.670   7.117  0.4826  1.4548  0.3098
26197SOL    HW283048   3.282   3.730   7.219 -0.7443  1.7236  1.3208
26198SOL     OW83049   1.233   3.178   8.719  0.3740 -0.6476 -0.1792
26198SOL    HW183050   1.241   3.273   8.728 -0.5313 -0.5725 -0.0375
26198SOL    HW283051   1.246   3.162   8.625  1.2594 -0.4758 -0.0959
26199SOL     OW83052   4.168   4.523  11.026  0.1022  0.0943  0.2625
26199SOL    HW183053   4.076   4.528  11.000  0.3162  1.2613 -0.3264
26199SOL    HW283054   4.168   4.465  11.103 -1.0721 -0.1755  0.0776
26200SOL     OW83055   6.933  11.070   3.114  0.1173  0.0981  0.2626
26200SOL    HW183056   6.980  11.136   3.164 -0.0777 -1.9667  3.4626
26200SOL    HW283057   6.842  11.101   3.114  0.0480 -0.0187  1.6068
26201SOL     OW83058  10.324   6.789   4.361 -0.2558  0.1506  0.3503
26201SOL    HW183059  10.342   6.697   4.344 -1.3726 -0.3903  1.8735
26201SOL    HW283060  10.309   6.794   4.455 -1.1687  1.7169  0.1626
26202SOL     OW83061   5.851   7.318   1.086  0.2661 -0.8049 -0.3773
26202SOL    HW183062   5.941   7.321   1.056  0.1105  1.6528 -0.8204
26202SOL    HW283063   5.809   7.394   1.045 -1.4419 -0.6425  1.4831
26203SOL     OW83064   4.946   5.447   4.488 -0.0631  0.1866  0.7475
26203SOL    HW183065   5.019   5.503   4.463 -0.6026 -0.1420 -1.8604
26203SOL    HW283066   4.873   5.507   4.503  0.2441  0.3837  1.5004
26204SOL     OW83067   4.757   2.622   3.699  0.0539  0.3161 -0.1599
26204SOL    HW183068   4.811   2.692   3.736  0.9147 -0.3365 -0.1555
26204SOL    HW283069   4.728   2.571   3.775 -1.4166  1.2366 -0.0717
26205SOL     OW83070   0.570   3.227   7.779 -0.0774  0.8221 -0.2007
26205SOL    HW183071   0.515   3.288   7.827 -0.1140  0.8407 -0.2654
26205SOL    HW283072   0.521   3.209   7.698 -2.0896 -2.5555  1.5606
26206SOL     OW83073   3.864   5.558   8.407 -0.3278  0.1164  0.0046
26206SOL    HW183074   3.923   5.600   8.470 -0.0878  0.7708 -0.6465
26206SOL    HW283075   3.922   5.507   8.350 -0.1657  2.0959 -1.6949
26207SOL     OW83076   9.723   9.082   1.766  0.9192 -0.2797 -0.9624
26207SOL    HW183077   9.745   9.108   1.856  2.3711  1.4312 -1.7406
26207SOL    HW283078   9.636   9.117   1.752  1.4005  1.0565 -0.7798
26208SOL     OW83079  10.666   2.977   0.486 -0.1710  0.7753 -0.0555
26208SOL    HW183080  10.666   3.072   0.472 -2.7017  0.6720 -1.1880
26208SOL    HW283081  10.710   2.941   0.409  1.9511  0.9875  0.9557
26209SOL     OW83082   5.485   3.477   7.051 -0.2013  0.2356  0.2668
26209SOL    HW183083   5.451   3.455   6.964  0.5173 -0.7888  0.2313
26209SOL    HW283084   5.562   3.531   7.033 -0.7213  1.0091  0.3076
26210SOL     OW83085   7.540   9.679   4.954  0.0948  0.2165 -0.5027
26210SOL    HW183086   7.510   9.754   5.006  0.5809  0.3046 -0.3438
26210SOL    HW283087   7.480   9.608   4.977  0.5534  0.1386  0.4983
26211SOL     OW83088   8.964   4.030   1.097  0.7806 -0.2663  0.5342
26211SOL    HW183089   9.059   4.022   1.109  0.8287  1.5986  1.8016
26211SOL    HW283090   8.942   4.115   1.135 -1.3362 -0.4082 -0.2451
26212SOL     OW83091   5.577   5.814   8.232 -0.2161 -0.2643 -0.4943
26212SOL    HW183092   5.618   5.897   8.208 -1.0058 -0.0126 -1.0238
26212SOL    HW283093   5.646   5.765   8.277  0.2481  0.6824 -0.1575
26213SOL     OW83094   1.308   7.447   2.589 -0.6127  0.2059 -0.1306
26213SOL    HW183095   1.278   7.386   2.656 -1.7063 -1.4363 -2.0028
26213SOL    HW283096   1.245   7.519   2.591 -1.1428 -0.2558  0.0307
26214SOL     OW83097   3.523   2.324   9.875  0.4252 -0.2080  0.5127
26214SOL    HW183098   3.512   2.387   9.947  0.2104 -0.6359  0.8638
26214SOL    HW283099   3.464   2.356   9.807  0.4790  0.0936  0.6061
26215SOL     OW83100   7.859   8.525   9.575 -0.0584  0.7091 -0.2967
26215SOL    HW183101   7.919   8.531   9.649 -0.2487  3.2237 -0.2656
26215SOL    HW283102   7.879   8.440   9.535  2.6307  0.8859  0.4611
26216SOL     OW83103   5.632   3.697   1.803 -0.5872  0.3816 -0.4781
26216SOL    HW183104   5.557   3.757   1.807 -0.5625  0.3606  1.1644
26216SOL    HW283105   5.593   3.612   1.783 -1.0830  0.2949  0.7565
26217SOL     OW83106  10.330  10.466   6.493 -0.0196  0.1100  0.0413
26217SOL    HW183107  10.326  10.391   6.433  1.0707  0.6646 -0.7619
26217SOL    HW283108  10.374  10.432   6.571 -2.3529 -0.8863  1.0152
26218SOL     OW83109  10.108   8.338   1.931 -0.5745 -1.1229  0.9171
26218SOL    HW183110  10.160   8.270   1.975  0.2958 -0.7261  0.5235
26218SOL    HW283111  10.105   8.310   1.840 -1.0735 -1.1433  0.9355
26219SOL     OW83112   4.103   6.927   0.897  0.0637 -0.5798 -0.4286
26219SOL    HW183113   4.119   6.902   0.988 -0.8383  2.1000  0.5726
26219SOL    HW283114   4.013   6.961   0.898  0.0881 -0.3876 -2.3213
26220SOL     OW83115   4.710   9.001   1.589 -0.0004 -0.2007 -0.2522
26220SOL    HW183116   4.721   9.039   1.676  0.3217 -0.3096 -0.2443
26220SOL    HW283117   4.792   9.021   1.543  0.3571 -1.2766 -0.1036
26221SOL     OW83118   1.406   7.517   5.861  0.4061 -0.0475  0.5017
26221SOL    HW183119   1.452   7.528   5.944  1.1113  0.0625  0.0997
26221SOL    HW283120   1.468   7.473   5.804 -0.2228 -0.5136  0.1565
26222SOL     OW83121   6.926   3.830   9.172 -0.2308  0.7658  0.6394
26222SOL    HW183122   6.885   3.882   9.103 -0.7912 -0.0602  0.3358
26222SOL    HW283123   6.941   3.892   9.243 -1.2767  1.2593  0.4500
26223SOL     OW83124   9.290   2.399   7.259  0.0126  0.6893  0.5187
26223SOL    HW183125   9.216   2.458   7.255 -0.5016 -0.0019 -0.8841
26223SOL    HW283126   9.364   2.454   7.286 -0.5547  1.8624 -0.2356
26224SOL     OW83127   6.296   0.848   1.814  0.8217  0.0887  0.3160
26224SOL    HW183128   6.207   0.814   1.803  0.6877  0.5311  0.0069
26224SOL    HW283129   6.341   0.828   1.732  0.2964  1.9486 -0.4932
26225SOL     OW83130   5.056   9.808   3.285  0.3203 -0.0541 -0.2362
26225SOL    HW183131   4.997   9.799   3.360  0.2740 -0.4340 -0.3159
26225SOL    HW283132   5.003   9.853   3.219  0.1270 -0.3677 -0.2975
26226SOL     OW83133   0.729   3.364   1.345 -0.3894  0.3560  0.1980
26226SOL    HW183134   0.771   3.430   1.400  0.7928 -0.1913 -0.0225
26226SOL    HW283135   0.706   3.293   1.405  0.3002  0.0452  0.1020
26227SOL     OW83136   9.900   6.556   4.559  0.2088 -0.1110  0.1192
26227SOL    HW183137   9.856   6.501   4.494  0.6750 -0.5829  0.2059
26227SOL    HW283138   9.838   6.628   4.574  0.8293  1.0089 -2.1942
26228SOL     OW83139   0.895   8.022  10.568 -0.2529  0.7014  0.5228
26228SOL    HW183140   0.954   8.074  10.513 -1.0648  0.9025 -0.1893
26228SOL    HW283141   0.949   7.992  10.641  0.6094  1.2501  0.1196
26229SOL     OW83142   7.067   7.592   5.240 -0.1118  0.0373  0.0969
26229SOL    HW183143   6.998   7.617   5.303 -2.2319 -0.5913 -1.8440
26229SOL    HW283144   7.142   7.646   5.264 -2.3047  3.2647  0.3183
26230SOL     OW83145   7.928  10.221   5.555  0.3642  0.1081  0.1488
26230SOL    HW183146   8.003  10.163   5.549  0.0306 -0.3057 -0.0489
26230SOL    HW283147   7.864  10.172   5.607 -0.9413 -0.8047 -2.2075
26231SOL     OW83148   9.048   2.147   2.859  0.0883  0.2739 -0.4268
26231SOL    HW183149   9.031   2.122   2.768  2.6307 -1.6944 -0.5018
26231SOL    HW283150   9.100   2.227   2.853  0.8171 -0.2125 -0.7843
26232SOL     OW83151   7.875  10.961   2.369 -0.3658  0.3732  0.1528
26232SOL    HW183152   7.931  10.891   2.338 -0.8639 -0.3271  0.8031
26232SOL    HW283153   7.876  11.026   2.298  0.8416  0.1519 -0.0624
26233SOL     OW83154   0.495   1.853   0.230 -0.1507 -0.4993  0.2093
26233SOL    HW183155   0.423   1.917   0.235  0.7696  0.5700  0.2924
26233SOL    HW283156   0.455   1.776   0.191 -1.5333 -0.2158  0.9756
26234SOL     OW83157   8.639   0.081   2.624  0.3223 -0.0345  0.0211
26234SOL    HW183158   8.572   0.147   2.643 -0.8826 -1.3557  0.5929
26234SOL    HW283159   8.597  -0.002   2.646  1.3981 -1.0958 -1.6960
26235SOL     OW83160   5.587   3.383   1.030  0.2174 -0.4654  0.2464
26235SOL    HW183161   5.669   3.394   1.079 -1.4680  1.4830  2.8442
26235SOL    HW283162   5.603   3.429   0.947  1.7612 -0.1985  0.6537
26236SOL     OW83163   3.228   4.839   3.407  0.2968  0.3889  0.3324
26236SOL    HW183164   3.163   4.770   3.393  1.0538 -0.0445 -1.2896
26236SOL    HW283165   3.281   4.808   3.480  2.2307 -2.1087 -1.9153
26237SOL     OW83166   2.473   6.271   7.868 -0.4320 -0.0467  0.2520
26237SOL    HW183167   2.485   6.319   7.950 -0.0771  0.2721  0.0183
26237SOL    HW283168   2.419   6.330   7.814  3.0090  1.8412 -1.4462
26238SOL     OW83169   4.434   8.838   5.794 -0.7590  0.6117 -0.1995
26238SOL    HW183170   4.517   8.885   5.794 -0.1949 -0.3081 -1.6914
26238SOL    HW283171   4.448   8.763   5.852 -0.3189  0.1291 -0.9078
26239SOL     OW83172   5.585   9.602   3.003  0.2344  0.4740 -0.2911
26239SOL    HW183173   5.615   9.598   2.911  0.6902 -0.1578 -0.1287
26239SOL    HW283174   5.576   9.695   3.021 -0.6743  0.5845 -1.2349
26240SOL     OW83175   0.798   1.458   4.923 -0.0190 -0.0935 -0.4843
26240SOL    HW183176   0.884   1.416   4.933  0.5022  1.0304  0.0104
26240SOL    HW283177   0.812   1.524   4.855 -0.7261 -0.4720 -1.0017
26241SOL     OW83178   8.750   7.427   7.968  0.0734  0.3328 -0.0317
26241SOL    HW183179   8.710   7.464   7.889 -1.0909 -0.2678  0.2457
26241SOL    HW283180   8.825   7.483   7.986 -0.8612  1.7568 -0.3834
26242SOL     OW83181   3.994   0.625  10.410 -0.6450 -0.5176 -0.4641
26242SOL    HW183182   3.927   0.611  10.477 -1.1616 -2.0277 -1.2611
26242SOL    HW283183   3.950   0.607  10.327 -0.9959  4.4079 -1.6793
26243SOL     OW83184   2.335   0.445   7.260 -0.3317  0.2577  0.4317
26243SOL    HW183185   2.255   0.497   7.249  0.9344  2.2644  0.3130
26243SOL    HW283186   2.326   0.374   7.196 -2.4564 -0.1859  1.1249
26244SOL     OW83187   5.219   0.412   1.739 -0.5285 -0.5812  0.0832
26244SOL    HW183188   5.225   0.397   1.833 -2.8685  0.9734  0.5650
26244SOL    HW283189   5.269   0.340   1.700  0.9732 -0.9496  2.4857
26245SOL     OW83190   8.564   8.468   0.183  0.4728  0.4456 -0.0240
26245SOL    HW183191   8.500   8.500   0.120 -0.4819  0.2503  0.8125
26245SOL    HW283192   8.554   8.527   0.258  0.9024  0.0942  0.3125
26246SOL     OW83193   9.500   5.865   7.882 -0.5020  0.0030 -0.3602
26246SOL    HW183194   9.522   5.860   7.975 -2.8527 -1.2415  0.2125
26246SOL    HW283195   9.445   5.943   7.874 -1.2411 -0.5078 -0.4410
26247SOL     OW83196   3.135   1.723   0.336  0.0219  0.5684  0.5369
26247SOL    HW183197   3.209   1.665   0.317  0.2058  1.0899 -0.3846
26247SOL    HW283198   3.175   1.798   0.380  0.1446  1.1239 -0.4884
26248SOL     OW83199   6.516   5.673   9.906  0.7501 -0.4343 -0.1468
26248SOL    HW183200   6.477   5.591   9.937 -0.3088  0.0296 -0.2097
26248SOL    HW283201   6.574   5.647   9.834 -0.2838 -1.0442 -0.7788
26249SOL     OW83202   1.873  10.991   6.444 -0.2748 -0.1525  0.4790
26249SOL    HW183203   1.828  11.071   6.471 -1.3851 -0.5809 -0.0172
26249SOL    HW283204   1.958  11.020   6.412  0.1830  0.5933  2.2456
26250SOL     OW83205   6.030   9.227   4.431 -0.3708 -0.2137  0.1737
26250SOL    HW183206   6.044   9.166   4.504 -2.6691 -0.0392  0.8279
26250SOL    HW283207   6.118   9.261   4.412  0.4262 -0.8705  2.3284
26251SOL     OW83208   0.552   9.095   3.325 -0.0871 -0.4486  0.2215
26251SOL    HW183209   0.489   9.076   3.256 -0.5540  1.7293 -0.0255
26251SOL    HW283210   0.501   9.089   3.406 -0.2681 -0.0748  0.1359
26252SOL     OW83211   4.794  10.802  10.567  0.0805  0.1093  0.4775
26252SOL    HW183212   4.888  10.812  10.554  0.3712  0.0828  2.2947
26252SOL    HW283213   4.785  10.719  10.613 -0.8077  0.2391  0.5557
26253SOL     OW83214   2.420   5.962   2.015 -0.0077  0.4091  0.0010
26253SOL    HW183215   2.409   5.926   2.103  0.3482  2.5934  1.0148
26253SOL    HW283216   2.386   5.895   1.957  1.6908 -2.0512  1.6350
26254SOL     OW83217  10.354   4.416  10.766  0.5924 -0.0020  0.6485
26254SOL    HW183218  10.364   4.370  10.850  2.6426  1.2603  1.1691
26254SOL    HW283219  10.428   4.477  10.763 -0.2898  1.0675 -1.4112
26255SOL     OW83220   0.379   3.089   1.220  0.4094  0.1893 -0.0499
26255SOL    HW183221   0.447   3.133   1.169  0.8270  0.0893  0.4056
26255SOL    HW283222   0.305   3.081   1.160  0.5271  0.9928 -0.3205
26256SOL     OW83223   6.978   1.078   5.356 -0.2190 -0.2417 -0.4019
26256SOL    HW183224   6.937   1.001   5.395  0.7133 -0.4114  0.2927
26256SOL    HW283225   6.953   1.150   5.414 -3.2510  0.5342 -2.4416
26257SOL     OW83226   9.601   7.871   8.442  0.2149 -0.2326 -0.4929
26257SOL    HW183227   9.601   7.786   8.487  0.0990 -0.4037 -0.8121
26257SOL    HW283228   9.606   7.848   8.349  2.3629  0.1490 -0.5279
26258SOL     OW83229   2.499   3.919   3.463  0.5836 -0.1092 -0.0152
26258SOL    HW183230   2.517   4.007   3.430 -2.1378 -0.3478 -2.5849
26258SOL    HW283231   2.436   3.933   3.534  0.7933  0.0608  0.1372
26259SOL     OW83232   6.851   7.471   5.405  0.1717  0.1801  0.0145
26259SOL    HW183233   6.896   7.470   5.489  0.8436 -2.7337 -0.2726
26259SOL    HW283234   6.894   7.402   5.353 -1.0372  1.0177 -2.2663
26260SOL     OW83235   7.098   4.560  10.981 -0.5538  0.5948 -0.5417
26260SOL    HW183236   7.172   4.504  10.959  0.6651  2.3076 -0.9560
26260SOL    HW283237   7.022   4.514  10.945  0.4839 -0.4630 -1.4562
26261SOL     OW83238   2.756   9.094   5.011 -0.7282  0.4063  0.4088
26261SOL    HW183239   2.686   9.159   5.023 -1.6387 -0.5182  0.2471
26261SOL    HW283240   2.710   9.011   4.999  0.3044  0.0857 -1.8596
26262SOL     OW83241   1.369   3.176   7.298  0.1061 -0.1992 -0.2722
26262SOL    HW183242   1.365   3.138   7.210 -3.8209 -1.9642  0.4613
26262SOL    HW283243   1.448   3.138   7.336  0.3540 -1.6958 -2.1102
26263SOL     OW83244   9.688   5.536   7.456  0.9405 -0.0678  0.4988
26263SOL    HW183245   9.616   5.474   7.472 -0.1797  1.0702  0.0223
26263SOL    HW283246   9.668   5.611   7.511  0.5719  1.1632 -1.2462
26264SOL     OW83247   3.594   0.204   8.377 -0.4242  0.2459  0.8454
26264SOL    HW183248   3.629   0.245   8.456  1.2700  0.2813  0.1194
26264SOL    HW283249   3.670   0.192   8.321 -1.2298 -1.8285  0.1008
26265SOL     OW83250   9.554   1.540   2.536  0.4146 -0.0791 -0.3624
26265SOL    HW183251   9.476   1.593   2.551 -0.4661 -1.7426  1.3341
26265SOL    HW283252   9.627   1.601   2.550 -0.5468  0.7539  1.5062
26266SOL     OW83253   5.140   3.688   7.703  0.3356 -0.7497 -0.1246
26266SOL    HW183254   5.176   3.717   7.620  1.6997  0.3093  0.7839
26266SOL    HW283255   5.046   3.704   7.696  0.6328  0.8386 -0.9014
26267SOL     OW83256  10.299   0.752   1.565  0.7040 -0.1446  0.1622
26267SOL    HW183257  10.361   0.709   1.506  1.5276 -1.3494  1.7930
26267SOL    HW283258  10.354   0.809   1.619 -0.3506  2.9974 -1.8464
26268SOL     OW83259   9.619   8.660  10.462  0.7414 -0.5665  0.3416
26268SOL    HW183260   9.572   8.737  10.494 -0.9036 -0.3523 -2.3336
26268SOL    HW283261   9.560   8.586  10.480  0.7609 -0.7273 -0.2420
26269SOL     OW83262   7.211   2.776   0.616 -0.1771 -0.2632  0.0528
26269SOL    HW183263   7.200   2.842   0.548 -0.6528 -1.6615 -1.3031
26269SOL    HW283264   7.154   2.704   0.589  1.4609 -1.8727  0.5907
26270SOL     OW83265   7.562   8.922   5.491  0.2973 -0.0794 -0.3979
26270SOL    HW183266   7.538   8.830   5.488 -2.6713  0.3069  3.3529
26270SOL    HW283267   7.499   8.964   5.431 -0.7876 -0.2104  0.6147
26271SOL     OW83268   0.283   8.781   4.815 -0.1212 -0.2875 -0.3584
26271SOL    HW183269   0.209   8.723   4.836  1.6475 -3.3467 -1.8932
26271SOL    HW283270   0.349   8.761   4.881 -0.4179  2.1265  0.7560
26272SOL     OW83271   5.863  10.082   8.299  0.1590 -0.0360  0.2159
26272SOL    HW183272   5.921  10.129   8.239  0.5329  0.0507  0.6347
26272SOL    HW283273   5.920  10.018   8.343 -0.1733 -0.3095  0.2544
26273SOL     OW83274   0.200   5.667   5.274 -0.5081  0.3412 -0.3867
26273SOL    HW183275   0.278   5.703   5.316 -0.2334 -0.2104 -0.4186
26273SOL    HW283276   0.142   5.645   5.346 -0.7411  0.9763 -0.3714
26274SOL     OW83277   1.048   2.857   2.841  0.1415  0.0266 -0.6545
26274SOL    HW183278   0.954   2.866   2.859  0.3879  3.4547 -0.3845
26274SOL    HW283279   1.081   2.807   2.916 -1.0953  1.0798  0.6617
26275SOL     OW83280   9.146   1.057   0.220 -0.2216 -0.3108  0.2331
26275SOL    HW183281   9.153   0.964   0.241 -0.9656 -0.0680  1.6298
26275SOL    HW283282   9.138   1.059   0.124  1.0113 -1.5891  0.0700
26276SOL     OW83283   7.478   5.517   9.211 -0.3856  0.3505  0.5117
26276SOL    HW183284   7.571   5.526   9.192 -0.7438  2.8024 -0.4962
26276SOL    HW283285   7.460   5.583   9.278 -1.6202  0.8024 -0.2311
26277SOL     OW83286   0.994   2.290   2.186  0.2711  0.0187  0.0174
26277SOL    HW183287   1.074   2.336   2.159  0.3472 -0.7375 -1.0784
26277SOL    HW283288   0.978   2.322   2.275  0.8819  1.3996 -0.3373
26278SOL     OW83289   7.075   7.728   1.976 -0.1415 -0.0842 -0.0738
26278SOL    HW183290   7.144   7.789   2.002 -0.3738  0.7295 -1.3011
26278SOL    HW283291   7.117   7.670   1.913 -0.6174  0.5537 -0.9957
26279SOL     OW83292   9.531   1.480   5.463  0.8038 -0.2050 -0.3551
26279SOL    HW183293   9.517   1.447   5.552 -0.8728 -0.3585 -0.6538
26279SOL    HW283294   9.619   1.449   5.440  0.2587 -2.3997  0.2931
26280SOL     OW83295   3.453   3.289   0.716  0.2677  0.5665  0.7570
26280SOL    HW183296   3.525   3.227   0.709  1.3437  1.8540 -0.1267
26280SOL    HW283297   3.382   3.240   0.759  1.9815 -0.4546  2.5558
26281SOL     OW83298   9.334   1.904   7.417 -0.3403 -0.2174 -0.0741
26281SOL    HW183299   9.306   1.853   7.493 -0.4697 -0.4886 -0.3042
26281SOL    HW283300   9.394   1.846   7.370  1.1218  0.5746  0.7513
26282SOL     OW83301   1.547   2.498   8.956 -0.0180  0.2897 -0.3307
26282SOL    HW183302   1.582   2.532   9.038  1.4390  0.0208 -0.8209
26282SOL    HW283303   1.465   2.547   8.943  0.2489  1.0565  0.7557
26283SOL     OW83304   2.820   1.655   2.088  0.1983  0.7092 -0.0915
26283SOL    HW183305   2.874   1.701   2.024 -0.3845  2.5236  0.6411
26283SOL    HW283306   2.867   1.666   2.171 -0.0058  0.0322  0.1220
26284SOL     OW83307   5.295  11.044   6.500 -0.2879 -0.4478 -0.1371
26284SOL    HW183308   5.225  11.105   6.523 -0.1651 -0.1328 -0.5772
26284SOL    HW283309   5.361  11.056   6.568  0.4779  1.1252 -1.0825
26285SOL     OW83310   1.020   1.264   0.441  0.2289  0.3479 -0.3159
26285SOL    HW183311   0.980   1.332   0.496  0.1707 -0.1723  0.2974
26285SOL    HW283312   0.998   1.182   0.485 -0.7744 -0.1744 -1.7278
26286SOL     OW83313  10.284   1.445   4.939 -0.5602 -0.1658 -0.4230
26286SOL    HW183314  10.302   1.522   4.885  2.4601  0.8707  1.7283
26286SOL    HW283315  10.189   1.432   4.932 -1.0987  3.2461 -1.5518
26287SOL     OW83316   2.376   3.295   6.832  0.4162 -0.4244 -0.3422
26287SOL    HW183317   2.344   3.290   6.742 -0.1231 -0.5304 -0.1461
26287SOL    HW283318   2.447   3.231   6.836  1.0079  0.1799 -0.9199
26288SOL     OW83319   8.365   8.969   4.652 -0.0524 -0.5152  0.0002
26288SOL    HW183320   8.314   9.044   4.622 -1.0081 -0.7859  0.9100
26288SOL    HW283321   8.300   8.905   4.681  0.7498 -1.6035 -0.5118
26289SOL     OW83322   5.815   6.770   4.786 -0.1761  0.3513  0.3193
26289SOL    HW183323   5.910   6.758   4.787 -0.2029 -0.6674 -2.3342
26289SOL    HW283324   5.786   6.734   4.702 -2.7429  2.0236  0.3531
26290SOL     OW83325   7.775   1.196   7.774 -0.7956  0.0734  0.4251
26290SOL    HW183326   7.738   1.177   7.861 -2.8811 -0.4147 -0.5070
26290SOL    HW283327   7.711   1.159   7.713 -0.1312  1.7291 -1.3536
26291SOL     OW83328   4.028   4.439   5.434 -0.0214  0.4750  0.0056
26291SOL    HW183329   3.971   4.362   5.428 -1.2779  1.4872 -2.2291
26291SOL    HW283330   4.116   4.404   5.448 -0.7024 -1.3015  0.0338
26292SOL     OW83331   1.190   6.390   2.412  0.1028 -0.2807  0.1351
26292SOL    HW183332   1.228   6.449   2.477  0.6052 -1.2717  0.7834
26292SOL    HW283333   1.185   6.306   2.458 -1.1495 -0.6059 -0.5605
26293SOL     OW83334   8.864   5.825   7.856 -0.1967 -0.0628  0.8860
26293SOL    HW183335   8.942   5.775   7.830 -1.6278 -1.5682 -0.7447
26293SOL    HW283336   8.895   5.916   7.861  1.1920 -0.2208 -2.1590
26294SOL     OW83337   6.900   7.303   6.152 -0.5067 -0.1246  0.0978
26294SOL    HW183338   6.960   7.285   6.079 -1.0332  0.5151 -0.5007
26294SOL    HW283339   6.854   7.220   6.165 -1.8386  0.2799 -1.6457
26295SOL     OW83340   4.455   5.894   5.963  0.2435 -0.9389 -0.3647
26295SOL    HW183341   4.528   5.893   5.901  0.7700  0.2239  0.1937
26295SOL    HW283342   4.411   5.810   5.951 -0.3699 -0.3063 -3.1138
26296SOL     OW83343  10.242   1.646   9.109  0.2699  0.1116  0.1897
26296SOL    HW183344  10.205   1.592   9.039 -0.3431  0.3275  0.3425
26296SOL    HW283345  10.336   1.645   9.092  0.1606 -0.1087 -0.4449
26297SOL     OW83346   2.374   5.071  10.282 -0.1487 -0.2635 -0.2801
26297SOL    HW183347   2.427   5.112  10.213 -3.7087  2.4405 -1.7115
26297SOL    HW283348   2.340   4.991  10.242 -0.5756  0.2587 -1.0042
26298SOL     OW83349   2.663   1.845   7.382 -0.5688 -0.0406  0.2702
26298SOL    HW183350   2.712   1.797   7.450  0.0609  0.9196  0.5114
26298SOL    HW283351   2.706   1.930   7.377 -0.9698  0.1009 -0.9544
26299SOL     OW83352   5.814   6.409   8.068  0.0733  0.1320 -0.0563
26299SOL    HW183353   5.755   6.468   8.115 -0.3860 -0.4441  0.1092
26299SOL    HW283354   5.868   6.370   8.137 -0.5800 -0.6907  0.0075
26300SOL     OW83355   2.882   2.108   2.935 -0.0664  0.2426 -0.0638
26300SOL    HW183356   2.867   2.043   2.867 -1.4470  0.8412 -0.3675
26300SOL    HW283357   2.853   2.191   2.897  0.6265  0.8594  0.6991
26301SOL     OW83358   2.734   8.867   1.765  0.3827 -0.6229  0.0446
26301SOL    HW183359   2.648   8.828   1.749  0.3775 -0.3670 -0.6077
26301SOL    HW283360   2.732   8.893   1.857 -1.4320  2.1837 -0.6358
26302SOL     OW83361   3.938   1.710   8.720 -0.0128 -0.0239  0.1602
26302SOL    HW183362   3.994   1.641   8.756  0.7695  0.3880 -0.2616
26302SOL    HW283363   3.951   1.706   8.626 -0.7030  0.0672  0.0580
26303SOL     OW83364   2.750   5.736   9.996  0.0652 -0.0432 -0.5533
26303SOL    HW183365   2.678   5.695  10.044 -0.9529  1.5009 -0.6744
26303SOL    HW283366   2.785   5.801  10.057  0.1916  0.4319 -1.1325
26304SOL     OW83367   9.759  10.320   3.246 -0.0209  0.1435 -0.0078
26304SOL    HW183368   9.754  10.225   3.257  3.5401 -0.4912 -2.2030
26304SOL    HW283369   9.732  10.335   3.156  2.0366  0.7634 -0.5735
26305SOL     OW83370   0.078   3.983   3.551 -0.1459  0.0409 -0.4940
26305SOL    HW183371   0.139   3.975   3.624  1.7682  0.4317 -1.9871
26305SOL    HW283372   0.105   4.063   3.505 -0.3015 -1.0043 -2.5114
26306SOL     OW83373   6.253  10.008   7.948 -0.0134 -0.1835  0.3618
26306SOL    HW183374   6.292  10.089   7.914 -0.5570  0.2531  0.7419
26306SOL    HW283375   6.304   9.938   7.909 -0.3384  0.3110 -0.9922
26307SOL     OW83376   5.358   0.771   4.535 -0.1105  0.1030 -0.1237
26307SOL    HW183377   5.362   0.799   4.626 -2.2648  2.0592 -0.5068
26307SOL    HW283378   5.443   0.796   4.498  1.0155 -1.2727  1.4287
26308SOL     OW83379  10.312   5.574   5.789  0.8508  0.7825 -0.0115
26308SOL    HW183380  10.248   5.523   5.838  1.4026 -0.5297 -0.6193
26308SOL    HW283381  10.271   5.659   5.777 -0.0911  0.4928  1.0294
26309SOL     OW83382   6.530  11.010   1.256  0.1162  0.2272 -0.5172
26309SOL    HW183383   6.519  11.045   1.344  0.1122  0.0404 -0.4442
26309SOL    HW283384   6.590  10.937   1.266 -0.7203 -0.4790 -0.4972
26310SOL     OW83385   1.918   4.198   9.314 -0.2647 -0.2522  0.1290
26310SOL    HW183386   1.887   4.245   9.392  0.1840  0.3402 -0.0480
26310SOL    HW283387   1.982   4.136   9.349 -1.0252 -0.9180  0.3905
26311SOL     OW83388  10.180   0.114   3.505 -0.1281  0.2361 -0.2429
26311SOL    HW183389  10.167   0.107   3.600  1.0005 -0.8566 -0.1375
26311SOL    HW283390  10.176   0.024   3.474  0.0694  0.5344 -1.1660
26312SOL     OW83391   2.682   4.375   0.062 -0.1577  0.4270 -0.2654
26312SOL    HW183392   2.606   4.319   0.047 -0.4002  0.6820 -0.0150
26312SOL    HW283393   2.660   4.458   0.019 -0.1762  0.6216  0.1134
26313SOL     OW83394   6.985  10.110   4.890 -0.2212 -0.0012 -0.8815
26313SOL    HW183395   6.996  10.108   4.795 -0.9155  0.2480 -0.9742
26313SOL    HW283396   6.960  10.200   4.910  0.2256  0.0240 -0.4235
26314SOL     OW83397   0.683   7.865   4.356  0.0751 -0.1416 -0.0957
26314SOL    HW183398   0.594   7.828   4.357  0.0118  0.0178  0.8399
26314SOL    HW283399   0.680   7.934   4.290 -0.8297  0.6449  0.7418
26315SOL     OW83400   4.567   9.500   3.352  0.4080  0.6962  0.0279
26315SOL    HW183401   4.562   9.582   3.401 -1.3409  1.0966 -0.7510
26315SOL    HW283402   4.476   9.476   3.335  0.9057 -0.9675 -0.4947
26316SOL     OW83403   1.372   6.033   4.376 -0.3330  0.1386 -0.3543
26316SOL    HW183404   1.327   6.107   4.336 -0.5776  0.0040 -0.3331
26316SOL    HW283405   1.398   5.977   4.303  0.7937  0.7628 -0.4490
26317SOL     OW83406   9.901  10.592   3.053  0.6214  0.5157 -0.6944
26317SOL    HW183407   9.839  10.617   3.121  0.4316 -0.5878 -0.4445
26317SOL    HW283408   9.910  10.670   2.999 -1.6781  0.4592 -1.2663
26318SOL     OW83409   5.513   4.785   1.972 -0.4537  0.1022  0.0928
26318SOL    HW183410   5.488   4.762   2.061 -0.3959  1.4637  0.4841
26318SOL    HW283411   5.581   4.721   1.948 -1.5977 -1.2628  0.4082
26319SOL     OW83412   7.868   4.669   5.980 -1.2527 -0.8971 -0.0881
26319SOL    HW183413   7.818   4.749   5.988  0.0535 -0.1771  1.3323
26319SOL    HW283414   7.913   4.678   5.896 -2.0373 -0.7139 -0.4994
26320SOL     OW83415   2.202   8.023   4.967 -0.1905  0.1726 -0.1577
26320SOL    HW183416   2.155   7.957   5.018 -1.3715 -0.7881 -2.3896
26320SOL    HW283417   2.294   8.008   4.988 -0.5424 -1.0916  0.6228
26321SOL     OW83418   7.343   2.528   8.125  0.5395 -0.1291  0.2293
26321SOL    HW183419   7.390   2.553   8.046  1.4080  1.0828  1.0980
26321SOL    HW283420   7.412   2.511   8.190 -0.1130 -1.9994  0.5133
26322SOL     OW83421   1.929   6.852   5.684 -0.6521 -0.1759 -0.1608
26322SOL    HW183422   1.835   6.841   5.670 -0.5909  0.2868 -1.0298
26322SOL    HW283423   1.967   6.769   5.656 -0.7586 -0.1580 -0.3631
26323SOL     OW83424   6.878   1.737   7.077  0.2903 -0.1035 -0.3653
26323SOL    HW183425   6.885   1.751   6.982 -0.8574 -1.4496 -0.6855
26323SOL    HW283426   6.940   1.799   7.115 -0.5802  1.8386 -1.8837
26324SOL     OW83427   3.697  10.504   2.583 -0.2609 -0.2656  0.3724
26324SOL    HW183428   3.716  10.410   2.575 -0.8878 -0.3186 -0.8266
26324SOL    HW283429   3.693  10.535   2.492  1.0625  1.1727  0.7569
26325SOL     OW83430   6.481   6.244   0.481 -0.2510  0.2564  0.7340
26325SOL    HW183431   6.566   6.287   0.467 -1.6890  2.6560 -1.5004
26325SOL    HW283432   6.487   6.162   0.432  0.7468  0.4282  0.5534
26326SOL     OW83433   3.095   9.841  10.512  0.2479 -0.4108 -0.7124
26326SOL    HW183434   3.061   9.914  10.462  2.7014 -0.3035 -2.3937
26326SOL    HW283435   3.124   9.778  10.446  0.9291 -1.5618  0.6265
26327SOL     OW83436   8.526   8.492   0.979 -0.2746 -0.8816  0.5334
26327SOL    HW183437   8.559   8.414   0.933  2.9529  1.8517 -2.3128
26327SOL    HW283438   8.467   8.534   0.916  2.9450  2.0627 -0.8726
26328SOL     OW83439   4.019   5.859   4.745 -0.3123  0.3283  0.3654
26328SOL    HW183440   4.000   5.765   4.746 -0.2136  0.1733 -2.9071
26328SOL    HW283441   3.950   5.898   4.799 -1.0511 -1.5145  0.8101
26329SOL     OW83442   6.819   6.424   8.871 -0.3451 -0.3423  0.1850
26329SOL    HW183443   6.815   6.341   8.822 -0.7484 -0.6161  0.6770
26329SOL    HW283444   6.728   6.451   8.880 -0.3165 -0.6020  1.3058
26330SOL     OW83445   9.548   0.312   9.372  0.4566 -0.2088 -0.8963
26330SOL    HW183446   9.480   0.298   9.438  0.0714 -0.0457 -1.2581
26330SOL    HW283447   9.608   0.238   9.383 -0.1098 -0.6864 -0.9915
26331SOL     OW83448   5.838   6.234   0.171 -0.1672  0.0197 -0.6314
26331SOL    HW183449   5.892   6.223   0.093  0.9079 -0.3322  0.1508
26331SOL    HW283450   5.870   6.315   0.211  1.4787 -1.4400  1.1408
26332SOL     OW83451   9.613   7.154   7.048 -0.6719 -0.2191 -0.1065
26332SOL    HW183452   9.549   7.128   7.114  0.2684  0.6475  1.1928
26332SOL    HW283453   9.660   7.073   7.028  0.8320 -0.0618  2.3460
26333SOL     OW83454   8.954   0.582   9.102 -0.0409  0.3241  0.2239
26333SOL    HW183455   8.945   0.488   9.121  0.0534  0.3278  0.2905
26333SOL    HW283456   9.043   0.602   9.129 -0.8747  1.0158  2.7601
26334SOL     OW83457   4.023   4.098   4.814  0.0106 -0.3235  0.0537
26334SOL    HW183458   4.029   4.047   4.733  0.3980 -1.9209  1.0482
26334SOL    HW283459   3.968   4.045   4.872 -0.0160  0.6527  0.9541
26335SOL     OW83460   5.394   0.739   0.442 -0.4582 -0.0396 -0.0060
26335SOL    HW183461   5.439   0.746   0.526 -2.1360  0.2709  0.9225
26335SOL    HW283462   5.456   0.695   0.384  0.9168  0.1766  1.2519
26336SOL     OW83463   4.789   3.900   8.266 -0.2482 -0.2315  0.9809
26336SOL    HW183464   4.833   3.817   8.249 -0.5317 -0.5816  1.9349
26336SOL    HW283465   4.858   3.957   8.302  0.2164  0.3298 -0.6940
26337SOL     OW83466   7.945  10.379   7.373 -0.3919 -0.5615 -0.4985
26337SOL    HW183467   7.998  10.450   7.337  2.0828 -1.0970  1.7970
26337SOL    HW283468   8.002  10.302   7.370  0.4069 -0.5338  4.8775
26338SOL     OW83469   9.491  10.008  10.394  0.1661 -0.5231  0.0177
26338SOL    HW183470   9.417   9.948  10.409 -0.3311  0.1438  0.2941
26338SOL    HW283471   9.543  10.002  10.474  1.1833 -2.0179 -0.6963
26339SOL     OW83472   8.937   1.076   0.512  0.0437  0.3082 -0.5760
26339SOL    HW183473   8.942   0.984   0.483 -0.6137  1.1892 -3.8975
26339SOL    HW283474   8.851   1.106   0.483 -1.3856  1.1000  3.7937
26340SOL     OW83475   8.720   4.000  10.939  0.7075 -0.2138  0.4308
26340SOL    HW183476   8.768   3.917  10.944  1.6389  0.3157  0.5309
26340SOL    HW283477   8.653   3.994  11.007  0.2822 -1.1780 -0.0590
26341SOL     OW83478   8.033   7.979   9.212 -0.3165  0.3876 -0.5314
26341SOL    HW183479   8.026   7.908   9.147 -3.0647 -0.4996  0.5854
26341SOL    HW283480   7.948   8.022   9.210 -0.1579  0.9412  1.8073
26342SOL     OW83481  10.989   0.731   0.400 -0.1674 -0.1058  0.5941
26342SOL    HW183482  10.937   0.759   0.475 -1.2257 -1.1472  0.2817
26342SOL    HW283483  11.079   0.748   0.426 -0.4958 -0.5706  2.1564
26343SOL     OW83484   4.961   6.325   6.574  0.5189  0.3112 -0.1734
26343SOL    HW183485   4.915   6.305   6.656  0.7842  0.4086 -0.0011
26343SOL    HW283486   4.894   6.314   6.506  0.8304 -2.0193 -0.1899
26344SOL     OW83487   0.463   3.227   7.523  0.2503  0.0545 -0.5173
26344SOL    HW183488   0.486   3.181   7.443 -1.9095  1.0363 -1.7827
26344SOL    HW283489   0.442   3.316   7.495 -0.0833  0.5669  1.2109
26345SOL     OW83490   8.716   6.679   7.444 -0.2089 -0.0905  0.1192
26345SOL    HW183491   8.785   6.667   7.509 -0.4662 -0.3616  0.3479
26345SOL    HW283492   8.679   6.591   7.432 -0.0689 -0.0689 -0.4972
26346SOL     OW83493   9.167   7.499   9.112  0.6006  0.2529  0.9180
26346SOL    HW183494   9.077   7.530   9.104  0.3542 -0.4722  0.8005
26346SOL    HW283495   9.162   7.405   9.094  1.2588  0.0549  1.6969
26347SOL     OW83496   2.632   8.860   4.894 -0.0755  0.0627 -0.1755
26347SOL    HW183497   2.551   8.819   4.862 -0.5941  0.9477 -0.0170
26347SOL    HW283498   2.691   8.858   4.819  0.4594 -2.2904  0.2075
26348SOL     OW83499   9.271   3.944   4.601  0.1033 -0.3075 -0.3317
26348SOL    HW183500   9.333   4.006   4.562  1.2530 -0.8822  0.5495
26348SOL    HW283501   9.265   3.970   4.693 -0.8086 -0.3888 -0.3620
26349SOL     OW83502   7.404   9.146   6.704 -0.4287  0.0745  0.6129
26349SOL    HW183503   7.330   9.085   6.698 -0.0257 -0.3679  0.0440
26349SOL    HW283504   7.405   9.191   6.619 -1.0281  1.2519  1.2012
26350SOL     OW83505  10.184   1.491  11.056  0.1995 -0.2266 -0.1289
26350SOL    HW183506  10.205   1.583  11.071  1.0653 -0.2488 -1.1020
26350SOL    HW283507  10.269   1.448  11.046 -0.2049 -1.0932  0.0592
26351SOL     OW83508   1.410   1.940   2.835 -0.2122  0.1115 -0.2422
26351SOL    HW183509   1.354   1.876   2.878 -0.3998  0.7782  0.5341
26351SOL    HW283510   1.354   2.017   2.825  0.3246  0.5138 -0.1905
26352SOL     OW83511  10.886   7.602   2.624  0.2823 -0.4456  0.1022
26352SOL    HW183512  10.928   7.563   2.700 -0.7816 -0.6074  0.6121
26352SOL    HW283513  10.841   7.529   2.581  0.4670 -0.2623 -0.4238
26353SOL     OW83514   0.771   4.907   6.077 -0.2159  0.5924 -0.2135
26353SOL    HW183515   0.766   4.975   6.010 -0.8702 -0.1784 -0.9603
26353SOL    HW283516   0.863   4.907   6.104  0.4042 -0.0766 -2.1843
26354SOL     OW83517   8.721   9.076   7.038 -0.0409  0.1850  0.0723
26354SOL    HW183518   8.714   9.012   6.967 -2.3309 -0.0162  0.3814
26354SOL    HW283519   8.720   9.023   7.118  1.4436  0.4692  0.3083
26355SOL     OW83520  10.955   1.114   0.141  0.1054 -0.1886  1.0325
26355SOL    HW183521  10.966   1.085   0.231  0.5257 -1.1295  0.6909
26355SOL    HW283522  11.019   1.185   0.131  1.2075 -1.1494  1.0260
26356SOL     OW83523   2.615   2.879   3.459 -0.4157 -0.2431 -0.3203
26356SOL    HW183524   2.638   2.971   3.471 -1.4052 -0.0928  0.4287
26356SOL    HW283525   2.700   2.834   3.458  0.0581  0.6225 -0.3598
26357SOL     OW83526  10.134   6.917   4.846 -0.3523 -0.3056  0.1125
26357SOL    HW183527  10.084   6.908   4.927  1.9355  0.8718  1.7607
26357SOL    HW283528  10.145   7.012   4.835  0.7685 -0.4999 -0.6553
26358SOL     OW83529   4.756  10.221   3.617 -0.5629  0.5167 -0.5616
26358SOL    HW183530   4.736  10.150   3.555  2.2081 -0.8599 -0.0374
26358SOL    HW283531   4.703  10.201   3.694 -2.4708  1.0809 -1.6460
26359SOL     OW83532   5.723   8.454   2.025 -0.4567  0.1244 -0.4015
26359SOL    HW183533   5.745   8.396   1.952 -1.9675 -0.6859 -0.2649
26359SOL    HW283534   5.795   8.442   2.087 -0.1629 -0.7232 -0.8816
26360SOL     OW83535   2.884   7.134   9.297  0.2528  0.5438  0.0427
26360SOL    HW183536   2.835   7.206   9.335 -0.1564  1.0201 -1.3326
26360SOL    HW283537   2.926   7.171   9.219  0.3240 -0.6107 -0.4913
26361SOL     OW83538   5.703   4.651   6.167  0.0590 -0.0456 -0.0541
26361SOL    HW183539   5.750   4.734   6.161  2.8169 -1.5968 -2.5127
26361SOL    HW283540   5.742   4.606   6.243  0.4864 -0.1510 -0.3335
26362SOL     OW83541   6.770   9.101   0.307  0.4483 -0.2016  0.4064
26362SOL    HW183542   6.678   9.112   0.333  0.7378  1.3954  0.8783
26362SOL    HW283543   6.812   9.184   0.331  2.5697 -1.7238  2.4399
26363SOL     OW83544  10.478   7.478   8.520 -0.5760 -0.0366  0.3523
26363SOL    HW183545  10.394   7.472   8.566 -1.4630  1.9666 -0.8365
26363SOL    HW283546  10.453   7.500   8.429  1.2127  0.3266 -0.0850
26364SOL     OW83547   1.427   2.009   7.103  0.3589 -0.0624 -0.0481
26364SOL    HW183548   1.393   1.923   7.127  2.2412 -0.7580  0.3237
26364SOL    HW283549   1.372   2.037   7.030 -0.1657 -1.6842 -0.3200
26365SOL     OW83550   1.832   9.817   5.092 -0.0385  0.2357 -0.0595
26365SOL    HW183551   1.767   9.748   5.081  0.9091 -0.9881  1.5062
26365SOL    HW283552   1.916   9.771   5.086  0.6116  0.9312  2.6383
26366SOL     OW83553   9.088   4.809   0.874  0.2663 -0.3953 -0.2256
26366SOL    HW183554   9.034   4.875   0.829 -0.8983 -0.7097  0.6589
26366SOL    HW283555   9.098   4.843   0.963 -0.0660 -1.2337  0.1439
26367SOL     OW83556   5.140   5.223   2.382  0.2183  0.2981 -0.3867
26367SOL    HW183557   5.122   5.284   2.311  1.6788 -0.2596 -1.2798
26367SOL    HW283558   5.056   5.178   2.396 -0.4269  1.3096 -0.8559
26368SOL     OW83559   4.041   9.981  10.246  0.3886  0.1943 -0.2883
26368SOL    HW183560   4.055   9.974  10.340 -0.9945 -3.1045 -0.1889
26368SOL    HW283561   4.122   9.949  10.207  0.2480 -0.3340 -0.1558
26369SOL     OW83562   9.569   0.813   0.480 -0.0074 -0.4036  0.3539
26369SOL    HW183563   9.575   0.788   0.388 -1.5476 -1.8032  0.5916
26369SOL    HW283564   9.475   0.816   0.498  0.2626 -1.8864  2.3171
26370SOL     OW83565   3.679   3.947   9.492 -0.0761  0.2248  0.0005
26370SOL    HW183566   3.596   3.900   9.488 -1.2740  2.1390  0.9498
26370SOL    HW283567   3.711   3.946   9.402 -0.8181 -1.0547 -0.2736
26371SOL     OW83568   3.148   0.353   9.553  0.1980  0.1036  0.1697
26371SOL    HW183569   3.079   0.412   9.525  0.5842  0.9690  1.0066
26371SOL    HW283570   3.210   0.353   9.480 -1.0563 -1.3532 -0.9653
26372SOL     OW83571   3.740   7.938  10.780  0.7736  0.3024 -0.2301
26372SOL    HW183572   3.771   7.906  10.696  0.1635  2.5578 -1.4110
26372SOL    HW283573   3.819   7.944  10.834  1.3859  0.0039 -1.0733
26373SOL     OW83574  10.962   1.038  10.752 -0.3458  0.2708  0.0792
26373SOL    HW183575  10.917   0.982  10.815  0.5713  1.8655  2.2739
26373SOL    HW283576  10.994   0.978  10.685  0.7115 -1.9008  2.3541
26374SOL     OW83577   8.881   4.249   9.016  0.2099 -0.0038  0.3692
26374SOL    HW183578   8.890   4.277   8.925  0.6927  0.7682  0.6351
26374SOL    HW283579   8.970   4.254   9.051  0.0391 -0.3457  0.8698
26375SOL     OW83580  10.609   9.761   4.359 -0.3091 -0.7470  0.1686
26375SOL    HW183581  10.593   9.829   4.294  1.5061 -1.0548 -0.6515
26375SOL    HW283582  10.523   9.744   4.398 -1.2622  0.1146 -1.4752
26376SOL     OW83583   2.262   4.769   2.090 -0.0679 -0.3726  0.7153
26376SOL    HW183584   2.220   4.834   2.146 -0.0250 -0.7921  1.2549
26376SOL    HW283585   2.321   4.819   2.034 -3.5401  0.6743 -2.3830
26377SOL     OW83586   5.585   1.919   8.196  0.3585 -0.3853  0.8222
26377SOL    HW183587   5.609   2.001   8.240  1.2456 -0.2539  0.1305
26377SOL    HW283588   5.498   1.899   8.229 -0.7303  1.8887 -0.4540
26378SOL     OW83589   4.917   1.233   8.757  0.0498 -0.1107 -0.5544
26378SOL    HW183590   4.911   1.317   8.803  0.7453 -0.4920  0.2405
26378SOL    HW283591   5.006   1.231   8.722  0.0143 -0.4896 -0.6289
26379SOL     OW83592   5.015   5.305   6.213  0.0177 -0.0484 -0.5041
26379SOL    HW183593   4.933   5.258   6.202 -0.1003  0.5136 -2.4761
26379SOL    HW283594   4.991   5.398   6.208  0.6442  0.1465 -0.0681
26380SOL     OW83595   7.768   9.026   1.549 -0.3474 -0.9077  0.1156
26380SOL    HW183596   7.746   9.091   1.616 -0.5262 -1.4382  0.5806
26380SOL    HW283597   7.685   9.012   1.502  0.2921  1.2079 -1.7949
26381SOL     OW83598   6.741   0.078   5.349  0.0984 -0.4223 -0.2966
26381SOL    HW183599   6.772   0.001   5.397  2.1829  1.1299  1.0428
26381SOL    HW283600   6.710   0.044   5.265  0.2117 -2.7729  0.5582
26382SOL     OW83601   0.444   7.518   0.722 -0.3619 -0.0257 -0.1053
26382SOL    HW183602   0.388   7.442   0.709  1.4712 -1.2045 -1.7227
26382SOL    HW283603   0.463   7.518   0.816 -1.9097 -0.3955  0.2314
26383SOL     OW83604   8.923   5.526   3.645  0.5892  0.9156  0.7902
26383SOL    HW183605   8.872   5.448   3.668  1.0700  0.2052 -0.4160
26383SOL    HW283606   9.002   5.491   3.604 -0.0649  2.0376 -1.6048
26384SOL     OW83607  11.026   8.285  10.462  0.2997 -0.0626  0.3011
26384SOL    HW183608  11.118   8.288  10.490  0.4278 -0.7249 -0.0564
26384SOL    HW283609  10.987   8.361  10.505  1.1886  0.6891 -0.1743
26385SOL     OW83610   1.994   4.880   7.415 -0.3629  0.3053  1.4336
26385SOL    HW183611   1.903   4.852   7.407  0.0238 -0.6771  0.1426
26385SOL    HW283612   2.007   4.943   7.344  0.0240  0.2512  1.4505
26386SOL     OW83613   3.899   4.163   5.884 -0.3865 -0.3213  0.5093
26386SOL    HW183614   3.856   4.207   5.958 -1.2277 -2.0692  1.1101
26386SOL    HW283615   3.863   4.075   5.884  1.8612 -1.3128 -0.1374
26387SOL     OW83616   7.226   1.905  10.883 -0.4369 -0.2396 -0.1250
26387SOL    HW183617   7.178   1.898  10.801 -0.9044  2.7413 -0.2172
26387SOL    HW283618   7.312   1.939  10.859 -0.1347 -0.5198  0.5180
26388SOL     OW83619   2.605   2.861   6.464 -0.0367  0.7254 -0.1757
26388SOL    HW183620   2.615   2.851   6.558 -0.0232  0.9578 -0.1514
26388SOL    HW283621   2.646   2.945   6.444 -0.2238  0.7767 -0.3556
26389SOL     OW83622  10.348   1.244   7.158 -0.4027  0.1775 -0.2993
26389SOL    HW183623  10.341   1.306   7.230  0.0366  0.4117 -0.4546
26389SOL    HW283624  10.380   1.296   7.084 -1.9287  0.1859 -0.9894
26390SOL     OW83625   6.813   4.959   5.971  0.3729 -0.2778  0.5662
26390SOL    HW183626   6.786   4.868   5.979 -1.2286  0.2427  1.5208
26390SOL    HW283627   6.854   4.980   6.055 -0.2443  0.1609  0.7712
26391SOL     OW83628   6.570   9.046   5.294  0.7898 -0.5595 -0.0784
26391SOL    HW183629   6.646   8.995   5.266 -0.2443 -1.3717 -1.4739
26391SOL    HW283630   6.495   8.988   5.282 -0.1485  0.4543  0.6560
26392SOL     OW83631   1.647   3.351   1.014 -0.5903  0.1345 -1.0253
26392SOL    HW183632   1.625   3.279   1.073  0.2243  0.4488 -0.3184
26392SOL    HW283633   1.728   3.322   0.970 -1.7953 -0.6041 -2.8826
26393SOL     OW83634  10.659  10.397   8.061  0.1087  0.0989 -0.0886
26393SOL    HW183635  10.609  10.460   8.009  1.0525 -0.4985 -1.7768
26393SOL    HW283636  10.715  10.451   8.117  1.5544  0.8668 -2.1353
26394SOL     OW83637   0.350   7.801   5.008  0.1617  0.0050 -0.6392
26394SOL    HW183638   0.260   7.809   4.976 -0.9767 -2.6147  1.4929
26394SOL    HW283639   0.377   7.891   5.023 -1.7117  0.9344 -2.2727
26395SOL     OW83640   7.766   6.276   0.068  0.1530 -0.0916 -0.0791
26395SOL    HW183641   7.801   6.187   0.066  1.7756  0.5301 -0.4881
26395SOL    HW283642   7.677   6.267   0.035  0.6090 -1.4271 -1.0296
26396SOL     OW83643   7.023   3.201   8.009  0.2185 -0.0802 -0.5266
26396SOL    HW183644   6.986   3.222   8.095  2.2432  0.6931  0.2201
26396SOL    HW283645   6.948   3.173   7.957 -1.6850  2.8354  0.3927
26397SOL     OW83646  10.719   3.154   7.918 -0.0531  0.1126 -0.2724
26397SOL    HW183647  10.660   3.206   7.971  0.9888  2.2588 -1.1014
26397SOL    HW283648  10.681   3.156   7.830 -0.4910 -1.3645 -0.1389
26398SOL     OW83649   4.915   9.068   8.818 -0.4117 -0.2228 -0.1453
26398SOL    HW183650   4.866   9.059   8.736 -0.6971  0.2061 -0.0290
26398SOL    HW283651   4.940   9.160   8.821 -0.3029 -0.2596  0.1926
26399SOL     OW83652   5.417   5.965   0.962 -0.6152 -0.3848 -0.1766
26399SOL    HW183653   5.470   6.034   0.923 -1.5726 -0.7900 -2.3709
26399SOL    HW283654   5.371   6.008   1.034  0.5781  0.6389  0.0162
26400SOL     OW83655   5.950   5.716   3.945 -0.2161  0.3632 -0.0751
26400SOL    HW183656   5.995   5.691   3.864  1.1302  1.1222  0.4001
26400SOL    HW283657   5.885   5.781   3.917 -0.2375  0.1139 -0.6267
26401SOL     OW83658   3.351   9.011   3.152 -0.3312  0.4313  0.2648
26401SOL    HW183659   3.278   8.997   3.212 -0.6698 -1.4800 -0.5084
26401SOL    HW283660   3.427   8.978   3.199 -0.5862 -1.0023 -0.2582
26402SOL     OW83661   2.547   9.019   2.506  0.7242 -0.4192 -0.2350
26402SOL    HW183662   2.503   8.935   2.510 -1.6428  0.6981 -0.9868
26402SOL    HW283663   2.625   9.003   2.453  0.8592 -2.3128  0.4774
26403SOL     OW83664   5.714   6.065  10.833 -0.0641  0.3441 -0.1570
26403SOL    HW183665   5.808   6.082  10.840  0.1743 -0.7439 -0.5105
26403SOL    HW283666   5.682   6.127  10.768  0.5795  0.1393 -0.6734
26404SOL     OW83667   5.539   0.163   5.941 -0.2263 -0.1404 -0.2532
26404SOL    HW183668   5.585   0.181   5.860  1.2941  2.2735  1.0356
26404SOL    HW283669   5.463   0.221   5.939 -1.8875 -2.2289 -1.1985
26405SOL     OW83670   8.059   8.043  10.723  0.0922 -0.5700 -0.3273
26405SOL    HW183671   8.094   7.970  10.671 -0.6454 -0.6693 -0.6883
26405SOL    HW283672   8.049   8.115  10.661 -0.5763 -0.6180 -0.2783
26406SOL     OW83673   3.467   0.020   1.399  0.0754  1.0741  0.5438
26406SOL    HW183674   3.484   0.062   1.484 -1.1610  0.3302  1.1864
26406SOL    HW283675   3.514  -0.063   1.405 -0.2418  0.8998  0.6130
26407SOL     OW83676  10.260   4.022   5.785 -0.3303 -0.0878  0.4820
26407SOL    HW183677  10.185   4.021   5.846 -0.3149  0.2111  0.5078
26407SOL    HW283678  10.223   4.056   5.703 -0.5306 -1.2357  0.0805
26408SOL     OW83679   7.567   2.464   8.253 -0.1589 -0.5185  0.1640
26408SOL    HW183680   7.663   2.469   8.262 -0.1275 -0.9320  0.1093
26408SOL    HW283681   7.539   2.416   8.331 -0.3273 -0.3494  0.2062
26409SOL     OW83682   4.198   6.269   8.641  0.8044 -0.1110  0.0160
26409SOL    HW183683   4.225   6.298   8.728 -1.4420 -0.3436  0.8578
26409SOL    HW283684   4.190   6.174   8.648 -2.1014  0.0879  0.4741
26410SOL     OW83685   0.523   0.952  10.900 -0.4446 -0.2584 -0.0630
26410SOL    HW183686   0.430   0.930  10.895 -0.4663 -0.3647  0.6913
26410SOL    HW283687   0.527   1.022  10.965 -0.0266 -0.0629 -0.2952
26411SOL     OW83688   7.824  10.747  10.930  0.3299  0.2378 -0.6103
26411SOL    HW183689   7.791  10.835  10.946 -1.3663 -0.6390  1.0947
26411SOL    HW283690   7.808  10.732  10.837 -1.1280  1.0608 -0.5159
26412SOL     OW83691   8.495   7.543   1.917 -0.9650  0.5297  0.5714
26412SOL    HW183692   8.446   7.546   1.999  1.1297  1.3368  1.8893
26412SOL    HW283693   8.540   7.627   1.913 -0.3767  0.1771 -0.9979
26413SOL     OW83694   4.790   1.447   0.528  0.4682 -0.1340  0.0140
26413SOL    HW183695   4.778   1.373   0.586  0.4053 -0.8347 -0.8716
26413SOL    HW283696   4.723   1.437   0.460 -0.6337  1.6358  0.7536
26414SOL     OW83697   7.407   2.876   9.210 -0.3643 -0.0477  0.7593
26414SOL    HW183698   7.337   2.914   9.264 -2.0762  0.1860 -1.4904
26414SOL    HW283699   7.458   2.951   9.182  0.8242 -0.2107  2.3301
26415SOL     OW83700   3.955   4.915   9.925  0.7027  0.1539  0.0900
26415SOL    HW183701   3.948   4.957   9.839  0.7163 -0.1870 -0.0795
26415SOL    HW283702   4.044   4.881   9.928  0.4604 -0.5207 -0.0836
26416SOL     OW83703   9.843   7.080   3.566 -0.3446 -0.5930  0.1233
26416SOL    HW183704   9.762   7.039   3.536 -1.1859  1.1213 -0.0809
26416SOL    HW283705   9.831   7.090   3.660 -0.3509 -0.4108  0.1043
26417SOL     OW83706   1.893   3.044   5.418  0.0456  0.0708 -0.0105
26417SOL    HW183707   1.930   3.012   5.500 -2.0448 -1.4121  0.4446
26417SOL    HW283708   1.968   3.071   5.366  1.5110 -0.1150  1.9105
26418SOL     OW83709   2.099   1.732   2.398 -0.5220  0.4070 -0.1119
26418SOL    HW183710   2.142   1.815   2.419 -0.5656  0.0161  1.6952
26418SOL    HW283711   2.168   1.666   2.407 -0.9261  0.0455  0.4129
26419SOL     OW83712   8.771   7.108   8.017 -0.2917 -0.4645  0.2015
26419SOL    HW183713   8.737   7.023   8.043 -1.5951 -0.0980 -0.2516
26419SOL    HW283714   8.866   7.100   8.029 -0.4690 -1.6828  0.9862
26420SOL     OW83715   6.713   4.942   3.795 -0.1876 -0.6706  0.2693
26420SOL    HW183716   6.623   4.914   3.781 -0.3560  0.1504 -0.3702
26420SOL    HW283717   6.707   5.033   3.824  0.4404 -0.3222 -0.6123
26421SOL     OW83718   2.075   2.651   1.672 -0.4702 -0.4865 -0.5268
26421SOL    HW183719   2.068   2.644   1.577 -0.2662  1.8084 -0.7842
26421SOL    HW283720   2.000   2.706   1.697  0.3078  0.1756  0.4231
26422SOL     OW83721   6.961   4.024   1.143 -0.1289  0.2690  0.0868
26422SOL    HW183722   6.902   3.954   1.170  0.1027  0.6718  1.7596
26422SOL    HW283723   7.044   4.004   1.187  0.1591  1.1997 -0.0037
26423SOL     OW83724   3.953   1.752   5.133 -0.0966 -0.5676  0.1016
26423SOL    HW183725   4.020   1.703   5.181 -0.3971 -0.4378  0.6630
26423SOL    HW283726   3.870   1.712   5.161 -0.2044 -2.2223 -2.2370
26424SOL     OW83727   9.416   0.882   0.001  0.0567 -0.0707  0.0476
26424SOL    HW183728   9.480   0.900  -0.068 -0.7110 -0.5593 -0.8026
26424SOL    HW283729   9.337   0.929  -0.025  0.4203  1.6176  1.7549
26425SOL     OW83730  10.470   9.621   6.778 -0.0303  0.6486 -0.1635
26425SOL    HW183731  10.498   9.577   6.697 -0.8577  0.4622 -0.3586
26425SOL    HW283732  10.428   9.551   6.829  1.4873  0.5112  0.9340
26426SOL     OW83733   6.851   1.995   8.721  0.0966 -0.5796 -0.4150
26426SOL    HW183734   6.813   2.047   8.651  0.8367  0.7683  0.1361
26426SOL    HW283735   6.788   1.999   8.792  0.2723 -0.1957 -0.2779
26427SOL     OW83736   9.756  10.563   4.420  0.0734 -0.2039  0.6560
26427SOL    HW183737   9.668  10.600   4.407  0.6196  0.5865 -1.2182
26427SOL    HW283738   9.798  10.621   4.483  0.2240  1.2419 -0.7048
26428SOL     OW83739   5.990   8.620  10.699  0.2508 -0.4921 -0.8259
26428SOL    HW183740   6.075   8.581  10.678  0.1356 -1.4298  0.3650
26428SOL    HW283741   5.928   8.548  10.686 -0.1684 -0.2485 -0.1843
26429SOL     OW83742   4.609  10.857   9.399 -0.0844 -0.1166 -0.2166
26429SOL    HW183743   4.568  10.937   9.432 -2.1748 -1.2376  0.0994
26429SOL    HW283744   4.610  10.867   9.304 -2.2880 -0.5311 -0.3302
26430SOL     OW83745   9.151   7.568   6.503  0.0636  0.4247  0.1642
26430SOL    HW183746   9.154   7.608   6.590  0.1128 -0.9745  0.8359
26430SOL    HW283747   9.081   7.613   6.457 -0.3762  0.7570  1.1561
26431SOL     OW83748   9.693   3.036   4.015  0.5722 -0.5453 -0.1011
26431SOL    HW183749   9.674   3.083   3.934 -2.7118 -0.5845  0.4848
26431SOL    HW283750   9.787   3.018   4.011  1.0108  1.5917 -2.7000
26432SOL     OW83751   9.217   7.355   1.946 -0.5791 -0.0138 -0.5808
26432SOL    HW183752   9.179   7.390   1.865  1.8346 -0.0018 -1.8023
26432SOL    HW283753   9.208   7.427   2.009  0.0295  1.0549 -1.6747
26433SOL     OW83754   6.557   4.166   8.522  0.0700 -0.3524  0.0136
26433SOL    HW183755   6.639   4.119   8.538  0.5797  0.5946  0.2519
26433SOL    HW283756   6.584   4.243   8.471 -0.4245  0.8342  1.4946
26434SOL     OW83757   8.576   7.471   4.852  0.1535  0.5229 -0.2796
26434SOL    HW183758   8.669   7.448   4.856 -0.3732 -1.8095  0.0887
26434SOL    HW283759   8.564   7.506   4.763  1.1837 -0.2118 -0.7314
26435SOL     OW83760   4.970   1.707   0.133 -0.1368 -0.3972 -0.7201
26435SOL    HW183761   4.987   1.747   0.048 -0.2272 -0.1528 -0.6225
26435SOL    HW283762   4.932   1.777   0.186  2.3571  0.2530  0.3762
26436SOL     OW83763   5.648   4.707   2.755  0.3340 -0.4579 -0.7709
26436SOL    HW183764   5.655   4.790   2.708  2.0812 -1.0163 -1.5469
26436SOL    HW283765   5.553   4.696   2.768  0.0372  1.4929 -0.8853
26437SOL     OW83766   8.303   1.155   7.371 -0.4824 -0.2556  0.2346
26437SOL    HW183767   8.239   1.108   7.424 -1.3171  0.5614 -0.0338
26437SOL    HW283768   8.288   1.124   7.282  0.1798 -0.8031  0.3024
26438SOL     OW83769   2.461   2.701   9.379 -0.0784 -0.2708  0.4645
26438SOL    HW183770   2.480   2.785   9.421  1.3293  0.9121 -2.2590
26438SOL    HW283771   2.515   2.638   9.427  0.6214  0.7994  1.1392
26439SOL     OW83772   5.044   3.313   0.705 -1.2668 -0.1610 -0.1260
26439SOL    HW183773   4.994   3.232   0.701 -1.2703 -0.3304  2.0816
26439SOL    HW283774   5.126   3.289   0.749  1.1500  0.0005 -4.0214
26440SOL     OW83775   8.141   3.254   6.710  0.6228  0.2606 -0.2507
26440SOL    HW183776   8.235   3.253   6.689  0.6494  1.1215 -0.2433
26440SOL    HW283777   8.099   3.280   6.629  0.4428  0.4511 -0.0973
26441SOL     OW83778   6.550   0.769   8.161  0.1214  0.4781 -0.2015
26441SOL    HW183779   6.607   0.824   8.106  1.4404  0.4017  1.0329
26441SOL    HW283780   6.608   0.702   8.196 -0.8021  0.1993  0.8445
26442SOL     OW83781   1.442   0.047   1.920 -0.1378  0.9781 -0.2717
26442SOL    HW183782   1.350   0.022   1.919 -0.6421  2.6455 -2.7721
26442SOL    HW283783   1.456   0.082   2.008 -1.2775 -1.1745  0.8506
26443SOL     OW83784   2.635   8.967   9.323 -0.3957 -0.4945 -0.0808
26443SOL    HW183785   2.692   9.028   9.276 -1.0812  0.2825  0.0723
26443SOL    HW283786   2.692   8.924   9.386  0.5560 -1.5759 -1.6102
26444SOL     OW83787   3.350   4.475   0.376  0.3327 -0.1018  0.1909
26444SOL    HW183788   3.264   4.457   0.414  0.8041 -2.6171  0.2176
26444SOL    HW283789   3.342   4.450   0.284  0.8786  0.2317  0.0473
26445SOL     OW83790   6.974  10.653   6.517  0.2652 -0.4120  0.0388
26445SOL    HW183791   6.982  10.558   6.514 -0.0694 -0.4444  0.2709
26445SOL    HW283792   7.058  10.684   6.481  1.3433 -0.7737  2.0836
26446SOL     OW83793   6.074   8.868   4.188  0.2014 -0.1133 -0.4924
26446SOL    HW183794   6.016   8.883   4.113 -0.0931 -2.4230 -0.8009
26446SOL    HW283795   6.016   8.871   4.264 -0.0789 -0.8771 -0.6639
26447SOL     OW83796   2.004   5.719   8.700 -0.0214 -0.1626 -0.1574
26447SOL    HW183797   2.010   5.814   8.701  1.3953 -0.1905  2.1841
26447SOL    HW283798   1.915   5.700   8.733  0.6939  0.4381  2.3728
26448SOL     OW83799   6.469   4.695   5.945  0.1687 -0.5469  0.1554
26448SOL    HW183800   6.433   4.670   5.860  2.7617 -0.7495 -0.9606
26448SOL    HW283801   6.430   4.781   5.963 -0.0858 -0.2985 -1.4432
26449SOL     OW83802   2.473   2.635   3.361 -0.7675 -0.4272  0.3947
26449SOL    HW183803   2.404   2.701   3.371 -0.7401 -0.5256  1.3613
26449SOL    HW283804   2.552   2.680   3.391 -0.6054 -0.6543  0.3018
26450SOL     OW83805   8.696   5.466   7.670  0.3885  0.1726  0.2891
26450SOL    HW183806   8.739   5.484   7.754 -0.3931 -0.4174  0.8291
26450SOL    HW283807   8.615   5.421   7.694  0.2485 -0.1739 -0.7983
26451SOL     OW83808   7.418   8.564   6.329 -0.5868 -0.7834 -0.0748
26451SOL    HW183809   7.406   8.476   6.365 -1.1219 -0.6290  0.1409
26451SOL    HW283810   7.338   8.611   6.354 -0.3781 -0.2841 -0.3286
26452SOL     OW83811   1.057   0.620  11.061  0.3573 -0.0341  0.0089
26452SOL    HW183812   1.010   0.646  10.982 -2.0168 -0.4215  1.2163
26452SOL    HW283813   1.124   0.687  11.073 -2.1639  2.6812  0.1446
26453SOL     OW83814   0.691   0.102   8.453  0.4311 -0.1078 -0.2887
26453SOL    HW183815   0.611   0.134   8.495  1.1012  0.2154  0.7820
26453SOL    HW283816   0.703   0.159   8.378  0.1056  0.3820  0.0253
26454SOL     OW83817   6.805   6.052   4.814  0.1941  0.2282 -0.0987
26454SOL    HW183818   6.889   6.032   4.856 -0.0552 -0.5392  0.0623
26454SOL    HW283819   6.824   6.050   4.721  0.2424 -0.5320 -0.0800
26455SOL     OW83820   6.276   0.315   6.308  0.1716 -0.4550  0.4690
26455SOL    HW183821   6.249   0.378   6.375 -0.8712 -1.6079  1.1753
26455SOL    HW283822   6.243   0.231   6.340  0.3635 -1.1543 -1.1094
26456SOL     OW83823   6.176   2.997   6.263  0.3659 -0.0319 -0.3761
26456SOL    HW183824   6.256   3.028   6.221  1.1829 -0.0744  1.0780
26456SOL    HW283825   6.117   2.976   6.190  1.2459  1.0939 -1.4512
26457SOL     OW83826   0.603  10.513   8.060 -0.0915 -0.2145 -0.7542
26457SOL    HW183827   0.564  10.426   8.064  0.3566 -0.3787  0.3366
26457SOL    HW283828   0.589  10.551   8.147 -1.3885  1.3188 -1.5806
26458SOL     OW83829   0.114   2.584   1.177 -0.2247 -0.4533 -0.4332
26458SOL    HW183830   0.035   2.617   1.134  0.0962 -2.4659 -2.8507
26458SOL    HW283831   0.085   2.557   1.264 -1.1540  2.8564  0.4456
26459SOL     OW83832   4.167   1.464   6.836 -0.3751 -0.1528 -0.5264
26459SOL    HW183833   4.218   1.544   6.848  0.4486 -0.8757  1.2401
26459SOL    HW283834   4.226   1.394   6.864 -1.8805 -1.1474  0.2752
26460SOL     OW83835   7.538  10.887   9.007  0.2786 -0.0900  0.4083
26460SOL    HW183836   7.443  10.886   8.991  0.0050 -0.8949  1.9388
26460SOL    HW283837   7.576  10.874   8.920 -1.0777 -2.3332  0.0666
26461SOL     OW83838   6.652   5.993   9.507 -0.5797  0.4184  0.0440
26461SOL    HW183839   6.714   6.012   9.578  1.7346 -1.8385 -1.1997
26461SOL    HW283840   6.668   6.062   9.443 -0.2493  0.5569  0.2707
26462SOL     OW83841   3.744   6.972   5.615  0.4804  0.2143  0.3837
26462SOL    HW183842   3.773   7.042   5.673 -1.3697  0.6185  0.8780
26462SOL    HW283843   3.813   6.966   5.548  1.6610  1.0983  1.4652
26463SOL     OW83844   5.367   1.735   0.048 -0.1025 -0.6365 -0.1335
26463SOL    HW183845   5.447   1.682   0.048 -0.4943 -1.2665  1.1266
26463SOL    HW283846   5.311   1.693   0.114 -0.5723  1.1450  0.6374
26464SOL     OW83847   0.569   3.342  10.896 -0.2047  0.6205 -0.5069
26464SOL    HW183848   0.576   3.279  10.824 -0.1269  2.3425 -2.0984
26464SOL    HW283849   0.478   3.337  10.924  0.1073 -1.1182  0.3362
26465SOL     OW83850   0.916   6.064   6.185  0.1965  0.9994  0.3153
26465SOL    HW183851   0.924   5.981   6.137 -0.8489  0.7243  0.5964
26465SOL    HW283852   0.849   6.113   6.137  0.2161  1.3366  0.6304
26466SOL     OW83853   0.371   2.237   4.030 -0.1304  0.6990 -0.3509
26466SOL    HW183854   0.289   2.189   4.024 -0.1841  0.6601  0.5571
26466SOL    HW283855   0.436   2.171   4.054 -0.8034  1.4732  4.6196
26467SOL     OW83856   1.513   2.456   1.946 -0.2135  0.1082  0.0940
26467SOL    HW183857   1.597   2.418   1.918  0.4777  1.6706 -0.0249
26467SOL    HW283858   1.484   2.508   1.871 -1.6693 -0.9540 -0.1317
26468SOL     OW83859   9.407   5.008   7.444 -0.0430  0.2215 -0.4412
26468SOL    HW183860   9.371   5.039   7.361 -0.6255  1.5103  0.2772
26468SOL    HW283861   9.496   5.042   7.446 -0.6188  1.7686  0.2601
26469SOL     OW83862   2.329   9.505   8.087  0.3770 -0.0195  0.0387
26469SOL    HW183863   2.415   9.466   8.108  0.8329  1.1928  0.5038
26469SOL    HW283864   2.281   9.502   8.170 -0.0988 -0.8171 -0.2518
26470SOL     OW83865   9.151   0.172   5.326 -0.1258  0.4797  0.8293
26470SOL    HW183866   9.068   0.216   5.307 -0.0644  1.4222  2.5778
26470SOL    HW283867   9.140   0.084   5.289 -1.3059  1.0656 -0.3102
26471SOL     OW83868   9.726   8.484   7.354  0.7545  0.3964 -0.2972
26471SOL    HW183869   9.795   8.550   7.354  0.4758  0.7157  1.2160
26471SOL    HW283870   9.691   8.485   7.443  0.6349 -1.6921 -0.2776
26472SOL     OW83871   2.535  10.369   2.092  0.2061 -0.1013 -0.2939
26472SOL    HW183872   2.526  10.371   1.996 -1.5296 -0.5161 -0.1725
26472SOL    HW283873   2.523  10.460   2.119  1.5755  0.1650 -0.5089
26473SOL     OW83874   7.041   2.038   8.058 -0.1696  0.9932  0.3033
26473SOL    HW183875   7.123   2.075   8.027  0.7536 -0.9233  0.3069
26473SOL    HW283876   7.062   1.947   8.079 -2.6297 -0.0326 -1.2047
26474SOL     OW83877  10.902   9.968   1.646  0.2501  0.5373  0.0725
26474SOL    HW183878  10.989   9.946   1.614  0.2381  0.6861 -0.0658
26474SOL    HW283879  10.908  10.061   1.669 -0.1120  0.7696 -0.7495
26475SOL     OW83880  10.960   5.505   6.543 -0.4097  0.4007  0.4489
26475SOL    HW183881  10.921   5.524   6.458  0.4137  1.5280  0.2985
26475SOL    HW283882  10.934   5.579   6.598 -0.2043  0.1234  0.9180
26476SOL     OW83883   1.374   4.532   2.445 -0.3339  0.4447  0.1441
26476SOL    HW183884   1.307   4.576   2.497  1.0876  2.7764  0.1271
26476SOL    HW283885   1.454   4.580   2.462  1.3933 -2.1980  0.0926
26477SOL     OW83886   4.523  10.294   9.792 -0.1309  0.3902  0.3087
26477SOL    HW183887   4.465  10.354   9.744 -0.0541 -0.4948 -0.9479
26477SOL    HW283888   4.588  10.352   9.833 -0.4412  1.2190 -0.3336
26478SOL     OW83889   0.083   9.042   3.092 -0.0560  0.5320  0.0908
26478SOL    HW183890   0.081   9.029   2.997 -0.2454  0.0585  0.1577
26478SOL    HW283891  -0.007   9.067   3.115 -0.6852 -1.8904  0.4863
26479SOL     OW83892  10.693   2.261   7.572  0.3773  0.3313 -0.6327
26479SOL    HW183893  10.756   2.240   7.641 -1.2508 -0.2289  0.7439
26479SOL    HW283894  10.696   2.357   7.565  0.5136  0.4024  0.2860
26480SOL     OW83895   9.043   2.489   8.711  0.0688  0.4226 -0.9573
26480SOL    HW183896   9.034   2.470   8.804 -2.3530 -1.1707 -1.4225
26480SOL    HW283897   9.121   2.440   8.684  0.3307  0.2424  0.0839
26481SOL     OW83898   1.824   5.118   5.450  0.2939  0.3748  0.3121
26481SOL    HW183899   1.785   5.092   5.367  0.8134 -1.1935  0.5188
26481SOL    HW283900   1.856   5.208   5.435  0.8535 -0.0630 -1.3600
26482SOL     OW83901   2.042   2.070   3.933 -0.2932 -0.4486  0.0214
26482SOL    HW183902   2.019   2.088   3.842  0.5270  0.0320 -0.1004
26482SOL    HW283903   1.963   2.030   3.970 -0.0677 -2.2966 -1.3527
26483SOL     OW83904   3.800   7.841  10.536  0.9396 -0.1089  0.5887
26483SOL    HW183905   3.884   7.810  10.503  0.4612 -0.7035 -0.1071
26483SOL    HW283906   3.747   7.855  10.457  0.2389 -0.1771  1.0363
26484SOL     OW83907   4.569   3.036   6.634 -0.5114  0.0476 -0.5787
26484SOL    HW183908   4.492   2.981   6.648  0.6945 -1.1458  1.8485
26484SOL    HW283909   4.562   3.104   6.701  1.2475 -0.9582  0.7053
26485SOL     OW83910   8.510   3.328   6.406 -0.1899 -0.4666 -0.1576
26485SOL    HW183911   8.602   3.305   6.419 -0.1010  0.7613  1.8476
26485SOL    HW283912   8.506   3.363   6.317  1.4214 -0.0202 -0.0880
26486SOL     OW83913   3.713   5.269   7.078  0.4480 -0.2029  0.4949
26486SOL    HW183914   3.636   5.212   7.074  0.5634 -0.3576  0.4270
26486SOL    HW283915   3.730   5.293   6.987 -1.4006  2.4241  0.7272
26487SOL     OW83916   3.442   5.434   5.700  0.3658 -0.5159 -0.0746
26487SOL    HW183917   3.422   5.487   5.623  0.6988  0.0603  0.2174
26487SOL    HW283918   3.393   5.477   5.771 -0.8302 -1.6971 -0.1542
26488SOL     OW83919   8.294   8.685   9.955 -0.2256  0.2433  0.0458
26488SOL    HW183920   8.306   8.773   9.991  0.0081  0.2019  0.0699
26488SOL    HW283921   8.227   8.645  10.011  0.1214  0.1867  0.4213
26489SOL     OW83922   1.158   3.471  10.826 -0.0579  0.0330 -0.3342
26489SOL    HW183923   1.194   3.530  10.760 -0.2173 -1.5666 -1.9057
26489SOL    HW283924   1.065   3.464  10.804 -0.4505  0.6342  0.9963
26490SOL     OW83925  10.577   3.356   2.423 -0.3853 -0.1608  0.0398
26490SOL    HW183926  10.643   3.373   2.490 -0.5073 -0.2466  0.1858
26490SOL    HW283927  10.626   3.347   2.342 -0.2275 -0.1361  0.1316
26491SOL     OW83928   6.512   0.023   5.639 -0.9371  0.1987 -0.4106
26491SOL    HW183929   6.541   0.004   5.549 -1.5947  0.3979 -0.6676
26491SOL    HW283930   6.539  -0.055   5.689 -0.8691 -0.0633 -0.8443
26492SOL     OW83931   5.874   2.409   4.763  0.0857  0.2734 -0.1697
26492SOL    HW183932   5.848   2.418   4.855  1.1126  0.0872  0.1571
26492SOL    HW283933   5.849   2.492   4.722 -1.6425 -0.1577 -0.0660
26493SOL     OW83934   4.976   9.997   2.235  0.0984  0.6281 -0.0761
26493SOL    HW183935   5.058   9.950   2.224  0.9463  1.9387  0.3931
26493SOL    HW283936   4.977  10.065   2.167  0.1429  1.6294  0.8947
26494SOL     OW83937   9.089   4.357   3.157  0.0130 -0.1525 -0.5904
26494SOL    HW183938   9.083   4.272   3.200  1.6489  0.2351  0.5013
26494SOL    HW283939   9.012   4.361   3.099 -0.6625 -1.9036  0.1338
26495SOL     OW83940   2.905   3.784  10.749  0.1591  0.3729  0.4413
26495SOL    HW183941   2.868   3.735  10.675  1.8041  0.6625 -0.6198
26495SOL    HW283942   2.861   3.748  10.826 -1.0148 -0.4944 -0.5891
26496SOL     OW83943   0.645  10.783   0.749  0.0826 -0.5803  0.7117
26496SOL    HW183944   0.627  10.706   0.696 -0.4376  0.3987 -0.5862
26496SOL    HW283945   0.696  10.840   0.692  0.2667  0.1390  1.5739
26497SOL     OW83946   5.147   7.292   3.358  1.4231 -0.2384 -0.2253
26497SOL    HW183947   5.189   7.246   3.431  2.0871  1.6488  0.6527
26497SOL    HW283948   5.198   7.267   3.281  0.4479 -2.6019 -0.1796
26498SOL     OW83949   6.633   0.615   3.082  0.5489 -0.2475 -0.2449
26498SOL    HW183950   6.684   0.696   3.086 -1.1465  0.8644 -0.1787
26498SOL    HW283951   6.589   0.619   2.997  0.2834 -1.0014 -0.1493
26499SOL     OW83952   1.340   4.993  10.271  0.2416  0.4925 -0.2067
26499SOL    HW183953   1.313   4.996  10.363  0.7136  0.3054 -0.0605
26499SOL    HW283954   1.435   5.007  10.273  0.4353 -0.6422 -0.5678
26500SOL     OW83955   8.452   4.791   0.631  0.4066  0.2015 -0.1341
26500SOL    HW183956   8.451   4.862   0.567  1.5201  0.7795  0.4613
26500SOL    HW283957   8.368   4.747   0.619  0.6841  0.1199 -2.1735
26501SOL     OW83958   4.643   3.566   4.416  0.3913  0.7447 -0.1729
26501SOL    HW183959   4.551   3.544   4.399  0.8701 -1.6070 -0.0951
26501SOL    HW283960   4.689   3.536   4.337  1.2023  1.1199  0.1480
26502SOL     OW83961   4.321  10.031   7.161  0.2984  0.2514 -0.2159
26502SOL    HW183962   4.240  10.081   7.165  0.0483 -0.0748 -0.9595
26502SOL    HW283963   4.364  10.061   7.081  1.3914  1.1150  0.6484
26503SOL     OW83964   7.805   8.968   7.233  0.0289 -0.1874 -0.6758
26503SOL    HW183965   7.800   9.009   7.147 -0.3808  1.0596 -0.0811
26503SOL    HW283966   7.719   8.985   7.273  0.9003  1.1117  0.7680
26504SOL     OW83967   7.027   0.001   5.243  0.4460  0.2994 -0.2832
26504SOL    HW183968   7.084  -0.047   5.184 -0.2297 -0.4476 -0.3529
26504SOL    HW283969   7.064  -0.015   5.330  0.8256  0.5201 -0.4019
26505SOL     OW83970   3.393   7.837   1.954  0.7039  0.1311 -0.4775
26505SOL    HW183971   3.441   7.777   2.011 -0.6662 -0.1867  0.4008
26505SOL    HW283972   3.377   7.786   1.875 -1.9255 -1.4184  0.8883
26506SOL     OW83973  10.814   5.030   8.814  0.0315  0.5847  0.1369
26506SOL    HW183974  10.859   5.021   8.731  0.6752 -3.3516  0.7343
26506SOL    HW283975  10.868   5.092   8.864  0.2210  2.1528 -1.8791
26507SOL     OW83976   4.483   7.365   3.474  0.2656  0.0888  0.2400
26507SOL    HW183977   4.512   7.274   3.475 -0.9542 -0.4275 -2.4501
26507SOL    HW283978   4.397   7.364   3.517  0.0551 -0.1189 -0.1838
26508SOL     OW83979   0.815   8.355   7.457  0.1650  0.0628 -0.4478
26508SOL    HW183980   0.792   8.295   7.528  0.0712 -0.0624 -0.5824
26508SOL    HW283981   0.734   8.400   7.435  0.1616 -0.0017 -0.5708
26509SOL     OW83982   5.187   3.689   4.118 -0.1265  0.0865 -0.6842
26509SOL    HW183983   5.222   3.622   4.176 -0.9916 -0.0393 -0.2982
26509SOL    HW283984   5.107   3.719   4.161  1.7409  3.5966  0.7783
26510SOL     OW83985   4.000   0.573   0.720 -0.1302  0.0081  0.1556
26510SOL    HW183986   4.056   0.588   0.796  0.4629  0.2251 -0.3171
26510SOL    HW283987   3.925   0.631   0.734 -0.3944 -0.4974  0.9376
26511SOL     OW83988   0.880   8.147   5.271  0.0662 -0.4337  0.0182
26511SOL    HW183989   0.933   8.220   5.302  1.0616  0.0678 -2.6076
26511SOL    HW283990   0.937   8.099   5.211 -0.8715 -2.8624  0.9230
26512SOL     OW83991   6.611   8.231   1.738  0.0672  0.1340  0.1665
26512SOL    HW183992   6.603   8.168   1.667  0.8417 -0.1564  0.3340
26512SOL    HW283993   6.523   8.235   1.776 -0.6876  1.2283 -1.5665
26513SOL     OW83994   5.876   6.092  10.518 -0.2116  0.7413  0.2589
26513SOL    HW183995   5.875   6.092  10.422 -0.3647 -1.3910  0.2097
26513SOL    HW283996   5.795   6.137  10.543 -0.9325 -0.0158 -0.6404
26514SOL     OW83997   5.990   3.396   2.520  0.0210  0.1791  0.0440
26514SOL    HW183998   6.019   3.486   2.504 -0.5125  0.4391  0.5210
26514SOL    HW283999   5.894   3.400   2.518 -0.0100 -0.4107 -0.0851
26515SOL     OW84000   4.916   6.548   1.044 -0.2169 -0.1258  0.1387
26515SOL    HW184001   4.959   6.582   1.122  0.2938 -0.2221 -0.1024
26515SOL    HW284002   4.907   6.624   0.986 -0.9649  0.0323  0.4541
26516SOL     OW84003   9.852   5.779  10.692 -0.2795  0.4542 -0.4673
26516SOL    HW184004   9.798   5.707  10.659  0.2548 -0.4521  0.5447
26516SOL    HW284005   9.835   5.778  10.787 -0.5503  1.9207 -0.4872
26517SOL     OW84006   4.640   8.439   2.884 -0.5907  0.3630  0.4508
26517SOL    HW184007   4.562   8.461   2.934  0.1162  2.1460  0.8508
26517SOL    HW284008   4.686   8.522   2.873  0.8280 -0.4931 -0.5201
26518SOL     OW84009   9.853   3.245   3.162 -0.1453  0.0906 -0.1965
26518SOL    HW184010   9.929   3.281   3.209  1.7880 -3.4331 -0.2392
26518SOL    HW284011   9.885   3.233   3.072 -0.7799 -1.3002 -0.2510
26519SOL     OW84012   0.022   4.963   3.006  0.3002 -0.2214  0.3960
26519SOL    HW184013   0.102   5.015   3.007 -0.4376  1.0737  3.3632
26519SOL    HW284014   0.047   4.881   3.049  0.3111 -0.2867  0.2641
26520SOL     OW84015   6.088  10.953   8.117 -0.8038  0.5424 -0.5473
26520SOL    HW184016   6.055  11.015   8.182 -1.0885 -1.4530  1.3268
26520SOL    HW284017   6.010  10.906   8.086 -0.4699  0.3505 -1.1275
26521SOL     OW84018   9.901   0.689   2.789  0.2444 -1.0078 -0.3764
26521SOL    HW184019   9.826   0.748   2.794  1.7519  0.9077  1.4104
26521SOL    HW284020   9.917   0.677   2.696 -2.1840 -1.4177 -0.8055
26522SOL     OW84021   9.951   4.073   2.583  0.5924  0.5004 -0.5671
26522SOL    HW184022   9.909   4.033   2.507  0.4325 -0.0968 -0.1732
26522SOL    HW284023   9.908   4.157   2.593 -0.3833 -0.0277 -0.2806
26523SOL     OW84024   2.253   1.414   2.293 -0.4552 -0.3469 -0.0905
26523SOL    HW184025   2.247   1.456   2.379 -1.4662  0.9965 -0.7912
26523SOL    HW284026   2.279   1.324   2.313 -2.3404 -0.5646  1.7941
26524SOL     OW84027   3.221   5.467   1.157  0.0696  0.5044  0.2833
26524SOL    HW184028   3.158   5.528   1.195  2.7833  1.8566  3.0115
26524SOL    HW284029   3.252   5.511   1.078 -0.6424  0.9282  0.2311
26525SOL     OW84030   1.080  10.103   8.542 -0.2280  0.2626 -0.1788
26525SOL    HW184031   1.024  10.030   8.570 -0.4938  0.1748 -0.9191
26525SOL    HW284032   1.061  10.113   8.449 -0.2317  1.3113 -0.0721
26526SOL     OW84033   6.830   0.756   0.383  0.5581  0.1449  0.2032
26526SOL    HW184034   6.840   0.690   0.314 -0.6249 -0.8782  0.9735
26526SOL    HW284035   6.901   0.819   0.366  1.0753 -0.7589 -1.1705
26527SOL     OW84036   6.649   3.398   6.551 -0.1822 -0.1563  0.8326
26527SOL    HW184037   6.599   3.352   6.482  0.0461 -0.6930  1.0164
26527SOL    HW284038   6.593   3.393   6.628 -0.0751 -0.2976  0.9022
26528SOL     OW84039   1.417   9.575   5.957 -0.4630  0.2394  0.2736
26528SOL    HW184040   1.400   9.652   5.903 -0.2503  0.4137  0.4522
26528SOL    HW284041   1.404   9.605   6.047 -0.0582  0.1571  0.3645
26529SOL     OW84042   4.217   6.336   9.400  0.2323  0.5521  0.7394
26529SOL    HW184043   4.160   6.343   9.477 -0.7118  2.9035 -0.0958
26529SOL    HW284044   4.172   6.272   9.344 -0.8681  1.3212  0.7147
26530SOL     OW84045   3.639   6.366  10.785  0.2801 -0.6191  0.9227
26530SOL    HW184046   3.702   6.418  10.736 -1.7525 -0.4818 -1.7565
26530SOL    HW284047   3.665   6.275  10.769  0.8679 -0.5393  1.3954
26531SOL     OW84048   8.282   2.166   6.167  0.3530 -0.1906 -0.2394
26531SOL    HW184049   8.277   2.230   6.238  0.8203  0.1932 -0.5467
26531SOL    HW284050   8.270   2.081   6.210  1.2899 -0.0113  0.3892
26532SOL     OW84051   0.431   9.611   3.218  0.1788  0.0944 -0.4755
26532SOL    HW184052   0.430   9.561   3.136 -1.2865 -1.0058  0.1812
26532SOL    HW284053   0.363   9.678   3.205 -1.3990 -1.2640  0.5127
26533SOL     OW84054   2.338   5.203   5.964  0.2490  0.3826 -0.7724
26533SOL    HW184055   2.259   5.217   5.911  1.2907  1.7597 -2.0418
26533SOL    HW284056   2.395   5.150   5.908  0.0102 -1.1671  0.3959
26534SOL     OW84057  11.028   5.153   9.901 -0.5776 -0.0281  0.3625
26534SOL    HW184058  11.047   5.060   9.904 -2.2762 -0.4149  3.3946
26534SOL    HW284059  11.066   5.188   9.982 -2.5817  1.3043  0.7919
26535SOL     OW84060   7.392   2.157   4.592 -0.2660 -0.8044 -0.3225
26535SOL    HW184061   7.316   2.102   4.610 -1.2692  0.8704  0.8502
26535SOL    HW284062   7.367   2.207   4.514 -1.2887  1.1726  1.1669
26536SOL     OW84063   6.340   8.304   2.452  0.0034 -0.8429  0.1412
26536SOL    HW184064   6.420   8.337   2.412  0.4127 -0.8693  0.9232
26536SOL    HW284065   6.327   8.218   2.412  1.4794 -1.7213  1.4400
26537SOL     OW84066   2.435   9.232   7.944  0.0514 -0.3602  0.2995
26537SOL    HW184067   2.359   9.278   7.910 -0.1664 -1.0992 -0.2160
26537SOL    HW284068   2.415   9.218   8.037  1.4657  3.3889  1.3486
26538SOL     OW84069   9.600   8.071   6.404 -0.3235  0.1710  0.2021
26538SOL    HW184070   9.649   8.078   6.486  1.7411  1.1692 -1.0322
26538SOL    HW284071   9.529   8.134   6.413 -1.0794 -0.8585  1.8048
26539SOL     OW84072   3.026   7.614   9.627  0.2118  0.2605  0.4367
26539SOL    HW184073   3.002   7.681   9.564 -0.3732 -0.6702 -0.3637
26539SOL    HW284074   3.005   7.531   9.583  3.4701 -0.6250  0.2283
26540SOL     OW84075   2.891   8.125   2.398  0.4913 -0.4984 -0.2121
26540SOL    HW184076   2.947   8.048   2.389  1.4919 -0.1692  2.3407
26540SOL    HW284077   2.844   8.110   2.481  0.8530  1.6948  0.4424
26541SOL     OW84078   4.501   1.737   8.018 -0.4734  0.7474  0.2040
26541SOL    HW184079   4.590   1.771   8.023  0.3471 -1.1216 -0.7172
26541SOL    HW284080   4.478   1.716   8.108  0.0056  1.2541  0.4458
26542SOL     OW84081   9.565   5.271   0.956 -0.1567  0.0999 -0.3125
26542SOL    HW184082   9.547   5.365   0.951  0.9606  0.3312 -0.3559
26542SOL    HW284083   9.581   5.244   0.865 -2.0540 -0.4939 -0.5075
26543SOL     OW84084   1.122   0.931  10.741  0.0524  0.1092 -0.8164
26543SOL    HW184085   1.053   0.995  10.720 -0.2225 -0.4732 -1.7645
26543SOL    HW284086   1.191   0.983  10.782 -0.9656  0.6972  0.2193
26544SOL     OW84087  10.234   2.943  10.904 -0.0526  0.1691  0.0841
26544SOL    HW184088  10.308   2.953  10.964 -0.1024  0.3791  0.1090
26544SOL    HW284089  10.266   2.977  10.820 -0.3926  1.0106  0.2972
26545SOL     OW84090  10.587   4.812   3.035 -0.0422  0.2494  0.1252
26545SOL    HW184091  10.595   4.906   3.053  2.3740  0.8221 -3.0428
26545SOL    HW284092  10.534   4.808   2.955 -0.5080 -1.1435  0.4862
26546SOL     OW84093   5.192   0.457   7.924 -0.2790 -0.1383 -0.1598
26546SOL    HW184094   5.109   0.504   7.931  0.6893  1.5372  0.8733
26546SOL    HW284095   5.201   0.411   8.008  1.0374  1.9354  0.9422
26547SOL     OW84096   6.221  10.411   0.447 -0.1345 -0.0848 -0.3531
26547SOL    HW184097   6.163  10.478   0.410  1.9235  0.9610 -1.8710
26547SOL    HW284098   6.201  10.332   0.397 -2.8746 -0.8565  1.7239
26548SOL     OW84099   0.920   0.673  10.828  0.4663 -0.0584  0.2022
26548SOL    HW184100   0.853   0.741  10.817 -1.6326 -2.0235 -0.0302
26548SOL    HW284101   0.977   0.682  10.752  0.1749  1.3588  0.1276
26549SOL     OW84102   3.198   9.447   7.820 -0.2536 -0.0784 -0.7287
26549SOL    HW184103   3.210   9.531   7.865 -0.3627 -0.7562  0.6373
26549SOL    HW284104   3.272   9.441   7.760 -0.7930  1.4328 -1.5813
26550SOL     OW84105   8.622   0.048   1.273 -0.3969 -0.0902 -0.6916
26550SOL    HW184106   8.643   0.018   1.362 -3.0413 -0.7515 -0.2043
26550SOL    HW284107   8.614   0.143   1.281 -0.3171 -0.1165 -0.2687
26551SOL     OW84108   8.495   3.587   3.938  0.2208  0.5998 -0.1885
26551SOL    HW184109   8.415   3.542   3.911 -0.2078  0.8403  0.6772
26551SOL    HW284110   8.466   3.670   3.974  0.7614  0.2635  1.0849
26552SOL     OW84111   0.098   8.850   1.419  0.1515 -0.6204 -0.3677
26552SOL    HW184112   0.090   8.912   1.491  1.5084 -0.1274 -0.6073
26552SOL    HW284113   0.166   8.788   1.447  0.7978 -0.3368 -1.2571
26553SOL     OW84114   5.092   4.842   0.449  0.3001 -0.2050 -0.4804
26553SOL    HW184115   5.020   4.787   0.479  0.8979 -0.3187  0.8098
26553SOL    HW284116   5.074   4.928   0.487  0.4840 -0.0523 -0.7319
26554SOL     OW84117   5.867   0.025   5.977  0.0796  0.0014  0.6537
26554SOL    HW184118   5.904  -0.056   5.941  0.1095  0.6610 -0.8325
26554SOL    HW284119   5.777   0.002   6.000 -0.1041 -0.3032 -0.3298
26555SOL     OW84120  11.046   2.774   8.563  0.9478 -0.1580  0.2334
26555SOL    HW184121  11.061   2.800   8.472 -2.1509 -1.4481 -0.7858
26555SOL    HW284122  11.103   2.699   8.575  0.6667 -0.6135 -1.0386
26556SOL     OW84123   3.225   5.137   0.853  0.1244 -0.2105 -0.0731
26556SOL    HW184124   3.183   5.052   0.842 -0.7620  0.4284 -1.9210
26556SOL    HW284125   3.156   5.194   0.888 -0.4837  0.6821 -2.5294
26557SOL     OW84126   9.890   7.713   2.879 -0.4446  0.1492  0.0556
26557SOL    HW184127   9.899   7.704   2.784 -1.4747  0.4258 -0.0753
26557SOL    HW284128   9.980   7.713   2.911 -0.0846 -1.8111 -0.7450
26558SOL     OW84129   3.749   4.559   4.946  0.6149 -0.4107 -0.0764
26558SOL    HW184130   3.726   4.595   5.032  0.5277 -0.8867  0.1050
26558SOL    HW284131   3.831   4.512   4.962  1.6858  1.1548 -0.6789
26559SOL     OW84132   7.476   7.200   8.073 -0.1467  0.3570  0.5157
26559SOL    HW184133   7.512   7.246   7.997 -1.0454 -1.2241 -0.9351
26559SOL    HW284134   7.517   7.243   8.149  0.0611  2.5968 -0.7893
26560SOL     OW84135   2.700   8.242   3.153 -0.4058  0.3618 -0.4164
26560SOL    HW184136   2.618   8.291   3.159 -1.0761 -0.8961  1.4630
26560SOL    HW284137   2.688   8.167   3.211  0.4864 -2.2515 -3.3634
26561SOL     OW84138   7.254   7.545   4.328  0.0275  0.8054 -0.0394
26561SOL    HW184139   7.163   7.525   4.348  0.3926 -1.4514 -0.3689
26561SOL    HW284140   7.252   7.590   4.244 -0.6909 -0.9040 -0.9708
26562SOL     OW84141   6.920   4.149   5.266 -0.8884 -0.4855  0.0997
26562SOL    HW184142   6.947   4.142   5.358 -0.3406 -0.9835 -0.0973
26562SOL    HW284143   6.926   4.243   5.248 -1.4934 -0.3159  0.7151
26563SOL     OW84144   4.262   6.004   9.431 -0.4148  0.4517  0.1341
26563SOL    HW184145   4.330   6.069   9.446 -1.0623  0.7764  2.0274
26563SOL    HW284146   4.241   5.971   9.519 -0.8493 -1.5461 -0.6664
26564SOL     OW84147   7.480   0.386   8.785  0.2913 -0.0609 -0.4154
26564SOL    HW184148   7.561   0.378   8.734 -0.4794  0.5797 -1.7783
26564SOL    HW284149   7.493   0.465   8.837  1.6696 -1.4883  1.5521
26565SOL     OW84150   8.916   0.256  10.622  0.0700  0.5062  0.2844
26565SOL    HW184151   8.916   0.247  10.527  1.4966  0.3824  0.2699
26565SOL    HW284152   9.001   0.295  10.642 -0.5072  1.2309  1.4572
26566SOL     OW84153   3.700  10.044   7.850 -0.4987 -0.0058 -0.5364
26566SOL    HW184154   3.766  10.110   7.872 -1.7469  1.0799  0.1048
26566SOL    HW284155   3.704  10.036   7.755  0.3452  0.2742 -0.5272
26567SOL     OW84156   1.572   1.419   6.130  0.0385 -0.7169 -0.5912
26567SOL    HW184157   1.537   1.391   6.045 -0.0576 -0.7147 -0.5520
26567SOL    HW284158   1.503   1.400   6.192 -0.2977  0.2361 -0.6576
26568SOL     OW84159   8.689   1.301   3.785 -0.3154  0.0973 -0.2048
26568SOL    HW184160   8.666   1.344   3.868  0.2861 -1.1663  0.6516
26568SOL    HW284161   8.676   1.369   3.719 -2.9052  0.5240  0.6353
26569SOL     OW84162   8.378   1.399   7.898 -0.3946  0.5567 -0.4282
26569SOL    HW184163   8.304   1.410   7.957  0.4334  1.5631  0.4823
26569SOL    HW284164   8.362   1.462   7.828 -1.3262 -0.5649 -1.2502
26570SOL     OW84165  10.211   2.816   9.362 -0.5063  0.3789 -0.0238
26570SOL    HW184166  10.285   2.772   9.403 -0.7913 -0.8731 -0.7913
26570SOL    HW284167  10.164   2.856   9.435  0.6260  0.7553  0.5296
26571SOL     OW84168   5.319   5.275   1.211 -0.1162 -0.5253  0.4576
26571SOL    HW184169   5.355   5.364   1.206 -0.5077 -0.4166 -1.1902
26571SOL    HW284170   5.344   5.243   1.297  2.3862  0.1790  0.0483
26572SOL     OW84171   2.438   4.874   4.578 -0.2063 -0.2149  0.5050
26572SOL    HW184172   2.519   4.924   4.576  1.3087 -2.4629 -1.8386
26572SOL    HW284173   2.368   4.939   4.572  1.4290  1.7386  1.7116
26573SOL     OW84174   4.886   7.902   1.628  0.6644  0.2653 -0.1238
26573SOL    HW184175   4.886   7.998   1.623 -0.2574  0.3018  0.2704
26573SOL    HW284176   4.917   7.883   1.716 -0.3574  0.2639  0.2575
26574SOL     OW84177   9.177   7.924   0.703 -1.3703 -0.9114 -0.9487
26574SOL    HW184178   9.267   7.901   0.724 -1.7059 -1.0382  0.4388
26574SOL    HW284179   9.172   8.018   0.716 -1.2658 -0.7836 -1.7574
26575SOL     OW84180   5.435   0.293   1.013  0.0338  0.1085 -0.3037
26575SOL    HW184181   5.468   0.380   1.035  0.9170 -0.2406 -0.2025
26575SOL    HW284182   5.419   0.252   1.098 -0.8538  0.3403 -0.3538
26576SOL     OW84183   9.913   6.363   6.352  0.1192 -0.0915  0.0105
26576SOL    HW184184   9.875   6.424   6.288  1.5677  1.0627  0.1923
26576SOL    HW284185   9.958   6.298   6.299  0.4861  0.3052 -0.1764
26577SOL     OW84186   4.199   5.217   1.791  0.3837  0.2063 -0.0338
26577SOL    HW184187   4.288   5.209   1.827 -0.6906 -1.0354  2.6879
26577SOL    HW284188   4.190   5.310   1.769  2.3065  0.3719 -0.3097
26578SOL     OW84189   6.878   3.008   5.398  0.2082  0.3500 -0.3048
26578SOL    HW184190   6.871   2.915   5.417 -1.3310  0.5600  0.2778
26578SOL    HW284191   6.840   3.051   5.474  1.1251  1.4722 -0.4547
26579SOL     OW84192   2.724  10.061   6.392 -0.1186 -0.1015  1.0317
26579SOL    HW184193   2.804  10.010   6.378 -0.9245 -1.2586  0.4447
26579SOL    HW284194   2.752  10.138   6.441  1.1412 -1.1493  2.0104
26580SOL     OW84195  10.057   2.466   8.421  0.2454  0.0672  0.5492
26580SOL    HW184196  10.087   2.553   8.396 -0.4431  0.0594 -0.3681
26580SOL    HW284197  10.100   2.449   8.505  3.3673 -0.2337 -0.9585
26581SOL     OW84198   5.647   6.657   3.698  0.0524  0.0270 -0.3674
26581SOL    HW184199   5.575   6.635   3.757  0.3530  0.0603  0.0128
26581SOL    HW284200   5.654   6.581   3.640  1.2019 -1.0109  1.0555
26582SOL     OW84201   1.366   3.775   8.356 -0.0595 -0.2975  0.3090
26582SOL    HW184202   1.325   3.847   8.404  0.4490  0.5163 -0.4381
26582SOL    HW284203   1.299   3.707   8.352 -1.3144  0.9318 -0.7380
26583SOL     OW84204   7.153   3.630   5.236 -0.3221 -0.3262  0.5538
26583SOL    HW184205   7.146   3.535   5.250 -0.1034 -0.3805  0.3125
26583SOL    HW284206   7.063   3.660   5.231 -0.4522 -0.2029  2.6683
26584SOL     OW84207   1.960   9.484   3.483  0.0128 -0.4617  0.6854
26584SOL    HW184208   1.883   9.520   3.439  0.3526 -1.8561 -1.1772
26584SOL    HW284209   2.000   9.559   3.527  0.6718  1.5694 -2.9491
26585SOL     OW84210   2.245   5.977   0.379  0.5219 -0.2946  0.0281
26585SOL    HW184211   2.169   5.930   0.345  0.5615  0.6837 -1.5540
26585SOL    HW284212   2.311   5.968   0.310  1.5364 -0.3681  0.9816
26586SOL     OW84213  10.343  10.344   5.832  0.2087 -0.4419  1.1334
26586SOL    HW184214  10.403  10.371   5.763 -1.4099  3.0681  0.8809
26586SOL    HW284215  10.327  10.250   5.816  0.8650 -0.0581 -2.4761
26587SOL     OW84216   0.700   8.995   2.865 -0.0790  0.4511  0.0324
26587SOL    HW184217   0.662   8.926   2.920  0.1667  0.1101 -0.2214
26587SOL    HW284218   0.777   8.954   2.825  0.2420  0.9673  0.1163
26588SOL     OW84219   8.379   7.858   1.583 -0.3312  0.3041  0.2341
26588SOL    HW184220   8.370   7.896   1.496 -0.9819  1.2779  0.7023
26588SOL    HW284221   8.459   7.804   1.578  1.3865  2.7060 -0.1460
26589SOL     OW84222   3.289  10.108   5.203 -0.3106 -0.5014  0.1429
26589SOL    HW184223   3.240  10.186   5.228  0.5952  0.0939  0.1000
26589SOL    HW284224   3.239  10.071   5.130 -1.2451 -0.4854  0.7694
26590SOL     OW84225   7.834   4.377  10.521  0.6476 -0.9171 -0.0603
26590SOL    HW184226   7.763   4.321  10.489  1.3543 -1.5555 -0.5541
26590SOL    HW284227   7.911   4.321  10.520  0.9201 -0.6221  1.7392
26591SOL     OW84228   7.771   0.754   9.594 -0.2945 -0.0362 -0.7377
26591SOL    HW184229   7.759   0.743   9.688 -0.6458  0.5435 -0.7056
26591SOL    HW284230   7.755   0.847   9.579 -2.2441 -0.4758 -1.6572
26592SOL     OW84231   7.887   1.065   6.469  0.0807 -0.3230  0.1276
26592SOL    HW184232   7.847   1.021   6.544  0.8537 -0.7045  0.3234
26592SOL    HW284233   7.816   1.073   6.406 -0.5552 -0.0982  0.8511
26593SOL     OW84234   3.192   8.815   3.746  0.2750 -0.0212 -0.3653
26593SOL    HW184235   3.192   8.880   3.816  2.6434  0.1495 -0.4371
26593SOL    HW284236   3.199   8.866   3.666  1.2557 -0.3036 -0.4747
26594SOL     OW84237  10.702   3.615   2.322 -0.0980 -0.5101  0.3806
26594SOL    HW184238  10.648   3.583   2.395 -0.4389  0.7293  0.7064
26594SOL    HW284239  10.718   3.538   2.268 -2.1189 -0.9415  0.3300
26595SOL     OW84240  10.741   8.559   1.359  0.2675  0.0748  0.4126
26595SOL    HW184241  10.796   8.631   1.390  0.3004  0.1578  0.1622
26595SOL    HW284242  10.674   8.602   1.305 -1.3528  0.2471  2.4337
26596SOL     OW84243   3.647   3.864   3.929 -0.2997  0.2120  0.0721
26596SOL    HW184244   3.560   3.846   3.962 -1.0809  0.1018 -1.8992
26596SOL    HW284245   3.656   3.807   3.852  1.0204  1.1110 -0.4868
26597SOL     OW84246   8.759   5.127   7.290  0.0720 -0.4179  0.0489
26597SOL    HW184247   8.702   5.174   7.351  0.6837 -0.4771  0.6796
26597SOL    HW284248   8.816   5.195   7.254  0.1846 -0.4965  0.0800
26598SOL     OW84249   4.041   5.040   2.771 -0.4971 -0.1515 -0.1315
26598SOL    HW184250   4.120   5.057   2.822 -0.2455  0.1246 -0.6057
26598SOL    HW284251   3.990   4.980   2.825  0.4506 -1.0669 -0.2352
26599SOL     OW84252   5.087   0.739  10.016 -0.1628  0.4429  0.9444
26599SOL    HW184253   5.147   0.712  10.086  1.7917 -1.2466 -1.2225
26599SOL    HW284254   5.091   0.667   9.952 -1.4565  2.1103 -1.1527
26600SOL     OW84255   7.437   4.941   0.073  0.3692 -0.2203  0.0127
26600SOL    HW184256   7.410   4.851   0.054 -0.1958 -0.6846  2.6009
26600SOL    HW284257   7.373   4.972   0.136  3.0112  0.4032  2.5930
26601SOL     OW84258   1.637   7.744  10.302  0.4606  0.1775 -0.0097
26601SOL    HW184259   1.720   7.790  10.287  0.8371 -0.1018  1.0992
26601SOL    HW284260   1.662   7.652  10.310  0.0010  0.0537  0.0228
26602SOL     OW84261   6.878  10.956  10.928 -0.2151  0.8396 -0.1342
26602SOL    HW184262   6.960  10.923  10.966  0.2827  0.5385 -1.4277
26602SOL    HW284263   6.853  10.889  10.864  0.0152  2.2701 -1.7530
26603SOL     OW84264   3.372   9.487   3.422 -0.2989 -0.0888  0.4036
26603SOL    HW184265   3.292   9.460   3.376 -0.6278 -0.9668  1.4515
26603SOL    HW284266   3.440   9.486   3.355 -1.3056  1.5421 -0.7203
26604SOL     OW84267  10.635   2.620   5.676 -0.1191 -0.2264  0.0580
26604SOL    HW184268  10.583   2.541   5.687 -0.2962 -0.0638  0.3917
26604SOL    HW284269  10.595   2.684   5.735 -2.2108  1.2061 -2.6654
26605SOL     OW84270   7.693   6.939   3.187  0.2248  0.3522 -0.8565
26605SOL    HW184271   7.730   7.004   3.127  1.6332 -0.2859 -0.7318
26605SOL    HW284272   7.610   6.913   3.148 -0.7475  2.7471 -0.5342
26606SOL     OW84273   7.431   9.426   7.314  0.0501  0.1464 -0.2662
26606SOL    HW184274   7.455   9.409   7.405 -0.3155 -0.3690 -0.2566
26606SOL    HW284275   7.476   9.507   7.291  0.9374 -0.2279  0.0734
26607SOL     OW84276   2.656   8.836   5.907 -0.0390 -0.6371 -0.6427
26607SOL    HW184277   2.593   8.823   5.836 -0.9381 -2.0524  0.3400
26607SOL    HW284278   2.601   8.852   5.984  0.8519 -0.5010 -0.0238
26608SOL     OW84279   2.589   8.458   2.898  0.0248  0.1866  0.2269
26608SOL    HW184280   2.548   8.491   2.818 -0.6253 -0.2649  0.3599
26608SOL    HW284281   2.667   8.511   2.910  0.0996  0.2822 -0.6853
26609SOL     OW84282   1.745   7.415   3.358 -0.2478  0.1874 -0.0444
26609SOL    HW184283   1.716   7.324   3.357  0.6089 -0.0944  0.0908
26609SOL    HW284284   1.719   7.450   3.273  1.7084 -0.9336 -1.1772
26610SOL     OW84285   4.458   1.467   2.005  0.1948  0.6688  0.2507
26610SOL    HW184286   4.511   1.545   2.021  0.7706  0.3468 -0.0420
26610SOL    HW284287   4.465   1.416   2.085  0.5745  0.4871  0.1027
26611SOL     OW84288   4.782   5.230   0.597 -0.1143  0.3246 -0.1554
26611SOL    HW184289   4.805   5.306   0.543 -0.3439 -0.5778 -1.5828
26611SOL    HW284290   4.862   5.179   0.602  0.3373  1.1344  1.6952
26612SOL     OW84291   8.025   2.236   3.738 -0.7257  0.8888  0.4193
26612SOL    HW184292   8.063   2.304   3.682  0.2078  1.0316  1.2073
26612SOL    HW284293   8.037   2.155   3.688 -2.6903  1.3654 -0.9526
26613SOL     OW84294   2.147  10.891   6.677 -0.2404 -0.3611 -0.1537
26613SOL    HW184295   2.200  10.960   6.716  2.2187 -2.3646  0.3511
26613SOL    HW284296   2.115  10.928   6.595 -0.1588  1.7767  0.7250
26614SOL     OW84297   6.200   1.369   4.257  1.1615 -0.1315 -0.1238
26614SOL    HW184298   6.267   1.337   4.197  1.5960  0.8574 -0.1964
26614SOL    HW284299   6.245   1.436   4.309  0.2207  0.6175 -0.2369
26615SOL     OW84300   0.895   0.158   5.962  0.3527 -0.1334  0.3485
26615SOL    HW184301   0.943   0.075   5.972  1.1896  0.4712  1.6883
26615SOL    HW284302   0.804   0.132   5.948  0.9963 -1.3115 -2.1042
26616SOL     OW84303   1.430   5.802   2.830  0.1755 -0.0810  0.0911
26616SOL    HW184304   1.377   5.870   2.872  1.0491  0.1185  0.8936
26616SOL    HW284305   1.432   5.828   2.737 -1.8727 -0.6042 -0.1466
26617SOL     OW84306   8.838   8.820   9.238  0.4985 -0.7776  0.1673
26617SOL    HW184307   8.773   8.825   9.308  1.3341 -0.6959  0.9541
26617SOL    HW284308   8.790   8.784   9.163 -0.1412 -1.9606  1.1138
26618SOL     OW84309  10.424   7.517   0.189  0.8501 -0.2230  0.0415
26618SOL    HW184310  10.399   7.424   0.192  1.4752 -0.4474 -1.1042
26618SOL    HW284311  10.387   7.548   0.106  1.7962  0.1975 -0.2295
26619SOL     OW84312   7.175   2.933   2.915  0.5946  0.3248  0.2434
26619SOL    HW184313   7.225   2.893   2.986 -0.4384  0.6684  1.1956
26619SOL    HW284314   7.118   2.997   2.959 -0.9786 -0.3416 -0.7379
26620SOL     OW84315   9.557  10.062   6.723  0.5521 -0.0411 -0.4724
26620SOL    HW184316   9.570  10.148   6.764 -1.2364 -0.0057  0.1006
26620SOL    HW284317   9.573  10.078   6.629 -2.1954  1.5744 -0.7773
26621SOL     OW84318   5.219   3.888   9.179  0.0725 -0.0138  0.8477
26621SOL    HW184319   5.212   3.942   9.100 -1.6043  2.3089  2.4556
26621SOL    HW284320   5.163   3.812   9.162 -0.6948  0.7243  0.0009
26622SOL     OW84321   4.611   1.346   2.282  0.4078  0.0808 -0.0416
26622SOL    HW184322   4.618   1.251   2.269 -0.8845  0.2824 -3.2359
26622SOL    HW284323   4.548   1.355   2.354  0.1669 -1.4944 -0.0069
26623SOL     OW84324   1.439   6.120   0.683  0.2398  0.6614 -0.1130
26623SOL    HW184325   1.431   6.208   0.719 -0.1800  1.0403 -1.0953
26623SOL    HW284326   1.490   6.072   0.748 -1.5694  0.9527  1.6389
26624SOL     OW84327   1.063   3.210   2.353 -0.0694 -0.3145 -0.4165
26624SOL    HW184328   1.140   3.256   2.386 -1.7096  2.0145  0.4423
26624SOL    HW284329   1.087   3.117   2.356  2.6567  0.3182 -0.1844
26625SOL     OW84330   4.250   4.377   5.227  0.5818  0.0214 -0.5402
26625SOL    HW184331   4.264   4.365   5.321 -0.0840 -1.4024 -0.5952
26625SOL    HW284332   4.269   4.470   5.211  2.8642 -0.1736  0.5890
26626SOL     OW84333   5.708   5.410   6.014  0.6806 -0.7309 -0.6335
26626SOL    HW184334   5.776   5.414   5.946  1.5747 -1.2966  0.2024
26626SOL    HW284335   5.658   5.490   6.002  1.3468 -0.4082 -1.4221
26627SOL     OW84336   9.657   4.511  10.889 -0.0872 -0.5824 -0.6202
26627SOL    HW184337   9.680   4.542  10.802 -0.1802 -0.5873 -0.6470
26627SOL    HW284338   9.595   4.576  10.922  1.2904  0.4004  0.1497
26628SOL     OW84339   8.298   8.111   3.537 -0.2637  0.0713 -0.6119
26628SOL    HW184340   8.274   8.069   3.620 -0.1291 -1.6617 -1.4102
26628SOL    HW284341   8.350   8.045   3.491  0.3811  1.3109 -1.7345
26629SOL     OW84342   0.276   4.726   5.935  0.1028 -0.0283 -0.2038
26629SOL    HW184343   0.365   4.751   5.912  0.7247 -0.6194  1.4006
26629SOL    HW284344   0.229   4.809   5.944  0.5289  0.2921 -0.8761
26630SOL     OW84345   9.635   6.945   5.468 -0.2764 -0.0070  0.0089
26630SOL    HW184346   9.632   6.885   5.542  2.0808  1.7886  1.7017
26630SOL    HW284347   9.591   7.023   5.498  2.3296  1.4528  0.3507
26631SOL     OW84348   8.032   2.297   6.845  0.6214 -0.1367 -0.4102
26631SOL    HW184349   7.943   2.265   6.859  1.2440 -2.0309 -0.5390
26631SOL    HW284350   8.083   2.219   6.822  2.5167  0.7271  0.5977
26632SOL     OW84351   1.859   7.507   4.802 -0.5548 -0.1109 -0.3627
26632SOL    HW184352   1.794   7.530   4.736  0.1008 -0.1250 -1.0232
26632SOL    HW284353   1.808   7.463   4.870 -1.3925  0.7868 -0.3794
26633SOL     OW84354   7.396   5.129   9.391  0.2501 -0.1873 -0.3896
26633SOL    HW184355   7.446   5.158   9.467 -1.0840  0.3048  0.3381
26633SOL    HW284356   7.307   5.161   9.407  0.1474  0.9477 -2.7082
26634SOL     OW84357   5.282   7.010   1.998 -0.2741  0.4749 -0.4935
26634SOL    HW184358   5.272   7.101   2.023  1.5842  0.9299 -1.2564
26634SOL    HW284359   5.295   7.012   1.903  1.1124 -0.4220 -0.3590
26635SOL     OW84360   8.216   1.656  10.127  0.2847  0.1766  0.0200
26635SOL    HW184361   8.231   1.572  10.083 -3.0412 -1.7429  2.0679
26635SOL    HW284362   8.172   1.710  10.062  1.6603  0.0806 -1.0449
26636SOL     OW84363   7.896   2.436  10.536  0.3854 -0.3316  0.3897
26636SOL    HW184364   7.835   2.384  10.589  0.9585 -2.3910 -0.8308
26636SOL    HW284365   7.913   2.381  10.459  1.1553  1.6620 -0.9458
26637SOL     OW84366   8.248   9.555   9.833 -0.1376 -0.8650 -0.1140
26637SOL    HW184367   8.200   9.549   9.750  0.9402  1.7896 -1.0391
26637SOL    HW284368   8.321   9.494   9.824 -1.3027 -2.2965 -0.1370
26638SOL     OW84369   4.831   7.944   5.624 -0.2039  0.3031 -0.4468
26638SOL    HW184370   4.808   7.927   5.716  0.6153  0.4497 -0.2032
26638SOL    HW284371   4.926   7.955   5.625 -0.3002  1.2878 -1.1682
26639SOL     OW84372   1.612   8.595   4.253 -0.2591  0.6083 -0.0582
26639SOL    HW184373   1.701   8.560   4.249 -0.8585 -0.9091 -1.4146
26639SOL    HW284374   1.585   8.582   4.344  0.0102 -1.3928 -0.2194
26640SOL     OW84375   5.059  10.529  10.735  0.2780  0.2925 -0.4755
26640SOL    HW184376   4.963  10.521  10.732  0.3361 -0.3068 -2.1503
26640SOL    HW284377   5.075  10.621  10.756 -0.6190  0.0541  1.5101
26641SOL     OW84378   1.764   6.554   0.986 -0.1376 -0.3401  0.2790
26641SOL    HW184379   1.837   6.498   0.960  0.0509 -0.0482  0.1775
26641SOL    HW284380   1.796   6.601   1.063 -0.3865 -0.5582  0.5206
26642SOL     OW84381   8.488   6.932   4.246  0.4453  0.2017  0.8411
26642SOL    HW184382   8.489   6.979   4.162 -1.1309 -0.4344  0.4299
26642SOL    HW284383   8.407   6.959   4.288  1.0928  0.3081  2.0781
26643SOL     OW84384   4.059   9.239   5.033  0.1662  0.0827 -0.0621
26643SOL    HW184385   3.997   9.210   4.967 -0.2540 -1.4585  0.9625
26643SOL    HW284386   4.004   9.263   5.108  0.7223  0.3822  0.2576
26644SOL     OW84387   1.038   0.912   4.052  0.3714  0.2623  0.6439
26644SOL    HW184388   1.040   0.931   4.146  1.2254  0.2626  0.6309
26644SOL    HW284389   0.984   0.982   4.014  0.8193  0.8196  1.0152
26645SOL     OW84390   5.247   7.923   0.862 -0.3059 -0.3401  0.2180
26645SOL    HW184391   5.192   7.876   0.925  1.2208 -2.4190  0.1227
26645SOL    HW284392   5.318   7.861   0.842  2.2205  2.2647  0.5176
26646SOL     OW84393   7.298   1.139   1.063  0.1338 -0.1528 -0.5168
26646SOL    HW184394   7.344   1.116   1.144  0.6687 -0.4467 -0.9006
26646SOL    HW284395   7.205   1.134   1.086  0.2836  0.2210  0.2033
26647SOL     OW84396   6.929   0.334   4.370  0.3021  0.1279 -0.2907
26647SOL    HW184397   6.995   0.303   4.308  0.3813 -1.2676  0.4528
26647SOL    HW284398   6.976   0.397   4.425 -0.0741  2.3881 -2.3489
26648SOL     OW84399   5.001  10.317   8.427  0.3720  0.4065  0.0944
26648SOL    HW184400   4.996  10.230   8.387  1.6019  1.1370 -1.8087
26648SOL    HW284401   5.084  10.315   8.476  0.3036  0.4393  0.2103
26649SOL     OW84402   2.981   3.063  10.767  0.0474  0.3733 -0.3611
26649SOL    HW184403   3.004   3.150  10.736  0.7241 -0.2120 -1.5795
26649SOL    HW284404   2.889   3.070  10.793  0.5873  1.9077  1.3829
26650SOL     OW84405   8.499   3.539   2.318  0.7935  0.1312 -0.0086
26650SOL    HW184406   8.572   3.540   2.257  1.4254  0.2156  0.7371
26650SOL    HW284407   8.421   3.532   2.262  1.3839 -0.3891 -0.7899
26651SOL     OW84408   2.083   6.399   0.964 -0.1705 -0.1795 -0.3727
26651SOL    HW184409   2.155   6.460   0.946 -0.1809 -0.7659 -2.6552
26651SOL    HW284410   2.068   6.407   1.058  2.2847  0.6202  0.0158
26652SOL     OW84411  10.019   6.390   0.829  0.3102 -1.5175 -0.5619
26652SOL    HW184412  10.094   6.447   0.815  0.3283 -1.7514 -1.4490
26652SOL    HW284413  10.021   6.370   0.923  0.0030  0.3423 -0.1229
26653SOL     OW84414   1.978   4.141   8.843 -0.1085  0.1939 -0.6537
26653SOL    HW184415   2.020   4.092   8.913 -0.9262 -0.7888 -0.8219
26653SOL    HW284416   2.018   4.108   8.763  0.5301  1.0155 -0.6779
26654SOL     OW84417   5.678   0.625   3.834 -0.0380  0.2005  0.1900
26654SOL    HW184418   5.602   0.590   3.788 -0.4096  0.5937  0.4965
26654SOL    HW284419   5.725   0.548   3.866  0.5202 -0.1088 -1.2873
26655SOL     OW84420   8.159   2.035   5.836  0.2753  0.5499  1.0549
26655SOL    HW184421   8.070   2.006   5.857  0.6114 -0.7988  0.6886
26655SOL    HW284422   8.161   2.127   5.864 -1.2235  0.6020  1.0749
26656SOL     OW84423   0.671   5.410   3.840 -0.2218 -0.1778 -0.4909
26656SOL    HW184424   0.576   5.409   3.837 -0.2230 -0.0434 -0.5270
26656SOL    HW284425   0.695   5.496   3.805 -0.0807 -0.2904 -0.6755
26657SOL     OW84426   0.638  10.803   1.603 -0.4768 -0.6801 -0.1421
26657SOL    HW184427   0.571  10.750   1.646 -1.4986  0.6170 -0.0763
26657SOL    HW284428   0.601  10.826   1.518  0.1327 -0.4251 -0.3493
26658SOL     OW84429   0.406   1.966   4.432  0.1158  0.2314  0.0506
26658SOL    HW184430   0.349   2.043   4.443  1.1126  0.9365  0.3808
26658SOL    HW284431   0.479   1.998   4.379  0.7372 -0.3755  0.5235
26659SOL     OW84432   1.155   9.909   5.969  0.7526 -0.0832  0.0361
26659SOL    HW184433   1.135   9.837   6.028  0.1264  0.5268  0.5912
26659SOL    HW284434   1.130   9.877   5.882 -0.2817 -0.2472  0.3838
26660SOL     OW84435   8.630   7.995  10.105  0.2890  0.1048 -0.5361
26660SOL    HW184436   8.647   7.902  10.120 -2.2270 -0.4963 -0.9743
26660SOL    HW284437   8.596   7.999  10.015  1.1671  1.5787 -0.8307
26661SOL     OW84438   6.264   3.234   7.478 -0.5640 -0.0094  0.2590
26661SOL    HW184439   6.247   3.303   7.414  0.3996  0.7145  0.7560
26661SOL    HW284440   6.181   3.222   7.524 -0.6270  1.1142  0.4434
26662SOL     OW84441  10.960   6.181  11.025  0.0405  0.0296  0.4592
26662SOL    HW184442  10.881   6.141  10.988  0.2871 -1.0593  1.0826
26662SOL    HW284443  10.978   6.255  10.968 -0.9611 -0.1982 -0.1772
26663SOL     OW84444   9.469   6.598   8.832 -0.1326  0.2077 -0.2109
26663SOL    HW184445   9.414   6.551   8.768 -0.1191  1.7385 -1.4010
26663SOL    HW284446   9.558   6.587   8.800 -0.2609  2.4304 -1.5210
26664SOL     OW84447   3.696   1.408   8.950 -0.1886 -0.2531  0.7226
26664SOL    HW184448   3.655   1.382   8.868 -0.4736  0.1600  0.7336
26664SOL    HW284449   3.778   1.358   8.953  0.7879  1.1664 -0.7477
26665SOL     OW84450   3.468   3.498   2.271  0.1270 -0.0180 -0.2304
26665SOL    HW184451   3.538   3.434   2.282 -0.0366 -0.0684  0.5286
26665SOL    HW284452   3.492   3.546   2.192  1.7964  0.9753  0.8335
26666SOL     OW84453   9.694   7.446   5.525 -0.1670 -0.5820 -0.7620
26666SOL    HW184454   9.664   7.489   5.444  0.2481  0.7093 -0.2522
26666SOL    HW284455   9.652   7.495   5.595  0.3296 -1.0186 -0.1465
26667SOL     OW84456   7.907   2.807   5.639 -0.0107 -0.1272 -0.6119
26667SOL    HW184457   8.001   2.824   5.625 -0.1206 -0.0887 -1.3328
26667SOL    HW284458   7.904   2.750   5.716  0.5769  0.2681 -0.2879
26668SOL     OW84459   2.160   9.813   4.544  0.4049  0.0901 -0.5051
26668SOL    HW184460   2.160   9.905   4.571 -1.4849  0.1146 -0.4915
26668SOL    HW284461   2.158   9.816   4.448  1.1301  0.0468 -0.5255
26669SOL     OW84462   5.609   4.216  10.412 -0.0617  0.3768 -0.5320
26669SOL    HW184463   5.676   4.177  10.468 -1.5579 -0.5049  0.7554
26669SOL    HW284464   5.530   4.166  10.432 -1.1472  1.4794 -1.8649
26670SOL     OW84465   2.462   2.617   9.101 -0.0893 -0.1339 -0.0407
26670SOL    HW184466   2.478   2.645   9.191  1.3717 -0.8673 -0.0300
26670SOL    HW284467   2.468   2.697   9.049  1.6908 -0.0351  0.2477
26671SOL     OW84468   1.337   0.663   6.354  0.8300  0.3986 -0.0149
26671SOL    HW184469   1.247   0.631   6.360  1.0796 -0.3950 -0.3868
26671SOL    HW284470   1.335   0.747   6.399 -0.3073  0.8129 -0.7814
26672SOL     OW84471   3.632   1.440   9.229  0.1244 -0.0808  0.2314
26672SOL    HW184472   3.639   1.490   9.310  0.5549  0.4606 -0.1263
26672SOL    HW284473   3.700   1.477   9.173 -1.2425  0.7039 -0.9851
26673SOL     OW84474   3.889   2.115   5.216  0.0064  0.6301 -0.0937
26673SOL    HW184475   3.842   2.195   5.191 -0.9633 -0.1926 -1.0109
26673SOL    HW284476   3.870   2.053   5.145  1.1765 -0.2497  0.3287
26674SOL     OW84477   7.601   6.031   1.320  0.2820  0.0003 -0.0204
26674SOL    HW184478   7.539   6.035   1.247  0.0909  0.3394  0.1607
26674SOL    HW284479   7.618   6.122   1.342 -1.0363 -0.0766  1.5382
26675SOL     OW84480   6.919   4.512   5.935  0.2792 -0.1113 -0.1986
26675SOL    HW184481   6.867   4.575   5.985 -1.3395 -2.9271  2.0144
26675SOL    HW284482   7.010   4.542   5.945 -0.2255  0.8195  2.4791
26676SOL     OW84483   1.917   8.717   3.863 -0.2344 -0.1876 -0.0561
26676SOL    HW184484   1.898   8.626   3.840 -0.3679  0.3084 -2.0459
26676SOL    HW284485   1.992   8.740   3.809 -1.4871  1.4891 -1.1938
26677SOL     OW84486   8.393   0.546   3.977 -0.2342  0.0926  0.0766
26677SOL    HW184487   8.330   0.526   4.046  0.2648 -2.1029 -0.0271
26677SOL    HW284488   8.424   0.460   3.947  1.4297  1.0568 -1.1500
26678SOL     OW84489   4.738   9.896   1.099  0.3891  0.3306 -0.2142
26678SOL    HW184490   4.648   9.893   1.066  0.1328  0.0989  0.4916
26678SOL    HW284491   4.792   9.882   1.021 -0.2022 -0.1715 -0.5478
26679SOL     OW84492   1.396   9.043   0.952  0.3710 -0.1535  0.5012
26679SOL    HW184493   1.388   9.138   0.966  1.3259 -0.1067  0.7892
26679SOL    HW284494   1.487   9.024   0.971  0.2174 -1.1178  0.3005
26680SOL     OW84495   8.400   1.130   2.739 -0.2963 -0.1562  0.7031
26680SOL    HW184496   8.374   1.221   2.726  0.1748  0.0063  0.8636
26680SOL    HW284497   8.394   1.091   2.651 -0.1452  0.1250  0.5666
26681SOL     OW84498   2.317   2.034   5.879  0.6163  0.0034  0.5749
26681SOL    HW184499   2.280   1.946   5.871 -0.4295  0.5496 -1.6371
26681SOL    HW284500   2.395   2.032   5.824 -0.6515  0.9655 -1.4285
26682SOL     OW84501   8.462   6.102   0.138  0.2758  1.0101  0.2840
26682SOL    HW184502   8.427   6.088   0.050 -0.2607  0.3370  0.5975
26682SOL    HW284503   8.557   6.103   0.126  0.3622 -1.9275  0.0572
26683SOL     OW84504   2.371   3.486   2.986 -0.1418 -0.0463  0.4008
26683SOL    HW184505   2.397   3.565   3.033  3.0362 -0.6923  0.0095
26683SOL    HW284506   2.382   3.416   3.049  0.8145 -0.5491 -0.3003
26684SOL     OW84507   6.948   7.532   4.264  0.0178 -0.9770  0.0991
26684SOL    HW184508   6.899   7.450   4.265 -3.3947  0.9038  0.7261
26684SOL    HW284509   6.912   7.582   4.191 -0.0353  1.0385  1.4167
26685SOL     OW84510  10.202   2.202   6.459 -0.5062 -0.2546 -0.9934
26685SOL    HW184511  10.145   2.204   6.536 -0.5671 -0.4564 -1.0344
26685SOL    HW284512  10.208   2.109   6.436 -0.0481 -0.2514 -0.9037
26686SOL     OW84513  10.240   6.237   0.237 -0.0259  0.1773 -0.8037
26686SOL    HW184514  10.240   6.183   0.158  2.2750 -0.1276 -0.6575
26686SOL    HW284515  10.332   6.247   0.260 -0.5764  1.1284  1.2745
26687SOL     OW84516   2.108   5.961   3.377 -0.1158  0.7673  0.7206
26687SOL    HW184517   2.060   6.039   3.404  1.1125  2.1973 -1.0139
26687SOL    HW284518   2.107   5.965   3.281  0.3140 -1.1657  0.5987
26688SOL     OW84519   2.373   0.312  10.835  0.1073  0.2481  0.3569
26688SOL    HW184520   2.358   0.354  10.920 -0.4049  0.3240  0.2330
26688SOL    HW284521   2.295   0.259  10.820 -1.3601  2.7095 -1.5243
26689SOL     OW84522   0.264  10.563   8.242  0.0517 -0.6144 -0.2445
26689SOL    HW184523   0.208  10.639   8.255  0.3682 -0.1353 -1.5427
26689SOL    HW284524   0.256  10.513   8.324  0.1181  0.9733  0.7717
26690SOL     OW84525   8.207   0.539   2.851 -0.3471 -0.2774 -0.0000
26690SOL    HW184526   8.271   0.468   2.847  0.0542  0.0705  0.1134
26690SOL    HW284527   8.255   0.616   2.820 -0.4936  0.1370  0.7648
26691SOL     OW84528   9.599   0.205   4.863  0.1673  0.2116  0.1765
26691SOL    HW184529   9.624   0.182   4.952 -0.1697 -0.7415  0.0294
26691SOL    HW284530   9.531   0.142   4.839 -2.0906  2.3876  0.3678
26692SOL     OW84531  10.659   6.176   2.772  0.3532 -0.0906  0.1569
26692SOL    HW184532  10.703   6.157   2.690 -2.1006 -0.9787 -1.0419
26692SOL    HW284533  10.597   6.246   2.751  0.0850  0.0790  1.4005
26693SOL     OW84534   3.580   4.568  11.057 -0.2178 -0.0526  0.2355
26693SOL    HW184535   3.653   4.610  11.011  0.7582 -1.0412  0.8371
26693SOL    HW284536   3.592   4.593  11.149 -2.1549  1.9073  0.0316
26694SOL     OW84537   6.853   8.358   1.767 -0.3267  0.5835 -0.0715
26694SOL    HW184538   6.760   8.345   1.748 -0.5097  1.6872 -0.0073
26694SOL    HW284539   6.855   8.434   1.825  0.6523  0.8927 -0.4958
26695SOL     OW84540   3.950   5.473   0.481 -0.4052  0.2969  0.5129
26695SOL    HW184541   4.029   5.422   0.502 -2.3306 -2.8671  0.7098
26695SOL    HW284542   3.887   5.448   0.549 -2.2101  1.1926 -0.7597
26696SOL     OW84543   2.773   1.900   5.797 -0.4469 -0.3028 -0.0124
26696SOL    HW184544   2.785   1.838   5.869 -0.1232 -0.9102 -0.5757
26696SOL    HW284545   2.765   1.985   5.840 -0.5537 -0.6898  0.7571
26697SOL     OW84546   4.714   5.134   2.654  0.1777  0.1996  0.1188
26697SOL    HW184547   4.654   5.099   2.589  0.6410  0.4046 -0.4301
26697SOL    HW284548   4.658   5.183   2.715 -0.2032  0.4535 -0.4275
26698SOL     OW84549   0.677   2.194   8.639 -0.7158  0.1875 -0.2619
26698SOL    HW184550   0.613   2.252   8.680 -1.2389 -0.7802  0.3433
26698SOL    HW284551   0.710   2.243   8.564 -1.8701  0.8762 -0.3437
26699SOL     OW84552   0.442   6.610   8.902 -0.0024 -0.6100  0.4069
26699SOL    HW184553   0.381   6.628   8.974 -0.1945 -0.4139  0.1934
26699SOL    HW284554   0.412   6.665   8.830 -0.1317 -1.2006 -0.0011
26700SOL     OW84555  10.600   3.518   4.772 -0.2541  0.2962 -0.7075
26700SOL    HW184556  10.671   3.576   4.743  0.7206  0.1716  1.2695
26700SOL    HW284557  10.557   3.566   4.842 -0.4574 -0.7072 -0.1241
26701SOL     OW84558   4.084   3.891   2.040 -0.3079  0.4950 -0.3408
26701SOL    HW184559   4.023   3.824   2.009  1.2392 -0.7679 -0.8310
26701SOL    HW284560   4.095   3.951   1.966  0.7757 -0.5915 -1.1013
26702SOL     OW84561   0.310   7.841   3.104 -0.0668 -0.0800  0.2311
26702SOL    HW184562   0.239   7.795   3.059  0.1546 -1.1275  0.9216
26702SOL    HW284563   0.296   7.821   3.197  0.5115  0.5914  0.4673
26703SOL     OW84564   1.327   0.456   5.756  0.1690  0.3423  0.1562
26703SOL    HW184565   1.385   0.380   5.764  0.2255  0.3905  0.1994
26703SOL    HW284566   1.352   0.497   5.674  0.2018  0.3689  0.1799
26704SOL     OW84567   9.829   5.467   4.830  0.3105 -0.8407 -0.1067
26704SOL    HW184568   9.765   5.527   4.791  0.6279 -0.2812  0.2035
26704SOL    HW284569   9.778   5.416   4.893  0.0248 -0.9237 -0.4049
26705SOL     OW84570  10.328   0.006   3.066 -0.5744 -0.9204 -0.5642
26705SOL    HW184571  10.397   0.065   3.036 -0.5743 -0.4884  0.2491
26705SOL    HW284572  10.351  -0.014   3.157 -0.9221 -1.6676 -0.6345
26706SOL     OW84573   3.376   1.284   3.172  0.6115  0.3847  0.1527
26706SOL    HW184574   3.286   1.306   3.197 -0.1490 -0.8965 -1.3077
26706SOL    HW284575   3.400   1.350   3.108 -0.1273 -0.5110 -1.0905
26707SOL     OW84576   3.979  10.843   4.864 -0.1976 -0.1390  0.7098
26707SOL    HW184577   3.969  10.918   4.805 -0.3063 -1.1346 -0.5607
26707SOL    HW284578   3.972  10.881   4.952 -0.1755  1.3484  0.0936
26708SOL     OW84579   2.526   7.675   1.490  0.4659  0.0521  0.1486
26708SOL    HW184580   2.517   7.716   1.575  1.0512  0.4717  0.0170
26708SOL    HW284581   2.610   7.629   1.495  1.0169  0.9487 -0.5475
26709SOL     OW84582  10.548   4.727   0.883 -0.0465  0.4105  0.2601
26709SOL    HW184583  10.455   4.706   0.899  0.5439 -1.3782  1.7082
26709SOL    HW284584  10.550   4.823   0.878 -1.8887  0.5225  0.7935
26710SOL     OW84585  10.516   6.594   2.894  0.2024 -0.6458  0.1553
26710SOL    HW184586  10.538   6.520   2.950  0.6338  0.5754  1.6806
26710SOL    HW284587  10.563   6.668   2.933 -0.4774  0.5002 -1.1157
26711SOL     OW84588   0.443  10.131   3.217 -0.2879  0.7275 -0.5965
26711SOL    HW184589   0.491  10.105   3.295 -1.3629  0.6985  0.0711
26711SOL    HW284590   0.511  10.142   3.150  0.6132  0.4343  0.2420
26712SOL     OW84591   8.985   3.375   9.251  0.1162 -0.3990 -0.7152
26712SOL    HW184592   8.907   3.320   9.260  0.0656 -0.4819 -1.5908
26712SOL    HW284593   8.953   3.456   9.210  0.5148 -0.5094 -1.2554
26713SOL     OW84594   7.747   4.898   1.011 -0.0269  0.0835  0.7708
26713SOL    HW184595   7.686   4.848   0.956 -0.1884  0.6209  0.4603
26713SOL    HW284596   7.718   4.881   1.100  0.1847 -0.7320  0.6945
26714SOL     OW84597  10.863  10.235   9.843  0.6475  0.1145 -0.2857
26714SOL    HW184598  10.867  10.310   9.903 -0.3960 -0.1502  0.1489
26714SOL    HW284599  10.913  10.167   9.888 -0.0418 -0.0492  0.2573
26715SOL     OW84600   2.269   0.955   1.573  0.3547 -0.2055 -0.0984
26715SOL    HW184601   2.282   1.043   1.538  0.5987 -0.3409 -0.3471
26715SOL    HW284602   2.347   0.907   1.548 -0.3841 -0.8889 -1.1572
26716SOL     OW84603   1.941   9.967   6.942 -0.3196  0.2950  0.1565
26716SOL    HW184604   1.885  10.037   6.973 -0.9688 -0.4032  0.6068
26716SOL    HW284605   1.957   9.912   7.019  0.3549  0.0593 -0.1348
26717SOL     OW84606   3.537   0.349   5.730 -0.6523  0.9500 -0.2509
26717SOL    HW184607   3.458   0.375   5.682 -3.4377 -2.7725  1.7693
26717SOL    HW284608   3.528   0.390   5.816  0.4966  1.6950 -0.4571
26718SOL     OW84609   7.226  10.392   4.233  0.2442 -0.2768 -0.0789
26718SOL    HW184610   7.310  10.361   4.268 -0.0132 -1.4057 -0.4151
26718SOL    HW284611   7.250  10.442   4.155  0.6856  0.5422  0.5743
26719SOL     OW84612   9.077   7.258   4.116  0.2454  0.4183  0.3129
26719SOL    HW184613   9.109   7.200   4.048 -0.0957  1.4013 -0.7192
26719SOL    HW284614   9.155   7.282   4.166  0.4439 -0.5859  0.5046
26720SOL     OW84615   1.548   2.961   5.555  0.9358 -0.4458  0.1827
26720SOL    HW184616   1.591   2.877   5.546  1.8298  0.0870 -0.6522
26720SOL    HW284617   1.465   2.941   5.599  1.7303 -1.5702  1.2168
26721SOL     OW84618   3.959   9.673   7.702 -0.2444 -0.7681  0.0990
26721SOL    HW184619   3.993   9.751   7.660 -0.2030  0.1653  1.7639
26721SOL    HW284620   3.926   9.703   7.787 -0.0470 -2.5596  0.8811
26722SOL     OW84621   3.519   5.776   0.540 -0.0158 -0.5401  0.6003
26722SOL    HW184622   3.512   5.749   0.449  0.5125 -0.5447  0.5581
26722SOL    HW284623   3.579   5.713   0.579  0.0752 -0.2975  0.8549
26723SOL     OW84624   5.205   1.104   4.832  0.5089 -0.3102 -0.2314
26723SOL    HW184625   5.160   1.019   4.829  0.8051 -0.4552 -0.6185
26723SOL    HW284626   5.140   1.164   4.868  0.5430 -0.8517  0.7788
26724SOL     OW84627   4.253   6.581   8.455 -0.3205 -0.1685 -0.6474
26724SOL    HW184628   4.259   6.600   8.548  1.2366  0.8934 -0.9155
26724SOL    HW284629   4.283   6.661   8.412 -2.4510 -0.0783 -2.1219
26725SOL     OW84630  10.360   2.268   1.882 -0.0569  0.7945  0.4671
26725SOL    HW184631  10.280   2.250   1.832 -0.2728 -0.7632  1.3078
26725SOL    HW284632  10.431   2.236   1.826 -0.0674  1.5044  0.0350
26726SOL     OW84633   0.779   0.801   1.202 -0.6913 -0.3703 -0.5051
26726SOL    HW184634   0.818   0.828   1.118 -0.2148 -1.1940 -0.5616
26726SOL    HW284635   0.750   0.883   1.242  1.9429  0.4260 -0.0412
26727SOL     OW84636   3.937   9.813   7.943 -0.1302  0.2895  0.4549
26727SOL    HW184637   4.032   9.810   7.947  0.0893  2.9164 -0.9839
26727SOL    HW284638   3.911   9.867   8.018 -0.7396 -2.0614  2.0615
26728SOL     OW84639   1.451   2.044   7.509  0.4229  0.2586 -0.1783
26728SOL    HW184640   1.466   2.081   7.596  0.6725  1.2935 -0.6340
26728SOL    HW284641   1.464   1.950   7.520  0.4855  0.3727  0.8898
26729SOL     OW84642   2.495   2.651   8.479 -0.6899  0.0413  0.1607
26729SOL    HW184643   2.493   2.655   8.384  0.3637 -0.8174  0.0808
26729SOL    HW284644   2.552   2.576   8.499 -1.7184 -0.4481  1.4583
26730SOL     OW84645   2.482   1.171   8.858  0.5597  0.1056 -0.2628
26730SOL    HW184646   2.396   1.170   8.815  0.1547  1.0094  0.4809
26730SOL    HW284647   2.484   1.088   8.907  1.1024 -1.0176 -2.0858
26731SOL     OW84648   4.625   5.102   4.357  0.3128  0.1354 -0.4435
26731SOL    HW184649   4.682   5.139   4.424  0.9198 -1.1623 -0.2132
26731SOL    HW284650   4.589   5.178   4.312 -0.5717  1.0687  1.7004
26732SOL     OW84651   2.838   6.827   2.125  0.2896  0.2758 -0.1914
26732SOL    HW184652   2.912   6.889   2.120 -0.5207  1.1747 -1.8430
26732SOL    HW284653   2.775   6.870   2.183 -0.3021  1.0819 -1.3913
26733SOL     OW84654   7.794   9.950   9.248  0.0060 -0.1018 -0.3547
26733SOL    HW184655   7.738  10.003   9.192 -1.3615  1.0435  1.9128
26733SOL    HW284656   7.860  10.012   9.280  0.7519 -0.7237 -0.6812
26734SOL     OW84657   5.388   1.970   8.881 -0.0180 -0.6603 -0.7119
26734SOL    HW184658   5.341   1.907   8.935  0.5865 -1.0852 -0.6703
26734SOL    HW284659   5.404   2.045   8.939 -1.8590  0.1124 -1.1131
26735SOL     OW84660   8.596  10.288   8.483  1.0897 -0.1391 -0.2413
26735SOL    HW184661   8.535  10.268   8.413  1.3721 -0.0510 -0.5145
26735SOL    HW284662   8.673  10.324   8.439  0.9545  0.6708  0.1624
26736SOL     OW84663   8.942   0.405   6.904  0.4863  0.7316 -0.1203
26736SOL    HW184664   8.930   0.405   6.809 -0.3110  2.7261 -0.0757
26736SOL    HW284665   8.855   0.388   6.939  0.6217  0.7909  0.2496
26737SOL     OW84666   1.355   2.879   6.083 -0.4648  0.3377  0.3629
26737SOL    HW184667   1.362   2.973   6.067  0.3828  0.2712  0.2710
26737SOL    HW284668   1.271   2.868   6.127  0.7702  1.5325  3.2737
26738SOL     OW84669   3.094  10.684   4.220 -0.2460 -0.0022  0.2093
26738SOL    HW184670   3.134  10.737   4.289 -0.6778 -0.8877  1.1673
26738SOL    HW284671   3.015  10.647   4.261  0.0146 -1.3300 -0.4429
26739SOL     OW84672   3.924   2.086   9.307 -0.0793  0.3919  0.0496
26739SOL    HW184673   4.001   2.042   9.270 -0.7431 -0.6770 -0.1396
26739SOL    HW284674   3.890   2.023   9.371 -2.1761 -0.2965 -1.6220
26740SOL     OW84675   7.159   3.652   3.289 -0.3416 -0.1786 -0.1751
26740SOL    HW184676   7.123   3.663   3.201 -0.3299 -0.9475 -0.2832
26740SOL    HW284677   7.217   3.728   3.301 -0.5466  0.0691 -0.7231
26741SOL     OW84678   0.211   4.586   5.305 -0.3318 -0.6084 -0.4117
26741SOL    HW184679   0.300   4.555   5.285 -0.2578 -0.7566  0.1310
26741SOL    HW284680   0.220   4.680   5.316 -0.2095 -0.6417 -0.2106
26742SOL     OW84681  10.154   0.907   7.726  0.7270 -0.6275 -0.5750
26742SOL    HW184682  10.116   0.971   7.786  1.3279 -1.9884  1.3292
26742SOL    HW284683  10.248   0.926   7.726  0.7312 -0.6082 -1.1555
26743SOL     OW84684   7.084   0.372   8.803 -0.1362 -0.4405  0.4902
26743SOL    HW184685   7.143   0.432   8.849  0.4408  0.6891 -1.5722
26743SOL    HW284686   7.046   0.425   8.733 -0.4195 -2.2072 -0.7658
26744SOL     OW84687   0.546   4.652   1.997 -0.0934  0.1714  0.0809
26744SOL    HW184688   0.487   4.667   2.071  0.0214 -1.0127  0.4360
26744SOL    HW284689   0.505   4.697   1.924 -0.8997  0.2388  0.5598
26745SOL     OW84690   6.428   3.114   1.450 -0.2532 -0.2272 -0.1766
26745SOL    HW184691   6.341   3.100   1.412 -0.1513  1.0007 -0.9138
26745SOL    HW284692   6.417   3.094   1.543 -1.2010 -0.5604 -0.3507
26746SOL     OW84693   8.592   2.431   4.054 -0.4389 -0.0078 -0.5329
26746SOL    HW184694   8.642   2.511   4.038 -3.2057  1.9771 -0.1366
26746SOL    HW284695   8.568   2.399   3.967  3.2871 -2.4151 -0.8852
26747SOL     OW84696   3.414   2.122   0.383 -0.2677 -0.5691 -0.4390
26747SOL    HW184697   3.429   2.027   0.380  0.3449 -0.5485  1.1589
26747SOL    HW284698   3.473   2.154   0.450 -1.1383  0.8311 -0.2888
26748SOL     OW84699   2.161   5.119   0.204 -0.3279  0.2433 -0.1856
26748SOL    HW184700   2.163   5.059   0.129 -0.5366 -0.5596  0.4363
26748SOL    HW284701   2.141   5.204   0.166  2.0526  0.3662 -1.3697
26749SOL     OW84702   0.708   7.846   2.880 -0.3052 -0.3119 -0.6519
26749SOL    HW184703   0.613   7.859   2.883 -0.1687  1.0623 -1.4641
26749SOL    HW284704   0.736   7.892   2.801  1.2052  0.5176  0.3159
26750SOL     OW84705   8.824   6.094  10.736 -0.6002  0.5063 -0.1767
26750SOL    HW184706   8.739   6.049  10.735 -0.6074  0.4946  0.4027
26750SOL    HW284707   8.884   6.031  10.775 -0.6241  1.0162  0.7117
26751SOL     OW84708   8.620   5.840   2.935  1.1187 -0.3341 -0.0920
26751SOL    HW184709   8.603   5.822   3.028 -0.6716  0.2349 -0.2868
26751SOL    HW284710   8.694   5.900   2.936  0.5250  0.4106  1.0150
26752SOL     OW84711   4.780   1.575   2.242  0.0499 -0.0254  0.7926
26752SOL    HW184712   4.822   1.559   2.327  0.8669  0.1333  0.4280
26752SOL    HW284713   4.709   1.511   2.238  0.7229 -0.8081  1.0991
26753SOL     OW84714   6.927  11.052   3.835 -0.5127  0.2256 -0.4968
26753SOL    HW184715   6.970  11.097   3.908 -1.0449 -1.0935  0.6622
26753SOL    HW284716   6.957  10.962   3.841 -0.7401  0.0450 -1.7930
26754SOL     OW84717   6.000   8.038   3.878  0.0678 -0.1697 -0.4340
26754SOL    HW184718   6.094   8.032   3.890  0.0243  0.8746  0.6732
26754SOL    HW284719   5.963   7.996   3.955 -0.3017  1.9649  0.6326
26755SOL     OW84720   6.419   9.202   3.699  0.2264 -0.1205  0.0752
26755SOL    HW184721   6.508   9.237   3.705 -0.3679  1.5352 -0.1876
26755SOL    HW284722   6.398   9.205   3.606  0.5024 -2.1862 -0.0887
26756SOL     OW84723   1.199   0.192   9.704  0.1880 -0.1039  0.1004
26756SOL    HW184724   1.187   0.164   9.613  0.4930 -0.9585  0.3195
26756SOL    HW284725   1.221   0.112   9.751  0.8075  0.4641  0.7873
26757SOL     OW84726   6.930   2.965   0.635 -0.3112 -0.0295 -0.4688
26757SOL    HW184727   7.020   2.987   0.655 -0.6193  0.5813  0.2874
26757SOL    HW284728   6.909   3.017   0.557  0.1061 -0.4928 -0.8986
26758SOL     OW84729   5.099   8.300   1.836 -0.5073  0.1225 -0.3880
26758SOL    HW184730   5.095   8.341   1.923 -1.4682 -0.8293  0.0347
26758SOL    HW284731   5.144   8.365   1.781  0.5459  0.5445  0.9246
26759SOL     OW84732   0.007  10.879  11.010 -0.1070  0.1924 -0.1262
26759SOL    HW184733  -0.076  10.926  11.017  0.6069  1.3695  0.8136
26759SOL    HW284734   0.022  10.870  10.916 -1.3266 -0.1048 -0.3056
26760SOL     OW84735  10.720   2.664   3.537 -0.1826 -0.3714 -0.3963
26760SOL    HW184736  10.761   2.739   3.580 -2.2947  0.1536  0.8709
26760SOL    HW284737  10.675   2.617   3.607 -0.9294 -1.4367 -1.5408
26761SOL     OW84738   4.774   4.949   8.609 -0.2033  0.5261 -0.2366
26761SOL    HW184739   4.830   4.959   8.686  0.4547  1.4628 -0.8186
26761SOL    HW284740   4.810   5.010   8.545  0.3694 -1.4785 -1.9464
26762SOL     OW84741   1.112   6.325   3.766  0.2646 -0.3776  0.4515
26762SOL    HW184742   1.119   6.404   3.820  0.7520  0.0904 -0.2763
26762SOL    HW284743   1.063   6.352   3.689  1.1622 -0.5532 -0.2009
26763SOL     OW84744   6.962   9.196   0.615 -0.1171 -0.3517 -0.5430
26763SOL    HW184745   6.962   9.291   0.609 -1.7472 -0.3632 -1.0854
26763SOL    HW284746   6.942   9.178   0.707  0.0172 -0.1656 -0.4777
26764SOL     OW84747   8.561   8.096   5.290  0.2802  0.0477  0.8162
26764SOL    HW184748   8.578   8.159   5.361  1.2455 -0.5374  1.1244
26764SOL    HW284749   8.608   8.017   5.317 -1.0473 -0.8721  0.5084
26765SOL     OW84750  10.480   1.144   0.547 -0.6287  0.5746 -0.3654
26765SOL    HW184751  10.492   1.052   0.568 -0.5338  0.3865 -1.2016
26765SOL    HW284752  10.522   1.155   0.462  2.5103  2.1529  1.2087
26766SOL     OW84753   9.810   5.946   8.614  0.0421  0.1487  0.3882
26766SOL    HW184754   9.873   5.992   8.557 -1.0010 -0.5966 -1.4322
26766SOL    HW284755   9.772   6.016   8.668  1.3029  0.8288  0.4416
26767SOL     OW84756   5.156   8.723  10.749  0.2678 -0.0157  0.2152
26767SOL    HW184757   5.069   8.685  10.737  0.5339 -0.9564  1.0560
26767SOL    HW284758   5.141   8.816  10.762 -0.6228 -0.1862  0.4525
26768SOL     OW84759   5.337   4.498   1.735 -0.6999 -0.1697  0.1212
26768SOL    HW184760   5.330   4.536   1.648  0.6932  1.1443  0.5329
26768SOL    HW284761   5.307   4.568   1.793  0.8819 -0.0345  0.8359
26769SOL     OW84762   4.791   8.903   8.227 -0.0000 -0.2902 -0.1218
26769SOL    HW184763   4.725   8.921   8.160  0.3732  0.8787 -0.1984
26769SOL    HW284764   4.864   8.864   8.179  0.4433  0.9433 -0.5032
26770SOL     OW84765   1.427   4.488   8.708  0.3758 -0.0220 -0.1125
26770SOL    HW184766   1.391   4.561   8.658  3.1220  0.9265 -0.8367
26770SOL    HW284767   1.375   4.487   8.789 -1.5854  0.8714 -1.2970
26771SOL     OW84768   2.109   6.709   2.005 -0.1614 -0.4977 -0.6242
26771SOL    HW184769   2.099   6.636   1.944 -0.2159  0.7724 -2.1965
26771SOL    HW284770   2.106   6.787   1.950  1.8764  0.6501  0.7414
26772SOL     OW84771   9.192   1.117   9.300  0.5203 -0.1464  0.1501
26772SOL    HW184772   9.168   1.165   9.379 -0.2629 -0.8637  0.3666
26772SOL    HW284773   9.118   1.058   9.285  1.2082 -0.8873 -0.4162
26773SOL     OW84774  10.266   2.369   1.076  0.3142  0.1034 -0.5556
26773SOL    HW184775  10.339   2.329   1.028 -0.5107 -0.1256 -1.6348
26773SOL    HW284776  10.208   2.402   1.008 -1.1017 -0.6080  0.2717
26774SOL     OW84777   0.369   7.990   7.129  0.3424 -0.2738 -0.0090
26774SOL    HW184778   0.382   7.895   7.126 -0.3882 -0.3548 -1.7739
26774SOL    HW284779   0.424   8.020   7.202  1.2807 -1.9354  0.0028
26775SOL     OW84780   7.443   9.814   9.753  0.4519 -0.0176  0.2448
26775SOL    HW184781   7.507   9.864   9.702  0.9991 -0.1099  0.8277
26775SOL    HW284782   7.495   9.768   9.819 -0.2827  0.4609  1.1803
26776SOL     OW84783   7.813   4.872   2.408  0.0815 -0.3987 -0.3288
26776SOL    HW184784   7.749   4.927   2.363  0.6994 -0.1346 -0.8857
26776SOL    HW284785   7.812   4.789   2.360  0.0002 -0.4789 -0.1929
26777SOL     OW84786   5.897   5.822   9.728  0.3963  0.6202 -0.3579
26777SOL    HW184787   5.870   5.805   9.638  0.9190 -1.4477 -0.1845
26777SOL    HW284788   5.987   5.852   9.721 -0.3316  2.9515 -0.6300
26778SOL     OW84789   2.139   5.505   1.467  0.3226 -0.0615  0.2567
26778SOL    HW184790   2.084   5.437   1.507  1.6262 -0.3723  1.6378
26778SOL    HW284791   2.108   5.586   1.506 -0.1519 -0.0615 -0.1223
26779SOL     OW84792   6.851   4.773   5.040  0.0753 -0.4649 -0.4184
26779SOL    HW184793   6.877   4.732   5.122 -1.8152 -0.4933  0.2161
26779SOL    HW284794   6.866   4.866   5.052  0.0667 -0.4999 -0.1456
26780SOL     OW84795   6.009   8.585   6.258 -0.3029  0.2227 -0.5338
26780SOL    HW184796   6.076   8.650   6.234  1.3672 -0.3190  2.1465
26780SOL    HW284797   6.058   8.504   6.272 -1.7196 -0.5477  0.2260
26781SOL     OW84798   9.425   8.528   6.826  0.2365 -0.1366  0.0208
26781SOL    HW184799   9.405   8.614   6.789  0.9763  0.6845  1.4676
26781SOL    HW284800   9.480   8.546   6.901  2.1052 -2.0055 -0.8034
26782SOL     OW84801   1.039   7.164  10.776  0.1709 -0.2840  0.1304
26782SOL    HW184802   1.067   7.150  10.686  0.3896  0.9312 -0.0091
26782SOL    HW284803   0.955   7.119  10.783  1.4391 -2.7910  0.1563
26783SOL     OW84804   1.136   7.784   4.245  0.2076  0.1837  0.2480
26783SOL    HW184805   1.094   7.713   4.293 -0.7070  0.8655  0.4867
26783SOL    HW284806   1.082   7.794   4.166  0.2712  0.6720  0.2664
26784SOL     OW84807   1.975   6.007   3.733  0.2677  1.0217  0.0717
26784SOL    HW184808   2.063   5.969   3.729  0.3016  0.7497  2.1722
26784SOL    HW284809   1.984   6.082   3.792 -0.5844  2.0247 -1.0347
26785SOL     OW84810   0.687  10.920   9.437  0.4042  0.3432 -0.1928
26785SOL    HW184811   0.751  10.889   9.373 -1.1400  0.1344 -1.7016
26785SOL    HW284812   0.738  10.936   9.517  1.9189 -2.1670 -0.5685
26786SOL     OW84813   3.843  10.693   1.446 -0.9636 -0.2993  0.0405
26786SOL    HW184814   3.805  10.780   1.460  0.8410  0.5190  0.1520
26786SOL    HW284815   3.868  10.692   1.354 -1.5150 -0.9376 -0.1087
26787SOL     OW84816   0.035   1.634   1.210  0.4253 -0.5075  0.3019
26787SOL    HW184817   0.038   1.686   1.290  2.3356 -1.8389  1.1998
26787SOL    HW284818   0.122   1.646   1.171 -0.5503  0.2837 -1.7219
26788SOL     OW84819   2.386  10.147   4.028 -0.3811 -0.2290  0.0602
26788SOL    HW184820   2.472  10.137   4.068 -0.7410  0.5493  1.0602
26788SOL    HW284821   2.338  10.069   4.053 -0.1818 -0.3518  0.0584
26789SOL     OW84822   7.012   3.373   3.589  0.4176 -0.0481 -0.1213
26789SOL    HW184823   6.996   3.331   3.674 -0.4795 -0.1765 -0.3394
26789SOL    HW284824   6.978   3.310   3.525  2.5926 -0.7165 -0.7170
26790SOL     OW84825   3.214   8.323   3.519 -0.5238 -0.0430 -0.2338
26790SOL    HW184826   3.166   8.365   3.448 -0.1103  2.9183  1.0942
26790SOL    HW284827   3.296   8.293   3.478 -0.1159  1.9615 -0.9884
26791SOL     OW84828   7.042   3.275  10.389 -0.4315  0.7617  0.2306
26791SOL    HW184829   6.982   3.218  10.340  0.8038 -0.2878 -0.1117
26791SOL    HW284830   7.011   3.270  10.479  0.0127 -1.0093  0.3331
26792SOL     OW84831   7.165   4.613   3.847  0.3136 -0.0953 -0.2767
26792SOL    HW184832   7.115   4.548   3.895 -1.2936  0.6855 -0.8194
26792SOL    HW284833   7.244   4.566   3.818  0.6540 -0.9394  1.8697
26793SOL     OW84834   7.429   8.017   5.345  0.1890 -0.3418 -0.1936
26793SOL    HW184835   7.475   8.098   5.365 -2.5350  1.3941 -0.4042
26793SOL    HW284836   7.376   8.000   5.423 -0.1977 -1.2193 -0.6366
26794SOL     OW84837  10.667  10.207   3.598 -0.3697  0.4049 -0.4568
26794SOL    HW184838  10.665  10.264   3.675 -2.0642  1.4385 -1.2172
26794SOL    HW284839  10.751  10.225   3.557 -0.1645  1.0892  0.2446
26795SOL     OW84840   8.053  10.945   7.467  0.7909 -0.2938 -0.0922
26795SOL    HW184841   8.041  10.967   7.375 -0.0141 -0.4219 -0.0187
26795SOL    HW284842   8.144  10.969   7.485  0.7895  0.2468 -0.7724
26796SOL     OW84843   6.574   8.729   7.683  0.3541 -0.5105 -0.4907
26796SOL    HW184844   6.483   8.703   7.700 -0.1869  1.1199 -0.6999
26796SOL    HW284845   6.583   8.726   7.588  0.1512  0.4453 -0.5462
26797SOL     OW84846   4.539   0.112   6.799  0.0422  0.5197  0.7800
26797SOL    HW184847   4.500   0.121   6.886 -0.3195 -0.1736  0.6977
26797SOL    HW284848   4.485   0.168   6.743 -1.2512 -0.8705  0.5553
26798SOL     OW84849   2.661   9.716   5.904  0.2814 -0.4688 -0.2910
26798SOL    HW184850   2.699   9.765   5.977  3.6041 -3.0539 -0.0758
26798SOL    HW284851   2.651   9.782   5.835  0.9583  1.2265  1.1365
26799SOL     OW84852   3.973   1.934  10.739 -0.0993 -0.0005  0.4090
26799SOL    HW184853   4.048   1.984  10.771  0.1614 -0.4352  0.4760
26799SOL    HW284854   3.898   1.972  10.786 -0.0374  0.9501 -0.2197
26800SOL     OW84855   1.448   7.513   5.316  0.3457 -0.1026 -0.2401
26800SOL    HW184856   1.468   7.587   5.259 -0.8618  0.0270 -0.5191
26800SOL    HW284857   1.444   7.438   5.257 -1.1110  0.0654 -0.3934
26801SOL     OW84858   0.151   9.009   8.805  0.3116 -0.3581  0.1267
26801SOL    HW184859   0.081   9.033   8.745  0.8322  0.6442 -0.1085
26801SOL    HW284860   0.188   9.093   8.834  1.8680 -0.8432 -0.3130
26802SOL     OW84861   3.890   3.276   4.355  0.6442  0.4542 -0.0997
26802SOL    HW184862   3.953   3.223   4.404  1.8577  0.4600 -1.5708
26802SOL    HW284863   3.817   3.217   4.339  1.7035 -0.6483 -1.1644
26803SOL     OW84864   3.086   1.345  10.035 -0.1860 -0.3167  0.0401
26803SOL    HW184865   3.021   1.309  10.095  0.6185 -2.0838 -0.0918
26803SOL    HW284866   3.040   1.351   9.951 -0.1859 -1.6790 -0.0845
26804SOL     OW84867   6.976   5.635   4.790 -0.0764 -0.0391 -0.3831
26804SOL    HW184868   7.026   5.712   4.762 -0.0482  0.1900  0.2811
26804SOL    HW284869   6.965   5.583   4.710 -0.6847  0.9830 -0.9739
26805SOL     OW84870   9.479   5.946   0.680 -0.3610 -0.3930  0.2052
26805SOL    HW184871   9.531   6.027   0.678 -1.3918  0.2740 -1.1610
26805SOL    HW284872   9.401   5.969   0.730 -0.2095 -0.8479  0.6563
26806SOL     OW84873   2.289  10.366   6.342 -0.0628 -0.3184 -0.0243
26806SOL    HW184874   2.349  10.300   6.306  0.9702  0.5510  0.0619
26806SOL    HW284875   2.256  10.327   6.422 -0.7595 -1.4150 -0.8151
26807SOL     OW84876   1.091   4.349   4.353 -0.5509  0.0145 -0.3565
26807SOL    HW184877   1.146   4.287   4.401  1.5220  1.9166 -0.0808
26807SOL    HW284878   1.069   4.416   4.417 -3.6497 -0.8487 -0.3625
26808SOL     OW84879   7.346   8.405  10.543  0.0171  0.1863  0.2476
26808SOL    HW184880   7.355   8.465  10.618  1.3034  0.7610 -0.3401
26808SOL    HW284881   7.252   8.405  10.524 -0.2418  0.5927  1.4021
26809SOL     OW84882   6.458   3.581   8.588  0.5746 -0.3007 -0.0384
26809SOL    HW184883   6.395   3.527   8.635 -0.1679  1.1310  0.6762
26809SOL    HW284884   6.528   3.520   8.563 -1.5279 -2.1775 -1.7975
26810SOL     OW84885   2.921   4.655   6.820  0.2867  0.0845  0.2776
26810SOL    HW184886   2.949   4.725   6.879  1.7937  0.1971 -0.5366
26810SOL    HW284887   2.951   4.574   6.861 -0.0560  0.0304  0.4289
26811SOL     OW84888   0.260   8.561   7.389 -0.4169 -0.6669 -0.3254
26811SOL    HW184889   0.261   8.466   7.383 -0.7125 -0.7365  0.6200
26811SOL    HW284890   0.176   8.582   7.428 -1.3346  0.1395 -2.5773
26812SOL     OW84891   8.984   3.195   0.583  0.2220 -0.0141  0.5160
26812SOL    HW184892   8.983   3.249   0.662  0.9838  0.7691 -0.0063
26812SOL    HW284893   8.973   3.105   0.616  2.7199  0.0385  1.7596
26813SOL     OW84894   1.078   8.871   6.521  0.4622  0.0190 -0.0386
26813SOL    HW184895   1.027   8.790   6.517  1.4091 -0.5746 -0.6000
26813SOL    HW284896   1.045   8.916   6.599 -0.4993 -0.6138 -0.0615
26814SOL     OW84897   9.645   7.031   0.835 -0.2953  0.2034 -0.3275
26814SOL    HW184898   9.706   6.996   0.771  0.0931  0.1778  0.0507
26814SOL    HW284899   9.685   7.011   0.920 -0.2598  1.1979 -0.0946
26815SOL     OW84900  10.712   4.520   9.842 -0.3241 -0.0073  0.5323
26815SOL    HW184901  10.745   4.541   9.755 -1.7429 -0.7336 -0.2251
26815SOL    HW284902  10.742   4.591   9.898  1.1532  0.1369 -0.4120
26816SOL     OW84903   5.304   9.862   5.716  0.1345  0.0786 -0.0044
26816SOL    HW184904   5.316   9.956   5.706  0.0876  0.1046  0.1797
26816SOL    HW284905   5.236   9.853   5.783  0.3259 -0.0883  0.1705
26817SOL     OW84906   8.113   6.003   0.968 -0.2985 -0.2594  0.4196
26817SOL    HW184907   8.019   5.987   0.957 -0.1735 -0.4444 -0.3822
26817SOL    HW284908   8.117   6.071   1.035 -0.9923 -0.4715  0.6910
26818SOL     OW84909   5.576   5.818   5.667  0.2412  0.2614 -0.2355
26818SOL    HW184910   5.565   5.800   5.574 -1.1047 -1.6259  0.2328
26818SOL    HW284911   5.655   5.771   5.692 -0.1197 -0.3149 -0.1698
26819SOL     OW84912   2.872   4.942   8.427  0.6033 -0.5112 -0.1611
26819SOL    HW184913   2.801   4.956   8.364 -1.1904  0.1610  1.8780
26819SOL    HW284914   2.938   5.008   8.403 -1.5176  2.0769  0.6041
26820SOL     OW84915   6.573   5.521   2.444  0.4826 -0.0605  0.4675
26820SOL    HW184916   6.494   5.480   2.409 -1.2714  3.2179  0.2311
26820SOL    HW284917   6.541   5.577   2.515  2.2816  2.7907 -0.8328
26821SOL     OW84918   5.361  10.149   2.143 -0.0997  0.0694 -0.6632
26821SOL    HW184919   5.330  10.123   2.229 -0.1536  1.0279 -0.3794
26821SOL    HW284920   5.326  10.083   2.083  0.1723 -0.7566  0.0747
26822SOL     OW84921   6.750   6.366   7.171  0.3816 -0.3146  0.5728
26822SOL    HW184922   6.663   6.328   7.183  0.7138 -1.0144  0.8030
26822SOL    HW284923   6.801   6.297   7.131  0.5308  0.4862 -0.6819
26823SOL     OW84924   4.219   2.199   0.624 -0.1318  0.5824 -0.4217
26823SOL    HW184925   4.304   2.153   0.622 -0.1910  0.4820 -0.9819
26823SOL    HW284926   4.240   2.288   0.597 -0.0001  0.9216  0.7747
26824SOL     OW84927   2.084   4.677   7.991  0.4158 -0.2017  0.0546
26824SOL    HW184928   2.136   4.757   7.992  1.8273 -0.8671 -3.7935
26824SOL    HW284929   2.145   4.609   8.019  0.5011 -0.4470 -0.6958
26825SOL     OW84930   3.528   8.042   9.598  0.3108  0.1595 -0.1385
26825SOL    HW184931   3.438   8.020   9.620  0.1692  2.1786  1.5494
26825SOL    HW284932   3.572   7.958   9.587 -1.5807 -0.8548 -0.2326
26826SOL     OW84933   0.915   9.388   2.701  0.2775 -0.9496 -0.1811
26826SOL    HW184934   0.959   9.354   2.780  0.2365 -0.2110  0.1693
26826SOL    HW284935   0.866   9.464   2.732 -1.0736 -1.6212 -0.6132
26827SOL     OW84936  10.960   0.265   4.132  0.5113  0.1620 -0.8312
26827SOL    HW184937  10.973   0.359   4.136 -0.7247  0.3465 -0.7234
26827SOL    HW284938  11.028   0.228   4.188 -0.3504  1.1287  0.9244
26828SOL     OW84939   8.895   4.331   2.916  0.2674 -0.4935 -0.1893
26828SOL    HW184940   8.923   4.422   2.930  1.8042 -0.7457 -1.4327
26828SOL    HW284941   8.819   4.339   2.858  1.0818 -0.0370 -1.2190
26829SOL     OW84942   5.372   1.012   4.323 -0.0834  0.0795  0.1095
26829SOL    HW184943   5.465   1.005   4.348 -0.6356 -1.9987  1.9480
26829SOL    HW284944   5.325   0.990   4.403 -2.1814  0.0895 -1.0648
26830SOL     OW84945   9.029   6.579   6.685  0.0469  0.3681 -0.6021
26830SOL    HW184946   8.983   6.663   6.691  0.8353  0.7312  1.0910
26830SOL    HW284947   8.981   6.521   6.744  0.5035  0.1416 -0.4430
26831SOL     OW84948   7.190   1.640   5.505 -0.6685  0.1375 -0.6066
26831SOL    HW184949   7.219   1.553   5.476 -1.2230 -0.8117  1.5166
26831SOL    HW284950   7.149   1.678   5.427  0.3186 -1.1620 -1.8109
26832SOL     OW84951   1.840   0.460   2.602  0.1265 -0.4287  0.3336
26832SOL    HW184952   1.932   0.458   2.574 -0.3416  2.2129 -1.7991
26832SOL    HW284953   1.804   0.376   2.572  1.3671 -0.6226 -0.6804
26833SOL     OW84954   5.154   7.737   2.504 -0.0290 -0.1134  0.1537
26833SOL    HW184955   5.202   7.672   2.451 -0.8146  0.0569 -0.7832
26833SOL    HW284956   5.071   7.749   2.458 -0.2696  0.8799  0.8231
26834SOL     OW84957   2.018   1.280   9.968  0.8472 -0.0004 -0.1261
26834SOL    HW184958   2.038   1.220  10.039 -1.6559  0.6529  1.2752
26834SOL    HW284959   1.987   1.359  10.012 -1.6417  0.1217 -1.8712
26835SOL     OW84960   0.096   4.050   8.060 -0.2034 -0.2537 -0.2382
26835SOL    HW184961   0.092   4.131   8.009  0.9305  0.6713  1.0653
26835SOL    HW284962   0.183   4.014   8.041 -0.3398 -0.6711 -0.0877
26836SOL     OW84963   2.774   8.201   1.954  0.0871  0.5744  0.4006
26836SOL    HW184964   2.795   8.277   1.900 -0.3346  0.0875 -0.4742
26836SOL    HW284965   2.685   8.176   1.927  0.2113 -0.2145  0.6834
26837SOL     OW84966   2.246   4.872   0.884 -0.2616  0.7930 -0.6823
26837SOL    HW184967   2.324   4.832   0.923  0.4751  2.3727 -0.4273
26837SOL    HW284968   2.243   4.838   0.795 -0.8993 -1.4279  0.1175
26838SOL     OW84969   9.068   4.446  10.955 -0.2272  0.2563 -0.5227
26838SOL    HW184970   9.038   4.442  11.046  1.4729  1.2338  0.1327
26838SOL    HW284971   9.127   4.371  10.946 -0.3011  0.2285 -0.7920
26839SOL     OW84972   4.629   5.069   5.584  0.0564  0.2261 -0.6200
26839SOL    HW184973   4.569   5.002   5.618  2.3816 -2.1913 -1.0073
26839SOL    HW284974   4.616   5.068   5.489 -0.3830  0.8611 -0.5758
26840SOL     OW84975   0.636   8.118   3.764 -0.8386  0.7377  0.0121
26840SOL    HW184976   0.636   8.209   3.736 -0.5695  1.8177  3.1580
26840SOL    HW284977   0.559   8.110   3.820 -0.2369 -0.6701  0.6854
26841SOL     OW84978   7.218   3.275   7.807  0.2676  0.1952  0.0485
26841SOL    HW184979   7.151   3.239   7.865  1.4720 -0.0058  1.3787
26841SOL    HW284980   7.170   3.311   7.732 -1.1416 -1.9749 -0.1432
26842SOL     OW84981   8.548   4.978   5.274 -0.2442  0.4728  0.1024
26842SOL    HW184982   8.461   5.016   5.260 -1.7335 -2.8749 -0.6859
26842SOL    HW284983   8.543   4.939   5.361 -0.1713 -1.1166 -0.5704
26843SOL     OW84984   2.118   5.871   2.277 -0.1176  0.1049 -0.7032
26843SOL    HW184985   2.197   5.828   2.245  0.2714 -0.5333  1.0358
26843SOL    HW284986   2.147   5.959   2.302 -0.1808  0.2010 -0.9551
26844SOL     OW84987   0.390  10.124  10.023  1.0303  0.0204 -0.6312
26844SOL    HW184988   0.344  10.161  10.098 -1.1209 -4.2762  0.5149
26844SOL    HW284989   0.471  10.088  10.059 -0.0128 -2.0627 -0.1655
26845SOL     OW84990   9.921   9.731   4.743  0.5239 -0.0623  0.1919
26845SOL    HW184991   9.952   9.641   4.728 -2.3805 -0.9773 -1.0853
26845SOL    HW284992   9.903   9.765   4.655 -2.2107  0.2350  0.7820
26846SOL     OW84993  10.971   6.782   6.007 -0.6878 -0.5260 -0.3068
26846SOL    HW184994  10.910   6.769   5.934 -1.4958 -1.4005  0.4885
26846SOL    HW284995  11.007   6.869   5.993 -2.5494  0.2653 -0.5327
26847SOL     OW84996   7.182   1.842   6.769 -0.6708  0.5042  0.1590
26847SOL    HW184997   7.206   1.909   6.833 -0.8811  0.2687  0.4851
26847SOL    HW284998   7.256   1.840   6.707 -0.8958  1.3941 -0.1475
26848SOL     OW84999   3.796   9.075   8.776 -0.3485 -0.2617 -0.2875
26848SOL    HW185000   3.874   9.051   8.826  0.3689 -0.2863 -1.4079
26848SOL    HW285001   3.754   8.991   8.757 -0.6142 -0.2541  0.2388
26849SOL     OW85002   6.594   6.151   8.384  0.4724 -0.2529 -1.2801
26849SOL    HW185003   6.546   6.068   8.381  0.7720 -0.5845  1.1798
26849SOL    HW285004   6.686   6.126   8.386  0.5511 -0.0193  0.8431
26850SOL     OW85005   1.160   6.508   4.239 -0.3236  0.4568  0.7722
26850SOL    HW185006   1.213   6.576   4.196 -0.8264 -0.2340 -1.0711
26850SOL    HW285007   1.201   6.496   4.324  1.6887  0.8936 -0.0634
26851SOL     OW85008   5.163  10.386   3.653 -0.5628  0.3709  0.1763
26851SOL    HW185009   5.209  10.331   3.590  0.0302  0.4450  0.5414
26851SOL    HW285010   5.098  10.327   3.692  0.5733 -0.3071  1.1169
26852SOL     OW85011   4.827   2.802   0.183  0.3692  0.4976 -0.1438
26852SOL    HW185012   4.909   2.841   0.213  0.9615 -0.9294  0.1520
26852SOL    HW285013   4.768   2.810   0.258  0.5623  0.5880 -0.0013
26853SOL     OW85014   8.689   5.815  10.799 -0.3073  0.0810 -0.1925
26853SOL    HW185015   8.746   5.740  10.816 -0.5191 -0.1475 -0.4877
26853SOL    HW285016   8.604   5.788  10.833 -0.6700 -0.2708 -1.3438
26854SOL     OW85017   2.038   3.418   0.373  0.0686 -0.0593  0.0638
26854SOL    HW185018   1.954   3.399   0.415  0.6220 -0.2161  1.1098
26854SOL    HW285019   2.036   3.513   0.358  0.3721  0.1956  1.5713
26855SOL     OW85020   8.468   8.912   0.830 -0.4744  0.4103  0.1060
26855SOL    HW185021   8.444   8.857   0.756  0.8761  0.9539 -0.7705
26855SOL    HW285022   8.503   8.851   0.895 -4.2706 -0.4643  1.5778
26856SOL     OW85023   0.232   4.752   8.024  0.2229 -0.0205  0.1708
26856SOL    HW185024   0.185   4.834   8.038  2.1693  1.4068 -1.1634
26856SOL    HW285025   0.264   4.727   8.110  0.2457  1.0431  0.4823
26857SOL     OW85026   2.267   9.992   5.288 -0.6421  0.2804  0.4958
26857SOL    HW185027   2.223  10.046   5.353 -1.4349  2.1861 -1.5115
26857SOL    HW285028   2.316  10.054   5.234 -1.2036 -1.0283 -1.6352
26858SOL     OW85029   5.919   2.173   2.080  0.1499 -0.1698  0.5618
26858SOL    HW185030   5.984   2.236   2.112 -0.5005  0.4450  0.7049
26858SOL    HW285031   5.852   2.227   2.037  0.1958 -0.8666 -0.4164
26859SOL     OW85032   7.562   5.656   6.690  0.1547  0.2765 -0.3717
26859SOL    HW185033   7.605   5.698   6.615  0.7281 -0.3359 -0.4003
26859SOL    HW285034   7.527   5.574   6.655 -0.6934  0.5733 -0.2507
26860SOL     OW85035   6.195   2.449   7.152  0.3671 -0.1537 -0.7053
26860SOL    HW185036   6.203   2.544   7.166 -1.4810 -0.1040  0.2612
26860SOL    HW285037   6.111   2.439   7.107 -1.2213 -1.5629  2.3467
26861SOL     OW85038   8.393   9.493   4.120 -0.3327  0.1507 -0.2915
26861SOL    HW185039   8.469   9.549   4.108 -0.9694  1.3781  1.0645
26861SOL    HW285040   8.412   9.444   4.200 -0.6611 -0.0419 -0.3313
26862SOL     OW85041   9.962   9.738  11.045 -0.2543 -0.1057  0.1640
26862SOL    HW185042   9.991   9.672  10.982  0.5643  0.2501  0.1639
26862SOL    HW285043   9.867   9.728  11.047 -0.4772  0.8338 -2.2258
26863SOL     OW85044   8.008   7.113   4.997 -0.0333  0.3849 -0.6226
26863SOL    HW185045   8.072   7.077   4.936 -1.3022  1.1931 -2.5104
26863SOL    HW285046   7.933   7.054   4.991  0.5123 -0.6915  1.7499
26864SOL     OW85047   9.907   6.221   4.755  0.2342  0.0429 -0.0787
26864SOL    HW185048   9.927   6.290   4.818  1.3699 -1.2613  1.0727
26864SOL    HW285049   9.839   6.168   4.798  0.5387 -0.4727 -0.2145
26865SOL     OW85050  10.751   7.895   5.307  0.0306 -0.0141 -0.1341
26865SOL    HW185051  10.807   7.841   5.251  0.1071 -0.7177  0.5903
26865SOL    HW285052  10.709   7.957   5.248  1.4391  0.4078 -0.7263
26866SOL     OW85053   4.091   5.447   6.914  0.6230  0.4253  0.2067
26866SOL    HW185054   4.105   5.488   6.828 -2.8039  1.3344 -0.0758
26866SOL    HW285055   4.042   5.512   6.964 -2.1656 -1.9540  0.9015
26867SOL     OW85056   7.456   0.554   7.037 -0.1264  0.1909 -0.4363
26867SOL    HW185057   7.463   0.459   7.030  2.5859  0.2784 -0.0632
26867SOL    HW285058   7.407   0.581   6.960  0.1257 -1.4100 -1.1922
26868SOL     OW85059  10.929   4.766   5.287  0.2480  0.0334  0.9115
26868SOL    HW185060  10.851   4.735   5.334  0.4172  2.1534  2.7365
26868SOL    HW285061  10.903   4.850   5.250  0.5076 -1.0116 -1.9886
26869SOL     OW85062   8.649   4.391   5.678 -0.2640  0.0885  0.4668
26869SOL    HW185063   8.629   4.465   5.621 -0.3708  0.4234  0.9320
26869SOL    HW285064   8.578   4.390   5.742  0.4557  0.4353  1.2956
26870SOL     OW85065   6.670   7.301   0.003 -0.0166  0.0974 -0.0469
26870SOL    HW185066   6.700   7.371  -0.055 -0.3478  0.3678  0.1033
26870SOL    HW285067   6.574   7.302  -0.006 -0.0854  0.2458  0.6104
26871SOL     OW85068   6.211   0.071   9.603  0.4555 -0.3090  0.3025
26871SOL    HW185069   6.178   0.022   9.678  1.4256  0.0385  0.9809
26871SOL    HW285070   6.136   0.119   9.570 -0.4797 -2.0674 -0.2528
26872SOL     OW85071   5.768   9.161   1.091 -0.0031  0.0510  0.0528
26872SOL    HW185072   5.680   9.184   1.120  0.3416 -0.8585  1.9557
26872SOL    HW285073   5.756   9.081   1.040 -0.4502  0.9450 -1.3340
26873SOL     OW85074   9.303   1.931   1.380 -0.1647 -0.1706  0.2524
26873SOL    HW185075   9.313   1.843   1.415 -0.8858 -0.5353 -0.4265
26873SOL    HW285076   9.364   1.985   1.431  2.2699 -1.5166 -1.1181
26874SOL     OW85077   6.396   9.998   0.443 -0.8108 -0.0758 -0.0925
26874SOL    HW185078   6.462  10.066   0.452 -1.6327  0.5863  1.1715
26874SOL    HW285079   6.445   9.919   0.424  0.3016  0.5214  0.2444
26875SOL     OW85080   3.184   8.249  10.154 -0.1906 -0.0664 -0.3429
26875SOL    HW185081   3.135   8.285  10.228 -0.4400  1.9632 -1.4345
26875SOL    HW285082   3.144   8.164  10.138  0.2228 -0.8251  2.1587
26876SOL     OW85083  10.772  10.409   4.873 -0.0009  0.1307  0.2581
26876SOL    HW185084  10.756  10.315   4.863  1.3751 -0.0047 -1.0717
26876SOL    HW285085  10.697  10.450   4.831 -1.3356 -0.3271  2.1104
26877SOL     OW85086   2.022   6.390   1.930 -0.2466 -0.7474  0.1827
26877SOL    HW185087   2.021   6.416   2.022 -0.7725  0.3225 -0.1048
26877SOL    HW285088   2.077   6.312   1.928 -0.5178 -0.9981  1.4520
26878SOL     OW85089  10.199   5.060   7.098  0.1895  0.9152 -0.4192
26878SOL    HW185090  10.285   5.101   7.100  1.4601 -1.5682  0.1000
26878SOL    HW285091  10.154   5.093   7.175  2.6957 -1.5609  2.3309
26879SOL     OW85092   8.544   9.121   7.315 -0.2058  0.2745  0.0820
26879SOL    HW185093   8.580   9.083   7.395  0.0975 -2.1646 -1.1333
26879SOL    HW285094   8.538   9.215   7.334 -0.5259 -0.2578  3.0750
26880SOL     OW85095   2.709   8.401   1.542  0.0319 -1.0354 -0.2140
26880SOL    HW185096   2.769   8.410   1.616 -0.8353 -0.8443  0.4818
26880SOL    HW285097   2.663   8.319   1.559 -0.1219 -1.0221 -0.5682
26881SOL     OW85098   7.657   9.276   7.223  0.2449 -0.0725  0.1937
26881SOL    HW185099   7.621   9.240   7.142  0.8291  0.6585 -0.4065
26881SOL    HW285100   7.598   9.348   7.245 -0.3136 -0.6962  0.8182
26882SOL     OW85101   2.156   0.269   9.973  0.1169 -0.3520 -0.2806
26882SOL    HW185102   2.192   0.346   9.931  0.7127 -1.3418 -1.6665
26882SOL    HW285103   2.073   0.298  10.010 -0.6111  0.5151 -2.4429
26883SOL     OW85104   8.720  10.814  10.619 -0.1716 -0.1352 -0.2339
26883SOL    HW185105   8.741  10.907  10.617  0.0924 -0.1768  0.4334
26883SOL    HW285106   8.740  10.786  10.708  0.5459 -1.0154 -0.6574
26884SOL     OW85107   3.407   7.104   5.830 -0.2960  0.5786  0.2982
26884SOL    HW185108   3.397   7.068   5.742  0.2902  1.5061 -0.1670
26884SOL    HW285109   3.381   7.033   5.888 -0.9961  0.0522 -0.6250
26885SOL     OW85110  10.999   7.857   4.864  0.7186  0.0524  0.0825
26885SOL    HW185111  10.926   7.795   4.872  1.0623 -0.1504  2.2640
26885SOL    HW285112  11.069   7.806   4.822 -0.3760  0.3182 -2.2584
26886SOL     OW85113   7.179   3.751   0.233  0.2352  0.0266  0.0306
26886SOL    HW185114   7.110   3.731   0.170  0.1383 -1.1874  0.4947
26886SOL    HW285115   7.212   3.837   0.206 -0.5800  0.0454 -0.9685
26887SOL     OW85116  10.281   1.796   2.127 -0.5381  0.4219 -0.4334
26887SOL    HW185117  10.326   1.791   2.043  1.5254 -1.9833  0.6647
26887SOL    HW285118  10.207   1.735   2.118 -0.6935  0.6434 -0.6794
26888SOL     OW85119   6.274   4.836   1.759  0.2180 -0.1899 -0.2848
26888SOL    HW185120   6.206   4.865   1.820  1.1089  1.3907 -0.0074
26888SOL    HW285121   6.231   4.767   1.708 -0.8884 -0.7893  1.3594
26889SOL     OW85122  10.881   4.319   5.257 -0.1015  0.4261  0.4173
26889SOL    HW185123  10.914   4.401   5.221  0.8352 -0.1434 -0.0520
26889SOL    HW285124  10.905   4.252   5.193 -4.4690  0.1970 -1.3623
26890SOL     OW85125   9.952   5.191   3.985  0.3443  0.3651 -0.0147
26890SOL    HW185126   9.927   5.273   4.027  0.0157  0.6758 -0.8133
26890SOL    HW285127  10.042   5.206   3.955  0.5136  0.2059  0.4027
26891SOL     OW85128   5.859   6.948   5.680 -0.2682 -0.2833  0.5273
26891SOL    HW185129   5.802   7.020   5.657  0.0831  0.2200  1.2156
26891SOL    HW285130   5.829   6.875   5.625 -0.8552  0.2749  0.0974
26892SOL     OW85131   6.266   3.375   9.128 -0.4711  0.7266 -0.5033
26892SOL    HW185132   6.198   3.310   9.146  1.9823 -1.8000  0.4326
26892SOL    HW285133   6.271   3.426   9.209 -0.4073  0.0745 -0.0842
26893SOL     OW85134  11.039  10.353   5.761 -0.1112 -0.0003  1.1186
26893SOL    HW185135  11.029  10.445   5.739 -0.5413 -0.0279  1.1916
26893SOL    HW285136  11.103  10.320   5.697 -0.6941  0.1262  0.4476
26894SOL     OW85137   2.848  10.756   2.463 -0.4662  0.3076  0.1756
26894SOL    HW185138   2.920  10.707   2.423 -1.2876 -0.2433 -0.6861
26894SOL    HW285139   2.889  10.836   2.497  0.1618  1.3372 -2.7078
26895SOL     OW85140   7.700   4.095   1.195  0.8764 -0.0687  0.5062
26895SOL    HW185141   7.767   4.157   1.223  1.3105 -1.1754  2.0297
26895SOL    HW285142   7.697   4.029   1.264 -1.6067 -0.2093  0.3553
26896SOL     OW85143   7.626   3.566  10.539 -0.0913  0.3930  0.6213
26896SOL    HW185144   7.706   3.532  10.579  0.2780 -1.1712 -1.3057
26896SOL    HW285145   7.653   3.597  10.453 -1.3989  0.7322  0.3042
26897SOL     OW85146   1.261   8.736   8.366 -0.8001 -0.7976 -0.1141
26897SOL    HW185147   1.204   8.803   8.404  0.3765  0.0883  0.1162
26897SOL    HW285148   1.350   8.769   8.379 -0.2801 -1.3107 -2.0624
26898SOL     OW85149   9.445   4.259   8.440  0.4694 -0.2972 -0.0635
26898SOL    HW185150   9.427   4.190   8.376  0.2963  0.2153 -0.5817
26898SOL    HW285151   9.368   4.316   8.435  1.8033  1.4731 -1.6942
26899SOL     OW85152   0.798   3.101   5.177  0.3867 -0.4384  0.0512
26899SOL    HW185153   0.744   3.166   5.222 -0.4089  0.7443 -2.4201
26899SOL    HW285154   0.863   3.074   5.242 -1.6465 -0.0955  2.3753
26900SOL     OW85155  10.843   4.446   3.450  0.1016 -0.5781 -0.2260
26900SOL    HW185156  10.803   4.407   3.527 -0.3207 -1.4596 -0.8785
26900SOL    HW285157  10.771   4.456   3.387 -0.1085  2.4855  0.3413
26901SOL     OW85158   2.985   7.127   1.397  0.5164  0.1184 -0.2090
26901SOL    HW185159   2.918   7.154   1.335  0.2176  0.2559  0.1691
26901SOL    HW285160   2.951   7.046   1.435  0.1030  0.6984  0.6881
26902SOL     OW85161   1.757   1.968   2.829 -0.0922  0.7174 -0.4946
26902SOL    HW185162   1.699   2.018   2.771 -0.4218 -0.5257 -1.2639
26902SOL    HW285163   1.698   1.928   2.892  0.0477  0.3406 -0.6046
26903SOL     OW85164   1.428   9.346   4.848  0.1525  0.3642 -0.1932
26903SOL    HW185165   1.422   9.375   4.757 -1.4551 -0.8595 -0.5304
26903SOL    HW285166   1.520   9.358   4.871  0.1330  3.1562 -1.1077
26904SOL     OW85167  10.003   4.782   1.707  0.2950  0.0687 -0.4299
26904SOL    HW185168  10.067   4.728   1.662  2.0647  1.3397  0.4516
26904SOL    HW285169  10.026   4.776   1.799 -1.7713 -0.5572  0.1007
26905SOL     OW85170   5.176   2.410   4.762  0.2437  0.0611 -0.1848
26905SOL    HW185171   5.176   2.501   4.790  1.9061  0.3182 -0.9213
26905SOL    HW285172   5.083   2.385   4.760 -0.1641  1.2828  1.4038
26906SOL     OW85173   2.442   3.907   5.445  0.0814 -0.2266 -0.5596
26906SOL    HW185174   2.401   3.965   5.510 -1.0583 -2.1737  0.5710
26906SOL    HW285175   2.369   3.854   5.412  0.8941 -0.2673 -2.4080
26907SOL     OW85176   5.499   0.619   7.248  0.0277  0.1595  0.2908
26907SOL    HW185177   5.451   0.684   7.300  0.2903 -0.0820  0.8515
26907SOL    HW285178   5.560   0.579   7.311  3.5970  2.9437 -1.0130
26908SOL     OW85179   1.504   8.832   4.384 -0.1725  0.4685  0.1474
26908SOL    HW185180   1.417   8.806   4.415 -0.1719 -0.7370 -0.7872
26908SOL    HW285181   1.491   8.851   4.291  0.7247 -0.7149 -0.2516
26909SOL     OW85182   7.114   9.482   6.327 -0.2842  0.0614  0.0277
26909SOL    HW185183   7.152   9.506   6.242  0.6968  0.2367  0.5051
26909SOL    HW285184   7.024   9.458   6.307  0.6433 -2.5945 -1.5112
26910SOL     OW85185  10.493   5.058   7.292 -0.1856 -0.1320  0.1816
26910SOL    HW185186  10.527   4.982   7.245 -1.0481 -0.5282  0.1732
26910SOL    HW285187  10.521   5.046   7.383 -0.3550 -0.4850  0.1870
26911SOL     OW85188   2.541   7.757   2.017  0.3926 -0.0299  0.1754
26911SOL    HW185189   2.555   7.663   2.019 -0.5897 -0.2313 -0.9464
26911SOL    HW285190   2.483   7.775   2.091 -2.0156 -0.8372 -1.3906
26912SOL     OW85191   3.063   6.192   2.910  0.2725 -0.5117  0.5377
26912SOL    HW185192   3.025   6.193   2.822  0.7098 -0.5171  0.3477
26912SOL    HW285193   2.995   6.230   2.965 -1.3212 -3.3738  0.7475
26913SOL     OW85194   2.859  10.650   5.262 -0.0943  0.3426  0.3914
26913SOL    HW185195   2.800  10.720   5.231 -0.6327 -0.0812  0.4519
26913SOL    HW285196   2.897  10.614   5.182  0.0527  0.5840  0.3497
26914SOL     OW85197  10.857   0.818  10.555  0.5608 -0.1114 -0.2803
26914SOL    HW185198  10.897   0.751  10.611  1.0484 -0.2134 -0.7516
26914SOL    HW285199  10.764   0.793  10.552  0.4635  0.0790  0.7460
26915SOL     OW85200   8.514   2.805   2.118 -0.3672  0.1118  0.0465
26915SOL    HW185201   8.485   2.727   2.069  0.1591 -1.0580  1.5137
26915SOL    HW285202   8.597   2.778   2.157 -1.8391  0.1174  3.4797
26916SOL     OW85203   6.420   7.685   2.167  0.7114  0.1919  0.6474
26916SOL    HW185204   6.515   7.680   2.182  0.3415  0.9610  3.6910
26916SOL    HW285205   6.381   7.675   2.253 -2.0188  0.1953 -0.4930
26917SOL     OW85206   9.498   8.974   8.914 -0.3811  0.3310  0.0055
26917SOL    HW185207   9.518   9.045   8.974 -2.5722  0.9445  0.1069
26917SOL    HW285208   9.471   9.018   8.833 -0.5187 -0.4144 -0.3644
26918SOL     OW85209   4.654   6.947   7.553 -0.4561 -0.1292 -0.4253
26918SOL    HW185210   4.656   6.927   7.459 -0.3249 -2.3448 -0.0099
26918SOL    HW285211   4.651   6.861   7.596 -1.0352  0.8362  1.6026
26919SOL     OW85212   4.459   1.567   7.809 -0.0669 -0.4315  0.3195
26919SOL    HW185213   4.513   1.625   7.863  0.8046 -0.2485 -0.7095
26919SOL    HW285214   4.522   1.523   7.752 -1.0492  0.1685 -1.2790
26920SOL     OW85215   5.878   8.888   9.269  0.1364 -0.8460 -0.3230
26920SOL    HW185216   5.807   8.939   9.230  0.4705  0.1405  0.3247
26920SOL    HW285217   5.835   8.809   9.302 -0.8089  0.0376  0.6761
26921SOL     OW85218   7.312   2.619   4.577 -0.6717  0.1436 -0.1773
26921SOL    HW185219   7.256   2.665   4.515 -2.7069 -0.5463  1.0513
26921SOL    HW285220   7.265   2.539   4.598 -0.3459  0.5612  2.5828
26922SOL     OW85221   9.131  10.629   9.494  0.5283 -0.0514 -0.0251
26922SOL    HW185222   9.167  10.635   9.582  1.7845 -2.8416 -0.2391
26922SOL    HW285223   9.198  10.581   9.444 -0.2168  1.2824 -2.4758
26923SOL     OW85224   7.429   5.465   6.570  0.6303  0.1981 -0.3257
26923SOL    HW185225   7.344   5.497   6.600 -0.2827  0.4203 -2.8710
26923SOL    HW285226   7.425   5.370   6.581  0.8662  0.3501  1.3552
26924SOL     OW85227   7.708   7.544  10.846 -0.7769  0.4219  0.0793
26924SOL    HW185228   7.726   7.490  10.769 -1.6575  1.6281 -1.0108
26924SOL    HW285229   7.686   7.481  10.914 -0.0948 -0.6716 -0.6740
26925SOL     OW85230   0.907   7.013   0.503 -0.5564 -0.2090 -0.0999
26925SOL    HW185231   0.984   7.047   0.459 -0.8795 -0.7147 -1.0968
26925SOL    HW285232   0.845   7.086   0.503 -0.9010 -0.4828 -1.3657
26926SOL     OW85233   0.794   8.093   3.186  0.8128  1.0854  0.0395
26926SOL    HW185234   0.853   8.166   3.172 -0.5109  2.4633  1.2475
26926SOL    HW285235   0.709   8.123   3.153  0.0636  0.4531  1.2828
26927SOL     OW85236  10.198   9.978  10.196 -0.1216  0.8260  0.0843
26927SOL    HW185237  10.254   9.900  10.195 -0.9946  0.0975 -3.1624
26927SOL    HW285238  10.252  10.046  10.155 -1.4290  0.0913 -3.1690
26928SOL     OW85239   3.783   6.224  10.542 -0.1219  0.4986  0.5291
26928SOL    HW185240   3.751   6.176  10.618 -2.2631 -3.2832 -2.4166
26928SOL    HW285241   3.873   6.193  10.530 -0.4156 -0.3876  0.5148
26929SOL     OW85242   8.923   4.922   9.004 -0.5497  0.0945  0.2167
26929SOL    HW185243   8.963   4.997   9.048 -0.3867 -0.1624  0.5128
26929SOL    HW285244   8.904   4.953   8.916 -0.6031  0.5234  0.3749
26930SOL     OW85245   8.258  10.501   3.376 -0.2145  0.2889 -0.5619
26930SOL    HW185246   8.261  10.593   3.401  0.5873 -0.6557  3.6053
26930SOL    HW285247   8.350  10.477   3.362 -0.4820  0.2377 -2.4504
26931SOL     OW85248   2.462   3.585  10.945 -0.3312  0.2491 -0.5018
26931SOL    HW185249   2.415   3.519  10.894 -0.2051 -0.1755 -0.0739
26931SOL    HW285250   2.494   3.538  11.021 -0.2260  0.8038 -0.1981
26932SOL     OW85251   5.824   1.622   3.805  0.3019 -0.5620  0.8102
26932SOL    HW185252   5.797   1.594   3.892 -0.4342 -1.2842  0.3681
26932SOL    HW285253   5.818   1.718   3.807 -0.7520 -0.6250  1.2239
26933SOL     OW85254   1.618   3.304  10.595 -0.0013  0.2778 -0.1417
26933SOL    HW185255   1.666   3.383  10.567  1.6817  0.1293  2.0348
26933SOL    HW285256   1.682   3.254  10.646 -2.2913 -0.2067  2.5191
26934SOL     OW85257  10.709   2.198   3.445  0.1319  0.2857 -0.3644
26934SOL    HW185258  10.722   2.190   3.539 -1.5556  0.7061 -0.0713
26934SOL    HW285259  10.694   2.292   3.431  0.1004  0.1879 -1.0202
26935SOL     OW85260   4.845   5.350   9.038  0.0460  0.2462 -0.4594
26935SOL    HW185261   4.834   5.315   9.127  0.8849 -0.0572 -0.4690
26935SOL    HW285262   4.806   5.284   8.981 -0.3400  0.3620 -0.3345
26936SOL     OW85263   4.062   0.392   9.500 -0.8438  0.5240 -0.0764
26936SOL    HW185264   4.030   0.399   9.590  1.3806  2.7256  0.6605
26936SOL    HW285265   3.999   0.444   9.449 -3.1955 -2.2610 -0.2481
26937SOL     OW85266   7.431   3.001   1.489 -0.4675 -0.0255 -0.0530
26937SOL    HW185267   7.399   3.037   1.406 -0.2930 -1.8637 -0.9477
26937SOL    HW285268   7.448   3.079   1.543  0.9806  1.3287 -2.2775
26938SOL     OW85269  10.001   1.579   1.806 -0.0812 -0.3809  0.3419
26938SOL    HW185270   9.906   1.568   1.799 -0.3700  1.5148  0.7627
26938SOL    HW285271  10.026   1.626   1.726  0.6098 -1.3174 -0.0141
26939SOL     OW85272  10.176   0.958   5.509  0.0886  0.2679 -0.1435
26939SOL    HW185273  10.225   0.877   5.495  1.5377  0.9393  0.7882
26939SOL    HW285274  10.126   0.942   5.589  2.0949  1.0018  1.3368
26940SOL     OW85275  10.983   8.865   7.964  0.6938 -0.3484  0.6851
26940SOL    HW185276  10.979   8.907   7.878  0.7768 -1.6239  0.0371
26940SOL    HW285277  11.050   8.914   8.011 -1.3822  2.2827  1.1262
26941SOL     OW85278   0.862   7.594   2.002 -0.6094 -0.2304  0.0105
26941SOL    HW185279   0.933   7.654   1.982 -0.9539  0.3300  0.4388
26941SOL    HW285280   0.782   7.645   1.985 -0.9040 -0.4336  0.7310
26942SOL     OW85281   7.799   4.412  10.012 -0.0895 -0.2219  0.0712
26942SOL    HW185282   7.718   4.439   9.969 -1.1825 -2.3119  0.6579
26942SOL    HW285283   7.780   4.324  10.045  1.1721  0.5843  3.4142
26943SOL     OW85284   6.470  10.427   5.538  0.5699 -0.4976  0.3397
26943SOL    HW185285   6.483  10.361   5.469 -1.8701  0.8118 -1.5376
26943SOL    HW285286   6.407  10.387   5.597 -3.2794  0.9346 -2.3770
26944SOL     OW85287   4.454   4.790   1.109  0.0236 -0.2425  0.0237
26944SOL    HW185288   4.389   4.857   1.090  0.3767 -0.2741 -1.4351
26944SOL    HW285289   4.404   4.711   1.129 -0.4079 -0.3312 -1.3324
26945SOL     OW85290   7.643   6.509   1.951  0.4678  0.0255  0.0832
26945SOL    HW185291   7.692   6.467   2.021  0.6516 -0.3605 -0.2750
26945SOL    HW285292   7.634   6.600   1.979 -0.4716 -0.3689  1.1609
26946SOL     OW85293  10.006   2.152  10.834 -0.4408  0.2378  0.5651
26946SOL    HW185294  10.051   2.114  10.910 -1.2946  0.5297  1.2312
26946SOL    HW285295  10.043   2.240  10.826  0.4068 -0.1625 -0.0111
26947SOL     OW85296   9.043   7.125   2.793 -0.6827 -1.2832  0.1379
26947SOL    HW185297   8.976   7.188   2.765  0.1152 -0.8116 -0.7470
26947SOL    HW285298   9.074   7.085   2.711  2.1667  0.5910  0.1731
26948SOL     OW85299   3.127   2.724   2.903  0.6859 -0.0483  0.4260
26948SOL    HW185300   3.115   2.761   2.815  0.2545  0.9791  0.9033
26948SOL    HW285301   3.108   2.797   2.962  1.3636 -0.6226  1.3694
26949SOL     OW85302   1.558   8.797   3.360 -0.0792 -0.3544  0.3770
26949SOL    HW185303   1.474   8.812   3.404  0.1003 -0.6841  0.8378
26949SOL    HW285304   1.608   8.742   3.421 -0.1366 -1.5170 -0.5934
26950SOL     OW85305   9.206   1.284   6.399  0.6006  0.5521 -0.4284
26950SOL    HW185306   9.163   1.368   6.381  1.1970  1.0714  0.4712
26950SOL    HW285307   9.262   1.268   6.322 -0.2586  0.4733 -1.0502
26951SOL     OW85308   2.053   5.922   7.490  0.0992  0.4717  0.3639
26951SOL    HW185309   2.079   5.991   7.551 -1.7310 -0.8138  2.8406
26951SOL    HW285310   2.014   5.854   7.547  0.5266 -1.9685 -2.0504
26952SOL     OW85311   7.586   4.599   9.917 -0.0330  0.4438  0.0774
26952SOL    HW185312   7.602   4.656   9.842  0.8789 -1.1522 -1.0042
26952SOL    HW285313   7.503   4.629   9.953  0.1571  2.0834 -0.7564
26953SOL     OW85314   0.522   7.734   6.680 -0.5648 -0.1870  0.1774
26953SOL    HW185315   0.578   7.658   6.665  0.3829  0.4614  0.3068
26953SOL    HW285316   0.544   7.795   6.609  0.4753  0.9416  1.4069
26954SOL     OW85317   3.736  10.200  11.044  0.3009  0.5877 -0.1596
26954SOL    HW185318   3.812  10.211  10.986 -1.1482  1.2828 -2.0434
26954SOL    HW285319   3.740  10.274  11.104  1.4184  0.2819  0.1676
26955SOL     OW85320   1.973   5.117   1.361 -0.2607  0.0841 -0.1590
26955SOL    HW185321   1.895   5.164   1.332 -1.6101 -0.5707  2.0778
26955SOL    HW285322   2.037   5.128   1.291 -2.5099  0.2848 -2.2920
26956SOL     OW85323   2.381   5.211  10.518 -0.1494  0.3264  0.8682
26956SOL    HW185324   2.389   5.167  10.434  0.9153  3.0798 -0.5911
26956SOL    HW285325   2.446   5.282  10.515 -1.5595  1.8662  3.1141
26957SOL     OW85326   0.554  10.879   8.094 -0.1481 -0.4901 -0.2268
26957SOL    HW185327   0.556  10.785   8.112  0.2379 -0.3292  0.5659
26957SOL    HW285328   0.485  10.888   8.028  0.0806 -1.3757 -0.6127
26958SOL     OW85329   6.259   5.822   8.844  0.1055 -0.7210  0.0351
26958SOL    HW185330   6.289   5.861   8.926 -1.8317 -0.5465  0.7316
26958SOL    HW285331   6.272   5.728   8.855  0.8503 -0.6115  0.0988
26959SOL     OW85332   1.210   3.723   5.626 -0.4320 -0.4780  0.7599
26959SOL    HW185333   1.197   3.704   5.719  0.0706  1.9612  1.3956
26959SOL    HW285334   1.122   3.733   5.591 -0.6190 -1.0857  1.0423
26960SOL     OW85335   7.636   8.328   5.446  0.0669 -0.7292  0.1220
26960SOL    HW185336   7.560   8.373   5.409  0.4526  0.1545  0.3791
26960SOL    HW285337   7.710   8.365   5.398  0.3926 -1.0585  0.3747
26961SOL     OW85338   1.911  11.069   0.900 -0.0211 -0.1163 -0.0946
26961SOL    HW185339   1.922  11.163   0.913  0.8781 -0.1938 -0.2847
26961SOL    HW285340   1.845  11.044   0.966  1.3730  0.2577  1.5192
26962SOL     OW85341   5.682   0.371   4.902 -0.5212 -0.1653  0.7220
26962SOL    HW185342   5.716   0.283   4.886  0.0717  0.2018 -0.0970
26962SOL    HW285343   5.753   0.416   4.947 -0.1291  0.4166 -0.4374
26963SOL     OW85344   8.995   9.786   7.427 -0.7355  0.0613 -0.1046
26963SOL    HW185345   9.016   9.873   7.460 -0.6961  0.0852 -0.1919
26963SOL    HW285346   8.907   9.768   7.460 -1.0813  0.4751 -0.7812
26964SOL     OW85347   5.090   0.861   4.796 -0.0982 -0.0949 -0.3485
26964SOL    HW185348   5.172   0.814   4.810 -0.2515 -0.6269 -1.1906
26964SOL    HW285349   5.024   0.807   4.841 -0.1417 -0.2130 -0.5543
26965SOL     OW85350   6.574   4.752   3.341  0.2587 -0.0087  0.9348
26965SOL    HW185351   6.590   4.751   3.247  0.3925  1.8163  0.8882
26965SOL    HW285352   6.553   4.662   3.364 -0.9320 -0.2863 -1.0493
26966SOL     OW85353   9.443  11.048   2.715  0.7294 -0.3824  0.0194
26966SOL    HW185354   9.525  11.097   2.722  0.0958  0.6471  0.3948
26966SOL    HW285355   9.438  11.026   2.622  0.7255  0.8175 -0.2844
26967SOL     OW85356   3.805   1.339   7.504 -0.5325  0.4407  0.1911
26967SOL    HW185357   3.900   1.330   7.507 -0.6418 -1.1746 -0.1846
26967SOL    HW285358   3.779   1.356   7.594 -0.0187 -0.9342  0.6231
26968SOL     OW85359   4.979   9.534   5.762 -0.0063  0.5555 -0.1535
26968SOL    HW185360   5.012   9.618   5.732  2.3764 -0.2361  0.0588
26968SOL    HW285361   4.957   9.487   5.682 -0.5323  1.0550 -0.3087
26969SOL     OW85362   5.204   0.885   5.143 -1.0644  0.1961 -0.2633
26969SOL    HW185363   5.112   0.901   5.118 -1.3865 -1.9933 -0.6626
26969SOL    HW285364   5.249   0.966   5.117 -2.7016  0.9616 -0.9541
26970SOL     OW85365   5.257  11.032   3.087  0.3370 -0.4316 -0.2200
26970SOL    HW185366   5.249  10.960   3.150  0.8005 -0.5350 -0.2776
26970SOL    HW285367   5.319  11.093   3.127  1.9816 -1.3173 -1.3246
26971SOL     OW85368   6.933  10.990   2.213 -0.1684  0.0692  0.5029
26971SOL    HW185369   6.986  10.931   2.268  0.6486  2.3158  2.2625
26971SOL    HW285370   6.991  11.062   2.192 -1.7663  1.3405  0.2676
26972SOL     OW85371   5.341   2.148   7.666  0.5418  0.7482 -0.3398
26972SOL    HW185372   5.433   2.129   7.682  0.6381  1.4029 -0.0787
26972SOL    HW285373   5.341   2.213   7.595  0.2057 -0.5075 -1.5223
26973SOL     OW85374   0.350  10.411   2.745  0.0925 -0.2702  0.3051
26973SOL    HW185375   0.299  10.352   2.801  0.8988 -1.1322  0.1619
26973SOL    HW285376   0.286  10.474   2.712 -0.5340 -0.1952  1.5940
26974SOL     OW85377   5.424   1.218   5.408 -0.1320  0.3265  0.5555
26974SOL    HW185378   5.447   1.147   5.348 -1.5096  1.3488 -1.2910
26974SOL    HW285379   5.329   1.212   5.417  0.0391  0.2304  2.6628
26975SOL     OW85380   2.126   3.071  10.785 -0.4783  0.2301  0.1615
26975SOL    HW185381   2.206   3.019  10.789  0.2511  1.3513  3.0615
26975SOL    HW285382   2.134   3.122  10.704  0.6072 -1.3246 -0.7589
26976SOL     OW85383   7.254   7.610   0.009  0.4297 -0.3219 -0.0989
26976SOL    HW185384   7.341   7.647  -0.005 -0.0895  0.0521 -2.8097
26976SOL    HW285385   7.262   7.518  -0.016 -0.0002 -0.2097 -0.6808
26977SOL     OW85386   0.657  10.147   6.079  0.0067 -0.8232  0.1610
26977SOL    HW185387   0.664  10.089   6.154 -0.6700 -0.5156  0.4707
26977SOL    HW285388   0.617  10.227   6.114 -1.5324 -1.1480 -0.7472
26978SOL     OW85389   6.926   8.431   2.028 -0.0203  0.1964  0.4628
26978SOL    HW185390   6.852   8.445   2.087 -0.7949  0.3100 -0.5172
26978SOL    HW285391   6.979   8.366   2.073 -0.3182  0.6567  1.5275
26979SOL     OW85392   8.805   1.836   6.137 -0.1873 -0.0747  0.4605
26979SOL    HW185393   8.757   1.919   6.142 -2.4955 -1.1537 -1.5631
26979SOL    HW285394   8.780   1.789   6.217  0.5143  0.8097  1.2290
26980SOL     OW85395   8.914   9.975   5.952  0.0724  0.6216 -0.8359
26980SOL    HW185396   8.920  10.039   6.023  0.8796  1.5853 -1.7429
26980SOL    HW285397   9.005   9.952   5.932 -0.2151 -2.1500  0.5954
26981SOL     OW85398  10.711   8.458  10.163 -0.2803 -0.6157  0.2987
26981SOL    HW185399  10.676   8.378  10.202 -2.4683  0.6332  1.0717
26981SOL    HW285400  10.637   8.519  10.163 -0.4599 -0.3016 -5.5789
26982SOL     OW85401   8.344   9.228   2.747 -0.0092  0.4990  0.2728
26982SOL    HW185402   8.342   9.158   2.811  2.5035 -1.4948 -1.6275
26982SOL    HW285403   8.414   9.286   2.777  2.4602 -1.4034 -1.3784
26983SOL     OW85404   6.082   6.009   6.123 -0.1043 -0.5427  0.2121
26983SOL    HW185405   6.134   5.929   6.122  2.2630  0.8999 -1.3911
26983SOL    HW285406   6.144   6.078   6.147 -0.7983  1.5047 -3.2475
26984SOL     OW85407   3.557   6.209   3.525 -0.0991  0.2572  0.0189
26984SOL    HW185408   3.543   6.167   3.440  0.7260  2.9655 -1.5921
26984SOL    HW285409   3.628   6.158   3.565  0.1276 -0.5445 -1.3299
26985SOL     OW85410   4.666   8.829   0.937  0.2381  0.2017 -0.5646
26985SOL    HW185411   4.745   8.802   0.984  0.0235 -1.5513 -1.1628
26985SOL    HW285412   4.679   8.922   0.919  0.9814  0.5784  1.6485
26986SOL     OW85413   9.836   1.446   5.210 -0.1127 -0.1135 -0.1202
26986SOL    HW185414   9.795   1.365   5.242  0.9624 -0.9250 -0.7018
26986SOL    HW285415   9.826   1.441   5.115  2.3646 -1.0101 -0.4316
26987SOL     OW85416   1.468   7.936   1.928  0.0571  0.1256  0.4149
26987SOL    HW185417   1.522   8.011   1.953 -0.5643  0.1764  1.7244
26987SOL    HW285418   1.410   7.969   1.859 -0.1377  0.8377  0.9041
26988SOL     OW85419   7.229   9.696   1.946  0.2464  0.5301 -0.0471
26988SOL    HW185420   7.233   9.600   1.943  0.1431  0.5005  0.5972
26988SOL    HW285421   7.314   9.723   1.981  0.3931  0.6894 -0.5303
26989SOL     OW85422   1.179   7.499   2.004  0.1667  0.0266  0.3868
26989SOL    HW185423   1.217   7.472   1.921 -0.1042 -1.7827  0.8018
26989SOL    HW285424   1.113   7.565   1.981  2.0662  1.7245 -0.5207
26990SOL     OW85425   8.036   7.925   3.508  0.1602  0.4643  0.1438
26990SOL    HW185426   7.990   7.922   3.592 -1.6071 -1.2952 -0.8045
26990SOL    HW285427   8.118   7.879   3.524  0.1491  0.7530  1.0659
26991SOL     OW85428   3.250   8.019   9.681  0.2854  0.1567  0.1736
26991SOL    HW185429   3.184   7.952   9.695  0.0722  0.7080  2.1245
26991SOL    HW285430   3.202   8.101   9.679  0.8189  0.4875  0.6547
26992SOL     OW85431   2.892   4.681  10.586  0.0487 -0.4277 -0.6299
26992SOL    HW185432   2.924   4.616  10.648 -1.3942  0.1759  0.8495
26992SOL    HW285433   2.798   4.686  10.604 -0.4396 -0.2931 -2.9697
26993SOL     OW85434  10.901   5.802   5.502 -0.3863 -0.1075  0.2283
26993SOL    HW185435  10.832   5.754   5.549 -1.5048  0.3234 -0.9181
26993SOL    HW285436  10.857   5.880   5.468  0.2507 -0.5995 -1.8860
26994SOL     OW85437  10.515   3.840   8.580 -0.2665  0.7263 -0.0201
26994SOL    HW185438  10.597   3.799   8.605 -0.2096  0.9413  0.1537
26994SOL    HW285439  10.497   3.903   8.650 -0.0918  1.3506 -0.5262
26995SOL     OW85440   0.978   0.566   1.804  0.0669 -0.1140  0.2438
26995SOL    HW185441   0.929   0.485   1.788 -0.6346 -0.7280  4.5007
26995SOL    HW285442   0.915   0.636   1.790 -0.7566 -0.6379  1.2529
26996SOL     OW85443   2.688   4.220   4.007  0.0402 -0.1270 -0.5921
26996SOL    HW185444   2.617   4.158   3.990 -1.6664  0.6963  2.6869
26996SOL    HW285445   2.653   4.304   3.978  0.1910  0.0833 -0.1625
26997SOL     OW85446   0.551   6.309   6.984 -0.2085 -0.0212  0.0739
26997SOL    HW185447   0.576   6.223   7.018 -2.4706 -0.6554  0.2995
26997SOL    HW285448   0.622   6.367   7.012  0.4501 -1.4606  1.5798
26998SOL     OW85449   9.251   4.902   0.115  0.0182  0.0378 -0.1902
26998SOL    HW185450   9.314   4.892   0.186 -1.8836 -1.9179  1.3648
26998SOL    HW285451   9.198   4.978   0.140  0.2920  0.2793 -0.3298
26999SOL     OW85452   8.157   4.219   9.571 -0.4454  0.0136 -0.1391
26999SOL    HW185453   8.133   4.308   9.544 -1.4858  0.0659  0.8657
26999SOL    HW285454   8.073   4.175   9.583 -0.0087 -0.4151  1.5723
27000SOL     OW85455   9.459   1.910   1.023 -0.2140  0.0043  0.2008
27000SOL    HW185456   9.514   1.987   1.036  1.2930 -1.0522  0.2346
27000SOL    HW285457   9.442   1.907   0.929 -2.8060  2.0091  0.4734
27001SOL     OW85458   1.490   7.615  10.071 -0.1434  0.3694  0.4638
27001SOL    HW185459   1.567   7.620  10.128 -0.5630  1.4766  0.9483
27001SOL    HW285460   1.525   7.587   9.987  0.7502  0.5467  0.7638
27002SOL     OW85461  10.092   2.742  10.994 -0.4784  0.1354  0.4923
27002SOL    HW185462  10.129   2.827  10.971 -0.4357  0.2385  0.9393
27002SOL    HW285463  10.087   2.695  10.911  0.8278  0.0437  0.4448
27003SOL     OW85464   9.361  10.535   9.389 -0.3316 -0.0676 -0.3448
27003SOL    HW185465   9.348  10.443   9.369 -0.0428 -0.2471  0.2541
27003SOL    HW285466   9.456  10.548   9.379 -0.0548 -0.3394  1.5063
27004SOL     OW85467   7.079   9.345   8.871  0.1644 -0.0659 -0.0396
27004SOL    HW185468   7.103   9.308   8.786 -0.3855 -0.0319 -0.2116
27004SOL    HW285469   7.159   9.388   8.901  1.1351 -2.1629  0.6008
27005SOL     OW85470   7.716   4.182   7.225 -0.7727 -0.2054  0.0097
27005SOL    HW185471   7.790   4.122   7.225  1.7475  2.5960 -1.3576
27005SOL    HW285472   7.672   4.168   7.309  1.7878 -1.4940  1.2214
27006SOL     OW85473   8.635   0.645   1.955  0.0298 -0.1270  0.2859
27006SOL    HW185474   8.646   0.715   2.020  0.8433  0.5604 -0.5680
27006SOL    HW285475   8.681   0.570   1.993  0.4199  0.2401  0.5576
27007SOL     OW85476   2.918   8.791   5.016  0.0653  0.0914 -0.4862
27007SOL    HW185477   2.953   8.860   4.960 -1.1162  1.0988 -0.0321
27007SOL    HW285478   2.879   8.838   5.090 -1.1473 -1.0419 -0.3712
27008SOL     OW85479   7.968   4.394   1.575 -0.0456 -0.7248  0.2046
27008SOL    HW185480   7.991   4.423   1.487 -2.5406 -1.2093 -0.6814
27008SOL    HW285481   7.893   4.336   1.563  1.2448 -3.1111  2.4123
27009SOL     OW85482   3.261   0.504   0.408 -0.3233  0.6080 -0.0248
27009SOL    HW185483   3.198   0.564   0.448 -0.9741  0.0171 -0.1361
27009SOL    HW285484   3.212   0.462   0.337 -0.4504 -1.3745  1.1845
27010SOL     OW85485   5.178   0.944   0.038  0.4085 -0.4087 -0.3048
27010SOL    HW185486   5.246   0.919   0.100 -1.1492  1.5048  2.3773
27010SOL    HW285487   5.106   0.882   0.055 -0.1943  0.4027  0.1613
27011SOL     OW85488   7.129   5.193   9.471  0.2575  0.4200 -0.2755
27011SOL    HW185489   7.040   5.229   9.469  0.5460  1.1114 -1.1429
27011SOL    HW285490   7.155   5.199   9.563 -1.0877 -1.0958  0.2635
27012SOL     OW85491   5.758  10.277   6.058  0.0603  0.6284  0.1011
27012SOL    HW185492   5.815  10.206   6.089 -0.4029  0.2109  0.0052
27012SOL    HW285493   5.799  10.357   6.092  0.9861  0.3819 -0.4004
27013SOL     OW85494   2.250   8.751   4.506 -0.1291  0.7307 -0.1275
27013SOL    HW185495   2.242   8.844   4.528 -0.9794  0.2637  1.6893
27013SOL    HW285496   2.236   8.705   4.588 -0.9423 -1.0826 -1.2145
27014SOL     OW85497  10.501   8.684   7.877 -0.1361  0.2899 -0.2556
27014SOL    HW185498  10.453   8.751   7.926 -1.5811 -0.6018 -0.3717
27014SOL    HW285499  10.593   8.709   7.885 -0.4646  1.0928  1.4971
27015SOL     OW85500   0.098   4.547   7.031 -0.1294 -0.3156  0.4082
27015SOL    HW185501   0.078   4.536   7.124  0.1687  0.9057  0.6336
27015SOL    HW285502   0.143   4.631   7.026 -1.8146  0.5594 -1.0636
27016SOL     OW85503   1.001   7.548   4.637  0.2571  0.1871 -0.0392
27016SOL    HW185504   0.932   7.560   4.703  0.6539  1.2670  0.2082
27016SOL    HW285505   1.082   7.544   4.689  0.5063  0.3660 -0.4124
27017SOL     OW85506   0.153   3.457   8.624 -0.0180 -0.4785 -0.4979
27017SOL    HW185507   0.191   3.369   8.631 -0.5437 -0.5734  2.1887
27017SOL    HW285508   0.200   3.508   8.689  1.7017  1.8901 -3.3717
27018SOL     OW85509   9.168   7.645   5.104 -0.3908 -0.0449  0.0585
27018SOL    HW185510   9.111   7.679   5.172 -0.4383 -0.4652  0.2303
27018SOL    HW285511   9.242   7.706   5.102  0.6067 -1.1255  1.8810
27019SOL     OW85512  10.181   1.240   3.828  0.1786  0.0491  0.0358
27019SOL    HW185513  10.204   1.152   3.855  0.2992 -0.4120 -1.4577
27019SOL    HW285514  10.263   1.279   3.799 -0.0421  0.2787 -0.2942
27020SOL     OW85515   2.037   5.009   9.482 -0.6322 -0.5456 -0.1609
27020SOL    HW185516   2.104   4.947   9.452 -0.2735 -0.0909 -0.3047
27020SOL    HW285517   2.045   5.084   9.424 -0.3697  0.0693  0.6517
27021SOL     OW85518   2.259   7.086   2.162 -0.4846  0.5255 -0.3355
27021SOL    HW185519   2.289   6.996   2.145  0.8447  0.6900  0.9419
27021SOL    HW285520   2.226   7.116   2.077  1.2601 -0.3570 -1.3991
27022SOL     OW85521   2.308   0.696   6.891 -0.2388 -0.0136 -0.1844
27022SOL    HW185522   2.385   0.751   6.903 -1.1874  1.2723  0.3404
27022SOL    HW285523   2.236   0.758   6.880 -1.3046 -1.1554  0.0698
27023SOL     OW85524   4.957   6.154   3.078  0.4810 -0.4574 -0.7014
27023SOL    HW185525   4.891   6.099   3.036  0.1016  0.1365 -0.8873
27023SOL    HW285526   4.977   6.109   3.161 -1.2168  0.0891  0.0425
27024SOL     OW85527   6.212   8.217   1.583  0.4022 -0.0275  0.1852
27024SOL    HW185528   6.177   8.306   1.578  1.1668  0.2932  0.5099
27024SOL    HW285529   6.153   8.172   1.644  0.5603  0.5133  0.7418
27025SOL     OW85530  10.022  10.012   2.760 -0.6775 -0.0417 -0.2104
27025SOL    HW185531  10.016   9.991   2.667 -0.2266 -0.2145 -0.2062
27025SOL    HW285532   9.933  10.005   2.793 -0.9097  0.4332 -0.7175
27026SOL     OW85533  10.341   0.189   8.348  0.2490 -0.1182  0.3950
27026SOL    HW185534  10.415   0.128   8.346  0.7275  0.3984  1.3100
27026SOL    HW285535  10.383   0.275   8.355 -0.4220  0.2898 -0.4365
27027SOL     OW85536   3.913   9.192  10.026  0.0922 -0.1576  0.5535
27027SOL    HW185537   3.912   9.281   9.993  1.3274 -0.7279 -1.1485
27027SOL    HW285538   3.823   9.160  10.014 -0.4223  0.8967  1.4202
27028SOL     OW85539  10.621   6.612   3.682 -0.4312  0.3191  0.7615
27028SOL    HW185540  10.696   6.553   3.677 -1.3191 -0.7289 -1.5614
27028SOL    HW285541  10.546   6.554   3.695 -0.9350  1.3220  2.7200
27029SOL     OW85542   6.564   3.784   5.944 -0.1822 -0.3549  0.3044
27029SOL    HW185543   6.512   3.726   5.888  0.0062 -1.1118  0.9070
27029SOL    HW285544   6.623   3.829   5.884  0.8751 -2.0597  0.0195
27030SOL     OW85545   1.022   7.778   6.139 -0.4290 -0.9577 -0.2628
27030SOL    HW185546   0.997   7.849   6.079  0.5925  0.9167  1.4156
27030SOL    HW285547   1.102   7.742   6.101 -1.2208 -1.5945 -1.3891
27031SOL     OW85548   3.194   9.531   2.645  0.4900  0.0063 -0.5717
27031SOL    HW185549   3.203   9.593   2.718 -0.4155 -1.4287  0.8347
27031SOL    HW285550   3.107   9.492   2.658  0.8062 -1.1347 -1.7449
27032SOL     OW85551   3.553   1.113   8.574 -0.2352 -0.1829  0.5346
27032SOL    HW185552   3.587   1.157   8.496  2.0534 -1.5710  0.6468
27032SOL    HW285553   3.528   1.026   8.544 -0.9044 -0.1844  1.0653
27033SOL     OW85554   1.540   6.601   8.965 -0.1538  0.3150 -0.2788
27033SOL    HW185555   1.452   6.625   8.936 -0.6535 -0.8938  0.1322
27033SOL    HW285556   1.590   6.589   8.885 -0.6023  0.2161 -0.5489
27034SOL     OW85557   1.967   1.431   2.618  0.1747 -0.0763  0.1390
27034SOL    HW185558   2.016   1.494   2.671  2.7113 -2.3188  0.6774
27034SOL    HW285559   2.032   1.367   2.591 -2.2388 -2.5186 -0.3191
27035SOL     OW85560   4.600   9.376   0.713 -0.0148 -0.3698 -0.0392
27035SOL    HW185561   4.535   9.315   0.749  2.2005 -2.4901  0.6014
27035SOL    HW285562   4.675   9.322   0.692  0.4572  1.4703 -3.8912
27036SOL     OW85563   1.381  10.619   1.721 -0.5563  0.5881  0.2439
27036SOL    HW185564   1.407  10.710   1.731 -0.4016  0.5510  0.1810
27036SOL    HW285565   1.288  10.623   1.698 -0.5026  0.7388  0.0462
27037SOL     OW85566   5.459   5.875   0.348 -0.0666  0.7619 -0.1102
27037SOL    HW185567   5.485   5.805   0.408 -1.5313  0.5814  0.3560
27037SOL    HW285568   5.518   5.948   0.369  1.4608 -0.2819 -0.5867
27038SOL     OW85569   9.451   9.985  10.772 -0.0192  0.1837 -0.3695
27038SOL    HW185570   9.481  10.075  10.787 -0.3640  0.0043  1.7299
27038SOL    HW285571   9.396   9.965  10.848 -0.8453 -1.4415 -1.3294
27039SOL     OW85572   3.072   1.848   4.022 -0.0496 -0.4998 -0.1965
27039SOL    HW185573   3.080   1.758   3.990  0.4682 -0.6567  0.3640
27039SOL    HW285574   3.003   1.887   3.968 -0.4965 -1.3280 -0.2239
27040SOL     OW85575   3.846   5.470   9.473  0.6699 -0.0380  0.1699
27040SOL    HW185576   3.939   5.486   9.456  0.3687  0.3811 -1.2164
27040SOL    HW285577   3.812   5.434   9.391 -0.7068  1.2627  0.1185
27041SOL     OW85578   3.048   3.264   9.460  0.1300  0.2740 -0.5992
27041SOL    HW185579   2.958   3.248   9.433 -0.6394  0.6772  1.5312
27041SOL    HW285580   3.100   3.203   9.407 -1.6563 -1.8400 -0.0877
27042SOL     OW85581   3.408   1.225   0.849 -0.4342 -0.2174 -0.0475
27042SOL    HW185582   3.354   1.207   0.771 -0.7224 -1.2654  0.3760
27042SOL    HW285583   3.387   1.316   0.871 -0.1085  0.2077 -1.3724
27043SOL     OW85584   5.945   0.018   0.835  0.6777 -0.8872  0.1844
27043SOL    HW185585   5.875   0.010   0.899  1.2619  2.4071  1.4475
27043SOL    HW285586   5.909  -0.020   0.755 -0.9617 -2.9449  1.7869
27044SOL     OW85587   9.807   9.074   9.248 -0.0817  0.3760  0.0726
27044SOL    HW185588   9.733   9.059   9.306  0.0003 -1.4698 -0.2272
27044SOL    HW285589   9.770   9.073   9.160  0.3223 -1.1941 -0.1203
27045SOL     OW85590  10.489   2.129   6.549 -0.1659 -0.0079  0.0565
27045SOL    HW185591  10.406   2.084   6.564  0.2923 -1.5559 -1.7132
27045SOL    HW285592  10.552   2.058   6.535  1.6132  1.1135  1.9074
27046SOL     OW85593   3.413   0.364   0.086 -0.1871 -0.5594 -0.3814
27046SOL    HW185594   3.463   0.382   0.165  0.8802 -0.4938 -1.0467
27046SOL    HW285595   3.442   0.278   0.057 -0.0467 -0.2893 -1.0764
27047SOL     OW85596   1.447   8.438  10.806 -0.1785 -0.3291  0.2391
27047SOL    HW185597   1.352   8.428  10.805 -0.1244 -0.8179 -0.7515
27047SOL    HW285598   1.462   8.512  10.865 -1.1879 -0.0560  0.1772
27048SOL     OW85599   1.579   2.105   3.049  0.4236 -0.4061 -0.1650
27048SOL    HW185600   1.485   2.119   3.039  0.2064 -0.8936  1.0466
27048SOL    HW285601   1.619   2.186   3.018 -0.2986 -0.6618 -1.9392
27049SOL     OW85602   4.251   1.847   6.375  0.1161  0.1798 -0.0614
27049SOL    HW185603   4.286   1.932   6.398 -0.7317  0.5856 -0.2240
27049SOL    HW285604   4.290   1.827   6.290 -0.5175  0.9216 -0.5465
27050SOL     OW85605   1.085   9.132  10.254 -0.2091  0.0815  0.0645
27050SOL    HW185606   1.066   9.157  10.345 -1.8579  2.6302 -0.8992
27050SOL    HW285607   1.006   9.156  10.205  0.6715 -1.1587 -2.0930
27051SOL     OW85608   4.785   0.388   2.106 -0.5753  0.1939  0.3980
27051SOL    HW185609   4.726   0.368   2.034  0.7282  0.3666 -0.7456
27051SOL    HW285610   4.750   0.469   2.144 -3.0771 -1.4850  2.0125
27052SOL     OW85611  10.265   8.688   6.409  0.5605  0.2206  0.6288
27052SOL    HW185612  10.218   8.743   6.472 -0.4205 -0.7059  0.7365
27052SOL    HW285613  10.303   8.618   6.463 -1.3104 -1.2750  0.0959
27053SOL     OW85614   0.102   8.092  10.829  0.1401 -0.1031  0.6137
27053SOL    HW185615   0.142   8.166  10.874  1.7210  0.0259 -0.8787
27053SOL    HW285616   0.170   8.060  10.770 -0.9798 -1.8604  0.1853
27054SOL     OW85617   5.911   6.741   1.626  0.3650  0.1592 -0.5317
27054SOL    HW185618   5.952   6.799   1.690 -1.3153  0.5373  0.2394
27054SOL    HW285619   5.883   6.800   1.555  1.2633 -0.1205 -1.1371
27055SOL     OW85620   3.738   3.823   7.777  0.4278 -0.2097 -0.0075
27055SOL    HW185621   3.819   3.777   7.797 -0.0373 -1.0878 -0.0738
27055SOL    HW285622   3.669   3.760   7.798 -0.1473 -0.9375 -3.4905
27056SOL     OW85623   6.403   7.223   7.794 -0.6661 -0.8351  0.0245
27056SOL    HW185624   6.321   7.222   7.745  0.3494 -1.0846 -1.7525
27056SOL    HW285625   6.455   7.293   7.753 -0.0534 -0.5204  1.2685
27057SOL     OW85626   8.862   1.824   6.636  0.3428 -0.1613 -0.4355
27057SOL    HW185627   8.820   1.778   6.708  1.7144 -0.2631  0.3293
27057SOL    HW285628   8.915   1.891   6.678 -0.5987  1.3009 -1.4800
27058SOL     OW85629   3.759   4.418   3.238 -0.4027 -0.1276  0.4232
27058SOL    HW185630   3.837   4.461   3.202 -1.0334  0.5830 -0.1081
27058SOL    HW285631   3.688   4.442   3.179 -1.0210 -0.8390  0.8537
27059SOL     OW85632   2.531   1.567   7.357  0.3346 -0.2768  0.0391
27059SOL    HW185633   2.581   1.647   7.340  1.3426 -0.8446  0.3152
27059SOL    HW285634   2.478   1.588   7.434 -0.3053  0.5187 -0.5976
27060SOL     OW85635   4.195   0.184   3.913 -0.2290 -0.3341 -0.1371
27060SOL    HW185636   4.156   0.242   3.978  0.7184 -1.7430  1.8079
27060SOL    HW285637   4.161   0.097   3.936  1.7909 -1.1678 -0.1371
27061SOL     OW85638   8.736   0.862   7.665 -0.0220 -0.0762  0.7557
27061SOL    HW185639   8.759   0.771   7.646 -1.4047 -0.6682  1.7770
27061SOL    HW285640   8.727   0.902   7.579 -0.1497 -1.1108  0.2648
27062SOL     OW85641   7.108   1.737   9.976  0.0323 -0.2622  0.0099
27062SOL    HW185642   7.116   1.705   9.886 -1.2884  0.4797 -0.4133
27062SOL    HW285643   7.174   1.806   9.983  1.3355 -1.4982  0.1976
27063SOL     OW85644   5.680   6.994   5.185 -0.0670 -0.2607 -0.4906
27063SOL    HW185645   5.746   7.022   5.249  1.7175 -1.4850 -1.6823
27063SOL    HW285646   5.728   6.990   5.102 -1.3479 -2.3125 -1.2018
27064SOL     OW85647  10.754   3.767   8.718  0.6501 -0.8673 -0.2204
27064SOL    HW185648  10.740   3.723   8.802 -0.4490 -2.7034 -1.3104
27064SOL    HW285649  10.823   3.717   8.676 -0.6817 -1.6638 -1.5264
27065SOL     OW85650  10.078   5.331   9.786  0.4544  0.7667 -0.4812
27065SOL    HW185651  10.096   5.389   9.860 -0.6308  0.2594  0.1974
27065SOL    HW285652   9.991   5.295   9.804  1.3270 -1.5600 -0.5347
27066SOL     OW85653   3.385   2.485   1.095  0.1238  0.0337  0.5310
27066SOL    HW185654   3.430   2.409   1.133 -0.2199  0.1161  1.1156
27066SOL    HW285655   3.310   2.448   1.050  1.0897 -0.1674 -0.9860
27067SOL     OW85656   9.390   8.386   4.907  0.1607  0.1889 -0.2284
27067SOL    HW185657   9.462   8.414   4.964 -0.7470  0.7999  0.6462
27067SOL    HW285658   9.335   8.332   4.963 -0.1321 -0.1738 -0.8580
27068SOL     OW85659   6.164   6.804   0.897  0.3321  0.0877  0.7853
27068SOL    HW185660   6.152   6.898   0.885 -2.0828  0.1913  3.1287
27068SOL    HW285661   6.201   6.795   0.985  1.3568 -1.1563  0.2578
27069SOL     OW85662   4.972   4.706   0.991 -0.2385  0.0791  0.4100
27069SOL    HW185663   4.993   4.613   0.978  0.7212  0.5818 -2.2188
27069SOL    HW285664   4.881   4.713   0.961  0.8141  0.5504 -3.0277
27070SOL     OW85665   8.647   1.057   3.494  0.1506  0.2048  0.1214
27070SOL    HW185666   8.555   1.055   3.466  0.6534 -0.3538 -1.6067
27070SOL    HW285667   8.696   1.042   3.414  1.8203  2.0048  0.7415
27071SOL     OW85668   5.200  10.207   8.596 -0.4988 -0.3094  0.3581
27071SOL    HW185669   5.234  10.296   8.608  2.7578 -1.2256 -1.0120
27071SOL    HW285670   5.221  10.163   8.678  1.4773 -0.7525 -0.3250
27072SOL     OW85671   9.526   0.670   7.154 -0.2595  0.3220 -0.2862
27072SOL    HW185672   9.536   0.610   7.228  0.8379 -0.7643 -1.2655
27072SOL    HW285673   9.614   0.676   7.117 -0.9189  0.2203 -1.9541
27073SOL     OW85674   6.599   1.624   7.795 -0.3480 -0.4121 -0.1184
27073SOL    HW185675   6.511   1.653   7.772 -0.6462 -0.1282  1.2924
27073SOL    HW285676   6.655   1.700   7.777 -0.5832 -0.1651  0.2018
27074SOL     OW85677   5.905   4.432   1.146 -0.1668  0.2750  0.2008
27074SOL    HW185678   5.842   4.503   1.152 -0.4106  0.0420  0.3897
27074SOL    HW285679   5.875   4.379   1.072 -0.6391 -0.2735  0.7821
27075SOL     OW85680   2.932   4.908   2.721  0.1373  0.4000 -0.1695
27075SOL    HW185681   2.928   4.902   2.626  0.0321  0.8824 -0.1997
27075SOL    HW285682   2.869   4.843   2.752  0.2357  0.1795 -0.4265
27076SOL     OW85683   2.071   5.888   1.801  0.3311  0.3485  0.3095
27076SOL    HW185684   2.078   5.848   1.888 -0.0949  1.5559  0.9193
27076SOL    HW285685   1.984   5.928   1.800  0.8886  1.6006 -0.1055
27077SOL     OW85686   5.600   1.762  10.900 -0.1081  0.4417  0.2945
27077SOL    HW185687   5.632   1.741  10.988 -0.0666  0.7001  0.3398
27077SOL    HW285688   5.539   1.691  10.880  0.0688  0.2461  0.4313
27078SOL     OW85689   7.002   9.640   0.886  0.0996  0.5805  0.5206
27078SOL    HW185690   6.933   9.703   0.868  0.8790  1.4372  0.4808
27078SOL    HW285691   7.069   9.657   0.819 -0.5505 -1.6675 -0.8188
27079SOL     OW85692   2.250   0.501  10.280  0.5599 -0.3410  0.0859
27079SOL    HW185693   2.300   0.454  10.346  0.3154  0.2661  0.7159
27079SOL    HW285694   2.182   0.548  10.330 -0.5858 -1.0769 -0.7294
27080SOL     OW85695   1.665   0.632   8.170  0.2620 -0.8148 -0.3315
27080SOL    HW185696   1.670   0.569   8.242 -1.4821  2.7909  3.3285
27080SOL    HW285697   1.578   0.620   8.133 -0.1174 -0.4964  0.4478
27081SOL     OW85698   6.987   5.110   2.718 -0.5062 -0.8574 -0.0490
27081SOL    HW185699   6.938   5.085   2.796 -0.8585  0.1419  0.0754
27081SOL    HW285700   7.003   5.204   2.729  1.7565 -1.1968  0.0826
27082SOL     OW85701  10.567   6.567   3.215  0.0343 -0.2730  0.1685
27082SOL    HW185702  10.649   6.535   3.252  1.5515 -0.2382 -2.8147
27082SOL    HW285703  10.580   6.661   3.204  0.3376 -0.4948 -1.7972
27083SOL     OW85704   7.230   4.307   8.204 -0.3938  0.1431  0.3746
27083SOL    HW185705   7.259   4.236   8.146  1.1087  2.0149 -1.3408
27083SOL    HW285706   7.156   4.347   8.158 -0.5251  0.3647  0.7745
27084SOL     OW85707   5.892   9.315   2.947 -0.3987 -0.0874 -0.1164
27084SOL    HW185708   5.843   9.233   2.956 -2.0162  0.8004 -0.3821
27084SOL    HW285709   5.845   9.363   2.879 -0.4820  1.7343  1.1543
27085SOL     OW85710   4.796   9.819   2.842 -0.5788  0.3712  0.1420
27085SOL    HW185711   4.852   9.884   2.800 -0.4910  1.3955  1.7759
27085SOL    HW285712   4.849   9.741   2.848  0.8376  1.3889  1.8795
27086SOL     OW85713   3.661   8.460   6.327 -0.0060  0.3239  0.1521
27086SOL    HW185714   3.698   8.548   6.326  1.4576 -0.2642 -0.5633
27086SOL    HW285715   3.592   8.464   6.393  1.8286  1.2974  2.1288
27087SOL     OW85716   3.815   6.930   4.290 -0.1052 -0.0344  0.2265
27087SOL    HW185717   3.864   6.861   4.245 -0.1527 -1.1942  1.8903
27087SOL    HW285718   3.881   6.992   4.319 -0.0791  0.7992 -1.4656
27088SOL     OW85719   7.442   8.275   2.652 -0.7076 -0.0603  0.5466
27088SOL    HW185720   7.348   8.266   2.639 -0.5554 -0.0742 -0.6264
27088SOL    HW285721   7.460   8.223   2.731 -1.6989  0.1204  0.9088
27089SOL     OW85722   1.155  10.771   5.600 -0.4748  0.4824 -0.0335
27089SOL    HW185723   1.224  10.836   5.584  0.3761 -0.1416  0.9441
27089SOL    HW285724   1.073  10.819   5.592  0.1207  1.5253  0.0016
27090SOL     OW85725   5.551   1.559   3.526 -0.4102 -0.7729 -0.4414
27090SOL    HW185726   5.503   1.626   3.476 -2.7184 -2.0978 -0.1585
27090SOL    HW285727   5.518   1.569   3.616  1.0893 -0.7046  0.1313
27091SOL     OW85728  10.211   6.000   1.360 -0.2204 -0.3785 -0.0713
27091SOL    HW185729  10.283   5.958   1.407 -0.6016 -0.5035  0.4131
27091SOL    HW285730  10.239   6.091   1.351  0.2601 -0.5562 -0.4218
27092SOL     OW85731   8.028   6.314   3.465 -0.7263  0.6227  0.1439
27092SOL    HW185732   7.968   6.375   3.422  0.8290  1.8016 -0.4581
27092SOL    HW285733   8.062   6.362   3.540 -1.5683 -0.5474  1.3230
27093SOL     OW85734   4.472   0.536   6.227 -0.2913 -0.0575  0.9402
27093SOL    HW185735   4.547   0.589   6.203  1.4134 -1.7221  2.3084
27093SOL    HW285736   4.428   0.516   6.145  1.2535  0.2370  0.0208
27094SOL     OW85737   3.726   1.521   9.580 -0.4846  0.0255  0.5229
27094SOL    HW185738   3.740   1.586   9.510  0.4112 -0.9864 -0.2685
27094SOL    HW285739   3.663   1.460   9.542  0.7486 -1.0817  0.1822
27095SOL     OW85740   0.432   0.850   7.903  0.0623  0.6147 -0.3253
27095SOL    HW185741   0.454   0.890   7.987  0.2024 -1.4113  0.6653
27095SOL    HW285742   0.339   0.831   7.909  0.0970  0.3540 -0.5796
27096SOL     OW85743   4.625   9.537   4.282 -0.5376  0.1762 -0.2702
27096SOL    HW185744   4.555   9.522   4.346  0.6571  2.0126  1.6047
27096SOL    HW285745   4.701   9.493   4.318 -0.0967  0.3135 -1.0081
27097SOL     OW85746   7.449  10.521   4.713 -0.0004  0.0984 -0.0606
27097SOL    HW185747   7.451  10.536   4.618  1.3214 -0.9474 -0.2225
27097SOL    HW285748   7.413  10.433   4.723 -0.6041  0.3949  0.4491
27098SOL     OW85749   4.209   0.805   6.545 -0.0991 -0.9494  0.2005
27098SOL    HW185750   4.295   0.844   6.528 -1.2345  1.2346 -0.8605
27098SOL    HW285751   4.195   0.746   6.470  0.6965 -1.7893  0.6898
27099SOL     OW85752   6.978   7.267   1.875  0.1373  0.4179 -0.0054
27099SOL    HW185753   7.051   7.302   1.926  0.9383 -0.3901 -0.5716
27099SOL    HW285754   6.900   7.307   1.914  0.6386 -0.7328  2.3244
27100SOL     OW85755   4.050   3.436  10.698  0.0528  0.8274 -0.5280
27100SOL    HW185756   4.092   3.377  10.636 -0.3552 -1.5973  1.3380
27100SOL    HW285757   3.962   3.401  10.709  0.1217  1.1213  1.4118
27101SOL     OW85758   4.794   9.304   3.728  0.4704 -0.1929  0.2519
27101SOL    HW185759   4.767   9.389   3.764  1.6609  0.1996  0.2674
27101SOL    HW285760   4.779   9.311   3.634 -2.2633 -1.0729  0.5442
27102SOL     OW85761   5.773   4.357   4.174  0.0975  0.1058  0.0304
27102SOL    HW185762   5.815   4.431   4.218 -1.7768  1.5606 -0.4793
27102SOL    HW285763   5.727   4.310   4.243  1.0342 -0.4302  0.3066
27103SOL     OW85764   0.987   4.226   8.343  0.0693  0.3563 -0.0348
27103SOL    HW185765   1.051   4.219   8.273 -0.7785 -0.7584 -0.7413
27103SOL    HW285766   1.018   4.167   8.411  1.5853  2.4053  1.1590
27104SOL     OW85767   5.945   5.125   7.096  0.5601  0.3250 -0.1714
27104SOL    HW185768   5.989   5.198   7.053  0.4556  0.2257 -0.4437
27104SOL    HW285769   5.981   5.125   7.185  0.3577  0.8850 -0.0842
27105SOL     OW85770   5.222   4.178   8.806  0.3809  0.3143  0.3722
27105SOL    HW185771   5.286   4.242   8.837  0.2573  0.9945 -0.6838
27105SOL    HW285772   5.271   4.122   8.746  0.3911 -0.3104  0.9669
27106SOL     OW85773   0.672   9.481   3.796 -0.1427 -0.3607  0.3390
27106SOL    HW185774   0.637   9.540   3.863 -0.4568 -0.8177  0.5824
27106SOL    HW285775   0.741   9.432   3.842 -0.6464 -0.9757  0.4532
27107SOL     OW85776   3.710   5.842   2.523 -0.0503 -0.4316 -0.2212
27107SOL    HW185777   3.736   5.830   2.615  0.8996 -0.4780 -0.4848
27107SOL    HW285778   3.773   5.906   2.489 -0.8481  0.1421 -0.6531
27108SOL     OW85779  10.828   5.517   8.477 -0.3030  0.3381 -0.0847
27108SOL    HW185780  10.748   5.529   8.527 -1.2079 -0.4588 -1.2784
27108SOL    HW285781  10.803   5.536   8.387  1.0790  0.9330 -0.3581
27109SOL     OW85782  10.497   4.265  10.049  0.1378 -0.3275 -0.4901
27109SOL    HW185783  10.501   4.236   9.958  0.1831 -2.5896  0.1744
27109SOL    HW285784  10.479   4.185  10.099 -1.1633  1.0541  1.3930
27110SOL     OW85785   3.790   0.566   7.033  0.4206 -0.2614 -0.3131
27110SOL    HW185786   3.832   0.628   6.973  0.8134  0.3367  0.5587
27110SOL    HW285787   3.839   0.575   7.115 -0.0426 -1.1334  0.0736
27111SOL     OW85788   0.767   1.308   6.262 -0.4461  0.1657  0.6534
27111SOL    HW185789   0.853   1.284   6.297 -0.8418 -1.6724  0.4602
27111SOL    HW285790   0.756   1.400   6.289  1.8197  0.6667  0.1380
27112SOL     OW85791   4.631   3.326   9.230 -0.1207  0.3738  0.3597
27112SOL    HW185792   4.605   3.354   9.318  0.0758  0.8018  0.2830
27112SOL    HW285793   4.726   3.338   9.228 -0.1959  0.9027 -0.1011
27113SOL     OW85794   9.335   6.657   2.195 -0.3280 -0.8120  0.3915
27113SOL    HW185795   9.353   6.574   2.151 -2.3773 -0.8168 -0.5696
27113SOL    HW285796   9.321   6.719   2.124  1.5196  0.4802  1.1082
27114SOL     OW85797   1.855   7.933   1.782  0.6315  0.1448 -0.4106
27114SOL    HW185798   1.805   7.851   1.782 -0.5238  0.8088 -1.5712
27114SOL    HW285799   1.916   7.924   1.709  1.7975 -0.3777  0.5773
27115SOL     OW85800   8.260  10.200   3.622  0.7322 -0.4807  0.0173
27115SOL    HW185801   8.325  10.265   3.595 -0.6007  0.6357 -0.6314
27115SOL    HW285802   8.243  10.220   3.715 -0.6917  1.0922 -0.5188
27116SOL     OW85803   5.823   5.826   5.257  0.8648  0.3924  0.5016
27116SOL    HW185804   5.804   5.814   5.164  2.2420  0.2294  0.2356
27116SOL    HW285805   5.836   5.921   5.267 -1.7043  0.7894  1.0371
27117SOL     OW85806  10.976   0.421   9.329 -0.1278 -0.1318  0.1104
27117SOL    HW185807  10.888   0.421   9.368 -0.0368  0.2426  0.3153
27117SOL    HW285808  11.036   0.427   9.403  0.0291  1.1942 -0.1126
27118SOL     OW85809   4.352   1.182   2.359 -0.1788 -0.4275  0.0501
27118SOL    HW185810   4.297   1.109   2.387 -2.5698  0.7776 -1.2557
27118SOL    HW285811   4.364   1.169   2.265  2.7755 -1.2257  0.4367
27119SOL     OW85812   7.248   4.057   2.880 -0.7851 -0.6017 -0.7043
27119SOL    HW185813   7.311   4.006   2.931  0.5602  0.0884 -1.6457
27119SOL    HW285814   7.270   4.039   2.789 -0.8197  1.0041 -1.0504
27120SOL     OW85815   3.700   3.646   4.210 -0.3187  0.2197  0.0673
27120SOL    HW185816   3.792   3.632   4.236  0.1514  1.9073 -0.5248
27120SOL    HW285817   3.673   3.563   4.171  0.9574 -0.3073  0.2444
27121SOL     OW85818   5.072   0.764   4.385  0.2442 -0.4980 -0.3541
27121SOL    HW185819   5.106   0.716   4.309  1.3598 -0.0553 -0.1586
27121SOL    HW285820   5.150   0.782   4.438 -0.3648  0.2363  0.3076
27122SOL     OW85821   2.642   7.615   5.240  0.0074  0.3463  0.3914
27122SOL    HW185822   2.595   7.580   5.316 -0.4607  2.3471  1.0746
27122SOL    HW285823   2.666   7.704   5.265  1.3860  0.4571 -1.1673
27123SOL     OW85824   4.795   2.921   6.758 -0.0701 -0.3789 -0.1157
27123SOL    HW185825   4.812   2.963   6.843  2.1124  2.2166 -1.6742
27123SOL    HW285826   4.724   2.973   6.720 -0.8366 -1.3459 -0.0201
27124SOL     OW85827   4.679   8.448   5.626  0.2485 -0.1301 -0.8252
27124SOL    HW185828   4.677   8.384   5.555 -1.3538 -0.0461 -0.9125
27124SOL    HW285829   4.620   8.518   5.597 -0.3319 -0.0339  0.4982
27125SOL     OW85830   3.662  10.095   2.017 -0.1878  0.7524  0.4305
27125SOL    HW185831   3.716  10.097   1.938 -1.1660  1.8019 -0.2301
27125SOL    HW285832   3.629  10.005   2.022  0.1278  0.5988 -0.1756
27126SOL     OW85833   2.028   7.114  10.990 -0.2519  0.1115  0.1910
27126SOL    HW185834   2.053   7.065  11.068  3.4234 -0.6754 -1.2511
27126SOL    HW285835   2.087   7.190  10.991 -1.1522  0.8606 -1.1142
27127SOL     OW85836   9.681   3.770   9.606  0.1252  0.0625 -0.1697
27127SOL    HW185837   9.590   3.760   9.634  0.0861  0.7856 -0.0340
27127SOL    HW285838   9.679   3.840   9.541  0.6033  0.1832 -0.0596
27128SOL     OW85839  11.057   7.146   3.906  0.1342 -0.3175  0.0255
27128SOL    HW185840  11.070   7.190   3.822  1.2899 -0.5168  0.0691
27128SOL    HW285841  11.121   7.074   3.904 -0.3725 -0.7950  0.7499
27129SOL     OW85842   9.670   3.987   7.051 -0.0746 -0.0690 -0.3112
27129SOL    HW185843   9.628   4.072   7.034 -0.0249  0.3220  1.3557
27129SOL    HW285844   9.599   3.923   7.040  0.1236  0.0307 -2.6302
27130SOL     OW85845   0.987   9.282   2.961 -0.0347  1.0973 -0.3812
27130SOL    HW185846   0.902   9.243   2.985  0.9535  0.6588  2.8534
27130SOL    HW285847   1.024   9.220   2.898 -0.5587 -0.7236  1.0095
27131SOL     OW85848   3.829  10.091   2.980 -0.5816  0.0269 -0.1512
27131SOL    HW185849   3.869  10.174   3.007  0.5998 -0.7983  0.7383
27131SOL    HW285850   3.890  10.054   2.916 -0.4396 -0.7337  0.4033
27132SOL     OW85851  10.221   6.922   8.239  0.7120 -0.3544 -0.7288
27132SOL    HW185852  10.297   6.865   8.246  2.6351  2.1391  0.3850
27132SOL    HW285853  10.215   6.965   8.325 -0.9485  0.7334 -1.3279
27133SOL     OW85854   1.076   8.895   1.009  0.0528  0.0723 -0.2498
27133SOL    HW185855   1.031   8.919   0.928 -0.4062 -0.7639 -0.2546
27133SOL    HW285856   1.038   8.950   1.076  0.3890  0.7257 -0.5829
27134SOL     OW85857   0.196   2.013   2.760  0.6921 -0.2099  0.2834
27134SOL    HW185858   0.242   1.940   2.719  2.2485  0.0341  1.5065
27134SOL    HW285859   0.200   1.994   2.854  0.5723  1.1276  0.5823
27135SOL     OW85860   3.755   5.175   8.433 -0.1592  0.0790 -0.3823
27135SOL    HW185861   3.712   5.131   8.359 -1.5864  1.5093 -0.4797
27135SOL    HW285862   3.722   5.130   8.510 -0.4078 -0.0065 -0.5360
27136SOL     OW85863   5.019   3.621  10.929 -0.2286  0.0831 -0.5344
27136SOL    HW185864   5.047   3.711  10.943  0.6815 -0.0730 -1.2607
27136SOL    HW285865   5.000   3.588  11.017  0.0534  0.7939 -0.2023
27137SOL     OW85866   5.373   1.556   4.155 -0.0628 -0.3327  0.0376
27137SOL    HW185867   5.315   1.537   4.229  1.4335  2.0145  1.9951
27137SOL    HW285868   5.314   1.572   4.081 -1.6580 -1.9281  0.9109
27138SOL     OW85869   6.822   0.962   8.795 -0.3108  0.3375  0.0838
27138SOL    HW185870   6.900   0.906   8.801 -0.2920  0.4029  0.4433
27138SOL    HW285871   6.792   0.971   8.885 -0.7609  0.2785 -0.0564
27139SOL     OW85872   1.487   7.733   5.488 -0.0825 -0.2733 -0.5302
27139SOL    HW185873   1.463   7.653   5.440 -0.0387 -1.4425  1.3014
27139SOL    HW285874   1.574   7.755   5.456  0.8961 -2.3314  0.5559
27140SOL     OW85875   2.725   9.536   2.228 -0.4331  0.3220  0.7019
27140SOL    HW185876   2.693   9.596   2.295  1.3504  0.9460  1.0424
27140SOL    HW285877   2.680   9.453   2.247 -2.9399  1.4800  0.2216
27141SOL     OW85878   4.264   8.027   6.454  0.2455 -0.4751 -0.2019
27141SOL    HW185879   4.172   8.033   6.427  0.6179 -1.3106 -1.7656
27141SOL    HW285880   4.307   8.100   6.410  0.2034  0.5502  1.3460
27142SOL     OW85881   4.838   1.380   9.227 -0.0296  0.2179 -0.0720
27142SOL    HW185882   4.906   1.347   9.170  1.8642  0.8508  1.6773
27142SOL    HW285883   4.828   1.472   9.202 -0.5946  0.0182 -0.6152
27143SOL     OW85884   6.794   7.505   3.660  0.2358  0.1374  0.1549
27143SOL    HW185885   6.752   7.572   3.605  0.7828  0.4986  0.1683
27143SOL    HW285886   6.741   7.502   3.739  0.7338  1.2261  0.5473
27144SOL     OW85887   7.822   9.713   1.164  0.0098 -0.4789  0.1081
27144SOL    HW185888   7.879   9.649   1.207  0.0675 -0.9006 -0.5808
27144SOL    HW285889   7.758   9.659   1.117 -1.6967 -0.0397  1.7748
27145SOL     OW85890   7.457   0.975   9.784  0.1149 -0.2644 -0.3732
27145SOL    HW185891   7.387   0.918   9.816 -0.9495  1.1552 -0.0692
27145SOL    HW285892   7.422   1.064   9.793  2.4691  0.6202  1.0762
27146SOL     OW85893   4.187   7.910   1.373  0.4018 -0.0602  0.2848
27146SOL    HW185894   4.229   7.874   1.294  0.9574 -0.5700  0.8046
27146SOL    HW285895   4.187   8.004   1.359  0.6970 -0.1302 -0.2311
27147SOL     OW85896   9.362  10.483   9.064 -0.0636 -0.2077 -0.1178
27147SOL    HW185897   9.402  10.464   8.979 -0.0493  1.3074 -0.4710
27147SOL    HW285898   9.437  10.498   9.122 -0.0297 -2.3105  0.4873
27148SOL     OW85899   7.156   9.188   2.597 -0.5617  0.1969  0.2505
27148SOL    HW185900   7.121   9.173   2.509 -0.1579 -2.6016  0.4946
27148SOL    HW285901   7.104   9.262   2.630 -1.3221  0.7528 -1.9725
27149SOL     OW85902   0.801   3.964   0.227  0.2845 -0.7710  0.1457
27149SOL    HW185903   0.788   3.958   0.132  0.7088 -2.1687  0.1519
27149SOL    HW285904   0.729   4.019   0.258 -0.4875 -1.1744 -0.8654
27150SOL     OW85905  10.911   4.110   6.711  0.2910  0.1479 -0.0700
27150SOL    HW185906  10.930   4.063   6.631 -1.5517 -1.6380  0.4696
27150SOL    HW285907  10.990   4.162   6.728  2.3011 -2.4221 -0.9219
27151SOL     OW85908   1.127   7.939   5.435 -0.6416  0.2042  0.0667
27151SOL    HW185909   1.214   7.976   5.450 -0.4896 -0.2663  0.3685
27151SOL    HW285910   1.103   7.968   5.347  0.2566 -0.5046 -0.4341
27152SOL     OW85911   2.490   3.392   0.299  0.4604 -0.8722  0.6034
27152SOL    HW185912   2.416   3.349   0.343 -0.0083 -1.3970 -0.6246
27152SOL    HW285913   2.564   3.334   0.315  0.4593 -0.7001  1.2659
27153SOL     OW85914   0.965   8.619   7.381  0.4402  0.4747  0.6228
27153SOL    HW185915   0.941   8.537   7.424  1.0429 -0.4857 -0.7970
27153SOL    HW285916   1.035   8.655   7.437  0.9567 -0.5526  0.6669
27154SOL     OW85917   3.175   7.202   8.545  0.0705  0.5494  0.0421
27154SOL    HW185918   3.243   7.147   8.505 -1.5376 -0.1964 -1.8150
27154SOL    HW285919   3.220   7.248   8.617  2.7157  0.7092 -1.5998
27155SOL     OW85920   1.060   2.442   3.840 -0.2406  0.3570 -0.0400
27155SOL    HW185921   1.091   2.530   3.860 -0.6134  0.6313 -0.6356
27155SOL    HW285922   0.965   2.447   3.847 -0.4378  0.5806 -2.1507
27156SOL     OW85923   4.278   6.659   6.194 -0.2828 -0.7547 -0.5402
27156SOL    HW185924   4.320   6.738   6.228  0.1255 -1.0869 -0.2601
27156SOL    HW285925   4.349   6.595   6.189 -0.5363 -1.0005 -1.0985
27157SOL     OW85926   9.780   1.875   7.561 -0.9042  0.4410 -0.2183
27157SOL    HW185927   9.870   1.881   7.528 -0.8688  0.0809 -0.1903
27157SOL    HW285928   9.730   1.933   7.504 -0.2300  2.6887  1.3237
27158SOL     OW85929   7.198   3.124   7.362  0.0825  0.0064  0.1368
27158SOL    HW185930   7.179   3.091   7.275 -1.7161 -0.4608  0.6529
27158SOL    HW285931   7.212   3.046   7.415 -0.8636  0.1865  0.6741
27159SOL     OW85932   9.133   1.409   5.404  0.5067  0.3719 -0.1669
27159SOL    HW185933   9.156   1.377   5.491 -0.7691  1.9593  0.8244
27159SOL    HW285934   9.053   1.362   5.381 -0.5832  1.7276  0.6801
27160SOL     OW85935   2.731   5.624  11.012 -0.3480  0.2007 -0.4292
27160SOL    HW185936   2.762   5.543  11.051  0.1627  0.6247  0.0679
27160SOL    HW285937   2.773   5.627  10.926  0.8867  0.6916  0.1763
27161SOL     OW85938   6.394   2.917   0.142 -0.3673  0.2995  0.1005
27161SOL    HW185939   6.332   2.847   0.122 -1.0506  1.0422 -0.4259
27161SOL    HW285940   6.449   2.924   0.064 -0.0533  0.1089  0.2994
27162SOL     OW85941   3.987   3.183   6.215  0.2924 -0.7949  0.2721
27162SOL    HW185942   3.923   3.132   6.166  1.8382 -2.0388 -0.5051
27162SOL    HW285943   4.054   3.206   6.152  1.0652 -0.2572  1.2554
27163SOL     OW85944   9.143   4.854   1.865  0.1962 -0.3795 -0.5010
27163SOL    HW185945   9.064   4.864   1.811  0.1616 -1.0287 -0.5790
27163SOL    HW285946   9.198   4.793   1.815  0.0167 -1.2699  0.3463
27164SOL     OW85947   3.488   4.604   3.427  0.5456 -0.6079  0.4636
27164SOL    HW185948   3.485   4.581   3.334  1.4393 -0.0050  0.2666
27164SOL    HW285949   3.413   4.559   3.465  0.2772 -1.0288 -0.5122
27165SOL     OW85950   5.421   6.974   1.452  0.1770  0.5130  0.3261
27165SOL    HW185951   5.345   6.920   1.433  0.1458  0.7545 -0.2593
27165SOL    HW285952   5.390   7.036   1.518  0.0545  0.1834  0.5803
27166SOL     OW85953   7.344   2.877   7.044 -0.3607  0.1303  0.4105
27166SOL    HW185954   7.396   2.953   7.018 -1.6151  0.4983 -1.1272
27166SOL    HW285955   7.326   2.831   6.963 -1.7462 -0.4458  1.0168
27167SOL     OW85956   7.357   4.946   2.132 -0.4578 -0.5473 -0.3463
27167SOL    HW185957   7.346   4.916   2.042 -2.1374 -1.4651  0.1214
27167SOL    HW285958   7.347   5.041   2.128  0.2515 -0.5008 -1.2189
27168SOL     OW85959   7.807   7.576   4.276  0.3545  0.1381 -0.3186
27168SOL    HW185960   7.872   7.626   4.325  0.6100 -1.2341  0.8292
27168SOL    HW285961   7.750   7.538   4.343  0.5081 -1.5309 -1.0852
27169SOL     OW85962   4.367   6.240  10.178 -0.2133 -0.1581 -0.3477
27169SOL    HW185963   4.451   6.281  10.161 -0.2621  0.0611 -0.0723
27169SOL    HW285964   4.336   6.210  10.093 -0.1895  0.3995 -0.5502
27170SOL     OW85965  10.771   9.775   5.605 -0.0393  0.0418  0.7473
27170SOL    HW185966  10.832   9.724   5.658  1.4512  0.4252 -0.5285
27170SOL    HW285967  10.773   9.863   5.644 -0.0193 -0.0196  0.8833
27171SOL     OW85968  10.329   1.319   3.142 -0.0108  0.0627  0.0310
27171SOL    HW185969  10.277   1.242   3.165 -1.1036  0.7200 -0.1708
27171SOL    HW285970  10.419   1.292   3.157 -0.3622 -1.3115 -0.2130
27172SOL     OW85971   9.319   0.227   9.823  0.0469 -0.1573 -0.0299
27172SOL    HW185972   9.367   0.289   9.878  0.6701  0.4265 -1.1884
27172SOL    HW285973   9.336   0.141   9.862 -1.2241  0.3966  1.8960
27173SOL     OW85974   8.261   5.627  10.138 -0.2231 -0.0007 -0.0282
27173SOL    HW185975   8.315   5.704  10.121 -1.4794  1.1362  0.9326
27173SOL    HW285976   8.189   5.632  10.076  0.0120 -0.7571 -0.3782
27174SOL     OW85977  10.054   1.051   1.887  0.4217  0.0293 -0.1416
27174SOL    HW185978   9.975   1.091   1.924  0.4573 -1.3635  1.5498
27174SOL    HW285979  10.123   1.117   1.900 -0.3728  1.1739 -1.4581
27175SOL     OW85980  10.968   6.907  10.243 -0.0819 -0.4579 -0.6500
27175SOL    HW185981  10.894   6.957  10.276 -1.7226 -1.5451 -2.4592
27175SOL    HW285982  10.974   6.931  10.150  2.0803 -0.1365 -0.4713
27176SOL     OW85983   5.501   6.354   6.866  0.3124 -0.2937  0.0515
27176SOL    HW185984   5.474   6.428   6.921  1.0318  1.0610 -1.3431
27176SOL    HW285985   5.442   6.283   6.890 -2.1966  1.5149 -0.4378
27177SOL     OW85986   3.638   2.728   5.231  0.0862  0.2810 -0.1479
27177SOL    HW185987   3.730   2.704   5.238  0.0100  0.3705  1.4965
27177SOL    HW285988   3.590   2.655   5.270 -0.3867  1.2659  1.1663
27178SOL     OW85989   5.231   6.476   9.129 -0.2723 -0.3407  0.3341
27178SOL    HW185990   5.215   6.469   9.224  0.7727 -0.1883  0.5260
27178SOL    HW285991   5.169   6.413   9.091  0.6465 -1.8737  1.2479
27179SOL     OW85992   8.189   0.992   1.557 -0.1415 -0.1197 -0.6285
27179SOL    HW185993   8.172   1.048   1.481  0.8679  1.6217  0.3583
27179SOL    HW285994   8.277   0.958   1.543  0.0742  0.2606 -0.2207
27180SOL     OW85995   0.838   4.082   5.124 -0.3643  0.2309  0.3795
27180SOL    HW185996   0.827   4.174   5.149  0.3695  0.4079  0.0911
27180SOL    HW285997   0.750   4.046   5.124 -1.1340  1.7277 -2.5679
27181SOL     OW85998   1.089   7.955   6.447 -0.4830 -0.3393  0.7356
27181SOL    HW185999   1.129   8.001   6.374 -1.8176  2.0545  1.4043
27181SOL    HW286000   1.021   7.901   6.407 -1.1002  0.8320  0.1613
27182SOL     OW86001   2.085   0.678   9.281 -0.7963  0.2343  0.5499
27182SOL    HW186002   2.073   0.614   9.351  0.2732 -0.5503  0.0595
27182SOL    HW286003   2.105   0.760   9.326  0.3501 -0.3657  1.1789
27183SOL     OW86004   6.666   9.109   8.621 -0.1675  0.0694 -0.5378
27183SOL    HW186005   6.634   9.055   8.549 -2.5883  0.7591 -0.0578
27183SOL    HW286006   6.688   9.193   8.580  0.2192 -0.1239 -0.7351
27184SOL     OW86007  11.037  10.752   7.966 -0.3900 -0.0023  1.0027
27184SOL    HW186008  10.987  10.718   8.040  0.5763  2.1371  2.7623
27184SOL    HW286009  11.017  10.845   7.965  1.0419  0.3235 -0.2778
27185SOL     OW86010   5.584   6.676   8.153  0.0961 -0.2888 -0.4754
27185SOL    HW186011   5.625   6.632   8.228  0.2743 -1.0635 -1.0147
27185SOL    HW286012   5.656   6.691   8.092 -0.0687  0.2536 -0.5391
27186SOL     OW86013   0.073   6.456   8.199 -1.2682 -0.1464  0.5531
27186SOL    HW186014  -0.010   6.429   8.239 -0.9678 -0.2615  1.0898
27186SOL    HW286015   0.046   6.495   8.115 -1.9661  0.8154  1.1968
27187SOL     OW86016   0.134  10.524   7.410  0.2958 -0.5297 -0.0420
27187SOL    HW186017   0.120  10.430   7.399  0.4474 -0.5128 -0.4019
27187SOL    HW286018   0.192  10.531   7.486 -0.9928 -0.6389  0.9854
27188SOL     OW86019   2.787   5.154   7.493 -0.5255 -0.1027 -0.3735
27188SOL    HW186020   2.761   5.072   7.535 -1.0591  0.8467  1.2385
27188SOL    HW286021   2.776   5.138   7.399 -0.3379 -1.9501 -0.1090
27189SOL     OW86022   7.720   1.194   4.820  0.0556 -0.1802 -0.5336
27189SOL    HW186023   7.749   1.174   4.730 -0.6333 -1.2181 -0.5469
27189SOL    HW286024   7.625   1.188   4.816  0.0344 -0.6050  0.3450
27190SOL     OW86025   7.559  10.691   6.659  0.2013  0.0266  0.1614
27190SOL    HW186026   7.627  10.705   6.725  0.8000  0.4292 -0.5215
27190SOL    HW286027   7.602  10.639   6.591 -0.4400 -0.4787  0.1359
27191SOL     OW86028   9.732   9.410   2.177  0.7649  0.0272  0.2337
27191SOL    HW186029   9.750   9.389   2.086  0.5442  0.7802  0.0074
27191SOL    HW286030   9.812   9.387   2.223  1.4715  1.1026 -0.4010
27192SOL     OW86031   7.289   5.226   0.467  0.4648  0.0161 -0.5601
27192SOL    HW186032   7.302   5.156   0.404  0.7222 -0.6018  0.1680
27192SOL    HW286033   7.214   5.275   0.432 -0.7621 -1.5534 -0.2975
27193SOL     OW86034   7.562   8.775   3.743  0.0921  0.4400 -0.2989
27193SOL    HW186035   7.491   8.812   3.795 -0.6325  0.8155 -1.5199
27193SOL    HW286036   7.547   8.681   3.746 -1.5044  0.5878 -1.9343
27194SOL     OW86037   2.824   1.163   6.347  0.3029 -0.1840 -0.2287
27194SOL    HW186038   2.753   1.169   6.411  0.7973 -1.1770  0.4288
27194SOL    HW286039   2.780   1.163   6.262 -0.3244  2.0557  0.0296
27195SOL     OW86040   1.594   3.500   7.378  0.5169 -0.2001  0.2633
27195SOL    HW186041   1.672   3.510   7.324  0.5414  1.4527  0.5736
27195SOL    HW286042   1.532   3.563   7.342 -0.7806 -1.6106 -0.0906
27196SOL     OW86043   0.279   6.662   5.051 -0.1347 -0.0899  0.3672
27196SOL    HW186044   0.290   6.729   4.984  0.8253 -1.0992 -0.5219
27196SOL    HW286045   0.346   6.596   5.031 -1.8362 -1.9430  0.4201
27197SOL     OW86046   3.581   2.644   3.133 -0.4732  0.0796  0.1383
27197SOL    HW186047   3.644   2.716   3.133  0.6132 -0.8364  0.7188
27197SOL    HW286048   3.529   2.657   3.053 -0.9608  2.0404  0.7337
27198SOL     OW86049   1.267   1.041   6.220  0.4175 -0.0370 -0.0630
27198SOL    HW186050   1.348   1.077   6.258  0.6425  1.1677 -1.5893
27198SOL    HW286051   1.296   0.971   6.162  0.3557  0.2735 -0.4713
27199SOL     OW86052   4.047   0.098   9.993 -0.3880  0.1641  0.5149
27199SOL    HW186053   3.981   0.105  10.062 -1.6344  2.5252 -0.8118
27199SOL    HW286054   4.069   0.188   9.972  2.0361 -0.5459 -0.3041
27200SOL     OW86055   2.892   2.670   7.649  0.4674 -0.1338 -0.4995
27200SOL    HW186056   2.850   2.720   7.719  3.3874  2.6251 -0.4953
27200SOL    HW286057   2.978   2.647   7.684  0.6355 -1.9567 -1.9239
27201SOL     OW86058  10.086   9.549   3.704  0.3230  0.2605  0.2900
27201SOL    HW186059  10.170   9.505   3.695  1.0136  1.1229  2.0034
27201SOL    HW286060  10.106   9.642   3.693 -0.4429  0.4523  0.4324
27202SOL     OW86061   1.567   2.783   6.200 -0.1659  0.2656  0.3045
27202SOL    HW186062   1.595   2.871   6.227 -0.3173  0.3964  0.0354
27202SOL    HW286063   1.500   2.798   6.134  1.4049 -0.0388 -1.4317
27203SOL     OW86064   7.087   1.854   9.063  0.0201  0.0463  0.1945
27203SOL    HW186065   7.092   1.759   9.057 -0.5641 -0.0457  1.0990
27203SOL    HW286066   7.043   1.872   9.146  2.4531  1.1500  1.3437
27204SOL     OW86067   0.357   3.312   5.007 -0.1919  0.0006 -0.0124
27204SOL    HW186068   0.267   3.311   5.037  0.1148 -0.7949  0.9237
27204SOL    HW286069   0.385   3.220   5.009  0.6667  0.2408 -0.1931
27205SOL     OW86070   7.437   8.946   7.032  0.0447  0.2162  0.0703
27205SOL    HW186071   7.500   9.017   7.021 -0.1397  0.0749 -2.6527
27205SOL    HW286072   7.481   8.883   7.089  0.5605  2.0668  1.8220
27206SOL     OW86073   5.572   7.035   7.952  0.3506  0.3799 -0.4796
27206SOL    HW186074   5.493   7.000   7.912 -1.1345  0.9275  1.8144
27206SOL    HW286075   5.550   7.124   7.978  1.4195  0.2853  0.9307
27207SOL     OW86076   7.281   9.408   5.726 -0.3818 -0.2372  0.1991
27207SOL    HW186077   7.352   9.471   5.734 -0.5836 -0.1605  1.6466
27207SOL    HW286078   7.303   9.339   5.790  1.1596 -3.0177 -3.0145
27208SOL     OW86079   1.808   4.490   0.402  0.2230  0.0577 -0.2064
27208SOL    HW186080   1.775   4.563   0.454 -0.4393  0.7373 -1.5484
27208SOL    HW286081   1.881   4.527   0.351 -0.9166  0.1492 -1.8428
27209SOL     OW86082   5.901   6.129   3.652 -0.3978 -0.1850  0.1489
27209SOL    HW186083   5.954   6.086   3.586  1.1075  1.0184  0.5229
27209SOL    HW286084   5.816   6.144   3.609 -0.3719 -1.8854 -0.5434
27210SOL     OW86085   1.871   1.232  10.264  0.1558  0.2230  0.0104
27210SOL    HW186086   1.838   1.171  10.197  1.2816 -0.6510  0.2331
27210SOL    HW286087   1.868   1.182  10.345  0.8921  0.5332  0.2314
27211SOL     OW86088   9.008   9.892   3.487 -0.0217 -0.7702 -0.8090
27211SOL    HW186089   8.929   9.874   3.538  0.6253  0.4461  0.7044
27211SOL    HW286090   9.077   9.845   3.533  0.9090  1.8407  0.6854
27212SOL     OW86091   6.825   0.885  10.236  0.3357 -0.4825 -0.7627
27212SOL    HW186092   6.777   0.856  10.313  2.1547 -1.1333  0.1955
27212SOL    HW286093   6.887   0.814  10.218  2.3282  1.1271 -0.6685
27213SOL     OW86094   0.768   7.775  10.656  0.0408 -0.1910  0.2138
27213SOL    HW186095   0.798   7.767  10.747 -0.6635  0.8176  0.5611
27213SOL    HW286096   0.796   7.862  10.629 -0.3367 -0.2271 -0.3054
27214SOL     OW86097   5.404   3.423   2.031  0.5363  0.3635 -0.6338
27214SOL    HW186098   5.352   3.355   1.987  2.0636 -1.7254  0.5876
27214SOL    HW286099   5.494   3.392   2.025  1.2657  2.1589  0.2447
27215SOL     OW86100  10.605   9.682   3.498 -0.3861  0.7118 -0.2928
27215SOL    HW186101  10.667   9.748   3.530  0.1000  0.5009 -0.7661
27215SOL    HW286102  10.645   9.650   3.417  0.6211 -1.8782  1.0907
27216SOL     OW86103   6.530   3.586   4.650 -0.2327  0.5952 -0.3300
27216SOL    HW186104   6.604   3.636   4.617 -0.1536  0.3737 -0.4864
27216SOL    HW286105   6.515   3.518   4.584  1.8121 -1.7428  1.4220
27217SOL     OW86106   3.703   6.318   8.491 -0.4619 -0.0688 -0.1631
27217SOL    HW186107   3.789   6.320   8.450 -0.3092  0.9159  0.1851
27217SOL    HW286108   3.703   6.391   8.553 -0.9797 -1.0451  1.0223
27218SOL     OW86109   4.035   6.498   8.138 -0.8063  0.3147  0.0864
27218SOL    HW186110   4.113   6.454   8.105 -0.7296  0.9072 -0.5690
27218SOL    HW286111   4.062   6.590   8.148 -0.2662 -0.1135  3.6549
27219SOL     OW86112   1.913   9.668   6.100 -0.5570 -0.0074 -0.0935
27219SOL    HW186113   1.906   9.595   6.162  1.8034  0.4482  0.8278
27219SOL    HW286114   1.827   9.710   6.103 -1.2039 -1.3171  1.1649
27220SOL     OW86115   5.335   9.916   9.973  0.1485  0.0929  0.0327
27220SOL    HW186116   5.422   9.952   9.991 -0.3507  1.6250 -0.5066
27220SOL    HW286117   5.353   9.838   9.919  1.1557  0.8170 -0.7197
27221SOL     OW86118   8.919   9.944   5.363 -0.0944 -0.4302  0.2729
27221SOL    HW186119   8.948   9.943   5.272 -0.5015 -0.6275  0.1405
27221SOL    HW286120   8.998   9.928   5.414 -0.1512 -2.2820 -0.1307
27222SOL     OW86121  10.609   3.330   1.792 -0.1283 -0.1288 -0.2429
27222SOL    HW186122  10.558   3.307   1.870  1.5724 -0.2521  0.8775
27222SOL    HW286123  10.699   3.337   1.823  0.3929  1.2991 -1.9233
27223SOL     OW86124   8.862   3.459   1.203 -0.5732 -0.4620  0.2621
27223SOL    HW186125   8.944   3.412   1.188 -0.4129 -0.5381  1.3072
27223SOL    HW286126   8.807   3.398   1.252 -1.1244 -0.2805 -0.1210
27224SOL     OW86127   8.163   5.942   0.726 -0.5787  0.3476  0.3022
27224SOL    HW186128   8.159   5.976   0.815  1.2970  3.6459 -0.7264
27224SOL    HW286129   8.230   5.873   0.730  1.1013  1.9399  1.1164
27225SOL     OW86130   5.289   9.358   6.479 -0.2998  0.2366  0.0684
27225SOL    HW186131   5.348   9.422   6.520  0.6230 -0.5719  0.0630
27225SOL    HW286132   5.348   9.299   6.431 -1.0990 -0.7231  0.2301
27226SOL     OW86133   6.502  10.179   5.686 -0.1671  0.2529  0.0641
27226SOL    HW186134   6.531  10.089   5.697 -2.1150 -0.3571  0.6292
27226SOL    HW286135   6.538  10.206   5.601  3.4098  0.2143  1.4329
27227SOL     OW86136   7.064   7.777   1.280  0.1871 -0.4418 -0.7425
27227SOL    HW186137   7.079   7.711   1.348  2.2664 -0.3665 -1.0426
27227SOL    HW286138   7.107   7.741   1.202 -0.2324  0.4589 -1.4115
27228SOL     OW86139  10.532   0.632  10.656  0.2291 -0.0254 -0.3691
27228SOL    HW186140  10.617   0.632  10.613  0.4065 -1.7792 -0.1126
27228SOL    HW286141  10.551   0.604  10.746 -0.7939 -2.6206 -0.8696
27229SOL     OW86142   0.533   4.836   9.626  0.4388  0.5408  0.3032
27229SOL    HW186143   0.500   4.825   9.537 -0.5953 -1.3141  0.8702
27229SOL    HW286144   0.455   4.856   9.678  0.9057  0.7394  0.9410
27230SOL     OW86145   3.624   5.624   3.192 -0.3316  0.2119 -0.5325
27230SOL    HW186146   3.686   5.669   3.249 -0.1886 -0.6764  0.0328
27230SOL    HW286147   3.562   5.583   3.252 -0.6083 -0.1239 -1.0379
27231SOL     OW86148   7.375   1.753   9.142  0.0999  0.5599  0.3631
27231SOL    HW186149   7.403   1.838   9.177  0.0138  1.2393 -1.1214
27231SOL    HW286150   7.281   1.749   9.161 -0.6625  2.3809 -2.4427
27232SOL     OW86151   2.863   6.932   3.718  0.0544  0.4380  0.1453
27232SOL    HW186152   2.827   6.853   3.757 -1.0568  0.5272 -0.6664
27232SOL    HW286153   2.796   6.962   3.656  0.3545  2.1146  0.5698
27233SOL     OW86154  10.431   5.119  10.518 -0.0981  0.3223 -0.3712
27233SOL    HW186155  10.452   5.170  10.596  1.1983  0.6093 -0.8851
27233SOL    HW286156  10.398   5.183  10.455  1.1071  0.5026 -0.8588
27234SOL     OW86157   8.205   2.808   1.555  0.4743  0.1880 -0.0625
27234SOL    HW186158   8.152   2.816   1.476  0.2713 -0.5557 -0.0038
27234SOL    HW286159   8.284   2.860   1.536  0.5783 -0.2485 -0.8824
27235SOL     OW86160  10.121   5.023   1.446 -0.3147  0.3750  0.6308
27235SOL    HW186161  10.210   5.058   1.436 -0.1641 -0.3201 -0.6517
27235SOL    HW286162  10.123   4.977   1.531  0.3491  0.9087  0.9178
27236SOL     OW86163   1.629  10.076   1.667  0.1484  0.0935 -0.0455
27236SOL    HW186164   1.562  10.127   1.713 -1.6545 -0.7913 -1.5603
27236SOL    HW286165   1.608   9.985   1.686 -0.6441 -0.3129 -2.4180
27237SOL     OW86166   7.938   7.131   9.329 -0.3260 -0.6350 -0.3763
27237SOL    HW186167   7.905   7.080   9.255  0.0360 -0.6221 -0.5517
27237SOL    HW286168   7.940   7.221   9.296  4.3309 -1.0897 -2.1246
27238SOL     OW86169  10.055   7.508   5.861 -0.5882  0.1721  0.2900
27238SOL    HW186170  10.147   7.482   5.853 -0.7995 -0.0482 -1.9744
27238SOL    HW286171  10.006   7.438   5.818 -1.8261  0.4490  1.1788
27239SOL     OW86172   7.936   8.460  11.035  0.5198  0.2613 -0.0210
27239SOL    HW186173   8.000   8.491  11.098  0.4369 -0.9279  0.6983
27239SOL    HW286174   7.976   8.383  10.996 -0.5757 -0.7265  0.7127
27240SOL     OW86175   1.045   0.931   9.423 -0.1768 -0.0331 -0.3627
27240SOL    HW186176   0.986   0.991   9.377  1.0157  2.3030  0.9732
27240SOL    HW286177   0.993   0.851   9.434 -2.9007  1.6439  0.1294
27241SOL     OW86178   4.932  10.887   0.913 -0.3301  0.3944  0.2370
27241SOL    HW186179   4.958  10.809   0.963  0.2563 -0.3552 -1.1981
27241SOL    HW286180   4.918  10.954   0.980  0.0087 -0.6965  1.4408
27242SOL     OW86181   6.131   3.085   5.005  0.3299  0.1013 -0.2097
27242SOL    HW186182   6.132   3.173   4.967  2.1721  0.0931 -0.2695
27242SOL    HW286183   6.200   3.038   4.958  0.1656 -1.0246  0.6318
27243SOL     OW86184   0.790   6.753   0.098  0.1292 -0.0909  0.0734
27243SOL    HW186185   0.815   6.695   0.170  2.2178 -1.5146 -1.6759
27243SOL    HW286186   0.737   6.698   0.041 -0.2814  0.5942 -0.2210
27244SOL     OW86187   8.386   6.036   2.952  0.1272 -0.1171 -0.4838
27244SOL    HW186188   8.420   5.947   2.942 -2.0320 -0.9623 -0.6962
27244SOL    HW286189   8.292   6.028   2.938 -0.3428  1.9559  1.0189
27245SOL     OW86190   6.139   4.099   0.738  0.4769  0.0081  0.3477
27245SOL    HW186191   6.138   4.040   0.813 -0.3372  0.3840  0.6453
27245SOL    HW286192   6.047   4.122   0.725  0.8006  1.3942  0.3879
27246SOL     OW86193   8.687   1.132   7.243  0.1319  0.1955  0.5529
27246SOL    HW186194   8.686   1.133   7.148 -1.4187 -1.5357  0.4727
27246SOL    HW286195   8.690   1.224   7.269 -1.0243  0.7769 -1.2019
27247SOL     OW86196   3.192   5.702   3.251  0.0612  0.3116 -0.1609
27247SOL    HW186197   3.221   5.700   3.342  2.8250 -0.7706 -0.9764
27247SOL    HW286198   3.158   5.791   3.239 -0.0034  0.5932  1.7999
27248SOL     OW86199  10.220   1.256   9.222  0.1753 -0.2255 -0.2586
27248SOL    HW186200  10.266   1.172   9.219 -0.4709 -0.5534 -1.5084
27248SOL    HW286201  10.288   1.321   9.209  0.4742 -0.6349 -0.7672
27249SOL     OW86202   7.286   7.957  10.086  0.2782  0.1072  0.3153
27249SOL    HW186203   7.286   8.052  10.074  0.3106  0.4485  2.5617
27249SOL    HW286204   7.296   7.945  10.181 -1.5794 -2.1023  0.3226
27250SOL     OW86205   5.663   8.888   6.776 -0.3993  0.2826  0.1041
27250SOL    HW186206   5.662   8.948   6.701 -2.1858  0.5460  0.2944
27250SOL    HW286207   5.633   8.941   6.850 -1.4497 -0.6633  0.3938
27251SOL     OW86208   4.252   8.123   3.538  0.3407  0.5543 -0.1390
27251SOL    HW186209   4.270   8.065   3.463 -0.3085 -0.1933  0.2635
27251SOL    HW286210   4.320   8.100   3.602  0.4353  0.6466 -0.2073
27252SOL     OW86211  11.034   4.011   4.204  0.0358  0.0654 -0.0020
27252SOL    HW186212  11.026   4.091   4.153  1.1140  0.5006  0.4773
27252SOL    HW286213  10.970   4.021   4.275 -1.1555 -0.3517 -0.9812
27253SOL     OW86214   9.424   0.858   8.591  0.0696 -0.1707  1.0734
27253SOL    HW186215   9.514   0.875   8.562  0.1600 -0.7088  1.0159
27253SOL    HW286216   9.434   0.797   8.664 -0.2853 -0.9680  0.4754
27254SOL     OW86217   0.973   3.719   2.293 -0.2783  0.0258  0.0121
27254SOL    HW186218   0.992   3.803   2.251 -3.0992 -0.0935 -1.7681
27254SOL    HW286219   0.887   3.731   2.334  0.0633 -1.4779  1.2642
27255SOL     OW86220   2.918   8.416   3.065  0.2968  0.5139 -0.4294
27255SOL    HW186221   2.878   8.502   3.075 -0.3524  0.5938 -3.1274
27255SOL    HW286222   2.855   8.355   3.102 -0.2306  1.0141 -0.5023
27256SOL     OW86223   4.118  10.742   0.762  0.5153  0.2476  1.3378
27256SOL    HW186224   4.059  10.677   0.802 -1.0005  1.1301  0.6287
27256SOL    HW286225   4.145  10.797   0.835  0.0012  0.1716  1.5918
27257SOL     OW86226   3.932   6.321   2.619 -0.5631  0.6477 -0.0875
27257SOL    HW186227   3.979   6.284   2.694 -2.3419 -2.6214 -0.3961
27257SOL    HW286228   3.866   6.378   2.658 -0.8912 -0.3195  0.8376
27258SOL     OW86229   3.688   0.181  10.455 -0.1215 -0.2443  0.1606
27258SOL    HW186230   3.660   0.233  10.531  2.8644  2.5062 -0.4021
27258SOL    HW286231   3.780   0.159  10.473  0.1147 -1.1521 -1.8409
27259SOL     OW86232   5.656   3.519   9.687 -0.2636  0.6315  0.5124
27259SOL    HW186233   5.686   3.575   9.760  0.6238 -1.0805  1.5370
27259SOL    HW286234   5.652   3.431   9.725 -0.9364 -0.1274 -1.2234
27260SOL     OW86235  10.473   8.889   6.629 -0.4843 -0.2211 -0.4479
27260SOL    HW186236  10.526   8.912   6.705 -2.8025  0.0157  1.2091
27260SOL    HW286237  10.526   8.915   6.553  1.8860 -0.4005  1.0439
27261SOL     OW86238   5.650   4.500   3.988  0.0344  0.0472  0.0405
27261SOL    HW186239   5.633   4.417   3.943 -0.5054 -0.3175  0.9072
27261SOL    HW286240   5.718   4.480   4.052 -0.0764  0.2876  0.2353
27262SOL     OW86241   0.677   1.913   7.717  0.6972 -0.5715  0.0503
27262SOL    HW186242   0.597   1.860   7.717  0.3578 -0.2020 -3.0927
27262SOL    HW286243   0.649   1.999   7.686  1.8234  0.5946  1.9940
27263SOL     OW86244   5.364   3.112  11.034 -0.4958  0.0323  0.1910
27263SOL    HW186245   5.435   3.081  11.091  0.3086 -1.2049 -1.3906
27263SOL    HW286246   5.397   3.194  10.998 -0.5428  0.2610  0.6587
27264SOL     OW86247   7.324   3.054   9.426 -0.6352  0.3843  0.0503
27264SOL    HW186248   7.325   3.104   9.345  1.1680  1.1018  0.4624
27264SOL    HW286249   7.404   3.081   9.472  0.3268 -2.7243  0.4134
27265SOL     OW86250   1.884  11.055   4.544  0.0575 -0.0279 -0.2007
27265SOL    HW186251   1.849  11.133   4.501  0.1897  0.5398  0.7007
27265SOL    HW286252   1.842  10.982   4.498  0.2921  0.5520 -1.3581
27266SOL     OW86253   7.107   4.921   0.995  0.1285 -0.6289  0.0222
27266SOL    HW186254   7.083   4.828   1.001  0.2361 -0.6584 -0.0022
27266SOL    HW286255   7.023   4.966   0.982 -0.2855 -0.4577  2.6941
27267SOL     OW86256   4.442   3.748   0.293  0.3050  0.0126  0.3528
27267SOL    HW186257   4.408   3.661   0.272 -0.4190  0.2656  0.4564
27267SOL    HW286258   4.464   3.786   0.208 -0.8019  0.2941  0.1740
27268SOL     OW86259   0.871   5.571   9.889 -0.1256  0.1665  0.0939
27268SOL    HW186260   0.814   5.513   9.940 -0.2185 -0.2163 -0.4428
27268SOL    HW286261   0.944   5.515   9.862 -0.8338 -0.0353 -1.4829
27269SOL     OW86262   0.959   4.539   9.582  0.4992 -0.0672  0.4090
27269SOL    HW186263   0.961   4.489   9.663  0.9574 -0.7806 -0.0433
27269SOL    HW286264   0.870   4.525   9.548  1.1396 -1.9579 -0.5726
27270SOL     OW86265   3.324   6.293   5.128  0.8705  0.9215  0.3118
27270SOL    HW186266   3.353   6.218   5.076 -0.7087 -0.0685  0.7752
27270SOL    HW286267   3.243   6.322   5.086  0.9217  1.7094  0.7473
27271SOL     OW86268   6.529  10.060   3.780 -0.2981 -0.1327 -0.5299
27271SOL    HW186269   6.619  10.089   3.767 -0.3619 -0.1781 -1.0847
27271SOL    HW286270   6.493  10.121   3.845  0.1955 -0.2499 -0.1426
27272SOL     OW86271   0.910   0.600   7.556  0.0767  0.1972 -0.7584
27272SOL    HW186272   0.965   0.645   7.492  2.2421 -1.4832 -0.1766
27272SOL    HW286273   0.941   0.631   7.641 -1.1204  0.5671 -0.4327
27273SOL     OW86274   3.446   4.165   7.064 -0.5272 -0.3137  0.5116
27273SOL    HW186275   3.437   4.069   7.062 -1.5015 -0.2340 -0.5627
27273SOL    HW286276   3.451   4.190   6.971  0.1408  0.6457  0.7953
27274SOL     OW86277   5.137   1.734  10.990  0.4085  0.2234  0.1091
27274SOL    HW186278   5.233   1.733  11.000  0.3453 -1.1799  0.7151
27274SOL    HW286279   5.109   1.647  11.016 -0.7749 -0.4054 -2.9194
27275SOL     OW86280   2.727   7.165   1.754 -0.3134 -0.0742 -0.1520
27275SOL    HW186281   2.716   7.259   1.737 -1.0189  0.3127  2.0738
27275SOL    HW286282   2.672   7.148   1.831  2.5326 -1.5128  1.7660
27276SOL     OW86283   5.592   5.707   9.578 -0.0322  0.7402  0.6302
27276SOL    HW186284   5.512   5.720   9.527 -0.5654 -1.7663  0.6815
27276SOL    HW286285   5.663   5.728   9.518 -0.6578 -1.4148 -1.0133
27277SOL     OW86286   1.622   5.266   2.526  0.3931 -0.8226  0.3819
27277SOL    HW186287   1.692   5.296   2.585  0.3894 -0.1604  0.0675
27277SOL    HW286288   1.547   5.321   2.549  0.5168 -0.2388 -0.5217
27278SOL     OW86289   7.360   8.047   3.970 -0.3914  0.1422  0.0344
27278SOL    HW186290   7.297   8.069   4.039  0.6082 -2.9025  2.1612
27278SOL    HW286291   7.317   7.977   3.920 -0.0506  0.4506 -0.6980
27279SOL     OW86292   0.670   3.290   3.568 -0.4853  0.0147 -0.1498
27279SOL    HW186293   0.612   3.242   3.628 -0.4459  0.1406 -0.0111
27279SOL    HW286294   0.641   3.263   3.481  0.9466 -1.9878 -0.0743
27280SOL     OW86295   5.655   8.093   4.098 -0.4266  0.2222  0.0653
27280SOL    HW186296   5.728   8.032   4.109  0.8316  1.7314  0.3964
27280SOL    HW286297   5.697   8.179   4.091 -2.1884  1.1334  0.3344
27281SOL     OW86298   7.796   7.662   9.101 -0.3886  0.3950 -0.4854
27281SOL    HW186299   7.835   7.727   9.043  0.4675 -0.0520 -0.4211
27281SOL    HW286300   7.726   7.623   9.049  0.7267 -0.3997 -1.4437
27282SOL     OW86301   4.322   7.268   9.329 -0.2610 -0.8811  0.1174
27282SOL    HW186302   4.411   7.250   9.297 -0.5688 -2.0540 -0.1165
27282SOL    HW286303   4.329   7.265   9.424 -0.3081 -2.3192  0.0829
27283SOL     OW86304   9.982   6.299   3.737 -0.5513 -0.3299  0.5995
27283SOL    HW186305  10.055   6.319   3.795  0.8728 -0.0380 -1.1778
27283SOL    HW286306   9.926   6.377   3.742 -0.3118 -0.2004  1.3708
27284SOL     OW86307   9.407   2.893   5.472 -0.0970  0.4325 -0.1404
27284SOL    HW186308   9.320   2.932   5.477 -0.3020 -0.0382  0.0012
27284SOL    HW286309   9.458   2.937   5.540  0.0844  1.4721 -0.9353
27285SOL     OW86310   2.610   8.943   4.070 -0.0142  0.2159 -0.7662
27285SOL    HW186311   2.556   8.882   4.019 -0.7755 -0.0003  0.2551
27285SOL    HW286312   2.699   8.927   4.040  0.3219 -3.7270  1.5905
27286SOL     OW86313   1.358   7.323   6.706 -0.1826 -0.2139  0.1165
27286SOL    HW186314   1.402   7.374   6.775  1.4725 -2.8622  1.1570
27286SOL    HW286315   1.361   7.380   6.629  0.9335  1.5385  1.3667
27287SOL     OW86316   2.160   4.443   0.370  0.6662  0.3712  1.0070
27287SOL    HW186317   2.189   4.475   0.455  1.8215 -1.2512  1.2790
27287SOL    HW286318   2.176   4.348   0.373  1.4716  0.3569 -1.2670
27288SOL     OW86319   8.997   0.743   1.955 -0.2021  0.1359 -0.1851
27288SOL    HW186320   8.948   0.707   2.029  0.3232 -1.9177 -0.7820
27288SOL    HW286321   9.059   0.675   1.932 -0.3453  0.7165 -2.5246
27289SOL     OW86322   9.140   1.329   1.097  0.1775 -0.5466 -0.0997
27289SOL    HW186323   9.184   1.249   1.124  0.7541 -0.0175  0.5823
27289SOL    HW286324   9.135   1.324   1.002  3.2618  0.1195 -0.4130
27290SOL     OW86325   4.949  10.659   3.083  0.7801  0.6107  0.2175
27290SOL    HW186326   4.873  10.619   3.126  0.7159 -0.3280 -0.7248
27290SOL    HW286327   5.025  10.620   3.127  0.7225  1.0455  0.7099
27291SOL     OW86328   1.995   6.043   6.965 -0.5732  0.1607  0.4444
27291SOL    HW186329   1.986   6.002   7.051  0.5320 -0.2548  0.3841
27291SOL    HW286330   2.026   6.131   6.984  1.6315 -0.5555  0.4499
27292SOL     OW86331  10.653   4.752   8.405  0.6803 -0.3106  0.1694
27292SOL    HW186332  10.695   4.738   8.490 -1.9486 -1.0132  1.4520
27292SOL    HW286333  10.602   4.832   8.417 -0.1987 -0.7545 -0.5451
27293SOL     OW86334   2.057   0.206   4.007 -0.5669 -0.1345  0.4105
27293SOL    HW186335   2.028   0.257   4.083 -3.7113 -0.1655 -0.6386
27293SOL    HW286336   2.060   0.116   4.039  2.8344  0.2690  1.6604
27294SOL     OW86337   0.480   3.947   2.645  0.2799  0.3909 -0.2146
27294SOL    HW186338   0.533   3.902   2.711 -1.4860 -0.2542  0.8147
27294SOL    HW286339   0.446   4.024   2.691  2.0886  2.1064 -1.5351
27295SOL     OW86340   7.309   0.712   1.010 -0.0133  0.1093  0.0361
27295SOL    HW186341   7.244   0.772   1.047 -0.7223 -0.1577 -0.7487
27295SOL    HW286342   7.342   0.664   1.086 -1.7151 -0.6872  0.3187
27296SOL     OW86343   2.963   8.971   5.978 -0.1263  0.4243 -0.5538
27296SOL    HW186344   2.961   8.887   5.932 -3.6279 -1.3650  2.2846
27296SOL    HW286345   2.910   9.029   5.925  0.7687  0.2993 -1.6181
27297SOL     OW86346   9.469   1.176   3.573  0.1279 -0.4650 -0.1294
27297SOL    HW186347   9.467   1.204   3.482  1.8199 -1.3626 -0.4881
27297SOL    HW286348   9.468   1.258   3.623 -1.2942  0.0180 -0.9153
27298SOL     OW86349   6.113   1.113   3.977 -0.1587  0.5652  0.7982
27298SOL    HW186350   6.133   1.202   3.950  0.8318 -0.0248 -0.5421
27298SOL    HW286351   6.017   1.106   3.970 -0.0496  0.7405 -1.8034
27299SOL     OW86352   1.171  10.621   7.382  0.0672  0.1465  0.4486
27299SOL    HW186353   1.235  10.576   7.326 -2.3545 -0.4539 -2.0395
27299SOL    HW286354   1.150  10.557   7.450  0.5521 -0.4357  0.0691
27300SOL     OW86355   3.960   7.621   3.714 -0.0099 -0.5120  0.4730
27300SOL    HW186356   3.990   7.604   3.625  0.2653 -1.6158  0.7525
27300SOL    HW286357   3.899   7.694   3.706 -0.7687 -1.2483 -0.7634
27301SOL     OW86358   2.117  10.066   9.964  0.0952  0.2743  0.3581
27301SOL    HW186359   2.023  10.074   9.983  0.1598  1.2530  0.3352
27301SOL    HW286360   2.151  10.008  10.032 -0.6485 -0.6387 -0.0371
27302SOL     OW86361   6.095   2.114   4.022  0.1135 -0.2854 -0.6625
27302SOL    HW186362   6.051   2.184   3.975  0.7816  0.8964  0.4278
27302SOL    HW286363   6.148   2.070   3.956 -0.1112  0.3996 -1.3062
27303SOL     OW86364   5.374   4.420   8.892 -0.0051  0.3880  0.5547
27303SOL    HW186365   5.374   4.514   8.873  1.9009  0.4442  0.7011
27303SOL    HW286366   5.461   4.390   8.866 -0.2885 -1.1774  1.3097
27304SOL     OW86367   5.216   1.040   7.573 -0.0784  0.5465 -0.4316
27304SOL    HW186368   5.191   1.106   7.509 -0.3008  0.4555 -0.4422
27304SOL    HW286369   5.243   0.965   7.520 -0.5848  0.3529 -0.4221
27305SOL     OW86370   9.156   7.743   2.926  0.4180  0.5117 -0.1439
27305SOL    HW186371   9.167   7.751   3.021 -1.7116  0.7514  0.1236
27305SOL    HW286372   9.068   7.707   2.915  1.2641 -1.2074 -2.0072
27306SOL     OW86373   2.939   4.265   4.021 -0.7524  0.0061  0.6129
27306SOL    HW186374   2.962   4.287   4.112 -2.5890  1.7160  0.7424
27306SOL    HW286375   2.843   4.264   4.020 -0.7786  0.2541 -1.3669
27307SOL     OW86376   6.709   1.509   3.403  0.2561 -0.4837 -0.4511
27307SOL    HW186377   6.671   1.594   3.425  2.6360  0.1547  1.7882
27307SOL    HW286378   6.770   1.528   3.331 -2.5044 -1.2842 -3.1996
27308SOL     OW86379   9.698   5.145   4.015  1.0097 -0.0013  0.1003
27308SOL    HW186380   9.794   5.151   4.016  1.0563 -0.6915  0.4768
27308SOL    HW286381   9.668   5.228   4.053  1.4742 -0.0893  0.6745
27309SOL     OW86382   0.335   3.814   0.866  0.0921  0.1811  0.6610
27309SOL    HW186383   0.374   3.781   0.785  1.0207  1.3530  0.5935
27309SOL    HW286384   0.295   3.738   0.907  0.2528 -0.5712 -0.5429
27310SOL     OW86385   2.406   8.951   2.747  0.0727  0.6324 -0.1008
27310SOL    HW186386   2.380   8.981   2.834 -0.7214 -1.1718  0.3380
27310SOL    HW286387   2.352   9.002   2.687 -1.6806 -0.2659  0.6350
27311SOL     OW86388   5.919   8.389   1.772  0.2563 -0.1811  0.1981
27311SOL    HW186389   5.905   8.428   1.686 -0.8941  0.6064  0.7168
27311SOL    HW286390   5.961   8.458   1.824 -0.5090 -0.0900  0.7157
27312SOL     OW86391   6.062   6.914  10.212  0.1012 -0.0338  0.6533
27312SOL    HW186392   6.086   6.823  10.227  0.7556  0.0997  0.4311
27312SOL    HW286393   6.141   6.964  10.232 -0.3305  0.5169  1.0465
27313SOL     OW86394   4.448   1.782   6.684 -0.3819  0.2605 -0.4980
27313SOL    HW186395   4.475   1.867   6.650  0.5348  0.7749  1.3497
27313SOL    HW286396   4.482   1.718   6.621 -0.0172  1.2102 -1.2779
27314SOL     OW86397   5.924   0.702  10.275  0.5304 -0.3581 -0.4140
27314SOL    HW186398   5.865   0.632  10.301 -0.6979  1.5707  2.6193
27314SOL    HW286399   5.904   0.718  10.183 -1.2159 -2.0122 -0.3840
27315SOL     OW86400   3.945   1.515   2.154 -0.1227  0.1711 -0.2519
27315SOL    HW186401   4.003   1.482   2.222  0.4091 -0.4783 -1.0038
27315SOL    HW286402   3.977   1.475   2.073 -1.2229  0.3097 -0.7779
27316SOL     OW86403   4.952   5.110   5.746  0.2303  0.0216 -0.2167
27316SOL    HW186404   4.879   5.055   5.774 -0.6605  1.9436  1.4623
27316SOL    HW286405   4.994   5.137   5.827  0.9235  1.4192 -1.0061
27317SOL     OW86406   3.819   9.268   2.831 -0.7368  0.4384  0.5953
27317SOL    HW186407   3.784   9.180   2.821  0.0421  0.1444  0.4465
27317SOL    HW286408   3.779   9.318   2.760  0.5419 -0.3299 -0.6914
27318SOL     OW86409   7.319   2.853   7.319  0.4465  0.2667  0.0978
27318SOL    HW186410   7.327   2.866   7.224 -0.2879  0.8837  0.1063
27318SOL    HW286411   7.321   2.758   7.331  2.1578  0.1964 -0.3673
27319SOL     OW86412   9.168   2.545   5.382 -0.7435  0.2392 -0.1688
27319SOL    HW186413   9.258   2.568   5.360 -0.9536  0.1117 -1.2319
27319SOL    HW286414   9.122   2.630   5.388 -0.5644  0.3033  0.3669
27320SOL     OW86415   2.824   1.169   8.175  0.1536  0.0449  0.2239
27320SOL    HW186416   2.804   1.082   8.141  0.4901  0.7300 -1.8402
27320SOL    HW286417   2.919   1.175   8.174  0.1432  1.4884 -2.7092
27321SOL     OW86418  10.695  10.325   9.039 -0.0241 -0.3568 -0.5169
27321SOL    HW186419  10.764  10.387   9.061  0.8299 -1.2049 -0.7358
27321SOL    HW286420  10.692  10.325   8.943 -1.5488  0.9642 -0.5067
27322SOL     OW86421   8.970   7.310   2.291 -0.4765 -0.5621 -0.6578
27322SOL    HW186422   8.918   7.300   2.211 -2.6136  1.2476  0.3780
27322SOL    HW286423   8.932   7.247   2.352 -0.3043 -0.4206 -0.4017
27323SOL     OW86424  10.056   8.591   5.071  0.2242 -0.2866 -0.7012
27323SOL    HW186425  10.135   8.629   5.034 -0.2033  1.8144  0.3883
27323SOL    HW286426  10.086   8.545   5.150  0.2520  1.9118  0.6532
27324SOL     OW86427   6.021  10.429   7.473  0.2121  0.8359 -0.2053
27324SOL    HW186428   6.014  10.386   7.388 -3.7561  1.8039 -0.5868
27324SOL    HW286429   6.045  10.519   7.453  0.1329  0.8544 -0.2189
27325SOL     OW86430   7.426   1.015   3.601  0.2974 -0.0337  0.3331
27325SOL    HW186431   7.423   0.974   3.688  1.2080  2.1623  1.4925
27325SOL    HW286432   7.335   1.034   3.581  0.1828  4.7880  3.7131
27326SOL     OW86433   9.638   1.754   3.102  0.2588 -0.0570  0.0900
27326SOL    HW186434   9.562   1.725   3.153  0.1124  0.9464  0.4760
27326SOL    HW286435   9.688   1.810   3.162  0.4414  0.5975 -0.6443
27327SOL     OW86436   7.662   3.745   1.077  0.1947  0.5575 -0.0959
27327SOL    HW186437   7.595   3.686   1.111  0.7149 -0.4157 -0.7350
27327SOL    HW286438   7.662   3.731   0.983  0.4843  1.4211 -0.2352
27328SOL     OW86439   4.657   9.614   3.036  0.0875 -0.2122 -0.3073
27328SOL    HW186440   4.707   9.536   3.012  0.2983 -0.3691  0.6140
27328SOL    HW286441   4.690   9.639   3.122 -1.5825 -0.4532  0.4351
27329SOL     OW86442   2.570   7.679   0.013  0.1905  0.4304  0.5813
27329SOL    HW186443   2.516   7.608   0.049  0.0974  1.7164  3.2332
27329SOL    HW286444   2.655   7.637  -0.003 -0.1679 -0.5407  1.0716
27330SOL     OW86445   0.411   0.812   9.045 -0.2186 -0.0166  0.1743
27330SOL    HW186446   0.504   0.790   9.040 -0.1173  0.4640 -0.2389
27330SOL    HW286447   0.367   0.744   8.994 -0.2898 -1.2685  1.8476
27331SOL     OW86448   6.077   1.730   8.271 -0.2933 -0.2813 -0.0825
27331SOL    HW186449   6.092   1.812   8.317 -0.1271  0.4398 -1.3862
27331SOL    HW286450   5.983   1.714   8.281 -0.1291 -0.5772  1.1846
27332SOL     OW86451   7.235  10.027  10.204 -0.6019  0.0585  0.0384
27332SOL    HW186452   7.286  10.092  10.252 -1.7056 -0.6136  2.2445
27332SOL    HW286453   7.277  10.022  10.118  1.7270  1.0413  1.0343
27333SOL     OW86454   7.547   3.647   8.140  0.4051  0.0014  0.5915
27333SOL    HW186455   7.587   3.716   8.087  1.3496 -1.3526 -0.5080
27333SOL    HW286456   7.457   3.641   8.108  0.0625  1.2426  1.2507
27334SOL     OW86457   3.733   2.369   7.216  0.2676 -0.2181  0.3994
27334SOL    HW186458   3.642   2.385   7.190 -0.1228 -0.5287  1.5106
27334SOL    HW286459   3.729   2.360   7.311  1.6034  0.6827  0.5651
27335SOL     OW86460   2.618   9.064  10.844  0.2925  0.2285  0.5930
27335SOL    HW186461   2.678   9.122  10.796  0.5970 -0.4177  0.1707
27335SOL    HW286462   2.543   9.119  10.865 -0.2321  0.3246 -1.3708
27336SOL     OW86463   5.634   7.099   3.482 -0.1766 -0.6270 -0.2688
27336SOL    HW186464   5.628   7.136   3.570  1.3065 -0.2303 -0.3201
27336SOL    HW286465   5.680   7.016   3.493 -1.1477 -1.2208 -0.5176
27337SOL     OW86466   2.933   7.627   5.241  0.0640  0.1905 -0.3058
27337SOL    HW186467   2.952   7.682   5.165  0.0122  1.1295  0.3375
27337SOL    HW286468   2.891   7.687   5.303  0.4734 -0.4588  0.6137
27338SOL     OW86469   1.631   2.884   7.172 -0.3214 -0.2438  0.3972
27338SOL    HW186470   1.632   2.952   7.104  0.7806  0.1247  0.7743
27338SOL    HW286471   1.591   2.926   7.248 -0.6465 -0.3653  0.3004
27339SOL     OW86472   4.105  10.123   3.750 -0.8173 -0.2376  0.2784
27339SOL    HW186473   4.063  10.038   3.738 -0.0059 -0.6686  0.4185
27339SOL    HW286474   4.036  10.179   3.786 -1.9928 -0.2222 -1.8116
27340SOL     OW86475   5.133   4.994   2.876  0.2369 -0.5013  0.2858
27340SOL    HW186476   5.059   5.025   2.824 -1.7298 -1.4549  2.3342
27340SOL    HW286477   5.206   5.049   2.849 -0.8981 -0.2775 -2.6603
27341SOL     OW86478   5.146   8.830   9.849 -0.0585  0.0770  0.0386
27341SOL    HW186479   5.100   8.746   9.842 -0.8873  0.5298  0.0007
27341SOL    HW286480   5.107   8.884   9.781 -1.0913  1.2252  1.4967
27342SOL     OW86481   6.603  10.859   9.588  0.2168 -0.1849  0.1620
27342SOL    HW186482   6.552  10.902   9.520  0.7058 -0.3448 -0.3186
27342SOL    HW286483   6.616  10.770   9.556  1.2588  0.0110  0.0055
27343SOL     OW86484   7.134   7.483   7.570 -0.1619 -0.1155  0.0616
27343SOL    HW186485   7.226   7.510   7.574 -0.1599 -0.1970  0.9472
27343SOL    HW286486   7.085   7.565   7.578 -0.1645 -0.1129  0.0217
27344SOL     OW86487   5.877   5.345  10.440 -0.0982  0.0227  0.0545
27344SOL    HW186488   5.801   5.368  10.387  0.7736  1.3015 -0.7123
27344SOL    HW286489   5.886   5.418  10.502  0.2433 -0.3300  0.4254
27345SOL     OW86490   4.515   5.395   5.480 -0.2871 -0.2097  0.1609
27345SOL    HW186491   4.425   5.367   5.499 -1.2065  1.1236 -1.8373
27345SOL    HW286492   4.550   5.327   5.423 -1.1119  0.6116 -1.4150
27346SOL     OW86493   2.980   1.032  10.706 -0.2800  0.2634 -0.0962
27346SOL    HW186494   2.924   0.965  10.744 -0.6929  0.5266 -0.2384
27346SOL    HW286495   2.925   1.109  10.699  1.1954  1.9249  3.7485
27347SOL     OW86496   6.750   5.532  10.566  0.2133  0.0927 -0.0992
27347SOL    HW186497   6.807   5.567  10.634 -0.3676  2.1901 -0.6229
27347SOL    HW286498   6.667   5.516  10.611 -0.3112  1.9044 -0.3396
27348SOL     OW86499   9.672   9.732   0.009  0.2569 -0.1976 -0.1195
27348SOL    HW186500   9.653   9.667   0.076 -0.6743 -2.1584 -2.1822
27348SOL    HW286501   9.605   9.799   0.021 -1.6878 -1.9107 -0.7560
27349SOL     OW86502   0.974   5.023   3.420 -0.1725 -0.5864  0.1962
27349SOL    HW186503   0.910   5.093   3.404 -0.0405 -0.4070  0.4514
27349SOL    HW286504   0.926   4.958   3.471  0.3598  0.4085  2.0586
27350SOL     OW86505   4.506   7.272   4.250  0.2112 -0.2784 -0.3214
27350SOL    HW186506   4.440   7.311   4.307  0.3611  0.3048 -0.5449
27350SOL    HW286507   4.482   7.302   4.162 -0.0358 -1.1914 -0.5793
27351SOL     OW86508   2.447   9.888   9.982 -0.2333  0.1773 -0.5422
27351SOL    HW186509   2.470   9.797   9.965  0.2113 -0.1031  1.3625
27351SOL    HW286510   2.381   9.883  10.052 -0.5365  1.3019 -0.7318
27352SOL     OW86511   5.154   7.531   0.787  0.3676 -0.4549  0.2457
27352SOL    HW186512   5.141   7.500   0.877 -2.6275 -1.7359 -0.5060
27352SOL    HW286513   5.068   7.561   0.759  1.2058 -0.1257 -2.2213
27353SOL     OW86514  10.169   0.751   3.781 -0.0578  0.1417  0.0012
27353SOL    HW186515  10.076   0.769   3.767 -0.6152 -1.1057  1.7905
27353SOL    HW286516  10.207   0.837   3.798 -0.7733  0.7190 -1.1635
27354SOL     OW86517   9.802   6.736   8.186 -0.5132  0.0125  0.0793
27354SOL    HW186518   9.731   6.678   8.158 -0.2905 -0.0960 -0.2750
27354SOL    HW286519   9.772   6.824   8.165 -1.0445  0.0726  1.0354
27355SOL     OW86520   6.877   3.250   8.250  0.1225 -0.3695 -0.1093
27355SOL    HW186521   6.920   3.259   8.335 -1.6830 -0.3247  0.8454
27355SOL    HW286522   6.798   3.198   8.268 -0.8803  0.5730 -1.5360
27356SOL     OW86523  10.681   8.580   9.604 -0.0197  0.4440  0.2324
27356SOL    HW186524  10.618   8.509   9.613  0.8683 -0.2018  1.6967
27356SOL    HW286525  10.715   8.571   9.515 -3.3579  2.0356 -1.3767
27357SOL     OW86526   8.824   9.299   3.571  0.3528  0.0733 -0.3043
27357SOL    HW186527   8.806   9.235   3.640  1.7994 -1.2366 -1.0766
27357SOL    HW286528   8.823   9.384   3.616  0.1528 -0.6468  1.1064
27358SOL     OW86529   7.936   2.776   4.628  0.3095 -0.6405 -0.4479
27358SOL    HW186530   7.916   2.820   4.546 -2.1911 -1.6973 -0.4914
27358SOL    HW286531   7.979   2.694   4.602 -0.8353 -1.1600 -0.7705
27359SOL     OW86532   1.063  10.764   4.392 -0.7575 -0.2183  0.6143
27359SOL    HW186533   1.108  10.699   4.447  0.9896  0.4667  0.0786
27359SOL    HW286534   1.085  10.738   4.302  0.8797  1.6586  0.4048
27360SOL     OW86535   2.005   9.480   4.437 -0.1835  0.1998  0.1316
27360SOL    HW186536   1.941   9.468   4.507  0.1729  0.8249  0.5727
27360SOL    HW286537   1.986   9.409   4.376 -0.6643 -0.2086  0.7342
27361SOL     OW86538   9.320   1.128   3.847 -0.0353  0.6500  0.2330
27361SOL    HW186539   9.329   1.167   3.760  0.9397 -1.9616 -0.9413
27361SOL    HW286540   9.244   1.071   3.841  0.2365  0.1841  0.9923
27362SOL     OW86541  10.417  10.489   3.218 -0.5014 -0.4726  0.8851
27362SOL    HW186542  10.339  10.436   3.200  0.4794 -1.5939 -0.3086
27362SOL    HW286543  10.454  10.452   3.298 -0.4930 -0.7758  0.7398
27363SOL     OW86544   9.468   2.743   5.927  1.3619  0.5988 -0.6887
27363SOL    HW186545   9.390   2.707   5.969  1.0611  0.8045 -1.0778
27363SOL    HW286546   9.462   2.838   5.942  0.5080  0.8511 -2.4352
27364SOL     OW86547  10.789   2.423   1.934 -0.3422  0.0743  0.2494
27364SOL    HW186548  10.716   2.440   1.994 -0.9433 -2.3468  0.3234
27364SOL    HW286549  10.853   2.375   1.988 -0.9827 -2.3309 -0.9892
27365SOL     OW86550   8.160   7.243  10.574 -0.0249  0.2096  0.0017
27365SOL    HW186551   8.161   7.148  10.559  0.0436  0.3121 -0.6892
27365SOL    HW286552   8.115   7.278  10.497 -1.0478  0.6567  0.7806
27366SOL     OW86553  10.190   4.314   0.155  0.3095  0.2287 -0.0386
27366SOL    HW186554  10.195   4.347   0.245 -2.6137  0.4974  0.1224
27366SOL    HW286555  10.154   4.225   0.164 -1.6944  0.8841 -0.9573
27367SOL     OW86556   7.403   1.135   6.897 -0.1183 -0.5727 -0.1647
27367SOL    HW186557   7.405   1.040   6.906  0.1223 -0.4178  1.7038
27367SOL    HW286558   7.380   1.167   6.984  1.0930  1.1371 -0.4256
27368SOL     OW86559   8.187   4.196   6.060 -0.1606  1.0134  0.2827
27368SOL    HW186560   8.263   4.144   6.032 -1.5876 -1.3588  0.5358
27368SOL    HW286561   8.162   4.246   5.983  0.6378  0.4932 -0.3344
27369SOL     OW86562  10.512   6.505   4.066 -0.8150  0.4732 -0.3859
27369SOL    HW186563  10.484   6.463   4.147  0.8518  0.2548  0.1250
27369SOL    HW286564  10.490   6.441   3.998  0.2576 -0.5802  0.2142
27370SOL     OW86565   4.106   3.484   8.727  0.0371 -0.1889  0.1622
27370SOL    HW186566   4.127   3.403   8.680  3.3496  0.1722  0.7272
27370SOL    HW286567   4.025   3.515   8.688 -0.2999 -2.7485 -1.4186
27371SOL     OW86568   9.954   1.451   1.269 -0.1687 -0.1931 -0.9093
27371SOL    HW186569  10.048   1.464   1.265  0.0165 -1.5449 -1.5591
27371SOL    HW286570   9.919   1.505   1.198  0.0724  0.5016 -0.5117
27372SOL     OW86571   9.204   7.628   5.579 -0.5305 -0.4124  0.0661
27372SOL    HW186572   9.237   7.544   5.612 -0.4435 -0.5021 -0.2487
27372SOL    HW286573   9.278   7.666   5.532  0.3054  1.0449  2.3642
27373SOL     OW86574   2.542   1.022   1.456 -0.5896 -0.2112 -0.1158
27373SOL    HW186575   2.532   0.980   1.371 -1.2464 -0.6156  0.1557
27373SOL    HW286576   2.634   1.007   1.479 -0.6736 -1.0220 -0.2683
27374SOL     OW86577  10.662   7.568   1.845 -0.6280 -0.4014 -0.1266
27374SOL    HW186578  10.581   7.519   1.828  0.2938 -2.1697  0.3265
27374SOL    HW286579  10.725   7.532   1.783 -0.3688  1.5688 -1.0720
27375SOL     OW86580   9.127   8.720   0.922  0.3707  0.1344 -0.5394
27375SOL    HW186581   9.094   8.682   0.841  0.6438  0.5292 -0.8381
27375SOL    HW286582   9.222   8.710   0.917  0.3343 -0.6445  0.1388
27376SOL     OW86583   4.832   4.817   9.764 -0.0430 -0.1638  0.1647
27376SOL    HW186584   4.854   4.738   9.814 -2.6452 -1.4486 -0.5550
27376SOL    HW286585   4.753   4.851   9.807  0.3983  1.4341 -0.2312
27377SOL     OW86586   2.219   0.499  10.665  0.0678  0.3444  0.1978
27377SOL    HW186587   2.203   0.553  10.587  0.5953 -0.8904 -0.7855
27377SOL    HW286588   2.165   0.422  10.652  1.1099 -0.4463  0.4273
27378SOL     OW86589   3.266   4.572  10.256 -0.3576 -0.1002  0.1363
27378SOL    HW186590   3.355   4.592  10.283 -0.1464 -0.2743 -0.4109
27378SOL    HW286591   3.274   4.491  10.205 -1.1187 -1.3401  1.8869
27379SOL     OW86592   2.782   6.678   7.014  0.0501  0.1005  0.5714
27379SOL    HW186593   2.768   6.619   7.089 -0.4700  0.7779  1.0253
27379SOL    HW286594   2.862   6.646   6.973 -0.5406 -1.2971  0.4471
27380SOL     OW86595  10.034   8.322   0.982  0.1532  0.4381  0.4154
27380SOL    HW186596  10.016   8.350   1.072  0.6236  0.2254  0.5779
27380SOL    HW286597  10.080   8.396   0.942  3.0223 -0.6715  1.3740
27381SOL     OW86598  11.003   4.832   7.619  0.1416 -0.1940  0.3289
27381SOL    HW186599  11.091   4.852   7.588  0.1196 -0.9127 -0.2235
27381SOL    HW286600  11.001   4.737   7.627 -0.8304 -0.2605 -0.4362
27382SOL     OW86601   3.545   7.870   3.901 -0.5280 -0.2189  0.5826
27382SOL    HW186602   3.539   7.829   3.815  0.2290 -0.1608  0.4931
27382SOL    HW286603   3.495   7.812   3.959  2.5277 -2.7575  0.9700
27383SOL     OW86604   0.598   3.267   1.127 -0.1298  0.5360  0.1354
27383SOL    HW186605   0.645   3.313   1.197 -1.5465  1.7703  0.3519
27383SOL    HW286606   0.610   3.322   1.050 -0.4464  0.3828 -0.0250
27384SOL     OW86607   8.040   0.846   1.751  0.1669 -0.3281  0.4753
27384SOL    HW186608   8.054   0.901   1.673  0.0082 -0.6128  0.2438
27384SOL    HW286609   8.123   0.852   1.800 -0.4690  1.5913  1.3990
27385SOL     OW86610   2.718  10.517   3.667 -0.1345 -0.0137  0.1784
27385SOL    HW186611   2.683  10.591   3.617 -2.1606 -0.5532  0.7087
27385SOL    HW286612   2.654  10.504   3.737  0.4121 -1.9856  0.3460
27386SOL     OW86613   2.436   2.154   4.298 -0.0445 -0.2063  0.3894
27386SOL    HW186614   2.501   2.098   4.256 -0.3056 -0.1547 -0.0972
27386SOL    HW286615   2.467   2.243   4.282 -0.1483 -0.1861  0.2989
27387SOL     OW86616  10.645   2.135   4.466  0.0989 -0.0395  0.2816
27387SOL    HW186617  10.727   2.184   4.463  1.3533 -1.6471  3.5164
27387SOL    HW286618  10.663   2.055   4.416 -0.1836  0.4358 -0.6007
27388SOL     OW86619   0.131   2.592   3.617 -1.0379 -0.4253  0.0393
27388SOL    HW186620   0.047   2.550   3.634 -1.2114 -1.3083 -2.4799
27388SOL    HW286621   0.155   2.562   3.529  1.5379  0.4296  0.3606
27389SOL     OW86622   7.160   4.730   8.644  0.0717  0.2924  0.5475
27389SOL    HW186623   7.204   4.750   8.727  1.8664 -0.1095 -0.2444
27389SOL    HW286624   7.171   4.809   8.591 -0.9719  0.5092  0.6362
27390SOL     OW86625  10.871   2.311   9.483  0.5980 -0.6200  0.2130
27390SOL    HW186626  10.929   2.313   9.406  1.6688 -0.5352  0.9988
27390SOL    HW286627  10.808   2.381   9.468  2.7193  1.5447  0.8392
27391SOL     OW86628   3.192   3.930   9.816  0.4514 -0.1556  0.0348
27391SOL    HW186629   3.140   3.994   9.865  0.7350  1.1512 -1.2928
27391SOL    HW286630   3.132   3.857   9.801 -0.5345  0.6619 -0.1426
27392SOL     OW86631   2.124  10.067   4.626 -0.1406 -0.3386 -0.1832
27392SOL    HW186632   2.075  10.083   4.706 -1.4480 -1.2633 -0.7744
27392SOL    HW286633   2.095  10.136   4.566 -0.3541 -0.5906 -0.3712
27393SOL     OW86634   6.463   8.185   3.262 -0.4164 -0.0139 -0.2280
27393SOL    HW186635   6.551   8.191   3.300  0.5272 -2.6585 -1.7029
27393SOL    HW286636   6.477   8.187   3.168 -2.1288  0.9279 -0.4986
27394SOL     OW86637   6.173   1.981   6.288 -0.1927  0.0317 -0.1119
27394SOL    HW186638   6.225   1.963   6.367 -1.3476  1.0079  0.9264
27394SOL    HW286639   6.212   1.927   6.220  1.7181  0.2001  0.7918
27395SOL     OW86640   0.809   7.550   9.026  0.0832 -0.2350  0.5807
27395SOL    HW186641   0.716   7.529   9.035  0.3785 -1.4277  1.1060
27395SOL    HW286642   0.839   7.561   9.116  0.8639 -1.8466  0.5359
27396SOL     OW86643   6.524   2.658   9.361  0.7390 -0.4464  0.6467
27396SOL    HW186644   6.533   2.568   9.392  1.0963 -0.7964 -0.4039
27396SOL    HW286645   6.539   2.713   9.438 -0.9512 -1.2980  1.6228
27397SOL     OW86646   0.852   4.564   4.735 -0.2142  0.6215  0.1296
27397SOL    HW186647   0.794   4.489   4.721  0.4867  0.3389 -1.4153
27397SOL    HW286648   0.797   4.640   4.716 -0.3093  0.3945 -0.5186
27398SOL     OW86649  10.937   4.712   9.928 -0.0769  0.0377  0.2709
27398SOL    HW186650  10.988   4.787   9.961 -1.2228  0.4929  1.0650
27398SOL    HW286651  10.881   4.749   9.861 -0.2561 -0.2194  0.2813
27399SOL     OW86652   2.237   6.761   2.269  0.1818 -0.0266 -0.1182
27399SOL    HW186653   2.191   6.773   2.186  1.4099  0.7089 -0.7299
27399SOL    HW286654   2.330   6.757   2.244  0.4515 -1.7073  1.0414
27400SOL     OW86655   6.915   2.953   6.947  0.2729 -0.1395 -0.0150
27400SOL    HW186656   6.933   2.966   6.854 -3.0666  3.1012 -0.4610
27400SOL    HW286657   6.990   2.993   6.992 -0.5244  3.4495 -1.5144
27401SOL     OW86658   6.015  10.922   1.774  0.1944 -0.2743  0.1366
27401SOL    HW186659   6.061  11.003   1.797  0.7296  0.1372 -2.1913
27401SOL    HW286660   5.926  10.936   1.805  0.9842 -0.1222  2.5792
27402SOL     OW86661   4.512   1.029   2.852 -0.0403 -0.0017 -0.3515
27402SOL    HW186662   4.450   1.054   2.784  0.4153  1.0421 -0.3998
27402SOL    HW286663   4.505   1.099   2.917  1.1660  0.1776 -0.4079
27403SOL     OW86664   8.999   1.777   4.723  0.1880 -0.0414 -0.0818
27403SOL    HW186665   9.053   1.717   4.673 -0.7293  0.0839 -1.2825
27403SOL    HW286666   8.946   1.721   4.779 -0.5384 -0.3778 -1.0711
27404SOL     OW86667   7.366   5.212   6.609 -0.5726 -0.2626 -0.6316
27404SOL    HW186668   7.271   5.213   6.623 -0.5350  0.0637 -0.3835
27404SOL    HW286669   7.379   5.150   6.537 -0.7448 -2.2454  0.9786
27405SOL     OW86670   1.062  10.983   7.772  0.3942 -0.1949 -0.0068
27405SOL    HW186671   1.016  10.978   7.856  1.2065 -1.6521  0.3841
27405SOL    HW286672   1.038  10.902   7.726  0.4834  0.2780 -0.9103
27406SOL     OW86673   1.748   8.454   2.299 -0.1706  0.1835  0.3323
27406SOL    HW186674   1.768   8.467   2.207 -1.1617  2.2614  0.3621
27406SOL    HW286675   1.721   8.362   2.305 -1.0032  0.2524 -1.6186
27407SOL     OW86676   1.208   2.067   1.862 -0.6274 -0.3246  0.0984
27407SOL    HW186677   1.148   2.053   1.788 -0.7542  2.1579 -0.3312
27407SOL    HW286678   1.153   2.054   1.940 -1.2818  0.1121 -0.2836
27408SOL     OW86679   8.034   2.102   8.998  0.1377 -0.3952  0.2229
27408SOL    HW186680   8.094   2.167   9.035 -0.6171  1.1288 -1.0730
27408SOL    HW286681   8.055   2.101   8.905  1.1007 -3.1551  0.4024
27409SOL     OW86682   6.776   3.824   1.168 -0.1487 -0.3219 -0.0609
27409SOL    HW186683   6.808   3.768   1.239  1.2918  0.1727 -0.2797
27409SOL    HW286684   6.727   3.765   1.111 -1.7286 -0.6609  1.5273
27410SOL     OW86685   3.008  10.958   4.797  0.0172 -0.0051 -0.0199
27410SOL    HW186686   3.093  10.961   4.754 -0.2995  0.0784 -0.6473
27410SOL    HW286687   2.992  10.864   4.809 -0.7058 -0.1465 -1.7533
27411SOL     OW86688   4.447   0.316  10.700  0.5702  0.6613  0.2322
27411SOL    HW186689   4.446   0.408  10.725  0.0913  0.1981  2.0318
27411SOL    HW286690   4.486   0.315  10.612  0.2720  2.5911  0.0511
27412SOL     OW86691   0.303   0.143   7.732  0.0679  0.2265 -0.6018
27412SOL    HW186692   0.244   0.072   7.708  1.0396 -0.5939 -0.6296
27412SOL    HW286693   0.390   0.113   7.702  0.7831  0.6259  0.9824
27413SOL     OW86694  10.786   5.936   4.460  0.0653  0.5414 -0.1340
27413SOL    HW186695  10.736   5.869   4.505  1.4624  0.6743  1.7488
27413SOL    HW286696  10.876   5.904   4.462  0.2178  0.4783 -3.0932
27414SOL     OW86697   3.478  10.143   0.302 -0.2484  0.2250  0.0863
27414SOL    HW186698   3.406  10.174   0.356 -0.8309  0.9718 -1.0824
27414SOL    HW286699   3.448  10.155   0.212  0.5397 -1.3572 -0.4306
27415SOL     OW86700   4.225   2.633  10.223 -0.1727 -0.3656  0.3521
27415SOL    HW186701   4.225   2.652  10.317  1.0173 -2.3003  0.7819
27415SOL    HW286702   4.157   2.567  10.211  0.8084 -1.3697  0.1583
27416SOL     OW86703   9.070   6.583   9.572  0.3969  0.1978  0.0385
27416SOL    HW186704   9.130   6.513   9.599 -0.2745 -0.8872 -1.1521
27416SOL    HW286705   9.083   6.652   9.637  2.2184 -0.3930  0.3692
27417SOL     OW86706   4.242   7.173   4.543 -0.4854  0.5590  0.8593
27417SOL    HW186707   4.317   7.185   4.602  1.5334  2.0109 -1.7445
27417SOL    HW286708   4.282   7.156   4.457 -3.0685  2.5990 -0.9197
27418SOL     OW86709   9.775   2.757   3.822  0.2414 -0.4088 -0.5181
27418SOL    HW186710   9.744   2.730   3.909  1.3375  0.2603  0.0947
27418SOL    HW286711   9.698   2.748   3.766 -0.5383 -0.6737  0.5574
27419SOL     OW86712   8.549   6.022  10.571 -0.5305 -0.4559 -0.2824
27419SOL    HW186713   8.543   5.928  10.589 -0.1769 -0.4450 -0.1057
27419SOL    HW286714   8.492   6.062  10.638 -1.1507 -0.5798 -0.7264
27420SOL     OW86715   2.178   6.995  10.746 -0.5311 -0.2398 -0.0008
27420SOL    HW186716   2.164   7.000  10.841 -3.6681  2.3841 -0.4628
27420SOL    HW286717   2.248   7.058  10.729  0.3794 -1.0604  0.5348
27421SOL     OW86718  10.186   1.188   9.822  0.4633 -0.0383 -0.5031
27421SOL    HW186719  10.120   1.249   9.791 -0.7824 -0.8577  0.4631
27421SOL    HW286720  10.163   1.104   9.781  0.6760 -0.4127  0.1309
27422SOL     OW86721   1.093   2.732   3.807 -0.0572 -0.4050  0.8635
27422SOL    HW186722   1.183   2.735   3.838 -0.1708  0.3150  1.1350
27422SOL    HW286723   1.048   2.800   3.857 -0.6124 -0.3470  0.2924
27423SOL     OW86724  10.867  11.062   4.782  0.1365 -0.2922  0.3102
27423SOL    HW186725  10.841  11.051   4.874  0.3918 -2.2776  0.1886
27423SOL    HW286726  10.932  10.993   4.767 -0.8151 -0.8258 -1.7002
27424SOL     OW86727   7.134   0.331  10.884  0.1594  0.2551  0.2900
27424SOL    HW186728   7.120   0.425  10.872  0.0664  0.0043 -2.0862
27424SOL    HW286729   7.228   0.319  10.871  0.7163  0.2987  3.4353
27425SOL     OW86730   0.980   1.088   5.507  0.1636 -0.1785 -0.4575
27425SOL    HW186731   0.892   1.121   5.487 -0.4687 -1.3595  0.2790
27425SOL    HW286732   0.970   1.042   5.590  1.5269 -0.1981 -0.2822
27426SOL     OW86733   8.337   8.864   8.803 -0.3432 -0.0396 -0.1397
27426SOL    HW186734   8.269   8.884   8.867 -0.3371  1.1420 -0.4743
27426SOL    HW286735   8.363   8.950   8.768  0.9620 -0.5077 -0.3837
27427SOL     OW86736   8.083   8.605   8.179  0.0042  0.4118  0.6546
27427SOL    HW186737   8.011   8.665   8.196  0.4165  1.7258 -1.8105
27427SOL    HW286738   8.044   8.533   8.131  0.3074  1.3162 -1.0377
27428SOL     OW86739   9.536   7.356   5.132 -0.0587  0.1047  0.3267
27428SOL    HW186740   9.452   7.359   5.086  0.5242 -0.4446 -0.8120
27428SOL    HW286741   9.535   7.273   5.180  0.2797 -0.4588 -0.6087
27429SOL     OW86742   1.662  11.012   6.223 -0.5643  0.9987 -0.3942
27429SOL    HW186743   1.697  10.949   6.285 -0.4296  2.0322  0.6164
27429SOL    HW286744   1.619  11.078   6.278  2.3765  3.7397 -1.0765
27430SOL     OW86745   5.319   8.198   3.886  0.4421 -0.2114  0.0644
27430SOL    HW186746   5.407   8.217   3.853  0.6818 -0.7165  0.4108
27430SOL    HW286747   5.324   8.108   3.918  0.0659  0.0778  0.9679
27431SOL     OW86748   7.905   1.858   5.387  0.0728 -0.1769 -0.3916
27431SOL    HW186749   7.869   1.877   5.300  0.1224 -0.2120 -0.4196
27431SOL    HW286750   7.981   1.915   5.394 -0.9792  1.2275  0.3573
27432SOL     OW86751   1.991   9.874   3.882  0.5792 -0.5825  0.4957
27432SOL    HW186752   2.081   9.847   3.865  0.4440  0.0541 -1.6245
27432SOL    HW286753   1.998   9.968   3.899  0.3233 -0.5361  0.3446
27433SOL     OW86754   5.395   8.234   1.370 -0.7706 -0.0158  0.1528
27433SOL    HW186755   5.320   8.222   1.428 -0.5568 -0.3122  0.3734
27433SOL    HW286756   5.362   8.213   1.283 -1.3778  1.4647 -0.0025
27434SOL     OW86757   2.162   2.853   7.837  0.4263  0.0876 -0.6879
27434SOL    HW186758   2.067   2.854   7.832  0.3576 -0.9675  0.1041
27434SOL    HW286759   2.184   2.912   7.909  0.2264 -1.4464  0.6671
27435SOL     OW86760   0.257   6.826  10.038 -0.1163  0.6596  0.0236
27435SOL    HW186761   0.352   6.817  10.046 -0.2553 -0.7229  0.3841
27435SOL    HW286762   0.233   6.766   9.967 -0.9922 -0.9742  1.6326
27436SOL     OW86763   3.671   5.835  10.498 -0.6337 -0.1982  0.0124
27436SOL    HW186764   3.609   5.808  10.430 -0.9489 -2.2442  1.0171
27436SOL    HW286765   3.752   5.787  10.477 -0.1938  0.4580  0.1616
27437SOL     OW86766   3.320   6.567   8.397 -0.5889 -0.6598  0.1896
27437SOL    HW186767   3.278   6.648   8.368 -0.5392 -0.9920 -0.8405
27437SOL    HW286768   3.358   6.530   8.318 -0.9711 -1.9174  0.5750
27438SOL     OW86769   9.359   3.636   6.906 -0.0072  0.2038 -0.2152
27438SOL    HW186770   9.396   3.683   6.981 -0.9319 -0.3817  0.6354
27438SOL    HW286771   9.284   3.690   6.879 -0.9760 -0.6523  0.6643
27439SOL     OW86772   1.979   9.920  10.954  0.2760 -0.0535  1.0368
27439SOL    HW186773   2.017   9.911  10.866 -1.0400  0.4046  0.3965
27439SOL    HW286774   2.047   9.965  11.004  0.4122  1.2571 -0.2316
27440SOL     OW86775   6.437   2.767   5.426 -0.0295  0.7092  0.2655
27440SOL    HW186776   6.428   2.739   5.517  0.9351  0.4617  0.3001
27440SOL    HW286777   6.396   2.697   5.375 -0.0246  0.5442  0.4856
27441SOL     OW86778   5.916   0.017   6.666 -0.2219  0.2855 -0.0332
27441SOL    HW186779   5.884   0.008   6.576 -0.4116  0.3441  0.0273
27441SOL    HW286780   5.924  -0.073   6.698 -1.9120  0.2945  0.4989
27442SOL     OW86781  10.375   6.069   9.918 -0.0183  0.2420 -0.0110
27442SOL    HW186782  10.467   6.045   9.927  0.5265  1.2207 -2.3459
27442SOL    HW286783  10.365   6.097   9.827 -2.6276  0.2180  0.1738
27443SOL     OW86784   6.172  10.355   5.429  0.5838  0.1528 -0.1280
27443SOL    HW186785   6.119  10.332   5.505  1.1853  0.0021  0.2493
27443SOL    HW286786   6.233  10.281   5.419  0.7645  0.3499 -0.5219
27444SOL     OW86787   8.176   4.313   7.775 -0.2458 -0.1988 -0.5635
27444SOL    HW186788   8.262   4.321   7.734  0.1197  0.9506  0.3650
27444SOL    HW286789   8.169   4.220   7.797 -0.4473 -0.8559 -3.0994
27445SOL     OW86790   5.398  10.697   1.715 -0.2003 -0.0851  0.7992
27445SOL    HW186791   5.381  10.764   1.649  0.6537 -0.5896  0.0409
27445SOL    HW286792   5.470  10.733   1.767  1.1184 -0.9021 -0.3881
27446SOL     OW86793   4.741   0.871   9.314  0.4165 -0.0967  0.5360
27446SOL    HW186794   4.714   0.890   9.225 -1.0514 -1.1672  0.7134
27446SOL    HW286795   4.762   0.957   9.352  0.1852  0.4564 -0.5519
27447SOL     OW86796   9.064   3.159   6.412  0.2976  0.1059 -0.4212
27447SOL    HW186797   9.124   3.110   6.355 -1.5743 -1.2020 -1.3592
27447SOL    HW286798   9.117   3.232   6.446  2.4254 -1.0306 -1.1153
27448SOL     OW86799   6.143   7.606   1.865  0.4171 -0.2433  0.2551
27448SOL    HW186800   6.076   7.650   1.813  0.7473 -0.4557 -0.3617
27448SOL    HW286801   6.131   7.639   1.954  0.9514  1.4318 -0.2644
27449SOL     OW86802   5.380   0.024   5.609  0.1292 -0.0818 -1.1964
27449SOL    HW186803   5.470   0.006   5.582  0.3786  0.6014 -0.8570
27449SOL    HW286804   5.333  -0.058   5.593  1.2726 -1.1681  0.5982
27450SOL     OW86805   2.728   2.127  10.054 -0.6932  0.6563  0.3835
27450SOL    HW186806   2.786   2.158  10.123 -2.0594 -1.2292  2.5096
27450SOL    HW286807   2.640   2.148  10.084 -1.3582 -0.5708 -0.5778
27451SOL     OW86808   0.576   0.617   1.771 -0.3440  0.1306  0.1294
27451SOL    HW186809   0.612   0.553   1.833 -2.0820 -1.3467 -0.3027
27451SOL    HW286810   0.628   0.604   1.691  1.9126  2.0545  1.1776
27452SOL     OW86811   6.153   6.141   7.499  0.5599 -0.4367  0.0452
27452SOL    HW186812   6.151   6.086   7.420 -1.4308  0.4690 -0.5885
27452SOL    HW286813   6.246   6.159   7.513  1.1102 -2.2787 -0.8934
27453SOL     OW86814   2.595   6.322   0.580  0.9640 -0.1706  0.2579
27453SOL    HW186815   2.581   6.321   0.485  2.2259 -2.6522 -0.0041
27453SOL    HW286816   2.531   6.385   0.613 -1.7007 -1.4803 -1.9531
27454SOL     OW86817   5.916   7.654  10.490 -0.3786  0.0916 -0.4561
27454SOL    HW186818   5.999   7.644  10.536 -1.5248  0.3533  1.8478
27454SOL    HW286819   5.911   7.578  10.432  1.3762  0.0019 -0.5426
27455SOL     OW86820   1.394   7.433   0.187 -0.4646  0.1423  0.0724
27455SOL    HW186821   1.321   7.408   0.131  1.2151 -2.7195 -1.0483
27455SOL    HW286822   1.466   7.376   0.160  2.0101  2.2778  1.6134
27456SOL     OW86823  10.621  10.426   2.348 -0.0843  0.3451 -0.4313
27456SOL    HW186824  10.592  10.428   2.439 -0.2403 -0.1364 -0.4675
27456SOL    HW286825  10.540  10.421   2.297 -0.0069 -3.3809 -0.4712
27457SOL     OW86826   7.217   8.371  10.965 -0.2530  0.2207  0.1085
27457SOL    HW186827   7.223   8.466  10.953 -1.4718  0.1165 -1.8090
27457SOL    HW286828   7.287   8.336  10.910 -0.8214 -0.0161 -0.4805
27458SOL     OW86829   1.577   8.594   6.638 -0.1871  0.4923 -0.8602
27458SOL    HW186830   1.548   8.685   6.630  1.0284  0.8464 -1.5594
27458SOL    HW286831   1.556   8.569   6.728  2.2020  2.5115  0.4026
27459SOL     OW86832   1.615   3.605  10.547  0.2577  0.3478  1.1743
27459SOL    HW186833   1.691   3.651  10.583  2.7806 -0.7476 -2.2076
27459SOL    HW286834   1.620   3.621  10.453 -1.3130 -3.1260  0.3586
27460SOL     OW86835   1.513   3.787   9.901 -0.4066 -0.4303  0.6819
27460SOL    HW186836   1.591   3.828   9.938 -0.4950  0.3598  0.0035
27460SOL    HW286837   1.548   3.714   9.849 -0.0593  0.3953 -0.2572
27461SOL     OW86838   9.437   1.142  10.077 -0.2371 -0.8785 -0.3616
27461SOL    HW186839   9.489   1.211  10.038  0.3052 -0.3527  1.1916
27461SOL    HW286840   9.355   1.141  10.027 -1.0728  2.2261  0.7246
27462SOL     OW86841  10.762   9.038   9.533  0.2027  0.2785 -0.4804
27462SOL    HW186842  10.709   8.966   9.567  0.8489  0.0501  0.0707
27462SOL    HW286843  10.834   8.996   9.486  1.9539  0.4224  1.8412
27463SOL     OW86844   3.414   1.918   6.863  0.1336 -0.7311 -0.2434
27463SOL    HW186845   3.482   1.921   6.795  3.1475  1.7107  2.5530
27463SOL    HW286846   3.430   1.995   6.917 -4.2335 -0.6836  1.3930
27464SOL     OW86847   2.547   4.312   0.960  0.6901  0.6995 -0.2601
27464SOL    HW186848   2.569   4.234   1.012 -2.7975 -0.0529  0.3108
27464SOL    HW286849   2.565   4.287   0.870  0.5339 -0.4319  0.0102
27465SOL     OW86850   7.369   2.130   2.256 -0.6012 -0.1861  0.2346
27465SOL    HW186851   7.414   2.152   2.338 -0.6453  0.0948  0.1846
27465SOL    HW286852   7.343   2.215   2.219  0.8981 -0.1844 -0.9201
27466SOL     OW86853   4.171   6.495   9.926 -0.0712 -0.1616 -0.0467
27466SOL    HW186854   4.208   6.407   9.913 -1.5452 -1.0417  1.3247
27466SOL    HW286855   4.204   6.546   9.852  3.3116 -0.9995  0.6868
27467SOL     OW86856   8.885   0.258   2.750 -0.0956  0.0967 -0.1592
27467SOL    HW186857   8.869   0.169   2.717  0.6374 -0.5350  1.1178
27467SOL    HW286858   8.799   0.300   2.749 -0.7515 -1.1608  0.7210
27468SOL     OW86859   3.545   3.435   0.952  0.5748 -0.2935 -0.1232
27468SOL    HW186860   3.482   3.376   0.994 -0.4869  0.1090 -1.1120
27468SOL    HW286861   3.625   3.382   0.943  0.5297 -0.6890  1.4913
27469SOL     OW86862  10.788   4.312   1.771  0.4496 -0.2855 -0.1698
27469SOL    HW186863  10.820   4.298   1.682  0.6011 -0.1770 -0.1317
27469SOL    HW286864  10.778   4.406   1.779  1.7818 -0.1795  0.3921
27470SOL     OW86865   6.513   8.219   9.060  0.5619  0.1698 -0.2012
27470SOL    HW186866   6.573   8.220   8.985 -0.3993  1.4966 -0.9902
27470SOL    HW286867   6.569   8.240   9.135  1.2817  0.2328 -0.7410
27471SOL     OW86868   2.006   4.680   0.267 -0.3044 -0.0276  0.2744
27471SOL    HW186869   2.099   4.665   0.284 -0.1024  0.5086 -0.2984
27471SOL    HW286870   2.005   4.749   0.200 -1.0398 -2.1406 -2.0590
27472SOL     OW86871   9.510   2.397   1.252 -0.1308 -0.0806  0.4218
27472SOL    HW186872   9.428   2.376   1.206  0.3854  0.5767 -0.8617
27472SOL    HW286873   9.548   2.468   1.200  2.2187 -1.6963 -0.1928
27473SOL     OW86874   1.999   0.208   6.159  0.1995 -0.2231 -0.0406
27473SOL    HW186875   2.019   0.286   6.105 -0.1345 -0.3744 -0.3848
27473SOL    HW286876   1.950   0.150   6.100 -1.2244  0.1120  0.7701
27474SOL     OW86877   4.122   6.385   5.070 -0.4202 -0.1441  0.1420
27474SOL    HW186878   4.202   6.362   5.024 -1.5833 -0.1694 -1.9947
27474SOL    HW286879   4.135   6.475   5.098  0.6909 -0.4483  0.6354
27475SOL     OW86880   4.479  10.690   5.449  0.0481  0.1790  0.5477
27475SOL    HW186881   4.461  10.661   5.538 -0.3231 -2.6330 -0.3405
27475SOL    HW286882   4.569  10.662   5.432 -0.3066 -0.4779 -0.3479
27476SOL     OW86883   4.584  10.993   3.697 -0.2464  0.2369  0.3570
27476SOL    HW186884   4.588  10.959   3.607  0.9212  1.4588 -0.0994
27476SOL    HW286885   4.621  10.923   3.751  3.5119  1.1092 -0.7276
27477SOL     OW86886   7.326   9.386   0.002 -0.7255  0.3466 -0.2963
27477SOL    HW186887   7.399   9.347   0.050  0.2149  1.8780 -0.3930
27477SOL    HW286888   7.249   9.367   0.055 -0.2915 -1.4038 -0.2406
27478SOL     OW86889   1.353   6.032  10.282 -0.4443  0.6937  0.3673
27478SOL    HW186890   1.270   5.998  10.315 -1.0716  3.0687  1.3869
27478SOL    HW286891   1.401   6.060  10.360 -0.7366  3.7629 -0.4259
27479SOL     OW86892   7.021   9.481   5.853 -0.3960 -0.0628  0.2194
27479SOL    HW186893   7.096   9.430   5.824 -0.4377 -1.0490  1.7131
27479SOL    HW286894   6.953   9.416   5.873 -0.4196  0.4955  2.2489
27480SOL     OW86895   0.023  10.850  10.201  0.5098  0.7627 -0.0650
27480SOL    HW186896  -0.018  10.919  10.254  0.6330  0.7232  0.0841
27480SOL    HW286897   0.082  10.898  10.142  1.5908  0.7080  0.9231
27481SOL     OW86898   0.340   7.677   6.310 -0.1116  0.3533  0.7383
27481SOL    HW186899   0.363   7.654   6.220  0.9334  0.9365  0.8413
27481SOL    HW286900   0.318   7.593   6.351 -0.1809  0.0327  0.0649
27482SOL     OW86901   4.223   9.157   7.673  0.0273 -0.1343  0.1758
27482SOL    HW186902   4.226   9.150   7.577 -1.0873 -1.1966  0.2110
27482SOL    HW286903   4.186   9.244   7.689 -1.2682 -0.5685 -0.3745
27483SOL     OW86904   9.837   8.502   1.543  0.1528  0.1177 -0.0143
27483SOL    HW186905   9.742   8.511   1.540  0.1229 -0.0058  0.4984
27483SOL    HW286906   9.855   8.467   1.630  0.5507 -1.4140 -0.6892
27484SOL     OW86907   5.423   7.777   5.463  0.3072  0.5748 -0.4850
27484SOL    HW186908   5.485   7.832   5.512  0.3057  1.0112 -0.9579
27484SOL    HW286909   5.469   7.694   5.451  0.4047  0.5480  0.0329
27485SOL     OW86910  11.052   9.656   7.382 -0.1962 -0.4125 -0.3048
27485SOL    HW186911  11.014   9.734   7.341  0.0526 -0.6264 -0.9579
27485SOL    HW286912  10.990   9.586   7.363  0.2233 -0.6423 -0.8767
27486SOL     OW86913   2.037   8.202   4.880  0.0946 -0.2214  0.8830
27486SOL    HW186914   2.101   8.176   4.946 -1.0875  0.9631  2.5887
27486SOL    HW286915   2.003   8.120   4.845  1.3553 -0.8655  1.1049
27487SOL     OW86916   3.160   2.032  10.448 -0.2352  0.3189  0.4849
27487SOL    HW186917   3.185   2.052  10.358 -2.1514  0.8991  0.0393
27487SOL    HW286918   3.235   1.983  10.483  1.2981  1.5985 -0.8342
27488SOL     OW86919   6.739   8.187   9.908 -0.2206  0.3868 -0.5435
27488SOL    HW186920   6.710   8.269   9.948 -1.2925 -0.4597  0.4742
27488SOL    HW286921   6.737   8.205   9.813 -2.8360  0.8283 -0.4901
27489SOL     OW86922   5.578   1.821  10.308  0.0268  0.2576 -0.2381
27489SOL    HW186923   5.508   1.809  10.244  0.1192  2.3753 -0.8038
27489SOL    HW286924   5.643   1.754  10.286 -1.2867 -1.0362 -0.3784
27490SOL     OW86925   8.945   6.638   4.180 -0.6272 -0.2601  0.3370
27490SOL    HW186926   8.986   6.716   4.217 -1.4373  0.3784 -0.0868
27490SOL    HW286927   8.856   6.640   4.213 -0.5113 -1.3045  0.7532
27491SOL     OW86928   8.594   6.060   8.573 -0.5184  0.4395 -0.5973
27491SOL    HW186929   8.529   6.116   8.532 -0.7158 -0.6715 -1.8766
27491SOL    HW286930   8.574   6.063   8.666 -1.9849  0.6492 -0.9009
27492SOL     OW86931   7.347   9.199   5.902  0.1262 -0.2196  0.2915
27492SOL    HW186932   7.331   9.118   5.950  0.5974 -0.3063  0.3151
27492SOL    HW286933   7.275   9.204   5.839 -0.5167 -0.0768  1.0334
27493SOL     OW86934  10.638   7.696   8.626  0.3713 -0.0607 -0.2070
27493SOL    HW186935  10.591   7.623   8.587  0.2494  0.2911 -0.7362
27493SOL    HW286936  10.677   7.742   8.551 -0.1908  0.8563  0.0388
27494SOL     OW86937   8.352   8.075   2.402  0.1296  0.1226 -0.4615
27494SOL    HW186938   8.266   8.052   2.439  0.5841  2.1996  2.1737
27494SOL    HW286939   8.415   8.046   2.468  1.4509 -0.5563 -1.9570
27495SOL     OW86940  10.400   6.333   9.135 -0.4551  0.6695 -0.5343
27495SOL    HW186941  10.319   6.358   9.179 -1.4971 -0.0745 -1.9420
27495SOL    HW286942  10.376   6.257   9.082  1.4798 -0.3735 -0.0190
27496SOL     OW86943   7.916   9.273   8.102 -0.0381 -0.1569 -0.1140
27496SOL    HW186944   7.855   9.332   8.058  0.2722  0.5255  0.3535
27496SOL    HW286945   7.862   9.200   8.132 -0.5295  0.1721 -0.1944
27497SOL     OW86946   9.572   4.562   3.292  0.0058  0.2588 -0.1153
27497SOL    HW186947   9.486   4.523   3.306 -0.3417  0.6211 -1.1762
27497SOL    HW286948   9.581   4.568   3.197  0.8021  1.0964 -0.0024
27498SOL     OW86949   0.459  10.715   1.393  0.4139  0.4961  0.1812
27498SOL    HW186950   0.368  10.724   1.421  0.3772  1.0422 -0.0952
27498SOL    HW286951   0.472  10.785   1.329  0.6868 -0.3215 -0.6867
27499SOL     OW86952   8.553   6.316   9.481  0.1563 -0.0546  0.1291
27499SOL    HW186953   8.602   6.396   9.464 -0.3279  0.2635  0.2153
27499SOL    HW286954   8.556   6.268   9.398 -0.5353  0.5909 -0.2817
27500SOL     OW86955   0.171   5.503   6.563  0.2345 -0.1333  0.5332
27500SOL    HW186956   0.206   5.510   6.474 -0.6094  2.9455  0.3304
27500SOL    HW286957   0.078   5.523   6.554 -0.1093 -0.9537  1.9806
27501SOL     OW86958   7.710   9.729   1.462 -0.2913  0.7221 -0.2853
27501SOL    HW186959   7.746   9.770   1.383  2.0245  0.2382  0.4384
27501SOL    HW286960   7.697   9.802   1.522  0.1563  0.8345 -0.3191
27502SOL     OW86961   2.618  10.656   6.914 -0.0026 -0.4863 -0.2007
27502SOL    HW186962   2.583  10.596   6.849  1.0885 -1.4127  0.0343
27502SOL    HW286963   2.627  10.604   6.993  1.3874 -0.1608 -0.1140
27503SOL     OW86964   5.735   5.225   6.970 -0.6871 -0.0679  0.2875
27503SOL    HW186965   5.691   5.267   7.044  0.6118 -0.0766  1.0981
27503SOL    HW286966   5.821   5.198   7.005 -0.0528 -0.0912 -1.2105
27504SOL     OW86967   8.919   6.253   3.453 -0.4735 -0.0626 -0.9054
27504SOL    HW186968   8.919   6.349   3.445 -0.6856  0.4095  3.0666
27504SOL    HW286969   8.988   6.234   3.516 -1.2481 -2.4337 -0.6929
27505SOL     OW86970  10.598   0.261   2.700 -0.1637  0.1601  0.3635
27505SOL    HW186971  10.626   0.172   2.678 -1.7887 -0.3279  0.1333
27505SOL    HW286972  10.573   0.299   2.616 -0.1190  0.6092  0.5520
27506SOL     OW86973   7.384   1.503   4.777  0.3672  0.0000  0.0498
27506SOL    HW186974   7.383   1.433   4.711  1.8655 -0.8472  0.8829
27506SOL    HW286975   7.327   1.571   4.740  0.8409 -0.6060 -1.9479
27507SOL     OW86976   6.896   6.013   7.348  0.1765 -0.3759  0.6614
27507SOL    HW186977   6.894   6.072   7.273 -1.2485 -1.9017 -0.5550
27507SOL    HW286978   6.876   5.927   7.313 -2.5031 -0.8721  3.0044
27508SOL     OW86979   7.768   8.088   0.557 -0.5989  1.0047 -0.0787
27508SOL    HW186980   7.680   8.057   0.535 -0.3147 -0.3328  0.5314
27508SOL    HW286981   7.826   8.035   0.502 -0.1019  0.5157  0.8887
27509SOL     OW86982   1.883   5.884   1.448 -0.6389  0.8011 -0.4390
27509SOL    HW186983   1.846   5.942   1.514 -1.6039  0.2108 -0.4496
27509SOL    HW286984   1.900   5.941   1.373 -0.6945  1.2363 -0.1275
27510SOL     OW86985   6.493   6.941   8.464  0.1229 -0.3026 -0.1684
27510SOL    HW186986   6.441   6.963   8.386  0.1449  0.5641  0.0543
27510SOL    HW286987   6.544   7.020   8.481  0.4868 -0.6704  0.4337
27511SOL     OW86988   3.126   5.476   4.687 -0.0768  0.1799  0.2950
27511SOL    HW186989   3.154   5.568   4.681 -1.4208  0.6263  0.3723
27511SOL    HW286990   3.049   5.472   4.631  0.6901 -1.2283 -0.6987
27512SOL     OW86991   0.851   9.573   9.824  0.5070  0.2483  0.0418
27512SOL    HW186992   0.888   9.487   9.800 -0.2662  0.9370 -4.5760
27512SOL    HW286993   0.760   9.554   9.847  1.3259 -0.4794  3.1556
27513SOL     OW86994   6.961   2.103  11.050  0.0463 -0.2001  0.2008
27513SOL    HW186995   7.001   2.188  11.032 -0.1246 -0.4970 -1.9231
27513SOL    HW286996   7.027   2.055  11.099  0.5935  0.7561  0.4262
27514SOL     OW86997   3.492   8.755   5.581 -0.1410 -0.2930 -0.2489
27514SOL    HW186998   3.480   8.802   5.499 -1.0487 -0.9941 -0.5244
27514SOL    HW286999   3.581   8.778   5.609 -0.1317  0.6072 -0.9921
27515SOL     OW87000   2.302  11.050  11.033  0.1361 -0.1942  0.1012
27515SOL    HW187001   2.269  11.086  10.951  0.8274 -1.7938 -0.9175
27515SOL    HW287002   2.385  11.095  11.048  1.0855 -1.4083 -1.2538
27516SOL     OW87003   8.273  10.909   9.174 -0.3108 -0.0874 -0.5160
27516SOL    HW187004   8.216  10.918   9.251 -2.9496 -0.7882 -2.2601
27516SOL    HW287005   8.310  10.997   9.162  0.2557  0.0224  1.5363
27517SOL     OW87006   0.709   4.342   6.752  0.4537  0.0635 -0.4340
27517SOL    HW187007   0.765   4.285   6.699 -0.1780  0.4562 -1.5408
27517SOL    HW287008   0.744   4.332   6.841  0.6522 -1.6962 -0.6571
27518SOL     OW87009   3.593   5.508   8.312  0.0275 -0.3483  0.2523
27518SOL    HW187010   3.562   5.555   8.234 -2.2069 -1.1450  0.5769
27518SOL    HW287011   3.688   5.509   8.305 -0.1027 -0.1830 -2.3730
27519SOL     OW87012   6.010   1.581   4.223 -0.0427 -0.1012 -0.6265
27519SOL    HW187013   6.083   1.583   4.161  1.0026  3.1162  0.5212
27519SOL    HW287014   6.047   1.540   4.301  0.2753  0.6556 -0.3719
27520SOL     OW87015   2.354   2.026   4.615  0.5910 -0.4076 -0.2688
27520SOL    HW187016   2.311   2.086   4.555 -0.7479 -1.4083 -0.3549
27520SOL    HW287017   2.416   2.080   4.663 -2.2570  1.6223  1.4122
27521SOL     OW87018   4.506   7.166   1.232  0.1179 -0.4121  0.0687
27521SOL    HW187019   4.537   7.253   1.261 -1.4153 -0.0342  0.6440
27521SOL    HW287020   4.441   7.141   1.297  0.6703 -2.1071  0.0109
27522SOL     OW87021   7.052   2.914   1.969  0.2027  0.2024 -0.0077
27522SOL    HW187022   7.114   2.847   1.942 -0.5375 -0.1346 -0.9395
27522SOL    HW287023   7.037   2.897   2.062  0.4061 -0.6138 -0.1169
27523SOL     OW87024   4.931   4.602   4.757  0.4780  0.1685  0.3955
27523SOL    HW187025   4.889   4.553   4.687  3.1819  0.1717 -1.3666
27523SOL    HW287026   4.950   4.688   4.718  2.5136 -0.0088  0.8651
27524SOL     OW87027   7.906  10.282   3.747  0.1437 -0.2166  0.1723
27524SOL    HW187028   7.945  10.203   3.710 -0.7024  0.4257 -2.2789
27524SOL    HW287029   7.828  10.251   3.792  1.2260 -1.0379  1.5624
27525SOL     OW87030   4.837   6.782   0.566  0.1303  0.1439 -0.1769
27525SOL    HW187031   4.754   6.818   0.597  0.6177  0.6887  0.5534
27525SOL    HW287032   4.819   6.690   0.547 -0.7328  0.3576 -0.4299
27526SOL     OW87033   7.684   6.855   0.022 -0.1211 -0.2551  0.0460
27526SOL    HW187034   7.695   6.799   0.099  1.5469  1.5199  1.2122
27526SOL    HW287035   7.617   6.918   0.047 -1.4619 -1.2085 -0.9865
27527SOL     OW87036   5.775   3.299   4.518 -0.1703 -0.5521  0.1329
27527SOL    HW187037   5.766   3.224   4.460  0.3691 -0.2245 -0.3892
27527SOL    HW287038   5.770   3.375   4.460 -1.5064 -0.1521  0.7530
27528SOL     OW87039   8.788   5.701   9.006  0.3329  0.0095 -0.6296
27528SOL    HW187040   8.769   5.756   8.930 -1.8995 -0.0905 -0.2161
27528SOL    HW287041   8.707   5.704   9.058  1.4499 -0.7431  1.2295
27529SOL     OW87042   4.977   7.020   5.523  0.0632 -0.2309 -0.3691
27529SOL    HW187043   4.881   7.018   5.524 -0.0582  1.8123  1.8611
27529SOL    HW287044   5.000   7.036   5.432 -1.7698  0.0883 -0.8109
27530SOL     OW87045   5.023   4.341   8.901  0.0517 -0.7780  0.3692
27530SOL    HW187046   5.093   4.285   8.867  0.9790 -0.5224  1.7642
27530SOL    HW287047   5.069   4.407   8.954 -1.2712 -0.8913  1.7312
27531SOL     OW87048   9.552   5.118   1.417 -0.2486 -0.4627 -0.3616
27531SOL    HW187049   9.540   5.123   1.512 -0.9356  1.6197 -0.5140
27531SOL    HW287050   9.474   5.071   1.386 -1.9369  2.0212 -0.1626
27532SOL     OW87051  10.817   0.189   6.089  0.3126 -0.2136  0.5282
27532SOL    HW187052  10.765   0.147   6.020 -2.1564  1.2292  1.3811
27532SOL    HW287053  10.826   0.280   6.059 -0.7136  0.4076  1.9937
27533SOL     OW87054  10.227   6.230   2.262  0.5293 -0.3098  0.1409
27533SOL    HW187055  10.222   6.160   2.327  0.8858 -0.2041  0.2813
27533SOL    HW287056  10.145   6.279   2.272  2.0976  1.9901  3.0737
27534SOL     OW87057   9.989   5.705   4.599 -1.4899 -0.3077 -0.3492
27534SOL    HW187058   9.995   5.630   4.658 -0.3610 -1.4590 -1.8472
27534SOL    HW287059  10.014   5.780   4.652  1.0859 -1.5120  0.3022
27535SOL     OW87060   4.638   9.955   1.751 -0.1175 -0.2205 -0.5753
27535SOL    HW187061   4.577   9.979   1.821 -0.7068 -2.9506 -0.0479
27535SOL    HW287062   4.723   9.987   1.782 -0.5253 -0.5682  0.9885
27536SOL     OW87063   5.015   7.896  10.742 -0.2377 -0.1703 -0.0506
27536SOL    HW187064   4.928   7.859  10.754 -0.4359  0.3688  0.2062
27536SOL    HW287065   5.071   7.844  10.800 -0.9425  1.4964  2.2893
27537SOL     OW87066   9.011  11.075   9.042 -0.5372 -0.1523 -0.7505
27537SOL    HW187067   9.007  11.123   8.959 -0.5605  2.3284  0.5994
27537SOL    HW287068   9.095  11.099   9.080  0.0291 -2.2285 -0.5239
27538SOL     OW87069   2.071   9.137   5.354 -0.5761  0.1018  0.1410
27538SOL    HW187070   2.123   9.187   5.291 -0.3788 -0.9122 -0.5247
27538SOL    HW287071   2.064   9.194   5.430  0.3631  0.8003 -0.2774
27539SOL     OW87072   2.431   5.459   5.559  0.7405  0.8819 -0.3764
27539SOL    HW187073   2.475   5.517   5.620 -1.6105  2.0835  0.3055
27539SOL    HW287074   2.489   5.383   5.552  2.4120  1.9372  1.1380
27540SOL     OW87075   0.160   8.962   9.774 -0.2211  0.1668 -0.6000
27540SOL    HW187076   0.090   8.993   9.832  2.2141  2.2843  1.4443
27540SOL    HW287077   0.154   9.019   9.697 -1.8407 -0.9369 -1.3590
27541SOL     OW87078   9.866   2.097   8.210  0.6699 -0.1847 -0.0627
27541SOL    HW187079   9.782   2.072   8.250  0.3241  1.4800  0.3295
27541SOL    HW287080   9.862   2.061   8.122 -0.4999 -0.0911 -0.0647
27542SOL     OW87081   1.271   2.953   5.592 -0.0054 -0.1155 -0.2295
27542SOL    HW187082   1.210   2.893   5.549 -0.4581 -2.0370  2.7709
27542SOL    HW287083   1.214   3.015   5.639  0.2947 -1.2069  1.6497
27543SOL     OW87084   8.516   1.912   3.667 -0.1637  0.4874 -0.0960
27543SOL    HW187085   8.573   1.972   3.716  0.9640 -0.4175 -0.2718
27543SOL    HW287086   8.561   1.900   3.583 -0.8837  0.1485 -0.4423
27544SOL     OW87087  10.790   4.079   3.420  0.0198 -0.0267  0.3647
27544SOL    HW187088  10.735   4.065   3.343  1.2230  0.8643 -0.7059
27544SOL    HW287089  10.749   4.153   3.466 -0.6021 -0.4435  0.4854
27545SOL     OW87090   2.665   9.076   2.987  0.0899 -0.6206 -0.0284
27545SOL    HW187091   2.603   9.133   2.940  0.2171 -1.0666 -0.7562
27545SOL    HW287092   2.623   8.991   2.989  0.8949 -1.0612 -1.0033
27546SOL     OW87093   8.972   5.946   7.468 -0.4549  0.1603 -0.4906
27546SOL    HW187094   9.018   5.885   7.410 -1.6028  0.5343 -1.8260
27546SOL    HW287095   8.887   5.960   7.427 -0.1414  2.9029 -0.3940
27547SOL     OW87096   2.876   5.542   5.645  0.7440 -0.7743  0.5639
27547SOL    HW187097   2.927   5.615   5.680 -0.8073 -0.0431  1.3900
27547SOL    HW287098   2.859   5.486   5.720  1.3220 -1.6521  0.0625
27548SOL     OW87099   5.298   8.564   4.162 -0.3337  0.1799  0.7022
27548SOL    HW187100   5.378   8.598   4.201 -0.6946  0.6345  1.0603
27548SOL    HW287101   5.295   8.472   4.189 -0.5234  0.4597  1.6632
27549SOL     OW87102   7.675   1.616  10.519 -0.4308  0.3307  0.1410
27549SOL    HW187103   7.627   1.534  10.509 -0.2971 -0.0294  1.9899
27549SOL    HW287104   7.675   1.655  10.432  1.7853 -2.8296 -1.4692
27550SOL     OW87105   7.138   7.276  10.601 -0.3096  0.0853 -0.4932
27550SOL    HW187106   7.139   7.361  10.557 -0.7838 -0.1452 -0.9587
27550SOL    HW287107   7.134   7.297  10.695  1.7292  0.5925 -0.4646
27551SOL     OW87108  10.019   1.177   5.242  0.0352  0.7144 -0.1491
27551SOL    HW187109   9.946   1.187   5.303  0.2826  3.1130 -0.1528
27551SOL    HW287110   9.981   1.134   5.165 -1.0939  0.8665  0.3097
27552SOL     OW87111  10.024   6.945   7.785 -0.2902  0.2829 -0.2951
27552SOL    HW187112  10.010   7.036   7.758 -0.3407  0.4917  0.4053
27552SOL    HW287113  10.061   6.952   7.873 -0.5584 -0.3859 -0.1258
27553SOL     OW87114   7.969   4.911   6.275 -0.2141  0.0447 -0.0209
27553SOL    HW187115   8.028   4.852   6.227 -0.6088  0.1431 -0.6440
27553SOL    HW287116   7.891   4.916   6.220 -0.9475 -0.3484  0.9499
27554SOL     OW87117   4.284   9.203   3.806  0.4267 -0.1126  0.1964
27554SOL    HW187118   4.316   9.258   3.877  0.8127 -3.9257  3.2946
27554SOL    HW287119   4.353   9.205   3.740  0.6760  2.4402  0.4181
27555SOL     OW87120   6.888   3.776   5.213 -0.1230 -0.0863 -0.1740
27555SOL    HW187121   6.914   3.860   5.251  0.5113 -0.0225 -0.7150
27555SOL    HW287122   6.796   3.786   5.191  0.1306  0.7350 -0.9054
27556SOL     OW87123   9.212   9.842   1.632  0.5319  0.2741 -0.7190
27556SOL    HW187124   9.237   9.754   1.605  1.3486  0.3392 -0.2372
27556SOL    HW287125   9.269   9.860   1.708 -2.0634 -0.1690  1.4879
27557SOL     OW87126   4.606   3.531   9.069 -0.6087  0.0008  0.7278
27557SOL    HW187127   4.583   3.460   9.129 -0.7212 -1.0108 -0.4626
27557SOL    HW287128   4.558   3.607   9.101 -0.7553 -0.5430  1.8347
27558SOL     OW87129  11.023   0.375   2.703 -0.2646  0.4016 -0.1622
27558SOL    HW187130  11.035   0.329   2.620  0.0399 -0.3486  0.2904
27558SOL    HW287131  10.949   0.331   2.744 -0.5965  0.9549 -0.1538
27559SOL     OW87132   8.143   2.570   1.379  0.0888 -0.1435 -0.3998
27559SOL    HW187133   8.059   2.612   1.363  0.0487 -1.4475 -5.1860
27559SOL    HW287134   8.207   2.632   1.343  1.0111 -0.2618  0.9509
27560SOL     OW87135   4.034   8.066   7.209  0.2051 -0.2862  0.0498
27560SOL    HW187136   4.025   8.108   7.295 -0.6621  0.6931 -0.4909
27560SOL    HW287137   4.040   7.973   7.228 -0.3451 -0.1155  1.1574
27561SOL     OW87138   6.004   0.741   4.741 -0.4636  0.1662  0.0274
27561SOL    HW187139   5.922   0.775   4.704  0.0197  0.1826 -1.0745
27561SOL    HW287140   6.071   0.767   4.677  0.2337 -0.8953  0.3129
27562SOL     OW87141   8.484   4.077   1.595  0.1530 -0.1915 -0.7137
27562SOL    HW187142   8.500   4.171   1.588  1.3747 -0.3295 -0.0481
27562SOL    HW287143   8.568   4.036   1.571 -0.8894 -1.2102 -2.9756
27563SOL     OW87144   7.547  10.507   0.472  0.5917 -0.0221  0.2998
27563SOL    HW187145   7.620  10.474   0.419  0.4821  0.7962 -0.3929
27563SOL    HW287146   7.568  10.479   0.561  1.5125 -0.2151  0.0371
27564SOL     OW87147   7.209   1.489   1.039 -0.7663  0.6641 -0.5960
27564SOL    HW187148   7.290   1.534   1.060 -0.6696  1.1503 -1.9327
27564SOL    HW287149   7.182   1.447   1.121  1.0540  0.1173 -0.2434
27565SOL     OW87150   9.369  10.071   0.934 -0.1427  0.5636 -0.0184
27565SOL    HW187151   9.434  10.050   1.002 -0.5697 -2.4578 -0.3891
27565SOL    HW287152   9.412  10.135   0.878  1.1056  1.3700  1.7699
27566SOL     OW87153   9.100   4.531   5.550  0.0301 -0.0344  0.0870
27566SOL    HW187154   9.076   4.508   5.639 -0.4688 -1.1504 -0.3083
27566SOL    HW287155   9.171   4.470   5.528  0.0240  0.1060 -0.3348
27567SOL     OW87156   3.640   6.882   3.385  1.0334  0.7003  0.6267
27567SOL    HW187157   3.731   6.872   3.356  1.3327 -0.2891  1.8307
27567SOL    HW287158   3.632   6.824   3.460 -0.7575  0.3758  0.2311
27568SOL     OW87159   3.428   5.636   2.600  0.4926 -0.7376 -0.1694
27568SOL    HW187160   3.374   5.645   2.521  1.0048  1.3530 -0.3443
27568SOL    HW287161   3.518   5.629   2.567  0.7860  0.8947  0.1890
27569SOL     OW87162   6.503   8.770   5.774  0.0863  0.1725  0.2533
27569SOL    HW187163   6.533   8.756   5.863 -1.2808 -2.5136  0.3763
27569SOL    HW287164   6.573   8.735   5.719  0.6915  1.3489  0.2347
27570SOL     OW87165   3.865   7.100  10.578  0.2770  0.1923  0.1629
27570SOL    HW187166   3.951   7.061  10.596  0.1920 -0.4625 -0.7749
27570SOL    HW287167   3.803   7.028  10.591 -0.2525  0.8983  1.7682
27571SOL     OW87168   9.231   9.759   8.670  0.1129 -0.0573  0.7014
27571SOL    HW187169   9.297   9.779   8.737  0.2720  0.6958  0.3289
27571SOL    HW287170   9.210   9.843   8.631 -1.5930 -0.1710  1.2767
27572SOL     OW87171   0.299   2.372   1.150  0.0659 -0.1577 -0.0730
27572SOL    HW187172   0.374   2.417   1.110 -0.3703  1.5176  0.8948
27572SOL    HW287173   0.234   2.441   1.163 -0.7978 -1.1542  1.1302
27573SOL     OW87174   5.081   1.079   3.501  0.0379 -0.1631 -0.4696
27573SOL    HW187175   5.003   1.048   3.546 -0.6288 -1.2306 -2.2360
27573SOL    HW287176   5.098   1.166   3.538 -1.3863 -0.3404  0.6566
27574SOL     OW87177   6.826  10.892  10.405  0.2837 -0.3804 -0.2452
27574SOL    HW187178   6.847  10.887  10.311  0.7425  2.2604 -0.3856
27574SOL    HW287179   6.868  10.974  10.433  1.3812 -1.8140  2.6282
27575SOL     OW87180   1.428   0.397   9.687 -0.1888 -0.3823 -0.8753
27575SOL    HW187181   1.466   0.389   9.774  0.8213 -0.8161 -1.3410
27575SOL    HW287182   1.334   0.393   9.701 -0.1907  2.1705  0.4881
27576SOL     OW87183   2.507   5.686   0.099 -0.7537 -0.2986 -0.1730
27576SOL    HW187184   2.584   5.652   0.054 -0.5097  0.5065 -0.3692
27576SOL    HW287185   2.506   5.779   0.078 -1.5203 -0.2158  0.2096
27577SOL     OW87186   5.957   1.278   5.231 -0.4506 -0.3378  0.0287
27577SOL    HW187187   5.892   1.210   5.249  1.5942 -2.1553  1.0463
27577SOL    HW287188   6.008   1.284   5.312  0.5483  1.1659 -0.6683
27578SOL     OW87189   4.961   2.787   8.250  0.6786 -0.7315  0.5505
27578SOL    HW187190   4.903   2.789   8.175  0.8185 -0.0179  0.4554
27578SOL    HW287191   5.025   2.719   8.229  0.7192 -0.5342  0.0217
27579SOL     OW87192   3.287   7.702   9.854 -0.7479 -0.2735 -0.4657
27579SOL    HW187193   3.253   7.626   9.901 -1.9535  0.1857 -0.5486
27579SOL    HW287194   3.217   7.767   9.860  0.0940  0.6890 -0.7492
27580SOL     OW87195   6.227   9.798   7.724  0.0871  0.2151 -0.1500
27580SOL    HW187196   6.168   9.873   7.710  1.4426  1.4503  0.4607
27580SOL    HW287197   6.304   9.837   7.765  1.2002 -1.4176 -0.6453
27581SOL     OW87198   4.204  10.249   0.625  0.4596  0.0071  0.2597
27581SOL    HW187199   4.200  10.292   0.710  0.6070 -0.2512  0.3977
27581SOL    HW287200   4.163  10.311   0.565 -0.1121 -0.0278  0.6047
27582SOL     OW87201  10.367   5.667  10.685 -0.2161  0.4891 -0.2780
27582SOL    HW187202  10.300   5.713  10.634  1.5119  2.0556 -1.2392
27582SOL    HW287203  10.450   5.695  10.647  1.0316 -3.2084 -0.6816
27583SOL     OW87204   6.635   0.466  10.984 -0.7619  0.3648 -0.2771
27583SOL    HW187205   6.657   0.459  10.891  0.1445  0.1405 -0.0601
27583SOL    HW287206   6.583   0.388  11.003  0.8259 -0.7220 -0.1413
27584SOL     OW87207   8.086   8.149   8.393  0.4913  0.4447  0.4994
27584SOL    HW187208   8.171   8.136   8.350 -0.3319 -1.8363 -0.6006
27584SOL    HW287209   8.034   8.198   8.330  0.9674  1.9649  1.2297
27585SOL     OW87210   4.173   9.483   3.491 -0.8076 -0.5768  0.0131
27585SOL    HW187211   4.208   9.511   3.407  0.7245  0.9769  1.1252
27585SOL    HW287212   4.092   9.533   3.502 -1.7120 -1.7252 -1.0493
27586SOL     OW87213   5.977   4.757   3.590 -0.0837 -0.1001  0.8554
27586SOL    HW187214   6.044   4.739   3.656  0.3092 -1.8870  0.0289
27586SOL    HW287215   6.026   4.790   3.515 -0.3852  0.6226  0.9673
27587SOL     OW87216   6.601  10.754   1.515 -0.0805 -0.0013 -0.3171
27587SOL    HW187217   6.659  10.816   1.560 -1.3050  0.6507  0.4364
27587SOL    HW287218   6.545  10.720   1.585 -1.7562  0.7049 -1.2670
27588SOL     OW87219   8.753  10.575   7.795  0.4623 -0.0816  0.6941
27588SOL    HW187220   8.840  10.612   7.813  0.1718  2.9331 -2.7944
27588SOL    HW287221   8.692  10.639   7.832 -0.3485 -1.7150  2.3188
27589SOL     OW87222   8.393   4.486   0.988 -0.5001  0.6794 -0.2355
27589SOL    HW187223   8.455   4.477   1.060 -2.0595 -0.6276  1.0454
27589SOL    HW287224   8.405   4.575   0.956  1.5231  0.6731  0.4031
27590SOL     OW87225   9.590   7.301   6.814 -0.0253 -0.2398  0.1145
27590SOL    HW187226   9.524   7.250   6.767 -2.6836  1.9646  1.0956
27590SOL    HW287227   9.605   7.252   6.895 -0.8652 -0.5872  0.0766
27591SOL     OW87228   1.649   4.021   8.356 -0.1587  0.2419 -0.3499
27591SOL    HW187229   1.671   4.101   8.404  0.8816  0.4272 -1.0861
27591SOL    HW287230   1.642   3.954   8.423  2.2695  0.2784  0.0377
27592SOL     OW87231   5.264   4.805   8.294  0.4128  0.0168  0.7983
27592SOL    HW187232   5.328   4.734   8.291  1.3711  0.9054 -0.6784
27592SOL    HW287233   5.227   4.800   8.382  3.0141 -0.1088  1.9746
27593SOL     OW87234   9.260   3.836  10.310  0.3219  0.0651 -0.3630
27593SOL    HW187235   9.311   3.854  10.231  0.2423  1.2738 -0.1562
27593SOL    HW287236   9.299   3.891  10.377 -0.2815 -0.1559  0.1815
27594SOL     OW87237   2.216   7.147   7.586 -0.1635  0.4337  0.0581
27594SOL    HW187238   2.152   7.202   7.631 -0.4126 -0.7272  1.1636
27594SOL    HW287239   2.273   7.114   7.655  0.6450  0.1637 -0.7164
27595SOL     OW87240   1.838   0.475   0.561  0.2768 -0.5479 -0.2624
27595SOL    HW187241   1.794   0.535   0.501 -0.5832  0.0334  0.9131
27595SOL    HW287242   1.772   0.454   0.627  2.2281  2.1557  2.8833
27596SOL     OW87243   0.392   7.658   4.050 -0.5906 -0.0633 -0.2568
27596SOL    HW187244   0.304   7.643   4.016 -0.4474 -1.9912  0.1085
27596SOL    HW287245   0.443   7.686   3.974 -1.2049 -0.2786 -0.7539
27597SOL     OW87246   0.037   9.884  10.325  0.0714 -0.0567 -0.0423
27597SOL    HW187247  -0.030   9.816  10.329  1.1893 -1.1287  2.0573
27597SOL    HW287248   0.119   9.836  10.313  0.6805  1.0755 -0.5563
27598SOL     OW87249   9.279   8.123   5.478 -0.0092 -0.1926 -0.5527
27598SOL    HW187250   9.230   8.049   5.513 -1.5208  0.0258 -2.0778
27598SOL    HW287251   9.348   8.083   5.425 -0.1123 -0.4955 -0.4614
27599SOL     OW87252   4.825   1.877   5.753  0.1290  0.0517 -0.3467
27599SOL    HW187253   4.917   1.888   5.729 -0.1094  0.4861 -1.0968
27599SOL    HW287254   4.795   1.966   5.772 -0.1640 -0.0790 -0.2001
27600SOL     OW87255   5.936   9.745   5.757 -0.0496 -0.6242 -0.0565
27600SOL    HW187256   5.992   9.670   5.779 -0.2598 -0.7573  0.0309
27600SOL    HW287257   5.860   9.706   5.713 -0.1276 -0.4561 -0.0718
27601SOL     OW87258   6.601   0.492   1.729 -0.1775  0.3505 -0.1014
27601SOL    HW187259   6.624   0.529   1.643  0.0439  1.3832  0.3932
27601SOL    HW287260   6.685   0.480   1.773 -0.3224  0.2083  0.1354
27602SOL     OW87261   6.375   3.967   3.086 -0.0029  0.4961  0.3019
27602SOL    HW187262   6.409   4.048   3.125  1.2180  0.4069 -0.5428
27602SOL    HW287263   6.400   3.898   3.147  2.3592  0.2866 -0.7982
27603SOL     OW87264   3.349   3.059   5.423 -0.1140  0.2201  0.1782
27603SOL    HW187265   3.279   3.026   5.479 -1.4696  1.3338 -0.7997
27603SOL    HW287266   3.411   3.099   5.484  0.5771 -2.2413  1.2047
27604SOL     OW87267   8.589   1.343   9.291 -0.0646 -0.1812  0.2091
27604SOL    HW187268   8.556   1.400   9.222  0.2263  0.4389  0.5814
27604SOL    HW287269   8.684   1.342   9.279 -0.0036 -0.0067  0.6425
27605SOL     OW87270   7.306   3.410   4.253 -0.2658 -0.6968  0.2591
27605SOL    HW187271   7.270   3.329   4.289  0.2149 -0.0591  2.3544
27605SOL    HW287272   7.384   3.427   4.307 -0.8080  1.5486  0.4313
27606SOL     OW87273   3.686   5.484   5.803  0.2972  0.2655 -0.1596
27606SOL    HW187274   3.600   5.470   5.763 -0.3136  0.7253  0.9654
27606SOL    HW287275   3.717   5.566   5.766  0.5211 -0.1709 -0.9860
27607SOL     OW87276   4.012   1.402   7.057 -0.3672 -0.1047 -0.1637
27607SOL    HW187277   4.057   1.397   6.972 -0.2921 -0.4031 -0.1073
27607SOL    HW287278   3.919   1.404   7.034 -0.3313  0.3099 -0.2734
27608SOL     OW87279   4.286   0.234   0.715 -0.4968  0.3135 -0.2381
27608SOL    HW187280   4.369   0.274   0.688  0.7437 -1.3786  0.8028
27608SOL    HW287281   4.220   0.301   0.700  1.2147  2.1193 -0.0800
27609SOL     OW87282   9.750   5.415   3.125 -0.2535  0.5141 -0.3298
27609SOL    HW187283   9.692   5.342   3.147 -0.2708  0.7299  0.3487
27609SOL    HW287284   9.829   5.401   3.177 -0.0249  0.6722 -0.6256
27610SOL     OW87285   5.476   5.048   1.137  0.5203  0.2218 -0.2573
27610SOL    HW187286   5.415   4.996   1.191  2.3645 -1.8635 -0.0377
27610SOL    HW287287   5.445   5.138   1.146 -1.8825 -0.6043  0.6786
27611SOL     OW87288   7.208   3.647   8.547  0.0185 -0.3391  0.2679
27611SOL    HW187289   7.141   3.631   8.613 -0.7500 -2.8171 -0.9725
27611SOL    HW287290   7.171   3.715   8.491 -1.3347 -1.3464 -0.1247
27612SOL     OW87291   0.423   5.506  10.513 -0.1653  0.5383  0.0754
27612SOL    HW187292   0.489   5.487  10.447  1.3908 -0.8684  1.9371
27612SOL    HW287293   0.442   5.596  10.542  0.8766  0.1796  0.5188
27613SOL     OW87294   6.300   1.292   2.134  0.2385 -0.2001 -0.3198
27613SOL    HW187295   6.214   1.330   2.150  0.3592 -0.2596  0.5108
27613SOL    HW287296   6.283   1.214   2.082 -0.6750 -2.5424  3.1715
27614SOL     OW87297   4.693   8.696  11.036  0.2539  0.3841  0.3451
27614SOL    HW187298   4.782   8.676  11.067  0.3114  0.1215  0.0222
27614SOL    HW287299   4.704   8.713  10.942 -0.2589 -1.3078 -0.0682
27615SOL     OW87300   2.451   8.773   6.567 -0.4975 -0.0903  0.0663
27615SOL    HW187301   2.475   8.701   6.509 -0.8347 -1.2677  1.3159
27615SOL    HW287302   2.461   8.737   6.655  0.4442  1.7718  0.7809
27616SOL     OW87303   1.507   4.075   3.009  0.2239  0.4910 -0.4917
27616SOL    HW187304   1.519   4.039   3.096  0.9461  0.8917 -0.4172
27616SOL    HW287305   1.549   4.012   2.951 -1.3613 -0.4407 -0.7108
27617SOL     OW87306   0.348   9.123   1.792 -0.1180 -0.0992  0.5010
27617SOL    HW187307   0.422   9.159   1.741 -0.3899 -2.4241 -1.7430
27617SOL    HW287308   0.285   9.195   1.796  1.5240  1.3877  0.9647
27618SOL     OW87309   0.310   2.123   6.415 -0.0359 -0.4084 -0.0839
27618SOL    HW187310   0.334   2.061   6.483 -1.5365 -0.5023  0.4044
27618SOL    HW287311   0.269   2.196   6.462 -1.4871 -0.6669 -0.8732
27619SOL     OW87312   5.084   3.254   2.457  0.4548 -0.5454  0.2496
27619SOL    HW187313   5.055   3.317   2.523 -0.8107 -0.6508 -0.1696
27619SOL    HW287314   5.006   3.200   2.440  0.3636  0.2315 -2.1582
27620SOL     OW87315   7.812   4.024   4.871 -0.3829  0.4387 -0.3888
27620SOL    HW187316   7.877   4.071   4.818 -1.5332  0.9362 -1.3916
27620SOL    HW287317   7.765   4.092   4.918  0.1056  0.0479  0.7125
27621SOL     OW87318   7.270   1.908  10.614 -0.8866  0.2552 -0.1708
27621SOL    HW187319   7.323   1.976  10.572 -0.5087 -0.1320 -0.3290
27621SOL    HW287320   7.280   1.831  10.557 -0.9115 -0.0753  0.2650
27622SOL     OW87321   8.773   8.321   6.577  0.0993  0.4136  0.7865
27622SOL    HW187322   8.741   8.272   6.501 -1.8309  2.2972  0.2990
27622SOL    HW287323   8.832   8.260   6.621  0.6917 -1.0143 -1.7808
27623SOL     OW87324   8.505   5.842   6.269  0.7285  0.4365 -0.4391
27623SOL    HW187325   8.583   5.803   6.307  0.0427  0.0274  0.6154
27623SOL    HW287326   8.472   5.776   6.208  1.5127  0.8573 -1.3520
27624SOL     OW87327   0.563   0.437  10.924  0.5322  0.5099 -0.2962
27624SOL    HW187328   0.480   0.473  10.956 -0.7522 -1.5081 -1.0973
27624SOL    HW287329   0.573   0.473  10.836  0.5440  0.7867 -0.1834
27625SOL     OW87330   6.304  10.325   8.978 -0.2828 -0.0132  0.0702
27625SOL    HW187331   6.282  10.415   8.952  0.2796  0.4168  1.0322
27625SOL    HW287332   6.246  10.270   8.924 -2.6419  1.0153  1.3869
27626SOL     OW87333   6.540   5.967   5.580 -0.5057 -0.5866  0.4656
27626SOL    HW187334   6.494   5.883   5.588 -1.4497 -0.7953 -4.1125
27626SOL    HW287335   6.603   5.953   5.509  0.4875  2.1759  0.6766
27627SOL     OW87336   6.360   1.082   6.281  0.1344  0.0703 -0.1132
27627SOL    HW187337   6.350   1.055   6.190  0.7765 -2.8378  0.6003
27627SOL    HW287338   6.271   1.084   6.315 -0.0280  0.2159 -0.5353
27628SOL     OW87339   6.971   3.253  10.946 -0.3215  0.0422  0.3125
27628SOL    HW187340   7.017   3.178  10.985  1.0744  1.3388  1.2893
27628SOL    HW287341   6.904   3.275  11.010 -0.9499 -0.5603 -0.1298
27629SOL     OW87342   0.880   3.655   5.672 -0.4292 -0.0321  0.3666
27629SOL    HW187343   0.786   3.648   5.658 -0.7418  0.0720  2.1667
27629SOL    HW287344   0.895   3.748   5.689  0.0764  0.0219 -0.3285
27630SOL     OW87345   6.888   2.922   1.291  0.2872 -1.3350  0.1786
27630SOL    HW187346   6.809   2.972   1.266  0.1003 -1.6927  0.0517
27630SOL    HW287347   6.859   2.831   1.292  0.7466 -1.4852 -0.0470
27631SOL     OW87348   0.101   9.122  10.691  0.2456  0.2173  0.4178
27631SOL    HW187349   0.112   9.046  10.747  0.0874 -0.3735 -0.3452
27631SOL    HW287350   0.173   9.181  10.716 -0.0328  0.1138  1.4686
27632SOL     OW87351  10.161  10.490   7.621  0.9495 -0.3560  0.7341
27632SOL    HW187352  10.212  10.552   7.672 -0.0934  0.5448  0.7282
27632SOL    HW287353  10.070  10.515   7.638  0.5693 -0.0411 -1.5269
27633SOL     OW87354  11.074   6.158   7.181 -0.0120 -0.4928 -0.1001
27633SOL    HW187355  11.158   6.156   7.227 -0.1504 -2.0827  0.1391
27633SOL    HW287356  11.009   6.137   7.248 -0.8048  2.0620  0.0229
27634SOL     OW87357   8.709  10.365   3.834 -0.9172  0.0849 -0.8454
27634SOL    HW187358   8.747  10.315   3.762  0.9674  0.8002 -0.3994
27634SOL    HW287359   8.661  10.436   3.791  1.0396  1.1111 -1.4649
27635SOL     OW87360   0.600   0.566   8.315  0.1073 -0.4382  0.1014
27635SOL    HW187361   0.539   0.638   8.331  1.0492  0.5669 -0.6677
27635SOL    HW287362   0.558   0.513   8.248 -0.1170 -0.0099 -0.1001
27636SOL     OW87363   4.730   0.552   5.339 -0.4319 -0.4733 -0.7364
27636SOL    HW187364   4.809   0.498   5.338  0.5394  0.8712  0.0096
27636SOL    HW287365   4.708   0.561   5.431 -0.0308  1.1012 -0.7618
27637SOL     OW87366   1.138   1.469   3.786 -0.3269  0.3574  0.0464
27637SOL    HW187367   1.183   1.548   3.817 -2.8217  1.1383  1.9756
27637SOL    HW287368   1.046   1.483   3.807 -1.3779 -1.7090 -2.5663
27638SOL     OW87369   2.809   2.171   9.009 -0.5786 -0.4274 -0.0407
27638SOL    HW187370   2.742   2.207   8.950  0.3383  0.7509 -0.4026
27638SOL    HW287371   2.789   2.209   9.094  0.1295  0.6577 -0.3334
27639SOL     OW87372   5.003   5.481   5.586  0.5364  0.5282 -0.3183
27639SOL    HW187373   5.081   5.470   5.531 -0.1031  0.5899 -1.2563
27639SOL    HW287374   5.020   5.560   5.637  1.3276  0.2190 -0.0921
27640SOL     OW87375   8.688   5.814   8.043  0.1414 -0.3705 -0.0103
27640SOL    HW187376   8.748   5.842   8.112 -0.7586  0.9188  0.2954
27640SOL    HW287377   8.745   5.802   7.966  0.6248  2.8883 -0.3109
27641SOL     OW87378  10.981   3.569   0.620 -0.1090  0.0095  0.6122
27641SOL    HW187379  10.965   3.558   0.714 -1.2925  0.0526  0.4267
27641SOL    HW287380  10.896   3.552   0.579  0.6271 -1.0592 -0.5357
27642SOL     OW87381   2.680  10.829   5.185 -0.4456 -0.1652  0.1480
27642SOL    HW187382   2.677  10.912   5.136 -1.6317  0.6591  1.5280
27642SOL    HW287383   2.596  10.825   5.230  0.4094 -1.1178  1.7452
27643SOL     OW87384   7.689   6.715   1.181  0.0003  0.6620  0.1602
27643SOL    HW187385   7.616   6.662   1.211 -0.6815  0.5046 -1.7154
27643SOL    HW287386   7.718   6.761   1.260 -1.9809  0.5960  0.9800
27644SOL     OW87387   8.964   8.346   3.070 -0.2676 -0.0207 -0.2054
27644SOL    HW187388   9.051   8.339   3.110  0.3008 -0.9535 -1.5202
27644SOL    HW287389   8.910   8.386   3.138  1.3377  1.2136  0.4164
27645SOL     OW87390   7.008   2.765  10.015  0.4806  0.0174  0.4519
27645SOL    HW187391   6.947   2.691  10.013  0.4437 -0.0215  1.6953
27645SOL    HW287392   7.056   2.760   9.932 -1.2236  0.0902 -0.5733
27646SOL     OW87393   1.244   1.204   3.716  0.1518 -0.5298 -0.0386
27646SOL    HW187394   1.319   1.202   3.776  1.1986 -0.8481 -1.2972
27646SOL    HW287395   1.194   1.281   3.743  0.8212 -0.4239  0.9651
27647SOL     OW87396   8.855  10.776   2.261 -0.2539  0.7020  0.1464
27647SOL    HW187397   8.844  10.825   2.180  0.3326 -1.7758 -1.5560
27647SOL    HW287398   8.766  10.752   2.286 -0.3539 -0.0667 -0.8545
27648SOL     OW87399   5.377   6.114   0.180 -0.0589  0.3416  0.1236
27648SOL    HW187400   5.451   6.158   0.222  1.0866 -1.5991  0.2138
27648SOL    HW287401   5.401   6.109   0.088  0.4186 -1.1726  0.3033
27649SOL     OW87402   3.751   1.526   7.280 -0.0488 -0.4528 -0.3745
27649SOL    HW187403   3.819   1.467   7.311 -0.6333 -1.3084 -0.6795
27649SOL    HW287404   3.796   1.609   7.265  0.7061 -0.6955  0.4529
27650SOL     OW87405   9.244   7.429   8.276  0.4876 -0.0357  0.3169
27650SOL    HW187406   9.279   7.453   8.362 -0.8838  0.8449  0.6483
27650SOL    HW287407   9.241   7.511   8.228  1.4868 -0.5637 -0.6862
27651SOL     OW87408   6.323   1.680   8.119  0.0734  0.1447  0.4115
27651SOL    HW187409   6.298   1.694   8.028  1.7976 -1.3175 -0.3300
27651SOL    HW287410   6.239   1.676   8.166 -0.8315  1.4052 -0.9841
27652SOL     OW87411  10.547   7.461   2.629 -0.7915  0.0970  0.0511
27652SOL    HW187412  10.477   7.527   2.637 -0.6729  0.2282  0.0092
27652SOL    HW287413  10.528   7.416   2.547 -2.0464 -1.2893  1.0402
27653SOL     OW87414   8.816   7.525   8.812 -0.0693 -0.2674  0.2571
27653SOL    HW187415   8.767   7.510   8.731  3.0591 -0.1857 -1.8681
27653SOL    HW287416   8.825   7.620   8.818 -1.3947 -0.2009  1.4778
27654SOL     OW87417   9.775   4.971   7.215 -0.6034  0.0823  0.5722
27654SOL    HW187418   9.713   4.932   7.277 -0.6171  1.4980  1.4799
27654SOL    HW287419   9.807   5.050   7.258  0.1817  0.5537 -0.7951
27655SOL     OW87420   8.433   0.108   3.616 -0.1113  0.0609  0.1101
27655SOL    HW187421   8.520   0.090   3.649  0.1292  0.3661 -0.3488
27655SOL    HW287422   8.386   0.025   3.625 -0.1555  0.2237  1.5042
27656SOL     OW87423   2.559   1.053   9.216 -0.0357  0.3686  0.6266
27656SOL    HW187424   2.466   1.050   9.237 -0.6778  2.4832 -1.4292
27656SOL    HW287425   2.580   1.147   9.213  2.2160 -0.0596  1.1606
27657SOL     OW87426   2.836   1.312   1.319 -0.6391  0.0150  1.2058
27657SOL    HW187427   2.902   1.287   1.383 -1.7946 -0.2936  2.3060
27657SOL    HW287428   2.767   1.354   1.370 -1.0369  0.8959  0.0041
27658SOL     OW87429   7.921   1.644   3.427 -0.0582 -0.1792 -0.0565
27658SOL    HW187430   7.982   1.621   3.498 -0.7802  0.0952  0.6698
27658SOL    HW287431   7.857   1.573   3.427 -0.5663  0.2794  0.1587
27659SOL     OW87432   3.578   8.326   9.879 -0.2724  0.3386  0.1336
27659SOL    HW187433   3.631   8.260   9.834  0.1305  0.3707  0.5595
27659SOL    HW287434   3.542   8.281   9.955 -1.3778  0.1374 -0.4804
27660SOL     OW87435   7.301   0.831   6.840  0.3027  0.1975  0.2367
27660SOL    HW187436   7.320   0.740   6.820 -0.8239 -0.1248  0.5580
27660SOL    HW287437   7.316   0.878   6.758  0.0024 -0.4281 -0.1860
27661SOL     OW87438   1.750   5.574   1.278 -0.2452 -0.4938 -0.1914
27661SOL    HW187439   1.845   5.571   1.265 -0.2154  0.5327 -0.3107
27661SOL    HW287440   1.717   5.608   1.195 -0.5111  1.2762  0.5993
27662SOL     OW87441   3.317   5.052   1.487  0.3648  0.4364  0.0432
27662SOL    HW187442   3.286   5.112   1.555 -1.1425 -0.8199  0.5200
27662SOL    HW287443   3.311   5.102   1.406  1.7331  1.7974  0.7317
27663SOL     OW87444   0.775   3.693   0.299  0.2290  0.2548 -0.0864
27663SOL    HW187445   0.782   3.786   0.276  1.2198  0.3147  0.3860
27663SOL    HW287446   0.766   3.694   0.395  1.8874 -0.1712  0.1093
27664SOL     OW87447   0.952   8.931   2.122 -0.3543 -0.2722 -0.4719
27664SOL    HW187448   0.861   8.946   2.145 -0.3834 -0.7676 -0.2590
27664SOL    HW287449   0.982   8.864   2.184  0.6903  1.2315  0.7151
27665SOL     OW87450   6.579   7.402   6.664  0.2052 -0.4909  0.5968
27665SOL    HW187451   6.487   7.376   6.657 -0.3118  0.8147  1.9848
27665SOL    HW287452   6.582   7.488   6.623  0.9617 -0.7994 -0.0128
27666SOL     OW87453   8.220   0.495   9.136  0.4145 -0.6186  0.4602
27666SOL    HW187454   8.289   0.484   9.071  0.5709 -1.6466  0.7824
27666SOL    HW287455   8.144   0.448   9.099  0.5948 -1.4646  1.1299
27667SOL     OW87456   5.379   1.904   4.839 -0.0735 -0.0659 -0.5287
27667SOL    HW187457   5.393   1.885   4.932  0.4437 -0.0853 -0.6080
27667SOL    HW287458   5.446   1.969   4.817 -0.3894  0.1670 -0.8149
27668SOL     OW87459   3.105   6.252   6.567 -0.1835 -0.1625  0.2885
27668SOL    HW187460   3.013   6.225   6.571 -0.1880 -0.1390  0.3465
27668SOL    HW287461   3.138   6.214   6.486 -0.1311 -0.5260  0.4806
27669SOL     OW87462   6.791   2.149   5.200  0.2673  0.0979 -0.2767
27669SOL    HW187463   6.718   2.162   5.261  0.7635 -0.2042  0.4048
27669SOL    HW287464   6.863   2.201   5.237  1.1553 -1.5699  0.4746
27670SOL     OW87465   6.949   5.995  10.678 -0.2448  0.8831  0.0379
27670SOL    HW187466   7.007   5.927  10.644 -1.4077  0.1400 -0.5169
27670SOL    HW287467   7.004   6.073  10.682  1.0932 -0.0401  0.5800
27671SOL     OW87468   1.699   5.670   8.393 -0.5109 -0.3181 -0.2266
27671SOL    HW187469   1.753   5.723   8.452 -1.0949 -0.3374  0.3388
27671SOL    HW287470   1.611   5.707   8.401 -0.5039  0.0346 -1.5169
27672SOL     OW87471   2.082   3.947   5.764  1.1168 -0.5349 -0.5560
27672SOL    HW187472   2.164   3.988   5.736  0.6936  0.8472  0.1741
27672SOL    HW287473   2.110   3.871   5.816  1.9605  0.3030  0.2498
27673SOL     OW87474   9.863   5.735  10.969 -0.2597  0.6922  0.2701
27673SOL    HW187475   9.936   5.770  11.021 -1.6639  1.7300  1.6328
27673SOL    HW287476   9.839   5.653  11.013  0.4446  0.0183 -0.5532
27674SOL     OW87477   3.810   3.094   5.908  0.0566  0.5606  0.4057
27674SOL    HW187478   3.749   3.071   5.839 -0.6064  1.0021  0.8385
27674SOL    HW287479   3.767   3.066   5.989  0.7516  0.1929  0.6629
27675SOL     OW87480   1.156   4.496   1.670  0.1208  0.1424 -0.0768
27675SOL    HW187481   1.237   4.540   1.647 -0.0205 -0.2564 -1.4074
27675SOL    HW287482   1.147   4.509   1.765  1.6804  0.2514  0.0704
27676SOL     OW87483   5.430   0.410  10.258  0.1161 -0.2400 -0.2651
27676SOL    HW187484   5.359   0.350  10.235 -0.7631  0.1442  1.3692
27676SOL    HW287485   5.455   0.385  10.347  0.6862  0.9175 -0.0856
27677SOL     OW87486   5.947  10.672   6.293 -0.3878  0.1850  0.2598
27677SOL    HW187487   5.987  10.691   6.378 -2.6302 -0.9463  1.6680
27677SOL    HW287488   5.918  10.758   6.261  1.7858  0.8246 -0.1378
27678SOL     OW87489   8.882   9.198   5.231 -0.8217 -0.2402  0.0025
27678SOL    HW187490   8.923   9.128   5.180  0.8318  0.9247 -0.3589
27678SOL    HW287491   8.920   9.189   5.318 -2.0599 -0.9356  0.4960
27679SOL     OW87492  10.763   6.235   8.262  0.1046 -0.2027  0.9063
27679SOL    HW187493  10.823   6.300   8.297  0.2212  0.1425  0.0670
27679SOL    HW287494  10.784   6.155   8.311  0.3626  0.2348  1.5195
27680SOL     OW87495   6.477   8.284   7.902  0.4197  0.2685  0.4250
27680SOL    HW187496   6.466   8.277   7.807 -1.3565  0.9422  0.5394
27680SOL    HW287497   6.528   8.364   7.914 -1.0076  1.2745  0.0716
27681SOL     OW87498   4.110   4.608   8.311 -0.2376  0.2440 -0.1239
27681SOL    HW187499   4.041   4.674   8.311 -0.6788 -0.1895 -0.9898
27681SOL    HW287500   4.096   4.559   8.229  0.2713 -0.7066  0.3335
27682SOL     OW87501   2.860   7.679   2.508 -0.6262  0.2599 -0.4588
27682SOL    HW187502   2.809   7.720   2.577 -0.4247 -0.9667  0.4660
27682SOL    HW287503   2.837   7.727   2.429 -1.2755  1.3518  0.3653
27683SOL     OW87504   6.545   0.311   0.750 -0.3062  0.0984 -0.1068
27683SOL    HW187505   6.640   0.322   0.760  0.0932 -2.3482 -0.5082
27683SOL    HW287506   6.521   0.375   0.683  1.1653  0.4654 -0.3228
27684SOL     OW87507  10.631   6.152   1.676  0.1848 -0.1019  0.2956
27684SOL    HW187508  10.646   6.240   1.711 -0.4774  0.5294 -0.9528
27684SOL    HW287509  10.665   6.093   1.744  1.0674  1.1145  0.9491
27685SOL     OW87510   4.363   2.794   0.384  0.1446  0.0800  0.6049
27685SOL    HW187511   4.306   2.821   0.312 -0.8554 -0.2572  1.2426
27685SOL    HW287512   4.345   2.858   0.453  0.9869  0.3160  0.6195
27686SOL     OW87513   8.863   7.823   6.934  0.0868  0.3539 -0.3327
27686SOL    HW187514   8.922   7.748   6.938 -0.4955 -0.0557  1.0936
27686SOL    HW287515   8.866   7.860   7.022  0.2456  1.9363 -0.9685
27687SOL     OW87516   2.492   0.229   7.670  0.1283 -0.3027 -0.4731
27687SOL    HW187517   2.419   0.218   7.731  0.9866  0.4330  0.7320
27687SOL    HW287518   2.567   0.189   7.715  0.4466 -1.2418 -1.7814
27688SOL     OW87519   3.204  10.347   9.611 -0.4275 -0.5838  0.7487
27688SOL    HW187520   3.212  10.295   9.531 -2.2093 -0.0097  0.1548
27688SOL    HW287521   3.292  10.348   9.648  0.8586  0.4820 -2.0494
27689SOL     OW87522   6.953  10.191   5.258  0.5271 -0.0112  0.2651
27689SOL    HW187523   7.009  10.242   5.316  0.3277  1.2053 -0.5735
27689SOL    HW287524   6.983  10.213   5.170 -0.2335 -0.5633 -0.1452
27690SOL     OW87525   9.738   5.367   9.158 -0.4437 -0.6195  0.1644
27690SOL    HW187526   9.662   5.340   9.210 -1.1837  0.1569 -0.4680
27690SOL    HW287527   9.702   5.383   9.071  0.0993  1.4710  0.2805
27691SOL     OW87528   6.348   0.203   0.417 -0.3995  0.3707 -0.4372
27691SOL    HW187529   6.278   0.161   0.467 -0.5831 -0.0402 -1.0212
27691SOL    HW287530   6.401   0.130   0.385 -0.3326  0.6197 -0.9010
27692SOL     OW87531   2.354  10.402   3.336 -0.1350  0.2909 -0.3264
27692SOL    HW187532   2.438  10.384   3.294  0.3960  0.4800  0.6252
27692SOL    HW287533   2.377  10.450   3.415 -1.2509  1.8393 -0.8945
27693SOL     OW87534   0.197   3.557   9.231 -0.3370  0.5545  0.5842
27693SOL    HW187535   0.245   3.588   9.155 -1.5433  2.5435  0.5620
27693SOL    HW287536   0.254   3.577   9.305  0.1052  0.2094  0.3408
27694SOL     OW87537   7.298  10.187   0.890 -0.4183  0.0089 -0.5245
27694SOL    HW187538   7.217  10.179   0.940  0.3730 -0.2877  0.7541
27694SOL    HW287539   7.341  10.265   0.925 -0.1646  0.1949 -1.2284
27695SOL     OW87540   3.615   1.383   1.114  0.1656  0.5359 -0.1503
27695SOL    HW187541   3.630   1.293   1.087 -0.0555 -0.2791  2.1785
27695SOL    HW287542   3.575   1.425   1.038  0.9361 -1.1147 -1.5370
27696SOL     OW87543  10.741   5.075   2.905 -0.1011 -0.2641  0.2347
27696SOL    HW187544  10.761   4.989   2.868  1.0838 -0.2183  0.7450
27696SOL    HW287545  10.701   5.123   2.832 -0.1826 -1.0242 -0.2358
27697SOL     OW87546   6.742   5.243   6.935  0.4058 -0.0048 -0.1864
27697SOL    HW187547   6.738   5.264   6.842  0.5129 -0.3159 -0.2626
27697SOL    HW287548   6.812   5.299   6.969 -0.3115  0.8417 -0.0902
27698SOL     OW87549   8.081   9.380   4.502 -0.0877 -0.1033 -0.2956
27698SOL    HW187550   8.021   9.322   4.549 -0.7454  0.2181 -0.7292
27698SOL    HW287551   8.061   9.467   4.535  0.0065  0.0309 -0.5879
27699SOL     OW87552   6.506   7.946   9.049  0.7151 -0.4393 -0.9417
27699SOL    HW187553   6.500   7.911   9.138 -2.0827 -0.9537 -1.2392
27699SOL    HW287554   6.511   8.041   9.061  1.7802 -0.5719 -0.2357
27700SOL     OW87555   7.794   9.108   8.659  0.0046  0.5893 -0.1763
27700SOL    HW187556   7.880   9.106   8.701  0.9862  1.0085 -2.0707
27700SOL    HW287557   7.758   9.193   8.683 -0.1965  0.1544  1.1550
27701SOL     OW87558   2.618   9.086   1.368  0.0149 -0.2263  0.2531
27701SOL    HW187559   2.580   9.171   1.346  0.2309  0.2745  1.6677
27701SOL    HW287560   2.548   9.041   1.417 -0.5582 -1.4070 -1.5667
27702SOL     OW87561   8.057   9.705   3.696  0.5760  0.2164  0.0470
27702SOL    HW187562   7.978   9.661   3.665  0.7176 -0.7151  0.9724
27702SOL    HW287563   8.101   9.735   3.616 -1.7000  2.5896 -0.4616
27703SOL     OW87564   7.437   9.781   7.351  0.1744 -0.2453 -0.2385
27703SOL    HW187565   7.466   9.863   7.312 -0.3575  0.3001  0.4892
27703SOL    HW287566   7.500   9.716   7.321  0.3376  0.3426 -1.1961
27704SOL     OW87567   2.663   8.844   3.526 -0.6772  0.2644  0.4431
27704SOL    HW187568   2.592   8.779   3.526 -1.0707  0.6866  0.0887
27704SOL    HW287569   2.657   8.886   3.441 -0.2966  0.6304  0.5924
27705SOL     OW87570   1.518   2.741   7.589 -0.6790  0.1235  0.2989
27705SOL    HW187571   1.613   2.734   7.575 -0.4241 -2.0200  2.5218
27705SOL    HW287572   1.480   2.729   7.502  1.0259 -2.6248 -0.1876
27706SOL     OW87573   0.228   8.703   9.670  0.4591  0.2968  0.2755
27706SOL    HW187574   0.184   8.642   9.728  3.0380 -0.3173  1.7449
27706SOL    HW287575   0.191   8.789   9.693  0.2834 -0.1412  1.7157
27707SOL     OW87576   5.497   0.931   3.604 -0.3866 -0.2604  0.0623
27707SOL    HW187577   5.592   0.942   3.612 -0.4625  0.2607  0.2742
27707SOL    HW287578   5.461   0.981   3.677 -0.9211  1.3760 -1.2640
27708SOL     OW87579   0.576   1.594   7.643  0.1336 -1.0885 -0.4539
27708SOL    HW187580   0.486   1.571   7.620 -0.2988 -1.7468  1.6257
27708SOL    HW287581   0.625   1.585   7.562 -2.2720  3.2156 -2.7256
27709SOL     OW87582   2.523   6.906   8.351 -1.0210 -0.0137 -0.1989
27709SOL    HW187583   2.442   6.936   8.310 -0.9862 -0.4352 -0.5756
27709SOL    HW287584   2.584   6.980   8.341 -1.9410  1.1454  1.8929
27710SOL     OW87585  10.179   2.838   4.107 -0.0416 -0.3738 -0.4793
27710SOL    HW187586  10.201   2.745   4.119  1.3632  0.1564  1.5024
27710SOL    HW287587  10.263   2.883   4.107 -0.7177  0.9526 -1.1695
27711SOL     OW87588   1.471   8.071   6.430  0.4987  0.0460 -0.7464
27711SOL    HW187589   1.384   8.033   6.416  0.7500 -0.7058 -0.3582
27711SOL    HW287590   1.471   8.152   6.379 -0.9264  0.7949  0.3572
27712SOL     OW87591   5.776   5.422   2.277  0.0764 -0.1395 -0.0172
27712SOL    HW187592   5.822   5.411   2.194 -0.7456 -1.1140 -0.3545
27712SOL    HW287593   5.727   5.341   2.289  0.4637 -0.1768  1.6042
27713SOL     OW87594   2.171   3.654   0.577  0.5012 -0.0743  0.4239
27713SOL    HW187595   2.128   3.573   0.549  2.3044 -0.3549 -1.9279
27713SOL    HW287596   2.212   3.632   0.660 -0.1885 -1.1367  0.5012
27714SOL     OW87597   7.563   3.506   2.075  0.4866  0.2636  0.0540
27714SOL    HW187598   7.623   3.484   2.146 -0.5811  1.9901  1.5742
27714SOL    HW287599   7.499   3.434   2.076  0.7833 -0.0029  0.4889
27715SOL     OW87600   8.298   5.514  10.546  0.2522  0.3869  0.4950
27715SOL    HW187601   8.207   5.494  10.523  0.3658 -1.9132  1.7270
27715SOL    HW287602   8.300   5.509  10.641  1.5181  1.3016  0.5431
27716SOL     OW87603  10.423  10.254   4.215  0.1136  0.0599  0.0879
27716SOL    HW187604  10.445  10.207   4.135 -0.9787  1.8375 -1.3365
27716SOL    HW287605  10.505  10.296   4.242  0.5204 -0.6655  0.0067
27717SOL     OW87606   7.829   2.042   1.277 -0.2878 -0.7992 -0.5519
27717SOL    HW187607   7.739   2.037   1.310 -0.5846  2.7718 -0.4280
27717SOL    HW287608   7.822   2.086   1.193  1.2968 -1.3758 -1.0252
27718SOL     OW87609   6.943   3.000   1.714  0.4943  0.0191  0.2021
27718SOL    HW187610   7.004   3.071   1.692 -0.4570  0.8611  0.2074
27718SOL    HW287611   6.965   2.978   1.805 -0.5977  1.8311  0.9727
27719SOL     OW87612   5.735   1.894   1.897  0.0350  0.4485 -0.3995
27719SOL    HW187613   5.809   1.914   1.839 -0.0615  1.8542 -0.0868
27719SOL    HW287614   5.755   1.808   1.932  0.8740  0.2454 -1.3238
27720SOL     OW87615   1.361   9.211   7.602 -0.2414 -0.3431  0.0464
27720SOL    HW187616   1.307   9.134   7.620 -0.6194  0.1621  1.1362
27720SOL    HW287617   1.348   9.269   7.677  1.7679 -0.1652  0.3297
27721SOL     OW87618   3.663   4.950   8.221 -0.0863  0.3647 -0.6940
27721SOL    HW187619   3.755   4.934   8.242 -0.1742 -1.0890 -1.2456
27721SOL    HW287620   3.662   4.958   8.126 -0.6572 -0.8857 -0.8200
27722SOL     OW87621   9.956   5.729   6.843  0.2587  0.5513 -0.0478
27722SOL    HW187622  10.049   5.749   6.854  0.3000 -0.7367  2.5252
27722SOL    HW287623   9.953   5.673   6.765  1.8943 -0.7079  0.7356
27723SOL     OW87624   1.984   1.033   6.602  0.3015 -0.1001 -0.0803
27723SOL    HW187625   1.932   1.113   6.609 -0.7077 -0.7898  0.5538
27723SOL    HW287626   2.050   1.041   6.671  0.5065  0.4027 -0.3351
27724SOL     OW87627  10.867  10.656   8.854  0.4479  0.0691 -0.4288
27724SOL    HW187628  10.798  10.602   8.814 -0.5133  0.1763  0.9868
27724SOL    HW287629  10.819  10.723   8.903  1.6079  1.9216 -1.7046
27725SOL     OW87630   6.139   6.628   4.179  0.3436 -0.3241 -0.4350
27725SOL    HW187631   6.058   6.660   4.217 -0.8041 -3.0313 -0.3974
27725SOL    HW287632   6.130   6.642   4.085 -0.6404 -1.4644 -0.5334
27726SOL     OW87633   2.317  10.860   6.083  0.3173 -0.1136 -0.2899
27726SOL    HW187634   2.318  10.781   6.138 -0.5707  0.1748  0.1548
27726SOL    HW287635   2.226  10.867   6.053  0.9433 -0.8206 -2.6422
27727SOL     OW87636   5.533   3.942   9.190  0.6836 -0.0154  0.0074
27727SOL    HW187637   5.504   4.032   9.179 -0.8702 -0.5304 -0.3203
27727SOL    HW287638   5.464   3.889   9.149  0.7414 -1.4376  1.6233
27728SOL     OW87639   6.150   3.656   0.041  0.3492 -0.4239  0.1837
27728SOL    HW187640   6.242   3.671   0.060  0.4126 -2.6422  2.0770
27728SOL    HW287641   6.147   3.569   0.001 -0.7654  0.5544 -2.0986
27729SOL     OW87642   1.711   9.191   4.700  0.1786  0.0084 -0.1657
27729SOL    HW187643   1.650   9.152   4.638  2.2057 -0.0385 -2.2911
27729SOL    HW287644   1.796   9.155   4.674  1.0045 -1.3594  3.7653
27730SOL     OW87645   6.925   4.722   9.842  0.4735 -0.6122 -0.3689
27730SOL    HW187646   6.945   4.730   9.748  1.3056  1.2225 -0.0866
27730SOL    HW287647   6.915   4.812   9.872 -0.2939 -1.1925  1.2237
27731SOL     OW87648   7.212   6.444   2.053 -0.0353  0.0494 -0.7074
27731SOL    HW187649   7.238   6.510   1.990  0.5361  1.0882  0.5851
27731SOL    HW287650   7.225   6.361   2.008 -0.1770  0.7834 -2.1369
27732SOL     OW87651   9.101   9.786   4.270  0.4781 -0.8709 -0.0004
27732SOL    HW187652   9.032   9.827   4.219  0.9153 -1.0705 -0.7689
27732SOL    HW287653   9.081   9.808   4.361 -1.2844 -1.9551 -0.0943
27733SOL     OW87654  10.313   7.319   7.117 -0.0142 -0.1317 -0.1535
27733SOL    HW187655  10.400   7.306   7.155  0.0666  0.8556  0.0356
27733SOL    HW287656  10.294   7.411   7.134 -2.4207 -0.9962  2.5463
27734SOL     OW87657   6.117  10.750   2.014  0.4323 -0.0563  0.1209
27734SOL    HW187658   6.205  10.787   2.016  0.1077  0.7160  0.1815
27734SOL    HW287659   6.063  10.817   1.974 -0.1524 -0.4950  0.1563
27735SOL     OW87660   0.828   8.475   9.864 -0.3335 -0.2058 -0.2385
27735SOL    HW187661   0.868   8.466   9.777 -0.8305 -2.0450 -0.2997
27735SOL    HW287662   0.899   8.510   9.919  0.1004  0.5962 -1.2643
27736SOL     OW87663   8.569   8.407   1.613 -0.0563  0.1375 -0.5353
27736SOL    HW187664   8.621   8.438   1.687 -0.2406  0.8566 -0.7040
27736SOL    HW287665   8.634   8.373   1.551  0.2104  0.9323 -0.6975
27737SOL     OW87666   6.670   4.502   7.047 -0.5234  0.1929 -0.2026
27737SOL    HW187667   6.647   4.410   7.035 -0.1997  0.3051 -1.9848
27737SOL    HW287668   6.642   4.523   7.136 -2.6779 -1.0200 -0.5240
27738SOL     OW87669   8.742   5.444  10.563  0.1317  0.3038 -0.2465
27738SOL    HW187670   8.759   5.488  10.480 -1.4165  0.4562 -0.5094
27738SOL    HW287671   8.794   5.363  10.558  0.3269  0.4754 -1.2033
27739SOL     OW87672   8.872   8.030   0.898  0.2067 -0.1688 -0.4361
27739SOL    HW187673   8.921   7.954   0.930 -2.0571 -1.0023  1.3522
27739SOL    HW287674   8.782   7.998   0.890 -0.5694  1.9888 -0.9194
27740SOL     OW87675   6.873   6.923   5.497 -0.2342  0.0282  0.0159
27740SOL    HW187676   6.826   6.849   5.536 -0.2988 -0.3582 -0.7876
27740SOL    HW287677   6.810   6.961   5.435 -0.7505  1.6754  1.4620
27741SOL     OW87678   5.182   4.158   0.178  0.2268  0.0642  0.3485
27741SOL    HW187679   5.249   4.099   0.211  0.4227  0.2330  0.2557
27741SOL    HW287680   5.188   4.150   0.083  0.2466  0.2265  0.3363
27742SOL     OW87681   1.127   4.752   8.035  0.5357  0.3510  0.1397
27742SOL    HW187682   1.092   4.707   8.112  0.3988  1.3946  0.7107
27742SOL    HW287683   1.086   4.708   7.960 -0.0126 -0.1017  0.6961
27743SOL     OW87684  10.664   2.044   5.888 -0.2853 -0.0527  0.2996
27743SOL    HW187685  10.665   2.038   5.983  0.6129  0.5045  0.3346
27743SOL    HW287686  10.578   2.081   5.867 -1.1711 -1.7130  0.7672
27744SOL     OW87687   9.601   6.411  10.549 -0.3243  0.0357 -0.1386
27744SOL    HW187688   9.653   6.417  10.629 -1.5088  0.5995  0.6002
27744SOL    HW287689   9.597   6.317  10.531 -0.0665 -0.0978  0.4633
27745SOL     OW87690   4.723   9.595   3.782  0.1173 -0.2299  0.2732
27745SOL    HW187691   4.817   9.600   3.768  0.0407 -0.7420 -0.4665
27745SOL    HW287692   4.712   9.610   3.876  0.8689  0.5985  0.2408
27746SOL     OW87693   6.060  10.787   3.827  0.3116 -0.1690 -0.2046
27746SOL    HW187694   6.051  10.726   3.754 -2.0993  1.1425 -1.1306
27746SOL    HW287695   6.095  10.867   3.787  0.7826 -0.0388  0.4499
27747SOL     OW87696   3.709   6.171   1.607 -0.0717 -0.1707 -0.0298
27747SOL    HW187697   3.756   6.152   1.688 -0.1791 -1.6747 -0.2967
27747SOL    HW287698   3.677   6.086   1.577 -1.5679  0.5958 -0.7171
27748SOL     OW87699   1.409   8.356   8.167  0.1088  0.2831 -0.3123
27748SOL    HW187700   1.373   8.336   8.080  0.8597  0.6095 -0.7077
27748SOL    HW287701   1.502   8.334   8.160  0.3657  1.1998  0.1207
27749SOL     OW87702   8.317   6.449   7.968 -0.0414  0.2105  0.5019
27749SOL    HW187703   8.305   6.374   8.026 -0.5906  0.6110  0.9141
27749SOL    HW287704   8.232   6.492   7.966 -0.2163 -0.1665 -1.1483
27750SOL     OW87705   0.341   4.346   3.163 -0.6003  0.2211  0.0111
27750SOL    HW187706   0.311   4.261   3.131  0.0775  0.6610 -1.9189
27750SOL    HW287707   0.261   4.396   3.178 -0.9585 -0.1851 -0.5110
27751SOL     OW87708   5.432  10.180   1.813 -0.6771 -0.5115  0.0780
27751SOL    HW187709   5.468  10.265   1.837 -0.4132 -0.9359  1.2809
27751SOL    HW287710   5.506  10.120   1.817 -0.7002 -0.6765 -1.5411
27752SOL     OW87711   6.919   0.832   4.417 -0.4610  0.1663  0.3060
27752SOL    HW187712   6.876   0.827   4.332 -0.5271  2.0779  0.1641
27752SOL    HW287713   6.848   0.837   4.481 -0.4229 -0.0531  0.3655
27753SOL     OW87714  10.650   7.350   1.043  0.4371 -0.3325 -0.5324
27753SOL    HW187715  10.561   7.324   1.066  0.9796 -0.5953  1.4531
27753SOL    HW287716  10.675   7.414   1.110  2.0535 -0.9407 -0.4935
27754SOL     OW87717   9.262  10.561   6.630  0.0080 -0.3592  0.0675
27754SOL    HW187718   9.327  10.630   6.616  1.0895 -1.3551  0.0167
27754SOL    HW287719   9.219  10.585   6.711 -0.4412  0.9781 -0.5377
27755SOL     OW87720  10.469   8.432   8.595 -0.3982 -0.1553 -0.5290
27755SOL    HW187721  10.389   8.411   8.643  0.4484 -1.2714  0.4736
27755SOL    HW287722  10.526   8.357   8.610  0.1317 -0.3030 -2.8630
27756SOL     OW87723   6.742   3.613   4.958  0.0525 -0.1177 -0.4506
27756SOL    HW187724   6.707   3.695   4.992  0.7342 -0.9687  2.6691
27756SOL    HW287725   6.666   3.556   4.949 -0.2032  0.2779 -0.8046
27757SOL     OW87726   8.246   2.768   2.006 -0.0107 -0.4048  0.4303
27757SOL    HW187727   8.291   2.833   2.060  0.6442  1.2962 -1.9938
27757SOL    HW287728   8.313   2.703   1.985  0.3710  0.1879 -0.2200
27758SOL     OW87729   5.479   8.612   0.730  0.5894 -0.3786  0.7516
27758SOL    HW187730   5.403   8.669   0.740 -1.5562 -2.9697  0.1421
27758SOL    HW287731   5.541   8.665   0.680 -0.8055  1.7827  1.1491
27759SOL     OW87732   7.969   4.078   6.174 -0.2739 -0.0165 -0.1244
27759SOL    HW187733   8.042   4.130   6.141 -0.9340  0.5149 -0.7891
27759SOL    HW287734   7.997   4.050   6.261 -0.2380  2.2334  0.6734
27760SOL     OW87735   9.570   0.629  10.088 -0.0262 -0.0476 -0.3597
27760SOL    HW187736   9.556   0.562  10.154  1.8728 -1.8160 -1.6214
27760SOL    HW287737   9.636   0.687  10.125  0.3624 -0.5005 -0.3371
27761SOL     OW87738   2.236   5.498   6.667 -0.4012 -0.4262 -0.0070
27761SOL    HW187739   2.239   5.523   6.759 -0.7739 -1.7067  0.3735
27761SOL    HW287740   2.327   5.498   6.638  0.0456 -2.8230  1.1765
27762SOL     OW87741   4.842   6.444   5.595  0.2624  0.0642 -0.4598
27762SOL    HW187742   4.846   6.540   5.603 -0.0830  0.0516 -0.0911
27762SOL    HW287743   4.932   6.416   5.611  0.3153  0.3106 -0.3048
27763SOL     OW87744   6.471   9.576   3.063  0.1060 -0.0683  0.0214
27763SOL    HW187745   6.500   9.656   3.107 -0.2326 -0.0962  0.3001
27763SOL    HW287746   6.477   9.508   3.129  1.1255 -0.4310 -0.4327
27764SOL     OW87747   4.653   0.986   2.592  0.2094  0.0904  0.2089
27764SOL    HW187748   4.602   0.951   2.665  2.8173 -0.9503  1.6818
27764SOL    HW287749   4.672   1.076   2.617  1.1770 -0.2915  0.9346
27765SOL     OW87750   2.615  10.360   6.098 -0.5154 -0.0725 -0.3934
27765SOL    HW187751   2.548  10.399   6.042 -0.0052  1.3459 -0.0664
27765SOL    HW287752   2.673  10.314   6.038 -0.0758  1.2820 -1.0556
27766SOL     OW87753   4.931   0.867   9.089  0.0550  0.2281  0.4787
27766SOL    HW187754   4.979   0.838   9.011  0.9229 -0.3958  1.2132
27766SOL    HW287755   4.918   0.961   9.076  1.1393  0.3393  0.0573
27767SOL     OW87756   3.669   1.760  10.091  0.1098 -0.3357  0.0572
27767SOL    HW187757   3.741   1.816  10.060  1.9804 -2.3320  0.5987
27767SOL    HW287758   3.618   1.742  10.012 -1.5908  3.3943  0.1092
27768SOL     OW87759   7.358   0.555  10.768 -0.1557  0.1614 -0.8149
27768SOL    HW187760   7.426   0.617  10.793 -0.1565 -0.7464  1.6524
27768SOL    HW287761   7.364   0.485  10.833 -2.1975 -0.8833 -1.6726
27769SOL     OW87762   9.922   5.690   3.241 -0.8615 -0.9808 -0.0741
27769SOL    HW187763   9.938   5.651   3.155  1.4367 -1.3453  0.4589
27769SOL    HW287764   9.899   5.781   3.222  1.9938 -0.3813 -1.0405
27770SOL     OW87765   5.770   5.608   5.665 -0.2231 -0.1093 -0.6318
27770SOL    HW187766   5.806   5.559   5.591 -2.2450 -1.1338 -1.0153
27770SOL    HW287767   5.818   5.574   5.741  0.4874 -0.5048 -1.2384
27771SOL     OW87768   2.485   2.732   5.587  0.4476 -0.0323 -0.4189
27771SOL    HW187769   2.533   2.745   5.668  0.7932  1.1682 -0.7975
27771SOL    HW287770   2.393   2.746   5.611  0.2538 -2.0816  0.2498
27772SOL     OW87771  10.562   0.265   0.199  0.0593 -0.4559  0.0538
27772SOL    HW187772  10.522   0.345   0.233 -1.4707 -1.3724  0.5161
27772SOL    HW287773  10.656   0.285   0.195 -0.1930  1.0818  0.9024
27773SOL     OW87774   7.287   0.538   6.822  0.0737 -0.3971  0.1082
27773SOL    HW187775   7.316   0.471   6.760 -0.7304  2.1064 -3.2234
27773SOL    HW287776   7.195   0.517   6.839 -1.0295  1.1862 -3.1327
27774SOL     OW87777   2.705   0.888   6.024  0.1982  0.1066  0.0235
27774SOL    HW187778   2.678   0.868   6.114  2.0881 -1.0742  0.3723
27774SOL    HW287779   2.624   0.889   5.974 -0.8186  0.0856  1.6105
27775SOL     OW87780   7.081  10.418   1.272 -0.2586  0.2211 -0.0816
27775SOL    HW187781   7.062  10.495   1.325  0.5640 -0.1614  0.8115
27775SOL    HW287782   6.997  10.391   1.236 -0.9919  0.0723  1.6431
27776SOL     OW87783   6.673   5.005   2.733  0.2293 -0.3738 -0.2146
27776SOL    HW187784   6.693   4.919   2.770 -0.8228 -0.6204 -0.1761
27776SOL    HW287785   6.731   5.065   2.779  3.9557 -1.4687 -3.0413
27777SOL     OW87786   4.527   8.469   1.864  0.0283 -0.3853 -0.4883
27777SOL    HW187787   4.500   8.384   1.901 -0.9290  0.3974  0.6855
27777SOL    HW287788   4.622   8.461   1.853 -0.2078 -2.1423 -1.8629
27778SOL     OW87789   3.539   0.180   1.615 -0.1573  0.1015 -0.7536
27778SOL    HW187790   3.625   0.213   1.588  0.1543  0.4003  0.5503
27778SOL    HW287791   3.550   0.154   1.706 -1.4605  0.1670 -0.5498
27779SOL     OW87792   8.269   5.053  10.404  0.4225  0.0556 -0.1116
27779SOL    HW187793   8.207   5.027  10.472  1.8627 -1.1181  0.8261
27779SOL    HW287794   8.332   5.109  10.450 -0.4073  2.0421 -1.2553
27780SOL     OW87795   4.902   1.604   3.969  0.0105 -0.0562 -0.0833
27780SOL    HW187796   4.950   1.564   4.041  2.1590 -0.2687 -1.5346
27780SOL    HW287797   4.941   1.566   3.890 -1.9046  0.5337 -1.3953
27781SOL     OW87798   8.283   5.584   5.982  0.6555  0.3149  0.6202
27781SOL    HW187799   8.328   5.579   6.067  1.0437 -0.5702  0.3785
27781SOL    HW287800   8.213   5.520   5.989  1.7769 -1.0839 -0.3326
27782SOL     OW87801   4.434   7.598   9.786  0.4205 -0.2597 -0.0701
27782SOL    HW187802   4.402   7.669   9.841  1.7647  0.1431  0.2408
27782SOL    HW287803   4.362   7.535   9.782 -1.1101  1.4715 -1.0248
27783SOL     OW87804   8.157   6.365  10.195 -0.3424  0.2901 -0.5442
27783SOL    HW187805   8.135   6.277  10.165  1.7415 -0.5053  0.0943
27783SOL    HW287806   8.073   6.403  10.222 -1.2249 -1.6590 -0.3898
27784SOL     OW87807   7.343   5.395   1.361  0.2748 -0.3318 -0.7586
27784SOL    HW187808   7.392   5.477   1.349 -1.7545  0.9833 -0.5968
27784SOL    HW287809   7.301   5.379   1.276 -0.6752 -0.2411 -0.3260
27785SOL     OW87810   0.809   0.478   7.850  0.2334 -0.1644  0.0691
27785SOL    HW187811   0.896   0.468   7.812  0.4612  2.3039 -0.2469
27785SOL    HW287812   0.782   0.567   7.825 -1.6546 -0.2323  1.5977
27786SOL     OW87813   6.363   0.376   9.427  0.0672 -0.0588 -0.3784
27786SOL    HW187814   6.413   0.452   9.397  1.0842 -0.1906  0.9211
27786SOL    HW287815   6.415   0.338   9.497 -0.1004 -2.3781 -1.4158
27787SOL     OW87816   1.794   2.332   7.121  0.3053  0.1793 -0.2635
27787SOL    HW187817   1.791   2.406   7.061 -1.0719  0.7524  0.4600
27787SOL    HW287818   1.764   2.257   7.069  0.1728  0.4545 -0.5875
27788SOL     OW87819   2.463   2.659   5.276 -0.1737  0.2369 -0.0865
27788SOL    HW187820   2.423   2.687   5.358 -2.6634 -2.9078  0.0009
27788SOL    HW287821   2.555   2.645   5.297 -0.6919 -0.1633  2.1078
27789SOL     OW87822   4.974   1.293   3.843  0.6126 -0.0714  0.1150
27789SOL    HW187823   4.993   1.367   3.785  0.1919  0.6505  0.8725
27789SOL    HW287824   4.938   1.226   3.786  1.0279  0.2975 -0.5902
27790SOL     OW87825   3.710   3.879   9.229  0.0106 -0.4527 -0.2930
27790SOL    HW187826   3.649   3.868   9.156  0.1025 -1.1382 -0.2771
27790SOL    HW287827   3.732   3.789   9.255  1.8218 -0.2448 -0.9697
27791SOL     OW87828   0.140   3.450   7.089  0.2394 -0.2318  0.2257
27791SOL    HW187829   0.233   3.427   7.082 -0.0576 -1.4967  0.1369
27791SOL    HW287830   0.118   3.430   7.180  0.1147  0.3276  0.3201
27792SOL     OW87831   5.322   2.302   3.580  0.3100 -0.0635 -0.0908
27792SOL    HW187832   5.369   2.282   3.661  0.0898  1.3511  0.4288
27792SOL    HW287833   5.244   2.351   3.609 -1.0508 -1.5891 -0.9975
27793SOL     OW87834   8.205   2.036   1.039  0.3066 -0.0195  0.1799
27793SOL    HW187835   8.111   2.045   1.051  0.2048 -1.1098  0.2731
27793SOL    HW287836   8.244   2.082   1.114 -0.1254  0.7630 -0.0600
27794SOL     OW87837   0.304   2.824  10.816  0.1801  0.3756  0.8504
27794SOL    HW187838   0.345   2.896  10.864 -1.6495  0.7686  1.9311
27794SOL    HW287839   0.243   2.867  10.756 -0.5614 -0.2300  1.1461
27795SOL     OW87840   0.739   0.071   2.797  0.1906 -0.8144  0.1933
27795SOL    HW187841   0.660   0.038   2.754  0.9876 -2.9231  0.2526
27795SOL    HW287842   0.738   0.033   2.884  0.5846  0.2773  0.6972
27796SOL     OW87843   8.271   7.951   1.321 -0.7765 -0.3775  0.2211
27796SOL    HW187844   8.205   8.014   1.292  0.1437  0.6021  0.2103
27796SOL    HW287845   8.251   7.871   1.272 -0.5419  0.6072 -1.5479
27797SOL     OW87846  10.996   3.389   1.606 -0.4034  0.3101 -0.1484
27797SOL    HW187847  10.963   3.362   1.692 -1.6149 -0.7509 -0.9130
27797SOL    HW287848  11.090   3.369   1.610 -0.8042 -1.8379  0.2163
27798SOL     OW87849   2.217   5.198   4.743  0.0527 -0.1785  0.5258
27798SOL    HW187850   2.155   5.132   4.710 -1.4855  0.4436  2.0487
27798SOL    HW287851   2.293   5.147   4.770  0.1529 -0.9926 -1.1428
27799SOL     OW87852   7.037   7.373   8.642  0.1682 -0.5210 -0.0001
27799SOL    HW187853   6.990   7.447   8.681  1.4326  1.1250 -1.4437
27799SOL    HW287854   7.090   7.339   8.713  0.9888  1.2103  0.2829
27800SOL     OW87855   3.329   0.185   5.462 -0.2576  0.4191  0.0879
27800SOL    HW187856   3.391   0.132   5.411  0.5868  1.2922  0.1706
27800SOL    HW287857   3.318   0.137   5.543  0.5347  0.3705  0.1787
27801SOL     OW87858   5.101   3.096   6.136  0.0109  0.2087  0.2735
27801SOL    HW187859   5.090   3.001   6.146 -1.1956  0.1733 -0.9864
27801SOL    HW287860   5.100   3.130   6.225 -0.4863 -0.8845  0.7054
27802SOL     OW87861   8.676  10.292   5.369 -0.0120  0.0736  0.0742
27802SOL    HW187862   8.701  10.370   5.417  1.7334 -0.6083  0.3483
27802SOL    HW287863   8.742  10.284   5.300 -1.0620 -0.3170 -0.9198
27803SOL     OW87864   8.582   6.941   1.598  0.0769  0.0188  0.1695
27803SOL    HW187865   8.593   6.853   1.562  2.0610  0.4511 -0.4440
27803SOL    HW287866   8.491   6.964   1.579 -0.3525 -1.7040 -0.0555
27804SOL     OW87867   3.987   0.142   0.663 -0.3540 -0.2970  0.2024
27804SOL    HW187868   3.909   0.093   0.639 -1.5522  0.7328  1.7575
27804SOL    HW287869   3.974   0.229   0.625  1.6480 -0.9903 -2.3459
27805SOL     OW87870   2.799   4.316   2.450 -0.5560  0.2348  0.5556
27805SOL    HW187871   2.779   4.348   2.362 -1.6635  0.6222  0.9372
27805SOL    HW287872   2.714   4.298   2.489 -0.1368  0.9635  1.8799
27806SOL     OW87873  10.118   9.874   0.177 -0.0340  0.2861  0.0795
27806SOL    HW187874  10.059   9.883   0.252  0.5946  0.5073  0.5582
27806SOL    HW287875  10.063   9.836   0.108 -0.3639 -0.9414  0.9808
27807SOL     OW87876   5.106   5.429   2.200 -0.9158 -0.0633 -0.5536
27807SOL    HW187877   5.195   5.451   2.174 -0.4446 -1.8953 -0.6680
27807SOL    HW287878   5.056   5.425   2.118 -0.9198  0.2262 -0.5645
27808SOL     OW87879   6.581   3.835  10.199  0.4921  0.3517 -0.2713
27808SOL    HW187880   6.567   3.875  10.285 -0.1680  1.5194 -0.9028
27808SOL    HW287881   6.494   3.830  10.161  1.0463  2.5569 -2.0322
27809SOL     OW87882   4.710   2.907   3.572 -0.2992  0.5617  0.2942
27809SOL    HW187883   4.758   2.980   3.533  2.3414 -1.4254 -0.4445
27809SOL    HW287884   4.734   2.831   3.519 -0.0426 -1.5024  3.1771
27810SOL     OW87885   2.380   4.834   8.217  0.3486  0.5684 -0.4167
27810SOL    HW187886   2.425   4.852   8.299  0.1931  1.1376 -0.4540
27810SOL    HW287887   2.424   4.756   8.182  0.9002  0.7581 -0.1578
27811SOL     OW87888   4.584   4.504   0.567  0.3921 -0.9046 -0.5884
27811SOL    HW187889   4.622   4.439   0.625 -1.1884 -1.0003  0.3865
27811SOL    HW287890   4.578   4.584   0.620  0.3411 -0.5670 -1.0942
27812SOL     OW87891   0.606  10.588   7.366  0.1398 -0.3141 -0.3178
27812SOL    HW187892   0.542  10.594   7.437 -0.4677 -0.8777 -0.8024
27812SOL    HW287893   0.652  10.672   7.368 -0.7479  0.1783 -0.0779
27813SOL     OW87894   5.800   7.687   4.439  0.3404  0.7197 -0.5705
27813SOL    HW187895   5.736   7.674   4.509  0.5627 -0.1619 -0.5204
27813SOL    HW287896   5.884   7.666   4.480  0.5565  0.9231 -0.9013
27814SOL     OW87897   9.497   9.009   5.564  0.0998  0.6448  0.2883
27814SOL    HW187898   9.419   8.953   5.564  1.3979 -1.4251 -2.6636
27814SOL    HW287899   9.561   8.962   5.510  2.4869  3.4834  0.3568
27815SOL     OW87900   4.080   0.758   3.903  0.2000 -0.1483 -0.1599
27815SOL    HW187901   4.039   0.687   3.952  1.5005 -0.7525  0.0896
27815SOL    HW287902   4.050   0.838   3.948 -1.6524 -0.4609 -0.7349
27816SOL     OW87903   6.315   8.375  10.029 -0.5726 -0.7260  0.1173
27816SOL    HW187904   6.260   8.415  10.097 -0.9898 -1.5375  0.2685
27816SOL    HW287905   6.364   8.449   9.991 -4.0220  0.6416 -2.2127
27817SOL     OW87906   6.784   8.049   4.390  0.0250 -0.8197 -0.2739
27817SOL    HW187907   6.702   8.065   4.344 -0.0684  0.5534  0.3216
27817SOL    HW287908   6.852   8.065   4.324 -0.1549 -0.5278 -0.3922
27818SOL     OW87909   8.143   7.829   2.044 -0.3686  0.4034  0.1220
27818SOL    HW187910   8.167   7.820   1.951  0.4632  0.5317  0.3101
27818SOL    HW287911   8.189   7.908   2.072 -0.0207 -0.0370  0.8180
27819SOL     OW87912   7.296   0.860   0.011 -0.2730 -0.1801  0.1955
27819SOL    HW187913   7.219   0.808   0.034 -0.0828  0.5560  2.8836
27819SOL    HW287914   7.363   0.796  -0.011 -1.4806 -0.8383 -1.8147
27820SOL     OW87915   4.194   8.960   2.951 -0.2362  0.2369  0.6548
27820SOL    HW187916   4.191   8.886   2.890  1.5170  0.2951  0.4579
27820SOL    HW287917   4.125   9.019   2.921 -0.1806 -0.2918 -0.5554
27821SOL     OW87918   3.056   9.761   8.551  0.5603  0.4959  0.2970
27821SOL    HW187919   2.993   9.726   8.488  0.4654  0.1717  0.5630
27821SOL    HW287920   3.064   9.854   8.530  1.1963  0.2165 -0.7538
27822SOL     OW87921   2.141  10.793   5.829  0.4401 -0.2513  0.4466
27822SOL    HW187922   2.073  10.860   5.821  1.4573  0.6917 -0.7178
27822SOL    HW287923   2.093  10.711   5.835 -0.8268  0.5051  1.2028
27823SOL     OW87924   3.240   4.120   3.461  0.0427  0.4008 -0.0170
27823SOL    HW187925   3.241   4.037   3.413  0.0494  0.1237  0.4611
27823SOL    HW287926   3.262   4.097   3.551 -0.0497  0.9085  0.1424
27824SOL     OW87927   5.765   1.661   6.495  0.2452  0.0349 -0.5009
27824SOL    HW187928   5.848   1.660   6.446  2.2354 -0.3236  2.6244
27824SOL    HW287929   5.750   1.569   6.517 -0.3830  0.2387 -0.0600
27825SOL     OW87930   4.412   9.002   6.602  0.3787  0.0883  0.4741
27825SOL    HW187931   4.333   9.046   6.634  0.1119 -0.6822  0.9155
27825SOL    HW287932   4.400   8.997   6.507 -0.2024 -0.1843  0.5562
27826SOL     OW87933   0.062   5.374   1.742  0.1835  0.1736 -0.3272
27826SOL    HW187934   0.109   5.413   1.815 -0.4033  0.4620 -0.0929
27826SOL    HW287935   0.050   5.445   1.679 -0.4878  0.2740 -0.1004
27827SOL     OW87936   7.477   5.514   0.512 -0.0654  0.5597  0.5291
27827SOL    HW187937   7.558   5.514   0.563  0.7027  0.2185 -0.6595
27827SOL    HW287938   7.462   5.422   0.490 -0.6703  0.6436  0.5668
27828SOL     OW87939   9.641   6.565  10.159  0.0081  0.0545  0.1888
27828SOL    HW187940   9.578   6.540  10.226  1.2095 -0.0988  1.2983
27828SOL    HW287941   9.699   6.489  10.150  1.3057  0.9340  0.7448
27829SOL     OW87942   2.815   1.700   6.006  0.0683  0.2549 -0.0912
27829SOL    HW187943   2.879   1.641   6.045  2.8645  3.6056  0.9322
27829SOL    HW287944   2.755   1.721   6.078 -1.2633 -1.5648 -0.5959
27830SOL     OW87945   9.102   8.731   2.167 -0.3489 -0.1759  0.0715
27830SOL    HW187946   9.007   8.727   2.161 -0.3833 -3.0834  1.2104
27830SOL    HW287947   9.134   8.660   2.112  1.0710 -0.3938  1.1124
27831SOL     OW87948   7.710   6.132  10.650 -0.0403  0.0635 -0.3035
27831SOL    HW187949   7.741   6.219  10.627 -1.0306  0.3650 -0.5278
27831SOL    HW287950   7.767   6.105  10.722 -0.7375  1.5612  0.8573
27832SOL     OW87951   8.575   8.409   2.068  0.0566  0.2987  0.1594
27832SOL    HW187952   8.540   8.460   2.141 -0.9177 -0.5520  0.3165
27832SOL    HW287953   8.610   8.330   2.109  1.0636  0.5748 -0.1377
27833SOL     OW87954   1.938   2.100   0.868 -0.4424  0.5053  0.0207
27833SOL    HW187955   1.878   2.165   0.831 -2.2377 -1.3049 -0.3865
27833SOL    HW287956   1.882   2.026   0.892  1.6088 -1.2332 -0.2523
27834SOL     OW87957   9.396   0.036   8.761  0.3855 -0.3282 -0.4994
27834SOL    HW187958   9.328   0.013   8.825 -0.0672 -0.4495 -1.0100
27834SOL    HW287959   9.375   0.125   8.735  1.3623  0.2204  0.5017
27835SOL     OW87960   1.135   4.100   7.014 -0.5307  0.3378  0.1370
27835SOL    HW187961   1.208   4.161   7.021 -1.4388  1.4783 -0.0047
27835SOL    HW287962   1.154   4.032   7.079 -0.4869  1.8368  1.7648
27836SOL     OW87963   9.604   1.860   4.878 -0.3133  0.3801 -0.3877
27836SOL    HW187964   9.525   1.909   4.855  0.1273  2.2032  1.6616
27836SOL    HW287965   9.673   1.902   4.827 -0.1877  0.9471  0.2256
27837SOL     OW87966  10.441   6.038   6.931 -0.1952  0.1817  0.7139
27837SOL    HW187967  10.447   5.943   6.933  0.8805  0.2339  3.1967
27837SOL    HW287968  10.351   6.057   6.959 -0.1971 -0.0865  0.8899
27838SOL     OW87969   5.293   8.123   1.144 -0.1236 -0.5435 -0.1262
27838SOL    HW187970   5.307   8.028   1.137  0.5038 -0.4602 -0.1164
27838SOL    HW287971   5.291   8.153   1.054  2.4070 -0.2182 -0.1495
27839SOL     OW87972   9.862   2.977   2.899  0.4423 -0.1564 -0.1101
27839SOL    HW187973   9.880   2.912   2.831  1.8905  0.6902 -0.5894
27839SOL    HW287974   9.819   3.049   2.852 -1.6909 -0.9649  0.5190
27840SOL     OW87975  10.048   5.818   6.475 -0.3946 -0.0057  0.6843
27840SOL    HW187976   9.991   5.827   6.552 -1.0181 -1.7452  0.4749
27840SOL    HW287977  10.133   5.792   6.512  0.3222  2.5657  0.9948
27841SOL     OW87978   6.471   7.236  10.158  0.2022  0.0064 -0.4638
27841SOL    HW187979   6.427   7.279  10.085  1.1120  0.2555 -0.8807
27841SOL    HW287980   6.564   7.254  10.144  0.6188 -2.0535 -0.6165
27842SOL     OW87981   6.196   1.101   7.578  0.4337 -0.0329  0.3234
27842SOL    HW187982   6.288   1.124   7.566  0.5814 -0.1264  1.1925
27842SOL    HW287983   6.177   1.038   7.509  0.8230  0.5182 -0.2989
27843SOL     OW87984   5.428   4.766   2.541  0.6328  0.2641 -0.6155
27843SOL    HW187985   5.493   4.835   2.558  1.0891 -0.4451  0.6493
27843SOL    HW287986   5.380   4.797   2.464  4.1193 -0.3398 -3.3026
27844SOL     OW87987  10.236   5.133   9.070 -0.6541 -0.9104  0.2303
27844SOL    HW187988  10.143   5.144   9.050 -0.5119  0.0981  0.0501
27844SOL    HW287989  10.243   5.158   9.162 -0.3692  0.3525 -0.1078
27845SOL     OW87990   8.278   0.974   4.766  0.2105 -0.1741 -0.0525
27845SOL    HW187991   8.241   0.919   4.836  1.5468 -1.0286  0.0098
27845SOL    HW287992   8.296   0.913   4.695  2.1150  0.0926  0.1668
27846SOL     OW87993   6.306   2.672   6.895 -0.5519 -0.1169  0.1685
27846SOL    HW187994   6.397   2.642   6.893 -0.6831 -0.4865 -0.9963
27846SOL    HW287995   6.256   2.600   6.857 -1.4781 -0.3368  1.7503
27847SOL     OW87996   5.703   3.746  10.657 -0.4660  0.6097 -0.6510
27847SOL    HW187997   5.768   3.788  10.713  0.3049 -0.7032 -0.5287
27847SOL    HW287998   5.621   3.791  10.677  0.8676  4.6641 -3.2012
27848SOL     OW87999   8.403   1.314   3.514 -0.3234  0.3297  0.4898
27848SOL    HW188000   8.494   1.340   3.528  0.2740 -0.5218 -1.5085
27848SOL    HW288001   8.378   1.356   3.432 -0.9805 -1.2585 -0.1645
27849SOL     OW88002   2.280  10.062   2.608 -0.1003  0.1330 -0.0598
27849SOL    HW188003   2.273  10.051   2.703 -0.8308 -2.3573 -0.3267
27849SOL    HW288004   2.218   9.999   2.572  1.4379 -0.2743 -2.2229
27850SOL     OW88005  10.185   8.227   5.100  0.8777  0.3987 -0.3275
27850SOL    HW188006  10.204   8.139   5.067  1.6058  0.2455  0.4653
27850SOL    HW288007  10.163   8.214   5.192 -3.5011  0.5356 -1.1326
27851SOL     OW88008   1.220   3.186   7.651 -0.3544  0.4774  0.0489
27851SOL    HW188009   1.264   3.182   7.736 -1.0195  0.1550  0.3901
27851SOL    HW288010   1.290   3.203   7.588 -0.0602  2.5133  0.8406
27852SOL     OW88011  10.321   1.474   6.935  0.0667 -0.0115  0.1592
27852SOL    HW188012  10.335   1.559   6.978  0.8972 -0.4321  0.7602
27852SOL    HW288013  10.251   1.490   6.872 -0.6929  0.8152  1.1683
27853SOL     OW88014   1.563   4.174   4.025  0.3083  0.5199 -0.5241
27853SOL    HW188015   1.486   4.135   4.065 -0.5174  2.0528 -0.5675
27853SOL    HW288016   1.590   4.111   3.958  0.0828 -0.7859  0.5911
27854SOL     OW88017   1.222   9.389   1.778 -0.3149  0.1739 -0.3643
27854SOL    HW188018   1.309   9.421   1.757  0.3091 -2.1909 -1.6813
27854SOL    HW288019   1.191   9.448   1.846  2.8983  0.2472  1.2239
27855SOL     OW88020   5.455   1.209   3.469  0.2485 -0.6519  0.3753
27855SOL    HW188021   5.399   1.244   3.399 -2.9634 -1.0186  2.5337
27855SOL    HW288022   5.483   1.286   3.518  0.9107 -0.5332 -0.1739
27856SOL     OW88023  10.747   9.710   4.748 -0.2212 -0.5399 -0.3712
27856SOL    HW188024  10.811   9.675   4.810  0.8244  0.7174 -0.6965
27856SOL    HW288025  10.679   9.643   4.743 -0.6876 -0.4067  2.6377
27857SOL     OW88026   8.484   8.469   5.087  0.3211 -0.6128  0.7997
27857SOL    HW188027   8.448   8.430   5.007 -0.8874  0.9422  0.5296
27857SOL    HW288028   8.574   8.438   5.091  0.5422 -0.4185 -1.4052
27858SOL     OW88029   4.933   3.744   7.289 -0.5037  0.3242 -0.6217
27858SOL    HW188030   4.998   3.691   7.244 -0.5807 -0.3385  0.0353
27858SOL    HW288031   4.879   3.780   7.218 -0.9423 -1.1086 -1.0588
27859SOL     OW88032   0.282   9.770   3.086 -0.2730  0.2981 -0.3409
27859SOL    HW188033   0.213   9.823   3.124 -0.4148  0.0947 -0.3100
27859SOL    HW288034   0.254   9.755   2.995 -0.0662  0.5617 -0.4479
27860SOL     OW88035   9.010   3.034   9.532  0.2646  0.3312 -0.0473
27860SOL    HW188036   8.947   3.102   9.555 -0.4891 -0.9492  1.9036
27860SOL    HW288037   8.973   2.954   9.569  3.1519 -0.4229  1.4567
27861SOL     OW88038   2.954   9.412  10.864  0.2792 -0.2571 -0.5980
27861SOL    HW188039   2.992   9.490  10.825 -0.2545  0.8385  0.9766
27861SOL    HW288040   2.916   9.364  10.790  2.2951 -0.0246 -1.8378
27862SOL     OW88041   6.417   2.811  10.200 -0.9639  0.5180 -0.1991
27862SOL    HW188042   6.370   2.753  10.140 -0.3576  0.8536 -1.0098
27862SOL    HW288043   6.491   2.758  10.231 -0.6223  0.7222 -0.6513
27863SOL     OW88044   0.614   1.679   4.547 -0.1015 -0.6388  0.3142
27863SOL    HW188045   0.572   1.754   4.589  3.4869  0.4443  2.3811
27863SOL    HW288046   0.590   1.604   4.602 -1.5245 -0.5761 -0.1912
27864SOL     OW88047   2.445   3.522   8.356 -0.2878 -0.0958  0.2168
27864SOL    HW188048   2.462   3.522   8.261 -0.0511  0.1953  0.2560
27864SOL    HW288049   2.382   3.593   8.369 -1.4825 -1.1010  0.0888
27865SOL     OW88050   7.712  10.488  11.016 -0.3521 -0.4606 -0.1775
27865SOL    HW188051   7.784  10.551  11.023 -1.0860  0.5493 -1.2138
27865SOL    HW288052   7.657  10.506  11.092  0.7364 -1.6040  0.9123
27866SOL     OW88053   9.779   1.266   3.473  0.2125  0.4745 -0.3196
27866SOL    HW188054   9.870   1.294   3.478 -0.0907  1.6198 -1.0138
27866SOL    HW288055   9.730   1.335   3.518 -0.2612 -0.5021  0.7162
27867SOL     OW88056   0.127  10.541   9.162  0.1143 -0.2464 -0.3769
27867SOL    HW188057   0.089  10.496   9.087 -0.4954 -2.0407  0.9253
27867SOL    HW288058   0.067  10.613   9.180 -0.9382 -1.1131 -0.3079
27868SOL     OW88059   1.136   8.733   2.968 -0.0773 -0.5960  0.2687
27868SOL    HW188060   1.198   8.798   2.935 -1.1531 -0.3589 -1.4158
27868SOL    HW288061   1.080   8.782   3.028  0.3930 -0.4487  0.5861
27869SOL     OW88062   3.681   9.296   8.359  0.1199 -0.2141  0.2295
27869SOL    HW188063   3.736   9.341   8.423  1.8475 -1.8394 -0.0325
27869SOL    HW288064   3.606   9.265   8.409  0.9809 -0.6286  1.2960
27870SOL     OW88065   8.641   8.754   7.556  0.2345 -0.3691 -0.3163
27870SOL    HW188066   8.671   8.718   7.639 -1.4829 -0.6209  0.2329
27870SOL    HW288067   8.624   8.678   7.501 -1.2366 -0.3594  0.0745
27871SOL     OW88068   6.293   1.237   1.763 -0.2211 -0.3900  0.4407
27871SOL    HW188069   6.332   1.297   1.827  1.1339  0.5951 -1.2216
27871SOL    HW288070   6.367   1.198   1.717 -1.1429 -0.9323 -0.6524
27872SOL     OW88071   8.234  10.506   0.177  0.3036  0.0379  0.2824
27872SOL    HW188072   8.269  10.528   0.264 -1.2512 -0.0856  0.9770
27872SOL    HW288073   8.178  10.580   0.154  2.4378  1.1330 -1.6798
27873SOL     OW88074   9.793   5.629   1.111 -0.6709 -0.1546 -0.2177
27873SOL    HW188075   9.719   5.678   1.075 -1.1762 -0.5017  0.3290
27873SOL    HW288076   9.755   5.546   1.140 -0.6185  0.6578  2.4743
27874SOL     OW88077   6.232   7.659   5.601  0.4075  0.4293 -0.6028
27874SOL    HW188078   6.216   7.569   5.573  0.0352  0.0978  0.6135
27874SOL    HW288079   6.265   7.703   5.523 -0.0853 -0.5804 -1.4030
27875SOL     OW88080   4.191   2.647   8.038  0.1125 -0.7579  0.5462
27875SOL    HW188081   4.134   2.596   7.981 -0.2570 -0.0121  0.2439
27875SOL    HW288082   4.157   2.630   8.126 -1.3263  0.5608  0.2974
27876SOL     OW88083   0.500  11.027  10.908  0.2827  0.3679 -0.1603
27876SOL    HW188084   0.525  10.981  10.988 -1.7609  1.2326  1.0817
27876SOL    HW288085   0.533  11.116  10.921  0.2635  0.4213 -0.4670
27877SOL     OW88086   3.505   3.491   7.515  0.2181  0.1656  0.6266
27877SOL    HW188087   3.564   3.422   7.484 -0.0663  0.1455  0.1214
27877SOL    HW288088   3.524   3.565   7.457 -1.8916 -0.5471 -1.1440
27878SOL     OW88089   3.229   6.581   1.305 -0.0977 -0.2206  0.0971
27878SOL    HW188090   3.187   6.599   1.221 -1.7888 -2.1235  0.4417
27878SOL    HW288091   3.322   6.570   1.284 -0.4072 -0.1096 -1.4290
27879SOL     OW88092   9.780   9.937   1.918 -0.4363 -0.0710  0.5333
27879SOL    HW188093   9.863   9.920   1.962  2.0096 -0.0185 -3.5126
27879SOL    HW288094   9.748   9.851   1.891 -0.2863  0.0647 -0.1130
27880SOL     OW88095   7.382   3.555  10.478 -0.3855  0.1238 -0.0041
27880SOL    HW188096   7.469   3.575  10.512 -0.8581 -0.0091  1.3270
27880SOL    HW288097   7.377   3.459  10.482 -0.8491  0.1678  0.6111
27881SOL     OW88098  10.361   8.215   7.049 -0.3814  0.3657 -0.1302
27881SOL    HW188099  10.451   8.182   7.050 -0.6101 -0.2710 -0.1076
27881SOL    HW288100  10.337   8.222   7.141 -0.1034  1.2453 -0.1195
27882SOL     OW88101   2.237   9.664   1.985  0.7264  0.4258  0.2097
27882SOL    HW188102   2.191   9.639   1.905 -1.0288  0.7489  1.0769
27882SOL    HW288103   2.245   9.583   2.035 -0.1824  0.6024  0.6657
27883SOL     OW88104   7.628   5.219   5.610 -0.0641  0.2317 -0.4671
27883SOL    HW188105   7.659   5.129   5.623 -1.2128 -0.0044  0.8444
27883SOL    HW288106   7.697   5.274   5.648 -0.7956 -0.2544  1.7262
27884SOL     OW88107   1.996   3.717   8.892 -0.2419  0.0319  0.5815
27884SOL    HW188108   1.907   3.722   8.860 -0.6151  1.6248  1.7403
27884SOL    HW288109   2.051   3.724   8.814 -1.1125  3.2022  0.1539
27885SOL     OW88110   6.783  10.427   0.106  0.2736 -0.5438 -0.0302
27885SOL    HW188111   6.784  10.436   0.011  1.4765  0.4149  0.0501
27885SOL    HW288112   6.854  10.365   0.125  1.6536  1.0537  0.3487
27886SOL     OW88113   3.754   4.348   9.748  0.3559  0.1234 -0.1004
27886SOL    HW188114   3.804   4.306   9.678 -0.1048  0.1337 -0.4382
27886SOL    HW288115   3.663   4.326   9.729  0.2255  0.1481  0.4825
27887SOL     OW88116   1.240   4.738   3.327  0.7106 -0.0243  0.5014
27887SOL    HW188117   1.246   4.735   3.232  0.0257 -0.4757  0.4666
27887SOL    HW288118   1.287   4.817   3.352 -1.7047  1.7957 -0.4111
27888SOL     OW88119   1.570   6.048   3.131  0.1206  0.3303  0.0570
27888SOL    HW188120   1.510   6.050   3.056 -2.0363  1.7801  1.6937
27888SOL    HW288121   1.542   5.972   3.182  1.2712 -0.3775 -0.3351
27889SOL     OW88122   3.555  10.567  10.780  0.2811  0.5566  1.1859
27889SOL    HW188123   3.483  10.528  10.829  0.7639  0.7461  2.0737
27889SOL    HW288124   3.532  10.660  10.773 -1.5840 -0.0238 -2.1933
27890SOL     OW88125   9.533   2.871   9.821  0.4002  0.3008 -0.0617
27890SOL    HW188126   9.541   2.940   9.887 -1.3513  0.0241  0.4822
27890SOL    HW288127   9.521   2.917   9.738  1.5661  0.6396 -0.0641
27891SOL     OW88128   6.314   9.217   0.285  0.7296  0.7762  0.7401
27891SOL    HW188129   6.308   9.304   0.244 -2.8849  1.1062  1.6530
27891SOL    HW288130   6.229   9.177   0.269  2.5035 -3.0274 -0.2976
27892SOL     OW88131   6.335   7.244   3.307  0.0600 -0.0550 -0.0036
27892SOL    HW188132   6.334   7.263   3.401 -1.8702  1.7153 -0.3022
27892SOL    HW288133   6.420   7.203   3.292  0.6219  0.0503  2.4239
27893SOL     OW88134  10.141   9.741   5.992 -0.1140  0.0181  0.4606
27893SOL    HW188135  10.171   9.774   6.077  2.0791  0.9700 -0.5952
27893SOL    HW288136  10.212   9.763   5.932 -0.3709 -3.0187 -1.1460
27894SOL     OW88137   5.951   3.431   9.155 -0.4148 -0.5177  0.3827
27894SOL    HW188138   6.017   3.497   9.178 -0.9389 -0.2458  1.1401
27894SOL    HW288139   6.001   3.361   9.112  0.3854 -0.3548  1.0289
27895SOL     OW88140   7.096   0.219   5.978  0.3941 -0.3554  0.2914
27895SOL    HW188141   7.011   0.218   6.021  0.2361  1.2365  0.0537
27895SOL    HW288142   7.077   0.233   5.886  0.9033  0.0853  0.2458
27896SOL     OW88143   8.861   4.855  10.864 -0.2956  0.2450  0.1873
27896SOL    HW188144   8.872   4.765  10.836 -1.5643  0.5062 -1.2706
27896SOL    HW288145   8.837   4.848  10.957 -3.2348 -1.1766 -0.5373
27897SOL     OW88146   9.537   3.037   6.445 -0.3738 -0.2512  0.8929
27897SOL    HW188147   9.582   3.057   6.363 -0.0811 -0.1767  1.0717
27897SOL    HW288148   9.600   2.986   6.496  0.1258  1.2162  1.8132
27898SOL     OW88149   4.460   5.087   9.053  0.9442 -0.0245  0.1648
27898SOL    HW188150   4.499   5.045   8.976  3.1889  1.5521  0.3600
27898SOL    HW288151   4.451   5.016   9.116 -3.6978 -2.0752 -2.2761
27899SOL     OW88152   0.211   9.584   7.933 -0.9200 -0.3032 -0.1287
27899SOL    HW188153   0.163   9.661   7.901 -1.8170 -0.5788  0.5204
27899SOL    HW288154   0.162   9.509   7.900 -0.0606 -0.6143 -0.7387
27900SOL     OW88155  10.779   7.666   4.854 -0.0462 -0.2038 -0.5892
27900SOL    HW188156  10.730   7.620   4.922  0.2030 -0.2741 -0.4559
27900SOL    HW288157  10.776   7.607   4.779 -1.4927  0.4565 -1.1007
27901SOL     OW88158   7.244   3.246   3.413  0.1001  0.6126 -0.2820
27901SOL    HW188159   7.156   3.257   3.448  0.5374 -1.6193  1.8151
27901SOL    HW288160   7.232   3.201   3.329 -0.7726 -0.5287  0.4244
27902SOL     OW88161   9.650   6.045   3.130  0.2831  0.0132 -0.0123
27902SOL    HW188162   9.675   5.963   3.087 -0.1388  0.7292 -1.6780
27902SOL    HW288163   9.557   6.033   3.151 -0.4932  0.9753 -2.5844
27903SOL     OW88164   0.576  10.836   0.104  0.2320 -0.4016 -0.0641
27903SOL    HW188165   0.523  10.808   0.029  0.4382 -0.2997 -0.2506
27903SOL    HW288166   0.534  10.796   0.180  0.6531 -1.4014 -0.3450
27904SOL     OW88167   5.859   2.204   1.459  0.1259  0.5082  0.3788
27904SOL    HW188168   5.916   2.281   1.459  0.1021  0.5289  1.4315
27904SOL    HW288169   5.770   2.240   1.454  0.1633  0.4779 -1.1676
27905SOL     OW88170   4.078   0.314   1.893  0.4095 -0.1882 -0.1049
27905SOL    HW188171   4.011   0.378   1.915  1.1858  0.8200 -0.6030
27905SOL    HW288172   4.061   0.240   1.951  1.6521  1.8327  3.1549
27906SOL     OW88173   1.367   6.570  10.815 -0.2890  0.0090  1.0244
27906SOL    HW188174   1.309   6.600  10.886 -0.6131  2.1797 -0.0584
27906SOL    HW288175   1.425   6.645  10.800 -1.1005  0.1413 -1.8779
27907SOL     OW88176  10.212   7.479   6.651  0.0184  0.4804 -0.4293
27907SOL    HW188177  10.172   7.468   6.737 -1.6304  0.3790 -1.1668
27907SOL    HW288178  10.294   7.524   6.668  0.4922 -0.9507  1.3412
27908SOL     OW88179   9.434   8.847   5.309 -0.1248 -0.3061  0.1971
27908SOL    HW188180   9.469   8.887   5.230 -0.6452  0.1843  0.2087
27908SOL    HW288181   9.346   8.818   5.285 -1.6592  2.8214  1.4327
27909SOL     OW88182   4.068   5.342   9.319  0.3599 -0.3188  0.3086
27909SOL    HW188183   4.110   5.257   9.338 -0.9708 -0.9796  0.4086
27909SOL    HW288184   4.068   5.347   9.224  1.8021  0.2935  0.3176
27910SOL     OW88185   1.728   3.940   4.040 -0.0542  0.4047  0.0995
27910SOL    HW188186   1.793   3.921   4.109  3.4553  0.0092 -2.9837
27910SOL    HW288187   1.688   3.855   4.022  0.7268  0.0204  0.1163
27911SOL     OW88188   1.048   3.324   0.091 -0.6210  0.4749  0.7258
27911SOL    HW188189   0.994   3.246   0.074  0.0204  0.4509 -1.5826
27911SOL    HW288190   0.987   3.397   0.085 -1.0170  0.2379  1.7254
27912SOL     OW88191   7.381   9.853   0.538  0.4107 -0.4569  0.2167
27912SOL    HW188192   7.465   9.842   0.494  0.0348  0.1612 -0.6882
27912SOL    HW288193   7.403   9.858   0.631  1.5291  1.0614 -0.0898
27913SOL     OW88194   4.459   4.064   1.526 -0.0166 -0.1059 -0.0430
27913SOL    HW188195   4.466   4.112   1.609 -1.0114  4.1709 -2.1549
27913SOL    HW288196   4.368   4.035   1.524 -0.1058  0.1436  0.2103
27914SOL     OW88197   0.153   4.858   0.195 -0.5182  0.2374  0.3470
27914SOL    HW188198   0.087   4.796   0.165 -0.6511  0.9136 -0.7859
27914SOL    HW288199   0.213   4.867   0.122  1.5116 -1.1962  1.7120
27915SOL     OW88200   9.301   6.746   2.578  0.0735  0.8749 -0.2649
27915SOL    HW188201   9.239   6.740   2.650  0.7929 -1.7869  0.2697
27915SOL    HW288202   9.256   6.705   2.504  0.4421  0.8125 -0.4590
27916SOL     OW88203   0.141  10.271   9.843  0.1097 -0.4998  0.3585
27916SOL    HW188204   0.228  10.311   9.847 -0.1455  0.0823  0.1817
27916SOL    HW288205   0.131  10.226   9.928  1.7454 -3.0723 -0.6770
27917SOL     OW88206   2.300   3.389   4.591 -0.2007  0.2634  0.1837
27917SOL    HW188207   2.293   3.441   4.672 -0.4300 -0.0534  0.3652
27917SOL    HW288208   2.394   3.375   4.581  0.0798  2.4955 -0.9929
27918SOL     OW88209   4.212   2.712   7.103 -0.0125  0.0317  0.0820
27918SOL    HW188210   4.203   2.727   7.009  0.7842 -1.2309 -0.2182
27918SOL    HW288211   4.172   2.626   7.118 -3.1189  1.5199  1.4865
27919SOL     OW88212  10.331   7.741   1.664 -0.1544 -0.2538 -0.0388
27919SOL    HW188213  10.418   7.777   1.683 -0.7726  1.3030 -0.0981
27919SOL    HW288214  10.279   7.761   1.742 -0.9751  0.5105 -0.7652
27920SOL     OW88215   9.488   8.065   3.754 -0.2714 -0.6674 -0.3016
27920SOL    HW188216   9.400   8.072   3.717 -1.5188  2.6596  2.7676
27920SOL    HW288217   9.488   7.982   3.801 -1.0069 -1.6284 -1.8978
27921SOL     OW88218   5.703  10.512   6.879  0.5269  0.6572  0.2148
27921SOL    HW188219   5.771  10.524   6.812  0.2245  1.2647  0.0113
27921SOL    HW288220   5.664  10.427   6.857  1.7946 -0.1268  0.8695
27922SOL     OW88221   6.324   2.657   9.141  0.3941  0.1594  0.4399
27922SOL    HW188222   6.397   2.643   9.201 -1.2552  0.6506  2.6662
27922SOL    HW288223   6.254   2.691   9.196 -0.4785  3.0008 -2.1922
27923SOL     OW88224   5.047   9.351   6.356 -0.5482  0.0854  0.2915
27923SOL    HW188225   5.120   9.336   6.417 -0.0670  2.7052  0.5114
27923SOL    HW288226   5.047   9.446   6.344 -3.2701  0.0371 -0.5795
27924SOL     OW88227   0.545   0.576   0.376  0.0950  0.2990 -0.3044
27924SOL    HW188228   0.570   0.501   0.322 -0.8636  0.2593 -0.7128
27924SOL    HW288229   0.507   0.638   0.314 -0.0451  0.6927  0.1732
27925SOL     OW88230   0.881   6.670   2.693 -0.4962  0.5966  0.0779
27925SOL    HW188231   0.845   6.680   2.605  0.8295  0.0787 -0.5500
27925SOL    HW288232   0.974   6.691   2.684  0.1608 -1.6571  0.8533
27926SOL     OW88233   8.223   3.985   9.902 -0.4129 -0.5080 -0.3122
27926SOL    HW188234   8.180   3.974   9.987 -0.7709 -1.8236 -0.6496
27926SOL    HW288235   8.241   4.079   9.897 -0.5289 -0.3824  1.1443
27927SOL     OW88236   6.315   1.955  10.386  0.0030 -0.5272 -0.4653
27927SOL    HW188237   6.252   2.003  10.440 -1.2492 -1.6490 -0.8455
27927SOL    HW288238   6.398   1.963  10.432  0.2109  3.1134 -1.1977
27928SOL     OW88239   7.349   0.266   1.628  0.4980 -0.1794 -0.3176
27928SOL    HW188240   7.417   0.323   1.665 -0.8169  0.6757  0.8633
27928SOL    HW288241   7.378   0.250   1.538  0.6888  2.7880 -0.9005
27929SOL     OW88242   6.890   3.864   4.148 -0.1390  1.0498  0.0951
27929SOL    HW188243   6.889   3.888   4.241  1.1396  1.9567 -0.0932
27929SOL    HW288244   6.805   3.823   4.133 -0.0768  0.1707  1.8438
27930SOL     OW88245   9.876   3.136   1.424  0.2338  0.2664  0.4745
27930SOL    HW188246   9.826   3.065   1.466  0.2962 -0.1955 -0.2156
27930SOL    HW288247   9.834   3.216   1.455 -0.1036 -0.0797  0.9360
27931SOL     OW88248  10.538  10.916   9.056 -0.8754 -0.1092  0.5089
27931SOL    HW188249  10.499  10.830   9.040  1.1348 -0.8242 -1.0995
27931SOL    HW288250  10.488  10.953   9.129 -3.3253 -1.6202 -0.2930
27932SOL     OW88251   6.298   2.007   7.725  0.2316  0.0218 -0.7272
27932SOL    HW188252   6.388   2.003   7.758  0.0809 -0.6428 -0.3813
27932SOL    HW288253   6.291   2.095   7.687  0.3327  0.9584  1.2478
27933SOL     OW88254   3.904   4.222   3.920  0.0434  0.1734 -0.0749
27933SOL    HW188255   3.887   4.273   4.000 -0.4177  0.1262 -0.1442
27933SOL    HW288256   3.989   4.180   3.937  0.9307  1.7631 -0.4323
27934SOL     OW88257  10.044   0.928   0.681 -0.2011 -0.1688  0.4048
27934SOL    HW188258  10.032   1.022   0.672 -0.1176 -0.1867  0.0928
27934SOL    HW288259   9.964   0.889   0.645 -0.1833 -0.2187  0.4172
27935SOL     OW88260  10.113   3.391   7.583  0.3113 -0.2476 -0.2149
27935SOL    HW188261  10.046   3.377   7.651 -0.6597  0.3656 -1.0116
27935SOL    HW288262  10.177   3.449   7.624 -1.3884  1.9687 -0.4357
27936SOL     OW88263   2.432   6.475   3.168  0.2517 -0.2075 -0.2564
27936SOL    HW188264   2.455   6.566   3.188 -2.0438  1.0433 -2.5650
27936SOL    HW288265   2.418   6.435   3.253  3.1041  1.0045  0.9147
27937SOL     OW88266   1.318   2.426   8.135  0.0359  0.2092 -0.5994
27937SOL    HW188267   1.350   2.512   8.109 -2.1836  0.9392 -1.1996
27937SOL    HW288268   1.245   2.409   8.075  0.5556 -2.2091 -0.6433
27938SOL     OW88269   4.773   0.415   9.395  0.0469 -0.9827  0.2311
27938SOL    HW188270   4.794   0.427   9.488  1.2463 -0.6462 -0.0605
27938SOL    HW288271   4.838   0.352   9.364  0.4189 -0.1954 -0.6398
27939SOL     OW88272   5.530  10.767   3.384 -0.6205  0.8264 -0.4530
27939SOL    HW188273   5.497  10.836   3.327 -1.2410  0.3248 -0.7191
27939SOL    HW288274   5.467  10.695   3.373  0.5052 -0.1203 -0.8731
27940SOL     OW88275   4.334   7.745   1.923  0.4675 -0.2751  0.2035
27940SOL    HW188276   4.255   7.750   1.977 -0.1235  1.3033 -0.7493
27940SOL    HW288277   4.369   7.834   1.923  2.4850 -1.0216  0.9021
27941SOL     OW88278  10.164   3.556   4.781 -0.6488 -0.2285 -0.3208
27941SOL    HW188279  10.116   3.474   4.790 -0.9431 -0.1166 -0.8259
27941SOL    HW288280  10.243   3.533   4.734 -0.6210 -0.2621 -0.2578
27942SOL     OW88281   1.067   2.442   1.398  0.1887 -0.5160 -0.6241
27942SOL    HW188282   0.999   2.404   1.454  0.5105 -0.6783 -0.3440
27942SOL    HW288283   1.018   2.478   1.323 -0.3579  0.8118  0.3353
27943SOL     OW88284   4.285   5.362   7.062 -0.4699  0.3462  0.0615
27943SOL    HW188285   4.217   5.357   6.995  1.2828  0.6349 -1.8303
27943SOL    HW288286   4.262   5.294   7.125 -1.6973 -0.5697 -1.3193
27944SOL     OW88287   3.051  10.822   8.940 -0.1082  0.5941 -0.2249
27944SOL    HW188288   3.076  10.796   8.851  0.9602  0.4372  0.1146
27944SOL    HW288289   3.125  10.873   8.972 -0.5656  0.8057  0.5189
27945SOL     OW88290   6.223   0.240  10.815  0.2126 -0.4894  0.1665
27945SOL    HW188291   6.171   0.162  10.836 -0.6773  0.1885  0.5339
27945SOL    HW288292   6.213   0.251  10.721  0.1131 -0.6587  0.1579
27946SOL     OW88293   3.029   3.512   3.258  0.0598  0.5160  0.5328
27946SOL    HW188294   3.123   3.524   3.272  0.1908 -0.2527  0.3385
27946SOL    HW288295   3.016   3.417   3.260 -0.9608  0.6436  2.1042
27947SOL     OW88296   2.280   0.190   2.234  0.0194 -0.1064  0.4768
27947SOL    HW188297   2.186   0.179   2.245  0.2977 -1.0297  2.2057
27947SOL    HW288298   2.308   0.240   2.311  0.6986  1.9204 -0.9813
27948SOL     OW88299   5.204   1.601   0.227  0.0436 -0.3496  0.5456
27948SOL    HW188300   5.188   1.567   0.315 -0.0354 -0.0644  0.6432
27948SOL    HW288301   5.118   1.630   0.197  0.3421  1.1551  1.0575
27949SOL     OW88302   2.253   9.438   5.465 -0.0622  0.5073 -0.3839
27949SOL    HW188303   2.200   9.516   5.453 -0.6768  0.3128  0.8507
27949SOL    HW288304   2.306   9.457   5.543 -1.0053 -0.6730  0.5982
27950SOL     OW88305   5.534   4.213   3.894 -0.0739  0.4909 -0.4724
27950SOL    HW188306   5.612   4.203   3.839 -0.8952  1.5254 -1.9076
27950SOL    HW288307   5.560   4.178   3.979  1.5777 -0.2492 -1.2318
27951SOL     OW88308   0.251   1.140   2.137  0.1360  0.1229 -0.2317
27951SOL    HW188309   0.226   1.206   2.202  2.8248  2.4498 -1.3324
27951SOL    HW288310   0.185   1.147   2.068 -0.2721  0.8080  0.2159
27952SOL     OW88311   1.118   1.722   2.033  0.2001  0.2976 -0.7263
27952SOL    HW188312   1.140   1.637   2.073 -0.0873  0.3782 -0.3903
27952SOL    HW288313   1.070   1.769   2.101  0.1019  0.6187 -1.0125
27953SOL     OW88314   7.574   5.257   8.133  0.2630 -0.4937  0.6747
27953SOL    HW188315   7.522   5.238   8.055  0.7903  1.0446 -0.0880
27953SOL    HW288316   7.518   5.313   8.187  0.0285 -1.2742  1.2643
27954SOL     OW88317   2.465   2.964   8.153 -0.0258 -0.1675  0.2973
27954SOL    HW188318   2.488   3.029   8.220  1.9860 -0.3519 -0.1474
27954SOL    HW288319   2.461   3.014   8.071  2.3243 -0.6353 -0.1829
27955SOL     OW88320   0.759   3.573   8.293  0.6271  0.8027 -0.3983
27955SOL    HW188321   0.744   3.548   8.384 -2.7082 -3.5677 -1.7946
27955SOL    HW288322   0.838   3.524   8.268 -0.0797 -0.3173 -0.5083
27956SOL     OW88323   7.416   2.563   3.243 -0.3082 -0.6193 -0.2277
27956SOL    HW188324   7.417   2.471   3.216 -2.4865 -0.8238  0.2023
27956SOL    HW288325   7.417   2.560   3.338  2.7357 -0.0306 -0.1383
27957SOL     OW88326   7.159   5.832   5.199  0.1927 -0.6852  0.4199
27957SOL    HW188327   7.214   5.797   5.269  0.9051  1.2419  0.8827
27957SOL    HW288328   7.089   5.879   5.244  0.8285  0.8388 -0.1232
27958SOL     OW88329   7.033   1.530   1.563  0.1645  0.5697 -0.3078
27958SOL    HW188330   7.101   1.574   1.614  0.2788 -1.1467  1.1051
27958SOL    HW288331   7.079   1.492   1.488  0.8353 -0.7728  0.7565
27959SOL     OW88332   6.521   5.048   0.129 -0.2515 -0.0356  0.3916
27959SOL    HW188333   6.527   5.107   0.204 -0.3913 -0.1816  0.5167
27959SOL    HW288334   6.476   5.099   0.062  0.1117  0.1875  0.3148
27960SOL     OW88335   4.920   4.763   3.211  0.6978  0.8227 -0.0328
27960SOL    HW188336   4.990   4.823   3.235  0.1902  1.3015  0.2752
27960SOL    HW288337   4.870   4.810   3.145  0.5438  0.5715 -0.0958
27961SOL     OW88338   6.858   2.011   7.283  0.1532  0.5615 -0.1044
27961SOL    HW188339   6.786   2.069   7.258  0.1193  0.1194 -1.0800
27961SOL    HW288340   6.815   1.936   7.324  0.2412  1.5312  1.8374
27962SOL     OW88341   6.778   0.830  10.813 -0.0979 -0.2124  0.4137
27962SOL    HW188342   6.683   0.827  10.825 -0.0186 -3.1441  1.3164
27962SOL    HW288343   6.813   0.795  10.896  1.7348  0.0713 -0.1939
27963SOL     OW88344   1.522   6.036   7.649 -0.3961 -0.1159 -0.8519
27963SOL    HW188345   1.575   6.079   7.716  0.0918 -1.2411 -0.4846
27963SOL    HW288346   1.432   6.046   7.679 -0.2750  0.4450 -0.6634
27964SOL     OW88347   2.660   4.248   1.915 -0.0994 -0.2709  0.0121
27964SOL    HW188348   2.575   4.263   1.874 -0.7314  0.9340  1.6739
27964SOL    HW288349   2.721   4.301   1.864 -1.0309  1.9911  1.1217
27965SOL     OW88350   7.870   6.729   6.056 -0.5966  0.2914  0.1787
27965SOL    HW188351   7.875   6.824   6.055  0.7064  0.2748  1.4121
27965SOL    HW288352   7.809   6.708   6.126 -0.9623  0.2078 -0.1590
27966SOL     OW88353   9.337   0.549   5.611 -0.1069  0.3478 -0.1024
27966SOL    HW188354   9.412   0.510   5.567 -1.0039 -1.1622 -0.3736
27966SOL    HW288355   9.351   0.528   5.704  0.8316  1.8940  0.1356
27967SOL     OW88356   0.016   1.621   9.848 -0.1377 -0.1419  0.3265
27967SOL    HW188357  -0.039   1.694   9.876 -1.2765 -0.7419 -0.2783
27967SOL    HW288358   0.103   1.641   9.883 -0.2360  1.8844 -0.4776
27968SOL     OW88359   1.947   7.663  10.678  0.1582 -0.6294 -0.2756
27968SOL    HW188360   1.950   7.623  10.765 -0.6375  0.4347  0.2731
27968SOL    HW288361   2.017   7.729  10.679  2.1167 -2.5505 -1.5138
27969SOL     OW88362   8.115   9.272   4.912  0.3328  0.7937 -0.1633
27969SOL    HW188363   8.187   9.305   4.858  0.0983 -0.4341 -1.3014
27969SOL    HW288364   8.128   9.313   4.997  3.2526 -0.4782  0.1348
27970SOL     OW88365   7.037   1.756   5.311 -0.4389 -0.3666 -0.8443
27970SOL    HW188366   6.986   1.799   5.379 -1.1903  0.5059 -1.9217
27970SOL    HW288367   6.978   1.690   5.274 -0.3258 -0.2660 -1.2128
27971SOL     OW88368   2.826   6.782   7.618 -0.1001 -0.0972 -0.3958
27971SOL    HW188369   2.920   6.779   7.600  0.0612 -1.4135  0.5272
27971SOL    HW288370   2.819   6.767   7.712 -1.1836  1.3143 -0.2253
27972SOL     OW88371   8.194   4.703  10.867  0.8625  0.1338  0.4058
27972SOL    HW188372   8.181   4.611  10.888  3.1588 -0.0742  1.1519
27972SOL    HW288373   8.129   4.721  10.798  1.6255 -2.5596 -1.1849
27973SOL     OW88374   9.206   2.219   3.721  0.5720 -0.0921 -0.8340
27973SOL    HW188375   9.260   2.207   3.642  0.9571 -0.3379 -0.5364
27973SOL    HW288376   9.269   2.216   3.793  0.1072 -0.7431 -0.4567
27974SOL     OW88377   1.728   5.033   9.905 -0.1929  0.0344  0.4589
27974SOL    HW188378   1.760   5.024   9.815 -0.9722  0.2418  0.1550
27974SOL    HW288379   1.807   5.048   9.957  0.1190  1.8993 -0.4591
27975SOL     OW88380   4.517   9.311   9.302 -0.1459  0.0585 -0.4114
27975SOL    HW188381   4.542   9.367   9.376  1.4280 -3.0628  1.6652
27975SOL    HW288382   4.426   9.287   9.320 -0.0112 -0.0732  0.1124
27976SOL     OW88383   9.083  11.025  10.484  0.2092  0.4838 -0.0295
27976SOL    HW188384   9.078  11.075  10.403 -0.6376  0.8610  0.2370
27976SOL    HW288385   9.012  10.961  10.477 -1.9204  2.5051  1.6741
27977SOL     OW88386   9.136   0.058   0.407  0.3639  0.0220 -0.7201
27977SOL    HW188387   9.112   0.053   0.315  0.2424 -0.6440 -0.6620
27977SOL    HW288388   9.071   0.003   0.451  0.0197  0.8656 -0.1559
27978SOL     OW88389   2.061   1.334   2.075  0.3332 -0.6734  0.1083
27978SOL    HW188390   2.078   1.284   2.155 -0.5696 -0.8561  0.2060
27978SOL    HW288391   2.017   1.413   2.105  1.2274 -0.0926 -0.1000
27979SOL     OW88392   8.282   5.148   7.207 -0.3899  0.3719 -0.3775
27979SOL    HW188393   8.331   5.066   7.209 -1.2553 -0.1549  1.0763
27979SOL    HW288394   8.192   5.122   7.229 -0.3297  1.8922  1.9989
27980SOL     OW88395   6.738  10.773   8.590 -0.2785  0.6724  0.1457
27980SOL    HW188396   6.645  10.768   8.613  0.1935 -0.1906  2.0839
27980SOL    HW288397   6.760  10.683   8.563  0.5781  0.1821  2.3361
27981SOL     OW88398   0.644   6.346   8.297  0.0697  0.1474  0.2234
27981SOL    HW188399   0.714   6.358   8.361 -0.2438 -1.0085  0.8093
27981SOL    HW288400   0.689   6.312   8.219  0.1412 -0.8338  0.6810
27982SOL     OW88401   2.719   8.427   5.279 -0.2448 -0.7350 -0.1822
27982SOL    HW188402   2.798   8.406   5.228 -0.0552 -0.2822 -0.0817
27982SOL    HW288403   2.748   8.496   5.340 -0.9153  0.0195 -0.6961
27983SOL     OW88404   0.862   3.750   4.724 -0.2505 -0.0356  0.0443
27983SOL    HW188405   0.791   3.739   4.787 -0.2008 -0.7034 -0.0114
27983SOL    HW288406   0.925   3.806   4.769 -0.8583  0.6613  0.0497
27984SOL     OW88407   4.428   1.801   9.402  0.3590  0.0918 -0.2247
27984SOL    HW188408   4.432   1.737   9.473  0.0714  0.4749  0.1493
27984SOL    HW288409   4.478   1.762   9.331 -0.9566 -1.1702 -0.5081
27985SOL     OW88410  10.845   9.206   4.668 -0.5239 -0.2558  0.2959
27985SOL    HW188411  10.786   9.138   4.700  1.0864 -1.5422  0.6605
27985SOL    HW288412  10.869   9.255   4.746  0.0391 -0.6637  0.3784
27986SOL     OW88413   3.764   6.299   3.080 -0.0115 -0.1885 -0.3534
27986SOL    HW188414   3.815   6.222   3.054 -2.6563 -1.7877 -1.2166
27986SOL    HW288415   3.804   6.371   3.031  2.6722 -0.8562  0.6310
27987SOL     OW88416   8.449   6.979   5.283  0.0194 -0.0622 -0.0676
27987SOL    HW188417   8.478   7.025   5.362  0.4400  1.7032 -1.1955
27987SOL    HW288418   8.530   6.957   5.237 -0.2305  2.1978 -1.7491
27988SOL     OW88419   0.380   6.658   5.359 -0.4012 -0.1274 -0.6754
27988SOL    HW188420   0.434   6.676   5.436 -0.1552  0.7705 -1.0466
27988SOL    HW288421   0.401   6.567   5.337 -0.1204 -0.2428  0.0382
27989SOL     OW88422   3.514   3.812   6.739  0.0065  0.1261 -0.0489
27989SOL    HW188423   3.542   3.854   6.820  3.4943 -2.9636  0.5817
27989SOL    HW288424   3.458   3.740   6.766 -0.8762  0.5514 -0.6621
27990SOL     OW88425   1.659   5.389   6.203 -0.4982  0.1373 -0.0043
27990SOL    HW188426   1.730   5.363   6.262  0.5703  1.5576 -0.5972
27990SOL    HW288427   1.688   5.359   6.117 -0.8786  0.2393 -0.1701
27991SOL     OW88428   5.713   8.844   3.990 -0.4283  0.0605  0.0377
27991SOL    HW188429   5.661   8.858   3.910  0.4631  1.5232 -0.3220
27991SOL    HW288430   5.650   8.852   4.061 -0.9512  0.3739 -0.4521
27992SOL     OW88431   1.312   6.711   4.157  0.0963 -0.2119 -0.4162
27992SOL    HW188432   1.359   6.760   4.225  0.6189  0.3796 -1.1948
27992SOL    HW288433   1.319   6.765   4.079  1.0815 -1.7034 -1.4252
27993SOL     OW88434  10.567  10.501   4.005 -0.0746  0.3155  0.0548
27993SOL    HW188435  10.482  10.543   4.013  0.8274  2.0819  0.7694
27993SOL    HW288436  10.552  10.428   3.944 -1.8218  1.2993 -0.7520
27994SOL     OW88437   0.743   6.380   4.629 -0.2343  0.5888 -0.4481
27994SOL    HW188438   0.755   6.341   4.716  0.3239 -1.4895 -1.3969
27994SOL    HW288439   0.765   6.472   4.641 -0.2436  0.3715  1.6241
27995SOL     OW88440   7.981   9.909   2.576  0.3108  0.0846  0.4422
27995SOL    HW188441   7.944   9.986   2.621  0.9395 -0.1618  1.4162
27995SOL    HW288442   8.065   9.939   2.543  0.4599 -0.1136  0.6348
27996SOL     OW88443   5.416   3.716   8.360  0.5654 -0.0680 -0.0797
27996SOL    HW188444   5.468   3.726   8.440  0.3065  0.8105 -0.0037
27996SOL    HW288445   5.480   3.702   8.291  0.9269  1.0816 -0.0040
27997SOL     OW88446   4.898   0.000   3.942 -0.8190 -0.2818 -0.3022
27997SOL    HW188447   4.855   0.015   4.025 -0.2722  0.9718 -0.2101
27997SOL    HW288448   4.960   0.073   3.934 -0.3753 -0.7572 -1.4832
27998SOL     OW88449   3.413   4.506   5.544 -0.5444  0.1667  0.1926
27998SOL    HW188450   3.453   4.449   5.479 -1.1181  0.2354 -0.2237
27998SOL    HW288451   3.369   4.447   5.605  0.4338  0.0682  0.8439
27999SOL     OW88452   7.878   7.854   2.001 -0.2762 -0.0161  0.5199
27999SOL    HW188453   7.897   7.926   1.940 -1.4378  0.1846  0.3869
27999SOL    HW288454   7.965   7.822   2.026  0.2468 -0.5355 -1.7277
28000SOL     OW88455   2.832   6.462   9.750  0.1424 -0.8448 -0.1052
28000SOL    HW188456   2.749   6.492   9.712  0.3749  1.4221  1.0099
28000SOL    HW288457   2.832   6.367   9.734 -2.1917 -0.7800 -0.9877
28001SOL     OW88458   3.886   0.880   2.638 -0.3265  0.1001  0.2505
28001SOL    HW188459   3.918   0.796   2.605  0.1722  0.1097  0.7006
28001SOL    HW288460   3.791   0.870   2.642 -0.1844 -0.9086  1.5396
28002SOL     OW88461   7.960   1.422   3.149 -0.2410  0.0173  0.2856
28002SOL    HW188462   7.890   1.425   3.214 -2.3338  0.8953 -1.8455
28002SOL    HW288463   7.921   1.376   3.074  1.5488  0.3589 -0.9208
28003SOL     OW88464   4.656   4.571   3.802  0.0713 -0.1084 -0.2803
28003SOL    HW188465   4.667   4.649   3.856  0.5236  2.0312 -3.2472
28003SOL    HW288466   4.743   4.530   3.802  0.0040 -0.2862  0.7475
28004SOL     OW88467   9.583   4.600   7.959 -0.2873 -0.4028  0.1651
28004SOL    HW188468   9.659   4.598   7.900  0.5993 -1.3530  1.2889
28004SOL    HW288469   9.611   4.550   8.036 -2.5198 -2.0263  0.0381
28005SOL     OW88470   0.140   9.550   6.791  0.1028  0.9248 -0.8094
28005SOL    HW188471   0.104   9.603   6.719  0.1465  1.2232 -0.6117
28005SOL    HW288472   0.178   9.474   6.747 -0.0339  1.0145 -1.0888
28006SOL     OW88473   9.512   7.229   3.976 -0.4296  0.1045  0.4639
28006SOL    HW188474   9.548   7.140   3.979 -2.1780 -0.6465  0.1777
28006SOL    HW288475   9.475   7.243   4.063  0.4137  0.8441  0.7266
28007SOL     OW88476   6.424   5.708   5.590 -0.1355  0.4169  0.0522
28007SOL    HW188477   6.331   5.686   5.581 -0.0868  0.4424 -0.4925
28007SOL    HW288478   6.471   5.633   5.554  0.1148 -0.6013  2.3166
28008SOL     OW88479   3.612   8.065   4.650  0.5186 -0.4273  0.2863
28008SOL    HW188480   3.700   8.096   4.669  0.5785 -0.4276  0.0188
28008SOL    HW288481   3.620   7.969   4.647  0.0564 -0.5916  2.5159
28009SOL     OW88482  10.911   6.193   4.811  0.0700  0.0781 -0.4126
28009SOL    HW188483  10.891   6.263   4.874 -0.5608  0.2365 -0.7802
28009SOL    HW288484  10.892   6.231   4.726  0.4867 -0.2873 -0.6714
28010SOL     OW88485   5.040   1.820   6.130 -0.0817  0.2470 -0.0623
28010SOL    HW188486   5.083   1.802   6.213  1.4431  1.7533 -0.4793
28010SOL    HW288487   4.961   1.869   6.154  0.2128  0.4518  0.5034
28011SOL     OW88488   1.272  10.350   7.456 -0.1019 -0.1686 -0.1348
28011SOL    HW188489   1.355  10.309   7.478 -0.6915 -1.2133  0.1680
28011SOL    HW288490   1.283  10.379   7.366  0.6848 -0.0391 -0.0045
28012SOL     OW88491   3.416   8.132   3.401 -0.2224 -0.3362 -0.1825
28012SOL    HW188492   3.499   8.150   3.356 -1.0685  2.2355 -0.8954
28012SOL    HW288493   3.349   8.160   3.339 -1.6249 -1.3387  0.8115
28013SOL     OW88494   7.933  10.331   1.593  0.3578  0.5662  0.0417
28013SOL    HW188495   7.990  10.292   1.527  0.6640 -2.4510  1.9031
28013SOL    HW288496   7.873  10.387   1.543  1.7913 -0.0157 -2.5221
28014SOL     OW88497   4.432  10.529   3.716  0.1953 -0.3341 -0.3266
28014SOL    HW188498   4.459  10.478   3.793  0.8975  0.4978 -0.0106
28014SOL    HW288499   4.346  10.564   3.740  1.1350  1.3177  0.7904
28015SOL     OW88500  10.905   1.360   6.471  0.5167  0.2288  0.2769
28015SOL    HW188501  10.941   1.291   6.415 -3.3452 -1.4660 -0.4298
28015SOL    HW288502  10.937   1.337   6.559 -0.1888 -2.2148 -0.0203
28016SOL     OW88503   3.960   5.494   1.163 -0.4158  0.0418  0.5004
28016SOL    HW188504   3.900   5.551   1.116 -0.9880 -0.3315  0.7685
28016SOL    HW288505   3.927   5.492   1.253 -0.4535 -0.7709  0.4793
28017SOL     OW88506   6.457   1.676   5.130  0.7723  0.7594 -0.6013
28017SOL    HW188507   6.413   1.713   5.053 -0.2252 -2.8718 -2.0100
28017SOL    HW288508   6.520   1.614   5.093 -1.4490 -2.9727  1.3279
28018SOL     OW88509   9.481   3.809   7.092 -0.0848 -0.0336 -0.3934
28018SOL    HW188510   9.529   3.813   7.174 -1.0882 -1.3580  0.3061
28018SOL    HW288511   9.393   3.841   7.114  0.4984  2.8484 -1.7510
28019SOL     OW88512   9.398   3.199   0.139  0.0772  0.5305  0.2623
28019SOL    HW188513   9.307   3.226   0.147  0.7974  3.0764  0.7040
28019SOL    HW288514   9.421   3.168   0.227 -0.2734  0.2110  0.2421
28020SOL     OW88515   1.326   2.142   6.823  0.1234  0.2315 -0.6002
28020SOL    HW188516   1.350   2.050   6.824 -1.0302 -0.0760  0.3665
28020SOL    HW288517   1.407   2.188   6.844  0.2939 -0.6767  0.8548
28021SOL     OW88518   5.205   5.656   1.622 -0.1751 -0.1596 -0.3973
28021SOL    HW188519   5.286   5.665   1.571  0.6990 -0.9531  0.7710
28021SOL    HW288520   5.206   5.731   1.681  0.2150 -0.6505  0.2440
28022SOL     OW88521   6.780  10.436   4.450  0.0979  0.0133 -0.4187
28022SOL    HW188522   6.728  10.357   4.463 -1.2536  1.0603  0.8171
28022SOL    HW288523   6.719  10.500   4.413  0.8474  0.8451 -0.2521
28023SOL     OW88524  10.592   9.793   1.756  0.0147  0.0759  0.1762
28023SOL    HW188525  10.609   9.850   1.681  2.2069  2.3312  2.1907
28023SOL    HW288526  10.508   9.823   1.790 -0.2873  0.0370 -0.5306
28024SOL     OW88527   0.375   1.276   2.447 -0.0981 -0.1177  0.0392
28024SOL    HW188528   0.288   1.294   2.412  0.0527  0.5989  0.0179
28024SOL    HW288529   0.408   1.361   2.476 -0.0517 -0.6206  1.5588
28025SOL     OW88530   4.879   3.015   2.097  0.0214  0.1661  0.3845
28025SOL    HW188531   4.788   3.007   2.070  0.1137  0.5614 -0.0589
28025SOL    HW288532   4.875   3.051   2.185 -0.2380  1.7895 -0.2397
28026SOL     OW88533   7.208   9.613   2.419 -0.1520  0.1462 -0.4854
28026SOL    HW188534   7.278   9.564   2.463 -0.5827 -1.2643 -1.2877
28026SOL    HW288535   7.251   9.691   2.385  0.7966 -0.1575 -0.0298
28027SOL     OW88536  10.637   7.928   7.201  0.3864  0.2112 -0.1719
28027SOL    HW188537  10.650   8.021   7.220 -3.1138  0.3339  2.4414
28027SOL    HW288538  10.577   7.928   7.126 -0.1141  0.1058  0.2237
28028SOL     OW88539   7.766   9.995   0.893 -0.0211  0.1639 -0.5629
28028SOL    HW188540   7.756   9.945   0.812  0.8177  0.5606 -0.9276
28028SOL    HW288541   7.844  10.049   0.878 -1.4233  2.3015 -0.5613
28029SOL     OW88542   6.754   4.442   9.829 -0.4678 -0.1126  0.3372
28029SOL    HW188543   6.832   4.471   9.783 -0.0534  1.3699  1.8698
28029SOL    HW288544   6.747   4.501   9.904 -1.6879 -1.7552  1.5898
28030SOL     OW88545   1.499   5.835   9.027  0.0555 -0.2063 -0.4447
28030SOL    HW188546   1.424   5.869   8.978 -0.3462 -0.0074  0.3012
28030SOL    HW288547   1.478   5.742   9.041  0.3286 -0.3476 -0.9297
28031SOL     OW88548   1.270   8.856   2.160 -0.8010 -0.2762  0.4272
28031SOL    HW188549   1.361   8.827   2.160 -0.5159  0.5969  0.9013
28031SOL    HW288550   1.271   8.939   2.114 -0.9626  0.8927  2.4292
28032SOL     OW88551   0.889   9.473   1.775 -0.0156 -0.5265  0.3484
28032SOL    HW188552   0.905   9.402   1.711 -1.5227 -0.6210  0.0333
28032SOL    HW288553   0.906   9.553   1.725 -1.7123 -0.5824 -0.3687
28033SOL     OW88554   2.306   1.243   6.128 -0.4897  0.1090 -0.3201
28033SOL    HW188555   2.235   1.305   6.111 -0.1082  0.5099 -0.4983
28033SOL    HW288556   2.358   1.284   6.197  0.2578  0.4137 -1.0437
28034SOL     OW88557   6.072   2.334   8.940 -0.0932  0.2846 -0.2533
28034SOL    HW188558   6.137   2.340   9.010 -0.0066 -1.9205 -0.0699
28034SOL    HW288559   6.116   2.369   8.862  0.5347  0.8217  0.3360
28035SOL     OW88560   4.950   3.288   3.760  0.3402 -0.8597 -0.2515
28035SOL    HW188561   4.914   3.246   3.681 -1.6457 -0.5832  0.4477
28035SOL    HW288562   4.873   3.318   3.808  1.5754  0.3556  1.0568
28036SOL     OW88563   3.379   8.205  10.924  0.1975  0.0857 -0.4824
28036SOL    HW188564   3.285   8.224  10.925 -0.0975 -1.2439 -0.2355
28036SOL    HW288565   3.421   8.289  10.908 -0.9124  1.1876  1.8898
28037SOL     OW88566   2.437   0.543   6.047  0.3118 -0.2995  0.2661
28037SOL    HW188567   2.506   0.609   6.060 -0.4211  1.1813 -2.5838
28037SOL    HW288568   2.479   0.460   6.067  2.4145  0.7007  0.2627
28038SOL     OW88569   0.807   6.422  10.774 -0.1006  0.1484  0.0729
28038SOL    HW188570   0.886   6.457  10.734 -0.9578 -0.1039 -2.0116
28038SOL    HW288571   0.831   6.402  10.864  1.2959  3.0610  0.4483
28039SOL     OW88572  10.523   1.492   2.796 -0.2712 -0.2376  0.2901
28039SOL    HW188573  10.510   1.557   2.726 -1.6085 -0.6912  0.0869
28039SOL    HW288574  10.531   1.409   2.750 -0.8625 -0.5034  0.6623
28040SOL     OW88575   4.395   8.064  10.603 -0.0332  0.6054  1.1765
28040SOL    HW188576   4.351   8.145  10.626 -0.2407  1.3194 -1.4211
28040SOL    HW288577   4.326   8.007  10.570  0.5750  0.9840 -0.9652
28041SOL     OW88578   4.241   5.064   8.860 -0.5069  0.1582 -0.5263
28041SOL    HW188579   4.304   5.084   8.929 -1.0416  1.0187 -0.2733
28041SOL    HW288580   4.295   5.033   8.788 -0.0476 -2.2775  0.7727
28042SOL     OW88581   9.053   8.932   8.392 -0.0752  0.2303  0.8203
28042SOL    HW188582   9.074   8.839   8.398  0.2300  0.1017 -1.3863
28042SOL    HW288583   9.133   8.972   8.357  0.6010  1.7265  3.7799
28043SOL     OW88584   1.515   0.143   7.406  0.3600 -0.2780 -0.6214
28043SOL    HW188585   1.454   0.088   7.356 -0.2798  0.8487 -1.1044
28043SOL    HW288586   1.494   0.124   7.498 -0.2691 -0.4109 -0.7828
28044SOL     OW88587   5.612   5.188   1.395  0.2228  0.3930  0.3335
28044SOL    HW188588   5.646   5.143   1.318 -0.0137  0.8335 -0.0359
28044SOL    HW288589   5.688   5.230   1.435  0.1356  1.2899 -0.4307
28045SOL     OW88590   9.227   8.511   7.190  0.5231  0.5016  0.0402
28045SOL    HW188591   9.164   8.583   7.194  0.9063  0.8286  0.3829
28045SOL    HW288592   9.311   8.552   7.211  0.8006  0.0147 -0.1050
28046SOL     OW88593   0.613   9.125   1.733 -0.5252  0.0906 -0.2235
28046SOL    HW188594   0.661   9.111   1.815 -1.8650 -0.5117  0.4929
28046SOL    HW288595   0.680   9.152   1.670  0.8384 -1.2765  0.5772
28047SOL     OW88596   1.235   9.248   9.185 -0.1631  0.4232  0.4232
28047SOL    HW188597   1.314   9.254   9.239  0.1212 -0.0244  0.0676
28047SOL    HW288598   1.225   9.154   9.168 -0.9948  0.4367  0.7901
28048SOL     OW88599   2.961   5.105   8.114  1.2692  0.1343 -0.3408
28048SOL    HW188600   2.991   5.137   8.199 -0.4890 -0.4028  0.5253
28048SOL    HW288601   2.920   5.182   8.073 -0.8981 -0.3544  0.7711
28049SOL     OW88602   3.380   0.329   8.269  0.2564 -0.4285 -0.7494
28049SOL    HW188603   3.450   0.278   8.309  1.0374  0.1149 -1.3892
28049SOL    HW288604   3.425   0.399   8.221 -0.7888  1.1616  0.4849
28050SOL     OW88605   4.919   9.313   9.558  0.1561  0.1615  0.4232
28050SOL    HW188606   4.891   9.303   9.649 -1.6797  0.0606 -0.0998
28050SOL    HW288607   4.859   9.258   9.509  1.3537 -0.0684 -0.8362
28051SOL     OW88608   4.003   1.587   3.307  0.4804  0.0912 -0.0086
28051SOL    HW188609   3.958   1.567   3.389 -1.0362 -1.4623 -1.1449
28051SOL    HW288610   4.086   1.540   3.313  1.5688  2.0743  1.6455
28052SOL     OW88611   5.656   1.205   3.836 -0.1449 -0.0338 -0.4539
28052SOL    HW188612   5.594   1.134   3.851  1.5321 -1.8389 -1.6172
28052SOL    HW288613   5.614   1.282   3.873 -1.2955 -1.9163  2.5261
28053SOL     OW88614   7.610   4.993   7.901  0.5017  0.3074  0.3982
28053SOL    HW188615   7.609   5.001   7.805  1.8552  1.7708  0.4681
28053SOL    HW288616   7.574   5.076   7.932 -0.7903 -0.5130  1.1898
28054SOL     OW88617   9.304   7.694   8.424  0.4817 -0.3195 -0.1851
28054SOL    HW188618   9.269   7.772   8.382 -0.2510 -1.0229 -0.9339
28054SOL    HW288619   9.283   7.704   8.517 -0.5756 -0.1265 -0.4354
28055SOL     OW88620   3.841   5.857   6.590 -0.0651  0.5203 -0.1558
28055SOL    HW188621   3.836   5.762   6.598 -2.3100  0.5422 -0.6789
28055SOL    HW288622   3.750   5.886   6.586  0.5652  2.5416 -1.6697
28056SOL     OW88623   0.169   2.764   1.661  0.2763 -0.0256  0.1934
28056SOL    HW188624   0.216   2.771   1.577  2.2406 -1.4341  1.1021
28056SOL    HW288625   0.233   2.725   1.721 -2.0914 -2.1352  1.5321
28057SOL     OW88626   6.682   4.914   4.568 -0.4808  0.0527 -0.0019
28057SOL    HW188627   6.628   4.883   4.640 -1.0924  2.7695  0.8171
28057SOL    HW288628   6.628   4.979   4.523  0.7210  0.0639 -1.5344
28058SOL     OW88629   1.133   5.576   1.476 -0.2812  0.4018 -0.6737
28058SOL    HW188630   1.139   5.558   1.569  1.9361 -1.8868 -1.1567
28058SOL    HW288631   1.040   5.595   1.461 -0.9435 -0.5945  1.7446
28059SOL     OW88632   5.957  10.419   2.845 -0.5371  0.0044  0.1809
28059SOL    HW188633   5.876  10.409   2.894 -0.0169 -2.0309  0.7213
28059SOL    HW288634   6.013  10.473   2.902 -1.2523  0.8494  0.0981
28060SOL     OW88635   2.919   4.347  10.212  0.3999  0.0173 -0.2932
28060SOL    HW188636   2.992   4.370  10.269  0.5094 -0.1254 -0.3728
28060SOL    HW288637   2.847   4.329  10.272  0.1216  1.2153 -0.2632
28061SOL     OW88638   3.098   1.210   5.111  0.3177  0.4152  0.1505
28061SOL    HW188639   3.177   1.225   5.163 -0.1633  0.1325  0.9902
28061SOL    HW288640   3.029   1.198   5.176 -0.6052  1.5734 -0.5591
28062SOL     OW88641   8.152   7.815   8.563 -0.7052  0.0116  0.0760
28062SOL    HW188642   8.063   7.844   8.546 -1.5546 -2.3754 -0.0039
28062SOL    HW288643   8.186   7.789   8.478  0.0234  0.7970  0.1257
28063SOL     OW88644   7.020   7.013   0.783 -0.1853 -0.4276 -0.4480
28063SOL    HW188645   7.047   7.022   0.874  1.1484 -0.9328 -0.7765
28063SOL    HW288646   6.979   7.097   0.761 -1.3126 -0.6029  0.8536
28064SOL     OW88647   0.213   2.821   1.091  0.0132  0.4012  0.1399
28064SOL    HW188648   0.207   2.726   1.093 -0.3930  0.4070 -0.4868
28064SOL    HW288649   0.123   2.851   1.078  0.0735  0.8928  0.7717
28065SOL     OW88650   6.313   2.177   5.851  0.1268 -0.0375  0.6059
28065SOL    HW188651   6.270   2.102   5.891 -1.8208  0.5495 -0.2993
28065SOL    HW288652   6.404   2.170   5.880 -0.2233 -2.1534  1.3678
28066SOL     OW88653   4.582   0.483  10.987  0.6118  0.2575  0.2797
28066SOL    HW188654   4.583   0.554  10.922 -0.5315 -0.1442 -0.1977
28066SOL    HW288655   4.641   0.417  10.951 -0.0254  0.0321 -0.3645
28067SOL     OW88656   5.914  10.049   4.282 -0.3695 -0.3089 -0.8119
28067SOL    HW188657   5.965  10.124   4.312  0.7128 -1.2210 -0.2557
28067SOL    HW288658   5.954   9.974   4.326 -0.8723 -1.3113 -1.9903
28068SOL     OW88659   2.957   7.020   2.900  0.2251 -0.3111  0.6556
28068SOL    HW188660   2.989   7.109   2.915 -0.4456 -0.1111  0.9392
28068SOL    HW288661   3.036   6.969   2.882  0.6266  0.3186  0.5888
28069SOL     OW88662   5.765   6.875   4.107  0.1666  0.2297 -0.3370
28069SOL    HW188663   5.783   6.805   4.169 -0.8152  0.9584  0.8113
28069SOL    HW288664   5.805   6.846   4.025 -1.5562 -2.4282 -0.3362
28070SOL     OW88665   1.129   3.215   1.042  0.0328  0.1909  0.0930
28070SOL    HW188666   1.141   3.239   1.134 -1.0082  2.4036 -0.2641
28070SOL    HW288667   1.151   3.295   0.994 -0.8577 -0.4576 -1.4700
28071SOL     OW88668   9.780   2.641   9.008  0.1180 -0.0535  0.9660
28071SOL    HW188669   9.757   2.548   9.001 -0.5366  0.1493  0.3801
28071SOL    HW288670   9.817   2.650   9.096 -0.4291 -0.7358  1.2689
28072SOL     OW88671   3.513   4.647   0.821 -0.0045  0.4125 -0.1934
28072SOL    HW188672   3.498   4.558   0.852 -1.1646  0.0390 -1.6498
28072SOL    HW288673   3.585   4.680   0.873 -1.0360 -0.5660  1.9555
28073SOL     OW88674   0.119   5.538   9.039  0.3291  0.0944 -0.2587
28073SOL    HW188675   0.107   5.480   8.963  1.1052 -1.0127  0.4289
28073SOL    HW288676   0.055   5.506   9.103  1.3607 -0.5914  0.4469
28074SOL     OW88677   0.830   0.518   5.382  0.2016  0.1499  0.0046
28074SOL    HW188678   0.783   0.498   5.463  0.8392  1.4311  0.7182
28074SOL    HW288679   0.895   0.447   5.375  2.5248  1.8047  2.5622
28075SOL     OW88680   0.427   4.679   4.405 -0.4862  0.0215  0.2618
28075SOL    HW188681   0.356   4.617   4.387  1.0938 -1.4876 -1.0624
28075SOL    HW288682   0.500   4.648   4.352  0.9633  1.9609  1.0176
28076SOL     OW88683   0.970   3.564   6.881  0.2971  0.7258 -0.2250
28076SOL    HW188684   0.973   3.623   6.956 -1.0236 -0.0201  0.4563
28076SOL    HW288685   1.015   3.485   6.910 -0.2018  0.4420 -0.2145
28077SOL     OW88686   2.929   6.381  10.890 -0.4119 -0.7100  0.2902
28077SOL    HW188687   2.910   6.334  10.810 -1.1371  0.8570 -0.4937
28077SOL    HW288688   3.005   6.436  10.869 -1.0000  0.1953  0.4423
28078SOL     OW88689  11.046   2.384  10.081 -0.0400 -0.6388  1.0714
28078SOL    HW188690  10.994   2.365  10.158  1.0297 -0.0473  1.9736
28078SOL    HW288691  11.015   2.322  10.015 -3.1613  0.8772  0.9270
28079SOL     OW88692   9.400   9.801   9.176 -0.2791 -0.3423  0.0673
28079SOL    HW188693   9.312   9.817   9.210  0.1147 -0.1584  1.0168
28079SOL    HW288694   9.424   9.715   9.210  0.0199 -0.2716  0.0355
28080SOL     OW88695  10.326   5.242   7.631 -0.3077  0.1589 -0.2758
28080SOL    HW188696  10.311   5.150   7.653 -0.8664  0.9111  2.9219
28080SOL    HW288697  10.242   5.284   7.647 -0.3140  1.1923 -2.5448
28081SOL     OW88698   8.898   9.229   1.296 -0.1774  0.2914 -0.6507
28081SOL    HW188699   8.939   9.163   1.351  1.0528  1.2679 -0.3660
28081SOL    HW288700   8.920   9.312   1.337  0.1373  1.0033 -2.1848
28082SOL     OW88701   6.801   1.397   1.614  0.4285  0.5391 -0.4376
28082SOL    HW188702   6.761   1.360   1.535  2.1779 -2.0607 -0.2322
28082SOL    HW288703   6.869   1.456   1.581  1.1538 -0.5370 -0.9425
28083SOL     OW88704   3.894   3.208   5.446 -0.1559 -0.5767  0.5599
28083SOL    HW188705   3.820   3.253   5.406 -0.8397 -2.1589 -0.0138
28083SOL    HW288706   3.886   3.225   5.540 -0.2421  0.6791  0.3404
28084SOL     OW88707   8.905   1.652   6.951  0.0695  0.0273 -0.7627
28084SOL    HW188708   8.958   1.610   6.883  1.5534  1.0538 -0.2881
28084SOL    HW288709   8.955   1.641   7.031  0.2818  2.2233 -0.5391
28085SOL     OW88710   7.276   4.459   5.435  0.2565  0.2043 -0.2461
28085SOL    HW188711   7.344   4.406   5.393  0.7567  0.6411  0.0025
28085SOL    HW288712   7.215   4.480   5.364 -1.0810 -2.3720  0.0053
28086SOL     OW88713   8.235   9.110   9.057  0.2277  0.0486 -0.0866
28086SOL    HW188714   8.166   9.045   9.045 -0.8647  1.5730 -3.2435
28086SOL    HW288715   8.194   9.193   9.032  2.7527  1.2630 -0.4960
28087SOL     OW88716   6.827   1.779  10.715 -0.0073  0.0100  0.4773
28087SOL    HW188717   6.874   1.744  10.792  0.9284 -0.4618 -0.2857
28087SOL    HW288718   6.894   1.826  10.666  0.6165 -3.3998 -2.3397
28088SOL     OW88719   3.263   1.853   9.846  0.3258 -0.4443  0.3160
28088SOL    HW188720   3.336   1.913   9.830  0.8401 -1.3724 -1.0866
28088SOL    HW288721   3.210   1.857   9.767  0.5200 -1.9888  0.0651
28089SOL     OW88722  10.103   7.298   1.755  0.2037  0.3795  0.1947
28089SOL    HW188723  10.147   7.378   1.783  1.0058 -0.2225  0.6777
28089SOL    HW288724  10.044   7.276   1.827 -2.2728  2.1078 -1.1129
28090SOL     OW88725   7.451   6.460   3.254 -0.0280  0.0792  0.0933
28090SOL    HW188726   7.379   6.420   3.303  0.5652 -0.7956  0.2635
28090SOL    HW288727   7.446   6.553   3.276 -0.5845 -0.1049  0.7747
28091SOL     OW88728   3.529   4.958   9.711 -0.1599  0.3364  0.1571
28091SOL    HW188729   3.592   4.887   9.698  0.5821  1.0745 -0.3637
28091SOL    HW288730   3.533   4.977   9.805  0.0300  0.0527  0.2071
28092SOL     OW88731   2.185   5.210   0.597  0.0208 -0.1528  0.1234
28092SOL    HW188732   2.174   5.270   0.670 -0.4746 -0.1856  0.0769
28092SOL    HW288733   2.259   5.245   0.548  0.3959 -0.1617  0.6694
28093SOL     OW88734  10.308  10.097   1.220  0.1803  0.6602 -0.4296
28093SOL    HW188735  10.360  10.020   1.243  0.0060  1.2493  2.2527
28093SOL    HW288736  10.367  10.171   1.237 -0.5485  1.2173 -0.2940
28094SOL     OW88737   8.644   4.161   8.302 -0.0667 -0.1878  0.8462
28094SOL    HW188738   8.643   4.159   8.206  1.9560  0.8778  0.7489
28094SOL    HW288739   8.555   4.184   8.326 -0.1945  1.3663 -0.8757
28095SOL     OW88740   3.800   4.303   0.283 -0.5190 -0.1068  0.5827
28095SOL    HW188741   3.725   4.306   0.343  0.2003  1.4352  1.4658
28095SOL    HW288742   3.876   4.295   0.341  0.0641 -0.5512 -0.2416
28096SOL     OW88743   5.047  10.351   0.280  0.6821 -0.0074 -0.3410
28096SOL    HW188744   5.068  10.269   0.236 -0.7421 -0.3836 -0.3594
28096SOL    HW288745   5.070  10.336   0.372  0.4893 -0.3934 -0.3579
28097SOL     OW88746   2.331   7.982   4.640 -0.6030 -0.7725 -0.0473
28097SOL    HW188747   2.424   8.002   4.645 -0.6451 -0.7117  0.5880
28097SOL    HW288748   2.288   8.053   4.687 -0.9297 -1.0906  0.1470
28098SOL     OW88749   1.545   8.806   6.950  0.4938 -0.2459 -0.3662
28098SOL    HW188750   1.524   8.848   7.034 -0.8530 -1.8373  0.1399
28098SOL    HW288751   1.469   8.823   6.895  1.4558  0.9584 -1.3820
28099SOL     OW88752   6.723   0.581   0.949  0.4011  0.4626 -0.3743
28099SOL    HW188753   6.800   0.606   0.899  1.4573  0.7970  1.3369
28099SOL    HW288754   6.747   0.498   0.990 -1.0480 -0.6492 -1.6433
28100SOL     OW88755   4.056   1.532   9.618  0.5470 -0.2835 -0.3640
28100SOL    HW188756   4.145   1.498   9.628 -0.0234 -1.6863  0.2239
28100SOL    HW288757   4.017   1.524   9.705  0.1739  1.3510 -0.3523
28101SOL     OW88758   1.936   4.014   6.126 -0.2719  0.5712  0.2637
28101SOL    HW188759   1.875   3.941   6.136  0.2687 -0.0526 -0.8332
28101SOL    HW288760   1.901   4.065   6.053  0.9443 -0.2704 -0.9543
28102SOL     OW88761   9.891   5.174   1.066 -0.2476 -0.0502  0.0571
28102SOL    HW188762   9.931   5.187   1.152 -1.5786 -1.1678  0.8829
28102SOL    HW288763   9.961   5.135   1.013  0.8965  1.5633  0.2891
28103SOL     OW88764   1.619  10.798   7.799 -0.2930  0.1975 -0.0505
28103SOL    HW188765   1.642  10.706   7.815 -1.4479  0.0518  0.8455
28103SOL    HW288766   1.549  10.793   7.734  1.4041  0.5947 -2.0092
28104SOL     OW88767   4.905   2.668  10.327  0.1278  0.6735  0.4648
28104SOL    HW188768   4.821   2.706  10.352  0.2921  0.5780  1.1665
28104SOL    HW288769   4.894   2.574  10.340 -0.1949  0.4697 -1.0312
28105SOL     OW88770   4.089   5.925   8.102 -0.0926  0.2430  0.3096
28105SOL    HW188771   4.092   6.012   8.063 -0.0576  0.0367 -0.1581
28105SOL    HW288772   4.019   5.930   8.168 -1.2681  0.1562 -0.8948
28106SOL     OW88773   0.166   1.974   0.090  0.7492  0.2387  0.5799
28106SOL    HW188774   0.195   1.926   0.012  1.9585 -1.3115  1.8965
28106SOL    HW288775   0.071   1.962   0.091  1.0143 -2.7588  1.1308
28107SOL     OW88776   8.838   2.345   8.637 -0.0988  0.3401  0.5034
28107SOL    HW188777   8.798   2.306   8.716  1.7640 -1.5289  0.6097
28107SOL    HW288778   8.911   2.397   8.671  0.4451 -0.1219  0.0538
28108SOL     OW88779   2.024   6.329   7.018 -0.2355 -0.1221  0.4713
28108SOL    HW188780   1.973   6.322   7.098 -0.7501  0.4142  0.1969
28108SOL    HW288781   1.964   6.366   6.954  0.0587 -0.9024 -0.2749
28109SOL     OW88782   0.376   7.331   6.224 -0.4405 -0.5358 -0.6179
28109SOL    HW188783   0.348   7.392   6.293 -0.7959 -0.9672 -0.3720
28109SOL    HW288784   0.350   7.245   6.257  2.8476 -1.2386  0.5044
28110SOL     OW88785   1.988   8.451   9.187 -0.4619 -0.1544 -0.8749
28110SOL    HW188786   2.038   8.533   9.193 -0.9007  0.3207 -2.8947
28110SOL    HW288787   1.899   8.475   9.212  0.0071 -0.7789  1.7070
28111SOL     OW88788   5.360   6.381   1.596  0.1988  0.0667  0.0410
28111SOL    HW188789   5.284   6.421   1.553  0.3709 -0.6002 -0.9215
28111SOL    HW288790   5.329   6.358   1.684 -0.1238  1.5809  0.3454
28112SOL     OW88791  10.160   0.534   7.643  0.6096  0.0524 -0.1762
28112SOL    HW188792  10.212   0.516   7.722 -0.0617 -0.2213  0.2094
28112SOL    HW288793  10.072   0.550   7.676  0.3488  0.0564 -0.8715
28113SOL     OW88794   3.506   7.516   5.199  0.0183 -0.7527 -0.1591
28113SOL    HW188795   3.418   7.548   5.180 -0.2625  0.4750  2.7060
28113SOL    HW288796   3.516   7.529   5.293  2.5585 -2.7065 -0.0543
28114SOL     OW88797   6.368   9.070   7.980 -0.2405 -0.3781  0.3165
28114SOL    HW188798   6.285   9.095   7.941  0.6652  1.1552 -0.7236
28114SOL    HW288799   6.382   9.133   8.050  0.5530  0.1045 -0.2509
28115SOL     OW88800   2.301   7.439   5.860  0.0351 -0.7183  0.1025
28115SOL    HW188801   2.285   7.351   5.894  0.1720 -0.6819  0.2657
28115SOL    HW288802   2.234   7.452   5.794  0.7432 -1.4102 -0.7921
28116SOL     OW88803   0.725  11.018   0.325 -0.4250  0.0018 -0.2813
28116SOL    HW188804   0.637  11.055   0.323 -1.3115 -1.9836 -0.1841
28116SOL    HW288805   0.729  10.960   0.249  0.2138 -1.1639  0.6063
28117SOL     OW88806   4.488   4.115   3.646  0.3487  0.4352  0.2724
28117SOL    HW188807   4.548   4.039   3.647  0.0604  0.1897 -0.5987
28117SOL    HW288808   4.412   4.085   3.696  0.0380 -0.0194 -0.4651
28118SOL     OW88809   4.055   8.055   0.980  0.1273 -0.0798  0.6353
28118SOL    HW188810   3.979   8.091   0.934  0.5870  0.3831  0.2134
28118SOL    HW288811   4.020   7.985   1.034 -0.6548  0.3737  0.7332
28119SOL     OW88812   8.261   6.829   0.226 -0.3022 -0.0945  0.5444
28119SOL    HW188813   8.207   6.908   0.228  0.4564  0.4169  1.0677
28119SOL    HW288814   8.340   6.851   0.275  0.6957 -0.6162 -0.7571
28120SOL     OW88815   5.493   4.878   5.737 -0.3302  0.6601 -0.2737
28120SOL    HW188816   5.524   4.961   5.701  0.2337  0.4933 -0.1790
28120SOL    HW288817   5.565   4.817   5.723  0.0080  0.6381  1.3283
28121SOL     OW88818   9.414  10.721   8.150 -0.0528  0.3204  0.1660
28121SOL    HW188819   9.460  10.804   8.143  1.1245 -0.3878 -0.9410
28121SOL    HW288820   9.325  10.745   8.176 -0.1745  2.0643 -1.6241
28122SOL     OW88821   4.173   8.018   4.640 -0.0500  0.8437 -0.2682
28122SOL    HW188822   4.087   8.033   4.679  0.4464  2.0865  0.4018
28122SOL    HW288823   4.235   8.049   4.706  0.8406  2.4561 -1.7944
28123SOL     OW88824   9.956   4.412   8.154  0.3046 -0.3980  0.0009
28123SOL    HW188825   9.917   4.371   8.231 -1.3239  0.2492 -0.4324
28123SOL    HW288826   9.979   4.338   8.097 -3.2549 -0.8681 -1.0895
28124SOL     OW88827   3.747   5.117   7.953 -0.0485 -0.2599 -0.1734
28124SOL    HW188828   3.773   5.200   7.994  0.1345  0.3480 -1.4712
28124SOL    HW288829   3.824   5.089   7.904 -0.8447  0.0113 -1.6259
28125SOL     OW88830   3.172  11.075   7.127 -0.5308 -0.0591  0.1413
28125SOL    HW188831   3.158  11.028   7.045  1.0516 -1.0800  0.4004
28125SOL    HW288832   3.189  11.165   7.101 -0.5432 -0.2664 -0.6159
28126SOL     OW88833   8.184   4.475   2.405  0.4403  0.2079 -0.2051
28126SOL    HW188834   8.095   4.482   2.440 -0.2560  3.6092 -2.2931
28126SOL    HW288835   8.172   4.457   2.312  1.6746  3.8025 -1.2114
28127SOL     OW88836   6.407   3.033   5.343 -0.1022  0.2155 -0.1300
28127SOL    HW188837   6.338   3.001   5.285 -0.1912  0.3329 -0.0921
28127SOL    HW288838   6.424   2.961   5.403 -0.8942  0.5164  0.4887
28128SOL     OW88839   4.999   9.688   8.876  0.8474 -0.3537 -0.2478
28128SOL    HW188840   4.906   9.683   8.896  0.8957 -0.0808  0.0707
28128SOL    HW288841   5.033   9.601   8.897  0.8860 -0.0875  0.8565
28129SOL     OW88842   6.803   9.944   8.129  0.3366  0.4130 -0.0066
28129SOL    HW188843   6.811  10.032   8.091  0.6713  0.2354 -0.3598
28129SOL    HW288844   6.859   9.889   8.074 -1.4652 -0.4336 -1.0920
28130SOL     OW88845   1.733   6.672   7.540 -0.0462  0.3022 -0.1165
28130SOL    HW188846   1.705   6.756   7.576 -1.7284  0.0543 -0.7365
28130SOL    HW288847   1.661   6.613   7.560 -0.2454 -0.2600 -2.3087
28131SOL     OW88848   0.745   7.602   5.690 -0.4495 -0.4022 -0.0540
28131SOL    HW188849   0.733   7.593   5.596 -0.7913  0.8895 -0.1533
28131SOL    HW288850   0.657   7.613   5.725 -0.2438  0.2140  0.2829
28132SOL     OW88851   6.479   3.303   9.934  0.3230  0.6222  0.4515
28132SOL    HW188852   6.416   3.327   9.867 -0.2499  0.7256  1.0101
28132SOL    HW288853   6.549   3.369   9.927  0.8775 -0.0627 -0.8154
28133SOL     OW88854   3.321   4.091   3.911  0.0195 -0.0294 -0.1603
28133SOL    HW188855   3.311   4.093   4.006  1.6792 -1.7174  0.1155
28133SOL    HW288856   3.234   4.065   3.879 -0.2810 -0.4840  0.9572
28134SOL     OW88857   0.216   8.392   9.823  0.5256 -0.0372  0.2498
28134SOL    HW188858   0.167   8.352   9.894  0.5221  1.1144  0.9229
28134SOL    HW288859   0.301   8.413   9.861  1.1415 -0.9411 -0.5776
28135SOL     OW88860  10.061   1.096   8.251  0.2757  0.0576 -0.6693
28135SOL    HW188861  10.044   1.111   8.158 -1.0281  0.4223 -0.3941
28135SOL    HW288862  10.008   1.163   8.296  0.3650 -0.5366  0.3490
28136SOL     OW88863   1.873   1.898   9.338 -0.1544 -0.2010 -0.0784
28136SOL    HW188864   1.836   1.848   9.411  0.3909 -1.3103 -0.5508
28136SOL    HW288865   1.832   1.861   9.260  0.5706 -0.1923 -0.4696
28137SOL     OW88866   8.364   0.357   1.869  0.0343  0.0885 -0.2677
28137SOL    HW188867   8.387   0.331   1.779  0.6378 -0.1175 -0.0547
28137SOL    HW288868   8.431   0.318   1.924  0.1311  0.8962  0.2060
28138SOL     OW88869   1.173   8.140   4.082 -0.0396 -0.1778 -0.4525
28138SOL    HW188870   1.163   8.083   4.006  0.2278  0.4338 -0.9598
28138SOL    HW288871   1.261   8.176   4.075 -0.3840  0.7117 -0.4520
28139SOL     OW88872   5.102   6.398  10.816  0.5289 -0.8477 -0.2347
28139SOL    HW188873   5.069   6.324  10.867  0.5232  0.3551  1.6014
28139SOL    HW288874   5.192   6.411  10.848  1.9763 -2.3809 -3.2525
28140SOL     OW88875   3.286   5.658   2.856 -0.3763 -0.2110 -0.1498
28140SOL    HW188876   3.338   5.658   2.775 -0.9485  1.3876 -0.5587
28140SOL    HW288877   3.329   5.594   2.912  0.5076 -0.7770 -1.4275
28141SOL     OW88878   8.459   5.221   0.635  0.1240  0.1683 -0.7381
28141SOL    HW188879   8.445   5.289   0.570 -0.7185  0.4622 -0.2666
28141SOL    HW288880   8.419   5.142   0.597 -0.4651  0.3652 -0.5412
28142SOL     OW88881   0.091   2.820   7.974 -0.0772 -0.0599 -0.0471
28142SOL    HW188882   0.123   2.879   7.906 -1.7899  0.2561 -0.6148
28142SOL    HW288883   0.005   2.854   7.997 -0.1341 -1.0114  1.2651
28143SOL     OW88884   6.276   1.685   9.157  0.4132 -0.2566  0.0608
28143SOL    HW188885   6.299   1.678   9.250  0.1521 -3.0285 -0.0144
28143SOL    HW288886   6.358   1.709   9.114  0.4054  1.7041  1.0161
28144SOL     OW88887   8.487   2.930   6.159  0.0093 -0.2055 -0.1248
28144SOL    HW188888   8.547   2.895   6.092 -1.0688 -0.7928 -0.8180
28144SOL    HW288889   8.427   2.987   6.110  0.1661  0.5831  0.6008
28145SOL     OW88890   1.500   7.294   2.986 -0.3143 -0.3349  0.8643
28145SOL    HW188891   1.407   7.278   2.969  0.3625 -2.3528 -1.5927
28145SOL    HW288892   1.538   7.207   2.996  1.1408  0.5072  3.2675
28146SOL     OW88893   6.377  10.415   8.461 -0.0654  0.5239 -0.0027
28146SOL    HW188894   6.417  10.329   8.445 -1.0791  0.2110 -1.0056
28146SOL    HW288895   6.390  10.431   8.554 -1.1888 -1.4173  0.5385
28147SOL     OW88896   5.583   3.071   0.317 -0.4742 -0.7577 -0.2984
28147SOL    HW188897   5.552   2.981   0.311 -0.2460 -0.8066 -0.8085
28147SOL    HW288898   5.608   3.094   0.227 -1.9532  0.3282 -0.4809
28148SOL     OW88899  10.005   3.225   2.412 -0.6968  0.0802  0.4003
28148SOL    HW188900   9.984   3.318   2.400  0.7035  0.3995  0.2800
28148SOL    HW288901  10.066   3.223   2.485  0.0378 -0.6407 -0.2101
28149SOL     OW88902   2.431   5.882   2.283 -0.4413 -0.0684  0.4807
28149SOL    HW188903   2.407   5.894   2.375 -0.0784  0.0372  0.5644
28149SOL    HW288904   2.521   5.849   2.286  0.1697  1.4650  0.1302
28150SOL     OW88905   6.397   4.980   7.524 -0.0846 -0.5664 -0.2097
28150SOL    HW188906   6.396   5.039   7.449 -0.4075  0.2557  0.4239
28150SOL    HW288907   6.323   4.921   7.509  1.0900 -1.7580 -1.5594
28151SOL     OW88908   3.094   7.237   4.078  0.6795 -0.5209  0.3425
28151SOL    HW188909   3.073   7.154   4.036  0.5959 -0.0321 -0.5886
28151SOL    HW288910   3.010   7.274   4.102  0.5481  0.3958 -1.3927
28152SOL     OW88911   7.360   8.795   7.778  0.0794  0.2523  0.0145
28152SOL    HW188912   7.357   8.891   7.769  1.0715  0.2946 -0.0402
28152SOL    HW288913   7.453   8.776   7.788 -0.1481 -0.6796  0.4053
28153SOL     OW88914   4.363   8.012   4.899  0.0084  0.7528  0.3848
28153SOL    HW188915   4.340   7.926   4.865  0.1279  1.2090 -0.9459
28153SOL    HW288916   4.456   8.005   4.922  0.0510  0.5607  0.1538
28154SOL     OW88917   9.347   7.370   1.383 -0.0236  0.0785  0.1300
28154SOL    HW188918   9.266   7.325   1.360  1.2460 -1.0380 -2.6337
28154SOL    HW288919   9.389   7.313   1.448 -0.2512 -0.7026 -0.4007
28155SOL     OW88920   8.376   3.360   7.775 -0.1434  0.1111 -0.2940
28155SOL    HW188921   8.432   3.285   7.754 -0.5435  0.0708 -1.2415
28155SOL    HW288922   8.434   3.435   7.773  0.2983 -0.1771  0.8302
28156SOL     OW88923  11.015   6.195   4.021  0.1848  0.2327 -0.8528
28156SOL    HW188924  11.096   6.172   3.976  1.0327 -0.5226  0.9288
28156SOL    HW288925  10.962   6.115   4.019  1.7953 -1.1330  2.5619
28157SOL     OW88926   2.841   6.800   1.183 -0.4477  0.3692 -0.2820
28157SOL    HW188927   2.786   6.748   1.125  0.3372 -1.5157  0.5616
28157SOL    HW288928   2.892   6.856   1.125 -0.5689 -0.5751 -1.3154
28158SOL     OW88929   7.463   4.767   8.649  0.1829  0.5802 -0.1015
28158SOL    HW188930   7.418   4.683   8.643 -1.3148  1.2048  1.5780
28158SOL    HW288931   7.489   4.786   8.558 -0.4414 -1.1367 -0.6841
28159SOL     OW88932   0.658   2.795   5.534  0.3501  0.3077 -0.2025
28159SOL    HW188933   0.723   2.825   5.598 -0.7830  0.3892  0.9479
28159SOL    HW288934   0.655   2.866   5.469  0.5609  0.8670  0.3793
28160SOL     OW88935   6.168   0.199   1.444 -0.2142 -0.1386  0.1597
28160SOL    HW188936   6.207   0.112   1.440 -0.1424 -0.1024  0.0687
28160SOL    HW288937   6.226   0.249   1.501 -1.4061 -0.7444  2.0070
28161SOL     OW88938   7.981   2.640   0.292  0.3766 -0.4289  0.0018
28161SOL    HW188939   7.923   2.703   0.251  1.8999  1.7660  1.0087
28161SOL    HW288940   8.031   2.603   0.219 -0.5435 -0.4916 -0.6085
28162SOL     OW88941   5.351   5.230   7.015 -0.3247  0.2437 -0.3000
28162SOL    HW188942   5.281   5.269   7.068 -0.1268 -0.0283  0.1657
28162SOL    HW288943   5.334   5.136   7.020 -0.7511  0.2555 -1.3541
28163SOL     OW88944  10.956   2.891   8.895 -0.1277 -0.1634  0.7103
28163SOL    HW188945  10.952   2.986   8.898  0.8626 -0.1387  1.8450
28163SOL    HW288946  10.892   2.861   8.960  1.1787 -0.2006  2.0264
28164SOL     OW88947   3.456   3.158   8.249  0.8486 -0.6030 -0.0247
28164SOL    HW188948   3.535   3.180   8.200  0.8357 -2.0338 -0.7507
28164SOL    HW288949   3.462   3.211   8.328  1.7192  0.5148 -0.7977
28165SOL     OW88950   9.072  10.394   6.349 -0.2883  0.3117  0.0897
28165SOL    HW188951   9.003  10.328   6.345  1.1050 -1.2645  0.7235
28165SOL    HW288952   9.042  10.455   6.417 -1.0936 -0.2986  0.3028
28166SOL     OW88953   8.066  10.619   0.862 -0.1913  0.1296 -0.0390
28166SOL    HW188954   8.103  10.584   0.781  0.6582 -0.0674  0.4300
28166SOL    HW288955   8.141  10.639   0.918 -0.6758  1.9739  0.0302
28167SOL     OW88956   3.198   3.429   1.994 -0.0877  0.5721  0.3823
28167SOL    HW188957   3.134   3.361   1.975 -0.4217  0.7431  0.8898
28167SOL    HW288958   3.271   3.410   1.935 -0.4641  0.1826  0.0333
28168SOL     OW88959   8.719   4.182   0.579 -0.0643 -0.4791  0.1362
28168SOL    HW188960   8.693   4.256   0.525 -1.2948 -0.5970  0.5339
28168SOL    HW288961   8.690   4.205   0.668  2.9779  0.2412  1.0559
28169SOL     OW88962  11.023   8.425   8.161 -0.4179  0.1838 -0.3515
28169SOL    HW188963  11.078   8.463   8.093  1.1084 -0.0999  0.6785
28169SOL    HW288964  10.937   8.415   8.120  0.4596  0.0057 -2.2260
28170SOL     OW88965   5.078   0.933   0.361 -0.3505  0.5930  0.4611
28170SOL    HW188966   5.049   0.848   0.329 -0.1534  1.0905 -1.1154
28170SOL    HW288967   5.173   0.931   0.353 -0.2820  0.6991  1.1460
28171SOL     OW88968   9.223   4.870   7.593  0.0304  0.0974 -0.0058
28171SOL    HW188969   9.306   4.884   7.549 -0.6696 -1.0457 -1.8148
28171SOL    HW288970   9.168   4.944   7.568  0.2960  0.5307  0.6793
28172SOL     OW88971   1.699   7.088   5.765 -0.2378  0.6111  0.1539
28172SOL    HW188972   1.683   6.993   5.762  0.9745  0.3186  1.5706
28172SOL    HW288973   1.622   7.123   5.811  0.7301 -0.1415  2.5023
28173SOL     OW88974   9.717   3.159   0.774  0.1418  0.2459  0.1004
28173SOL    HW188975   9.694   3.239   0.821  0.3018  0.8183 -0.7602
28173SOL    HW288976   9.801   3.132   0.812  0.5316  0.9968 -0.2041
28174SOL     OW88977   3.718   2.332   5.147 -0.8451 -0.5536 -0.1970
28174SOL    HW188978   3.701   2.319   5.054 -0.0070 -1.4244 -0.2391
28174SOL    HW288979   3.635   2.309   5.190 -1.3869  0.3166 -0.7365
28175SOL     OW88980   9.766   9.534   8.461 -0.2931 -0.3156 -0.7044
28175SOL    HW188981   9.758   9.441   8.480  2.1523 -0.5073 -0.3656
28175SOL    HW288982   9.731   9.577   8.540 -0.5292 -0.9455 -0.4574
28176SOL     OW88983   8.195   5.944  10.072 -0.0215  0.3041 -0.0271
28176SOL    HW188984   8.161   5.966   9.985  1.0780  1.3220 -0.2309
28176SOL    HW288985   8.288   5.929  10.058 -0.1361 -1.3230  0.6996
28177SOL     OW88986   3.836   4.776  10.723  0.4898  0.1383  0.2620
28177SOL    HW188987   3.814   4.767  10.816 -0.7295  0.3683  0.0180
28177SOL    HW288988   3.763   4.736  10.677 -0.1613  2.1878 -0.6332
28178SOL     OW88989   5.924   1.113   2.509  0.7110  0.2405 -0.1628
28178SOL    HW188990   5.892   1.158   2.431 -0.6369 -0.9469 -0.3351
28178SOL    HW288991   5.978   1.041   2.476  0.3754 -0.0900  0.0083
28179SOL     OW88992  10.771  10.057   0.175 -0.5977  0.1193 -0.1652
28179SOL    HW188993  10.849  10.005   0.159  0.6857  1.5276  1.2887
28179SOL    HW288994  10.727  10.014   0.248  0.5584  1.1207  1.1565
28180SOL     OW88995   2.121   8.819   5.616 -0.1703 -0.6026  0.2490
28180SOL    HW188996   2.077   8.841   5.534  0.5119 -1.3512 -0.3329
28180SOL    HW288997   2.180   8.893   5.631 -1.0529  0.0367  0.6313
28181SOL     OW88998   0.541   8.412  10.507  0.1885 -0.0104  0.0307
28181SOL    HW188999   0.514   8.342  10.448 -0.1585  0.9590 -0.9818
28181SOL    HW289000   0.636   8.415  10.499  0.5039 -2.0840  2.0768
28182SOL     OW89001   7.701   0.778   4.306 -0.1121 -0.4191  0.5137
28182SOL    HW189002   7.791   0.757   4.284  0.2580  1.5002  0.0204
28182SOL    HW289003   7.705   0.810   4.396 -0.3492 -0.6640  0.6110
28183SOL     OW89004  10.913   0.442   7.836  0.0760 -0.3033 -0.1394
28183SOL    HW189005  10.885   0.351   7.851  0.8798 -0.2399  2.0618
28183SOL    HW289006  10.832   0.493   7.841 -0.5442 -0.9400 -2.4521
28184SOL     OW89007   1.656   7.688   3.255 -0.1797  0.1333 -0.4689
28184SOL    HW189008   1.749   7.690   3.275 -0.0256 -1.6246 -0.8326
28184SOL    HW289009   1.614   7.652   3.333 -0.4787  0.3487 -0.5267
28185SOL     OW89010   9.731   0.267   7.227 -0.4798  0.5515  0.5783
28185SOL    HW189011   9.739   0.173   7.244 -2.7132  0.1029 -0.3834
28185SOL    HW289012   9.766   0.279   7.139 -1.3181  0.3460  0.1988
28186SOL     OW89013   4.915   4.010   0.516 -0.3359  0.5805 -0.0128
28186SOL    HW189014   4.984   4.074   0.498  0.5679 -0.0535  1.0392
28186SOL    HW289015   4.957   3.925   0.503 -0.3267  0.1382  2.4558
28187SOL     OW89016  10.070   6.911   3.639  0.0851 -0.2071  0.3526
28187SOL    HW189017  10.029   6.833   3.602  0.3376 -0.4858  0.6537
28187SOL    HW289018  10.100   6.883   3.726 -1.6807  0.7713  1.3555
28188SOL     OW89019   2.862   5.488   2.715  0.2669 -0.0154 -0.4352
28188SOL    HW189020   2.909   5.536   2.646  0.2636  0.5549 -0.0516
28188SOL    HW289021   2.902   5.519   2.797  2.0636 -2.5701 -0.2260
28189SOL     OW89022   1.512   0.643   8.957 -0.2446  0.0639 -0.6108
28189SOL    HW189023   1.545   0.556   8.980  0.4169  0.3687 -0.3778
28189SOL    HW289024   1.428   0.627   8.914 -2.0682 -0.5519  2.7705
28190SOL     OW89025   2.114   6.387   3.398 -0.2114  0.5575  0.3310
28190SOL    HW189026   2.201   6.359   3.427 -0.9654 -2.1605  0.2378
28190SOL    HW289027   2.128   6.422   3.310  0.6136 -1.4756 -0.4026
28191SOL     OW89028   6.115   8.727   7.869 -0.0461  0.1840 -0.4709
28191SOL    HW189029   6.065   8.649   7.844 -0.2408  0.3504 -0.5965
28191SOL    HW289030   6.068   8.763   7.944  0.0406  0.1864 -0.4181
28192SOL     OW89031   5.915   3.694   4.933 -0.3759  0.2482 -0.0649
28192SOL    HW189032   5.825   3.719   4.914 -0.3110 -0.5667 -1.5201
28192SOL    HW289033   5.968   3.759   4.887 -0.1992  0.6150  0.6350
28193SOL     OW89034   3.664   5.587  10.341  0.6029 -0.0917 -0.1509
28193SOL    HW189035   3.708   5.507  10.314  0.5891  0.1499 -0.9179
28193SOL    HW289036   3.572   5.571  10.322  0.6773  0.3377 -0.9168
28194SOL     OW89037   6.177   9.167   6.943 -0.3171 -0.0700  0.2782
28194SOL    HW189038   6.252   9.111   6.961  1.5198  1.0674 -3.0528
28194SOL    HW289039   6.111   9.108   6.907  0.9001 -0.4356 -1.4453
28195SOL     OW89040   3.911   9.020   8.264  0.0898  0.3311 -0.2738
28195SOL    HW189041   3.834   9.030   8.319 -1.0473  0.9119 -1.8770
28195SOL    HW289042   3.919   9.105   8.219  1.4188  0.1385 -0.4357
28196SOL     OW89043   0.463   5.581   0.823  0.5233 -0.0968  0.0749
28196SOL    HW189044   0.452   5.593   0.917 -1.8957  0.6522 -0.2484
28196SOL    HW289045   0.379   5.605   0.785  1.6954  0.4732 -2.3802
28197SOL     OW89046   9.776  10.369   2.697  0.2907 -0.0681  0.1576
28197SOL    HW189047   9.752  10.462   2.693  0.1544 -0.0142  1.7573
28197SOL    HW289048   9.730  10.330   2.623  0.3925  1.1398 -0.5829
28198SOL     OW89049   3.312   9.900   3.472  0.1979  0.1171  0.2037
28198SOL    HW189050   3.259   9.959   3.419  0.9615  0.7403  0.1010
28198SOL    HW289051   3.397   9.897   3.427  1.4261  1.9275  2.1546
28199SOL     OW89052   6.257   4.255   4.996  0.2090 -0.3786  0.1646
28199SOL    HW189053   6.216   4.170   5.012 -0.3723 -0.1724 -0.2260
28199SOL    HW289054   6.341   4.250   5.042 -0.5244 -0.5666  1.5203
28200SOL     OW89055   0.587   4.070   7.582  0.5417  0.8574 -0.1097
28200SOL    HW189056   0.668   4.020   7.597  0.7821  1.1449 -0.4378
28200SOL    HW289057   0.564   4.104   7.669  0.1981 -0.0829  0.1813
28201SOL     OW89058   5.989   6.302   6.412 -0.4214  0.2092 -0.5874
28201SOL    HW189059   5.978   6.361   6.487 -0.6264  0.9537 -1.1913
28201SOL    HW289060   5.963   6.354   6.337 -4.2797 -1.7710 -0.8426
28202SOL     OW89061   9.791   6.368   7.142 -0.5573  0.5074  0.2685
28202SOL    HW189062   9.735   6.324   7.078 -0.9893 -1.1502  1.6965
28202SOL    HW289063   9.730   6.410   7.203 -0.2188  0.3770  0.7069
28203SOL     OW89064   3.330   6.310   9.570 -0.1359  0.1311 -0.1204
28203SOL    HW189065   3.261   6.355   9.618  1.2155 -0.2247  2.2960
28203SOL    HW289066   3.296   6.221   9.558  0.2632 -0.3585  2.0108
28204SOL     OW89067   0.752   6.123   9.165 -0.7701 -0.3398 -0.1228
28204SOL    HW189068   0.773   6.185   9.235  0.6138 -0.2652 -0.5711
28204SOL    HW289069   0.686   6.167   9.112  0.0754  0.7044 -0.3460
28205SOL     OW89070   5.720   5.981   0.402 -0.3394  0.0805 -0.5516
28205SOL    HW189071   5.737   5.945   0.315 -0.5904  0.2924 -0.6900
28205SOL    HW289072   5.793   6.041   0.418 -1.1499  1.3320 -1.3333
28206SOL     OW89073   5.947   2.056   1.233  0.1514  0.2534  0.0185
28206SOL    HW189074   5.905   2.074   1.317 -1.0514  2.1279 -0.9177
28206SOL    HW289075   6.028   2.011   1.256 -0.9047 -0.7337  2.0711
28207SOL     OW89076   3.790   1.934   0.438  0.8167 -0.0292 -0.1611
28207SOL    HW189077   3.841   2.010   0.467  0.8436  0.3177 -1.0656
28207SOL    HW289078   3.704   1.947   0.477 -0.0618  1.9730 -2.4597
28208SOL     OW89079   3.032   3.684   9.777 -0.3865 -0.4612 -0.1901
28208SOL    HW189080   3.019   3.616   9.844  0.7119  0.0375  0.5678
28208SOL    HW289081   2.943   3.713   9.756 -0.7918 -0.9813  0.6888
28209SOL     OW89082   1.050   3.155   3.402  0.0937 -0.8957 -0.2525
28209SOL    HW189083   1.012   3.104   3.474  0.3340 -0.9580 -0.1691
28209SOL    HW289084   0.974   3.187   3.353 -0.0808 -0.4269  0.3195
28210SOL     OW89085  10.217   3.575   3.316 -0.0804  0.3726 -0.1284
28210SOL    HW189086  10.126   3.606   3.315  0.1277  0.9984 -1.3681
28210SOL    HW289087  10.252   3.600   3.231  0.8276 -1.1952 -0.2527
28211SOL     OW89088  10.789  11.059   8.235  0.0452  0.5168 -0.5340
28211SOL    HW189089  10.824  11.138   8.194 -0.0864  0.3026 -1.0690
28211SOL    HW289090  10.850  10.990   8.209 -0.7194  0.1557 -1.3984
28212SOL     OW89091   3.315   0.261   4.380 -0.0573 -0.2217  0.0126
28212SOL    HW189092   3.401   0.300   4.366  0.3635 -0.2647  2.0691
28212SOL    HW289093   3.262   0.333   4.415 -1.1078 -0.0187 -1.8661
28213SOL     OW89094   4.744  10.254   9.107 -0.2970 -0.7014  0.1279
28213SOL    HW189095   4.729  10.293   9.021  2.8480 -2.8381 -1.5968
28213SOL    HW289096   4.768  10.328   9.163 -2.4679  0.7443 -0.7405
28214SOL     OW89097   3.664   0.834   8.203  0.0897  0.0520 -0.1972
28214SOL    HW189098   3.702   0.843   8.116 -0.0376 -0.4328 -0.3010
28214SOL    HW289099   3.574   0.867   8.194 -0.3653 -1.2556 -0.5720
28215SOL     OW89100   6.978   7.756  10.437 -0.3007 -0.3542  0.8231
28215SOL    HW189101   6.996   7.774  10.344 -0.9101 -0.0224  0.7583
28215SOL    HW289102   6.903   7.812  10.457 -1.3065 -1.7314  1.0351
28216SOL     OW89103   1.513   2.140   8.169 -0.3253  0.2578  0.5892
28216SOL    HW189104   1.462   2.098   8.101  0.6812  0.2678 -0.2008
28216SOL    HW289105   1.592   2.087   8.176 -0.4403  0.2151  1.8133
28217SOL     OW89106   3.011  10.899   9.981 -0.2030 -0.6087 -0.8600
28217SOL    HW189107   3.018  10.812  10.020 -0.6403 -0.4498 -0.4312
28217SOL    HW289108   2.979  10.955  10.051  0.0016 -0.1125 -1.1554
28218SOL     OW89109   9.985   4.879   8.174  0.1452 -0.0728 -0.1768
28218SOL    HW189110   9.930   4.915   8.105  0.3888 -0.5497 -0.6281
28218SOL    HW289111  10.026   4.955   8.215  0.1153  0.2056 -0.6565
28219SOL     OW89112   1.802  11.010   6.780  0.0265  0.0474  0.2969
28219SOL    HW189113   1.736  11.079   6.781  0.6475  0.6719  2.1644
28219SOL    HW289114   1.886  11.056   6.790  0.5930 -0.8501 -0.1790
28220SOL     OW89115   9.142   2.002  10.675 -0.3246  0.0148 -0.1485
28220SOL    HW189116   9.184   2.001  10.589 -1.6496 -0.3571 -0.8247
28220SOL    HW289117   9.082   2.076  10.671 -2.3197 -1.5212 -0.5631
28221SOL     OW89118   9.173   6.740   1.282  0.4598 -0.3343  0.1814
28221SOL    HW189119   9.234   6.698   1.342  0.6891  0.3477  0.4281
28221SOL    HW289120   9.225   6.757   1.203  0.0241 -1.7320 -0.4504
28222SOL     OW89121   1.293   9.168  10.076  0.2095  0.4343  0.3250
28222SOL    HW189122   1.230   9.112  10.121 -0.6073  0.4457 -0.7654
28222SOL    HW289123   1.252   9.254  10.074 -0.4692  0.1125 -1.7225
28223SOL     OW89124  10.302   3.089   5.294 -0.0788  0.1941  0.3851
28223SOL    HW189125  10.377   3.062   5.347 -1.2506 -0.6932  1.6717
28223SOL    HW289126  10.275   3.173   5.331  0.7018  0.8770 -0.5566
28224SOL     OW89127   5.298  10.140   7.218 -0.8757 -0.0961 -0.3048
28224SOL    HW189128   5.375  10.119   7.166 -0.7536  2.1054 -1.0988
28224SOL    HW289129   5.333  10.171   7.302 -0.9076  0.3321 -0.4470
28225SOL     OW89130   7.819   0.043   9.982  0.0791  1.5253 -0.4755
28225SOL    HW189131   7.815  -0.052   9.972  1.2531  1.5490 -1.3763
28225SOL    HW289132   7.866   0.073   9.904  0.0811  2.8043  0.0015
28226SOL     OW89133   3.248   9.258   3.569  0.6134  0.4840  0.2977
28226SOL    HW189134   3.239   9.286   3.660  0.4178  2.6830 -0.3344
28226SOL    HW289135   3.288   9.333   3.525 -1.9954  0.6965 -1.9998
28227SOL     OW89136   6.092   5.758   4.415  0.1239  0.1490 -0.6515
28227SOL    HW189137   6.052   5.708   4.344  1.7417  0.7394 -2.0312
28227SOL    HW289138   6.098   5.847   4.381 -0.5450  0.8047  0.8640
28228SOL     OW89139   8.997   0.383   4.999  0.2816 -0.1826  0.1791
28228SOL    HW189140   9.076   0.329   4.995  0.7123  0.5117 -1.6389
28228SOL    HW289141   9.023   0.458   5.052  1.4200  0.8246 -1.6849
28229SOL     OW89142   7.452   9.702   3.543 -0.0957 -0.1243  0.3326
28229SOL    HW189143   7.422   9.792   3.531 -1.2745 -0.5036  0.2980
28229SOL    HW289144   7.462   9.668   3.454  2.0731  0.4865  0.2914
28230SOL     OW89145   5.432   2.818   1.021 -0.2167  0.2458  0.0507
28230SOL    HW189146   5.459   2.865   1.099 -2.1539 -0.5049  1.2604
28230SOL    HW289147   5.360   2.871   0.985  3.0058  2.7270 -3.6089
28231SOL     OW89148   1.105   8.952   6.148  0.4237 -1.1318 -0.7969
28231SOL    HW189149   1.122   8.995   6.231  1.7656 -0.5358 -1.3595
28231SOL    HW289150   1.009   8.945   6.144  0.3716 -2.8189  1.5820
28232SOL     OW89151   0.916   2.615   6.248 -0.2786 -0.0263  0.0213
28232SOL    HW189152   0.944   2.558   6.319 -2.6458 -0.9211  0.3461
28232SOL    HW289153   0.843   2.567   6.207 -1.8735  2.4093 -0.1755
28233SOL     OW89154   3.371   9.677   1.008 -0.1751 -0.2822 -0.1011
28233SOL    HW189155   3.294   9.708   0.960 -1.4055  0.5440  2.2613
28233SOL    HW289156   3.378   9.736   1.083  1.5389 -1.6092  0.8544
28234SOL     OW89157  10.355   1.523   4.163 -0.3265  0.2602 -0.2793
28234SOL    HW189158  10.305   1.588   4.213  0.4723  2.3969 -2.0975
28234SOL    HW289159  10.346   1.551   4.072  2.2610 -0.5936 -0.8795
28235SOL     OW89160   2.375   2.895  10.717 -0.3497 -0.1547 -0.1534
28235SOL    HW189161   2.308   2.840  10.758 -1.2745  1.7011  0.9430
28235SOL    HW289162   2.439   2.910  10.786  0.5339 -0.7821 -0.8027
28236SOL     OW89163   7.449  10.225   3.347  0.7944 -0.1649  0.2545
28236SOL    HW189164   7.491  10.256   3.427 -0.6522 -0.7910  1.2888
28236SOL    HW289165   7.427  10.304   3.299  0.6899  0.2671  0.9961
28237SOL     OW89166   7.314   4.405   9.226 -0.0338  0.2542 -0.0915
28237SOL    HW189167   7.317   4.497   9.249  0.1846  0.2776 -0.2168
28237SOL    HW289168   7.289   4.360   9.307 -0.1877  0.4260 -0.0433
28238SOL     OW89169  10.501   6.959   1.052 -0.6471  0.8511  0.4683
28238SOL    HW189170  10.501   6.866   1.075 -3.4656  1.2438  2.6972
28238SOL    HW289171  10.574   6.996   1.102  0.6176 -0.1372 -0.5875
28239SOL     OW89172   9.517   1.029   5.049 -0.3113  0.0392  0.3044
28239SOL    HW189173   9.461   0.953   5.063 -0.1669 -0.2017 -0.4033
28239SOL    HW289174   9.478   1.097   5.104 -3.0702  0.7788 -2.3175
28240SOL     OW89175  10.480   4.447   2.555  0.4994 -0.0248 -0.3589
28240SOL    HW189176  10.448   4.442   2.465  0.1935  2.7660 -0.4814
28240SOL    HW289177  10.401   4.438   2.609  0.3349  0.6825 -0.4695
28241SOL     OW89178  10.738   8.953   3.960  0.3995 -0.4244 -0.2564
28241SOL    HW189179  10.688   9.022   4.004  0.0695 -1.9995  2.0288
28241SOL    HW289180  10.681   8.924   3.889 -0.6612 -0.2129  0.4859
28242SOL     OW89181  10.695  10.300   7.744 -0.5807 -0.4527 -0.2501
28242SOL    HW189182  10.711  10.394   7.754 -0.2863 -0.6346  1.2039
28242SOL    HW289183  10.718  10.282   7.653  0.4804  0.6659 -0.2310
28243SOL     OW89184  10.574   8.209  10.163  0.2831 -0.0949  0.5247
28243SOL    HW189185  10.570   8.114  10.159  0.1458 -0.1698  1.9394
28243SOL    HW289186  10.589   8.229  10.255  0.4696  1.2523  0.2333
28244SOL     OW89187   9.397   2.889   8.491  0.5328 -0.3444  0.1595
28244SOL    HW189188   9.482   2.862   8.454  1.2037  0.3845  1.1168
28244SOL    HW289189   9.332   2.854   8.430  1.4830 -1.6591 -0.1407
28245SOL     OW89190   9.199  10.373   9.703  0.2112  0.0612 -0.1699
28245SOL    HW189191   9.110  10.349   9.727  1.0834 -2.1706  1.1893
28245SOL    HW289192   9.216  10.324   9.622  0.9958 -1.7325  0.9967
28246SOL     OW89193   0.414  10.983   9.503 -0.0026  0.9649 -0.0059
28246SOL    HW189194   0.394  10.919   9.435  0.9106 -0.5293  1.0782
28246SOL    HW289195   0.509  10.991   9.502 -0.1227  2.8786 -0.5750
28247SOL     OW89196   1.837   2.813   6.366 -0.3337 -0.1181  0.5291
28247SOL    HW189197   1.899   2.741   6.382 -0.5817 -0.0079  2.1261
28247SOL    HW289198   1.769   2.800   6.431 -1.3038  0.5664 -0.3251
28248SOL     OW89199   9.753   1.010  10.451 -0.2197 -0.2541  0.3030
28248SOL    HW189200   9.737   1.082  10.389 -0.2473 -1.8958 -1.6954
28248SOL    HW289201   9.712   0.934  10.410  0.3660 -1.5691  2.0504
28249SOL     OW89202  10.127   7.397   6.901 -0.1516  0.1161 -0.1216
28249SOL    HW189203  10.175   7.394   6.984  2.7496 -2.5160 -1.7191
28249SOL    HW289204  10.083   7.312   6.895  1.0465 -0.4355 -1.9363
28250SOL     OW89205   2.018   9.417   8.459  0.2701  0.2346  0.1931
28250SOL    HW189206   1.946   9.462   8.501 -0.1827  0.2564 -0.5951
28250SOL    HW289207   1.990   9.404   8.368  0.4675 -1.4350  0.3339
28251SOL     OW89208   5.714   1.735   5.691  0.0502 -0.2443  0.0146
28251SOL    HW189209   5.647   1.690   5.640 -1.1160  0.9094  0.4671
28251SOL    HW289210   5.690   1.719   5.782 -0.1357  0.8645  0.1861
28252SOL     OW89211   0.641   1.889   1.520 -0.1936 -0.0440  0.1252
28252SOL    HW189212   0.585   1.883   1.597  1.4901 -0.0660  1.4167
28252SOL    HW289213   0.652   1.983   1.506 -1.3077 -0.0214 -0.7485
28253SOL     OW89214   0.461  10.571   7.604 -0.4150 -0.1460 -0.1091
28253SOL    HW189215   0.463  10.622   7.685 -1.3743 -1.3597  0.7186
28253SOL    HW289216   0.489  10.483   7.631 -0.8600 -0.5966 -1.0743
28254SOL     OW89217   6.159   1.892   4.177 -0.1550 -0.7350 -0.4668
28254SOL    HW189218   6.081   1.838   4.167  1.1310 -2.4396 -1.9911
28254SOL    HW289219   6.148   1.963   4.114 -0.6265 -0.7531 -0.4054
28255SOL     OW89220   8.142   7.782   9.893 -0.5014 -0.6426  0.0708
28255SOL    HW189221   8.062   7.730   9.885 -0.5173 -0.8688  1.5733
28255SOL    HW289222   8.204   7.737   9.835 -0.2294 -2.9714  1.9984
28256SOL     OW89223   0.963  10.036   3.779  0.5278 -0.7897  0.8475
28256SOL    HW189224   0.983  10.062   3.689 -0.7997  0.4120  0.8718
28256SOL    HW289225   0.985  10.112   3.832 -0.4079 -0.8248  1.3100
28257SOL     OW89226   6.439   2.418   8.323  0.2472 -0.1662  0.0789
28257SOL    HW189227   6.464   2.392   8.411 -0.9210  1.6919  1.0304
28257SOL    HW289228   6.352   2.380   8.311  0.1823  0.0267 -0.0666
28258SOL     OW89229   0.086   8.247   1.870  0.4253  0.2360 -0.1869
28258SOL    HW189230   0.009   8.191   1.881 -0.3397  0.6654 -2.7020
28258SOL    HW289231   0.160   8.187   1.875 -0.2486 -0.6588 -0.5932
28259SOL     OW89232   3.621   1.592   3.626  0.3528  0.0225 -0.2459
28259SOL    HW189233   3.544   1.630   3.668  0.7740  0.1638  0.4028
28259SOL    HW289234   3.607   1.607   3.532 -1.2766 -1.5280 -0.3209
28260SOL     OW89235   5.263   7.427   3.639 -0.1488 -0.3520 -0.3316
28260SOL    HW189236   5.326   7.494   3.614 -0.4545  0.3117  0.6178
28260SOL    HW289237   5.297   7.390   3.720 -0.5939 -0.4921 -0.2023
28261SOL     OW89238   7.159   9.611   6.068 -0.3554 -0.0708  0.2019
28261SOL    HW189239   7.110   9.568   5.997 -0.2214  0.6627 -0.3506
28261SOL    HW289240   7.115   9.695   6.080  1.2324  0.9728 -0.8844
28262SOL     OW89241   0.235   6.287   9.818  0.1391 -0.2214 -0.0081
28262SOL    HW189242   0.146   6.294   9.785  0.0774 -0.6415  0.0595
28262SOL    HW289243   0.227   6.236   9.898  0.5157 -0.8145 -0.3396
28263SOL     OW89244   1.612   6.797   9.149 -0.2731 -0.8001  0.0285
28263SOL    HW189245   1.628   6.720   9.095 -1.7203 -1.7916  0.9627
28263SOL    HW289246   1.546   6.847   9.100 -0.6660 -1.0655  0.2900
28264SOL     OW89247  10.133   2.630  10.752  0.5023  0.2700  0.3688
28264SOL    HW189248  10.116   2.701  10.690 -1.2872 -0.4391  0.0002
28264SOL    HW289249  10.109   2.550  10.706  1.5420 -0.5208  1.1286
28265SOL     OW89250   7.329   0.381   2.048 -0.4449 -0.3337  0.2536
28265SOL    HW189251   7.372   0.451   1.997 -1.6475  0.4570  0.2946
28265SOL    HW289252   7.335   0.411   2.139 -0.7164 -0.4179  0.3002
28266SOL     OW89253  10.213   5.167   4.748  0.0997 -0.2810  0.3911
28266SOL    HW189254  10.158   5.157   4.826 -1.0670  0.0272 -0.3665
28266SOL    HW289255  10.224   5.078   4.715 -1.8779 -0.1614 -0.7177
28267SOL     OW89256   3.007   8.124   3.730  0.3156 -0.3205 -0.4813
28267SOL    HW189257   2.995   8.038   3.770  0.0563  0.0088  0.1651
28267SOL    HW289258   2.986   8.111   3.637 -1.3802 -0.5949 -0.0941
28268SOL     OW89259   7.254  11.009   1.247  0.3631 -0.4335 -0.2874
28268SOL    HW189260   7.349  11.019   1.256  0.4625 -0.6558 -1.0119
28268SOL    HW289261   7.226  10.977   1.332  0.4359  2.8456  1.0941
28269SOL     OW89262  10.328   6.068   6.093  0.1537 -0.2060  0.0772
28269SOL    HW189263  10.377   6.074   6.011 -1.2426 -0.9095 -0.8367
28269SOL    HW289264  10.253   6.013   6.072 -0.9014  0.6269  1.5056
28270SOL     OW89265   1.523  10.155   7.036 -0.2872 -0.1776 -0.1145
28270SOL    HW189266   1.454  10.150   6.970 -0.9136 -0.8948  0.5610
28270SOL    HW289267   1.536  10.249   7.051  0.0259 -0.0063 -1.3962
28271SOL     OW89268   6.989   6.703   1.346 -0.2273  0.0838 -0.0717
28271SOL    HW189269   7.002   6.744   1.432  1.6128 -1.3201  0.3763
28271SOL    HW289270   6.938   6.767   1.297  0.8579  2.0517  1.2340
28272SOL     OW89271   7.514   9.329   7.685  0.5213  0.1614  0.3936
28272SOL    HW189272   7.581   9.372   7.633 -0.6857  0.1331 -1.2804
28272SOL    HW289273   7.431   9.364   7.652 -0.3338  0.0039  2.2038
28273SOL     OW89274   5.790  10.204   0.148  0.0588 -0.4208  0.5735
28273SOL    HW189275   5.803  10.197   0.053  2.1257  0.5244  0.7176
28273SOL    HW289276   5.696  10.211   0.159 -0.1598  1.8405 -1.6345
28274SOL     OW89277   3.229   4.545   3.623 -0.0378  0.2783  0.4859
28274SOL    HW189278   3.263   4.471   3.673  0.3680 -0.3056 -0.6365
28274SOL    HW289279   3.167   4.507   3.562 -1.4600  1.1345  1.3420
28275SOL     OW89280   9.231   9.043   5.902  0.2551 -0.0947 -0.2231
28275SOL    HW189281   9.200   9.050   5.992 -0.5337 -0.1306 -0.4855
28275SOL    HW289282   9.226   8.949   5.882 -0.1476 -0.0146 -0.5027
28276SOL     OW89283   2.657   6.341   6.306 -0.3813 -0.2559  0.1285
28276SOL    HW189284   2.730   6.282   6.286 -0.4335 -1.2681  2.5594
28276SOL    HW289285   2.698   6.426   6.323 -0.1556  0.0774 -1.8243
28277SOL     OW89286   8.406   5.647   6.765 -0.0115 -0.7190 -0.1582
28277SOL    HW189287   8.350   5.685   6.834  0.2234  1.3664 -1.0492
28277SOL    HW289288   8.358   5.570   6.735  0.1721 -2.0854  2.7206
28278SOL     OW89289   7.225   5.310   3.026  0.0183 -0.2683 -0.4694
28278SOL    HW189290   7.280   5.312   2.947 -1.7930 -1.2721 -1.8443
28278SOL    HW289291   7.244   5.224   3.065 -0.6149 -0.6687 -1.0136
28279SOL     OW89292   3.355   7.999  10.207  0.3459  0.1588 -0.2840
28279SOL    HW189293   3.381   8.042  10.289  2.8210  1.4515 -1.6108
28279SOL    HW289294   3.293   8.060  10.167  1.5593  1.1138 -0.7759
28280SOL     OW89295   4.355   4.135   4.766  0.3752 -0.0775  0.2775
28280SOL    HW189296   4.388   4.212   4.721 -1.6581  0.8807  0.2855
28280SOL    HW289297   4.279   4.167   4.815  0.1197 -1.8878  1.1484
28281SOL     OW89298   9.235   6.931   0.517  0.0441  0.2168 -0.1362
28281SOL    HW189299   9.228   7.026   0.506  2.9967  0.6282  0.5940
28281SOL    HW289300   9.326   6.917   0.542  0.4755 -3.0799 -2.8511
28282SOL     OW89301   7.193  10.585   8.976  0.0651  0.8557 -0.1190
28282SOL    HW189302   7.252  10.565   8.904  0.1992  0.7223  0.0259
28282SOL    HW289303   7.112  10.615   8.934  1.0327  3.4124 -0.2916
28283SOL     OW89304   6.499   7.144   0.482 -0.0128  0.0119  0.2684
28283SOL    HW189305   6.584   7.100   0.478  0.5932  1.0700  1.1057
28283SOL    HW289306   6.515   7.229   0.442 -0.6660  0.2616  0.5314
28284SOL     OW89307   1.030   8.431   4.978 -0.0155 -0.1448  0.0983
28284SOL    HW189308   1.038   8.457   4.886  0.2955 -1.7220 -0.3503
28284SOL    HW289309   1.095   8.484   5.023  0.6372 -0.1721 -0.7755
28285SOL     OW89310   0.346   6.541   7.740 -0.3930  0.6130  0.5447
28285SOL    HW189311   0.417   6.606   7.738  0.6966 -0.5136  1.3276
28285SOL    HW289312   0.332   6.524   7.833 -0.1462 -0.8055  0.3443
28286SOL     OW89313   2.338  10.182   9.849  0.1418 -0.5933 -0.3379
28286SOL    HW189314   2.370  10.101   9.888 -1.2259 -1.1675 -0.3509
28286SOL    HW289315   2.247  10.189   9.879 -0.0565  0.4329 -1.1181
28287SOL     OW89316   4.256   3.860   9.502  0.3428 -0.6215 -0.4323
28287SOL    HW189317   4.191   3.864   9.432  0.6081  2.4412 -0.6812
28287SOL    HW289318   4.340   3.862   9.456  0.5361 -0.2041 -0.0640
28288SOL     OW89319   4.107   1.319   4.107  0.5917 -0.8697 -0.1016
28288SOL    HW189320   4.124   1.323   4.013  4.1860 -1.2581  0.3952
28288SOL    HW289321   4.127   1.228   4.130 -0.8597 -0.9427  0.9841
28289SOL     OW89322   0.483   1.055   4.129  0.3062 -0.0696 -0.0641
28289SOL    HW189323   0.434   1.065   4.211  0.8170 -1.3525  0.4267
28289SOL    HW289324   0.574   1.071   4.154  0.4070  0.0582 -0.5050
28290SOL     OW89325   8.081   3.629   3.017 -0.0375 -0.1845 -0.3156
28290SOL    HW189326   8.165   3.665   2.989  0.0212 -0.0099  0.0738
28290SOL    HW289327   8.105   3.556   3.074 -0.0981  1.2526  1.6490
28291SOL     OW89328   7.261   1.047   8.528  0.4746  0.3332  0.5260
28291SOL    HW189329   7.349   1.081   8.509  0.1085  0.2790 -1.4914
28291SOL    HW289330   7.206   1.082   8.457 -0.6580 -1.5039  0.4370
28292SOL     OW89331   8.591   0.476   4.754 -0.0504 -0.2542  0.5375
28292SOL    HW189332   8.672   0.460   4.802 -0.1559  0.0472  0.8140
28292SOL    HW289333   8.572   0.392   4.711  1.6844  0.2969 -1.4631
28293SOL     OW89334   1.968   4.156   9.949  0.7354  0.1467 -0.1419
28293SOL    HW189335   1.978   4.083   9.887 -1.2000 -0.4270  0.1528
28293SOL    HW289336   2.043   4.213   9.931  0.8513 -0.5701 -2.2238
28294SOL     OW89337   5.066  10.101   0.734 -0.4958 -0.7803  0.3578
28294SOL    HW189338   5.086  10.189   0.703  1.3019 -1.6553 -1.1459
28294SOL    HW289339   4.987  10.111   0.787 -0.5228  1.6594 -0.0661
28295SOL     OW89340   5.667   1.903   1.418  0.1142  0.3734  0.0356
28295SOL    HW189341   5.719   1.837   1.373 -0.2784  0.6948 -0.9104
28295SOL    HW289342   5.674   1.982   1.364 -0.3632  0.7761  0.5361
28296SOL     OW89343   6.484   1.571  10.220  0.4511  0.2810  0.0172
28296SOL    HW189344   6.559   1.629  10.209  0.3452  0.8703  2.0317
28296SOL    HW289345   6.408   1.627  10.207  0.3560  0.4618  1.2291
28297SOL     OW89346   5.004   2.913   9.381 -0.0713 -0.2511  0.1338
28297SOL    HW189347   5.023   2.922   9.475  0.6583  0.9656 -0.1166
28297SOL    HW289348   5.066   2.847   9.350  0.2042 -0.0971  0.3562
28298SOL     OW89349   5.200   6.832   9.093 -0.3582 -0.0527 -0.4369
28298SOL    HW189350   5.215   6.742   9.066  0.9042  0.2370 -0.7717
28298SOL    HW289351   5.283   6.860   9.132 -1.5974  0.0742  2.3058
28299SOL     OW89352   1.782   1.999   4.147  0.2888 -0.3399  0.0453
28299SOL    HW189353   1.689   2.021   4.137  0.3212 -0.1920  0.0790
28299SOL    HW289354   1.789   1.967   4.237 -0.0870 -2.0730 -0.5012
28300SOL     OW89355   1.989   3.249   2.058 -0.4497  0.1294  0.1884
28300SOL    HW189356   2.015   3.257   2.150 -0.4412  1.5322  0.0875
28300SOL    HW289357   1.957   3.159   2.050  0.9706 -0.5016  1.1889
28301SOL     OW89358   6.617   6.243   3.361  0.2542 -0.4846  0.5348
28301SOL    HW189359   6.628   6.209   3.450  2.4323 -0.8828  0.1713
28301SOL    HW289360   6.604   6.165   3.307 -0.7449 -0.2678  0.4543
28302SOL     OW89361   9.377   6.570   3.529 -0.3650 -0.0583  0.1323
28302SOL    HW189362   9.452   6.512   3.544 -1.3886 -1.5776 -0.3343
28302SOL    HW289363   9.392   6.604   3.440  0.3664  0.6246  0.5001
28303SOL     OW89364   3.307   4.338   7.227 -0.0686 -0.4067  0.3272
28303SOL    HW189365   3.212   4.322   7.235 -0.3137  0.6529 -0.3099
28303SOL    HW289366   3.336   4.280   7.157  0.0483 -1.7959  1.4784
28304SOL     OW89367   0.540   7.125   6.457  0.2605 -0.5076  0.2805
28304SOL    HW189368   0.576   7.209   6.426 -1.5038 -0.0121 -0.5311
28304SOL    HW289369   0.611   7.087   6.509  1.9610  0.4081 -1.2480
28305SOL     OW89370   2.741   8.482   6.625  0.1145 -0.1256  0.5510
28305SOL    HW189371   2.805   8.541   6.663 -0.1739  0.3693  0.2874
28305SOL    HW289372   2.754   8.490   6.531 -0.6325  0.3463  0.4713
28306SOL     OW89373   5.631   2.480   6.434  0.7269 -0.4503 -0.1715
28306SOL    HW189374   5.646   2.463   6.527  0.7823 -1.1415 -0.3010
28306SOL    HW289375   5.633   2.393   6.394  2.4403 -0.0455 -1.0711
28307SOL     OW89376  10.340   9.458   5.617 -0.2511 -0.0388  0.0338
28307SOL    HW189377  10.285   9.536   5.620 -0.7682 -0.3668 -0.5691
28307SOL    HW289378  10.326   9.416   5.702 -1.3225 -0.3681 -0.2885
28308SOL     OW89379   9.042   0.073   8.253  0.2370  0.1170  0.0124
28308SOL    HW189380   8.968   0.074   8.314  0.3349  1.6149  0.1511
28308SOL    HW289381   9.115   0.110   8.303  0.0696  2.3191 -1.2374
28309SOL     OW89382  10.841   7.663   9.224  0.8500 -0.5287  0.4596
28309SOL    HW189383  10.903   7.639   9.156  0.4339 -0.0556 -0.1043
28309SOL    HW289384  10.800   7.743   9.191  2.9705  1.6668  2.7284
28310SOL     OW89385   7.562   1.823   9.599 -0.1986  0.1619 -0.1834
28310SOL    HW189386   7.608   1.905   9.620  0.3809  0.2801 -1.7797
28310SOL    HW289387   7.600   1.759   9.659  0.0473  0.8487  0.4133
28311SOL     OW89388   3.509  10.835   9.273  0.1113 -0.4606  0.4142
28311SOL    HW189389   3.434  10.856   9.329  1.1656  1.1168  1.3386
28311SOL    HW289390   3.577  10.897   9.301  1.3733 -1.0527 -1.1928
28312SOL     OW89391   3.466   7.790   5.239  0.5519 -0.1698 -0.6767
28312SOL    HW189392   3.378   7.809   5.272  0.5373 -2.1037  0.5678
28312SOL    HW289393   3.523   7.801   5.315  1.1075 -0.7291 -0.9998
28313SOL     OW89394  10.450   3.726   0.143  0.0876  0.2439 -0.1034
28313SOL    HW189395  10.400   3.739   0.063 -1.3408 -0.7486  0.5897
28313SOL    HW289396  10.396   3.763   0.212  0.1536 -1.0825  0.6965
28314SOL     OW89397   8.016  10.693  10.331 -0.2939 -0.2942  0.6657
28314SOL    HW189398   7.991  10.779  10.366  0.8391  0.6148 -0.6271
28314SOL    HW289399   8.008  10.703  10.236 -0.1247 -1.6227  0.5001
28315SOL     OW89400   7.218   6.047   5.715  0.4726 -0.3276 -0.2699
28315SOL    HW189401   7.301   6.057   5.762  0.8828 -0.3111 -0.9815
28315SOL    HW289402   7.243   6.034   5.624 -0.1638 -3.6184 -0.0900
28316SOL     OW89403  10.083   1.478   4.189 -0.0329  0.3110  0.1392
28316SOL    HW189404  10.170   1.441   4.206 -0.6672 -2.0307 -1.2852
28316SOL    HW289405  10.034   1.458   4.269  0.6025  1.3046  0.7988
28317SOL     OW89406   5.205   2.707   7.536  0.6672  0.5190  0.6454
28317SOL    HW189407   5.237   2.774   7.597  2.9713  1.9636 -1.9425
28317SOL    HW289408   5.222   2.743   7.449 -0.5679 -2.3130 -0.9028
28318SOL     OW89409   1.442   8.195   1.336  0.1016 -0.1266  0.3481
28318SOL    HW189410   1.410   8.126   1.279 -0.7430 -1.3577  2.2296
28318SOL    HW289411   1.519   8.158   1.378  1.5342  1.2555 -0.8924
28319SOL     OW89412   4.111   6.248   5.911  0.1151  0.0491  0.5002
28319SOL    HW189413   4.191   6.212   5.950 -0.5432 -0.2620  1.5942
28319SOL    HW289414   4.102   6.200   5.828  0.2333 -1.0181  1.0847
28320SOL     OW89415   4.939   3.038   9.101  0.6131 -0.0391 -0.0112
28320SOL    HW189416   4.853   3.075   9.081 -0.5160 -3.5016 -2.6539
28320SOL    HW289417   4.921   2.969   9.164  1.3345 -1.0136 -0.8346
28321SOL     OW89418   9.747   5.639   3.834 -0.2217 -0.3962 -0.4406
28321SOL    HW189419   9.680   5.585   3.877 -1.0973 -1.2800 -2.7470
28321SOL    HW289420   9.710   5.727   3.834 -1.2852 -0.8126 -1.3722
28322SOL     OW89421  10.684   1.932   6.483  0.2963  0.2648  0.0713
28322SOL    HW189422  10.693   1.838   6.469 -0.7197  0.1772 -0.0328
28322SOL    HW289423  10.770   1.960   6.514  0.6914 -0.6429 -0.1928
28323SOL     OW89424   1.443   3.374   9.674  0.0558  0.1964  0.3561
28323SOL    HW189425   1.367   3.407   9.626  0.6252  1.5378  0.3433
28323SOL    HW289426   1.413   3.290   9.711 -1.0777  0.1874 -0.5198
28324SOL     OW89427   7.023   4.068   3.567  0.4259 -0.8579 -0.4119
28324SOL    HW189428   7.031   3.974   3.582 -2.7263 -1.2177 -0.3359
28324SOL    HW289429   6.989   4.104   3.649 -0.6766 -0.0849 -1.1646
28325SOL     OW89430   7.327   7.465   6.043  0.2033  0.5478  0.4681
28325SOL    HW189431   7.255   7.402   6.049 -2.6916  3.7070  2.1990
28325SOL    HW289432   7.322   7.499   5.954  0.0847  0.2336  0.3533
28326SOL     OW89433   3.495   0.667   4.466 -0.6629 -0.5391 -0.2465
28326SOL    HW189434   3.515   0.606   4.395  0.6694 -0.5179  0.0757
28326SOL    HW289435   3.455   0.742   4.423 -1.6035 -1.3095 -0.7395
28327SOL     OW89436  10.763  10.439   6.802  0.1768  0.1165  0.5094
28327SOL    HW189437  10.672  10.416   6.781  0.7176 -0.4746 -1.4192
28327SOL    HW289438  10.795  10.483   6.723  1.8514 -0.5317  0.7919
28328SOL     OW89439   0.585   9.771   2.511 -0.0258  0.2284  0.2606
28328SOL    HW189440   0.594   9.859   2.476  1.4135  0.3390  0.8680
28328SOL    HW289441   0.579   9.782   2.606  0.0672 -0.3151  0.3369
28329SOL     OW89442   3.444   2.361   7.236 -0.0369  0.2971 -0.1129
28329SOL    HW189443   3.444   2.452   7.268  1.0078  0.2216  0.1235
28329SOL    HW289444   3.386   2.315   7.296 -1.7531  1.0795 -1.0866
28330SOL     OW89445   0.957   2.566   2.991  0.2372 -0.3488 -0.2599
28330SOL    HW189446   0.880   2.604   2.950  0.3791  0.9827  0.6643
28330SOL    HW289447   0.995   2.510   2.923 -0.5595  0.3421 -1.3024
28331SOL     OW89448   6.504   5.611   1.325  0.3438  0.2889  0.6568
28331SOL    HW189449   6.592   5.595   1.359 -0.3329  0.1142  2.4232
28331SOL    HW289450   6.518   5.641   1.235  2.0585 -2.4080 -0.0702
28332SOL     OW89451   6.489   9.889   9.345 -0.4103 -0.1224 -0.0066
28332SOL    HW189452   6.582   9.885   9.367 -0.5710 -0.6720  0.5834
28332SOL    HW289453   6.483   9.843   9.261 -0.1547 -0.0754 -0.0520
28333SOL     OW89454   5.974   3.516   6.549 -0.2197 -0.8169 -0.4901
28333SOL    HW189455   6.020   3.600   6.555 -0.2236 -0.8723  0.5237
28333SOL    HW289456   5.978   3.493   6.456 -0.2112  0.2977 -0.7789
28334SOL     OW89457   6.959   3.609   3.927  0.0650 -0.3818  0.0321
28334SOL    HW189458   6.965   3.547   3.999  1.1928  0.6021  0.8076
28334SOL    HW289459   6.885   3.577   3.874  1.6749 -3.4096 -0.6034
28335SOL     OW89460   0.227  10.986   3.480 -0.0607  0.1769 -0.3535
28335SOL    HW189461   0.234  10.895   3.452  1.5725 -0.5922  2.2356
28335SOL    HW289462   0.191  10.981   3.568 -0.6770  2.1268 -0.4443
28336SOL     OW89463   8.325  10.875   6.972 -0.3322  0.0401 -0.0887
28336SOL    HW189464   8.345  10.812   6.902 -1.6186  0.0972 -0.5458
28336SOL    HW289465   8.245  10.919   6.941  0.8441  2.3267 -0.0687
28337SOL     OW89466   9.639  10.184  10.836 -0.2469 -0.0333 -0.4238
28337SOL    HW189467   9.694  10.127  10.889 -1.7226 -1.2284 -0.1049
28337SOL    HW289468   9.579  10.224  10.898 -0.1752  0.7575 -0.8479
28338SOL     OW89469   2.103   2.786   3.063 -0.0995  0.3026  0.1912
28338SOL    HW189470   2.154   2.730   3.004  0.3566  0.1586  0.7209
28338SOL    HW289471   2.097   2.737   3.144 -0.2066  0.7671  0.4665
28339SOL     OW89472   4.681   6.973   6.124  0.1997 -1.0811  0.5327
28339SOL    HW189473   4.737   6.901   6.152  0.1135 -2.0819 -1.6310
28339SOL    HW289474   4.736   7.025   6.066 -0.2763 -0.4419  0.6393
28340SOL     OW89475   4.210   0.250   4.558 -0.2784 -0.0158  0.2300
28340SOL    HW189476   4.303   0.264   4.541 -0.4698  0.7398 -0.2542
28340SOL    HW289477   4.196   0.157   4.538  0.4495 -0.2476  0.7356
28341SOL     OW89478   3.574   6.765   5.250  0.1672 -0.2853 -0.5354
28341SOL    HW189479   3.521   6.690   5.223 -0.8390  0.1609  0.1460
28341SOL    HW289480   3.649   6.727   5.294  0.1746 -0.9181 -1.0861
28342SOL     OW89481   7.398   7.730   6.823 -0.6891 -0.4868  0.0314
28342SOL    HW189482   7.443   7.743   6.907 -1.0333 -1.4349  0.3730
28342SOL    HW289483   7.458   7.676   6.772 -0.1198  0.7484 -0.6595
28343SOL     OW89484   6.673   9.312   7.482  0.0151  0.3168  0.8006
28343SOL    HW189485   6.745   9.373   7.468 -0.1594  0.2387 -0.6461
28343SOL    HW289486   6.594   9.362   7.461 -0.1275 -0.3660 -0.3959
28344SOL     OW89487   8.900   8.704   7.954  0.6483 -0.0899  0.2712
28344SOL    HW189488   8.881   8.708   8.048 -0.1176  0.7233  0.0961
28344SOL    HW289489   8.984   8.749   7.945 -0.2002  1.5798  0.3502
28345SOL     OW89490   6.644   3.749   0.947  0.3835  0.4466 -0.1938
28345SOL    HW189491   6.553   3.763   0.920  0.8644  2.3217 -1.0096
28345SOL    HW289492   6.690   3.826   0.916  2.0532  0.0963  1.2704
28346SOL     OW89493   7.204   2.520   6.276  0.0840  0.2659  0.2227
28346SOL    HW189494   7.271   2.476   6.223  0.1307  0.7916 -0.1650
28346SOL    HW289495   7.248   2.598   6.310 -0.3917  0.7209 -0.2010
28347SOL     OW89496   4.516   7.138   7.971  0.0020  0.0157 -0.2486
28347SOL    HW189497   4.586   7.093   7.924  0.3476 -2.0444  2.0219
28347SOL    HW289498   4.440   7.081   7.963 -0.5105  0.6503 -0.0342
28348SOL     OW89499   7.060   9.595   9.283 -0.3974  0.0312  0.5766
28348SOL    HW189500   7.034   9.596   9.374 -0.8188 -3.1360  0.6187
28348SOL    HW289501   6.982   9.621   9.234 -0.9140 -0.5734  1.0649
28349SOL     OW89502   7.222   0.825   5.337 -0.3180  0.2938  0.0410
28349SOL    HW189503   7.204   0.893   5.403 -3.1959 -0.3604  0.0862
28349SOL    HW289504   7.217   0.872   5.254 -0.4936  0.4509  0.1378
28350SOL     OW89505   5.596  10.166   8.473 -0.7662  0.3006 -0.0327
28350SOL    HW189506   5.582  10.101   8.541  0.7922  1.0134  1.0403
28350SOL    HW289507   5.679  10.141   8.431  1.7031  3.1924  2.5656
28351SOL     OW89508  10.051   8.755   9.594  0.0840  0.2686 -0.4312
28351SOL    HW189509  10.010   8.709   9.520 -0.5248 -0.2003  0.1808
28351SOL    HW289510   9.978   8.795   9.641  0.5233  1.0380 -0.3997
28352SOL     OW89511   1.933   2.330   2.252 -0.0417  0.6190 -0.1356
28352SOL    HW189512   1.894   2.345   2.167 -2.1769  1.2496  0.8923
28352SOL    HW289513   2.019   2.372   2.247 -0.5662  1.5938 -1.6076
28353SOL     OW89514   2.672   4.681   6.706  0.2539 -0.0400 -0.2819
28353SOL    HW189515   2.644   4.643   6.789  0.9167 -2.9152 -1.2515
28353SOL    HW289516   2.764   4.705   6.720  0.4467 -0.7840 -0.2372
28354SOL     OW89517   0.182   1.505   4.549  0.5909  0.3546 -0.4223
28354SOL    HW189518   0.228   1.557   4.483  0.6155  2.1578  0.9207
28354SOL    HW289519   0.098   1.484   4.508  1.1431  0.2345 -1.5295
28355SOL     OW89520   2.192   0.147   4.376 -0.2214 -0.3151 -0.4393
28355SOL    HW189521   2.103   0.116   4.357 -0.5405 -1.2584  2.1578
28355SOL    HW289522   2.185   0.186   4.463  1.4219  1.9875 -1.2453
28356SOL     OW89523  10.496   5.910   0.908  0.1684 -0.8100 -0.0495
28356SOL    HW189524  10.528   5.836   0.857  0.7361 -1.8276  1.6794
28356SOL    HW289525  10.429   5.872   0.966 -0.4569  0.2919 -0.0122
28357SOL     OW89526   1.587   6.884   2.091  0.3438 -0.2755 -0.2728
28357SOL    HW189527   1.647   6.816   2.061  0.5664  0.7577 -2.3934
28357SOL    HW289528   1.504   6.840   2.103  1.1925 -1.5018  1.5271
28358SOL     OW89529   8.476   4.714  10.829 -0.2148  0.2792  0.1230
28358SOL    HW189530   8.496   4.746  10.740 -1.4921 -1.2555 -0.7732
28358SOL    HW289531   8.381   4.707  10.830 -0.1426 -0.6969  1.2757
28359SOL     OW89532   0.881   3.053   8.648  0.3612 -0.4065  0.4956
28359SOL    HW189533   0.859   3.102   8.727  1.5462  0.6124  0.2136
28359SOL    HW289534   0.796   3.033   8.609 -0.2259  3.0923 -0.3842
28360SOL     OW89535  10.425   6.256   4.253  0.5683  0.3054  0.4127
28360SOL    HW189536  10.453   6.212   4.334  0.8651 -0.2955 -0.0100
28360SOL    HW289537  10.396   6.185   4.196 -0.2492  0.7763  0.2192
28361SOL     OW89538   5.055  10.294   0.003 -0.4512 -0.0476 -0.1888
28361SOL    HW189539   5.080  10.300  -0.089 -0.6495  1.8012 -0.1607
28361SOL    HW289540   5.113  10.227   0.039  1.1124  0.6807 -1.2166
28362SOL     OW89541   9.572   8.353   4.695 -0.3437  0.1833 -0.9949
28362SOL    HW189542   9.525   8.357   4.778 -0.6796 -0.5694 -1.1428
28362SOL    HW289543   9.641   8.288   4.710  0.1742  0.7141 -1.0251
28363SOL     OW89544   5.826   4.337  11.010 -0.4074  0.1120  0.0079
28363SOL    HW189545   5.790   4.407  11.065 -0.5096  0.9331 -1.0665
28363SOL    HW289546   5.791   4.257  11.047  1.9130  0.3232  3.0134
28364SOL     OW89547   7.910   6.509   4.463  0.6300  0.2109  0.1041
28364SOL    HW189548   8.000   6.507   4.429  1.4216  0.5614  2.0164
28364SOL    HW289549   7.898   6.600   4.491 -0.7900  0.4620 -1.1777
28365SOL     OW89550   6.242   2.077   2.231  0.6108 -0.0792 -0.3961
28365SOL    HW189551   6.168   2.105   2.285  1.2265 -0.3634  0.6003
28365SOL    HW289552   6.239   2.136   2.155 -2.1578 -1.6506 -1.6924
28366SOL     OW89553   4.242   1.926   6.807 -0.6810 -0.3674  0.3654
28366SOL    HW189554   4.314   1.877   6.770 -0.6557 -0.1115  0.0753
28366SOL    HW289555   4.199   1.865   6.867  0.2365 -0.2861  1.1302
28367SOL     OW89556   6.940   1.803  10.210 -0.3742 -0.0413  0.0947
28367SOL    HW189557   6.995   1.880  10.225 -2.4765  1.4496  0.5988
28367SOL    HW289558   6.970   1.769  10.125  1.0633  0.8937  0.1862
28368SOL     OW89559   9.591  10.955   1.753  0.1368  0.1098  0.0816
28368SOL    HW189560   9.594  10.949   1.657  0.2023  2.2876 -0.0892
28368SOL    HW289561   9.506  10.995   1.772  0.9679  1.6137  0.7855
28369SOL     OW89562   7.895   6.047   5.003  0.1339  0.3078  0.4782
28369SOL    HW189563   7.819   6.006   4.961  0.1180 -0.8839  1.5968
28369SOL    HW289564   7.967   6.035   4.941 -0.1772 -0.2548  0.2242
28370SOL     OW89565   3.639  10.013   9.581  0.8394 -0.0826 -0.7163
28370SOL    HW189566   3.712  10.057   9.623 -0.5670  1.6726  0.0251
28370SOL    HW289567   3.619  10.066   9.504 -0.7430  0.5482  0.0728
28371SOL     OW89568  10.265   1.866   9.284 -0.2068  0.5226  0.0187
28371SOL    HW189569  10.329   1.926   9.322 -1.7431  0.8557  2.2229
28371SOL    HW289570  10.308   1.780   9.288 -0.0246  0.6713  1.8744
28372SOL     OW89571   4.862  10.443   3.527  0.6192  0.1321  0.8269
28372SOL    HW189572   4.839  10.369   3.583 -0.4556 -0.5776 -0.4995
28372SOL    HW289573   4.794  10.509   3.545  0.3644 -0.0344  0.4790
28373SOL     OW89574   3.585   0.448   8.495  0.7239 -0.0484 -0.2597
28373SOL    HW189575   3.553   0.476   8.410 -1.1137 -0.1106  0.3746
28373SOL    HW289576   3.567   0.521   8.553  1.4205 -0.2344  0.2037
28374SOL     OW89577   6.915   9.732   3.671 -0.2601  0.3181  0.1467
28374SOL    HW189578   6.934   9.736   3.577  0.0101 -1.4620  0.0863
28374SOL    HW289579   7.001   9.720   3.711 -0.2863  1.8653  0.7100
28375SOL     OW89580   6.350   0.889   9.415 -0.2406 -0.3647  0.1425
28375SOL    HW189581   6.271   0.847   9.381 -0.4889  0.8159 -0.8290
28375SOL    HW289582   6.402   0.817   9.451 -1.8701 -1.1342  1.0854
28376SOL     OW89583   8.758   0.181   9.551 -0.2795  0.3294 -0.0547
28376SOL    HW189584   8.740   0.274   9.565 -1.7894 -0.0190  0.4590
28376SOL    HW289585   8.801   0.152   9.631  0.5795  0.6549 -0.3800
28377SOL     OW89586   0.508   8.286   4.325  0.2768 -0.0862 -0.2487
28377SOL    HW189587   0.543   8.367   4.361  1.5410 -0.2787 -0.9832
28377SOL    HW289588   0.422   8.276   4.366  2.1053 -1.0178  3.8409
28378SOL     OW89589  10.971  10.882   1.589  0.0007  0.0773  0.2932
28378SOL    HW189590  11.056  10.920   1.613  0.4716 -0.6789 -0.1315
28378SOL    HW289591  10.989  10.834   1.508 -1.1911  1.1983 -0.6704
28379SOL     OW89592   7.270   7.167  10.391  0.3844  0.0528  0.1277
28379SOL    HW189593   7.348   7.221  10.401 -0.9797  2.1632 -0.0054
28379SOL    HW289594   7.212   7.194  10.463 -0.5967 -0.7526 -0.3285
28380SOL     OW89595   3.672   5.681  11.073 -0.0415  0.6329 -0.4211
28380SOL    HW189596   3.682   5.655  11.164  1.3357 -1.7793 -1.1314
28380SOL    HW289597   3.624   5.608  11.033  0.8191  0.8438 -1.9109
28381SOL     OW89598   3.530   9.299   3.716 -0.2002 -0.1996 -0.2053
28381SOL    HW189599   3.505   9.391   3.727  0.6505  0.0557 -0.3194
28381SOL    HW289600   3.465   9.250   3.766  0.9481  0.6461  2.2575
28382SOL     OW89601   2.602   2.480   3.696  0.6981  0.2596  0.0854
28382SOL    HW189602   2.694   2.490   3.721  0.8951  0.1220 -0.5655
28382SOL    HW289603   2.605   2.438   3.610  0.0070 -0.4457  0.3914
28383SOL     OW89604   2.999   2.836  10.624 -0.2502 -0.2764 -0.0363
28383SOL    HW189605   2.907   2.809  10.620 -0.4433  0.4159 -0.3586
28383SOL    HW289606   2.999   2.918  10.673 -0.1300  0.9762 -1.9869
28384SOL     OW89607   9.215   8.192   0.777 -0.7145 -0.1466  0.1937
28384SOL    HW189608   9.251   8.197   0.866 -1.4382  0.8702  0.4523
28384SOL    HW289609   9.230   8.279   0.740  0.7676 -0.9427 -1.1855
28385SOL     OW89610   4.908   8.819   2.375  0.8068 -0.1606  0.1437
28385SOL    HW189611   4.854   8.877   2.321  1.8558  0.9183  0.2105
28385SOL    HW289612   4.856   8.804   2.454 -0.4648 -1.2199 -0.8376
28386SOL     OW89613   4.603   1.062  10.078  0.1106 -0.2567  0.3137
28386SOL    HW189614   4.626   1.039  10.168 -2.6372  3.3349  2.1708
28386SOL    HW289615   4.653   1.141  10.059  0.6427 -0.9461 -1.4084
28387SOL     OW89616   3.803   1.153   1.998 -0.3445  0.4960 -0.2893
28387SOL    HW189617   3.712   1.181   1.984 -0.2876  2.2298  2.2303
28387SOL    HW289618   3.854   1.206   1.936 -0.9571  0.1190 -1.1325
28388SOL     OW89619   5.556   6.740   5.701  0.4030 -0.3099  0.2414
28388SOL    HW189620   5.533   6.815   5.646  0.0476  0.2040  1.0630
28388SOL    HW289621   5.649   6.725   5.684  0.1756 -0.5071 -0.8895
28389SOL     OW89622   9.436   0.185   4.146 -0.0316  0.0986  0.4761
28389SOL    HW189623   9.344   0.172   4.124 -0.1526 -0.7387  1.4240
28389SOL    HW289624   9.436   0.204   4.240  0.8075 -0.5164  0.6109
28390SOL     OW89625   8.126   1.824   2.513 -0.0865 -0.7578 -0.4615
28390SOL    HW189626   8.188   1.896   2.499  0.2449 -0.8443  0.4344
28390SOL    HW289627   8.065   1.857   2.579 -0.7582 -0.8161 -1.0501
28391SOL     OW89628   4.146   7.231   3.798 -0.1656 -0.0784 -0.0212
28391SOL    HW189629   4.092   7.198   3.870 -0.2062 -0.9926 -0.4572
28391SOL    HW289630   4.209   7.161   3.781  1.1415  0.9350  0.4326
28392SOL     OW89631   2.575   7.317   9.533 -0.3472  0.6406  0.6201
28392SOL    HW189632   2.654   7.276   9.566 -1.1951 -1.3299  0.3128
28392SOL    HW289633   2.605   7.377   9.464  0.9969  1.3026  1.7441
28393SOL     OW89634  10.638   3.052   1.218 -0.0498 -0.0532  0.0262
28393SOL    HW189635  10.686   2.977   1.183 -0.2497 -0.2110  0.0859
28393SOL    HW289636  10.549   3.042   1.183 -0.3307 -0.3720  0.7982
28394SOL     OW89637   9.657   4.598   6.985  0.6071 -0.3771 -0.0982
28394SOL    HW189638   9.692   4.685   6.964  1.3027 -0.6157  0.0621
28394SOL    HW289639   9.612   4.609   7.069  2.3476 -0.5793  0.9039
28395SOL     OW89640   4.441   4.699   1.390  0.4654  0.7103 -0.2721
28395SOL    HW189641   4.444   4.649   1.308  0.4904 -1.1459  0.8070
28395SOL    HW289642   4.464   4.635   1.458 -0.7836  1.8737  1.3223
28396SOL     OW89643   8.295   9.109   1.189 -0.9745 -0.5134  0.1665
28396SOL    HW189644   8.359   9.038   1.189 -0.1241  0.2361  0.2558
28396SOL    HW289645   8.214   9.068   1.219 -0.7702 -1.6696 -0.8092
28397SOL     OW89646   7.066  10.465   7.651 -0.1666 -0.1942  0.1529
28397SOL    HW189647   7.126  10.520   7.702 -0.5646 -0.6899  1.1849
28397SOL    HW289648   7.122  10.420   7.588  0.5875 -0.7495  1.1843
28398SOL     OW89649   0.839   4.072   6.274  0.3170 -0.1317  0.2045
28398SOL    HW189650   0.816   4.050   6.183  0.1887  0.2974  0.1304
28398SOL    HW289651   0.934   4.075   6.274  0.3927 -1.7278  0.4681
28399SOL     OW89652   9.950   6.783   7.564  0.1729  0.0334  0.3713
28399SOL    HW189653   9.950   6.856   7.501 -2.0876 -0.4853 -0.3379
28399SOL    HW289654   9.968   6.825   7.648  1.2572  1.0373 -0.3124
28400SOL     OW89655   8.157  10.304   4.896 -0.0098 -0.2855  0.2604
28400SOL    HW189656   8.092  10.300   4.825 -1.4011  0.6307  1.4180
28400SOL    HW289657   8.159  10.215   4.931  1.3260 -0.9756 -1.4055
28401SOL     OW89658   7.385   3.838   3.320 -0.8182 -0.4042 -0.2554
28401SOL    HW189659   7.368   3.809   3.409 -1.3007  3.4715  1.0855
28401SOL    HW289660   7.480   3.848   3.315 -0.8721  0.4445  0.2488
28402SOL     OW89661   3.482   7.439   5.472  0.0574  0.3102 -0.4127
28402SOL    HW189662   3.452   7.351   5.497  0.1884  0.9088  2.0671
28402SOL    HW289663   3.406   7.495   5.486  0.4136  0.8262 -0.5262
28403SOL     OW89664   2.452   7.098   0.530  0.1285 -0.4731 -0.0790
28403SOL    HW189665   2.395   7.071   0.603  0.3931 -1.9650 -0.3967
28403SOL    HW289666   2.393   7.144   0.470 -0.1274  0.6536  0.9677
28404SOL     OW89667   1.287   3.778   7.641  0.0097  0.2791 -0.1925
28404SOL    HW189668   1.285   3.684   7.654  0.2570  0.2561 -0.3157
28404SOL    HW289669   1.262   3.815   7.726 -0.4492  0.0980 -0.2509
28405SOL     OW89670  10.468   1.338   5.141  0.3101  0.1414  0.3479
28405SOL    HW189671  10.411   1.294   5.204  0.5218  0.7073  0.9498
28405SOL    HW289672  10.408   1.381   5.080  0.1044 -0.7967 -0.1278
28406SOL     OW89673   5.208   3.972   5.299 -0.4107  0.2562 -0.0569
28406SOL    HW189674   5.235   3.951   5.210  0.2072  1.4417 -0.1724
28406SOL    HW289675   5.148   4.046   5.290 -0.0595  0.6242  0.5207
28407SOL     OW89676   7.514   5.443   1.715 -0.8407  0.0682 -0.0977
28407SOL    HW189677   7.488   5.533   1.734  1.0472  0.9872 -1.5315
28407SOL    HW289678   7.486   5.393   1.792 -1.7461  1.9110  0.8278
28408SOL     OW89679   6.911   3.035   7.392  0.4452  0.2010 -0.4352
28408SOL    HW189680   6.973   3.106   7.376 -0.2431  0.7211 -0.8409
28408SOL    HW289681   6.873   3.056   7.478  0.3564  0.2458 -0.4846
28409SOL     OW89682   3.166  10.466   1.789  0.2759  0.4597  0.3846
28409SOL    HW189683   3.215  10.405   1.734 -1.0814 -0.5706  0.2838
28409SOL    HW289684   3.230  10.497   1.853  1.5161  0.5879 -0.8691
28410SOL     OW89685   7.554   2.082   1.591 -0.9613 -0.2088 -0.3382
28410SOL    HW189686   7.471   2.128   1.575 -1.6287 -1.1178  0.3667
28410SOL    HW289687   7.618   2.152   1.604 -1.3805  0.5303 -1.9030
28411SOL     OW89688  10.895   2.885   3.869 -0.2223  0.1358  0.4819
28411SOL    HW189689  10.860   2.970   3.896  3.3422  1.8292  0.2769
28411SOL    HW289690  10.944   2.903   3.789  0.5410 -2.1659  0.3673
28412SOL     OW89691   5.752   4.282   6.950 -0.0176  0.1101  0.8345
28412SOL    HW189692   5.660   4.278   6.924 -0.1709  0.0508  1.3894
28412SOL    HW289693   5.794   4.212   6.899  0.2833  1.9465 -1.6054
28413SOL     OW89694  10.991   9.053  10.187 -0.4581  0.1476 -0.6168
28413SOL    HW189695  10.987   9.080  10.279 -2.6816  1.4590 -1.0368
28413SOL    HW289696  10.938   8.973  10.184 -0.0629 -0.1169 -0.7205
28414SOL     OW89697   2.830   9.145   4.642 -0.2941 -0.1641 -0.5960
28414SOL    HW189698   2.740   9.120   4.626  0.3049 -3.2208  0.2307
28414SOL    HW289699   2.846   9.122   4.734  1.0811  1.2055 -0.4454
28415SOL     OW89700   1.329   2.287   8.859 -0.1410  0.0692 -0.7114
28415SOL    HW189701   1.274   2.349   8.812 -1.5731  0.0387  0.8293
28415SOL    HW289702   1.328   2.317   8.950 -1.2982 -2.4282  0.1934
28416SOL     OW89703   8.280   4.978   3.808 -0.0375 -0.1447 -0.3671
28416SOL    HW189704   8.222   4.902   3.805  1.2086 -1.1143 -0.9326
28416SOL    HW289705   8.239   5.042   3.749 -1.4991 -0.0412  0.7063
28417SOL     OW89706   5.080   7.471   9.658  0.3395  0.5625 -0.3534
28417SOL    HW189707   5.146   7.525   9.615 -0.2177  0.9026 -0.7998
28417SOL    HW289708   5.116   7.454   9.745  1.9126 -0.9572 -1.2461
28418SOL     OW89709   7.058   3.938   8.711  0.1885 -0.1925 -0.1360
28418SOL    HW189710   7.088   3.930   8.801 -1.0297  0.6347  0.3643
28418SOL    HW289711   6.963   3.938   8.716  0.0925  0.9861 -1.2947
28419SOL     OW89712  10.511   0.555   3.421 -0.6161  0.0593 -0.5858
28419SOL    HW189713  10.455   0.592   3.353 -4.3189 -1.4577  1.3694
28419SOL    HW289714  10.484   0.463   3.428  2.1166 -0.7703  0.5945
28420SOL     OW89715   0.661   0.452   6.678 -0.9752 -0.6347  0.0373
28420SOL    HW189716   0.668   0.506   6.599 -0.7764 -2.2497 -1.1007
28420SOL    HW289717   0.639   0.514   6.748 -1.8555  0.7443 -1.4000
28421SOL     OW89718   0.444   1.964   0.628  0.0728 -0.1136 -0.4867
28421SOL    HW189719   0.374   1.906   0.655  0.2305 -0.6059 -1.1088
28421SOL    HW289720   0.455   2.025   0.701 -0.6033 -0.3935 -0.1474
28422SOL     OW89721   1.868   6.177   8.787  0.0007  0.1169  0.0227
28422SOL    HW189722   1.795   6.238   8.800  0.5944  0.9783 -0.5993
28422SOL    HW289723   1.895   6.152   8.876 -1.4922 -0.7760  0.2611
28423SOL     OW89724   6.023   0.889   1.630  0.2501 -0.2852 -0.7550
28423SOL    HW189725   5.942   0.839   1.638 -0.1450  0.3187 -0.9089
28423SOL    HW289726   6.003   0.955   1.564  0.7837  0.0363 -0.5959
28424SOL     OW89727   3.307   3.816   1.440  0.0380  0.2906 -0.1397
28424SOL    HW189728   3.356   3.835   1.520 -0.7985 -2.4341  1.1459
28424SOL    HW289729   3.215   3.829   1.464 -0.3145 -1.6961 -0.1877
28425SOL     OW89730   5.149  10.572   9.577  0.2147 -0.3240  0.0485
28425SOL    HW189731   5.170  10.643   9.637 -0.8496 -0.4419  0.5851
28425SOL    HW289732   5.114  10.616   9.499 -1.0488 -0.2468  0.6253
28426SOL     OW89733   0.798  10.520   1.174  0.1026  0.1654  0.3710
28426SOL    HW189734   0.865  10.501   1.108  0.0697  1.8081 -0.1812
28426SOL    HW289735   0.783  10.436   1.217  1.4065 -0.5705 -0.5193
28427SOL     OW89736   8.618  10.561   8.825  0.1084 -0.0501 -0.4412
28427SOL    HW189737   8.613  10.645   8.870  0.5303 -0.4277  0.3247
28427SOL    HW289738   8.647  10.500   8.892  0.1273 -0.7453 -1.0760
28428SOL     OW89739   6.606   1.990   5.364  0.3165 -0.9945  0.1656
28428SOL    HW189740   6.608   2.063   5.425  0.8837 -1.4030  0.6396
28428SOL    HW289741   6.524   1.944   5.384 -0.8498  0.3765 -1.1869
28429SOL     OW89742   8.219   2.567   4.229  0.3509  0.0101  0.1404
28429SOL    HW189743   8.133   2.539   4.259  0.3113  0.5263  0.5323
28429SOL    HW289744   8.276   2.493   4.245  0.3481  0.2896  1.5932
28430SOL     OW89745   2.330   7.864  10.249  0.5617  0.1749 -0.3684
28430SOL    HW189746   2.377   7.782  10.268  2.1261  1.2995  0.9563
28430SOL    HW289747   2.258   7.865  10.313  0.1640 -0.4386 -0.7963
28431SOL     OW89748  10.496   1.204   4.908 -0.1836  0.0224  0.4859
28431SOL    HW189749  10.415   1.154   4.904 -0.5832  0.7708 -1.6507
28431SOL    HW289750  10.490   1.254   4.990 -1.6274 -0.3019  0.5923
28432SOL     OW89751   1.553   1.304   8.112 -0.0119 -0.3260  0.1954
28432SOL    HW189752   1.545   1.209   8.098 -1.2603 -0.4247  1.3772
28432SOL    HW289753   1.474   1.327   8.161  1.5014  0.8779  2.2025
28433SOL     OW89754   7.148  10.212   2.570  0.3886  1.1286 -0.5684
28433SOL    HW189755   7.213  10.247   2.509  1.4363  0.1592 -0.0465
28433SOL    HW289756   7.068  10.205   2.519  1.9856 -2.8793 -2.9876
28434SOL     OW89757   0.150   2.588   8.170  0.1637 -0.2181 -0.5021
28434SOL    HW189758   0.101   2.576   8.089  1.1774 -0.2884 -1.1261
28434SOL    HW289759   0.233   2.541   8.155  0.4282 -0.1114  0.5188
28435SOL     OW89760  10.963   3.783   0.094  0.2028  0.0253  0.4832
28435SOL    HW189761  11.017   3.767   0.172  0.9040  1.2555  0.2722
28435SOL    HW289762  10.880   3.814   0.129  1.0137  2.0213  0.7448
28436SOL     OW89763  10.301   2.050   2.638  0.2591  0.3156 -0.1304
28436SOL    HW189764  10.206   2.055   2.624  0.6277  1.1825 -2.8764
28436SOL    HW289765  10.337   2.028   2.552  2.5383 -0.8339  1.0252
28437SOL     OW89766   6.425   2.127   6.185 -0.2738 -0.2856 -0.5178
28437SOL    HW189767   6.493   2.151   6.123 -1.6023  3.3179 -0.8448
28437SOL    HW289768   6.343   2.140   6.137 -1.3063  1.3746  1.4950
28438SOL     OW89769   9.142   9.250   4.568 -0.3699 -0.0291  0.4301
28438SOL    HW189770   9.129   9.227   4.476 -1.5734  2.1743 -0.0240
28438SOL    HW289771   9.237   9.251   4.580 -0.1410  0.9899 -1.1910
28439SOL     OW89772   6.843   2.683   7.014  0.0509 -0.0557  0.1909
28439SOL    HW189773   6.865   2.645   6.930 -1.2940 -0.4297 -0.0127
28439SOL    HW289774   6.876   2.773   7.009 -0.9260  0.2551 -1.1491
28440SOL     OW89775   5.552   9.200  10.694  0.2845  0.4308  0.4544
28440SOL    HW189776   5.475   9.251  10.718  1.2780  3.3433 -1.8691
28440SOL    HW289777   5.519   9.132  10.636 -0.8054 -0.1369  1.6889
28441SOL     OW89778   0.080   8.715   2.677  0.0834  0.1086  0.1654
28441SOL    HW189779   0.013   8.720   2.608  0.3395  0.9823 -0.0335
28441SOL    HW289780   0.052   8.642   2.732  0.2439 -1.0754 -1.2572
28442SOL     OW89781   6.756   0.187  10.090 -0.3131  0.3933  0.2232
28442SOL    HW189782   6.755   0.281  10.071 -0.8404  0.1097 -1.2669
28442SOL    HW289783   6.744   0.145  10.005  0.4539 -1.0465  0.7912
28443SOL     OW89784   6.624   6.152   4.466 -0.0052  0.1963  0.5365
28443SOL    HW189785   6.553   6.096   4.497  0.3029  0.5010  1.8541
28443SOL    HW289786   6.702   6.096   4.470  0.4733  0.9040  2.7445
28444SOL     OW89787   8.708   6.770   4.345 -0.5163 -0.1781  0.4008
28444SOL    HW189788   8.776   6.837   4.352  0.0115 -0.4823 -1.3119
28444SOL    HW289789   8.631   6.816   4.311 -0.4715 -0.2524  0.1988
28445SOL     OW89790   5.753   8.158  10.679  0.2227 -0.2697 -0.0502
28445SOL    HW189791   5.662   8.134  10.661  0.2021 -0.4133  0.2266
28445SOL    HW289792   5.805   8.087  10.642  0.2077 -0.3102  0.0049
28446SOL     OW89793   5.562  10.381   8.681  0.0753  0.4129  0.8187
28446SOL    HW189794   5.577  10.339   8.766  1.7285  1.1227  0.9018
28446SOL    HW289795   5.616  10.331   8.619  1.1207  1.6350  0.7088
28447SOL     OW89796   1.484   9.089   5.806 -0.8891 -0.2703 -0.0759
28447SOL    HW189797   1.470   9.013   5.748 -0.4012 -0.6584  0.3043
28447SOL    HW289798   1.404   9.094   5.858 -0.8417 -0.6625  0.0433
28448SOL     OW89799   4.526   0.137   3.531  0.0745 -0.5373 -0.1446
28448SOL    HW189800   4.439   0.174   3.548  1.3638  1.2942  3.3382
28448SOL    HW289801   4.546   0.085   3.608  3.0437  1.2444  0.4643
28449SOL     OW89802   6.440   3.022   0.708  0.1502 -0.3498  0.0044
28449SOL    HW189803   6.449   2.943   0.654  3.7853  0.3392 -0.6809
28449SOL    HW289804   6.452   2.992   0.797 -1.4128 -0.8902  0.0664
28450SOL     OW89805   2.761  10.182   5.020  0.6091 -0.6358  0.1058
28450SOL    HW189806   2.687  10.229   4.980  0.2545 -1.9198 -0.8122
28450SOL    HW289807   2.721  10.104   5.058  0.6760  1.0830  4.3210
28451SOL     OW89808   0.330   8.126   1.944 -0.4619 -0.5400  0.2487
28451SOL    HW189809   0.322   8.043   1.990  0.2894 -0.4979  0.4663
28451SOL    HW289810   0.395   8.175   1.994  0.0590 -0.3325 -0.6106
28452SOL     OW89811   4.750   3.040   1.382 -0.1903 -0.3168  0.4844
28452SOL    HW189812   4.731   2.965   1.326  0.4595  1.3341 -2.1688
28452SOL    HW289813   4.664   3.070   1.411 -0.4285 -2.2570  1.9232
28453SOL     OW89814   1.571   3.093   9.597  0.4330 -0.0429 -0.3222
28453SOL    HW189815   1.578   3.188   9.585 -1.2017  0.7894  3.5850
28453SOL    HW289816   1.488   3.069   9.556 -0.2189  0.7021  0.5211
28454SOL     OW89817   7.600   7.294   2.226  0.0596  0.0534 -0.1490
28454SOL    HW189818   7.592   7.215   2.280  0.3825 -0.3826 -0.7309
28454SOL    HW289819   7.547   7.276   2.149 -1.1401  1.0444  0.4203
28455SOL     OW89820   3.565   3.184   9.759  0.7180 -0.2008 -0.3100
28455SOL    HW189821   3.586   3.148   9.673  1.7560 -2.2162  0.7288
28455SOL    HW289822   3.634   3.249   9.775  2.3190 -1.9459  0.2001
28456SOL     OW89823   3.916   0.209   3.018  0.3497  0.4460 -0.2703
28456SOL    HW189824   3.951   0.125   3.048 -0.8445  0.1460  0.3277
28456SOL    HW289825   3.939   0.271   3.087  1.5768  0.7197 -0.8931
28457SOL     OW89826   4.501   0.289   1.051 -0.0656 -0.2627 -0.0598
28457SOL    HW189827   4.406   0.275   1.054  0.0031 -1.1039 -1.0602
28457SOL    HW289828   4.511   0.379   1.018 -0.5097 -0.0679  0.3235
28458SOL     OW89829   0.690   0.548   5.137 -0.3914  0.1833  0.0616
28458SOL    HW189830   0.734   0.558   5.221 -1.5447 -0.4997  0.7771
28458SOL    HW289831   0.682   0.453   5.125 -0.6059  0.2792 -0.6195
28459SOL     OW89832   5.959   5.326   0.222 -0.1372  0.3338 -0.0193
28459SOL    HW189833   5.953   5.232   0.237  1.4683 -0.4924 -3.5475
28459SOL    HW289834   6.025   5.356   0.285  2.0306 -1.6585 -1.1929
28460SOL     OW89835   9.242   5.055   5.196 -0.0585  0.3630 -0.1474
28460SOL    HW189836   9.251   5.122   5.128  0.8614  1.4904  1.0312
28460SOL    HW289837   9.331   5.043   5.228 -0.6062  0.6851  1.6069
28461SOL     OW89838  10.963   4.102  10.998 -0.1081  0.5781 -0.2988
28461SOL    HW189839  11.034   4.134  10.942  0.7734 -0.7690 -0.0150
28461SOL    HW289840  10.900   4.064  10.938  0.9162 -1.0156 -0.4275
28462SOL     OW89841  10.204   0.850   6.624  0.7685  0.3117  0.4774
28462SOL    HW189842  10.231   0.797   6.550  1.1339 -0.6681  1.2914
28462SOL    HW289843  10.164   0.928   6.585  0.4137 -0.4566 -0.7393
28463SOL     OW89844   8.485   0.263   7.520 -0.5267  0.4730  0.1681
28463SOL    HW189845   8.539   0.188   7.546 -0.0459 -0.4286 -2.9287
28463SOL    HW289846   8.540   0.339   7.537  0.0370 -0.0864  0.9353
28464SOL     OW89847   4.938   3.024   4.438  0.5067 -0.3836  0.0037
28464SOL    HW189848   5.019   3.064   4.469  1.5440  0.0424 -2.9613
28464SOL    HW289849   4.949   2.930   4.457  0.4419  0.0004  2.0957
28465SOL     OW89850   5.588   5.643   7.725 -0.2025  0.7518  0.4863
28465SOL    HW189851   5.521   5.696   7.683 -0.3967  0.2892  0.1993
28465SOL    HW289852   5.592   5.564   7.671 -2.7108 -1.3189  3.0384
28466SOL     OW89853   2.898   2.439   0.452 -0.3975  0.2824  0.8216
28466SOL    HW189854   2.843   2.376   0.498 -0.0527 -0.9619 -0.4113
28466SOL    HW289855   2.845   2.468   0.378  0.2802 -0.3317  0.0742
28467SOL     OW89856   7.936   0.870   8.119  0.3599  0.0681  0.3710
28467SOL    HW189857   7.957   0.828   8.202 -0.1339 -0.6316  0.1502
28467SOL    HW289858   7.870   0.936   8.141 -1.6105 -1.7502  0.2173
28468SOL     OW89859   9.942   3.757  10.535  0.0965  0.0891 -0.2763
28468SOL    HW189860  10.032   3.787  10.551  0.1501 -0.2463  0.0656
28468SOL    HW289861   9.941   3.734  10.442  0.7300 -1.0918 -0.0103
28469SOL     OW89862   9.686  10.598   2.070  0.0303  0.2305  0.3872
28469SOL    HW189863   9.649  10.677   2.110  0.7376  1.0244 -0.4794
28469SOL    HW289864   9.774  10.591   2.106  0.6096  0.8500 -0.8354
28470SOL     OW89865   8.500   1.989   2.344  0.4665  0.0833  0.0392
28470SOL    HW189866   8.474   1.903   2.310  3.0419 -0.6550 -0.2823
28470SOL    HW289867   8.473   2.051   2.276  0.6643 -0.7502 -0.8119
28471SOL     OW89868   5.872   7.936   5.218  0.4059 -0.4269 -0.6930
28471SOL    HW189869   5.842   7.858   5.172 -1.4497  0.1450 -0.5057
28471SOL    HW289870   5.908   7.903   5.301 -1.3300 -1.0303 -0.1435
28472SOL     OW89871   0.358   8.968   9.171 -0.3113  0.4345  0.0003
28472SOL    HW189872   0.281   9.021   9.194 -0.7715  0.1644 -0.8645
28472SOL    HW289873   0.335   8.927   9.087 -1.1017 -3.3135  1.8288
28473SOL     OW89874  10.520   6.544   6.295  0.1321  0.6172 -0.0981
28473SOL    HW189875  10.588   6.606   6.268  0.8946  1.8879  4.0274
28473SOL    HW289876  10.454   6.598   6.339 -0.3454 -1.1793  1.5491
28474SOL     OW89877   9.907   8.275   2.399 -0.3388 -0.0313 -0.4445
28474SOL    HW189878   9.836   8.222   2.436  0.5808 -0.3620  0.9029
28474SOL    HW289879   9.968   8.210   2.363 -0.5244  0.2416 -1.2770
28475SOL     OW89880   5.524   3.129   0.679 -0.0529  0.4741 -1.0091
28475SOL    HW189881   5.604   3.115   0.729 -0.1428 -0.5668 -1.1504
28475SOL    HW289882   5.510   3.047   0.632 -0.9798  0.7965 -1.3098
28476SOL     OW89883  10.996   1.874   9.588  0.6818 -0.5268 -0.2508
28476SOL    HW189884  11.033   1.787   9.601  0.8563 -0.5576 -0.9265
28476SOL    HW289885  10.995   1.886   9.493  0.2645  0.0380 -0.1795
28477SOL     OW89886   9.014   1.823   6.425 -0.0024 -0.0636  0.0807
28477SOL    HW189887   8.968   1.822   6.509  1.4325 -0.6197  0.8950
28477SOL    HW289888   9.083   1.888   6.435 -0.3519  0.5066 -0.9943
28478SOL     OW89889   4.222   7.969   9.285 -0.5784 -0.2843 -0.0628
28478SOL    HW189890   4.218   8.063   9.304 -0.4753 -0.3483  0.2855
28478SOL    HW289891   4.183   7.928   9.362  1.4765 -0.6451  0.8350
28479SOL     OW89892   1.494   5.268   4.424 -0.0190 -0.7143  0.4306
28479SOL    HW189893   1.485   5.252   4.518 -0.3722 -0.2605  0.4754
28479SOL    HW289894   1.582   5.237   4.403 -0.5234 -2.3536  0.5827
28480SOL     OW89895   4.778   5.630   6.017 -0.0879  0.1426 -0.0180
28480SOL    HW189896   4.842   5.588   5.960 -0.4039 -1.7635  0.9453
28480SOL    HW289897   4.697   5.631   5.966 -0.2773 -1.2168  0.2259
28481SOL     OW89898   6.154   0.072   0.599  0.7816 -0.1312  0.2357
28481SOL    HW189899   6.088   0.075   0.669  0.7077 -1.5171  0.2462
28481SOL    HW289900   6.208  -0.004   0.620  1.8135  0.4191 -0.3079
28482SOL     OW89901   0.369   7.802   0.494  0.0187  0.2671 -0.3814
28482SOL    HW189902   0.418   7.734   0.448  2.1207  1.0687  0.5433
28482SOL    HW289903   0.396   7.793   0.586  0.2598  2.2203 -0.2110
28483SOL     OW89904   8.016   7.669   5.800 -0.3401 -0.1801 -0.1110
28483SOL    HW189905   8.053   7.584   5.822  1.7382  0.6686 -0.1343
28483SOL    HW289906   8.091   7.727   5.792 -1.6236  1.4332 -1.1676
28484SOL     OW89907   8.654   5.450   5.601 -0.6407  0.3278 -0.1293
28484SOL    HW189908   8.700   5.369   5.619 -0.5002  0.5799  0.7249
28484SOL    HW289909   8.577   5.447   5.658 -0.8748  0.5884 -0.4259
28485SOL     OW89910   7.180  10.533   2.164 -0.0467 -0.1920 -0.2589
28485SOL    HW189911   7.156  10.452   2.209  0.7588 -1.8259 -2.5705
28485SOL    HW289912   7.147  10.521   2.075  3.2924  0.3738 -1.7008
28486SOL     OW89913   9.393   3.386   6.999 -0.1336 -0.0203  0.1357
28486SOL    HW189914   9.362   3.463   6.951 -0.3737 -1.3094 -1.8992
28486SOL    HW289915   9.433   3.331   6.932  0.2179 -1.5808  1.5677
28487SOL     OW89916   6.702   6.020   8.756 -0.2724 -0.2491 -0.0520
28487SOL    HW189917   6.758   5.958   8.802  1.2747  0.5036 -0.8774
28487SOL    HW289918   6.762   6.080   8.713 -1.5657 -1.3060 -3.6463
28488SOL     OW89919   6.766   1.115   2.494 -0.0061 -0.2835 -0.3034
28488SOL    HW189920   6.828   1.066   2.547 -0.7876 -1.9697 -0.8645
28488SOL    HW289921   6.681   1.074   2.511 -0.4959  0.0470 -1.7627
28489SOL     OW89922   5.085  10.398   4.951 -0.1159 -0.0552  0.2273
28489SOL    HW189923   4.998  10.379   4.916 -0.2671  0.6535  0.2036
28489SOL    HW289924   5.086  10.493   4.961  0.0704 -0.1964  1.7717
28490SOL     OW89925   3.867   2.910   3.829 -0.3119 -1.1491 -0.0228
28490SOL    HW189926   3.959   2.911   3.803 -0.6287 -1.3154 -1.2276
28490SOL    HW289927   3.861   2.839   3.893  0.5018 -0.7443  0.5196
28491SOL     OW89928   5.958   6.255   8.265 -0.8063  0.3442 -0.1595
28491SOL    HW189929   5.991   6.170   8.294 -0.9940  0.5306  0.6027
28491SOL    HW289930   5.972   6.314   8.339  3.0050  2.0240 -1.9177
28492SOL     OW89931   3.943   3.782   8.405  0.2786 -0.4755 -0.5199
28492SOL    HW189932   3.999   3.859   8.392  1.1598 -1.0290 -0.0837
28492SOL    HW289933   3.863   3.802   8.355 -0.1130  1.3479  0.7031
28493SOL     OW89934   6.408  10.575   9.799 -0.4489  0.2592 -0.3215
28493SOL    HW189935   6.448  10.587   9.713  0.3898 -0.3475 -0.0317
28493SOL    HW289936   6.479  10.543   9.854 -0.9960  0.5662  0.5820
28494SOL     OW89937   8.004   0.291   9.046  0.3740 -0.3086  0.4202
28494SOL    HW189938   7.973   0.303   8.956 -0.2003  2.1312  0.8683
28494SOL    HW289939   8.031   0.200   9.050 -0.2959 -0.6861 -2.0075
28495SOL     OW89940   5.304   6.625   6.656  0.0974  0.1962  0.4942
28495SOL    HW189941   5.373   6.684   6.627 -0.1498  0.4087  0.3439
28495SOL    HW289942   5.226   6.653   6.609 -0.0583 -0.1435  0.5465
28496SOL     OW89943   4.246   3.867   0.434 -0.3176  0.4726 -0.0491
28496SOL    HW189944   4.212   3.937   0.378  0.5701  1.3146  0.4431
28496SOL    HW289945   4.324   3.835   0.388  0.3990  1.1480  0.6854
28497SOL     OW89946   1.801   4.550   4.269 -0.0567 -0.2548  0.0178
28497SOL    HW189947   1.709   4.577   4.269  0.0725  0.2939 -1.7131
28497SOL    HW289948   1.815   4.513   4.182  2.1026  2.4241 -0.8952
28498SOL     OW89949   6.452   2.555   9.804 -0.8894  0.2777  0.5419
28498SOL    HW189950   6.538   2.551   9.763 -0.3928  2.3026  1.2920
28498SOL    HW289951   6.398   2.603   9.741 -0.7510  1.3116  1.1918
28499SOL     OW89952   8.885   5.385   3.242 -0.2030 -0.4066 -0.2164
28499SOL    HW189953   8.856   5.303   3.282  1.9175 -0.7439  0.7514
28499SOL    HW289954   8.961   5.361   3.189  1.3437  1.0904  1.2000
28500SOL     OW89955   0.507   2.082   7.379 -0.1531 -0.3523  0.0142
28500SOL    HW189956   0.443   2.141   7.340 -0.3861 -0.1050  0.7424
28500SOL    HW289957   0.534   2.127   7.460  1.5917 -0.0387 -0.7074
28501SOL     OW89958   0.742   7.947   6.787 -0.2192  0.5308  0.0349
28501SOL    HW189959   0.782   8.002   6.854  0.6727  1.9371 -1.5910
28501SOL    HW289960   0.813   7.892   6.755 -0.9969 -1.2959  1.2985
28502SOL     OW89961   4.039   4.246   5.152  0.0641  0.4194 -0.1366
28502SOL    HW189962   4.061   4.169   5.203  0.5582  0.0642 -0.8737
28502SOL    HW289963   4.102   4.313   5.179 -0.1997  0.4932  0.3098
28503SOL     OW89964   3.658   1.594   1.293 -0.5455 -0.6818 -0.2537
28503SOL    HW189965   3.640   1.529   1.225  1.0265 -1.5571  0.1025
28503SOL    HW289966   3.712   1.660   1.250  1.1993 -1.6894  0.2943
28504SOL     OW89967   8.601   1.509   1.410  0.3152  0.1481 -0.1533
28504SOL    HW189968   8.682   1.458   1.416  0.4379  0.2892 -0.5405
28504SOL    HW289969   8.531   1.444   1.413  0.4831 -0.1051 -1.1818
28505SOL     OW89970   7.065   0.521   7.855 -0.4336  0.5110 -0.1794
28505SOL    HW189971   7.131   0.555   7.916  0.3828 -0.4421 -0.5068
28505SOL    HW289972   7.094   0.551   7.769  1.2293 -2.2865 -0.6867
28506SOL     OW89973  10.246   2.503   5.682 -0.3269  0.7021 -0.3323
28506SOL    HW189974  10.272   2.431   5.625 -0.3053 -0.6683  1.3150
28506SOL    HW289975  10.151   2.510   5.670  0.0026  2.2130 -2.4564
28507SOL     OW89976   3.811   1.492  10.511 -0.2061 -0.2251  0.1093
28507SOL    HW189977   3.813   1.476  10.605 -1.7641 -1.0505  0.0423
28507SOL    HW289978   3.738   1.554  10.500 -0.5901 -0.7987 -0.6280
28508SOL     OW89979  10.820   5.357   5.275 -0.2590  0.4701  0.3121
28508SOL    HW189980  10.797   5.312   5.356  2.1389  1.2822  1.5536
28508SOL    HW289981  10.737   5.391   5.242 -1.3119  0.1681  2.4694
28509SOL     OW89982   0.206   2.020  10.192  0.4732  0.6655 -0.0539
28509SOL    HW189983   0.257   1.939  10.187 -0.6339 -0.1949  1.6876
28509SOL    HW289984   0.263   2.082  10.237  0.4834  0.1267  0.6902
28510SOL     OW89985   7.163   7.217   5.691  0.4939  0.1695  0.5935
28510SOL    HW189986   7.243   7.250   5.651  0.8228 -0.4440  0.7350
28510SOL    HW289987   7.186   7.129   5.722 -0.7822 -0.8349 -1.1498
28511SOL     OW89988   3.424   0.780   5.618  0.6411  0.1553 -0.3684
28511SOL    HW189989   3.496   0.788   5.681  0.0103  0.4607  0.3301
28511SOL    HW289990   3.421   0.865   5.575  0.7524  0.1166 -0.4511
28512SOL     OW89991   6.633   2.691   0.108 -0.4072 -0.2389 -0.1844
28512SOL    HW189992   6.685   2.697   0.027 -0.6813  2.2853 -0.2633
28512SOL    HW289993   6.673   2.756   0.166 -0.3176 -1.8919  1.7071
28513SOL     OW89994   9.709   5.479   6.554  0.0416 -0.2119 -0.1893
28513SOL    HW189995   9.689   5.444   6.640 -0.5230  0.9874  0.1950
28513SOL    HW289996   9.652   5.430   6.494 -0.4441 -0.2198  0.2746
28514SOL     OW89997   1.768   4.027   0.302  0.3438 -0.1456  0.1091
28514SOL    HW189998   1.846   4.066   0.262 -0.5383  0.8782 -0.6822
28514SOL    HW289999   1.798   3.994   0.386  2.1872 -2.0092 -1.1861
28515SOL     OW90000   5.373   1.616   9.238 -0.1306  0.5456  0.0389
28515SOL    HW190001   5.424   1.595   9.160  1.4095  0.3893  1.0563
28515SOL    HW290002   5.326   1.535   9.258 -1.0925  0.7823 -1.0768
28516SOL     OW90003   1.648  10.909   2.425 -0.0521  0.0074 -0.8287
28516SOL    HW190004   1.602  10.961   2.491 -1.3786 -1.3242 -0.6503
28516SOL    HW290005   1.718  10.865   2.473 -1.6945 -1.8433  0.0352
28517SOL     OW90006   5.899   1.955   1.668  0.0613 -0.0946  0.4678
28517SOL    HW190007   5.848   1.929   1.591 -0.5060  0.0534  0.7884
28517SOL    HW290008   5.929   2.044   1.648  0.2336 -0.1986  0.2600
28518SOL     OW90009   0.127   0.656   6.222  0.2317 -0.0126  0.2294
28518SOL    HW190010   0.182   0.726   6.256  0.0836 -0.1860  0.8376
28518SOL    HW290011   0.065   0.638   6.292  1.0515 -1.6070  0.6023
28519SOL     OW90012   7.233   1.946   4.736 -0.1910 -0.1833  0.2897
28519SOL    HW190013   7.222   1.857   4.703 -1.0917  0.0469 -0.0622
28519SOL    HW290014   7.259   1.934   4.828 -1.8729 -0.8275  0.7339
28520SOL     OW90015   2.483   7.730   9.234  0.5049  0.3007  0.2545
28520SOL    HW190016   2.495   7.702   9.143  0.6918 -1.4756  0.7999
28520SOL    HW290017   2.547   7.801   9.245  0.9267  0.1142 -0.8089
28521SOL     OW90018   7.484   6.197   7.909 -0.1355  0.1527 -0.4175
28521SOL    HW190019   7.465   6.175   7.818 -2.1593  0.0139 -0.0119
28521SOL    HW290020   7.538   6.276   7.904  0.1647 -0.1155 -1.7271
28522SOL     OW90021   7.588   5.473   5.892 -0.0355  0.5279  0.6670
28522SOL    HW190022   7.657   5.425   5.846 -0.7468  1.2549 -1.2813
28522SOL    HW290023   7.634   5.521   5.961  0.8080 -2.1557  2.1184
28523SOL     OW90024   1.692   6.299   1.239 -0.1337  0.6143  0.0379
28523SOL    HW190025   1.611   6.249   1.254  1.7983 -2.7303  0.3986
28523SOL    HW290026   1.716   6.280   1.148  1.0159  0.1949  0.4030
28524SOL     OW90027   0.988   3.625   8.487  0.0603 -0.4348 -0.1453
28524SOL    HW190028   0.938   3.686   8.541  0.1594  0.1377 -0.6963
28524SOL    HW290029   0.963   3.539   8.519 -0.4747 -0.1209  0.2921
28525SOL     OW90030   1.553   4.146  10.264  0.2236 -0.4312  0.7987
28525SOL    HW190031   1.618   4.192  10.318  1.9177 -1.1826 -0.5038
28525SOL    HW290032   1.602   4.119  10.186 -2.1482  0.7291 -1.2105
28526SOL     OW90033   7.341   7.649   8.313 -0.4898 -0.0476 -1.1275
28526SOL    HW190034   7.278   7.614   8.250 -2.6727 -1.5390  1.6158
28526SOL    HW290035   7.399   7.575   8.332 -2.4520 -1.0973  1.5037
28527SOL     OW90036   2.918   0.381   7.298  0.2301 -0.0865 -0.7012
28527SOL    HW190037   2.859   0.454   7.281  0.6241  0.7539  1.2118
28527SOL    HW290038   2.994   0.397   7.242  0.0251  0.6172 -0.7882
28528SOL     OW90039   5.106   5.199   1.588  0.1854  0.1013 -0.2413
28528SOL    HW190040   5.200   5.186   1.598  0.3071  0.7231 -0.5609
28528SOL    HW290041   5.090   5.183   1.495  0.0441  0.4046 -0.2698
28529SOL     OW90042   2.827   0.416  11.027 -0.1546 -0.1583 -0.1532
28529SOL    HW190043   2.878   0.468  11.089 -0.6720 -3.3170  3.3075
28529SOL    HW290044   2.736   0.445  11.039 -0.0712  0.4191 -0.8230
28530SOL     OW90045   9.330   4.000  10.502  0.0671 -0.5522 -0.3373
28530SOL    HW190046   9.365   4.083  10.471  0.5214  0.0492  1.6219
28530SOL    HW290047   9.343   4.003  10.597 -2.0090 -1.8683  0.0504
28531SOL     OW90048  10.012   5.297   4.635 -0.0005 -0.0765  0.2488
28531SOL    HW190049  10.094   5.269   4.677  0.8815  0.4541 -1.0563
28531SOL    HW290050   9.957   5.327   4.707  1.1175 -0.0592  1.1172
28532SOL     OW90051   5.511   0.456   4.213  0.2800  0.0126 -0.2565
28532SOL    HW190052   5.436   0.429   4.266  0.5219 -0.1144  0.0248
28532SOL    HW290053   5.529   0.546   4.240  0.4721 -0.0895 -0.0426
28533SOL     OW90054   0.930   2.556   1.751  0.5766 -0.1737  0.7900
28533SOL    HW190055   0.857   2.550   1.690  0.5754  0.8750  0.6568
28533SOL    HW290056   0.908   2.497   1.823  0.4915 -1.2809 -0.1311
28534SOL     OW90057   0.875   1.988   5.018  0.3344  0.0602 -0.3967
28534SOL    HW190058   0.842   1.926   5.082 -1.0945  0.8331 -0.3361
28534SOL    HW290059   0.917   2.057   5.070  1.6689 -0.6834 -0.4514
28535SOL     OW90060   8.591   3.814  10.623  0.0661  0.2920 -0.8818
28535SOL    HW190061   8.526   3.821  10.553  0.3008  1.6121 -0.9905
28535SOL    HW290062   8.669   3.857  10.589  1.0882 -1.4035 -0.8089
28536SOL     OW90063   7.574   1.036   4.226  0.2375 -0.2808  0.4571
28536SOL    HW190064   7.609   0.963   4.277 -1.2939 -1.5932 -0.2923
28536SOL    HW290065   7.586   1.011   4.135  1.2746  1.2172  0.1463
28537SOL     OW90066   3.580   9.787   2.521  0.4613  0.2398 -0.5445
28537SOL    HW190067   3.640   9.771   2.449 -0.6120 -0.8965 -1.2207
28537SOL    HW290068   3.632   9.774   2.600  1.4492  0.7007 -1.1144
28538SOL     OW90069   7.051   0.934   0.320 -0.2341  0.3290  0.4531
28538SOL    HW190070   7.089   1.008   0.367  0.4877 -0.5192  1.2691
28538SOL    HW290071   7.105   0.859   0.347 -0.9778 -0.5006 -0.2972
28539SOL     OW90072   9.438   9.669   7.459  0.3050 -0.1270 -0.2707
28539SOL    HW190073   9.463   9.659   7.551 -2.0214  3.5036  0.9925
28539SOL    HW290074   9.521   9.671   7.412  1.6993 -0.1038  2.0156
28540SOL     OW90075   3.084  10.658   1.579  0.2144 -0.6198 -0.0519
28540SOL    HW190076   3.162  10.634   1.529  0.6614 -0.0175  0.3403
28540SOL    HW290077   3.098  10.620   1.665 -0.5230 -1.5936 -0.3446
28541SOL     OW90078   7.947   2.691   4.045  0.6715 -0.3467 -0.3602
28541SOL    HW190079   7.971   2.767   3.993 -1.9974 -1.2705 -3.3239
28541SOL    HW290080   7.982   2.616   3.996 -0.7958 -1.2024 -0.1797
28542SOL     OW90081   6.925   0.291   9.517  0.0573 -0.6473  0.1168
28542SOL    HW190082   6.890   0.363   9.569  0.9325 -0.3314  0.2862
28542SOL    HW290083   6.950   0.331   9.434 -0.9999 -1.0834 -0.4310
28543SOL     OW90084   1.656  10.297   9.833  0.9813  0.2992  0.1856
28543SOL    HW190085   1.667  10.389   9.812  0.2647  0.6454  1.2539
28543SOL    HW290086   1.572  10.272   9.793  2.0501 -0.4434 -1.7712
28544SOL     OW90087   4.765   2.441   4.575  0.4556 -0.3993  0.2503
28544SOL    HW190088   4.709   2.517   4.586  0.6076 -0.2625  0.0877
28544SOL    HW290089   4.705   2.368   4.561  0.3287 -0.0230 -1.4492
28545SOL     OW90090   1.567  10.314   9.374  0.4465  0.0376 -0.0149
28545SOL    HW190091   1.487  10.287   9.327 -0.6355  1.3428  0.9979
28545SOL    HW290092   1.635  10.315   9.307 -0.8603  0.9604 -1.3859
28546SOL     OW90093   9.114   0.914   4.650 -0.6474  0.0090 -0.2150
28546SOL    HW190094   9.089   0.966   4.726  0.1062 -1.2463  0.9252
28546SOL    HW290095   9.186   0.964   4.610 -1.8519  1.3005 -0.8711
28547SOL     OW90096   3.732   3.750   4.476 -0.7544  0.0926 -0.7563
28547SOL    HW190097   3.790   3.677   4.495  0.9897  1.3724 -0.8430
28547SOL    HW290098   3.706   3.739   4.385 -0.1714 -0.2032 -0.8862
28548SOL     OW90099   9.498   1.817   9.313  0.2477 -0.2677 -0.2449
28548SOL    HW190100   9.533   1.861   9.390  0.5268 -0.4196 -0.2833
28548SOL    HW290101   9.531   1.727   9.318 -0.2975 -0.4679 -0.1845
28549SOL     OW90102   9.645  10.850   0.969 -0.1050  0.5360 -0.1307
28549SOL    HW190103   9.699  10.929   0.973  0.4407  0.1232  1.5723
28549SOL    HW290104   9.605  10.853   0.882 -0.0936  2.6660 -0.1277
28550SOL     OW90105   7.915   6.708  10.686  0.5199  0.1652  0.3269
28550SOL    HW190106   7.836   6.734  10.640  1.6445  1.0780 -1.1624
28550SOL    HW290107   7.888   6.700  10.778 -0.8065  2.6598  0.2281
28551SOL     OW90108   5.477   2.083   1.711 -0.3612 -0.0955 -0.4308
28551SOL    HW190109   5.414   2.091   1.639  0.2792 -1.4218 -1.1671
28551SOL    HW290110   5.452   2.003   1.757  0.7390 -0.6266 -0.7163
28552SOL     OW90111   3.763  10.642   8.025 -0.4788 -0.1499 -0.3967
28552SOL    HW190112   3.774  10.736   8.039 -1.6043  0.0062 -0.4543
28552SOL    HW290113   3.685  10.636   7.971 -1.8506 -1.2268  1.5894
28553SOL     OW90114   5.419   5.957   7.041 -0.3035  0.2488 -0.0979
28553SOL    HW190115   5.332   5.938   7.006  0.5081  0.6204 -2.5050
28553SOL    HW290116   5.468   5.990   6.966  2.0960 -0.4837  1.0479
28554SOL     OW90117   6.236   3.959   5.602 -0.4053 -0.8615 -0.0239
28554SOL    HW190118   6.158   3.932   5.553  0.5942 -1.2161 -1.4893
28554SOL    HW290119   6.247   3.892   5.670  0.4545 -2.6970 -1.8681
28555SOL     OW90120   9.295   7.424   3.310  0.1081  0.1061 -0.5241
28555SOL    HW190121   9.389   7.417   3.294  0.7704  1.6114  2.2171
28555SOL    HW290122   9.275   7.352   3.370  0.1548  1.4828  1.2048
28556SOL     OW90123   6.798  10.161   7.982 -0.1405  0.0102  0.5893
28556SOL    HW190124   6.754  10.219   8.044 -0.1849  1.1722 -0.4943
28556SOL    HW290125   6.864  10.216   7.940 -0.4704 -0.5873 -0.7783
28557SOL     OW90126   0.485   2.520   6.192 -0.2305  0.4830  0.1307
28557SOL    HW190127   0.575   2.540   6.164  0.0566  0.4157  0.9724
28557SOL    HW290128   0.488   2.427   6.216 -0.1941  0.7722  1.3367
28558SOL     OW90129  10.344   5.996   5.484  0.1937 -0.1084  0.5161
28558SOL    HW190130  10.377   5.918   5.529 -0.6323 -0.7064  0.0919
28558SOL    HW290131  10.359   5.979   5.391  0.4055  0.4283  0.4481
28559SOL     OW90132   4.958   6.448   4.805  0.3306 -0.1181 -0.4529
28559SOL    HW190133   5.039   6.479   4.844  1.0546 -1.0340 -1.2025
28559SOL    HW290134   4.957   6.487   4.717 -0.6657  0.9017 -0.0129
28560SOL     OW90135   5.842   3.702   9.162  0.2324 -0.0050 -0.3166
28560SOL    HW190136   5.870   3.615   9.132  0.6606  0.3879 -1.0832
28560SOL    HW290137   5.771   3.684   9.224  1.6345 -0.9819  1.0623
28561SOL     OW90138   9.397   5.822   4.535 -0.0740 -0.1025  0.2064
28561SOL    HW190139   9.492   5.826   4.551 -0.1705  2.5134  0.6557
28561SOL    HW290140   9.389   5.803   4.442  0.8600 -0.8215  0.2516
28562SOL     OW90141   1.955   0.461   3.257  0.6475 -0.0174  0.7439
28562SOL    HW190142   1.903   0.403   3.312  0.4125 -0.6258 -0.1027
28562SOL    HW290143   1.916   0.454   3.170  0.0020  2.1587  0.7934
28563SOL     OW90144   8.282   7.586   3.366 -0.3668 -0.0866  0.1425
28563SOL    HW190145   8.226   7.551   3.436 -0.4282  2.0004  1.2158
28563SOL    HW290146   8.365   7.541   3.378 -0.7807 -0.7345  0.7039
28564SOL     OW90147   0.189   3.969   6.428 -0.4221  0.3497  0.4454
28564SOL    HW190148   0.162   3.879   6.410 -0.7656  0.1595  1.8219
28564SOL    HW290149   0.161   4.018   6.351 -1.7519 -0.4314  0.4013
28565SOL     OW90150   5.310   8.098   9.699 -0.0632  0.3540 -0.0385
28565SOL    HW190151   5.285   8.140   9.781  2.0605 -0.6425  1.2072
28565SOL    HW290152   5.249   8.026   9.689 -2.4973  2.4168 -1.1866
28566SOL     OW90153   9.487   7.794  10.569  0.5384  0.1171 -0.2798
28566SOL    HW190154   9.548   7.743  10.622  1.1068 -0.1254 -1.1379
28566SOL    HW290155   9.456   7.863  10.627 -0.8679 -1.6481  1.1652
28567SOL     OW90156   8.361   1.361   3.803 -0.3759 -0.2239 -0.3465
28567SOL    HW190157   8.372   1.314   3.720 -1.4447  0.3038 -0.8206
28567SOL    HW290158   8.389   1.450   3.784  0.6739 -0.4126  0.2597
28568SOL     OW90159   5.482   8.727   8.616 -0.3671 -0.2645  0.1634
28568SOL    HW190160   5.440   8.681   8.688 -1.5558  0.1638 -0.2466
28568SOL    HW290161   5.422   8.797   8.592  1.4037  1.5683  0.7866
28569SOL     OW90162   6.164   7.792   6.017 -0.2629 -0.2935 -0.1195
28569SOL    HW190163   6.162   7.696   6.008  1.2941 -0.3399 -0.1893
28569SOL    HW290164   6.231   7.820   5.955 -0.7813  0.8632 -0.1688
28570SOL     OW90165   8.216   9.705   8.784 -0.0582  0.3980  0.5245
28570SOL    HW190166   8.288   9.741   8.732 -1.7330 -0.5647 -2.7789
28570SOL    HW290167   8.253   9.629   8.827  1.0515  0.2260 -0.6821
28571SOL     OW90168   8.738   3.703   2.151 -0.1723 -0.1560  0.2662
28571SOL    HW190169   8.823   3.718   2.108  0.4439 -0.4342  1.3637
28571SOL    HW290170   8.756   3.711   2.244 -0.8579 -2.5269  0.6714
28572SOL     OW90171   8.472   9.720   4.529  0.2079 -1.1020 -0.2529
28572SOL    HW190172   8.438   9.779   4.597  0.1259 -2.3312  0.8108
28572SOL    HW290173   8.408   9.726   4.458 -0.0559 -0.2875  0.0417
28573SOL     OW90174   5.133   2.171  10.786 -1.5964 -0.8228 -0.9488
28573SOL    HW190175   5.042   2.186  10.811 -1.0247 -0.7429  1.3260
28573SOL    HW290176   5.184   2.210  10.857  0.2359 -0.6882 -2.2602
28574SOL     OW90177   9.268   4.055   2.122 -0.0139 -0.3592  0.3454
28574SOL    HW190178   9.219   3.977   2.151 -1.0593  1.1038  2.8446
28574SOL    HW290179   9.201   4.113   2.086  0.3301  0.4401  0.9707
28575SOL     OW90180   5.049  10.971   4.470 -0.0453 -0.5361  0.4212
28575SOL    HW190181   5.112  11.033   4.431 -0.7204 -1.0950 -1.7085
28575SOL    HW290182   5.102  10.917   4.528  1.4405 -0.8082 -1.0963
28576SOL     OW90183   7.530   4.436   1.733  0.4678 -0.3587 -0.0039
28576SOL    HW190184   7.455   4.491   1.710  0.8850  0.4650  0.5322
28576SOL    HW290185   7.492   4.356   1.769 -0.1749 -1.2534 -2.5321
28577SOL     OW90186   8.324   0.479   1.259 -0.7180 -0.5146 -0.0058
28577SOL    HW190187   8.300   0.535   1.332  0.4985 -1.6110  1.2992
28577SOL    HW290188   8.408   0.514   1.228  0.7982 -2.3188  1.7434
28578SOL     OW90189   9.263   0.538   8.559  0.1270  0.2551 -0.3036
28578SOL    HW190190   9.355   0.539   8.531  0.3491  2.3880  0.3184
28578SOL    HW290191   9.213   0.548   8.478  0.6024  1.9995 -0.4362
28579SOL     OW90192   6.902   9.579   0.122  0.4407 -0.0422  0.2772
28579SOL    HW190193   6.842   9.651   0.144 -0.8051 -0.8142 -0.4673
28579SOL    HW290194   6.970   9.621   0.069 -0.2266  0.6174 -0.0792
28580SOL     OW90195  10.745  10.587   1.601 -0.7126 -0.0202  0.5474
28580SOL    HW190196  10.799  10.569   1.678 -0.4353 -1.9784 -0.0330
28580SOL    HW290197  10.722  10.680   1.608  0.7697  0.2794  2.0392
28581SOL     OW90198   1.022   0.393   6.047  0.1396 -0.0149 -0.3385
28581SOL    HW190199   1.003   0.307   6.009 -0.4525  0.5223 -1.3204
28581SOL    HW290200   1.064   0.374   6.130 -0.0114 -1.2577 -0.5243
28582SOL     OW90201   1.593  10.716   7.437  0.5289 -0.1589 -0.5830
28582SOL    HW190202   1.650  10.641   7.451  2.4681  1.1461 -1.0820
28582SOL    HW290203   1.569  10.711   7.344  1.4658  0.3535 -0.8615
28583SOL     OW90204   6.926   7.357   9.486 -0.1105 -0.1551  0.1793
28583SOL    HW190205   6.858   7.290   9.483  1.0079 -1.3229 -2.1954
28583SOL    HW290206   6.981   7.333   9.561 -0.2137 -1.4241 -0.1304
28584SOL     OW90207   7.489   8.272   5.146 -0.3947  0.5021 -0.6033
28584SOL    HW190208   7.500   8.364   5.169 -0.8455  0.5884 -0.7205
28584SOL    HW290209   7.396   8.263   5.125 -0.7815 -0.3842  1.2291
28585SOL     OW90210   5.523   8.807   2.968  0.1245 -0.4416 -0.3390
28585SOL    HW190211   5.482   8.893   2.963 -0.0066 -0.5529 -1.8170
28585SOL    HW290212   5.544   8.795   3.060  1.4756  1.7717 -0.3016
28586SOL     OW90213   8.625  10.917   5.015  0.0739  0.0018  0.2225
28586SOL    HW190214   8.563  10.870   4.959  0.3654 -0.4478  0.2656
28586SOL    HW290215   8.573  10.946   5.089  0.3482 -2.4847  1.4922
28587SOL     OW90216   4.901   2.605   7.415  0.2191 -0.4029 -0.3688
28587SOL    HW190217   4.931   2.539   7.351  0.5288  0.0072 -0.6518
28587SOL    HW290218   4.969   2.606   7.482  0.4723 -0.0061 -0.6289
28588SOL     OW90219   9.282   3.211   0.771  0.5169 -0.8635  0.0270
28588SOL    HW190220   9.318   3.274   0.709  0.1620  0.6626  1.3343
28588SOL    HW290221   9.357   3.154   0.793  1.6500  0.9497  1.0788
28589SOL     OW90222   8.624   9.686   2.125 -0.2475  0.0312  0.3612
28589SOL    HW190223   8.611   9.684   2.031 -0.3321  0.5487  0.3611
28589SOL    HW290224   8.713   9.720   2.137  0.3665 -1.4819  0.4298
28590SOL     OW90225   4.325   6.088   4.721 -0.0893  0.3848 -0.2905
28590SOL    HW190226   4.371   6.167   4.694 -0.2024  0.2277 -0.9675
28590SOL    HW290227   4.351   6.074   4.812 -1.3713  2.1588  0.4186
28591SOL     OW90228   8.904   9.676   5.701  0.5179 -0.4499 -0.0396
28591SOL    HW190229   8.827   9.672   5.758  0.6076  0.0356  0.1193
28591SOL    HW290230   8.869   9.694   5.614  0.6078  3.2135  0.5405
28592SOL     OW90231  10.534   3.061   2.918 -0.3755  0.3182  0.4965
28592SOL    HW190232  10.592   2.989   2.943 -1.5690 -1.0605 -0.5562
28592SOL    HW290233  10.579   3.104   2.845 -0.2465 -0.1554  0.2946
28593SOL     OW90234   9.058   9.417   3.280 -0.0558 -0.1751  0.1060
28593SOL    HW190235   9.141   9.460   3.301  0.2025 -0.7674  0.3230
28593SOL    HW290236   8.991   9.479   3.308  0.2802 -0.7379  2.3042
28594SOL     OW90237   1.111   1.007   2.385 -0.4454 -0.0671  0.0789
28594SOL    HW190238   1.172   0.934   2.400 -1.5808 -0.8136  1.2009
28594SOL    HW290239   1.041   0.969   2.332 -1.5194 -0.0673  1.4472
28595SOL     OW90240   6.066   3.126   0.666  0.1142 -0.1011  0.1953
28595SOL    HW190241   6.019   3.057   0.713  2.2647 -1.3343  0.6652
28595SOL    HW290242   6.083   3.089   0.580 -0.1723  0.5389 -0.1486
28596SOL     OW90243  10.453   8.438   1.749  0.0168  0.0402 -0.4012
28596SOL    HW190244  10.405   8.438   1.666  0.1216  0.4580 -0.4604
28596SOL    HW290245  10.467   8.530   1.769 -0.8353 -0.0233  0.5597
28597SOL     OW90246   2.868   5.718   0.997 -0.0907 -0.1139  0.1524
28597SOL    HW190247   2.840   5.687   0.911  0.8028  2.4163 -1.1272
28597SOL    HW290248   2.787   5.721   1.048 -0.9584  0.1606 -1.1902
28598SOL     OW90249   2.051  10.425   8.122  0.2250 -0.6200  0.4246
28598SOL    HW190250   2.092  10.408   8.207 -2.2122 -0.9518  1.6250
28598SOL    HW290251   2.029  10.518   8.124 -0.1427 -0.7029  0.2905
28599SOL     OW90252   5.011   0.889   6.370 -0.1442  0.4899  0.0041
28599SOL    HW190253   5.010   0.850   6.282  0.1764 -1.6772  0.8899
28599SOL    HW290254   4.920   0.885   6.398 -0.0610  0.0004  0.2245
28600SOL     OW90255   6.040   7.060   9.139 -0.2328  0.3412  0.4069
28600SOL    HW190256   5.991   7.099   9.212 -1.9995  0.4698 -0.8022
28600SOL    HW290257   6.028   7.121   9.067  2.5591  0.8663  0.3006
28601SOL     OW90258   6.170   5.628   6.543  0.0829 -0.2674 -0.5319
28601SOL    HW190259   6.243   5.684   6.570  0.7944 -0.8453 -1.2229
28601SOL    HW290260   6.092   5.677   6.568  0.6855  1.1617 -1.3823
28602SOL     OW90261   7.982   7.115   4.615  0.0011 -0.0381  0.3840
28602SOL    HW190262   7.910   7.061   4.582 -0.2542  0.6754 -0.2577
28602SOL    HW290263   8.040   7.054   4.659 -0.0104 -0.9145 -0.7877
28603SOL     OW90264   8.814   9.270  10.633 -0.7034 -1.0841  0.1771
28603SOL    HW190265   8.790   9.295  10.722  1.1974  0.6850  0.2810
28603SOL    HW290266   8.817   9.353  10.585 -1.5014 -1.9866 -1.5041
28604SOL     OW90267   4.404   6.362   4.587 -0.6227 -0.2363  0.0656
28604SOL    HW190268   4.376   6.453   4.600 -0.5189 -0.2344  0.2817
28604SOL    HW290269   4.350   6.330   4.514 -0.9844 -0.1460  0.2939
28605SOL     OW90270   3.846   8.763   9.078  0.5686  0.2138 -0.0746
28605SOL    HW190271   3.900   8.734   9.151  0.2393 -0.6849 -0.1790
28605SOL    HW290272   3.767   8.798   9.119 -0.2320 -1.5711 -0.0190
28606SOL     OW90273   4.049   9.068   3.883 -0.1429 -0.2226  0.0991
28606SOL    HW190274   4.027   8.993   3.829  0.9610 -0.6398  0.2049
28606SOL    HW290275   4.136   9.095   3.852 -0.2823  0.6460  0.4511
28607SOL     OW90276   0.429   1.899   6.941 -0.3095  0.0293  0.1057
28607SOL    HW190277   0.377   1.870   6.867  0.1825  0.4920 -0.4355
28607SOL    HW290278   0.401   1.990   6.956 -1.0717 -0.3449  1.0933
28608SOL     OW90279   3.926   3.956   4.552  0.0257 -0.8567 -0.4478
28608SOL    HW190280   3.844   3.915   4.524  0.2801 -2.1097  0.5535
28608SOL    HW290281   3.979   3.884   4.585  0.6409  0.2278  1.0514
28609SOL     OW90282   9.429   0.722   9.680 -0.1059 -0.1920 -0.5124
28609SOL    HW190283   9.464   0.773   9.753 -0.6502 -0.0689 -0.3293
28609SOL    HW290284   9.497   0.657   9.661  0.0461 -0.2181  0.0986
28610SOL     OW90285   7.379   9.912   0.820  0.0247  0.3795 -0.8249
28610SOL    HW190286   7.423   9.907   0.904 -1.4087 -1.9766 -0.1125
28610SOL    HW290287   7.353  10.004   0.811  2.9633  1.3535 -0.2536
28611SOL     OW90288   6.007   8.995   6.791  0.6254  0.2430 -0.3603
28611SOL    HW190289   5.921   9.028   6.819  0.8156  1.1525 -0.7976
28611SOL    HW290290   5.998   8.981   6.697  1.1652  1.1006 -0.5592
28612SOL     OW90291   6.669  10.409   2.828  0.4677 -0.8584  0.1793
28612SOL    HW190292   6.587  10.373   2.796  0.8136 -1.7997  0.3083
28612SOL    HW290293   6.649  10.441   2.916 -0.6742  2.4127 -1.1044
28613SOL     OW90294   2.551  11.075   9.708 -0.0699  0.8284 -0.0405
28613SOL    HW190295   2.496  10.997   9.712  0.4136  0.4267 -0.9314
28613SOL    HW290296   2.491  11.145   9.681 -0.3899  0.6589  0.2140
28614SOL     OW90297   6.805   5.512   1.134  0.4209  0.1382  0.0955
28614SOL    HW190298   6.715   5.537   1.113  0.1455 -0.8857  0.0204
28614SOL    HW290299   6.814   5.533   1.227 -0.4068 -1.1933  0.4985
28615SOL     OW90300   0.984   9.242   3.535  0.3715  0.3305  0.4357
28615SOL    HW190301   1.033   9.316   3.499  1.9049 -1.4947 -1.5035
28615SOL    HW290302   0.894   9.273   3.540  0.5157  1.6079 -2.6900
28616SOL     OW90303   5.251  10.091   8.333  0.5199  0.1170 -0.4160
28616SOL    HW190304   5.344  10.105   8.352  0.7444 -1.9316  0.3437
28616SOL    HW290305   5.205  10.133   8.406  0.9703 -0.3389  0.1500
28617SOL     OW90306   5.824   7.202   4.110  1.3017 -0.5892  0.1680
28617SOL    HW190307   5.778   7.118   4.111 -0.2459  0.2079 -0.4071
28617SOL    HW290308   5.837   7.223   4.203 -0.9815 -0.1097  0.4436
28618SOL     OW90309   5.107   5.884   1.216 -0.4890 -0.1239  0.4913
28618SOL    HW190310   5.022   5.860   1.252 -1.2293  0.6107 -0.6967
28618SOL    HW290311   5.150   5.934   1.286 -0.9757 -0.6110  1.1420
28619SOL     OW90312   8.574  10.526  10.127 -0.3982  0.5918  0.5978
28619SOL    HW190313   8.589  10.603  10.182  0.7763  0.1365  0.9601
28619SOL    HW290314   8.652  10.521  10.071 -0.2108 -0.6001  0.9388
28620SOL     OW90315   2.517   7.535   2.468 -0.6666  0.5081  0.3598
28620SOL    HW190316   2.596   7.481   2.477 -1.6216 -0.6986  2.2040
28620SOL    HW290317   2.451   7.475   2.432 -1.6519  0.4823  2.1070
28621SOL     OW90318   3.528  10.150   7.191 -0.1613 -0.0040 -0.0089
28621SOL    HW190319   3.485  10.074   7.153 -0.8549 -0.2580  1.2287
28621SOL    HW290320   3.607  10.163   7.138 -1.5480  0.2661 -2.1223
28622SOL     OW90321   1.920   5.623   5.331  0.1102  0.0757 -0.1563
28622SOL    HW190322   1.964   5.708   5.337 -1.5028  0.9888 -0.6356
28622SOL    HW290323   1.886   5.620   5.241 -0.9580 -0.4964  0.2502
28623SOL     OW90324   6.407   2.442   5.908  0.0979 -0.3058 -0.6311
28623SOL    HW190325   6.328   2.388   5.900 -0.8314  1.1097 -1.5001
28623SOL    HW290326   6.479   2.379   5.909 -1.0220 -1.6487  0.3468
28624SOL     OW90327   5.923   2.610   5.349 -0.6981 -0.4356 -0.1875
28624SOL    HW190328   5.980   2.537   5.374 -1.4018 -0.6946  0.7169
28624SOL    HW290329   5.932   2.615   5.254  1.5504  0.1484 -0.0158
28625SOL     OW90330   3.141   2.180   6.518 -0.2894 -0.0541 -0.0013
28625SOL    HW190331   3.200   2.105   6.509 -0.2370 -0.1870  1.2483
28625SOL    HW290332   3.184   2.237   6.582 -1.3372 -0.0059  0.6922
28626SOL     OW90333   2.039  10.173   5.100 -0.1426 -1.0296 -0.2100
28626SOL    HW190334   2.122  10.201   5.063 -0.5578  0.8099  0.1489
28626SOL    HW290335   1.976  10.240   5.071 -0.6025  0.2427  3.2312
28627SOL     OW90336  10.302   4.070   4.991  0.3253  0.0281 -0.5819
28627SOL    HW190337  10.320   4.161   4.967  2.7210  0.8288  3.2256
28627SOL    HW290338  10.213   4.072   5.028  0.7669  1.1808  0.5101
28628SOL     OW90339   0.038   0.288  10.358 -0.1146  0.4603  0.4794
28628SOL    HW190340   0.024   0.234  10.436 -1.4165  1.5167  1.0187
28628SOL    HW290341  -0.049   0.300  10.321  0.1798  1.8963  0.1977
28629SOL     OW90342  10.031   1.879   7.437 -0.3268  0.3293 -0.1531
28629SOL    HW190343   9.991   1.821   7.372 -0.7911  1.2393 -0.6919
28629SOL    HW290344  10.117   1.839   7.454  0.1638  0.5245 -1.9718
28630SOL     OW90345   6.333   2.108   6.875 -0.3876 -0.4943  0.6435
28630SOL    HW190346   6.376   2.159   6.944  0.0928  0.8170 -0.5917
28630SOL    HW290347   6.401   2.050   6.842 -0.7131 -1.3896  1.4716
28631SOL     OW90348   8.451   0.806   0.201 -0.2535 -0.0186  0.1545
28631SOL    HW190349   8.360   0.825   0.221 -0.1751  0.5127  0.0241
28631SOL    HW290350   8.448   0.746   0.126 -0.4806  0.6550 -0.3793
28632SOL     OW90351  10.185   7.165   0.354 -0.0812 -0.2247 -0.2590
28632SOL    HW190352  10.230   7.122   0.427  1.4623  1.1029 -0.3804
28632SOL    HW290353  10.185   7.100   0.284  0.8913 -0.5543  0.0291
28633SOL     OW90354   9.112  10.858   8.469 -0.1806  0.6421  0.2841
28633SOL    HW190355   9.089  10.820   8.384  0.7701 -0.0782  0.3273
28633SOL    HW290356   9.178  10.798   8.504 -0.0609  1.3112  1.2233
28634SOL     OW90357   7.123   8.743   3.254  0.4068 -0.2969 -0.1245
28634SOL    HW190358   7.202   8.775   3.298  0.5884 -0.0225 -0.6415
28634SOL    HW290359   7.052   8.795   3.293  0.1113 -2.2076  2.1290
28635SOL     OW90360   0.510   6.906   7.834  0.6167  0.2519  0.5604
28635SOL    HW190361   0.599   6.933   7.854  0.1660  0.4466  2.4671
28635SOL    HW290362   0.460   6.923   7.914 -1.0574 -0.2210 -0.3171
28636SOL     OW90363   2.708   8.502  10.865 -0.1783  0.2826 -0.4307
28636SOL    HW190364   2.647   8.572  10.888 -0.1754 -0.1904  1.1015
28636SOL    HW290365   2.709   8.444  10.941 -3.2441 -3.6733 -2.9784
28637SOL     OW90366   3.183   4.110   4.503 -0.6065  0.2985 -0.4536
28637SOL    HW190367   3.190   4.162   4.583  0.1174  0.4948 -0.6342
28637SOL    HW290368   3.227   4.163   4.436  2.9438 -1.7744 -0.0213
28638SOL     OW90369   2.817   2.976   1.158  0.0455 -0.9138  0.6323
28638SOL    HW190370   2.796   2.987   1.066 -0.0731  0.1112  0.7726
28638SOL    HW290371   2.739   3.006   1.205 -0.2066 -2.1830  1.0586
28639SOL     OW90372   0.544   4.467   2.282 -0.1470  0.2599 -0.1558
28639SOL    HW190373   0.522   4.379   2.314 -0.6022  1.1196  2.0523
28639SOL    HW290374   0.616   4.496   2.337 -0.2182  1.4221 -0.6459
28640SOL     OW90375   0.890   1.152   8.664  0.1437  0.0698  0.5296
28640SOL    HW190376   0.875   1.223   8.602 -0.0283  0.1246  0.6340
28640SOL    HW290377   0.986   1.149   8.673  0.2374 -0.5641 -0.4617
28641SOL     OW90378   9.713   0.727   5.141 -0.5027 -0.1380 -0.0323
28641SOL    HW190379   9.657   0.694   5.212  0.8027 -2.2550  0.0951
28641SOL    HW290380   9.713   0.822   5.154 -1.0866 -0.3726  2.2356
28642SOL     OW90381   7.808   1.362   6.883 -0.4753  0.3923 -0.3581
28642SOL    HW190382   7.854   1.299   6.939 -0.4174 -0.5002 -1.3626
28642SOL    HW290383   7.725   1.376   6.927 -0.3527 -0.1339  0.0630
28643SOL     OW90384   8.196   0.351   0.423  0.2252 -0.3433 -0.2954
28643SOL    HW190385   8.157   0.374   0.507 -2.5571  1.6221 -1.9390
28643SOL    HW290386   8.290   0.359   0.437 -0.1970  1.9277  2.1220
28644SOL     OW90387   4.544   4.221   1.766 -0.3658 -0.4980  1.2852
28644SOL    HW190388   4.461   4.267   1.755 -0.6451 -1.3157 -0.3371
28644SOL    HW290389   4.565   4.232   1.859 -0.4338  2.7792  1.0327
28645SOL     OW90390   2.898   0.449   5.016  0.3255 -0.6239  0.9647
28645SOL    HW190391   2.813   0.408   5.035 -0.3615 -0.1207 -0.8518
28645SOL    HW290392   2.946   0.383   4.967  0.4245 -0.3820  0.7367
28646SOL     OW90393   0.284   3.671  10.977  0.2265  0.1623  0.5479
28646SOL    HW190394   0.353   3.615  10.943  0.2906 -0.1188  1.1207
28646SOL    HW290395   0.281   3.745  10.917  1.7085  0.6762  1.0455
28647SOL     OW90396   5.905   1.328   6.249  0.2542 -0.1663 -0.3005
28647SOL    HW190397   5.851   1.252   6.232 -1.0855  0.7746 -0.3738
28647SOL    HW290398   5.848   1.389   6.295  1.7820  0.1414  1.3137
28648SOL     OW90399   4.957   1.487   2.047 -0.5107 -0.4583  0.0602
28648SOL    HW190400   4.892   1.522   2.109 -0.1748 -1.1014  0.7927
28648SOL    HW290401   4.911   1.484   1.963 -0.9703  0.4364  0.2766
28649SOL     OW90402   3.489  11.025   8.035 -0.0526  0.6956  0.3334
28649SOL    HW190403   3.575  10.994   8.061  0.6856  1.2111 -1.3560
28649SOL    HW290404   3.451  10.953   7.985  0.5498  1.4399 -1.2604
28650SOL     OW90405   3.599   6.851   8.357 -0.0550  0.2519 -0.0021
28650SOL    HW190406   3.671   6.849   8.419  0.6279  0.1155 -0.7861
28650SOL    HW290407   3.520   6.841   8.411  0.5643 -0.5645  0.7713
28651SOL     OW90408   8.324   4.106   0.823 -0.2114  0.8608  0.7010
28651SOL    HW190409   8.244   4.157   0.811 -1.3836 -0.7071  1.5600
28651SOL    HW290410   8.326   4.085   0.916 -0.5664 -1.8428  0.1853
28652SOL     OW90411   8.499   8.879   3.738 -0.3712  0.0632 -0.3783
28652SOL    HW190412   8.439   8.806   3.716  1.1127 -1.6752  1.0474
28652SOL    HW290413   8.563   8.840   3.797  1.0097  2.3693 -0.2583
28653SOL     OW90414  10.076   4.703   5.818 -0.3252  0.2593 -0.3966
28653SOL    HW190415  10.159   4.667   5.786 -0.9383 -1.3040 -0.3235
28653SOL    HW290416  10.048   4.641   5.886 -1.0930  1.2788  0.2486
28654SOL     OW90417   0.476   7.145   1.214 -0.1993  0.5522  0.9150
28654SOL    HW190418   0.452   7.114   1.302 -0.0104 -2.1162  0.1232
28654SOL    HW290419   0.448   7.074   1.156  1.6032  1.2885 -0.9649
28655SOL     OW90420   8.224   7.219   7.791 -0.3187  0.6235  0.0353
28655SOL    HW190421   8.290   7.152   7.771 -0.3104 -0.1198  2.3036
28655SOL    HW290422   8.253   7.296   7.742  1.3765 -0.1403 -0.2529
28656SOL     OW90423   8.748   0.851   9.245  0.0986  0.4307  0.9229
28656SOL    HW190424   8.809   0.916   9.211  0.5828  0.4060  1.7243
28656SOL    HW290425   8.667   0.899   9.260  0.2973  0.7343  1.0192
28657SOL     OW90426   2.163   1.045   6.369 -0.2028  0.1701  0.4494
28657SOL    HW190427   2.120   1.100   6.303  0.7775  0.1744 -0.2160
28657SOL    HW290428   2.095   1.028   6.434 -0.9706  0.8485 -0.1444
28658SOL     OW90429   5.635   1.545   7.356  0.1592  0.2469 -0.5476
28658SOL    HW190430   5.557   1.544   7.301  0.0737  0.8098 -0.4390
28658SOL    HW290431   5.619   1.614   7.420  0.2029 -0.4747  0.2653
28659SOL     OW90432   2.718   6.777   3.273 -0.2370 -0.2239  0.0048
28659SOL    HW190433   2.805   6.742   3.291 -0.0944  0.4037  0.5639
28659SOL    HW290434   2.734   6.860   3.227 -0.5430 -0.2564 -0.1654
28660SOL     OW90435   3.024   1.339   4.032  0.1270 -0.6002  0.1069
28660SOL    HW190436   3.068   1.399   4.092 -0.8448  1.0951 -0.7982
28660SOL    HW290437   3.094   1.294   3.986  0.9131  1.0916 -0.3968
28661SOL     OW90438   2.202   3.866   3.318  0.0249  0.4628  0.5823
28661SOL    HW190439   2.119   3.915   3.316  0.7354  1.7229  0.7556
28661SOL    HW290440   2.236   3.880   3.406 -0.4156 -1.5749  1.1354
28662SOL     OW90441   7.764   5.792   7.214  0.7007  0.8096 -0.0529
28662SOL    HW190442   7.797   5.842   7.288  0.1033  3.0323 -1.1855
28662SOL    HW290443   7.717   5.856   7.161  1.3943 -0.5810 -2.5323
28663SOL     OW90444   2.195   2.140   1.300 -0.4089  0.1285 -0.1032
28663SOL    HW190445   2.202   2.142   1.205 -0.8092  1.2322 -0.1324
28663SOL    HW290446   2.243   2.062   1.327  0.5656  0.3428 -1.1450
28664SOL     OW90447  10.061   9.647   3.995 -0.0297 -0.1731 -0.5885
28664SOL    HW190448   9.995   9.611   3.935 -2.7415  1.2194  1.3897
28664SOL    HW290449  10.082   9.733   3.958 -2.2545  1.0063  0.7015
28665SOL     OW90450   1.657   2.944  10.053  0.0299 -0.5944 -0.6610
28665SOL    HW190451   1.731   2.900  10.011 -0.1099  0.5729 -2.2448
28665SOL    HW290452   1.635   2.888  10.128  0.6369 -2.5229 -1.8387
28666SOL     OW90453   1.714   7.718   9.876 -0.9040 -0.4406 -0.1982
28666SOL    HW190454   1.794   7.735   9.925  0.2162 -0.7264 -1.8508
28666SOL    HW290455   1.701   7.797   9.824 -1.2508 -0.7101 -0.5262
28667SOL     OW90456   1.333   8.563   2.209 -0.2746  0.3998  0.1629
28667SOL    HW190457   1.369   8.484   2.168 -1.6500  0.2882 -0.8894
28667SOL    HW290458   1.364   8.635   2.154  0.5711  0.5698  0.8401
28668SOL     OW90459   3.131   4.299   9.674  0.0403 -0.1005 -0.4017
28668SOL    HW190460   3.070   4.246   9.726  1.3552  0.3006  1.6754
28668SOL    HW290461   3.177   4.353   9.739  0.6504  1.6187 -2.1860
28669SOL     OW90462   8.449   7.465   1.589 -0.2410 -0.3046 -0.1670
28669SOL    HW190463   8.543   7.482   1.592 -0.4333  0.8356  0.1825
28669SOL    HW290464   8.439   7.394   1.526  0.8942 -0.7662  0.1549
28670SOL     OW90465   2.519   8.348   6.626 -0.0111 -0.3775 -0.5920
28670SOL    HW190466   2.608   8.371   6.654  0.4314 -2.3051 -0.2689
28670SOL    HW290467   2.496   8.415   6.561  0.5229  1.8568  1.3664
28671SOL     OW90468   9.656   6.320   5.380  0.2712 -0.0353 -0.6200
28671SOL    HW190469   9.563   6.300   5.390  0.5176  0.0345  3.5457
28671SOL    HW290470   9.696   6.235   5.358 -0.7105  0.0399 -3.0470
28672SOL     OW90471   5.380   4.306   2.008  0.1375  0.2382 -0.6078
28672SOL    HW190472   5.309   4.263   1.961 -0.0950  0.7826 -0.7609
28672SOL    HW290473   5.429   4.354   1.941  0.2876  0.3580 -0.4143
28673SOL     OW90474   3.084   2.298   7.745  0.1991 -0.3660 -0.2179
28673SOL    HW190475   3.067   2.229   7.809  1.2948 -1.4281 -1.0465
28673SOL    HW290476   3.177   2.289   7.723 -0.0518  0.2330 -1.6428
28674SOL     OW90477   8.597   0.224   2.182  0.6349 -0.2836  0.0283
28674SOL    HW190478   8.585   0.172   2.103 -2.0472  0.8651 -0.4400
28674SOL    HW290479   8.508   0.241   2.213  1.5278  1.2540  1.9852
28675SOL     OW90480   2.917   4.854  11.068  0.0234  0.2554 -0.2132
28675SOL    HW190481   3.005   4.818  11.062  0.2984  0.5808  1.3215
28675SOL    HW290482   2.884   4.822  11.153 -2.6989 -2.7365 -2.1659
28676SOL     OW90483   1.387   0.215   9.031 -0.0693  0.3151  0.0254
28676SOL    HW190484   1.403   0.177   9.117 -0.2086  0.2606  0.0273
28676SOL    HW290485   1.441   0.164   8.971  1.1855  1.3074  0.2817
28677SOL     OW90486   2.062   1.045   9.093 -0.0460  0.4661  0.1748
28677SOL    HW190487   1.985   1.000   9.126  0.2364  0.3259  0.6392
28677SOL    HW290488   2.028   1.101   9.022 -0.7728  1.3029  1.1461
28678SOL     OW90489   9.400   0.189  10.506  0.5726  0.1652  0.3300
28678SOL    HW190490   9.329   0.229  10.455  0.4764 -4.0299 -3.4792
28678SOL    HW290491   9.359   0.166  10.590 -1.8616  0.1971 -0.7501
28679SOL     OW90492   7.500   4.080   8.143  0.1714 -0.0553 -0.3023
28679SOL    HW190493   7.411   4.071   8.108 -0.8073 -0.5787  2.0802
28679SOL    HW290494   7.488   4.077   8.238  2.8983 -1.6652  0.0943
28680SOL     OW90495   7.017   2.910   8.821  0.3782  0.2738  0.2114
28680SOL    HW190496   7.019   2.843   8.753 -1.0724 -0.6304  1.0135
28680SOL    HW290497   7.103   2.952   8.816  0.7100 -0.5287 -1.4030
28681SOL     OW90498   6.447   0.651   4.203  0.4666 -0.2078  0.1050
28681SOL    HW190499   6.534   0.627   4.173  0.8069 -0.4584  1.2391
28681SOL    HW290500   6.390   0.636   4.128  1.6236  1.5274 -1.1799
28682SOL     OW90501   3.877   0.854   4.624 -0.1136  0.2232 -0.5571
28682SOL    HW190502   3.934   0.889   4.556  0.2914  0.4630 -0.0992
28682SOL    HW290503   3.858   0.930   4.680  0.9069 -0.3122  0.5433
28683SOL     OW90504   0.303   9.229  10.229  0.0911  0.2069 -0.4848
28683SOL    HW190505   0.387   9.274  10.244 -0.9982  1.7706  1.3516
28683SOL    HW290506   0.276   9.200  10.316 -1.1195 -0.5844 -1.1063
28684SOL     OW90507   0.638   2.244   5.204 -0.3025 -0.1785 -0.1667
28684SOL    HW190508   0.545   2.259   5.225 -0.0099  1.4721  0.0792
28684SOL    HW290509   0.638   2.219   5.112 -1.0626 -1.2054  0.0858
28685SOL     OW90510   2.707   0.477   4.724  0.3048  0.2561 -0.3122
28685SOL    HW190511   2.727   0.398   4.675 -0.6487 -0.0864 -0.1846
28685SOL    HW290512   2.703   0.448   4.815 -2.1426 -0.0479 -0.4409
28686SOL     OW90513  10.471  10.899   2.594 -0.3083 -0.0838 -0.4269
28686SOL    HW190514  10.467  10.988   2.559 -0.4842 -0.1696 -0.6322
28686SOL    HW290515  10.383  10.864   2.580 -0.7985  0.3513  1.4026
28687SOL     OW90516   9.563   4.354   4.514 -0.1710  0.3890 -0.8485
28687SOL    HW190517   9.622   4.306   4.571  1.7250  3.4864  0.0362
28687SOL    HW290518   9.589   4.328   4.426 -0.9568 -2.0036 -0.4641
28688SOL     OW90519   6.522   6.311  10.825 -0.3269  0.0370  0.1513
28688SOL    HW190520   6.510   6.388  10.880 -0.8356  1.4099 -1.7343
28688SOL    HW290521   6.533   6.239  10.886  1.2232  1.7254  2.0296
28689SOL     OW90522   9.177   0.530  10.111 -0.1943  0.2261  0.5795
28689SOL    HW190523   9.088   0.500  10.132  0.1476  0.1340  1.9908
28689SOL    HW290524   9.230   0.500  10.184  1.3561 -1.1720 -1.0256
28690SOL     OW90525   5.565   8.718   9.321  0.8162  0.3243 -0.7254
28690SOL    HW190526   5.515   8.648   9.280  0.6686 -0.4846  0.7466
28690SOL    HW290527   5.655   8.686   9.324  0.3715 -0.9668  2.1347
28691SOL     OW90528   8.292   0.343   7.764 -0.1847  0.0768 -0.0061
28691SOL    HW190529   8.330   0.257   7.747 -0.6344  0.0991 -1.2435
28691SOL    HW290530   8.365   0.397   7.794  0.2543 -0.5365  0.0393
28692SOL     OW90531   7.200   3.782   2.207 -0.0096  0.3738 -1.1647
28692SOL    HW190532   7.191   3.825   2.292  1.6666  1.6719 -1.5989
28692SOL    HW290533   7.122   3.726   2.200 -1.0660  1.5601  0.4505
28693SOL     OW90534   6.542   4.070   9.195  0.3690  0.2754 -0.2956
28693SOL    HW190535   6.622   4.042   9.239 -1.2604 -0.7060  2.2480
28693SOL    HW290536   6.563   4.156   9.159  1.9660  1.0138  2.1889
28694SOL     OW90537   7.127   9.166   5.712 -0.1971 -0.1579  1.0156
28694SOL    HW190538   7.070   9.228   5.669 -0.0057 -0.7066 -0.0650
28694SOL    HW290539   7.152   9.104   5.643  1.0449 -0.3920  1.6402
28695SOL     OW90540   1.184   0.783   4.364 -0.1808 -0.1287  0.0397
28695SOL    HW190541   1.114   0.803   4.301 -0.7265  0.3248  0.7701
28695SOL    HW290542   1.139   0.777   4.448  0.3112 -2.1230  0.2134
28696SOL     OW90543   8.493   2.529   8.786 -0.6679  0.0084 -0.2117
28696SOL    HW190544   8.496   2.601   8.723 -0.2067  0.0596 -0.1350
28696SOL    HW290545   8.576   2.536   8.834  0.0983 -1.5191 -1.2422
28697SOL     OW90546   4.963   1.897   3.444  0.1968 -0.0577 -0.2916
28697SOL    HW190547   4.877   1.857   3.455 -0.0006  0.4635  0.1280
28697SOL    HW290548   5.014   1.866   3.519  0.3066 -0.1943 -0.4228
28698SOL     OW90549   4.619   3.472   5.288  0.0567  0.2484 -0.2202
28698SOL    HW190550   4.583   3.543   5.341 -2.4154  0.3477 -1.8574
28698SOL    HW290551   4.581   3.393   5.324  1.6413 -0.1517  0.6668
28699SOL     OW90552   1.168   5.648   9.149  0.3559  0.4871  0.2424
28699SOL    HW190553   1.233   5.711   9.178  0.8959 -0.3100  0.8078
28699SOL    HW290554   1.216   5.586   9.094 -0.3055  0.9533 -0.8827
28700SOL     OW90555   5.423   9.380   9.252  0.2247  0.0209 -0.7393
28700SOL    HW190556   5.329   9.388   9.237 -0.0714  0.3736  1.1015
28700SOL    HW290557   5.433   9.292   9.291  0.2427  0.9715  1.5776
28701SOL     OW90558   5.224   5.381   7.748  0.2442  0.4405  0.2082
28701SOL    HW190559   5.271   5.400   7.830 -2.2667  0.7888  1.6783
28701SOL    HW290560   5.266   5.303   7.714  1.4098  0.2989  1.8209
28702SOL     OW90561   4.190   2.948   4.055 -0.0356 -0.1827 -0.4086
28702SOL    HW190562   4.241   3.028   4.047 -0.7553  0.3491  0.2334
28702SOL    HW290563   4.105   2.976   4.088 -0.7828 -1.0444 -1.5135
28703SOL     OW90564   0.188   1.605   4.791 -0.6539 -0.7573 -0.0862
28703SOL    HW190565   0.117   1.548   4.822  0.2109 -2.0883 -0.4637
28703SOL    HW290566   0.208   1.574   4.703  2.3694 -2.4858  1.0386
28704SOL     OW90567  10.833  10.513   8.288 -0.2469  0.1161 -0.6360
28704SOL    HW190568  10.873  10.520   8.375  0.7614  2.3236 -1.1902
28704SOL    HW290569  10.882  10.444   8.244 -1.6372 -1.9849  0.9042
28705SOL     OW90570   2.757   5.614   8.105 -0.6692 -0.1847  0.2705
28705SOL    HW190571   2.698   5.539   8.106  0.2086 -0.9210 -0.5017
28705SOL    HW290572   2.808   5.605   8.186  0.4704 -1.3196 -0.5321
28706SOL     OW90573   9.250   9.235   2.648 -0.0175  0.2078  0.9621
28706SOL    HW190574   9.196   9.305   2.686 -0.3607  0.7277 -0.4254
28706SOL    HW290575   9.190   9.185   2.593  0.6967  0.1769  0.1863
28707SOL     OW90576   2.931   2.032   0.620 -1.0689 -0.0295  0.0670
28707SOL    HW190577   2.889   2.068   0.542 -1.5249 -1.6458 -0.4674
28707SOL    HW290578   2.873   1.962   0.648 -0.0349 -0.5941  0.8537
28708SOL     OW90579   7.987   3.413   1.629  0.8850  0.0387 -0.2184
28708SOL    HW190580   7.981   3.323   1.661 -2.1088 -0.4299 -1.7221
28708SOL    HW290581   8.048   3.408   1.556  0.3606 -0.9190 -0.6111
28709SOL     OW90582   2.978   0.613   6.704  0.0008 -0.4770 -0.4620
28709SOL    HW190583   2.999   0.522   6.683 -0.6968 -0.3359 -1.8843
28709SOL    HW290584   2.888   0.624   6.674 -0.5470  0.1968  1.3522
28710SOL     OW90585   0.930   1.778   8.691 -0.0290  0.3758 -0.6828
28710SOL    HW190586   1.023   1.783   8.712  0.3531 -1.5470 -1.7142
28710SOL    HW290587   0.888   1.751   8.773  0.5038 -0.1275 -0.5712
28711SOL     OW90588   2.782   0.037   4.429 -0.0697  0.0801 -0.2456
28711SOL    HW190589   2.839  -0.003   4.363 -1.3580 -2.6151  0.1245
28711SOL    HW290590   2.731  -0.036   4.463 -2.6304  2.0938  0.5554
28712SOL     OW90591   5.571   5.897   2.112  0.3344  0.7676 -0.2996
28712SOL    HW190592   5.571   5.905   2.017  0.7612  1.5155 -0.2448
28712SOL    HW290593   5.646   5.949   2.141  0.3094  0.4138  0.4381
28713SOL     OW90594   3.360   9.294   5.012 -0.0322 -0.7612  0.1881
28713SOL    HW190595   3.312   9.216   5.041 -1.5311 -0.4844 -1.3596
28713SOL    HW290596   3.314   9.322   4.933  0.9481  1.2604  0.2682
28714SOL     OW90597   8.763   3.662  10.387  0.2841  0.0053 -0.2690
28714SOL    HW190598   8.783   3.751  10.414  2.1158 -0.7989  1.1897
28714SOL    HW290599   8.836   3.636  10.331  1.6005 -1.6569  2.0274
28715SOL     OW90600   9.638   6.724   0.766 -0.2879 -0.0370 -0.2220
28715SOL    HW190601   9.613   6.745   0.856  0.0144  0.0494 -0.1530
28715SOL    HW290602   9.662   6.632   0.768 -2.4029 -0.6433 -0.7037
28716SOL     OW90603   3.359   3.387   3.681  0.5753  0.0231  0.2815
28716SOL    HW190604   3.402   3.401   3.596 -0.4788 -0.9923 -0.4539
28716SOL    HW290605   3.270   3.419   3.668  0.8112  1.2433  1.4936
28717SOL     OW90606  10.095   6.632   6.557 -0.1869  0.1729  0.5176
28717SOL    HW190607  10.054   6.623   6.471  3.1945  2.3117 -1.5880
28717SOL    HW290608  10.028   6.672   6.612 -1.8856  0.5802 -1.6949
28718SOL     OW90609   7.351   9.561  10.545  0.1047 -0.0459  0.3806
28718SOL    HW190610   7.340   9.509  10.625  0.7621 -2.2592 -0.8971
28718SOL    HW290611   7.446   9.577  10.540  0.3187 -1.5109 -0.8600
28719SOL     OW90612   9.478   6.592   4.182  0.1792 -0.5553  0.0195
28719SOL    HW190613   9.539   6.635   4.241 -0.2330 -0.9283  0.7347
28719SOL    HW290614   9.391   6.620   4.213 -0.0570 -1.1244 -0.1112
28720SOL     OW90615   5.955   8.801   5.855  0.4299  0.3569 -0.1366
28720SOL    HW190616   6.006   8.730   5.816  0.7663 -0.8349  2.2997
28720SOL    HW290617   6.010   8.878   5.843  0.7056 -0.0185 -1.5648
28721SOL     OW90618   6.224   3.541   7.039  0.3240 -0.2009 -0.1420
28721SOL    HW190619   6.158   3.536   7.109 -2.1073  1.0571 -2.1939
28721SOL    HW290620   6.266   3.455   7.040 -0.1678 -0.5115  2.2882
28722SOL     OW90621   3.686   5.651   7.183 -0.0038 -0.4934  0.1245
28722SOL    HW190622   3.731   5.634   7.100  1.2835  1.7068  0.3010
28722SOL    HW290623   3.715   5.738   7.209  0.2615 -1.4224  3.3104
28723SOL     OW90624   0.739   6.965   2.609 -0.1036  0.6487  0.4693
28723SOL    HW190625   0.727   7.033   2.676  2.3922  0.1976  1.4800
28723SOL    HW290626   0.809   6.999   2.553 -0.0400 -0.3362 -0.0720
28724SOL     OW90627   6.215   8.493   2.787  0.2674 -0.3543 -0.2814
28724SOL    HW190628   6.205   8.587   2.774 -2.4883 -0.2915  1.5998
28724SOL    HW290629   6.154   8.453   2.724 -0.4180 -0.7447  0.6101
28725SOL     OW90630   6.538   0.927   6.917 -0.5194 -0.3311  0.5151
28725SOL    HW190631   6.557   1.020   6.926 -0.2154  0.4633 -4.9179
28725SOL    HW290632   6.623   0.884   6.928  0.0462  0.5055 -0.4119
28726SOL     OW90633   7.935   5.766   4.138 -0.3049 -0.4475 -0.0331
28726SOL    HW190634   7.907   5.678   4.112  0.0707 -0.4428 -0.4677
28726SOL    HW290635   8.031   5.763   4.133 -0.2409 -0.3041  0.9171
28727SOL     OW90636   2.222   0.225   3.756  0.2694 -0.8143  0.2427
28727SOL    HW190637   2.301   0.226   3.810 -0.4840  2.1630  1.4596
28727SOL    HW290638   2.150   0.223   3.820 -0.6864 -2.4287 -0.8241
28728SOL     OW90639   2.341  10.559   4.308  0.0461 -0.3788 -0.1324
28728SOL    HW190640   2.388  10.552   4.224 -0.6884 -2.1102 -0.4458
28728SOL    HW290641   2.411  10.573   4.373  0.7580 -0.4509 -0.8608
28729SOL     OW90642   0.596   2.177   9.660 -0.1736 -0.1988  0.0799
28729SOL    HW190643   0.517   2.128   9.639 -0.1487  0.2017 -1.0382
28729SOL    HW290644   0.662   2.142   9.600 -0.1394  1.1298 -0.6849
28730SOL     OW90645   1.032   3.816   1.749  0.2194 -0.5314 -0.0623
28730SOL    HW190646   1.066   3.889   1.801 -1.1088  0.5590 -0.6697
28730SOL    HW290647   0.937   3.818   1.765 -0.6861  1.4715 -4.3418
28731SOL     OW90648   0.658   5.598  10.636  0.0708 -0.0714 -0.1903
28731SOL    HW190649   0.674   5.557  10.551  0.1968  1.2249 -0.8188
28731SOL    HW290650   0.744   5.624  10.667 -0.2073  2.1396 -1.0960
28732SOL     OW90651   3.029   3.764   2.526 -0.1243 -0.4375 -0.2772
28732SOL    HW190652   3.087   3.840   2.525 -0.5407 -0.0514 -3.1208
28732SOL    HW290653   2.940   3.801   2.521 -0.6651 -1.0527  2.8654
28733SOL     OW90654   5.644   3.735   8.640  0.1000  0.3705  0.0448
28733SOL    HW190655   5.705   3.800   8.603 -0.2840 -0.9424 -3.2306
28733SOL    HW290656   5.693   3.653   8.639 -1.0073 -0.3079 -0.6767
28734SOL     OW90657   6.164   0.736  10.438 -0.1041  0.1082  0.1184
28734SOL    HW190658   6.243   0.741  10.384 -0.2746  1.4849 -0.0358
28734SOL    HW290659   6.102   0.684  10.386  0.9743 -1.7897  0.6412
28735SOL     OW90660   9.088   4.923   2.389 -0.0369  0.0647 -0.6395
28735SOL    HW190661   9.099   4.910   2.295 -0.2626  2.2954 -1.0283
28735SOL    HW290662   9.129   5.007   2.407 -0.2401 -0.1856  1.2262
28736SOL     OW90663   4.143   5.627   6.721  0.0107 -0.1913  0.3427
28736SOL    HW190664   4.188   5.555   6.676 -0.3032  0.8636 -1.8220
28736SOL    HW290665   4.191   5.705   6.694 -0.0151  0.5098  2.1738
28737SOL     OW90666   9.445   1.983   7.800  0.9324  0.5643  0.0239
28737SOL    HW190667   9.416   1.892   7.797  1.1318  0.5113 -0.3741
28737SOL    HW290668   9.385   2.025   7.860  2.8015 -0.5407  2.8616
28738SOL     OW90669   2.986   4.969   4.946  0.1896  0.0518 -0.3809
28738SOL    HW190670   3.061   4.911   4.960  1.1288  0.6893 -2.3365
28738SOL    HW290671   2.925   4.917   4.894  0.0851  0.1274 -0.3352
28739SOL     OW90672   9.431   0.434   5.934 -0.1916 -0.0868 -0.0977
28739SOL    HW190673   9.500   0.400   5.877  0.5166  0.0225  0.6628
28739SOL    HW290674   9.362   0.368   5.930  0.0724 -0.3396 -0.6607
28740SOL     OW90675   7.752   7.069   2.459 -0.6668 -0.3810 -0.7106
28740SOL    HW190676   7.833   7.120   2.469 -0.5198 -1.0009  1.8284
28740SOL    HW290677   7.685   7.122   2.501 -0.9612 -1.2151 -0.1014
28741SOL     OW90678   0.433   3.183   3.727  0.1634 -0.6738  0.7516
28741SOL    HW190679   0.418   3.235   3.806  0.7882 -1.9291  1.7370
28741SOL    HW290680   0.384   3.228   3.658 -1.4745 -0.2740  2.1293
28742SOL     OW90681   0.824   1.319   9.962 -0.6566  0.0953 -0.0565
28742SOL    HW190682   0.848   1.337   9.872 -0.0078 -1.2645 -0.1898
28742SOL    HW290683   0.744   1.369   9.977 -1.7849 -1.0445 -1.9591
28743SOL     OW90684  10.176   4.588  10.917  0.0313 -0.3815  0.4085
28743SOL    HW190685  10.145   4.643  10.845  0.5792  1.0387  1.2137
28743SOL    HW290686  10.247   4.537  10.879 -0.5470 -0.6200 -0.3838
28744SOL     OW90687   9.981   2.442   2.756  0.8793 -0.4194  0.4105
28744SOL    HW190688   9.896   2.409   2.729 -0.1196  3.0289 -1.0881
28744SOL    HW290689  10.044   2.388   2.707 -0.5999 -0.3930 -1.6323
28745SOL     OW90690   2.062   8.690   9.506 -0.1338 -0.1427 -0.2941
28745SOL    HW190691   2.107   8.612   9.538 -1.1058 -0.1934  1.0493
28745SOL    HW290692   2.036   8.737   9.586 -0.5317  0.9921 -1.0634
28746SOL     OW90693   8.215   8.046   0.936 -0.2257 -0.0997 -0.6324
28746SOL    HW190694   8.246   7.955   0.946  1.4993  0.6746  2.1969
28746SOL    HW290695   8.282   8.088   0.883  0.7336  0.2522  0.8162
28747SOL     OW90696   8.916  10.197   6.137  0.6868  0.7516 -0.1109
28747SOL    HW190697   8.871  10.205   6.221  1.5720  1.3703  0.3125
28747SOL    HW290698   9.008  10.210   6.158  0.8166  2.0244 -1.3419
28748SOL     OW90699   7.273   7.001   8.053 -0.2395 -0.5924 -0.0501
28748SOL    HW190700   7.269   6.987   7.958 -1.3559 -0.9075  0.0305
28748SOL    HW290701   7.350   7.056   8.066 -0.6443  0.2953 -1.2423
28749SOL     OW90702   4.915   3.445   5.085  0.3046 -0.1151 -0.2722
28749SOL    HW190703   5.004   3.426   5.113  0.3344  1.4513  0.8455
28749SOL    HW290704   4.919   3.537   5.057 -0.8630 -0.1647 -0.6312
28750SOL     OW90705   8.671   1.400   7.464 -0.3000 -0.1996  0.1456
28750SOL    HW190706   8.655   1.318   7.509  2.5112 -0.2643  1.2041
28750SOL    HW290707   8.688   1.464   7.534  0.7713  0.4869 -0.6942
28751SOL     OW90708   5.248   8.489  10.857  0.0027 -0.2784 -0.1649
28751SOL    HW190709   5.162   8.448  10.867  1.0335 -2.3605  0.8918
28751SOL    HW290710   5.229   8.577  10.823 -2.6273 -0.1299  1.3821
28752SOL     OW90711   6.503   8.724   5.399 -0.1530  0.2258 -0.2755
28752SOL    HW190712   6.576   8.711   5.459  0.7025  0.3831 -1.2556
28752SOL    HW290713   6.540   8.709   5.312 -1.6426 -1.2019 -0.7076
28753SOL     OW90714   1.951   2.099  10.476 -0.1270  0.0587  0.3392
28753SOL    HW190715   2.011   2.139  10.540  0.3372 -1.8496  1.1645
28753SOL    HW290716   2.002   2.030  10.435 -0.6228  0.8389 -1.7128
28754SOL     OW90717   6.614   0.766   5.584 -0.0285 -0.0722  0.2965
28754SOL    HW190718   6.544   0.734   5.528  0.5380 -1.6261  0.4521
28754SOL    HW290719   6.673   0.692   5.596  1.0794  0.8802  1.0734
28755SOL     OW90720   0.654   5.994   8.405 -0.6765 -0.2520 -0.1574
28755SOL    HW190721   0.608   6.062   8.356  1.0264  1.1220  0.0612
28755SOL    HW290722   0.605   5.985   8.487  1.4155  4.0120  1.8558
28756SOL     OW90723   9.934   8.678   8.845  0.2586 -0.3019  0.3844
28756SOL    HW190724   9.839   8.685   8.859  0.2874 -2.3779  2.1947
28756SOL    HW290725   9.952   8.739   8.774 -2.6372 -0.7962 -0.9256
28757SOL     OW90726   6.433   1.243   7.560 -0.0578 -0.2037 -0.2892
28757SOL    HW190727   6.424   1.331   7.599  0.9502 -0.9411  1.7708
28757SOL    HW290728   6.515   1.210   7.596 -0.9969 -2.4387 -0.0949
28758SOL     OW90729   8.026   3.471   0.339  0.3280  0.4151 -0.4217
28758SOL    HW190730   7.992   3.482   0.428  0.4847 -1.6209 -0.0647
28758SOL    HW290731   8.116   3.442   0.352  0.9732  1.8933 -1.3086
28759SOL     OW90732   8.251   8.416   2.584 -0.3428  0.2044  0.0988
28759SOL    HW190733   8.346   8.412   2.573 -0.1153  2.5144  0.7327
28759SOL    HW290734   8.228   8.506   2.561 -2.0784  0.3203  1.9823
28760SOL     OW90735   3.241   1.839   8.188  0.2251  0.0004  0.4349
28760SOL    HW190736   3.327   1.882   8.187  0.1809  0.0886 -0.0742
28760SOL    HW290737   3.260   1.746   8.201  0.4085  0.0039  0.2028
28761SOL     OW90738   8.621   0.314   1.300  0.2190 -0.3808  0.4117
28761SOL    HW190739   8.634   0.392   1.354  1.3949 -0.0231 -0.3442
28761SOL    HW290740   8.568   0.345   1.226 -1.3049 -0.8478  1.2574
28762SOL     OW90741   4.509   7.384   1.629 -0.4367  0.0907 -0.1350
28762SOL    HW190742   4.506   7.434   1.711 -2.2071  1.0388 -0.7446
28762SOL    HW290743   4.457   7.306   1.647  0.6292 -0.5801  0.1608
28763SOL     OW90744   8.623   3.566   9.024  0.7651  0.1629  0.2901
28763SOL    HW190745   8.543   3.608   8.993  0.0136 -1.9779 -0.8577
28763SOL    HW290746   8.603   3.473   9.025  3.2794 -0.4639 -0.1318
28764SOL     OW90747   5.411   3.858   1.041 -0.3515 -0.3503 -0.5208
28764SOL    HW190748   5.399   3.781   0.986 -1.2731 -0.3836 -0.2836
28764SOL    HW290749   5.415   3.932   0.980  1.4970 -0.6421 -0.8305
28765SOL     OW90750  10.200  10.927   6.536 -0.0446 -0.1380 -0.4942
28765SOL    HW190751  10.284  10.951   6.576  0.3259 -1.4671 -0.4269
28765SOL    HW290752  10.189  10.989   6.465 -0.2706  1.7173  1.0643
28766SOL     OW90753   2.273   4.090  10.488 -0.1254 -0.2862 -0.2338
28766SOL    HW190754   2.208   4.087  10.417  0.5070  1.2214 -0.9376
28766SOL    HW290755   2.231   4.045  10.561 -1.6653 -0.0290 -0.9129
28767SOL     OW90756   8.870  11.072   7.354  0.3182 -0.2115 -0.1317
28767SOL    HW190757   8.813  11.001   7.327  1.0917 -0.3386 -1.5442
28767SOL    HW290758   8.896  11.115   7.272  0.8479  0.9290  0.5961
28768SOL     OW90759   0.826   7.097   8.340 -0.1649  0.2253  0.3927
28768SOL    HW190760   0.814   7.124   8.431 -0.9666 -0.3056  0.4519
28768SOL    HW290761   0.754   7.139   8.293 -0.7569 -0.8432  0.2980
28769SOL     OW90762   3.034   1.354   2.936 -0.2138  0.0028 -0.1509
28769SOL    HW190763   3.079   1.275   2.906 -2.6609 -2.0183  1.1316
28769SOL    HW290764   2.958   1.362   2.878  0.5509  2.1495 -0.9797
28770SOL     OW90765   2.410   3.705   6.799  0.1049 -0.2160  1.2904
28770SOL    HW190766   2.399   3.658   6.716 -2.5140  1.8155  0.3314
28770SOL    HW290767   2.504   3.712   6.810  0.5528 -0.8135 -1.3773
28771SOL     OW90768  11.011   2.003  10.159 -0.1878  0.0748  0.1066
28771SOL    HW190769  10.991   2.095  10.176  0.4867  0.4917 -1.1991
28771SOL    HW290770  11.105   1.996  10.175  0.1393  0.0933 -1.6139
28772SOL     OW90771   8.434   3.750   1.636 -0.0260  0.4382 -0.2502
28772SOL    HW190772   8.344   3.742   1.667 -0.1099 -0.2195 -0.6575
28772SOL    HW290773   8.472   3.818   1.693 -0.2995 -0.4376  1.0314
28773SOL     OW90774  10.826   7.714   0.601  0.3667 -0.1034  0.2031
28773SOL    HW190775  10.840   7.658   0.677  2.3986  0.1941  0.0965
28773SOL    HW290776  10.873   7.795   0.621  0.8738  0.0165 -1.3132
28774SOL     OW90777   0.808   3.902  10.343  0.3080 -0.1524  0.3907
28774SOL    HW190778   0.888   3.854  10.320  0.2299 -0.2123  0.2379
28774SOL    HW290779   0.837   3.972  10.400  0.4769 -0.1473  0.2987
28775SOL     OW90780   8.948   5.243   0.959 -0.1708 -0.0060 -0.3120
28775SOL    HW190781   8.953   5.263   0.865 -0.4239 -0.9906 -0.5455
28775SOL    HW290782   8.902   5.318   0.997 -1.1056 -0.1262 -1.1620
28776SOL     OW90783   2.612   9.462   4.478 -0.5307  0.0502 -0.5087
28776SOL    HW190784   2.586   9.395   4.414 -0.4096 -0.9405  0.4546
28776SOL    HW290785   2.703   9.483   4.454  0.1209 -1.6008  0.3716
28777SOL     OW90786   9.334   9.982   7.485  0.2025 -0.7135  0.8135
28777SOL    HW190787   9.311   9.904   7.536 -1.3139 -2.9383 -2.9037
28777SOL    HW290788   9.424   9.966   7.456  0.1399 -0.7404  0.6329
28778SOL     OW90789   9.598  10.627   9.480  0.8138  0.7717 -0.5867
28778SOL    HW190790   9.621  10.685   9.408  0.3414  2.4037  0.5215
28778SOL    HW290791   9.538  10.678   9.534 -0.8656 -1.3108 -0.3537
28779SOL     OW90792  11.067   2.291  10.533 -0.3500  0.0960  0.1637
28779SOL    HW190793  11.051   2.385  10.525  0.3155  0.2463  0.5412
28779SOL    HW290794  11.065   2.274  10.627 -1.7799 -0.5162  0.0628
28780SOL     OW90795   5.395   1.980  10.986  0.1625  0.4329 -0.1412
28780SOL    HW190796   5.420   1.903  11.039 -1.1486  0.5505  0.6856
28780SOL    HW290797   5.309   2.005  11.019  1.2546  3.3056  0.7624
28781SOL     OW90798   9.032   7.957   0.363  0.3646 -0.5677 -0.2137
28781SOL    HW190799   8.990   8.039   0.390  0.3972 -0.6532  0.0998
28781SOL    HW290800   9.031   7.959   0.268  1.5850  0.4238 -0.2274
28782SOL     OW90801   7.776   3.919   0.811 -0.3327 -0.2301 -0.3011
28782SOL    HW190802   7.849   3.920   0.873  0.5126  0.1149 -1.2756
28782SOL    HW290803   7.707   3.970   0.854  0.2114 -0.0586  0.3852
28783SOL     OW90804   2.954   4.802  10.061  0.2752 -0.4853  0.5624
28783SOL    HW190805   2.897   4.754  10.001 -0.3576  0.5256  0.3170
28783SOL    HW290806   2.901   4.812  10.141  0.5928 -0.6408  0.7930
28784SOL     OW90807   4.563   0.523   0.878 -0.0963 -0.2366  0.6046
28784SOL    HW190808   4.647   0.544   0.918 -0.2708 -0.2383  0.9814
28784SOL    HW290809   4.526   0.608   0.855  0.8948 -0.3209 -1.4437
28785SOL     OW90810   0.780  10.646   9.888  0.3270  0.2592 -0.3430
28785SOL    HW190811   0.729  10.565   9.889 -0.4350  0.6450 -2.1914
28785SOL    HW290812   0.716  10.714   9.865  1.4101  0.9579 -1.4523
28786SOL     OW90813   8.315   4.603   1.930  0.0583 -0.0634 -0.5109
28786SOL    HW190814   8.320   4.508   1.931 -1.6818 -0.1842 -0.4078
28786SOL    HW290815   8.406   4.632   1.929  0.6598 -1.6805  1.4304
28787SOL     OW90816   7.052   0.361  10.309  0.0959 -0.5482 -0.7370
28787SOL    HW190817   7.141   0.340  10.338 -0.4073 -0.9056  0.6273
28787SOL    HW290818   7.054   0.456  10.294  0.4107 -0.3510  0.4467
28788SOL     OW90819  10.534   3.016   1.998 -0.4998  0.1901 -0.5477
28788SOL    HW190820  10.499   2.929   2.014  0.0955  0.0889  0.2501
28788SOL    HW290821  10.461   3.065   1.960 -0.5716 -0.9087 -1.8976
28789SOL     OW90822   2.885   4.858   4.670  0.2662  0.7520  0.3686
28789SOL    HW190823   2.911   4.803   4.595 -0.3272  0.6647  0.2220
28789SOL    HW290824   2.920   4.945   4.649  0.2122  0.6981  0.0501
28790SOL     OW90825   0.966   3.403   5.092 -0.2758  0.3384 -0.5192
28790SOL    HW190826   1.047   3.452   5.079  0.1032 -0.0921  0.1406
28790SOL    HW290827   0.955   3.351   5.012  0.4876 -0.1387 -0.3233
28791SOL     OW90828  10.610   8.913   2.040  0.0589 -0.3493 -0.2751
28791SOL    HW190829  10.588   8.943   1.952  0.1005  1.1871  0.2171
28791SOL    HW290830  10.526   8.911   2.086  0.4233  2.3981  0.6692
28792SOL     OW90831   5.577  10.217   1.500 -0.1276 -0.4836 -0.1162
28792SOL    HW190832   5.540  10.296   1.537 -1.4200 -0.9230 -0.3972
28792SOL    HW290833   5.656  10.246   1.454 -0.0624  0.4781  0.5865
28793SOL     OW90834   4.744   9.664   6.373 -0.1503 -0.1868 -0.0143
28793SOL    HW190835   4.659   9.703   6.392 -0.2013 -1.0638  1.7495
28793SOL    HW290836   4.791   9.732   6.324 -1.1384  1.0833  0.7246
28794SOL     OW90837   8.284   4.747   6.955  0.2210 -0.2014 -0.0301
28794SOL    HW190838   8.339   4.795   7.017 -1.4149  1.3407  0.2709
28794SOL    HW290839   8.223   4.697   7.010 -1.0347  0.9311 -0.3527
28795SOL     OW90840   2.562   9.048   4.602 -0.0323 -0.0310  0.3324
28795SOL    HW190841   2.530   9.076   4.517  0.7258 -1.6348 -0.5232
28795SOL    HW290842   2.484   9.046   4.658 -0.6479  0.3804 -0.4998
28796SOL     OW90843   7.796   7.862   2.297  0.3658 -0.3358  0.0363
28796SOL    HW190844   7.826   7.807   2.224  1.1487 -0.1153  0.1927
28796SOL    HW290845   7.766   7.799   2.362  1.4771 -0.6004  0.3096
28797SOL     OW90846   2.252   1.996   7.268 -0.2436  0.1031  0.5302
28797SOL    HW190847   2.256   1.901   7.255  0.3772  0.1376  0.4391
28797SOL    HW290848   2.254   2.032   7.180 -1.0420  0.1850  0.5442
28798SOL     OW90849   2.766   3.853   4.278  0.5387  0.7597  0.0180
28798SOL    HW190850   2.765   3.838   4.183  2.0709  0.2477  0.0438
28798SOL    HW290851   2.849   3.814   4.307 -0.2963  0.1327  1.7054
28799SOL     OW90852   6.646  11.015  10.644  0.1738  0.7408  0.0659
28799SOL    HW190853   6.719  10.964  10.609 -1.0301 -0.3200 -0.9989
28799SOL    HW290854   6.629  11.081  10.577 -0.2409  0.5842  0.0140
28800SOL     OW90855  10.133   9.120   7.201 -0.0534  0.4897 -0.0577
28800SOL    HW190856  10.123   9.052   7.133 -0.4852  0.7112 -0.2206
28800SOL    HW290857  10.144   9.071   7.282 -1.4121  0.2126 -0.0257
28801SOL     OW90858   5.188  11.057  11.022  0.4522 -0.3990  0.4903
28801SOL    HW190859   5.165  11.121  10.955  1.6109 -1.0310 -0.5532
28801SOL    HW290860   5.116  11.061  11.085  0.1666  1.4291  0.1074
28802SOL     OW90861   0.196   6.472   2.368 -0.1160  0.0523 -1.1853
28802SOL    HW190862   0.177   6.493   2.460 -0.2198  1.2430 -1.4726
28802SOL    HW290863   0.288   6.495   2.356  0.9305 -3.2644 -0.5105
28803SOL     OW90864   3.572   2.459   8.688 -0.0493 -0.3355 -0.6950
28803SOL    HW190865   3.488   2.450   8.643  0.0810 -2.1950 -0.6483
28803SOL    HW290866   3.632   2.489   8.620 -0.7657  1.2931 -0.6646
28804SOL     OW90867  10.031   9.379   7.976 -0.1537  0.0203  0.0243
28804SOL    HW190868   9.973   9.304   7.963  0.9438 -0.6463 -1.3663
28804SOL    HW290869  10.092   9.350   8.045  0.4573 -0.5198 -0.7222
28805SOL     OW90870  10.256   5.969  10.776 -0.0601 -0.4353 -0.2987
28805SOL    HW190871  10.189   5.920  10.729 -1.0211  0.8631 -0.3553
28805SOL    HW290872  10.301   6.020  10.708  0.7797 -1.0532 -0.2187
28806SOL     OW90873   9.147   5.636   5.972 -0.4171  0.1172 -0.4077
28806SOL    HW190874   9.210   5.705   5.949 -0.0767 -0.6295 -1.8292
28806SOL    HW290875   9.116   5.604   5.888  0.7671 -2.6915  0.1318
28807SOL     OW90876   2.840   0.461   9.719  0.0011  0.4085  0.2106
28807SOL    HW190877   2.892   0.527   9.672 -0.3971 -0.4884 -1.5593
28807SOL    HW290878   2.749   0.483   9.699 -0.1197 -1.4596 -1.6300
28808SOL     OW90879  10.365   6.055   2.714 -0.2151 -0.0572 -0.3271
28808SOL    HW190880  10.383   6.136   2.666  0.0888  0.0974  0.0452
28808SOL    HW290881  10.437   5.997   2.691  0.6952  0.4981  1.0205
28809SOL     OW90882   8.724   8.468   9.970 -0.2935  0.4807 -0.1401
28809SOL    HW190883   8.771   8.435  10.047 -0.3882  0.8555  0.0782
28809SOL    HW290884   8.632   8.451   9.989 -0.1712 -2.0006 -1.3804
28810SOL     OW90885   6.883   7.743   7.380 -0.0613 -0.7519 -0.0914
28810SOL    HW190886   6.923   7.714   7.463  1.8396  3.4890  0.7226
28810SOL    HW290887   6.888   7.665   7.324  2.9717 -2.5401  2.2683
28811SOL     OW90888   3.919   5.946   9.650  0.0087 -0.0589  0.4169
28811SOL    HW190889   3.879   5.898   9.722  0.6300 -0.6745  0.3746
28811SOL    HW290890   3.895   5.896   9.572  0.6571 -0.3142  0.3702
28812SOL     OW90891   8.885   5.167   7.665  0.4279  0.2074  0.3842
28812SOL    HW190892   8.795   5.173   7.633  1.2956  1.6782 -2.0382
28812SOL    HW290893   8.877   5.121   7.748 -2.7793  1.9814  1.2420
28813SOL     OW90894   8.213   7.897   6.295  0.4255  0.1042 -0.3567
28813SOL    HW190895   8.277   7.881   6.226 -0.6933  0.2247 -1.4723
28813SOL    HW290896   8.183   7.987   6.279  0.4449  0.2772  0.5465
28814SOL     OW90897   0.922  10.017  10.310 -0.0975  0.1511  0.3648
28814SOL    HW190898   0.984   9.981  10.246 -0.3160  0.4559 -0.0253
28814SOL    HW290899   0.870   9.941  10.337 -0.7392  0.1960 -0.6591
28815SOL     OW90900   0.444  11.045   9.834 -0.3297 -0.2533  0.0049
28815SOL    HW190901   0.413  11.125   9.879  1.4799  0.5025 -0.0011
28815SOL    HW290902   0.375  11.025   9.771 -0.8678  1.2655  0.0650
28816SOL     OW90903  10.264   7.576   7.092 -0.4761  0.2553  0.2217
28816SOL    HW190904  10.226   7.621   7.168  0.0083 -0.5826  0.9862
28816SOL    HW290905  10.304   7.646   7.041 -0.7461  0.8360  0.7878
28817SOL     OW90906   1.027   2.214   0.079  0.8757  0.3024  0.1564
28817SOL    HW190907   1.106   2.266   0.070  1.3621 -0.4102  0.2604
28817SOL    HW290908   0.957   2.270   0.044  0.9749  2.0282  2.4735
28818SOL     OW90909   7.563   3.418   9.004 -0.4580  0.5180  0.6895
28818SOL    HW190910   7.513   3.467   8.938 -2.5081  0.8881  2.4233
28818SOL    HW290911   7.555   3.469   9.084  0.9169 -0.5538  1.5688
28819SOL     OW90912   7.261   0.184   6.952 -0.0363  0.0214 -0.6785
28819SOL    HW190913   7.325   0.118   6.927  0.8426  0.5907 -0.0006
28819SOL    HW290914   7.205   0.140   7.016  1.0328  0.1273  0.3749
28820SOL     OW90915   3.009   6.225   1.661 -0.6830  0.1835  0.1379
28820SOL    HW190916   3.033   6.308   1.621  0.6188  0.3971  1.2907
28820SOL    HW290917   2.986   6.247   1.751  0.1306 -0.7298  0.5979
28821SOL     OW90918   9.425   6.175   7.589  0.1866 -0.0203 -0.0887
28821SOL    HW190919   9.516   6.157   7.566 -0.2179 -1.7384 -0.4380
28821SOL    HW290920   9.408   6.120   7.666 -0.8585 -0.5057 -0.6528
28822SOL     OW90921   1.973   6.558   6.243  0.7301  0.7318 -0.1706
28822SOL    HW190922   1.909   6.584   6.177 -1.4932 -1.3728  1.0244
28822SOL    HW290923   1.976   6.631   6.304 -1.6644  0.3413  0.5027
28823SOL     OW90924   9.813   9.464   1.022 -0.1839  0.0352  0.2583
28823SOL    HW190925   9.806   9.448   0.928 -1.2658 -0.3956  0.3997
28823SOL    HW290926   9.869   9.394   1.054 -0.9640 -0.6549  0.1406
28824SOL     OW90927   3.296  10.134   4.662  0.0200 -0.1274  0.3035
28824SOL    HW190928   3.297  10.095   4.749  0.3433 -0.2955  0.2243
28824SOL    HW290929   3.207  10.119   4.630 -0.0231 -0.2935  0.5009
28825SOL     OW90930   3.247   8.218   7.920 -0.1421  0.2087  0.2377
28825SOL    HW190931   3.309   8.145   7.929 -1.3525 -0.9657 -0.5465
28825SOL    HW290932   3.194   8.214   7.999 -1.5665 -1.1319 -0.7336
28826SOL     OW90933   3.735  10.254   5.961  0.2702  0.0618 -0.0450
28826SOL    HW190934   3.699  10.252   5.873 -0.5111 -2.2077  0.2514
28826SOL    HW290935   3.721  10.166   5.995  0.1793  0.9502  2.4973
28827SOL     OW90936   0.246   3.018   5.333 -0.1823 -0.1513 -0.5581
28827SOL    HW190937   0.286   2.975   5.258 -0.2927  0.9082 -1.2372
28827SOL    HW290938   0.308   3.087   5.357 -1.3759  1.2819 -1.4009
28828SOL     OW90939   4.038   9.916   1.866 -0.4800 -0.1362  0.7217
28828SOL    HW190940   4.017   9.849   1.932  1.5724 -1.5399  0.0433
28828SOL    HW290941   4.077   9.987   1.916 -3.2634  0.9650  1.5387
28829SOL     OW90942   1.911  10.977   5.874 -0.6978 -0.4775  0.0286
28829SOL    HW190943   1.894  11.064   5.910 -0.6900 -0.0224 -1.0431
28829SOL    HW290944   1.923  10.922   5.951 -0.2801  0.5525  0.7243
28830SOL     OW90945   4.020   0.969   3.022 -0.3524  0.6954  0.0559
28830SOL    HW190946   3.941   1.012   3.055 -0.5055 -0.7778  1.7347
28830SOL    HW290947   4.041   1.017   2.942 -2.1872  1.9614  0.2626
28831SOL     OW90948   6.182   1.713   7.549  0.0439 -0.3664 -0.2308
28831SOL    HW190949   6.166   1.756   7.633 -0.5518 -0.2269 -0.4104
28831SOL    HW290950   6.246   1.769   7.505  1.1955 -1.0115  0.5619
28832SOL     OW90951   6.349   2.616   2.408 -0.3376  0.8028 -0.1723
28832SOL    HW190952   6.364   2.524   2.390  0.4831  1.0004 -0.5189
28832SOL    HW290953   6.339   2.657   2.322  1.7193  1.4323 -0.1493
28833SOL     OW90954   0.682   8.278   9.162 -0.1358 -0.3949 -0.0189
28833SOL    HW190955   0.594   8.240   9.166 -0.1633 -0.2287  2.8895
28833SOL    HW290956   0.669   8.371   9.182  0.7542 -0.6059  1.8023
28834SOL     OW90957  10.028   9.430   5.292  0.1688 -0.0678  0.0580
28834SOL    HW190958   9.980   9.367   5.239  2.0561 -1.2440 -0.3255
28834SOL    HW290959   9.966   9.456   5.360 -1.3082 -0.7743 -0.9797
28835SOL     OW90960   0.431   0.056   7.142  0.2274 -0.3693 -0.0188
28835SOL    HW190961   0.462  -0.029   7.108  3.4706  1.3293 -1.8112
28835SOL    HW290962   0.507   0.093   7.186 -1.1117  1.6491  0.7195
28836SOL     OW90963   4.564   3.039   2.974 -0.2851 -0.4042  0.3838
28836SOL    HW190964   4.631   3.081   3.027 -0.7811  2.0704 -0.7831
28836SOL    HW290965   4.500   3.108   2.956 -0.6126 -1.3283 -2.5986
28837SOL     OW90966   6.463   2.624   5.010  0.2417  0.5232  0.7807
28837SOL    HW190967   6.522   2.657   5.078  0.1481  1.6946  0.3248
28837SOL    HW290968   6.503   2.652   4.928 -0.7678  1.0680  0.4488
28838SOL     OW90969   8.676   1.672   5.390  0.3507  0.2722 -0.3212
28838SOL    HW190970   8.669   1.579   5.411  1.9492  0.0993 -0.4677
28838SOL    HW290971   8.644   1.716   5.468 -0.1556 -0.3846 -0.1413
28839SOL     OW90972   6.884   1.720   0.154 -0.0401 -0.0247  0.0143
28839SOL    HW190973   6.961   1.666   0.172  0.3915  1.1415  1.9307
28839SOL    HW290974   6.810   1.664   0.180  0.1551 -0.9123 -1.2369
28840SOL     OW90975   7.574  10.552   3.384  0.4113 -0.0856 -0.1568
28840SOL    HW190976   7.646  10.525   3.441  0.0764 -0.4227  0.1110
28840SOL    HW290977   7.605  10.533   3.295  0.9715  0.5249 -0.1040
28841SOL     OW90978   0.229   6.725   8.280  0.2632 -0.5446 -0.7761
28841SOL    HW190979   0.228   6.631   8.302 -0.7151 -1.0187 -2.6626
28841SOL    HW290980   0.315   6.739   8.241  0.2339 -0.7672 -0.9248
28842SOL     OW90981   1.416   3.488   1.804 -0.2359 -0.2863 -0.3510
28842SOL    HW190982   1.343   3.496   1.743 -0.8673 -0.6995  0.3380
28842SOL    HW290983   1.398   3.554   1.871  0.3031 -0.0341 -0.4498
28843SOL     OW90984  10.446   9.855   6.648 -0.1764 -0.0318  0.0345
28843SOL    HW190985  10.414   9.765   6.646 -0.5998  0.0958  0.7559
28843SOL    HW290986  10.446   9.878   6.740  0.5399  0.4957 -0.0947
28844SOL     OW90987   5.931   8.867   4.434  0.1684  0.2543 -0.0323
28844SOL    HW190988   5.901   8.957   4.445  0.4531  0.3827 -0.3029
28844SOL    HW290989   6.017   8.865   4.477  0.1380  0.0986  0.0223
28845SOL     OW90990   9.734   7.524   4.991 -0.4345  0.7253 -0.1626
28845SOL    HW190991   9.705   7.480   5.071 -0.3850  1.8962  0.5177
28845SOL    HW290992   9.654   7.530   4.938 -0.8479  1.4750  0.5333
28846SOL     OW90993  10.659   2.350   6.482 -0.1666  0.0650  0.4504
28846SOL    HW190994  10.579   2.300   6.494 -1.1513  0.7333 -2.4983
28846SOL    HW290995  10.680   2.340   6.389  1.4497  2.3717  0.4814
28847SOL     OW90996  10.791   9.502   9.170 -0.2298  0.0892 -0.1696
28847SOL    HW190997  10.747   9.587   9.174  1.4170  1.0648 -1.4269
28847SOL    HW290998  10.793   9.481   9.077 -1.6608 -1.9570  0.1899
28848SOL     OW90999   0.186   3.423   4.579  0.0728 -0.3369 -0.4076
28848SOL    HW191000   0.207   3.467   4.662  1.2231 -2.3962  0.4840
28848SOL    HW291001   0.093   3.402   4.586  0.4976 -1.9495  1.1778
28849SOL     OW91002   9.405   4.687  11.049  0.1525  0.2366 -0.1068
28849SOL    HW191003   9.358   4.683  11.133 -0.1406 -0.4331 -0.2982
28849SOL    HW291004   9.347   4.737  10.992  1.3312  2.6829  0.6904
28850SOL     OW91005   9.753   9.339   5.522  0.5112 -0.6255 -0.0738
28850SOL    HW191006   9.684   9.304   5.466 -0.1280 -0.2655  0.4694
28850SOL    HW291007   9.747   9.287   5.603 -0.2415  0.5045  0.6180
28851SOL     OW91008   1.317   3.110   7.004  0.1352 -0.1298  0.0211
28851SOL    HW191009   1.298   3.045   6.936  0.6785  0.0767 -0.3367
28851SOL    HW291010   1.241   3.169   7.003  1.1839  1.2753 -2.0809
28852SOL     OW91011   5.452   3.082  10.663  0.2286 -0.2275 -0.1228
28852SOL    HW191012   5.421   3.013  10.722 -0.7077 -1.9199 -2.4237
28852SOL    HW291013   5.379   3.142  10.655  0.7806  0.6884  1.2958
28853SOL     OW91014   5.827   6.138   9.822  0.0638  0.4440  0.0624
28853SOL    HW191015   5.912   6.127   9.780 -0.7755 -1.6706 -1.2395
28853SOL    HW291016   5.816   6.233   9.831  2.2811  0.7728 -0.2548
28854SOL     OW91017  10.335   3.466  10.212 -0.7987 -0.3168 -0.4755
28854SOL    HW191018  10.332   3.554  10.247 -1.1072 -0.9955  1.2796
28854SOL    HW291019  10.410   3.467  10.152  0.7976  0.4690  1.4433
28855SOL     OW91020   4.015   2.922   9.090 -0.2901  0.5465  0.3471
28855SOL    HW191021   4.082   2.957   9.032 -0.9349  1.0824 -0.0829
28855SOL    HW291022   4.041   2.831   9.105  0.1704  0.5583 -0.3478
28856SOL     OW91023   6.564   4.708   5.564  0.0856 -0.4639  0.5827
28856SOL    HW191024   6.483   4.758   5.571  0.7163  0.9025 -1.1819
28856SOL    HW291025   6.540   4.620   5.592 -1.9858 -0.0590  0.2409
28857SOL     OW91026   0.697   6.558   2.860  0.4312  0.1145  0.5558
28857SOL    HW191027   0.762   6.582   2.795 -0.6520  1.3571 -0.0998
28857SOL    HW291028   0.616   6.596   2.829 -0.3447 -0.2156  2.0669
28858SOL     OW91029   4.414   2.336   3.688  0.1850  0.6038 -0.0091
28858SOL    HW191030   4.369   2.348   3.605 -1.4300 -1.2546  0.5303
28858SOL    HW291031   4.368   2.394   3.749 -2.2728 -1.9246  0.7474
28859SOL     OW91032   8.210   6.480   2.404 -0.4397 -0.1647 -0.0760
28859SOL    HW191033   8.270   6.521   2.341 -1.1848  1.1111  0.0219
28859SOL    HW291034   8.211   6.539   2.479  0.3965 -1.6415  1.1282
28860SOL     OW91035   2.081   2.818   3.825  0.4702  0.0065 -0.1157
28860SOL    HW191036   2.145   2.752   3.849  0.1726 -0.3181 -0.2064
28860SOL    HW291037   2.098   2.890   3.886  1.3345  0.1899 -0.5602
28861SOL     OW91038   8.588   8.015   7.302 -0.4630 -0.1016 -0.1821
28861SOL    HW191039   8.665   7.991   7.250 -0.4484 -0.2484 -0.0938
28861SOL    HW291040   8.612   8.097   7.344 -0.8572  0.5790 -1.2255
28862SOL     OW91041   8.869  10.312   7.305  0.0633  0.6358 -0.3288
28862SOL    HW191042   8.841  10.255   7.234 -0.6142 -0.0953  0.4913
28862SOL    HW291043   8.844  10.400   7.276 -0.2712  0.3393 -0.9642
28863SOL     OW91044   8.920   5.055   3.945  0.6774  0.2185  0.3534
28863SOL    HW191045   8.851   5.121   3.954  1.4565  0.8628  1.9000
28863SOL    HW291046   8.873   4.974   3.923 -0.3270  1.1719 -1.2272
28864SOL     OW91047   1.131   1.353   4.926 -0.3287 -0.2209  0.1908
28864SOL    HW191048   1.163   1.272   4.966 -0.6986 -0.4384  0.0606
28864SOL    HW291049   1.104   1.408   4.999  0.5976  0.0813  0.3150
28865SOL     OW91050   6.042   1.383  10.161  0.5253 -0.1848 -0.1761
28865SOL    HW191051   6.042   1.421  10.249 -0.7604  0.9959 -0.6479
28865SOL    HW291052   5.975   1.433  10.113  0.9745 -1.0089 -1.7350
28866SOL     OW91053  10.876   6.326   1.104 -0.1455  0.3681 -0.0476
28866SOL    HW191054  10.939   6.280   1.159 -0.1219  1.1480  0.5938
28866SOL    HW291055  10.900   6.419   1.112 -1.7948  0.7611  0.7826
28867SOL     OW91056   0.857   9.550   2.032  0.8185  0.6782 -0.1173
28867SOL    HW191057   0.855   9.515   1.943  1.7683  0.4677 -0.0580
28867SOL    HW291058   0.837   9.643   2.021  0.3367  0.5392 -0.4805
28868SOL     OW91059   4.424  10.514   3.157  0.2787 -0.6289 -0.7194
28868SOL    HW191060   4.355  10.452   3.132 -0.5260 -1.2045  2.4658
28868SOL    HW291061   4.414  10.587   3.096 -2.6258 -1.0710 -0.9104
28869SOL     OW91062   4.776   0.695   0.676  0.2224 -0.5686 -0.2679
28869SOL    HW191063   4.735   0.732   0.754 -0.4729  0.1801 -0.9636
28869SOL    HW291064   4.869   0.716   0.686 -0.2306  2.2341 -1.0275
28870SOL     OW91065   6.407  10.866   3.639  0.1332 -0.3137  0.0640
28870SOL    HW191066   6.347  10.934   3.608  0.7948  0.0345 -0.4940
28870SOL    HW291067   6.454  10.906   3.711 -0.8063 -0.8380  0.9954
28871SOL     OW91068   6.700  10.986   7.127 -0.4981  0.1218 -0.4460
28871SOL    HW191069   6.747  11.031   7.057  1.2675  3.1201  2.3820
28871SOL    HW291070   6.769  10.961   7.189 -2.1122 -0.9720  0.9692
28872SOL     OW91071   4.431   4.873   5.653 -0.2788  0.0718 -0.2583
28872SOL    HW191072   4.343   4.852   5.622 -0.5400  0.1785  0.3921
28872SOL    HW291073   4.446   4.812   5.726  1.2235 -1.7673 -1.9741
28873SOL     OW91074   0.853   0.952   5.728  1.0607 -0.1993 -0.0611
28873SOL    HW191075   0.834   0.908   5.811  1.6224 -1.6541 -0.6724
28873SOL    HW291076   0.813   0.897   5.661  1.9382  0.1097 -0.8747
28874SOL     OW91077   7.785   9.183  10.375  0.6880 -0.3355 -0.2120
28874SOL    HW191078   7.760   9.240  10.303  0.1559 -0.3509 -0.0481
28874SOL    HW291079   7.879   9.169  10.364  0.3960 -1.3797 -1.6360
28875SOL     OW91080   6.413  10.731   9.157 -0.2099 -0.6396 -0.2319
28875SOL    HW191081   6.353  10.705   9.227  1.0329  0.2952  1.2523
28875SOL    HW291082   6.498  10.695   9.184  0.5174  0.6700 -0.6774
28876SOL     OW91083   2.743   9.695  10.919 -0.7622  0.0673 -0.0105
28876SOL    HW191084   2.709   9.747  10.846  1.2632  2.2759  0.4992
28876SOL    HW291085   2.832   9.672  10.894 -0.0252  0.8480  1.6843
28877SOL     OW91086   0.951   9.615   7.981 -0.3710  0.0628 -0.0220
28877SOL    HW191087   0.873   9.601   8.035  0.4797  0.2022  1.2732
28877SOL    HW291088   0.926   9.687   7.922 -0.6726  1.3158  1.5570
28878SOL     OW91089   1.950   3.437   8.527 -0.6632 -0.2025 -0.1508
28878SOL    HW191090   2.033   3.391   8.532 -0.0890  0.7701 -0.3967
28878SOL    HW291091   1.884   3.371   8.548  0.0493 -1.3554 -1.4039
28879SOL     OW91092   4.900   9.745   0.943 -0.3957 -0.1799 -0.3852
28879SOL    HW191093   4.961   9.745   1.017 -1.4300 -0.8853  0.4852
28879SOL    HW291094   4.845   9.668   0.957 -1.0932  0.0949 -1.5016
28880SOL     OW91095   2.305   7.490   9.264 -0.1801 -0.0174  0.4211
28880SOL    HW191096   2.311   7.481   9.169  0.6870 -1.1535  0.5708
28880SOL    HW291097   2.376   7.550   9.287  1.4332 -1.9250  0.6196
28881SOL     OW91098   4.213   9.271   9.215  0.0599 -0.4773 -0.2342
28881SOL    HW191099   4.157   9.205   9.174 -0.3705 -0.2639  0.0113
28881SOL    HW291100   4.223   9.339   9.148 -0.8764  0.0067  0.1047
28882SOL     OW91101   4.478  11.021   8.282 -0.5800  0.5837  0.2724
28882SOL    HW191102   4.505  11.074   8.357  0.2581 -0.3577  0.6629
28882SOL    HW291103   4.556  10.970   8.260 -0.7975  0.8836 -1.2835
28883SOL     OW91104   2.429  10.463   7.057  0.3035 -0.4666  0.1237
28883SOL    HW191105   2.473  10.442   6.975 -2.6891 -1.0148 -1.4590
28883SOL    HW291106   2.400  10.379   7.091 -0.4268 -0.0414  0.5734
28884SOL     OW91107   0.686   0.926   3.745  0.6381  0.5117 -1.0451
28884SOL    HW191108   0.666   0.955   3.655  0.6613  0.9508 -0.9129
28884SOL    HW291109   0.764   0.872   3.736  0.4378  0.2716 -1.3363
28885SOL     OW91110   6.611   2.478   8.986  0.5653  0.5106 -0.4537
28885SOL    HW191111   6.700   2.511   8.977  0.6112 -0.1442 -3.1105
28885SOL    HW291112   6.580   2.466   8.896 -2.4269  1.2827  0.3472
28886SOL     OW91113   0.496   1.512   2.535  0.0033 -0.0061  0.3525
28886SOL    HW191114   0.579   1.545   2.570 -0.3081  0.8663  0.2937
28886SOL    HW291115   0.491   1.548   2.446 -0.1363 -0.5987  0.1108
28887SOL     OW91116   5.073   6.663   7.781 -0.0827  0.6241 -0.4446
28887SOL    HW191117   5.088   6.752   7.813 -0.9350  0.3255  0.8831
28887SOL    HW291118   5.161   6.631   7.758  0.3535  1.4942 -0.0504
28888SOL     OW91119   2.028   4.487   0.039 -0.1994 -0.3569  0.0888
28888SOL    HW191120   1.955   4.518   0.092  1.0689  0.3667  1.4793
28888SOL    HW291121   2.049   4.560  -0.019 -1.8837 -1.3058 -1.8560
28889SOL     OW91122   4.923   4.062   9.114 -0.0850  0.4483 -0.1881
28889SOL    HW191123   4.968   4.038   9.032  2.2364 -0.0251  1.1271
28889SOL    HW291124   4.982   4.126   9.154 -0.9741  0.3458  1.3287
28890SOL     OW91125   0.044   1.088  10.187  0.7139 -0.2427  0.2330
28890SOL    HW191126  -0.045   1.060  10.205  0.9997 -1.3106  0.0368
28890SOL    HW291127   0.088   1.010  10.152  1.4269  0.5557 -0.7060
28891SOL     OW91128   4.744   8.676   2.794  0.4671 -0.0186  0.6050
28891SOL    HW191129   4.681   8.716   2.734 -0.9828 -0.4661  1.7808
28891SOL    HW291130   4.827   8.721   2.775 -0.4578  1.4335 -0.1485
28892SOL     OW91131   8.884   1.585   5.657 -0.3495  0.1726  0.1990
28892SOL    HW191132   8.820   1.526   5.617  0.9822  1.0218 -3.6428
28892SOL    HW291133   8.948   1.527   5.697 -0.0089 -1.0320 -1.9295
28893SOL     OW91134   2.348   7.048   3.543  0.1714 -0.0017  0.1081
28893SOL    HW191135   2.430   6.999   3.538  0.3065 -0.0154  1.7253
28893SOL    HW291136   2.374   7.139   3.548  0.0619  0.0299  0.1118
28894SOL     OW91137   5.100   7.006   2.522 -0.0701  0.4168 -0.3456
28894SOL    HW191138   5.135   7.074   2.464 -0.2004  0.7131 -0.0812
28894SOL    HW291139   5.170   6.990   2.585  0.1030  0.0348 -0.6320
28895SOL     OW91140   1.173   4.930   7.670 -0.5942 -0.2476  0.4442
28895SOL    HW191141   1.252   4.971   7.635  0.3842 -2.0440  0.4470
28895SOL    HW291142   1.152   4.982   7.748  0.0917  0.7505 -0.0165
28896SOL     OW91143   5.878  11.000   0.573 -0.1126 -0.0600 -0.2762
28896SOL    HW191144   5.838  10.923   0.614 -0.2191  0.6152  0.9372
28896SOL    HW291145   5.943  10.964   0.513  0.4837 -1.1025  0.9337
28897SOL     OW91146   5.172   5.309   4.972  0.3018  0.0235 -0.1114
28897SOL    HW191147   5.085   5.274   4.949  0.0430  1.3453 -1.2463
28897SOL    HW291148   5.161   5.340   5.062 -1.0902  2.1789 -0.9610
28898SOL     OW91149   0.790   3.281   7.993 -0.1360 -0.0619  0.2416
28898SOL    HW191150   0.703   3.301   7.960 -0.3726  1.3225  1.5744
28898SOL    HW291151   0.847   3.285   7.916 -1.5251 -3.8034 -1.2161
28899SOL     OW91152   4.865   2.039   7.086  0.0328  0.5203  0.6262
28899SOL    HW191153   4.795   2.082   7.036 -0.6825  0.4552  1.5413
28899SOL    HW291154   4.946   2.079   7.053 -0.4847  1.1738  0.1090
28900SOL     OW91155   3.746   9.279  10.504  0.2323  0.4360 -0.5597
28900SOL    HW191156   3.766   9.210  10.440  0.9833  0.4886 -0.3907
28900SOL    HW291157   3.782   9.246  10.586 -0.6244  0.4230 -0.1797
28901SOL     OW91158   4.092   1.051  10.679 -0.1485 -0.3193 -0.7063
28901SOL    HW191159   4.132   1.106  10.611 -0.4730  0.4425 -0.2842
28901SOL    HW291160   4.146   0.971  10.679  1.1181  0.5022 -0.4452
28902SOL     OW91161   0.084   0.488   3.898 -0.2211  0.6633 -0.5301
28902SOL    HW191162   0.047   0.501   3.985 -1.7035  0.5104 -1.1129
28902SOL    HW291163   0.130   0.570   3.880  1.7684  0.0104  1.1258
28903SOL     OW91164  10.316   7.164   6.863  0.7942  0.4545  0.1231
28903SOL    HW191165  10.235   7.154   6.912  1.0422 -1.8010  0.1589
28903SOL    HW291166  10.358   7.240   6.903  0.3267 -0.4235  2.4717
28904SOL     OW91167   6.188   6.510   7.444  0.1520 -0.1018  0.6195
28904SOL    HW191168   6.134   6.544   7.372  0.6178  1.9411  1.1538
28904SOL    HW291169   6.138   6.438   7.480 -0.8642 -0.1073 -0.7085
28905SOL     OW91170   1.101  10.610   2.905 -0.1444 -0.1660  0.0256
28905SOL    HW191171   1.100  10.530   2.853  0.9341 -0.0996 -0.1114
28905SOL    HW291172   1.193  10.621   2.931  0.0988  2.0102 -1.4899
28906SOL     OW91173   1.507   7.536   4.836 -0.7473  0.2266  0.3237
28906SOL    HW191174   1.568   7.478   4.882  1.3495  1.0121 -1.3142
28906SOL    HW291175   1.515   7.511   4.744 -0.5123  2.4325 -0.3003
28907SOL     OW91176   5.850   8.060   9.327 -0.0556  0.2105  0.5185
28907SOL    HW191177   5.770   8.083   9.280  0.6122 -0.8331 -1.1891
28907SOL    HW291178   5.827   8.071   9.420 -2.5999 -1.3394  0.1497
28908SOL     OW91179   8.890   6.837   5.862 -0.0855  0.0893  0.0647
28908SOL    HW191180   8.857   6.748   5.875 -0.6030  0.1633 -0.6651
28908SOL    HW291181   8.955   6.848   5.931  2.3790 -2.0115 -1.7408
28909SOL     OW91182   3.125   3.397   1.391  1.0016  0.4350 -0.1810
28909SOL    HW191183   3.056   3.338   1.362 -0.9073  1.0926  2.5979
28909SOL    HW291184   3.187   3.342   1.438  0.0007  0.3673  1.1156
28910SOL     OW91185   1.141   0.548   9.159  0.3573 -0.2181 -0.7834
28910SOL    HW191186   1.157   0.474   9.100  2.7369 -0.0775 -0.3794
28910SOL    HW291187   1.228   0.580   9.181 -0.5482  0.8730  1.4027
28911SOL     OW91188   8.625   3.699   6.803  0.1478  0.1800 -0.2069
28911SOL    HW191189   8.564   3.712   6.731  0.8126 -1.2846 -1.0852
28911SOL    HW291190   8.592   3.754   6.874 -1.4578  0.3800 -1.0819
28912SOL     OW91191   7.243   4.181   6.134  0.2416 -0.0091 -0.1157
28912SOL    HW191192   7.183   4.199   6.061 -0.2087 -0.5772  0.1138
28912SOL    HW291193   7.310   4.125   6.097  0.0179 -0.2893 -0.0995
28913SOL     OW91194   8.929   6.611   5.619  0.4438  0.6100  0.1115
28913SOL    HW191195   9.023   6.607   5.634  0.9347  1.4034 -2.3117
28913SOL    HW291196   8.896   6.665   5.691  1.7681  0.0351  1.1915
28914SOL     OW91197   4.366   4.978   8.365  0.2500  0.2774  0.0383
28914SOL    HW191198   4.431   5.032   8.319  0.6326 -0.1446  0.0866
28914SOL    HW291199   4.396   4.888   8.353 -0.0597  0.1124  0.4759
28915SOL     OW91200   7.168   3.511   2.779 -0.1649  0.0782  0.4778
28915SOL    HW191201   7.191   3.484   2.868  1.6571  0.3311  0.1218
28915SOL    HW291202   7.189   3.435   2.725  0.5112  0.5699  0.0424
28916SOL     OW91203   4.419  11.066   8.805 -0.8470  0.5465  0.5821
28916SOL    HW191204   4.472  10.989   8.824  1.3526  1.4537 -1.4415
28916SOL    HW291205   4.393  11.099   8.891  3.7212  1.2490  1.9472
28917SOL     OW91206   4.968   1.186   3.270 -0.1082 -0.2963 -0.3706
28917SOL    HW191207   4.887   1.134   3.268 -0.5771  0.2233  1.8161
28917SOL    HW291208   5.024   1.140   3.333 -0.1718  1.2639  0.8973
28918SOL     OW91209   1.728   7.748   4.367  0.3328 -0.0044 -0.3216
28918SOL    HW191210   1.754   7.755   4.459  2.5257 -1.8872 -0.7067
28918SOL    HW291211   1.698   7.657   4.357 -1.9337  0.7497 -1.0561
28919SOL     OW91212   8.241   6.245   8.160 -0.5855 -0.5413  0.3004
28919SOL    HW191213   8.209   6.295   8.235 -1.4483  1.2815 -1.2114
28919SOL    HW291214   8.170   6.186   8.138 -1.2197  0.4509 -0.3831
28920SOL     OW91215   8.637   8.478   9.073  0.1698 -0.6943  0.3904
28920SOL    HW191216   8.662   8.516   8.989  1.4161 -1.8383  0.2216
28920SOL    HW291217   8.577   8.543   9.112  1.2466  0.8388 -0.4237
28921SOL     OW91218   8.209  10.165   4.173  0.0277  0.5383 -0.0678
28921SOL    HW191219   8.255  10.195   4.252  0.5520  0.6160 -0.4014
28921SOL    HW291220   8.198  10.071   4.186  1.1495  0.3489 -0.4199
28922SOL     OW91221   1.254   3.427   7.355 -0.0301 -0.0835  0.2635
28922SOL    HW191222   1.282   3.341   7.324 -2.2767 -0.3816 -1.2233
28922SOL    HW291223   1.333   3.481   7.354  1.3110 -1.9399  0.6593
28923SOL     OW91224   3.607   5.011   3.839  0.3291 -0.0112 -0.4264
28923SOL    HW191225   3.579   5.068   3.768  0.4350 -0.4586 -0.8315
28923SOL    HW291226   3.702   5.020   3.842  0.2538  0.7559  0.3104
28924SOL     OW91227   5.474   5.999   7.470 -0.1092  0.4099 -0.4930
28924SOL    HW191228   5.433   6.079   7.435 -0.7095  0.9497  1.3261
28924SOL    HW291229   5.416   5.972   7.541  2.3002  0.8098  1.7575
28925SOL     OW91230   8.518   2.688   3.728  0.2056  0.2261 -0.0773
28925SOL    HW191231   8.579   2.620   3.698  1.2488  0.8680  0.4954
28925SOL    HW291232   8.554   2.716   3.812 -0.9894  0.5271  0.3531
28926SOL     OW91233   9.600   1.981  10.823 -0.0098 -0.2262  0.4364
28926SOL    HW191234   9.522   2.034  10.833  0.3355  0.1809  1.1001
28926SOL    HW291235   9.672   2.044  10.818  0.3563 -0.6076  0.7502
28927SOL     OW91236   0.197   7.368   5.986  0.0529  0.3887  0.3960
28927SOL    HW191237   0.240   7.362   6.071 -1.0938 -1.2114  0.8984
28927SOL    HW291238   0.187   7.462   5.971 -1.5442  0.7150  2.9860
28928SOL     OW91239   2.755   2.730  10.588  0.3673 -0.0593 -0.5672
28928SOL    HW191240   2.803   2.653  10.559  2.3573  0.7621  0.3198
28928SOL    HW291241   2.682   2.695  10.638 -0.0256 -1.3697 -1.9838
28929SOL     OW91242   4.224  10.148   8.518 -0.1751 -0.2741  0.1755
28929SOL    HW191243   4.163  10.081   8.488 -0.5263 -1.0568  2.4303
28929SOL    HW291244   4.170  10.208   8.570  0.1290  1.8360 -1.7852
28930SOL     OW91245   2.656   1.331   8.389 -0.4337 -0.2036  0.7403
28930SOL    HW191246   2.722   1.338   8.458  1.6344  0.5652 -1.1956
28930SOL    HW291247   2.586   1.277   8.428  1.4989 -1.4444  2.7292
28931SOL     OW91248  10.748   9.881   9.491 -0.4173 -0.2315  0.3194
28931SOL    HW191249  10.823   9.851   9.542  0.1844  1.8784  0.7947
28931SOL    HW291250  10.703   9.942   9.549 -2.5110 -1.3964  0.0168
28932SOL     OW91251  10.448   0.504   0.984  0.1451 -0.3113  0.5964
28932SOL    HW191252  10.391   0.551   1.045  1.0604 -0.0546  1.2739
28932SOL    HW291253  10.496   0.573   0.939 -0.7762 -0.4817 -0.7018
28933SOL     OW91254  10.015   3.618   5.030  0.2532 -0.0992  0.4691
28933SOL    HW191255   9.933   3.571   5.011  0.9961 -1.1845 -0.1488
28933SOL    HW291256  10.071   3.599   4.955  1.4256 -0.1697  1.3444
28934SOL     OW91257   1.231   8.675   6.188 -0.3386 -0.0765 -0.2028
28934SOL    HW191258   1.321   8.699   6.164  0.5793 -1.5652  1.5335
28934SOL    HW291259   1.190   8.652   6.105  1.7137 -1.8930 -0.8123
28935SOL     OW91260   8.509  11.041   9.614 -0.1163  0.1434  0.1515
28935SOL    HW191261   8.458  11.121   9.627 -1.9707 -1.0111  0.3523
28935SOL    HW291262   8.565  11.060   9.538 -1.8295  1.0458 -0.9581
28936SOL     OW91263   7.688   3.372   6.230 -0.3472  0.3696  0.1187
28936SOL    HW191264   7.765   3.357   6.174 -0.3063 -2.3768  0.7303
28936SOL    HW291265   7.719   3.349   6.318 -1.6991 -0.3046  0.4457
28937SOL     OW91266   8.612   7.820   6.852 -0.2792 -0.7597  0.9413
28937SOL    HW191267   8.587   7.732   6.878 -1.4187 -0.3287  1.3715
28937SOL    HW291268   8.704   7.828   6.879  0.2756 -2.2504 -0.3062
28938SOL     OW91269   3.322  10.751   5.461  0.1064  0.4935 -0.1200
28938SOL    HW191270   3.276  10.686   5.513 -0.2869  0.6331 -0.2878
28938SOL    HW291271   3.252  10.798   5.415  0.2400  2.0801  1.1974
28939SOL     OW91272   6.632   7.941   5.892  0.0984 -0.3066 -0.2494
28939SOL    HW191273   6.574   7.865   5.887 -0.9963  0.5795 -1.8364
28939SOL    HW291274   6.591   7.998   5.957  0.7433 -0.8992  0.6991
28940SOL     OW91275   5.039   8.636   1.665 -0.7963 -0.2144  0.3357
28940SOL    HW191276   5.089   8.693   1.724 -1.2879 -0.1738  0.7180
28940SOL    HW291277   5.037   8.683   1.582 -0.2148 -0.2099  0.3202
28941SOL     OW91278   3.803   9.526   4.745 -0.0079 -0.3823  0.3383
28941SOL    HW191279   3.710   9.512   4.760 -0.3279  0.5256 -0.6545
28941SOL    HW291280   3.807   9.572   4.661  1.3970 -1.2937 -0.1291
28942SOL     OW91281   4.868   9.462   0.098 -0.2376 -0.2018  0.1620
28942SOL    HW191282   4.892   9.504   0.180  1.5705  0.3927 -0.6303
28942SOL    HW291283   4.786   9.417   0.118  0.4270 -0.5456  2.4437
28943SOL     OW91284   1.285   4.361   7.945 -0.3296  0.7413  0.6643
28943SOL    HW191285   1.337   4.441   7.942 -1.2031  1.3198  0.6515
28943SOL    HW291286   1.276   4.336   7.853  0.4648  0.2660  0.7021
28944SOL     OW91287  10.935   4.425   9.296 -0.0611 -0.0199 -0.1709
28944SOL    HW191288  11.015   4.418   9.245 -1.0180  0.7388 -1.8652
28944SOL    HW291289  10.945   4.361   9.366  1.0826 -1.5425 -1.6568
28945SOL     OW91290   7.214   0.079  10.967 -0.4264 -0.7320 -0.3851
28945SOL    HW191291   7.226   0.110  11.056  0.3289 -1.3142 -0.2791
28945SOL    HW291292   7.154   0.142  10.928 -0.7006 -0.4311  0.5072
28946SOL     OW91293   2.805   7.001   3.163 -0.1688 -0.2059  0.2322
28946SOL    HW191294   2.765   7.086   3.145 -0.0810  0.1272  1.5264
28946SOL    HW291295   2.843   6.974   3.079  0.0916  1.1884 -0.1149
28947SOL     OW91296   9.102   4.344   0.137 -0.2643 -0.0463  0.4738
28947SOL    HW191297   9.173   4.394   0.178  0.0826 -1.3037  1.4666
28947SOL    HW291298   9.033   4.341   0.203 -0.3511 -0.7282  0.3611
28948SOL     OW91299   6.051   3.080   8.836 -0.1771  0.3828 -0.3855
28948SOL    HW191300   6.145   3.086   8.852  0.3158  1.9840 -3.2388
28948SOL    HW291301   6.013   3.152   8.888  0.5424  1.4545 -1.3036
28949SOL     OW91302  10.739   5.505   0.326  0.0158  0.2451 -0.0831
28949SOL    HW191303  10.704   5.429   0.280  0.1412 -0.6551  1.2493
28949SOL    HW291304  10.793   5.550   0.260 -2.1653  0.7091 -1.6683
28950SOL     OW91305   9.009   6.913   4.246 -1.1770  0.0690 -0.0599
28950SOL    HW191306   9.088   6.947   4.204 -0.1789 -0.8338  1.0199
28950SOL    HW291307   8.965   6.990   4.281 -0.2207  0.5007  0.2288
28951SOL     OW91308   6.897   6.823   7.396 -1.2145 -0.0054  0.0179
28951SOL    HW191309   6.858   6.898   7.442 -1.9443 -1.1720  1.3556
28951SOL    HW291310   6.967   6.793   7.454 -0.7337 -0.1957 -0.6495
28952SOL     OW91311   4.781  10.111  11.072 -0.2235 -0.0302 -0.2020
28952SOL    HW191312   4.865  10.075  11.102 -0.4841  0.0875  0.6877
28952SOL    HW291313   4.791  10.117  10.977  1.0030  0.5507 -0.0641
28953SOL     OW91314   7.065   4.031   5.043  0.6271 -0.1327 -0.3832
28953SOL    HW191315   7.028   4.077   5.118  2.1314 -0.0778  0.3692
28953SOL    HW291316   6.994   4.027   4.979 -1.1538 -1.4436  1.5779
28954SOL     OW91317   4.618   2.129   0.318 -0.2708  0.7968 -0.8291
28954SOL    HW191318   4.580   2.216   0.305  3.3559  2.5059 -1.2544
28954SOL    HW291319   4.708   2.146   0.344  0.5826 -2.8922 -0.8645
28955SOL     OW91320   9.627  10.902   2.106  0.5174 -0.1646  0.6564
28955SOL    HW191321   9.701  10.916   2.164  0.6698 -0.5609  0.5586
28955SOL    HW291322   9.631  10.975   2.044  2.3839 -1.5566 -0.9850
28956SOL     OW91323   9.353  10.070   4.993  0.0859 -0.1325 -0.1133
28956SOL    HW191324   9.279  10.124   5.021  0.5843  0.7102 -0.3858
28956SOL    HW291325   9.408  10.129   4.941  1.2390 -0.5873  0.5466
28957SOL     OW91326   0.915   7.404   0.832  0.2843 -0.0449 -0.1038
28957SOL    HW191327   0.993   7.348   0.836  0.4062 -0.0154 -1.4651
28957SOL    HW291328   0.845   7.346   0.802 -0.6399 -0.4448  2.5877
28958SOL     OW91329   5.184   9.152   2.730  0.1021  0.2866 -0.3577
28958SOL    HW191330   5.165   9.116   2.643  0.1654  0.5544 -0.4818
28958SOL    HW291331   5.221   9.238   2.713 -1.3646  1.0199 -0.0302
28959SOL     OW91332  10.743   9.559   3.269 -0.7011  0.2162  0.9519
28959SOL    HW191333  10.827   9.603   3.283 -0.6898  0.4385  0.2230
28959SOL    HW291334  10.752   9.515   3.185 -0.6928 -1.2624  1.7043
28960SOL     OW91335   8.922   3.621   9.526 -0.7328 -0.3093 -0.3054
28960SOL    HW191336   8.885   3.642   9.440 -3.4608 -1.4019  0.4985
28960SOL    HW291337   8.883   3.537   9.550  1.0644 -0.7397  1.4281
28961SOL     OW91338  10.756   0.650   8.623 -0.3224 -0.4598  0.2912
28961SOL    HW191339  10.762   0.726   8.681 -1.1677 -0.2770  0.1521
28961SOL    HW291340  10.671   0.611   8.644 -0.8399 -0.1384 -1.1226
28962SOL     OW91341   4.510   0.293   2.582 -0.4400 -0.0221 -0.0961
28962SOL    HW191342   4.507   0.256   2.494  0.6963  0.0109 -0.1639
28962SOL    HW291343   4.435   0.253   2.627 -0.3493 -0.9412 -0.7255
28963SOL     OW91344   4.382   2.657   1.689 -0.0042 -0.1661  0.4075
28963SOL    HW191345   4.409   2.567   1.674  1.6523  0.4102 -0.3340
28963SOL    HW291346   4.459   2.698   1.730 -0.0699  1.3253 -0.8766
28964SOL     OW91347   9.013   9.274   2.325  0.0593 -0.0660  0.1842
28964SOL    HW191348   9.001   9.359   2.368 -1.9963 -0.4120  0.3899
28964SOL    HW291349   9.011   9.295   2.232 -1.5276  0.0281  0.2134
28965SOL     OW91350   9.456   1.435   2.319  0.3380  0.0592 -0.2863
28965SOL    HW191351   9.494   1.462   2.402  0.6587 -0.3514 -0.2956
28965SOL    HW291352   9.458   1.339   2.322 -1.1145  0.0123 -0.0938
28966SOL     OW91353   2.724   2.009  11.009  0.4427 -0.3675  0.1133
28966SOL    HW191354   2.691   2.023  10.920 -0.1040  0.4045  0.4338
28966SOL    HW291355   2.815   1.981  10.996  0.1631 -0.9340 -0.7099
28967SOL     OW91356   5.731   6.369  10.434 -0.0078  0.0534  0.1126
28967SOL    HW191357   5.660   6.407  10.382 -0.3788  0.3977  0.8523
28967SOL    HW291358   5.687   6.312  10.497  0.3879  0.1212  0.4531
28968SOL     OW91359   1.117   2.082   8.948 -0.1279  0.0664  0.3515
28968SOL    HW191360   1.048   2.102   8.885 -1.7200 -0.7290  1.7628
28968SOL    HW291361   1.199   2.103   8.902 -1.2843  0.9792 -1.3928
28969SOL     OW91362   3.045   4.607   5.605  0.2642  0.1243 -0.2135
28969SOL    HW191363   3.061   4.629   5.697  0.5862 -1.2073  0.0764
28969SOL    HW291364   3.089   4.676   5.556  1.2881  0.1147  0.6371
28970SOL     OW91365   6.910   4.142  10.123  0.4296 -0.5834  0.0953
28970SOL    HW191366   6.921   4.063  10.070  0.0486 -1.1446  0.8324
28970SOL    HW291367   6.847   4.196  10.075  2.5968  0.4819 -1.7396
28971SOL     OW91368   5.664   6.282   6.312 -0.5152 -0.1070 -0.0101
28971SOL    HW191369   5.695   6.274   6.402  1.1758  2.6982 -0.2186
28971SOL    HW291370   5.599   6.212   6.302  0.4678 -1.5683  2.8183
28972SOL     OW91371   8.452   4.421   9.756  0.2100 -0.0477 -0.1594
28972SOL    HW191372   8.495   4.469   9.686  0.4539 -0.3735 -0.2371
28972SOL    HW291373   8.440   4.485   9.826 -1.3169  0.6626 -1.0183
28973SOL     OW91374   4.879   6.623   9.677  0.1020  0.0638 -0.3206
28973SOL    HW191375   4.908   6.591   9.591  0.4676  0.0139 -0.1812
28973SOL    HW291376   4.836   6.547   9.717 -0.8554  0.3272 -0.8002
28974SOL     OW91377   0.015   5.193   8.582  0.3923 -0.2614 -0.4735
28974SOL    HW191378   0.070   5.135   8.530  0.7224  1.1949 -1.8594
28974SOL    HW291379  -0.058   5.215   8.524  1.2736  2.1928 -0.7932
28975SOL     OW91380  10.030   9.752   7.644  0.0831  0.1630  0.0521
28975SOL    HW191381  10.077   9.733   7.725 -1.7014  1.6373  1.5281
28975SOL    HW291382  10.002   9.667   7.611  3.2280 -0.7421 -0.6444
28976SOL     OW91383   8.262   3.712   5.560  0.5436 -0.0194  0.1184
28976SOL    HW191384   8.168   3.729   5.575  0.6669 -0.7841  2.0285
28976SOL    HW291385   8.264   3.657   5.482 -0.5489  0.5070 -0.3092
28977SOL     OW91386   2.438  10.165   5.141 -0.1625 -0.1986 -0.2171
28977SOL    HW191387   2.393  10.241   5.105 -1.2650  0.3626  2.1341
28977SOL    HW291388   2.520  10.200   5.175  0.7391 -0.6725 -1.7995
28978SOL     OW91389   2.016   0.073   5.680 -0.7172 -0.2035 -0.2081
28978SOL    HW191390   1.921   0.089   5.675 -0.7648  1.0647  2.5668
28978SOL    HW291391   2.025   0.008   5.751  0.4820 -0.6945 -0.7871
28979SOL     OW91392   7.253   9.708   5.382 -0.6918 -0.3808 -1.1336
28979SOL    HW191393   7.313   9.758   5.326 -1.2050 -0.1313 -1.4681
28979SOL    HW291394   7.282   9.728   5.471  0.6641 -1.4362 -1.2976
28980SOL     OW91395   7.534   9.690   5.570  0.1972 -0.3492  0.2234
28980SOL    HW191396   7.591   9.756   5.607 -1.2459  0.7176  0.6354
28980SOL    HW291397   7.499   9.643   5.646  0.5343 -1.0226 -0.0263
28981SOL     OW91398   9.521   1.217   8.551 -0.6842  0.5457 -0.2564
28981SOL    HW191399   9.515   1.237   8.458  0.3751 -0.4998 -0.5725
28981SOL    HW291400   9.556   1.297   8.591 -0.3153  0.6986 -0.8757
28982SOL     OW91401   2.423   5.455   7.171 -0.2404  0.1816  0.2037
28982SOL    HW191402   2.416   5.457   7.266  0.0826 -0.9828  0.2585
28982SOL    HW291403   2.497   5.513   7.151  0.0468 -0.0079  0.7032
28983SOL     OW91404   8.129   7.155   9.517  0.3414  0.1987 -0.2732
28983SOL    HW191405   8.054   7.154   9.458  0.0237 -0.6434  0.1276
28983SOL    HW291406   8.183   7.082   9.488  0.2633 -0.1203  0.3678
28984SOL     OW91407   8.345   8.250   4.128  0.4382  0.6484 -0.6724
28984SOL    HW191408   8.338   8.168   4.177  0.8288 -0.5731 -2.5553
28984SOL    HW291409   8.393   8.308   4.187  1.4027 -0.9372  0.1906
28985SOL     OW91410   9.477  10.427   0.964 -0.8081  0.1711 -0.3533
28985SOL    HW191411   9.509  10.338   0.980 -0.3892 -0.0854 -2.3122
28985SOL    HW291412   9.392  10.430   1.008 -0.9960 -1.3282 -0.5489
28986SOL     OW91413   0.954   0.156   4.367 -0.0920  0.0549  0.1620
28986SOL    HW191414   1.037   0.200   4.384 -0.3575  0.7904 -0.3718
28986SOL    HW291415   0.964   0.119   4.280 -0.3565  0.2374  0.0523
28987SOL     OW91416   0.853   5.988   3.904  0.1407  0.5290  0.0292
28987SOL    HW191417   0.930   5.948   3.864  1.1379  1.7089  0.6935
28987SOL    HW291418   0.782   5.973   3.841  1.2709  0.8643 -1.3625
28988SOL     OW91419   4.949   9.697   1.753 -0.1573  0.0706  0.2725
28988SOL    HW191420   4.891   9.673   1.825  0.6572  0.2264  0.9918
28988SOL    HW291421   5.036   9.698   1.791  0.3838 -0.5401 -0.8917
28989SOL     OW91422   7.613   9.228   6.923  0.1248  0.2283 -0.2390
28989SOL    HW191423   7.678   9.158   6.930 -0.2022  0.0791  2.5638
28989SOL    HW291424   7.561   9.205   6.846  1.8613 -0.9502 -1.1295
28990SOL     OW91425   4.897   1.771   6.804 -0.2877  0.7337 -0.0860
28990SOL    HW191426   4.814   1.727   6.825  0.5550 -0.3243  1.1938
28990SOL    HW291427   4.941   1.781   6.888  0.3839  2.3732 -0.5901
28991SOL     OW91428   8.279   9.667   4.292 -0.0697  0.4821 -0.1257
28991SOL    HW191429   8.328   9.617   4.226 -0.2376  1.7269 -1.2280
28991SOL    HW291430   8.187   9.654   4.269 -0.2757 -1.0495  1.3581
28992SOL     OW91431   5.033   4.791  10.837 -0.1289  0.4320 -0.0720
28992SOL    HW191432   5.049   4.699  10.857 -0.5330  0.5906  1.0536
28992SOL    HW291433   4.938   4.798  10.831 -0.1060  0.7913 -0.0567
28993SOL     OW91434   0.539   1.572   1.568 -0.1146 -0.1344  0.4422
28993SOL    HW191435   0.470   1.615   1.618 -0.3549 -0.7601  0.6545
28993SOL    HW291436   0.522   1.598   1.477 -0.5147 -0.1309  0.5175
28994SOL     OW91437   1.637   7.091   4.698  0.2565 -0.3029  0.1212
28994SOL    HW191438   1.657   7.045   4.617  1.3884 -0.4548  0.4764
28994SOL    HW291439   1.646   7.184   4.677  0.9052 -0.3552  0.1643
28995SOL     OW91440   8.112   6.016   3.006 -0.1327 -0.2659  0.9903
28995SOL    HW191441   8.122   6.086   3.070  1.1234  0.4008  0.1286
28995SOL    HW291442   8.039   6.045   2.950  0.8470  0.7772  0.1876
28996SOL     OW91443   0.838   1.650   1.527 -0.2034  0.5458  0.1741
28996SOL    HW191444   0.882   1.710   1.467 -0.6230  0.6456 -0.0440
28996SOL    HW291445   0.763   1.700   1.560 -1.1224 -0.1489 -0.7575
28997SOL     OW91446   2.474  11.051   8.687  0.7508  0.2279  0.3224
28997SOL    HW191447   2.489  10.981   8.751  0.9222 -0.2228 -0.1969
28997SOL    HW291448   2.532  11.122   8.715  1.8730 -0.4891 -0.1129
28998SOL     OW91449   7.961   7.279  10.901  0.8004 -0.0959 -0.5183
28998SOL    HW191450   7.914   7.235  10.830 -1.1800  2.2448 -0.7690
28998SOL    HW291451   8.039   7.225  10.915 -0.9771 -3.1293 -1.3844
28999SOL     OW91452   9.381  10.929   8.570  0.2743  0.2847  0.2366
28999SOL    HW191453   9.387  10.984   8.649 -1.9901  0.7351  0.1729
28999SOL    HW291454   9.320  10.976   8.513  1.6176 -0.2020 -1.6812
29000SOL     OW91455   1.116   9.099   6.920  0.1188 -0.2540  0.0838
29000SOL    HW191456   1.041   9.060   6.966  0.2328  0.8317  1.2529
29000SOL    HW291457   1.077   9.144   6.845 -0.4453  0.3746  0.7275
29001SOL     OW91458   9.515   4.918   8.574  0.2646 -0.1331  0.3798
29001SOL    HW191459   9.590   4.929   8.514  0.5296 -1.8065  0.3362
29001SOL    HW291460   9.473   5.004   8.576  1.5003  0.5350 -0.5314
29002SOL     OW91461   1.642   3.409   9.337 -0.1852  0.4704 -0.3270
29002SOL    HW191462   1.671   3.468   9.267 -1.7514  0.6668 -0.8548
29002SOL    HW291463   1.580   3.350   9.293 -1.8917  1.1547  1.0237
29003SOL     OW91464   6.529   4.274   7.130  0.5804 -0.0799  0.0618
29003SOL    HW191465   6.612   4.231   7.149  0.1805  0.1248  2.7381
29003SOL    HW291466   6.463   4.206   7.142  0.2184  0.2867  0.1861
29004SOL     OW91467   3.694   0.808   5.741  0.1027 -0.6525 -0.4047
29004SOL    HW191468   3.698   0.727   5.792  1.2245  0.2867  1.0886
29004SOL    HW291469   3.783   0.842   5.742 -0.7092  1.6856  0.8687
29005SOL     OW91470   2.036   0.730   5.966 -0.0624  0.0834  0.3005
29005SOL    HW191471   2.084   0.759   6.043 -2.2422 -0.4091  1.9291
29005SOL    HW291472   2.032   0.807   5.909 -0.3672  1.1306  1.7026
29006SOL     OW91473   4.869   0.778   2.776  0.2627 -0.2475 -0.9251
29006SOL    HW191474   4.958   0.745   2.791 -0.1465 -1.4040 -0.9609
29006SOL    HW291475   4.844   0.740   2.691 -1.4884 -2.7341  0.5635
29007SOL     OW91476   5.858   5.175  10.714 -0.7129  0.4172 -0.2902
29007SOL    HW191477   5.887   5.228  10.789  0.1586  0.2504 -0.5065
29007SOL    HW291478   5.768   5.205  10.698 -0.3848  1.5496 -0.1486
29008SOL     OW91479   4.066  10.285   1.764 -0.3313  0.1755  0.2964
29008SOL    HW191480   4.131  10.272   1.833  0.7885  0.2169 -0.7278
29008SOL    HW291481   4.041  10.377   1.770  2.6325  1.2380 -1.7503
29009SOL     OW91482   9.441   3.522   5.991 -0.0919  0.2391  0.2320
29009SOL    HW191483   9.400   3.454   6.045 -0.1272 -1.2471 -1.6041
29009SOL    HW291484   9.527   3.536   6.031 -0.6656  0.2581  1.5282
29010SOL     OW91485   2.656   8.531  10.563 -0.5517  1.1260  0.1213
29010SOL    HW191486   2.737   8.574  10.536 -0.3181  1.1120  0.7867
29010SOL    HW291487   2.667   8.514  10.657 -0.0438 -1.6274 -0.3498
29011SOL     OW91488   7.781  10.974   4.240 -0.5186  0.9059  0.3369
29011SOL    HW191489   7.746  10.906   4.182  1.6294 -1.2446  1.3655
29011SOL    HW291490   7.775  11.054   4.189  0.7224 -0.7693 -2.7196
29012SOL     OW91491   3.182   1.878   6.465 -0.6828 -0.0281  0.5102
29012SOL    HW191492   3.150   1.827   6.540 -1.8099  1.7885  1.3170
29012SOL    HW291493   3.150   1.830   6.388  0.6666 -2.0300  1.1224
29013SOL     OW91494   0.700   0.342   6.230  0.5032  0.1241  0.4401
29013SOL    HW191495   0.626   0.321   6.287 -0.4745  1.5946 -0.2362
29013SOL    HW291496   0.750   0.260   6.226  1.5173  0.3110  4.5970
29014SOL     OW91497   5.187   4.448   7.006 -0.5214  0.1592  0.1061
29014SOL    HW191498   5.104   4.445   7.053 -0.4728  0.2007  0.1942
29014SOL    HW291499   5.253   4.440   7.074 -0.4645 -0.8634 -0.0470
29015SOL     OW91500   0.388   5.050   8.626  0.3321  0.1461 -0.6522
29015SOL    HW191501   0.449   5.099   8.682 -1.4867  0.9056  0.7607
29015SOL    HW291502   0.312   5.033   8.682 -0.9378 -0.4051 -2.4487
29016SOL     OW91503   9.089   1.204   5.141  0.2491  0.0267 -0.0096
29016SOL    HW191504   9.043   1.141   5.196  0.2653  0.0571  0.0386
29016SOL    HW291505   9.032   1.281   5.140  0.6284  0.3270  0.6268
29017SOL     OW91506   1.489   7.226   1.959 -0.0238 -0.2159  0.5139
29017SOL    HW191507   1.578   7.199   1.980 -0.1107  0.0492  1.2504
29017SOL    HW291508   1.492   7.249   1.866  1.0923  1.4071  0.9055
29018SOL     OW91509   5.377  10.444  10.831  0.2810 -0.9677 -0.3735
29018SOL    HW191510   5.411  10.531  10.808 -1.1950  0.0312  0.9804
29018SOL    HW291511   5.409  10.386  10.762  0.8265  0.7731 -1.6418
29019SOL     OW91512   4.463   2.421   4.294 -0.2666 -0.2736 -0.1015
29019SOL    HW191513   4.456   2.501   4.241  1.2234  0.3599  0.5913
29019SOL    HW291514   4.458   2.350   4.231  2.1248  0.4632 -1.2277
29020SOL     OW91515   6.807   4.271   6.831 -0.2570 -0.3976 -0.5434
29020SOL    HW191516   6.871   4.204   6.804  0.3167  0.6021 -1.7593
29020SOL    HW291517   6.815   4.274   6.926 -1.2099 -2.9303 -0.2945
29021SOL     OW91518   8.223   9.549  10.820 -0.5259 -0.9145 -0.2758
29021SOL    HW191519   8.212   9.480  10.886 -1.0424  0.0254  0.6486
29021SOL    HW291520   8.228   9.630  10.871 -1.6504 -0.0943 -1.4296
29022SOL     OW91521   5.606   0.951   6.653  0.2590 -0.4433  0.3728
29022SOL    HW191522   5.510   0.943   6.653  0.2463 -0.5095 -1.3047
29022SOL    HW291523   5.633   0.918   6.568  1.6466  1.1355  0.1620
29023SOL     OW91524   2.161   1.171   0.451 -0.1657 -0.0117 -0.2801
29023SOL    HW191525   2.152   1.215   0.366 -1.6137 -1.5099 -0.9446
29023SOL    HW291526   2.255   1.157   0.460 -0.0757 -1.1807 -2.3747
29024SOL     OW91527   3.622   8.586   9.917 -0.1138 -0.2134  0.3594
29024SOL    HW191528   3.596   8.497   9.892  0.2533 -0.1448 -0.2944
29024SOL    HW291529   3.705   8.600   9.872  0.3021  0.1215  1.2206
29025SOL     OW91530   7.468   2.987   7.508  0.2278  0.0659  0.3398
29025SOL    HW191531   7.410   2.977   7.584 -0.7900  1.4199 -0.2091
29025SOL    HW291532   7.423   2.942   7.437  0.1525  0.5727  0.0620
29026SOL     OW91533   3.580   7.492  10.577 -0.4967 -0.0123  0.0278
29026SOL    HW191534   3.660   7.511  10.626 -0.4648 -0.2315  0.0591
29026SOL    HW291535   3.509   7.528  10.631 -0.2191  3.0095 -1.4158
29027SOL     OW91536  11.047   0.100   6.414  0.0939 -0.6060  0.1045
29027SOL    HW191537  11.048   0.064   6.503 -0.6835 -1.8649 -0.3759
29027SOL    HW291538  10.997   0.037   6.362 -0.6929  0.8149 -0.9495
29028SOL     OW91539   1.616   7.004   2.362  0.0728 -0.4075 -0.3118
29028SOL    HW191540   1.552   6.947   2.318  0.8380 -0.8270 -0.8998
29028SOL    HW291541   1.623   7.080   2.305  0.4114 -0.5570 -0.4736
29029SOL     OW91542   1.761   2.702   8.505  0.3969 -0.2128 -0.0888
29029SOL    HW191543   1.670   2.724   8.488  0.3611 -0.6962 -0.5625
29029SOL    HW291544   1.765   2.679   8.597  0.2240  0.6980  0.1567
29030SOL     OW91545  10.170  11.014  10.189  0.0990 -0.1860 -0.3840
29030SOL    HW191546  10.141  10.962  10.114  0.7967  0.1694 -0.9158
29030SOL    HW291547  10.113  10.987  10.261  0.9196 -2.2473 -0.4346
29031SOL     OW91548   7.632   7.283  10.230 -0.1366  0.0913 -0.3527
29031SOL    HW191549   7.605   7.215  10.168  1.9058  0.2646 -1.5279
29031SOL    HW291550   7.647   7.361  10.176 -2.1603  1.4669  0.9253
29032SOL     OW91551   1.878   1.498   8.028 -0.1336  0.4006 -0.0271
29032SOL    HW191552   1.858   1.574   7.973  1.6032  0.0749 -1.1790
29032SOL    HW291553   1.846   1.523   8.115 -1.8710  1.4035 -0.8842
29033SOL     OW91554   6.505   9.805   9.831 -0.1596 -0.0396  0.1742
29033SOL    HW191555   6.559   9.768   9.761 -1.0307 -0.2685 -0.3905
29033SOL    HW291556   6.456   9.731   9.866 -1.2654  0.4008 -0.3778
29034SOL     OW91557   2.824   2.538   5.607 -0.4124  0.5384 -0.1605
29034SOL    HW191558   2.775   2.464   5.643 -1.0898  1.2334  0.3857
29034SOL    HW291559   2.902   2.498   5.569 -0.5994 -0.4249  0.4161
29035SOL     OW91560   7.694   1.227   1.284  0.0730 -0.1245  0.3468
29035SOL    HW191561   7.738   1.303   1.247 -1.8664  1.1234  0.4415
29035SOL    HW291562   7.744   1.152   1.252  1.3100  1.1342 -0.7851
29036SOL     OW91563   8.872   0.882  10.584 -0.1366 -0.2693 -0.1499
29036SOL    HW191564   8.919   0.941  10.526  1.2157 -0.4664  0.6998
29036SOL    HW291565   8.914   0.796  10.570 -0.4986 -0.5315  0.3524
29037SOL     OW91566   6.750  10.488   5.791  0.1437 -0.1762 -0.0619
29037SOL    HW191567   6.779  10.568   5.834  0.5457 -0.4456  0.1764
29037SOL    HW291568   6.654  10.493   5.793  0.1698  0.4258 -0.2955
29038SOL     OW91569   6.992   3.779   0.457  0.4962 -0.2664  0.0982
29038SOL    HW191570   7.052   3.748   0.390  0.9426 -0.6569  0.6674
29038SOL    HW291571   6.927   3.830   0.409  0.5189 -0.9549 -0.6950
29039SOL     OW91572   8.680   4.936   3.828  0.3911  0.5085  0.5046
29039SOL    HW191573   8.651   4.949   3.738  1.1969  0.0767  0.1745
29039SOL    HW291574   8.605   4.963   3.881  0.2699  1.7547 -0.2552
29040SOL     OW91575  10.690   5.507   6.128  0.1611 -0.0561  0.3176
29040SOL    HW191576  10.685   5.548   6.042  0.8360  2.0009  1.2053
29040SOL    HW291577  10.599   5.496   6.155 -0.0442  1.3001  0.2369
29041SOL     OW91578   5.456   0.197   4.920  0.1129  0.0524  0.2556
29041SOL    HW191579   5.430   0.167   4.833 -0.2788  0.0949  0.3529
29041SOL    HW291580   5.504   0.278   4.905 -2.7334  1.8743  0.2316
29042SOL     OW91581   0.010   9.331   2.477  0.6738  0.0179  0.4601
29042SOL    HW191582   0.020   9.413   2.526  1.1597  0.0675  0.2817
29042SOL    HW291583  -0.058   9.350   2.412  2.3643  1.0199 -1.1160
29043SOL     OW91584   9.667   0.476   4.828 -0.4082 -0.5238 -0.5053
29043SOL    HW191585   9.667   0.490   4.734 -2.7838  0.5666 -0.4274
29043SOL    HW291586   9.639   0.385   4.839  0.0683 -0.7142 -0.8363
29044SOL     OW91587   7.033   6.741  10.165  0.4596 -0.0444 -0.4032
29044SOL    HW191588   7.124   6.746  10.138  0.6094  1.9841  0.2850
29044SOL    HW291589   7.017   6.824  10.210 -2.3570  0.7584 -2.5447
29045SOL     OW91590   7.961  10.990   0.988 -0.9695 -0.2381  0.3373
29045SOL    HW191591   8.055  10.997   0.999 -1.1367  1.2731  1.1521
29045SOL    HW291592   7.943  10.896   0.983  0.6809 -0.5286 -1.0129
29046SOL     OW91593   2.502   9.432   9.404  0.1996 -0.4633  0.7215
29046SOL    HW191594   2.598   9.436   9.401  0.1378  2.7354 -0.2217
29046SOL    HW291595   2.480   9.368   9.336  1.6430 -0.3761  0.1261
29047SOL     OW91596   1.288  10.860   6.231 -0.0091  0.8489  0.0630
29047SOL    HW191597   1.329  10.843   6.316 -0.3072  1.7324  0.3875
29047SOL    HW291598   1.245  10.777   6.209  3.1956 -0.6655 -1.0315
29048SOL     OW91599   9.965   4.838   8.511 -0.0366 -0.3789  0.2672
29048SOL    HW191600  10.052   4.810   8.484 -0.6008 -0.8801 -1.1376
29048SOL    HW291601   9.906   4.772   8.473 -0.9591 -0.6895  2.1483
29049SOL     OW91602   8.617  10.667  10.385  0.0692 -0.1960  0.0306
29049SOL    HW191603   8.628  10.701  10.474  1.1796 -0.7775  0.1383
29049SOL    HW291604   8.678  10.594  10.380 -1.0984 -1.1579 -0.7194
29050SOL     OW91605   5.293   3.602   0.616  0.0434  0.0063 -0.5294
29050SOL    HW191606   5.355   3.531   0.600 -0.7830 -0.6934 -0.7770
29050SOL    HW291607   5.207   3.560   0.608 -0.4646  0.7206  0.7699
29051SOL     OW91608   3.316   5.833   5.715  0.7095  0.3469 -0.3110
29051SOL    HW191609   3.371   5.833   5.794 -0.1241  0.4946  0.2910
29051SOL    HW291610   3.335   5.917   5.673 -0.8259  1.5383  1.2075
29052SOL     OW91611   2.906   3.247   3.275  0.2767 -0.1701 -0.0676
29052SOL    HW191612   2.922   3.162   3.235 -3.8999 -1.2959  0.1687
29052SOL    HW291613   2.875   3.227   3.363 -5.1674  0.8944 -1.3477
29053SOL     OW91614   0.384   5.566   3.852  0.4978 -0.0316  0.2303
29053SOL    HW191615   0.436   5.556   3.932  1.5346  0.8963 -0.2991
29053SOL    HW291616   0.295   5.581   3.884  0.8633  0.1640  1.2147
29054SOL     OW91617   7.523   2.588   2.458 -0.7187  0.2083  0.3034
29054SOL    HW191618   7.574   2.559   2.533 -0.8610 -0.2428  0.2251
29054SOL    HW291619   7.436   2.551   2.471 -0.5031 -0.6592 -0.5445
29055SOL     OW91620   1.123   9.355   3.171 -0.5421  0.6791 -0.2029
29055SOL    HW191621   1.068   9.352   3.093 -1.5283  0.8668  0.4726
29055SOL    HW291622   1.211   9.373   3.137 -0.9221  0.5696 -1.2804
29056SOL     OW91623   6.052   9.487   5.992  0.2403 -0.5312  0.1531
29056SOL    HW191624   6.107   9.566   5.984 -0.6433 -0.0096 -1.1996
29056SOL    HW291625   5.975   9.506   5.938 -0.9881 -1.5002  1.5012
29057SOL     OW91626   6.252   9.356   9.351 -0.3297  0.0531  0.4161
29057SOL    HW191627   6.258   9.277   9.297 -1.5886  0.6828 -0.6797
29057SOL    HW291628   6.179   9.338   9.410  1.1554 -0.7090  2.1167
29058SOL     OW91629   1.483   6.536  10.473 -0.2267  0.1127  0.1900
29058SOL    HW191630   1.552   6.482  10.509  1.8763  2.5522  0.0927
29058SOL    HW291631   1.406   6.516  10.527  0.7936 -1.8702  1.0137
29059SOL     OW91632   7.020   9.850   9.507 -0.1387  0.2857  0.1698
29059SOL    HW191633   7.000   9.759   9.531  0.6855 -0.0028 -0.2259
29059SOL    HW291634   7.115   9.857   9.517 -0.2924  1.3566  1.0369
29060SOL     OW91635   2.110  10.309   6.642 -0.0527 -0.4035  0.3897
29060SOL    HW191636   2.205  10.294   6.640 -0.2303 -2.0317  1.9614
29060SOL    HW291637   2.089  10.320   6.734 -1.1738  1.9400 -0.0706
29061SOL     OW91638   0.667   9.152   6.466  0.2125  0.1240 -0.2806
29061SOL    HW191639   0.659   9.060   6.492  1.1565  1.1188  4.4028
29061SOL    HW291640   0.754   9.158   6.426  1.1340 -0.7343  1.4585
29062SOL     OW91641   0.314   1.859   6.701 -0.5478  0.3999  0.4148
29062SOL    HW191642   0.234   1.863   6.650 -1.3385 -0.9583  1.4700
29062SOL    HW291643   0.372   1.801   6.650  0.0654  1.9138 -0.6805
29063SOL     OW91644   0.841   4.424  10.655 -0.2850  0.2806  0.6510
29063SOL    HW191645   0.754   4.384  10.653 -0.3707  0.4189 -2.1407
29063SOL    HW291646   0.827   4.514  10.625  0.6836  0.6892  1.3551
29064SOL     OW91647   1.778   7.344   6.840 -0.2550  0.3327 -1.0504
29064SOL    HW191648   1.737   7.319   6.757 -0.3687 -0.2948 -0.8124
29064SOL    HW291649   1.795   7.438   6.831 -1.8320  0.6413 -1.1329
29065SOL     OW91650   9.853   6.495   9.876 -0.0275  0.0287  0.0804
29065SOL    HW191651   9.788   6.434   9.911 -0.4886  0.7668  0.5425
29065SOL    HW291652   9.887   6.541   9.953  0.7521 -0.0571 -0.1981
29066SOL     OW91653   3.178   8.548   5.689  0.0160  0.4306  0.8847
29066SOL    HW191654   3.216   8.502   5.763 -1.3823 -0.3431  1.1623
29066SOL    HW291655   3.228   8.518   5.613 -0.2876 -0.8629  1.1772
29067SOL     OW91656   4.284  10.913   5.189 -0.1600 -0.2716  0.6183
29067SOL    HW191657   4.273  10.818   5.187 -1.6302 -0.1449  1.2269
29067SOL    HW291658   4.378  10.927   5.196  0.3181 -1.6334 -1.8419
29068SOL     OW91659   9.798   3.985   0.226 -0.0258 -0.1888  0.1742
29068SOL    HW191660   9.717   3.997   0.274  0.2383 -0.3038  0.6549
29068SOL    HW291661   9.864   3.970   0.294 -0.1145 -3.2706 -0.2719
29069SOL     OW91662   7.552   3.518   7.191 -0.6186 -0.1159 -0.0119
29069SOL    HW191663   7.640   3.545   7.162 -0.6763  0.5316  0.3839
29069SOL    HW291664   7.558   3.424   7.202  0.6608  0.1507  2.0810
29070SOL     OW91665  10.021  10.267  11.020 -0.1916  0.7545 -0.1749
29070SOL    HW191666   9.947  10.219  10.983 -1.6425  0.6725  2.5888
29070SOL    HW291667  10.049  10.215  11.095  1.1127  2.0054  0.2549
29071SOL     OW91668   7.426   0.884   1.942 -0.7034 -0.1363 -0.0073
29071SOL    HW191669   7.407   0.976   1.961  0.1516 -0.1901  1.1462
29071SOL    HW291670   7.340   0.847   1.921 -0.8723  1.2592 -2.1339
29072SOL     OW91671   1.982   0.459   8.550  0.3121  0.6427 -0.4167
29072SOL    HW191672   1.971   0.467   8.456  0.7166  0.7658 -0.4589
29072SOL    HW291673   1.973   0.366   8.568 -0.4450  0.6951 -0.4806
29073SOL     OW91674   1.353  10.120   8.499  0.4629 -0.1894  0.3602
29073SOL    HW191675   1.396  10.138   8.582  0.6252  0.5789  0.1161
29073SOL    HW291676   1.259  10.117   8.520  0.5054 -0.0221  0.5718
29074SOL     OW91677   6.775  10.408   5.287 -0.5548 -0.2024 -0.3809
29074SOL    HW191678   6.839  10.341   5.311  0.5013  0.3495 -1.5221
29074SOL    HW291679   6.788  10.421   5.193 -0.5320  1.7853 -0.1568
29075SOL     OW91680   0.147   8.704   6.728  0.2623 -0.0774 -0.2318
29075SOL    HW191681   0.181   8.775   6.674 -0.6611 -0.4689 -1.3873
29075SOL    HW291682   0.100   8.748   6.799  0.6545  0.4553 -0.2937
29076SOL     OW91683   0.860   8.033   8.358 -0.7618 -0.4106  0.0768
29076SOL    HW191684   0.765   8.039   8.374 -0.6280 -0.3009  0.8882
29076SOL    HW291685   0.867   7.991   8.273 -1.5467 -0.3379 -0.0351
29077SOL     OW91686  10.578   6.795   5.117  0.0595  0.0687  0.2198
29077SOL    HW191687  10.620   6.868   5.163  0.7601  1.8312 -2.8742
29077SOL    HW291688  10.486   6.822   5.109 -0.6180 -1.3589  2.5165
29078SOL     OW91689   4.463   8.868   2.281 -0.4050  0.2132 -0.5946
29078SOL    HW191690   4.469   8.781   2.243  0.1542 -0.2959  0.6302
29078SOL    HW291691   4.369   8.883   2.291 -0.5628  0.2497 -1.8536
29079SOL     OW91692   8.127   1.986   0.524 -0.1438 -0.0132 -0.5556
29079SOL    HW191693   8.066   2.028   0.463 -0.9176 -0.9882 -0.4773
29079SOL    HW291694   8.142   2.052   0.591 -0.9342  0.3365 -0.7028
29080SOL     OW91695   2.889   3.389   3.644 -0.0950  0.1170  0.1621
29080SOL    HW191696   2.856   3.454   3.706  1.3666 -0.1654  1.2783
29080SOL    HW291697   2.835   3.403   3.565  0.2150  2.7508  0.3083
29081SOL     OW91698   4.004   0.522   4.014  0.1197  0.2141  0.3099
29081SOL    HW191699   4.037   0.451   4.070 -1.0608 -0.3392  0.3416
29081SOL    HW291700   3.999   0.483   3.926 -0.2451  0.3509  0.2682
29082SOL     OW91701  10.507   2.916   0.081 -0.2229  0.0603 -0.4550
29082SOL    HW191702  10.501   2.821   0.076 -1.4339  0.0080  1.1202
29082SOL    HW291703  10.543   2.943  -0.003 -2.0101 -1.6290 -1.8403
29083SOL     OW91704  10.882   3.792   6.190  0.0084 -0.0423 -0.4118
29083SOL    HW191705  10.947   3.738   6.143  0.2912 -0.7536  0.7515
29083SOL    HW291706  10.925   3.877   6.201  0.6587 -0.4353  0.1356
29084SOL     OW91707   8.991   9.692   9.097 -0.3852  0.1470  0.3346
29084SOL    HW191708   8.972   9.599   9.082 -3.1979  0.7253 -0.2547
29084SOL    HW291709   9.036   9.721   9.018 -1.7236 -0.1891 -0.5709
29085SOL     OW91710   8.559   8.213   9.306  0.2604 -0.2242 -0.3101
29085SOL    HW191711   8.520   8.138   9.261  0.4999  0.8767 -2.4430
29085SOL    HW291712   8.523   8.209   9.395 -4.1675  0.2677 -1.8366
29086SOL     OW91713   7.890   7.272   5.642  0.2758  0.2898 -0.3697
29086SOL    HW191714   7.910   7.189   5.685 -0.2390 -1.0947 -2.6186
29086SOL    HW291715   7.818   7.251   5.582  1.4388  1.8338 -2.4447
29087SOL     OW91716   5.576   1.235  10.935 -0.0321 -0.2308 -0.5541
29087SOL    HW191717   5.483   1.241  10.913  0.0862 -0.5107 -1.1470
29087SOL    HW291718   5.579   1.246  11.030 -0.4075  2.5940 -0.7877
29088SOL     OW91719   8.441   7.365  10.557 -0.2697 -0.1611  0.0658
29088SOL    HW191720   8.505   7.331  10.619 -1.1370 -1.7074  0.1661
29088SOL    HW291721   8.356   7.355  10.601 -0.9010 -1.3179 -1.3248
29089SOL     OW91722   4.388  11.074  10.138  0.6336 -0.1921 -0.6543
29089SOL    HW191723   4.380  11.130  10.215 -1.7912  0.7771 -1.5040
29089SOL    HW291724   4.408  11.133  10.066 -2.9055 -0.0556 -1.7418
29090SOL     OW91725   8.203   0.055   8.849 -0.2766  0.4088 -0.1586
29090SOL    HW191726   8.168  -0.019   8.799  0.5153  0.5244 -0.9195
29090SOL    HW291727   8.157   0.052   8.932  0.4452 -1.5491  0.2200
29091SOL     OW91728   0.054   7.518   2.132 -0.0554 -0.0533 -0.9016
29091SOL    HW191729   0.026   7.556   2.215  1.3285  1.5802 -1.1359
29091SOL    HW291730  -0.010   7.448   2.115 -0.2662 -0.5540  1.5946
29092SOL     OW91731   3.495   5.236   8.679  0.3439 -0.3371 -0.2224
29092SOL    HW191732   3.434   5.226   8.606 -0.9986 -0.9611  0.9430
29092SOL    HW291733   3.546   5.314   8.657 -0.4654 -0.1355 -1.5141
29093SOL     OW91734   6.798   5.863   0.113  0.4287 -0.2709  0.3250
29093SOL    HW191735   6.882   5.908   0.103  0.0320  0.3276 -0.3978
29093SOL    HW291736   6.792   5.807   0.036 -0.3757  0.5977 -0.2648
29094SOL     OW91737   0.576   5.030   8.086 -0.5602 -0.1700  0.1659
29094SOL    HW191738   0.570   4.987   8.172 -1.2494  1.1273  0.7987
29094SOL    HW291739   0.486   5.027   8.052 -0.0344 -1.9894 -1.2125
29095SOL     OW91740   5.038   4.888   6.000 -0.0333  1.1185  0.0202
29095SOL    HW191741   5.100   4.949   6.041 -0.5827  0.9226  1.1992
29095SOL    HW291742   5.081   4.861   5.919  0.6588  2.2954 -0.0291
29096SOL     OW91743   2.484   2.674   4.112 -0.2984  0.2178 -0.1044
29096SOL    HW191744   2.512   2.665   4.021  1.3843 -0.3878  0.4301
29096SOL    HW291745   2.415   2.739   4.110 -0.0332  0.4831 -1.7721
29097SOL     OW91746   5.611   8.331   3.850  0.2500  0.0568 -0.1087
29097SOL    HW191747   5.649   8.393   3.911 -0.4002  1.7587 -1.3510
29097SOL    HW291748   5.567   8.385   3.784 -0.2860 -1.7150 -1.3021
29098SOL     OW91749   8.659   1.423  10.159 -0.0705 -0.5474 -0.7512
29098SOL    HW191750   8.609   1.419  10.077 -1.7383 -0.0457  0.1747
29098SOL    HW291751   8.594   1.451  10.224  1.8581  2.2183  0.1722
29099SOL     OW91752   3.785   1.582   3.905 -0.3907 -0.3029  0.2702
29099SOL    HW191753   3.869   1.543   3.883 -0.7431 -1.6952  1.2681
29099SOL    HW291754   3.725   1.550   3.837 -0.1480  0.6246 -0.3950
29100SOL     OW91755  10.532   9.983   5.821 -0.1584  0.0059 -0.2153
29100SOL    HW191756  10.549   9.928   5.898 -0.8217  0.1626  0.0485
29100SOL    HW291757  10.452   9.947   5.783 -0.9326  1.1289  0.2956
29101SOL     OW91758   1.622   7.669   6.394  0.2474  0.0376  0.0650
29101SOL    HW191759   1.664   7.635   6.316 -0.8612  0.1877 -0.6207
29101SOL    HW291760   1.540   7.707   6.363  0.5047  1.5336  1.0803
29102SOL     OW91761  10.674   8.657   6.812 -0.9395 -0.7445 -0.0832
29102SOL    HW191762  10.646   8.628   6.725 -1.2887 -0.4864 -0.0594
29102SOL    HW291763  10.714   8.743   6.796 -1.9542 -0.2197  0.1491
29103SOL     OW91764   8.986  10.273  10.636 -0.2221  0.1606  0.3521
29103SOL    HW191765   8.921  10.342  10.649 -2.2970 -1.2742 -1.4065
29103SOL    HW291766   8.997  10.269  10.541  1.5032 -0.5080  0.5493
29104SOL     OW91767   6.211   5.152   8.016  0.0250  0.3283  0.3434
29104SOL    HW191768   6.131   5.192   7.982 -0.7054  0.2829  1.9137
29104SOL    HW291769   6.229   5.080   7.956 -1.5395 -0.1032  0.3480
29105SOL     OW91770   0.282   1.787   2.105  0.0136 -0.0558 -0.7327
29105SOL    HW191771   0.220   1.838   2.157  0.9027  0.5107 -0.2085
29105SOL    HW291772   0.366   1.801   2.148  0.4393 -1.1599 -1.1794
29106SOL     OW91773   1.067   4.979   6.448 -0.1139 -0.2136  0.2603
29106SOL    HW191774   1.162   4.990   6.454 -0.3712  2.0643  1.1245
29106SOL    HW291775   1.032   5.051   6.500 -2.3291 -1.4073  0.5158
29107SOL     OW91776   7.077   2.645   8.402 -0.5076  0.1166  0.6269
29107SOL    HW191777   7.166   2.637   8.368 -1.1220 -3.3442 -0.5757
29107SOL    HW291778   7.033   2.704   8.339  0.3620  0.0569 -0.0593
29108SOL     OW91779   7.199   9.348   4.773 -0.4752 -0.3354  0.4926
29108SOL    HW191780   7.244   9.349   4.857 -0.8697 -2.4315  0.7834
29108SOL    HW291781   7.106   9.344   4.796 -0.6870  0.8721 -0.0770
29109SOL     OW91782   1.987   1.906   6.710  0.0444 -0.3587  0.1222
29109SOL    HW191783   2.043   1.860   6.773 -0.4769 -0.4267  0.5447
29109SOL    HW291784   1.898   1.890   6.741 -0.2098 -0.2401 -0.5374
29110SOL     OW91785   1.640   9.210   2.145  0.4056 -0.1356 -0.2244
29110SOL    HW191786   1.613   9.269   2.215 -0.3639 -1.6712  0.8425
29110SOL    HW291787   1.653   9.126   2.189  0.0803 -1.1015 -1.9010
29111SOL     OW91788  10.405   2.022   4.294  1.0503  0.4689  0.2721
29111SOL    HW191789  10.486   1.972   4.306  0.7177 -0.2680 -0.4644
29111SOL    HW291790  10.365   1.985   4.216 -0.0543  0.7603  0.6796
29112SOL     OW91791  10.751   4.864   9.809  0.5585 -0.6602 -0.1541
29112SOL    HW191792  10.745   4.946   9.760  1.0732 -0.4757  0.0883
29112SOL    HW291793  10.695   4.878   9.886  0.2747 -0.7086 -0.3516
29113SOL     OW91794   0.012   0.718   2.962  0.5832  0.2142  0.2664
29113SOL    HW191795   0.064   0.646   2.999 -0.2864 -1.0666 -0.9110
29113SOL    HW291796   0.058   0.742   2.881  0.5900  0.6387  0.3944
29114SOL     OW91797   8.960   5.249   7.960  0.5405  0.2891 -0.2292
29114SOL    HW191798   8.950   5.156   7.939 -0.6772  0.6329 -1.3220
29114SOL    HW291799   9.040   5.275   7.913  0.9766 -0.2276  0.2115
29115SOL     OW91800   7.802   4.872  10.989 -0.2312 -0.2833 -0.3141
29115SOL    HW191801   7.854   4.946  11.020  0.7140 -0.6878 -0.9021
29115SOL    HW291802   7.715   4.910  10.974  0.3436  0.8190 -1.0219
29116SOL     OW91803   9.071   6.540   8.286 -0.0501 -0.1617  0.1992
29116SOL    HW191804   9.046   6.538   8.193  3.5408 -0.0383 -0.9346
29116SOL    HW291805   9.083   6.448   8.309  1.6478 -0.0941 -0.3238
29117SOL     OW91806   4.036  10.724   2.961  0.1288 -0.1250  0.2312
29117SOL    HW191807   3.984  10.656   2.918  0.6648 -0.9412  0.8526
29117SOL    HW291808   4.126  10.707   2.934  0.2139  0.6595 -0.0152
29118SOL     OW91809   9.907   9.066   6.538 -0.2632  0.2577  0.1231
29118SOL    HW191810   9.827   9.097   6.581 -1.0416 -2.8392  1.1815
29118SOL    HW291811   9.876   9.014   6.464  0.7656 -0.5616  0.2433
29119SOL     OW91812   1.151   0.070  10.305 -0.5867 -0.5713  0.3794
29119SOL    HW191813   1.115   0.086  10.391 -0.3237  3.1708 -0.0278
29119SOL    HW291814   1.075   0.055  10.249 -0.9335 -0.6848  0.8783
29120SOL     OW91815   6.029   3.751   7.768  0.0819  0.0100  0.2130
29120SOL    HW191816   6.047   3.814   7.838  2.4520  1.2534 -1.3703
29120SOL    HW291817   5.955   3.789   7.720  0.1179  0.4678  0.5181
29121SOL     OW91818  10.675   8.002   1.243 -0.0361 -0.3835  0.3355
29121SOL    HW191819  10.656   7.940   1.313 -1.5510  0.4440  0.6988
29121SOL    HW291820  10.641   7.960   1.164  1.2628 -1.1127  0.1265
29122SOL     OW91821   1.509   5.834   0.707 -0.9830 -0.7029  0.3591
29122SOL    HW191822   1.559   5.878   0.775 -1.8479  2.1464 -0.7015
29122SOL    HW291823   1.451   5.774   0.755 -0.2088 -0.2317  1.9487
29123SOL     OW91824   7.639   8.901   3.253 -0.3957 -0.0865  0.2508
29123SOL    HW191825   7.654   8.996   3.261  0.2656  0.0266 -1.6711
29123SOL    HW291826   7.676   8.864   3.333 -0.7851  1.2807  1.1046
29124SOL     OW91827  10.194   3.813   4.237  0.1698  0.1164 -0.5861
29124SOL    HW191828  10.196   3.896   4.190  2.3110  0.7608  0.5056
29124SOL    HW291829  10.223   3.835   4.325 -1.5151 -1.4350  0.4354
29125SOL     OW91830   8.823   3.468   7.610  0.2086 -0.2350  0.3161
29125SOL    HW191831   8.821   3.515   7.694 -0.0829  0.2438  0.0431
29125SOL    HW291832   8.800   3.378   7.633  1.6821 -0.4873  0.9834
29126SOL     OW91833   8.503   9.248   6.975  0.4174  0.5668 -0.1315
29126SOL    HW191834   8.532   9.293   6.895 -0.9813 -0.6670 -1.3969
29126SOL    HW291835   8.579   9.197   7.003  0.7871  0.6396 -0.9643
29127SOL     OW91836   5.173   8.615   0.632  0.0483 -0.5238 -0.0857
29127SOL    HW191837   5.223   8.546   0.588  0.9984  0.5203 -0.6938
29127SOL    HW291838   5.183   8.596   0.725 -0.3298 -1.6272 -0.2550
29128SOL     OW91839   6.642   4.032   1.269 -0.6607 -0.1247 -0.1776
29128SOL    HW191840   6.584   4.001   1.339  0.7202 -0.4455  0.8738
29128SOL    HW291841   6.678   3.952   1.231 -1.2708  0.0554 -1.1612
29129SOL     OW91842   7.780   4.287   5.316 -0.0990  0.0707  0.0176
29129SOL    HW191843   7.841   4.214   5.304 -0.1623  0.1888 -1.1522
29129SOL    HW291844   7.744   4.303   5.229 -1.5418  0.2438  0.6148
29130SOL     OW91845   9.985   8.075   7.505  0.1254 -0.6938  0.6498
29130SOL    HW191846   9.944   8.138   7.447  0.3453  0.6268  1.8753
29130SOL    HW291847  10.050   8.125   7.554 -1.0032 -1.3838  3.0137
29131SOL     OW91848   5.165   0.024   8.466 -0.2751 -0.3686 -0.5205
29131SOL    HW191849   5.188   0.117   8.462  1.1623 -0.7326 -1.9197
29131SOL    HW291850   5.085   0.017   8.413 -0.9868  0.2024  0.4477
29132SOL     OW91851   1.223   7.949   4.813 -0.0813  0.4389  0.0620
29132SOL    HW191852   1.253   8.019   4.755 -1.2329  0.6927 -0.2540
29132SOL    HW291853   1.146   7.986   4.857  0.3006 -0.0376  1.1574
29133SOL     OW91854   9.912   5.907   0.901  0.2952 -0.2424  0.3435
29133SOL    HW191855   9.978   5.840   0.922  2.9675  2.6943  2.2003
29133SOL    HW291856   9.941   5.944   0.818  0.5319  0.4747  0.7341
29134SOL     OW91857   1.648   3.562   1.684  0.0158 -0.2445 -0.0332
29134SOL    HW191858   1.564   3.535   1.723  0.5785 -3.4618 -0.7771
29134SOL    HW291859   1.625   3.594   1.597 -0.4617 -1.4809 -0.3873
29135SOL     OW91860   6.440  10.096   4.884 -0.4950 -0.0567 -0.0644
29135SOL    HW191861   6.462  10.189   4.890 -0.8202  0.3899 -3.6824
29135SOL    HW291862   6.351  10.094   4.847 -1.2073 -1.8537  1.5756
29136SOL     OW91863   0.163   9.725   8.174  1.0021 -0.9882  0.5131
29136SOL    HW191864   0.084   9.776   8.188  0.6723 -1.3389 -0.0263
29136SOL    HW291865   0.139   9.659   8.108  1.1197 -2.5155  1.9234
29137SOL     OW91866   8.241   3.111   1.858  0.3626 -0.3583  0.0832
29137SOL    HW191867   8.152   3.147   1.859  0.6866  0.4867  1.4025
29137SOL    HW291868   8.289   3.165   1.795  0.7074  1.2514  1.6600
29138SOL     OW91869  10.658   9.006   0.764 -0.0678 -0.1675 -0.1153
29138SOL    HW191870  10.564   9.013   0.777 -0.4476  2.1616 -3.0443
29138SOL    HW291871  10.668   8.957   0.683  1.2429 -0.1975  0.0413
29139SOL     OW91872   2.112   6.854   2.499  0.1417 -0.3013  0.1525
29139SOL    HW191873   2.154   6.823   2.419  2.2540  0.2868  0.9443
29139SOL    HW291874   2.021   6.828   2.491  0.6138 -1.5358 -1.7783
29140SOL     OW91875   1.540   1.649   7.853 -0.4453 -0.6083 -0.0546
29140SOL    HW191876   1.507   1.736   7.827 -0.9183 -0.8915 -0.4211
29140SOL    HW291877   1.622   1.639   7.805  0.0612 -0.0062  0.6604
29141SOL     OW91878   5.267  10.864   4.190  0.2389 -0.0950  0.0919
29141SOL    HW191879   5.277  10.897   4.279 -1.8485 -0.6998  0.6095
29141SOL    HW291880   5.206  10.926   4.149  0.5541 -0.2751 -0.6608
29142SOL     OW91881   0.543   5.940   6.699 -0.4133  0.2294  0.3413
29142SOL    HW191882   0.622   5.898   6.734 -0.1808  0.1706 -0.2388
29142SOL    HW291883   0.559   5.946   6.605 -0.7357  1.0101  0.3321
29143SOL     OW91884   7.727   9.067   5.627 -0.2589 -0.0280  0.2600
29143SOL    HW191885   7.703   9.024   5.709 -2.1443  1.7215  0.6964
29143SOL    HW291886   7.678   9.020   5.560  0.0336 -0.4390  0.3303
29144SOL     OW91887   8.266   0.589   1.511  0.6281 -0.5103  0.0825
29144SOL    HW191888   8.279   0.615   1.602  2.4119  1.4444 -0.6423
29144SOL    HW291889   8.197   0.523   1.514  0.1874 -0.0251  2.7664
29145SOL     OW91890   8.702  10.079   4.566  0.3536  0.0099 -0.1048
29145SOL    HW191891   8.743   9.995   4.583 -0.4452 -0.3173  0.2831
29145SOL    HW291892   8.744  10.112   4.487  0.8488 -0.6337 -0.1110
29146SOL     OW91893  11.075   0.166   7.011 -0.1746 -0.0458  0.6132
29146SOL    HW191894  11.164   0.200   7.019 -0.9548  1.9646  1.4780
29146SOL    HW291895  11.081   0.075   7.040  1.7146 -0.1790 -0.0801
29147SOL     OW91896  10.716   3.546   5.221  0.1134 -0.0603  0.1094
29147SOL    HW191897  10.714   3.455   5.191 -0.6298 -0.5347  1.5170
29147SOL    HW291898  10.632   3.558   5.265  0.3475  1.2184  0.2347
29148SOL     OW91899   0.416   3.804   1.499  0.4725 -0.0378  0.1725
29148SOL    HW191900   0.397   3.896   1.480  1.5088  0.1463 -0.0304
29148SOL    HW291901   0.424   3.763   1.413 -0.1417 -0.3579  0.2631
29149SOL     OW91902   4.567   9.426   7.270 -0.2546  0.2313 -0.1847
29149SOL    HW191903   4.603   9.510   7.297 -0.1669  0.8956 -2.2041
29149SOL    HW291904   4.643   9.372   7.249 -0.3086  0.8382 -2.1603
29150SOL     OW91905   0.633  11.052   6.506  0.0396  0.5747  0.3011
29150SOL    HW191906   0.657  10.966   6.539 -3.5868 -0.1377  1.5812
29150SOL    HW291907   0.602  11.100   6.583 -2.1642  1.3737 -0.9760
29151SOL     OW91908   1.659   0.411   1.264 -0.0677 -0.0152 -0.1574
29151SOL    HW191909   1.743   0.455   1.255 -0.0718  0.1165  0.4286
29151SOL    HW291910   1.596   0.481   1.281  0.1953 -0.3366  2.6169
29152SOL     OW91911   9.949   9.005   4.598 -0.0371 -0.1698  0.5833
29152SOL    HW191912   9.897   8.925   4.595 -1.4919  0.7548 -0.4395
29152SOL    HW291913   9.886   9.075   4.580  1.4470  1.0777  0.0130
29153SOL     OW91914   4.834   6.934   0.344 -0.1361  0.5319  0.5014
29153SOL    HW191915   4.828   6.887   0.427  0.3675  0.1912  0.3469
29153SOL    HW291916   4.805   7.023   0.366 -3.3147 -0.3529  0.2999
29154SOL     OW91917   6.932   3.621   3.479  0.2822  0.1599  0.5793
29154SOL    HW191918   6.963   3.542   3.523  2.0024  1.3584  1.6333
29154SOL    HW291919   7.007   3.651   3.428 -0.4804  0.9148 -0.1229
29155SOL     OW91920   5.237   0.327   9.615 -0.8754 -0.2634  0.5350
29155SOL    HW191921   5.330   0.342   9.631 -0.5912 -1.4247  0.1240
29155SOL    HW291922   5.210   0.268   9.685 -1.1886 -0.2845  0.3997
29156SOL     OW91923   4.717   3.234   8.101  0.0115 -0.1562  0.5558
29156SOL    HW191924   4.672   3.290   8.164  0.0095  2.0543 -1.2923
29156SOL    HW291925   4.774   3.293   8.052  2.2713 -2.2788  0.4209
29157SOL     OW91926   2.625   4.519   5.360 -0.0889 -0.3409 -0.3293
29157SOL    HW191927   2.530   4.516   5.349 -0.0524 -0.2669 -0.6837
29157SOL    HW291928   2.639   4.507   5.454 -0.5584  1.8769  0.0601
29158SOL     OW91929  10.847   7.351   2.438  0.2215  0.2176 -0.1606
29158SOL    HW191930  10.777   7.333   2.376  1.4521  0.1869 -1.6318
29158SOL    HW291931  10.857   7.271   2.489  0.9994 -0.7996 -1.8377
29159SOL     OW91932   2.179   6.471   4.791  0.7621 -0.5029  0.2288
29159SOL    HW191933   2.268   6.469   4.757  1.0961 -1.7337  1.0921
29159SOL    HW291934   2.141   6.387   4.765 -0.0337 -0.1482  0.1861
29160SOL     OW91935   0.924   6.178   1.172  0.2952  0.3845 -0.4633
29160SOL    HW191936   1.011   6.215   1.187  1.1584 -0.2680 -3.2321
29160SOL    HW291937   0.930   6.087   1.200 -0.1745  0.8348  1.2317
29161SOL     OW91938   2.957   8.830   9.301 -0.1618  0.6107  0.3449
29161SOL    HW191939   3.042   8.797   9.328 -0.4894 -0.9610 -0.4130
29161SOL    HW291940   2.948   8.914   9.346  1.3703  0.3628  1.1699
29162SOL     OW91941   5.856  10.096   7.854 -0.0667  0.4130  0.2391
29162SOL    HW191942   5.871  10.078   7.947  1.0878  1.5864  0.3126
29162SOL    HW291943   5.837  10.190   7.850  1.4686  0.7357 -0.8275
29163SOL     OW91944   9.943   5.271   8.621 -0.9631 -0.2298 -0.2628
29163SOL    HW191945   9.991   5.190   8.602 -1.1326  0.0842 -2.2073
29163SOL    HW291946   9.877   5.244   8.684  0.1246 -1.2117  0.5130
29164SOL     OW91947   7.018   4.441   9.706  0.5627 -0.1699  0.1691
29164SOL    HW191948   7.085   4.508   9.697 -0.6945  1.2408  0.7895
29164SOL    HW291949   6.972   4.441   9.622 -0.4998  1.0048  0.7066
29165SOL     OW91950   1.101   4.091   2.819  0.1872 -0.0212  0.2320
29165SOL    HW191951   1.135   4.089   2.729 -0.4370 -0.4566  0.0019
29165SOL    HW291952   1.061   4.178   2.827 -1.6001 -0.7141 -0.6220
29166SOL     OW91953   6.272   2.655  10.010  0.6941 -0.2308 -0.6215
29166SOL    HW191954   6.269   2.573  10.058 -0.5481 -0.2712 -0.7418
29166SOL    HW291955   6.315   2.634   9.927  0.1298 -0.8234 -0.7662
29167SOL     OW91956   4.689   1.260   9.566 -0.0867 -0.7469  0.0979
29167SOL    HW191957   4.752   1.200   9.526  0.2050 -0.1339 -0.3894
29167SOL    HW291958   4.740   1.338   9.587 -0.7595 -0.0516 -0.7357
29168SOL     OW91959   5.343   9.122   6.003  1.0633 -0.4408 -0.5150
29168SOL    HW191960   5.427   9.089   6.035  1.6900  1.2220 -0.3469
29168SOL    HW291961   5.278   9.083   6.061  2.0692  1.5126  2.1183
29169SOL     OW91962   4.983   8.398   5.975 -0.0053  0.2934 -0.3555
29169SOL    HW191963   4.931   8.364   5.902  0.7734  2.5713 -2.0818
29169SOL    HW291964   5.004   8.488   5.950  1.2912  0.7913  2.1831
29170SOL     OW91965   9.990   2.784   5.545  0.3813 -0.2676  0.1743
29170SOL    HW191966   9.995   2.845   5.471  0.6172 -0.6595 -0.1397
29170SOL    HW291967  10.056   2.816   5.607  0.1676  0.0746  0.2294
29171SOL     OW91968   1.636   5.491   7.859  0.3812 -0.3419  0.6666
29171SOL    HW191969   1.591   5.502   7.943 -1.0780 -1.2561  0.0449
29171SOL    HW291970   1.705   5.427   7.877  0.0202 -0.6062  1.1449
29172SOL     OW91971   8.846  10.260   6.420 -0.3871 -0.4315  0.2414
29172SOL    HW191972   8.841  10.192   6.487 -1.2482  1.0332  1.7596
29172SOL    HW291973   8.763  10.307   6.428  0.5524  1.3812 -0.0659
29173SOL     OW91974   7.065   1.765   2.765  0.0527 -0.2786  0.5926
29173SOL    HW191975   7.030   1.830   2.826  0.2223  0.2358  0.1483
29173SOL    HW291976   6.997   1.756   2.699  0.5407  0.3679 -0.0122
29174SOL     OW91977   0.478   2.268   8.972 -0.6153 -0.6074 -0.1027
29174SOL    HW191978   0.458   2.294   8.881 -0.4636  0.7462  0.2251
29174SOL    HW291979   0.563   2.226   8.966 -0.1974  0.2682 -0.4759
29175SOL     OW91980   5.851   7.370   4.529  0.0731 -0.2188  0.6088
29175SOL    HW191981   5.844   7.322   4.612 -0.5278 -1.0565  0.0894
29175SOL    HW291982   5.906   7.446   4.550  0.2552 -0.6261  1.6770
29176SOL     OW91983   0.222   5.823   8.084  0.8170  0.0264 -0.2558
29176SOL    HW191984   0.236   5.895   8.023  0.1765  1.2960  1.0342
29176SOL    HW291985   0.292   5.832   8.149  0.2966 -0.0450  0.3271
29177SOL     OW91986   4.303   8.196   4.139  0.2207  0.0779 -0.2377
29177SOL    HW191987   4.227   8.174   4.085 -1.4805  0.6600  1.7901
29177SOL    HW291988   4.282   8.161   4.225  1.8539  1.0663  0.6099
29178SOL     OW91989   4.882   6.604   6.708  0.1533 -0.5443  0.2122
29178SOL    HW191990   4.950   6.605   6.776  0.4094 -0.8568 -0.0328
29178SOL    HW291991   4.894   6.520   6.663 -0.1094 -0.4085 -0.1206
29179SOL     OW91992   2.724   5.635   6.871 -0.1534  0.0983 -0.7053
29179SOL    HW191993   2.658   5.569   6.893  0.5648 -0.5637 -0.4882
29179SOL    HW291994   2.718   5.643   6.775  0.5000 -1.1046 -0.8626
29180SOL     OW91995   6.351   3.673   2.130 -0.1104  0.4011 -0.1249
29180SOL    HW191996   6.271   3.634   2.094  0.6882 -0.6896 -0.7813
29180SOL    HW291997   6.339   3.767   2.118 -0.7056  0.1761 -1.4883
29181SOL     OW91998   7.703  10.609   2.296  0.4127 -0.0860  0.0906
29181SOL    HW191999   7.626  10.653   2.261  0.4396 -0.0492  0.0785
29181SOL    HW292000   7.668  10.549   2.362  0.1750 -1.3725 -1.1521
29182SOL     OW92001  10.597   8.245   1.350  0.3717 -0.2632  0.4083
29182SOL    HW192002  10.624   8.284   1.434  1.0044 -0.3913  0.2735
29182SOL    HW292003  10.646   8.163   1.346  1.5671  0.4706 -0.7885
29183SOL     OW92004   8.588   3.613   9.528 -0.5700 -0.3881  0.2236
29183SOL    HW192005   8.538   3.629   9.608 -0.8011 -0.0656  0.0192
29183SOL    HW292006   8.564   3.524   9.502 -0.8410 -0.3310  0.2717
29184SOL     OW92007   2.576   4.423   3.859  0.0216 -0.6989 -0.0514
29184SOL    HW192008   2.481   4.434   3.848  0.1613  0.0442 -0.5867
29184SOL    HW292009   2.607   4.508   3.891  0.2119 -1.6046  2.3575
29185SOL     OW92010   0.932   8.313   7.756  0.4317  0.8421 -0.5571
29185SOL    HW192011   0.846   8.272   7.743  0.2734  0.3271  1.6653
29185SOL    HW292012   0.913   8.406   7.763  0.1851  0.8246 -0.9401
29186SOL     OW92013   0.922   3.371  10.744 -0.3988 -0.2445 -0.1568
29186SOL    HW192014   0.860   3.393  10.674 -0.1733 -0.5723 -0.4689
29186SOL    HW292015   0.887   3.290  10.782 -0.0344 -0.5641 -0.4964
29187SOL     OW92016  10.214   3.129   3.466  0.0923  0.3182 -0.1306
29187SOL    HW192017  10.240   3.221   3.469  2.5407 -0.1786 -2.1339
29187SOL    HW292018  10.288   3.085   3.423 -3.0568 -1.7817 -4.0854
29188SOL     OW92019   1.845   6.648   2.215  0.0732  0.1776 -0.0299
29188SOL    HW192020   1.932   6.643   2.175 -0.6338  0.3272 -1.6876
29188SOL    HW292021   1.809   6.559   2.207  0.3570 -0.0833  1.3813
29189SOL     OW92022   0.905   7.821   2.500 -0.0451  0.4169 -0.2536
29189SOL    HW192023   0.982   7.821   2.557 -0.2606  1.0621  0.0514
29189SOL    HW292024   0.840   7.874   2.548 -0.5615  0.1607 -0.6594
29190SOL     OW92025   1.724   7.474  10.211 -0.0961 -0.1060 -0.2784
29190SOL    HW192026   1.797   7.501  10.156  0.1478  0.3948  0.2851
29190SOL    HW292027   1.759   7.476  10.300 -1.4128  2.3962  0.2628
29191SOL     OW92028   0.705   2.183   6.075  0.2436 -0.1996  0.4144
29191SOL    HW192029   0.627   2.174   6.020  0.0151 -2.1526  0.9914
29191SOL    HW292030   0.776   2.200   6.013 -0.1421 -1.5743 -0.4498
29192SOL     OW92031   2.090   5.309  10.301  0.3081 -0.4893 -0.2045
29192SOL    HW192032   2.051   5.223  10.314  0.6909 -0.8459 -1.3189
29192SOL    HW292033   2.175   5.291  10.261  1.1894  0.3261  1.2215
29193SOL     OW92034   0.487   3.657   2.556 -0.0318  0.0731 -0.1012
29193SOL    HW192035   0.468   3.658   2.462  1.3416  1.6831 -0.3984
29193SOL    HW292036   0.458   3.742   2.588 -0.6511 -0.5275  0.9961
29194SOL     OW92037   0.716   9.023   1.254  0.2700 -0.0236 -0.2100
29194SOL    HW192038   0.791   9.078   1.229  1.5075 -2.0413 -1.2504
29194SOL    HW292039   0.755   8.953   1.307 -0.8152 -1.2675 -1.0020
29195SOL     OW92040   8.242   0.482   5.680 -0.6162 -0.0584 -0.3634
29195SOL    HW192041   8.300   0.551   5.713 -0.2004 -0.4527 -0.2512
29195SOL    HW292042   8.154   0.519   5.687 -0.4424  0.2664  0.1814
29196SOL     OW92043   4.864   1.868   0.412  0.2630  0.3253 -0.1627
29196SOL    HW192044   4.946   1.820   0.426 -0.3302 -0.9190 -0.7390
29196SOL    HW292045   4.885   1.933   0.345  1.2959  1.4727  1.2132
29197SOL     OW92046   8.163   5.359   7.466  0.0464 -0.5157 -0.6145
29197SOL    HW192047   8.137   5.268   7.480 -0.0800 -0.3925 -0.0159
29197SOL    HW292048   8.259   5.357   7.463  0.0584 -0.6186 -0.2079
29198SOL     OW92049   8.225   2.014   4.826  0.3912 -0.2849  0.0141
29198SOL    HW192050   8.197   1.968   4.905 -1.1422  1.3128  0.4714
29198SOL    HW292051   8.144   2.030   4.777  0.6177  2.7461  0.4040
29199SOL     OW92052   7.569   8.278   8.079 -0.6382 -0.6183  0.3279
29199SOL    HW192053   7.622   8.209   8.038 -0.5052 -0.2576 -0.1255
29199SOL    HW292054   7.487   8.277   8.030 -0.2448  0.2375 -0.3994
29200SOL     OW92055   7.988   7.944   9.641 -0.0491 -0.3458  0.2453
29200SOL    HW192056   8.005   7.877   9.708 -0.2938 -0.5102  0.1425
29200SOL    HW292057   8.043   7.918   9.567 -1.2211 -1.2504 -0.3340
29201SOL     OW92058   5.500   2.839   0.633  0.2005 -0.0903  0.4795
29201SOL    HW192059   5.515   2.760   0.684  1.9715 -0.1062 -0.0063
29201SOL    HW292060   5.514   2.812   0.542  0.1161  0.6343  0.2438
29202SOL     OW92061   1.534   2.401   1.416 -0.1597  0.1038 -0.1111
29202SOL    HW192062   1.601   2.333   1.424  1.1188  1.1284 -1.6203
29202SOL    HW292063   1.452   2.355   1.433  0.6999 -1.7346 -0.6555
29203SOL     OW92064   8.867   9.201   4.169  0.6486 -0.2587 -0.6844
29203SOL    HW192065   8.956   9.170   4.188  2.0221  2.7933 -1.5827
29203SOL    HW292066   8.861   9.285   4.214 -2.0183 -0.6265 -0.2311
29204SOL     OW92067  10.588   1.795   8.042  0.2530  0.1595  0.0714
29204SOL    HW192068  10.532   1.824   7.970 -0.4122  1.5653  1.1085
29204SOL    HW292069  10.619   1.708   8.015 -2.1909 -0.5526 -0.6793
29205SOL     OW92070   4.215  10.640   9.399 -0.0065 -0.0981  0.5234
29205SOL    HW192071   4.125  10.609   9.383  0.5798 -0.9793 -1.3497
29205SOL    HW292072   4.205  10.715   9.457 -1.8204 -1.2887  1.8544
29206SOL     OW92073   8.211   2.357   1.215 -0.3052  0.6865  0.7800
29206SOL    HW192074   8.161   2.398   1.285  0.2892  1.1864  0.9242
29206SOL    HW292075   8.293   2.406   1.212 -0.2442  0.5588 -0.1463
29207SOL     OW92076  10.702   1.175   0.059 -0.3883  0.5613 -0.4976
29207SOL    HW192077  10.791   1.162   0.091 -0.7244 -0.0900  0.2124
29207SOL    HW292078  10.711   1.185  -0.036  0.3304 -0.6918 -0.5778
29208SOL     OW92079   4.102   7.718   2.051 -0.0545 -0.2325  0.3880
29208SOL    HW192080   4.088   7.634   2.095  0.7174 -0.6145 -0.0941
29208SOL    HW292081   4.018   7.736   2.009 -0.9079  0.2746  2.2120
29209SOL     OW92082   8.636   2.048   0.370  0.2105  0.3596 -0.2446
29209SOL    HW192083   8.614   2.116   0.307  1.0512  0.0509 -0.8903
29209SOL    HW292084   8.672   1.977   0.317  0.4768 -0.0992  0.5364
29210SOL     OW92085   1.002   0.166   7.966  0.5733  0.0922 -0.1089
29210SOL    HW192086   1.073   0.105   7.985  0.6562  0.4208  0.7037
29210SOL    HW292087   0.924   0.125   8.004  0.6701  0.5840  0.6469
29211SOL     OW92088   2.801   0.730   4.646 -0.0373  0.3073  0.2236
29211SOL    HW192089   2.861   0.699   4.714  0.3260  1.3515  0.4017
29211SOL    HW292090   2.739   0.658   4.633  1.3052 -0.8307 -0.0318
29212SOL     OW92091   6.250   5.446   1.468  0.4472 -0.1472 -0.1019
29212SOL    HW192092   6.339   5.429   1.438  0.2582  1.2743 -1.6004
29212SOL    HW292093   6.218   5.360   1.496  2.6245 -0.5110  1.5971
29213SOL     OW92094  10.867   3.309   5.478 -0.4756  0.2281 -0.1648
29213SOL    HW192095  10.784   3.263   5.486 -1.0063  1.2424  0.2997
29213SOL    HW292096  10.927   3.244   5.439 -2.1129  0.2316 -2.9558
29214SOL     OW92097   3.390   3.008   7.474 -0.0538  0.1040  0.1109
29214SOL    HW192098   3.324   2.941   7.487  1.2410 -1.4075 -0.7423
29214SOL    HW292099   3.427   3.024   7.560 -2.8439  2.5506  1.0543
29215SOL     OW92100   0.487   9.748   1.526  0.0646 -0.2664 -0.2108
29215SOL    HW192101   0.508   9.688   1.598 -1.3342 -0.7954 -0.1997
29215SOL    HW292102   0.518   9.833   1.556  0.2277 -0.6246  0.6797
29216SOL     OW92103   8.537   3.572   2.003 -0.3658 -0.3216 -0.4359
29216SOL    HW192104   8.619   3.609   2.034 -1.0900 -0.5219  1.8992
29216SOL    HW292105   8.556   3.543   1.914  1.5914  1.1390 -0.5667
29217SOL     OW92106   9.799   7.645   9.105 -0.3623  0.7128  0.1962
29217SOL    HW192107   9.728   7.708   9.113 -0.2809  0.7573  0.5931
29217SOL    HW292108   9.853   7.659   9.183 -1.5391 -1.3081  1.4924
29218SOL     OW92109   2.956   4.013  10.625  0.5658  0.0768  0.1352
29218SOL    HW192110   2.978   4.081  10.689  0.1392 -0.3400  0.7304
29218SOL    HW292111   2.928   3.939  10.678  0.5352 -0.3889 -0.5308
29219SOL     OW92112   3.654   5.385   5.357  0.2169 -0.1582 -0.2368
29219SOL    HW192113   3.708   5.372   5.278  1.2931  1.3166  0.2149
29219SOL    HW292114   3.684   5.317   5.417  1.3627  0.4193 -0.1251
29220SOL     OW92115   8.143   7.486   3.566  0.7845  0.0034 -0.3361
29220SOL    HW192116   8.144   7.537   3.647 -1.5526  3.6963 -2.3585
29220SOL    HW292117   8.086   7.412   3.586 -0.4502  1.2902  1.2435
29221SOL     OW92118   0.656   2.297   9.974 -0.5322 -0.2714 -0.3841
29221SOL    HW192119   0.723   2.229   9.984 -0.4722 -0.3259 -1.1186
29221SOL    HW292120   0.689   2.352   9.903 -0.5736  0.5386  0.2076
29222SOL     OW92121   0.313   9.687   2.002 -1.0811 -0.1561 -0.1995
29222SOL    HW192122   0.350   9.732   2.078 -2.1836  0.6780 -0.1358
29222SOL    HW292123   0.235   9.643   2.036 -2.7241  1.8478 -1.1933
29223SOL     OW92124  10.705   4.268   3.636 -0.4725 -0.4192  0.7658
29223SOL    HW192125  10.727   4.176   3.652  3.8390  0.3929  0.6648
29223SOL    HW292126  10.692   4.305   3.723 -1.0485 -0.8434  0.8683
29224SOL     OW92127   9.169   5.360   6.642 -0.3902  0.0032 -0.1386
29224SOL    HW192128   9.082   5.333   6.671 -0.9769  2.2185  0.3206
29224SOL    HW292129   9.189   5.302   6.569 -1.0471 -2.3625  1.4183
29225SOL     OW92130   4.071   3.930   9.311  0.0001  0.3022  0.1136
29225SOL    HW192131   3.981   3.897   9.303  0.4135 -1.4621  1.9438
29225SOL    HW292132   4.111   3.909   9.227 -0.7717 -0.6645 -0.0368
29226SOL     OW92133   4.618  10.632   1.119  0.3427 -0.8540  0.3493
29226SOL    HW192134   4.608  10.628   1.024 -0.1298 -1.7697  0.4351
29226SOL    HW292135   4.595  10.723   1.141  0.9728 -0.4808 -0.4566
29227SOL     OW92136   9.489   5.907   5.163 -0.0573 -0.1052 -0.4515
29227SOL    HW192137   9.476   5.959   5.242  3.6982  0.9677 -0.3371
29227SOL    HW292138   9.467   5.967   5.091  0.0696  0.1917 -0.2471
29228SOL     OW92139   7.673   8.623   2.197 -0.1654  0.1654 -0.1017
29228SOL    HW192140   7.722   8.587   2.124 -1.1491 -1.7504  0.1040
29228SOL    HW292141   7.638   8.706   2.165 -0.6334 -0.6650 -1.8193
29229SOL     OW92142   1.577  10.416   8.676  0.4765 -0.4576  0.1838
29229SOL    HW192143   1.671  10.431   8.666  0.2744  0.1354 -1.1146
29229SOL    HW292144   1.565  10.324   8.649  0.5247 -0.1413 -0.9630
29230SOL     OW92145   9.633   9.466   7.918  0.4812 -0.1787  0.1440
29230SOL    HW192146   9.583   9.530   7.969 -0.8689  0.2363 -1.6156
29230SOL    HW292147   9.723   9.499   7.920  0.5125 -0.2131  2.2382
29231SOL     OW92148   2.545   9.509   6.031  0.3477  0.6436  0.3700
29231SOL    HW192149   2.591   9.426   6.048 -1.8886 -0.3766  1.9585
29231SOL    HW292150   2.608   9.561   5.982  2.3423 -1.4904  0.4597
29232SOL     OW92151   3.332   7.831   7.715  0.4040 -0.6395  0.4566
29232SOL    HW192152   3.395   7.850   7.646 -0.6567  0.3636 -0.2731
29232SOL    HW292153   3.307   7.740   7.700  0.4126 -0.5221 -0.3128
29233SOL     OW92154  10.240   7.968   4.965  0.1379 -0.0273  0.3427
29233SOL    HW192155  10.310   8.010   4.916 -0.6938  0.2943 -0.5961
29233SOL    HW292156  10.249   7.875   4.946  1.3312 -0.1937  1.5786
29234SOL     OW92157   4.301   1.332   5.869  0.3162  0.0240  0.2067
29234SOL    HW192158   4.314   1.347   5.962 -5.1938 -0.8473  1.4547
29234SOL    HW292159   4.239   1.399   5.842 -0.0558 -1.1975 -2.2529
29235SOL     OW92160  10.702   9.874   8.198  1.0928 -0.6321 -0.2609
29235SOL    HW192161  10.709   9.821   8.277  2.4843 -1.3686 -0.8342
29235SOL    HW292162  10.783   9.855   8.149  1.0347  1.0585 -1.0893
29236SOL     OW92163   6.372   8.663   7.885 -0.3937 -0.4928 -0.1301
29236SOL    HW192164   6.356   8.574   7.915 -0.6192  0.3577  2.4708
29236SOL    HW292165   6.287   8.706   7.890  0.2623  0.7139  1.8802
29237SOL     OW92166   5.513   1.120   0.661 -0.2266  0.7474  0.0790
29237SOL    HW192167   5.421   1.118   0.690 -0.1897  2.0361  0.3225
29237SOL    HW292168   5.508   1.142   0.568 -0.2560 -1.6592 -0.5503
29238SOL     OW92169   6.721   3.149   1.665  0.4536 -0.4798  0.2191
29238SOL    HW192170   6.682   3.171   1.750  1.7463  2.0205  0.2765
29238SOL    HW292171   6.799   3.098   1.686  1.8022  1.6802  0.7617
29239SOL     OW92172   6.136   2.132   8.640 -0.3185  0.3891 -0.0114
29239SOL    HW192173   6.116   2.071   8.711  0.9124 -1.1339 -0.9162
29239SOL    HW292174   6.104   2.089   8.561  2.1686 -0.0428 -0.9050
29240SOL     OW92175   7.629   0.392   9.907  0.2107 -0.6050  0.6568
29240SOL    HW192176   7.698   0.387   9.842 -0.3305 -0.7806  0.0865
29240SOL    HW292177   7.627   0.484   9.933 -1.2197  0.0172 -1.4152
29241SOL     OW92178   3.921   4.906   8.517 -0.0124 -0.2963 -0.2810
29241SOL    HW192179   3.859   4.950   8.575 -0.6170 -0.6888 -0.6250
29241SOL    HW292180   4.006   4.922   8.557 -0.4158 -0.5105  0.6886
29242SOL     OW92181   6.673  10.848   0.048  0.1521 -0.7723  0.8855
29242SOL    HW192182   6.736  10.916   0.071  2.1302 -2.6945  1.6233
29242SOL    HW292183   6.626  10.882  -0.028  0.1369  1.8814  1.9929
29243SOL     OW92184   8.259   6.011   6.215 -0.4343  0.1445  0.0254
29243SOL    HW192185   8.335   5.962   6.247 -1.3789 -0.9051  0.7233
29243SOL    HW292186   8.228   5.961   6.139 -0.3511  0.6523 -0.3492
29244SOL     OW92187   1.982   3.689   5.929 -0.6105 -0.2486  0.5583
29244SOL    HW192188   1.901   3.710   5.883 -0.9650  0.5290  1.5008
29244SOL    HW292189   1.963   3.710   6.021  0.7523  0.2263  0.7511
29245SOL     OW92190   4.527   9.506   0.448 -0.0824 -0.3131  0.0813
29245SOL    HW192191   4.545   9.462   0.366 -2.8006  0.0620 -0.8115
29245SOL    HW292192   4.492   9.438   0.506 -1.9503  0.1024 -0.4798
29246SOL     OW92193   8.220  10.262   1.042 -0.7728  0.3312  0.0256
29246SOL    HW192194   8.255  10.279   1.130  1.1090  1.8857 -0.9441
29246SOL    HW292195   8.295  10.273   0.984 -1.6527 -2.1079 -1.7008
29247SOL     OW92196   6.995   1.398   5.100 -0.3255  0.9026 -0.1910
29247SOL    HW192197   7.014   1.391   5.006  1.4098  1.3488  0.0962
29247SOL    HW292198   6.972   1.490   5.113  0.1867  1.0144 -0.0599
29248SOL     OW92199   4.092  11.014   3.943  0.4069  0.5033 -0.2852
29248SOL    HW192200   4.179  10.977   3.931 -0.0597 -1.4572  1.7849
29248SOL    HW292201   4.034  10.955   3.895 -0.0246  0.3510  0.4095
29249SOL     OW92202   2.573   9.660  10.454 -0.1201  0.1195 -0.3952
29249SOL    HW192203   2.647   9.648  10.395 -0.1175  0.8218 -0.5396
29249SOL    HW292204   2.496   9.660  10.397 -0.3951 -2.0246 -0.1237
29250SOL     OW92205  10.559   0.723   9.641 -0.0658  0.1946 -0.7001
29250SOL    HW192206  10.601   0.764   9.716  0.9397  1.2919 -1.8309
29250SOL    HW292207  10.466   0.746   9.650 -0.2732 -1.0393  1.0265
29251SOL     OW92208   0.725   7.042   7.555 -0.4035  0.3417 -0.1849
29251SOL    HW192209   0.633   7.066   7.544 -0.0574  1.1389 -1.5152
29251SOL    HW292210   0.761   7.110   7.612 -0.2929  0.9436 -0.9466
29252SOL     OW92211  10.585   8.481   7.691 -0.2046 -0.8351  0.2544
29252SOL    HW192212  10.586   8.410   7.756  0.1020 -0.2861  0.8541
29252SOL    HW292213  10.563   8.559   7.741  1.2750 -0.1784 -0.0731
29253SOL     OW92214   0.472   0.922   1.048 -0.3418  0.1220 -0.8707
29253SOL    HW192215   0.440   0.897   1.135 -1.6527  1.7913 -0.8196
29253SOL    HW292216   0.511   0.842   1.013 -4.3156 -2.0882 -0.8289
29254SOL     OW92217   5.401  10.512   0.949  0.4269 -0.3755 -0.5673
29254SOL    HW192218   5.381  10.564   1.027  0.7730 -0.4274 -0.4416
29254SOL    HW292219   5.460  10.567   0.898 -1.2905  0.4606 -1.7348
29255SOL     OW92220   3.742   5.613   1.713 -0.3414  0.8562  0.0706
29255SOL    HW192221   3.740   5.643   1.804 -0.5547  1.1831 -0.0356
29255SOL    HW292222   3.652   5.585   1.695 -0.6050  1.9534 -0.4061
29256SOL     OW92223   4.396   5.938  10.807 -0.1476 -0.0104  0.0160
29256SOL    HW192224   4.332   5.878  10.845 -2.4064  0.8166 -2.1887
29256SOL    HW292225   4.439   5.887  10.739 -0.1407  0.1069 -0.0676
29257SOL     OW92226  10.822  10.255   2.241 -0.4673  0.3523  0.2317
29257SOL    HW192227  10.749  10.291   2.292 -0.7476  0.0250  0.0607
29257SOL    HW292228  10.849  10.177   2.288 -0.9897 -0.1754 -0.3377
29258SOL     OW92229   7.626   8.237   1.479 -0.4156 -0.8535  0.0918
29258SOL    HW192230   7.651   8.316   1.431 -1.2344 -1.3144 -1.1291
29258SOL    HW292231   7.707   8.209   1.523 -0.2682  1.0217  1.1326
29259SOL     OW92232   6.187   5.912   5.427 -0.3636  0.0663  0.9721
29259SOL    HW192233   6.123   5.845   5.452  0.5221 -0.8479  0.8390
29259SOL    HW292234   6.268   5.864   5.414 -0.2331  0.7901 -1.4876
29260SOL     OW92235   1.451   2.646   6.598  1.0479  0.0753 -0.1458
29260SOL    HW192236   1.429   2.576   6.537 -0.4778 -1.5307  2.0798
29260SOL    HW292237   1.370   2.662   6.647  1.4712  3.1154 -0.2283
29261SOL     OW92238   8.544   4.693   5.081 -0.3569  0.1919  0.6596
29261SOL    HW192239   8.514   4.708   4.992 -0.5553  0.5515  0.7866
29261SOL    HW292240   8.622   4.747   5.090 -0.2012 -0.0243  0.6314
29262SOL     OW92241   6.930   6.007   5.714 -0.0546  0.1829  0.5679
29262SOL    HW192242   7.014   6.050   5.729  0.4060 -0.9235  1.2520
29262SOL    HW292243   6.921   5.945   5.786 -0.4625 -1.2173 -0.6347
29263SOL     OW92244  10.023   8.168   1.715 -0.0414  0.2704 -0.5582
29263SOL    HW192245   9.957   8.150   1.648 -0.8536  2.3368 -0.3890
29263SOL    HW292246  10.102   8.126   1.682 -1.1349 -1.2503 -1.3581
29264SOL     OW92247   4.235   9.918   9.367  0.2991 -0.0213  0.1512
29264SOL    HW192248   4.174   9.977   9.411 -0.8460 -0.0344 -1.3589
29264SOL    HW292249   4.287   9.975   9.311 -1.2402 -0.4510 -1.8024
29265SOL     OW92250   5.890   3.881   7.399 -0.8721  0.6329  0.5252
29265SOL    HW192251   5.862   3.883   7.308 -0.6327  0.3919  0.4437
29265SOL    HW292252   5.844   3.806   7.437 -0.3900  0.2666  0.4042
29266SOL     OW92253   5.661   6.723  10.813 -0.0483 -0.6655  0.4133
29266SOL    HW192254   5.680   6.705  10.721  0.0273 -1.7310  0.6274
29266SOL    HW292255   5.636   6.639  10.850 -1.0408 -0.0693  1.1512
29267SOL     OW92256   8.586   3.854   2.752  0.4516  0.0584 -0.1745
29267SOL    HW192257   8.598   3.943   2.719 -1.9765 -0.3000 -2.3491
29267SOL    HW292258   8.537   3.864   2.833 -0.5044  0.6957 -0.8196
29268SOL     OW92259   8.670   4.428   5.152 -0.5629 -0.1391  0.0545
29268SOL    HW192260   8.727   4.468   5.087  0.4560 -0.7078  0.5818
29268SOL    HW292261   8.601   4.493   5.166 -0.6625  0.1082 -1.3869
29269SOL     OW92262   0.799   3.239   3.248  0.2617 -0.6750  0.0122
29269SOL    HW192263   0.790   3.333   3.263 -0.2045 -0.4057 -1.7309
29269SOL    HW292264   0.710   3.205   3.252  0.3620 -0.9414  0.0259
29270SOL     OW92265   7.044  11.032  10.541  0.3615 -0.2277  0.2819
29270SOL    HW192266   7.098  10.980  10.601  0.3528 -1.2616 -0.5787
29270SOL    HW292267   7.021  11.110  10.591  1.6393 -0.3382  1.0825
29271SOL     OW92268   7.021   7.373   9.241 -0.0669  0.0479  0.4622
29271SOL    HW192269   6.955   7.308   9.216  0.4143  0.7022 -2.9107
29271SOL    HW292270   7.003   7.390   9.334 -2.7774 -1.8790  0.4149
29272SOL     OW92271   7.400   2.112   7.924  0.1227  0.2055 -0.1614
29272SOL    HW192272   7.327   2.161   7.962 -0.5341  0.1107 -1.2687
29272SOL    HW292273   7.402   2.139   7.832  0.2177 -1.2655 -0.6213
29273SOL     OW92274   4.938   0.338  10.082  0.3061 -0.5197 -0.2010
29273SOL    HW192275   4.899   0.414  10.126  0.0830 -0.6802 -0.1210
29273SOL    HW292276   4.894   0.263  10.120  0.9287 -0.7266  0.1316
29274SOL     OW92277   7.813   1.919   3.487 -0.4559  0.0844  0.2570
29274SOL    HW192278   7.845   1.833   3.458 -2.4599 -0.5689 -0.2064
29274SOL    HW292279   7.884   1.979   3.466  0.5658 -1.2940 -0.4309
29275SOL     OW92280   7.458   4.306   6.751  0.0672 -0.0740 -0.1013
29275SOL    HW192281   7.483   4.392   6.715 -0.8989  0.0581 -0.5121
29275SOL    HW292282   7.441   4.323   6.843  1.3872 -0.1570  0.1713
29276SOL     OW92283   2.459   1.765  10.649  0.0865 -0.1128 -0.1155
29276SOL    HW192284   2.515   1.730  10.718 -0.2956  0.8708  0.7148
29276SOL    HW292285   2.457   1.859  10.665  0.9364  0.3058 -2.1750
29277SOL     OW92286   4.944   2.336   8.162 -0.3172 -0.1016  0.0376
29277SOL    HW192287   4.932   2.264   8.224 -0.6194 -0.9045 -0.9221
29277SOL    HW292288   4.855   2.359   8.134 -0.1381 -0.5037 -0.9126
29278SOL     OW92289   1.501   3.158   4.486 -0.1341  0.0632  0.1439
29278SOL    HW192290   1.565   3.227   4.503 -0.1898 -0.1829  1.4460
29278SOL    HW292291   1.439   3.197   4.425  0.3077  0.8780  0.2033
29279SOL     OW92292   7.671   7.417  10.585 -0.1171 -0.4771 -0.4873
29279SOL    HW192293   7.610   7.419  10.512 -0.7068 -2.1088 -0.0779
29279SOL    HW292294   7.744   7.363  10.554  0.9503  1.0431 -0.7929
29280SOL     OW92295   6.254   1.766   8.717 -0.6759  0.5147 -0.0873
29280SOL    HW192296   6.311   1.758   8.641 -2.5104 -0.4879 -1.4351
29280SOL    HW292297   6.247   1.677   8.751 -0.2064  0.8868  1.0611
29281SOL     OW92298   5.440   5.548   6.938  0.2690 -0.3794  0.9068
29281SOL    HW192299   5.484   5.487   6.997 -0.8579  0.0362  2.2228
29281SOL    HW292300   5.481   5.633   6.956  0.3526 -0.3599  0.6308
29282SOL     OW92301   2.531   4.728   2.669 -0.1539  0.4214  0.1221
29282SOL    HW192302   2.612   4.693   2.705 -0.4262 -1.0142 -0.5967
29282SOL    HW292303   2.514   4.807   2.721  0.6469 -0.3359  1.5823
29283SOL     OW92304   7.462   8.531   5.275  0.1223 -0.3145  0.0428
29283SOL    HW192305   7.367   8.538   5.285  0.1864 -0.9174  1.2753
29283SOL    HW292306   7.482   8.581   5.196 -1.1534  0.2802  0.0741
29284SOL     OW92307   7.603   8.846   2.731 -0.0888  0.0573  0.3528
29284SOL    HW192308   7.584   8.761   2.693 -1.9659  0.4675  0.2770
29284SOL    HW292309   7.558   8.846   2.815 -0.1974  1.0012  0.3052
29285SOL     OW92310   0.126   9.130   5.964  0.5550  0.2911  0.0284
29285SOL    HW192311   0.032   9.113   5.968  0.7707 -0.8478  0.7905
29285SOL    HW292312   0.142   9.192   6.035  0.2790  1.1127 -0.6055
29286SOL     OW92313   2.606   1.731   1.886 -0.3418  0.4995 -0.4004
29286SOL    HW192314   2.676   1.796   1.880 -0.0624  0.1431 -1.0804
29286SOL    HW292315   2.599   1.713   1.980  2.7161 -1.8089 -0.4558
29287SOL     OW92316   7.283   7.436   7.965 -0.7744  0.8830  0.5263
29287SOL    HW192317   7.364   7.474   7.929 -1.8181  2.3370 -0.3947
29287SOL    HW292318   7.273   7.352   7.920  0.1539  0.7398  0.5660
29288SOL     OW92319   8.838   3.074   2.301  0.0846 -0.3550 -0.1958
29288SOL    HW192320   8.760   3.120   2.271  0.9494  0.6279 -0.9942
29288SOL    HW292321   8.816   2.981   2.293 -0.0797 -0.1571 -3.0500
29289SOL     OW92322   2.081   1.912   0.670 -0.7932 -0.2777 -0.6831
29289SOL    HW192323   2.127   1.877   0.746 -1.0933  0.2734 -0.2352
29289SOL    HW292324   2.005   1.956   0.706 -1.3302 -0.6242 -1.3670
29290SOL     OW92325   0.563   2.706   9.658 -0.4464  0.3982 -0.1252
29290SOL    HW192326   0.537   2.619   9.628  1.2593 -0.0520 -0.3851
29290SOL    HW292327   0.513   2.720   9.739  0.2748 -1.3998  0.6642
29291SOL     OW92328   3.248   8.778   8.606  0.1161 -0.2861  0.4482
29291SOL    HW192329   3.216   8.847   8.548  3.1412 -0.0142 -1.1310
29291SOL    HW292330   3.182   8.710   8.601 -0.7899  0.6400 -1.6343
29292SOL     OW92331   2.236   1.599   1.975  0.0102 -0.3465 -0.1829
29292SOL    HW192332   2.179   1.605   2.051  0.7011 -0.1885  0.3286
29292SOL    HW292333   2.286   1.518   1.988 -0.3316 -0.6610 -0.7928
29293SOL     OW92334   0.147   8.415   9.230 -0.3539 -0.2418 -0.0565
29293SOL    HW192335   0.090   8.463   9.289 -1.6200 -0.2099 -1.2668
29293SOL    HW292336   0.100   8.333   9.212  0.5257 -0.7422 -0.1491
29294SOL     OW92337   5.111   5.600   8.931 -0.2308 -0.0795 -0.0190
29294SOL    HW192338   5.162   5.586   8.851 -0.2478 -0.9382  0.1065
29294SOL    HW292339   5.028   5.636   8.901  0.1126  0.4793 -0.3051
29295SOL     OW92340   7.983   4.498   1.310 -0.4768 -0.1549  0.1451
29295SOL    HW192341   7.928   4.484   1.233  2.2675 -1.7783 -1.7133
29295SOL    HW292342   8.022   4.584   1.297  0.0712 -0.4762 -0.3760
29296SOL     OW92343  11.004   2.281   2.070 -0.3063  0.1364 -0.2073
29296SOL    HW192344  11.093   2.252   2.053 -0.4699  1.2124 -3.6594
29296SOL    HW292345  10.999   2.288   2.165  3.4951  0.7261  0.1000
29297SOL     OW92346   8.478   4.623   7.799 -0.0507 -0.1271  0.3119
29297SOL    HW192347   8.514   4.705   7.765 -0.2805  0.5109  1.5658
29297SOL    HW292348   8.541   4.596   7.867 -1.2795  0.3852  1.7031
29298SOL     OW92349  10.843   0.409   9.783  0.0923  0.4434  0.4905
29298SOL    HW192350  10.852   0.330   9.729  1.7353  0.5091  0.6325
29298SOL    HW292351  10.827   0.479   9.721  2.5055  0.6119 -0.0372
29299SOL     OW92352   1.039   7.946   7.533  0.2038 -0.5706  0.2346
29299SOL    HW192353   0.999   7.902   7.608  0.3504  0.3780  0.8986
29299SOL    HW292354   0.973   7.940   7.464 -1.4448  1.5109  1.4926
29300SOL     OW92355   5.667   2.466   3.679  0.3724 -0.5195 -0.3959
29300SOL    HW192356   5.581   2.478   3.719  0.5647  0.3471 -0.2199
29300SOL    HW292357   5.655   2.494   3.588  0.3494 -0.8571 -0.4960
29301SOL     OW92358   8.931   0.143   8.626  0.0823  0.0113 -0.0226
29301SOL    HW192359   8.983   0.221   8.607  0.6572 -0.7735 -1.9513
29301SOL    HW292360   8.850   0.156   8.576  0.2942 -0.7256 -0.5767
29302SOL     OW92361  10.260   3.152   4.438 -0.0113 -0.1387 -0.3531
29302SOL    HW192362  10.173   3.130   4.472  0.7170 -2.0646  0.4059
29302SOL    HW292363  10.292   3.219   4.499  0.3471 -1.8821  1.4919
29303SOL     OW92364   7.460   8.019   2.817 -0.6889  0.2076  0.0321
29303SOL    HW192365   7.365   8.019   2.814 -0.7768 -2.4680  0.4573
29303SOL    HW292366   7.483   8.093   2.873 -2.5992 -0.0952  1.2993
29304SOL     OW92367   0.229   9.397   9.669 -0.0793  0.2188  0.3213
29304SOL    HW192368   0.213   9.425   9.579  1.8052  0.4985  0.0301
29304SOL    HW292369   0.233   9.479   9.719 -0.6017  0.0953  0.5693
29305SOL     OW92370   7.142   3.653   9.193  0.2455  0.1727  0.1575
29305SOL    HW192371   7.062   3.705   9.195  0.5784  0.6893  0.2595
29305SOL    HW292372   7.134   3.601   9.113 -0.3920 -0.1036  0.3948
29306SOL     OW92373   7.752   4.672   6.228  0.4650  0.4712  0.7321
29306SOL    HW192374   7.804   4.663   6.148  0.5022 -0.3286  0.8411
29306SOL    HW292375   7.729   4.582   6.252 -1.5253  0.8145  0.3291
29307SOL     OW92376  10.295   7.529   0.913  0.5449  0.1866  0.0904
29307SOL    HW192377  10.374   7.517   0.860  1.2157 -1.5850  1.3946
29307SOL    HW292378  10.327   7.544   1.002 -0.5635  0.1065  0.5234
29308SOL     OW92379   8.504   6.620   7.809 -0.1050 -0.1838  0.1503
29308SOL    HW192380   8.502   6.715   7.798  0.7601 -0.3242 -1.5125
29308SOL    HW292381   8.438   6.603   7.876 -0.9956  1.4995 -0.2225
29309SOL     OW92382   9.190  10.175   3.735 -0.2176  0.4657 -0.0888
29309SOL    HW192383   9.253  10.114   3.698 -0.8772  0.6311 -1.5381
29309SOL    HW292384   9.241  10.254   3.754  0.3062  0.0503  0.2478
29310SOL     OW92385   0.860   9.432   9.405  0.0337  0.1889  0.5579
29310SOL    HW192386   0.871   9.348   9.449 -0.0317 -0.6849 -1.0312
29310SOL    HW292387   0.889   9.497   9.470  0.3664 -1.0611  1.7058
29311SOL     OW92388  10.175   1.719   5.906  0.1544  0.0340  0.1987
29311SOL    HW192389  10.162   1.787   5.972  0.1605  0.0763  0.1570
29311SOL    HW292390  10.211   1.766   5.831 -0.8695  0.1658 -0.2192
29312SOL     OW92391   7.248   1.947   2.516 -0.0944 -0.3846  0.0965
29312SOL    HW192392   7.215   2.015   2.456  1.0129  0.8489  0.8429
29312SOL    HW292393   7.269   1.994   2.596  1.5017 -1.4653  0.3503
29313SOL     OW92394   5.329   9.060   5.209  0.1972  0.4869  0.2345
29313SOL    HW192395   5.298   9.010   5.284  0.7663 -0.5868 -0.2230
29313SOL    HW292396   5.412   9.019   5.185 -0.1339  0.5809 -1.1762
29314SOL     OW92397   1.484   2.142   1.012 -0.4393 -0.1066 -0.9130
29314SOL    HW192398   1.446   2.194   1.083 -0.8225 -0.0966 -1.1203
29314SOL    HW292399   1.578   2.154   1.020 -0.4798 -0.1492 -0.3720
29315SOL     OW92400   2.991   7.135   5.497  0.0918  0.1885  0.6913
29315SOL    HW192401   2.966   7.226   5.481 -0.0906  0.1022  0.4866
29315SOL    HW292402   2.972   7.090   5.415  0.8964  0.1165  0.5329
29316SOL     OW92403   3.006   1.809   1.961  0.3488 -0.1607 -0.2144
29316SOL    HW192404   3.061   1.838   2.033  0.6065 -0.5773 -0.2433
29316SOL    HW292405   3.007   1.882   1.899  0.1216  0.2015  0.1993
29317SOL     OW92406   5.232   7.194   5.437 -0.4055  0.2971  0.1816
29317SOL    HW192407   5.184   7.218   5.358  0.0626  1.0130  0.1012
29317SOL    HW292408   5.307   7.144   5.405  1.1387  2.6551 -0.0862
29318SOL     OW92409   1.087   7.994   5.174  0.1635  0.6000 -0.8387
29318SOL    HW192410   1.044   8.033   5.098  0.0938  1.0878 -0.5538
29318SOL    HW292411   1.171   8.040   5.180  0.2354  0.4538 -0.7163
29319SOL     OW92412  10.552   2.395   8.374 -0.3583  0.0260  0.1450
29319SOL    HW192413  10.475   2.346   8.401 -0.3649  0.0979  0.2565
29319SOL    HW292414  10.625   2.333   8.385  0.0627  0.8563  3.0183
29320SOL     OW92415   8.414   5.398  10.285  0.5524  0.1503  0.1283
29320SOL    HW192416   8.378   5.456  10.218  1.1756 -1.3302 -1.5818
29320SOL    HW292417   8.375   5.428  10.367 -0.9072  1.5071 -1.0056
29321SOL     OW92418   2.753   2.394   0.712  0.1018 -0.6251  0.2407
29321SOL    HW192419   2.810   2.460   0.752  0.9165 -0.7138 -0.7238
29321SOL    HW292420   2.730   2.335   0.784  2.9699 -1.8098  0.3047
29322SOL     OW92421   8.759   1.922   6.942 -0.4827 -0.4508  0.2956
29322SOL    HW192422   8.830   1.887   6.994  0.6021  0.2316 -0.6760
29322SOL    HW292423   8.693   1.852   6.941  0.7818 -1.6860  0.0288
29323SOL     OW92424   5.269   1.214   6.122  0.2269 -0.2990  0.0582
29323SOL    HW192425   5.194   1.185   6.173 -1.1916  0.2178 -1.6405
29323SOL    HW292426   5.293   1.138   6.069 -1.4520  0.5223 -2.0314
29324SOL     OW92427   7.128   6.735   0.770  0.4043  0.6966 -0.0416
29324SOL    HW192428   7.091   6.823   0.783  0.6248  0.7473  0.2730
29324SOL    HW292429   7.108   6.714   0.679 -0.9076  0.4778  0.2723
29325SOL     OW92430   1.227   0.011   7.963  0.1612  0.3495 -0.3752
29325SOL    HW192431   1.239  -0.060   8.026  0.4087  0.4395 -0.3183
29325SOL    HW292432   1.221  -0.033   7.878  0.6559  0.2824 -0.3766
29326SOL     OW92433   2.150   3.923  10.679  0.3165 -0.3784  0.1780
29326SOL    HW192434   2.181   3.964  10.759 -1.1963  0.0207  0.5935
29326SOL    HW292435   2.063   3.962  10.664  0.0823 -1.2935 -1.0101
29327SOL     OW92436   9.300   4.666   2.470 -0.3343  0.3208 -0.7923
29327SOL    HW192437   9.278   4.725   2.542  1.0047  0.7865 -0.7348
29327SOL    HW292438   9.248   4.696   2.396 -0.4689  0.8884 -0.4683
29328SOL     OW92439   3.838   2.227  10.661  0.4413 -0.1787  0.3543
29328SOL    HW192440   3.928   2.211  10.633  1.2952  1.6560  1.8766
29328SOL    HW292441   3.815   2.311  10.622  0.1764  0.3895  1.6825
29329SOL     OW92442   7.856  10.794   5.204 -0.5025  0.2786 -0.0541
29329SOL    HW192443   7.919  10.848   5.157  0.6745 -0.9993 -0.0012
29329SOL    HW292444   7.789  10.773   5.139  0.3798 -0.3122 -0.8037
29330SOL     OW92445   7.770   0.398   8.333  0.0872 -0.2582  0.1893
29330SOL    HW192446   7.814   0.316   8.311 -0.0335 -0.1577 -0.4500
29330SOL    HW292447   7.798   0.460   8.265 -1.0218 -0.1942 -0.2265
29331SOL     OW92448   8.706   8.971   8.724 -0.2758 -0.0583 -0.1095
29331SOL    HW192449   8.712   9.066   8.724 -0.2536  0.0027 -2.2057
29331SOL    HW292450   8.647   8.951   8.651 -0.3124 -1.6406  0.3166
29332SOL     OW92451   7.688   4.388   2.376 -0.4626 -0.2917  0.0215
29332SOL    HW192452   7.720   4.370   2.287  0.2334 -1.3233  0.4637
29332SOL    HW292453   7.622   4.456   2.364  2.0284  2.1410 -0.8953
29333SOL     OW92454  10.656   8.384   2.634  0.5350  0.1551 -0.1657
29333SOL    HW192455  10.575   8.436   2.628 -0.2598 -0.8614  1.1032
29333SOL    HW292456  10.670   8.352   2.544 -1.3287 -0.8442 -0.1582
29334SOL     OW92457   6.963   9.646   4.336  0.2824 -0.0598 -0.0010
29334SOL    HW192458   6.950   9.569   4.281 -2.4809  0.2333  0.0643
29334SOL    HW292459   6.950   9.720   4.275 -1.8085  0.2652  0.7364
29335SOL     OW92460   0.715   1.807   1.058  0.0030 -0.5697 -0.0339
29335SOL    HW192461   0.741   1.799   0.966 -0.1553 -1.0305 -0.0379
29335SOL    HW292462   0.794   1.782   1.107 -0.5835 -2.5782 -0.0436
29336SOL     OW92463   0.207   9.500   9.409  0.2027  0.8993 -0.3188
29336SOL    HW192464   0.222   9.594   9.420  0.6386  0.8485 -0.4634
29336SOL    HW292465   0.276   9.472   9.349  1.8390 -0.0203  1.8339
29337SOL     OW92466   6.045   2.526   8.545  0.6178  0.1280  0.1607
29337SOL    HW192467   5.969   2.489   8.500  1.3128 -1.0329 -0.0996
29337SOL    HW292468   6.050   2.616   8.513  0.2834 -0.2634 -1.0319
29338SOL     OW92469   2.090   1.635   3.503 -0.3819  0.1632  0.3792
29338SOL    HW192470   2.155   1.668   3.441 -0.1358  0.1855  0.6487
29338SOL    HW292471   2.008   1.633   3.453 -0.0713 -0.3672 -0.1196
29339SOL     OW92472   0.955   1.672  10.683  0.0172  0.1782 -0.3808
29339SOL    HW192473   1.025   1.608  10.674  1.9615  1.7617  2.2029
29339SOL    HW292474   0.973   1.738  10.616  1.2200  0.7094  0.4356
29340SOL     OW92475   9.248   6.048   2.156 -0.0419 -0.0748 -0.3202
29340SOL    HW192476   9.323   6.021   2.210 -1.1653  1.1596  1.9908
29340SOL    HW292477   9.287   6.072   2.072  2.2737  1.0209  0.9598
29341SOL     OW92478   9.213   5.808   3.034  0.1621 -0.9270  0.2894
29341SOL    HW192479   9.290   5.754   3.017  0.3020 -0.2594 -1.3807
29341SOL    HW292480   9.159   5.797   2.955  0.1027  1.1867 -0.0266
29342SOL     OW92481   5.578   6.263   1.086  0.1910  0.5437 -0.6226
29342SOL    HW192482   5.499   6.214   1.106  0.9901  0.1366  1.8823
29342SOL    HW292483   5.599   6.238   0.996 -0.8001 -1.8060 -0.2848
29343SOL     OW92484   4.982   6.863   6.515 -0.3366  0.4671 -0.3370
29343SOL    HW192485   4.993   6.810   6.594 -1.6067 -0.9651 -1.0551
29343SOL    HW292486   4.934   6.940   6.544 -1.5382 -0.4399  0.1910
29344SOL     OW92487  10.556   9.291   6.083  0.2465  0.3274  0.2574
29344SOL    HW192488  10.569   9.239   6.162  1.2026  0.8442  0.4430
29344SOL    HW292489  10.633   9.347   6.077 -0.4145  1.2068 -0.3429
29345SOL     OW92490   4.259   7.749   6.103  0.1330  0.4436  0.2213
29345SOL    HW192491   4.163   7.744   6.110  0.0981 -1.4515 -1.0280
29345SOL    HW292492   4.291   7.679   6.161  0.6367 -0.5317 -1.1844
29346SOL     OW92493   6.931  10.454   0.919  0.0568  0.0520  0.5858
29346SOL    HW192494   6.857  10.425   0.865  0.8972  2.0252 -1.8207
29346SOL    HW292495   6.979  10.374   0.938 -2.2527 -1.1916  1.6363
29347SOL     OW92496   7.856   2.533   9.033  0.7001  0.6349  0.1461
29347SOL    HW192497   7.858   2.439   9.051  1.1868  0.3651 -1.2143
29347SOL    HW292498   7.779   2.565   9.079  0.3917 -0.4737  0.4198
29348SOL     OW92499   5.604   6.327   1.796  0.1362  0.6454  0.8718
29348SOL    HW192500   5.692   6.292   1.782  0.0839 -0.1216  2.2263
29348SOL    HW292501   5.573   6.281   1.874 -0.9378  1.9015  1.2147
29349SOL     OW92502   6.668   9.320   3.644  0.2494 -0.0956  0.3108
29349SOL    HW192503   6.748   9.304   3.693  1.5222 -2.0791 -2.1436
29349SOL    HW292504   6.665   9.415   3.633  3.2673 -0.0265 -0.9596
29350SOL     OW92505   3.235   5.388   2.618  0.5616  0.0450  0.4988
29350SOL    HW192506   3.300   5.379   2.549 -1.8378  0.3320 -1.9766
29350SOL    HW292507   3.203   5.478   2.610 -0.6032 -0.2833  1.1564
29351SOL     OW92508   3.194  11.028  10.422 -0.4453 -0.1358  0.2531
29351SOL    HW192509   3.283  11.061  10.410  0.4621 -2.3979  0.3921
29351SOL    HW292510   3.138  11.099  10.390  1.4534  0.5701 -1.7163
29352SOL     OW92511   4.668   3.011   2.521  0.0682 -0.1993 -0.1208
29352SOL    HW192512   4.638   2.955   2.592  1.2373 -0.2867  0.3378
29352SOL    HW292513   4.683   2.952   2.448  0.4823 -0.3647  0.0950
29353SOL     OW92514  11.060   9.808   9.776  0.1686  0.3460 -0.2103
29353SOL    HW192515  10.979   9.774   9.814 -0.4922  2.2679  0.2232
29353SOL    HW292516  11.044   9.807   9.682  0.5462 -1.3769 -0.2867
29354SOL     OW92517   4.043   8.967   1.447  0.0311  0.0094 -0.1352
29354SOL    HW192518   4.074   8.961   1.538 -1.3865 -0.5936  0.3313
29354SOL    HW292519   4.102   8.910   1.398  0.0457 -0.6540  0.6315
29355SOL     OW92520   5.961   0.137   5.068 -0.2515 -0.3277  0.1206
29355SOL    HW192521   5.891   0.159   5.008 -0.1746 -0.8262 -0.1569
29355SOL    HW292522   5.931   0.058   5.113  0.3373 -0.8449 -0.3669
29356SOL     OW92523   7.197   0.693   0.395  0.2215 -0.0322 -0.2743
29356SOL    HW192524   7.188   0.630   0.324 -2.1053 -0.2168  0.1255
29356SOL    HW292525   7.213   0.639   0.473  0.6619  0.0411 -0.3102
29357SOL     OW92526   3.089   2.812   5.257 -0.3700 -0.3669 -0.0266
29357SOL    HW192527   3.082   2.721   5.229  1.0268 -0.6409  0.4512
29357SOL    HW292528   3.180   2.836   5.240 -0.2541  0.3779  1.4589
29358SOL     OW92529  10.315   8.104  10.580 -0.0262  0.2783  0.0583
29358SOL    HW192530  10.393   8.057  10.553 -0.9177 -0.8545 -0.6600
29358SOL    HW292531  10.288   8.153  10.502 -0.4668  0.0260  0.0463
29359SOL     OW92532   6.403   2.305   3.076  0.0078 -0.1233 -0.2037
29359SOL    HW192533   6.417   2.224   3.125 -0.2378 -0.1377 -0.1574
29359SOL    HW292534   6.338   2.283   3.010  1.6092 -0.5762 -1.7154
29360SOL     OW92535   4.209   9.746   7.910 -0.2605  0.9271 -0.2204
29360SOL    HW192536   4.267   9.707   7.976  0.8515  4.1876  0.9483
29360SOL    HW292537   4.263   9.750   7.831  0.4241  1.9403  0.2613
29361SOL     OW92538   4.206   2.533   0.284  0.3654 -0.1297 -0.2866
29361SOL    HW192539   4.206   2.437   0.282  1.4360 -0.1436 -0.0304
29361SOL    HW292540   4.296   2.557   0.305 -0.5450  0.8610  3.1088
29362SOL     OW92541   8.869   3.343   2.086  0.1376  0.7610 -0.3526
29362SOL    HW192542   8.957   3.310   2.104  0.4685  2.2193  0.8597
29362SOL    HW292543   8.839   3.379   2.169 -2.4173 -1.3877 -0.1761
29363SOL     OW92544   4.976   8.412   3.020 -0.3474  0.1756 -0.5657
29363SOL    HW192545   4.949   8.445   3.106  0.8566 -2.3377  0.9133
29363SOL    HW292546   5.067   8.439   3.012 -0.7867  1.4422 -1.6823
29364SOL     OW92547   6.755   1.438   7.936  0.8293 -0.1559 -0.3889
29364SOL    HW192548   6.686   1.505   7.928  0.7841 -0.1853 -0.2382
29364SOL    HW292549   6.817   1.460   7.867  2.8294  2.4092  2.0073
29365SOL     OW92550   3.182   6.370  10.139  0.1628 -0.1613  0.2445
29365SOL    HW192551   3.124   6.446  10.143  1.2072  0.6131  2.2840
29365SOL    HW292552   3.219   6.372  10.051 -2.3287 -0.2862 -0.8737
29366SOL     OW92553   0.534   3.283   6.558 -0.0144  0.1528 -0.3109
29366SOL    HW192554   0.440   3.269   6.572 -0.0630 -0.4083 -1.1487
29366SOL    HW292555   0.570   3.195   6.546  0.6987  0.3317  0.4175
29367SOL     OW92556  10.029   8.019   4.322 -0.2776 -0.3422  0.0872
29367SOL    HW192557   9.983   7.995   4.242 -1.2851  1.0662  0.2102
29367SOL    HW292558   9.992   7.963   4.389 -2.2924  1.1513  0.2972
29368SOL     OW92559   2.304   1.168   6.870  0.2483 -0.3644 -0.2488
29368SOL    HW192560   2.342   1.162   6.958 -1.4601 -1.2308  0.4757
29368SOL    HW292561   2.378   1.190   6.813  1.0742  2.2212  1.6359
29369SOL     OW92562   2.110   4.081   3.740  0.4328  0.2971  0.1837
29369SOL    HW192563   2.034   4.128   3.704  0.2510  0.0962  0.3052
29369SOL    HW292564   2.078   4.044   3.822  0.1801 -1.1515 -0.5353
29370SOL     OW92565   2.585   5.380  10.881  0.6638  0.3044  0.3180
29370SOL    HW192566   2.500   5.408  10.915  0.2485 -2.1410  1.5000
29370SOL    HW292567   2.643   5.383  10.957  0.9144 -0.7439  0.1737
29371SOL     OW92568   0.217  10.501   1.621 -0.9006 -0.1501 -0.3506
29371SOL    HW192569   0.307  10.475   1.639 -0.9792 -1.0185 -1.1234
29371SOL    HW292570   0.202  10.577   1.677  0.2105 -0.1790  0.0084
29372SOL     OW92571   3.516   8.997   3.356  0.1384 -0.5117  0.4453
29372SOL    HW192572   3.570   9.054   3.411 -0.8475 -0.7152  1.6667
29372SOL    HW292573   3.496   8.922   3.412 -2.1760 -0.0175  0.3758
29373SOL     OW92574   4.109   6.132   5.667 -0.2683  0.1701  0.1702
29373SOL    HW192575   4.192   6.174   5.690 -0.0689 -0.1188 -0.0240
29373SOL    HW292576   4.094   6.156   5.576 -0.7610  0.8173  0.4118
29374SOL     OW92577   3.431   5.009   4.229 -0.1853 -0.8549  0.2875
29374SOL    HW192578   3.506   5.051   4.273  1.1928 -1.5499 -1.2956
29374SOL    HW292579   3.358   5.069   4.244  1.2743  1.1804 -0.2931
29375SOL     OW92580   0.929   4.277   2.031  0.4037  0.7665 -0.0212
29375SOL    HW192581   0.835   4.285   2.012  0.8212  2.2560 -1.7799
29375SOL    HW292582   0.944   4.337   2.104 -0.1402 -0.1857  0.9037
29376SOL     OW92583   0.637   5.067   9.862  0.6541 -0.1317 -0.2233
29376SOL    HW192584   0.599   5.094   9.778  0.4499 -1.6232 -0.6309
29376SOL    HW292585   0.730   5.053   9.844  1.2207  2.2660  0.4831
29377SOL     OW92586  10.262   3.841   2.819  0.3557 -0.0687 -0.0508
29377SOL    HW192587  10.183   3.895   2.814  0.9109  0.7474 -0.0215
29377SOL    HW292588  10.322   3.891   2.875  0.8415 -0.7568  0.0534
29378SOL     OW92589   9.048   8.439   1.481 -0.2410  0.3803 -0.1011
29378SOL    HW192590   9.098   8.361   1.459  0.0229 -0.1912  2.2802
29378SOL    HW292591   8.971   8.435   1.425  0.0636 -1.2545 -0.4437
29379SOL     OW92592   6.702   1.289   8.528 -0.4910 -0.3522 -0.3875
29379SOL    HW192593   6.702   1.385   8.537  2.4113 -0.3471  0.8305
29379SOL    HW292594   6.748   1.274   8.445 -0.1590 -0.6838 -0.1457
29380SOL     OW92595   1.360   9.915   4.409  0.5559  0.1007  0.5117
29380SOL    HW192596   1.402  10.000   4.406 -0.2530  0.5341  1.1083
29380SOL    HW292597   1.418   9.858   4.359 -0.1121  1.5267 -2.0817
29381SOL     OW92598   9.047   9.350   1.737 -0.1441 -0.2550  0.5320
29381SOL    HW192599   8.992   9.294   1.682 -0.2903  0.2261  0.1809
29381SOL    HW292600   9.004   9.435   1.733  0.7287  0.1743  0.0999
29382SOL     OW92601   0.843   2.505   0.903 -0.2014  0.0810 -0.0177
29382SOL    HW192602   0.848   2.512   0.999  0.8034 -0.5655 -0.0054
29382SOL    HW292603   0.902   2.574   0.871 -0.7700  0.4968 -0.1899
29383SOL     OW92604   2.421  10.470   7.354  0.0627 -0.1693 -0.7376
29383SOL    HW192605   2.418  10.555   7.398  1.3483 -0.4790 -0.0100
29383SOL    HW292606   2.412  10.491   7.261 -2.5157  0.5163 -0.4189
29384SOL     OW92607   1.252   2.320   5.397  0.6670 -0.3751  0.9289
29384SOL    HW192608   1.229   2.234   5.362 -1.1973  0.0511  1.0359
29384SOL    HW292609   1.338   2.338   5.360  0.3048 -1.4937 -0.5497
29385SOL     OW92610   0.107   0.123  10.977 -0.3207 -0.3537  0.6244
29385SOL    HW192611   0.152   0.093  10.897  0.6282 -1.9461  1.6989
29385SOL    HW292612   0.015   0.134  10.950  0.4190  1.9113 -1.3430
29386SOL     OW92613   2.152   8.927   6.698  0.1989  0.4022 -0.2103
29386SOL    HW192614   2.093   8.857   6.727 -0.4399  1.3627  0.8841
29386SOL    HW292615   2.154   8.918   6.602 -1.8891  0.4537 -0.3099
29387SOL     OW92616  10.149   5.094   5.480 -0.6615  0.0568  0.0538
29387SOL    HW192617  10.162   5.152   5.405  0.2980  1.1268  0.9894
29387SOL    HW292618  10.103   5.148   5.544  0.3066 -0.1568  0.9682
29388SOL     OW92619   7.079   2.892   9.439 -0.0065  0.1889 -0.1233
29388SOL    HW192620   7.109   2.837   9.366  1.9050  0.5395  0.3436
29388SOL    HW292621   7.136   2.969   9.435 -3.0459  2.6054 -1.2226
29389SOL     OW92622   3.602   7.733   7.848 -0.0365 -0.3242 -0.1722
29389SOL    HW192623   3.549   7.683   7.786  0.3456 -1.9407  0.7376
29389SOL    HW292624   3.588   7.690   7.932  2.4178 -0.6198  0.1729
29390SOL     OW92625   1.438  10.671   1.217  0.1212  0.2033 -0.2867
29390SOL    HW192626   1.443  10.693   1.310 -1.8893 -1.5989  0.3300
29390SOL    HW292627   1.472  10.582   1.212 -0.9137 -0.1593 -1.0698
29391SOL     OW92628   8.183   2.757   2.979 -1.0044  0.2960  0.1798
29391SOL    HW192629   8.175   2.820   2.907  1.3453  1.6919  1.0316
29391SOL    HW292630   8.093   2.731   2.998 -1.8716  1.7224 -1.6582
29392SOL     OW92631   7.322   4.896   1.184  0.0057  0.2675 -0.0885
29392SOL    HW192632   7.318   4.801   1.173 -0.3880  0.1173  1.1306
29392SOL    HW292633   7.249   4.929   1.131 -1.6131 -0.3698  1.6193
29393SOL     OW92634   6.153   2.848   5.521  0.2757 -0.2611  0.2419
29393SOL    HW192635   6.166   2.857   5.427  0.2447  0.7850  0.3232
29393SOL    HW292636   6.228   2.797   5.551  0.9718  0.4878 -0.1762
29394SOL     OW92637   8.601   7.751   1.325  0.0620  0.3864  0.2959
29394SOL    HW192638   8.694   7.747   1.300  0.7353 -1.2202  2.7709
29394SOL    HW292639   8.558   7.690   1.265  0.6144  0.9424 -0.6994
29395SOL     OW92640   6.843   6.251   3.144 -0.1168 -0.0900  0.4012
29395SOL    HW192641   6.920   6.200   3.167 -0.4805 -1.4269 -1.1434
29395SOL    HW292642   6.782   6.238   3.217 -0.0657 -1.6152  0.1906
29396SOL     OW92643   6.528   9.996   8.108 -0.1466  0.6717  0.1158
29396SOL    HW192644   6.451   9.975   8.055 -1.3732  1.5221  1.4707
29396SOL    HW292645   6.602   9.968   8.055 -1.3939 -0.6187 -1.0413
29397SOL     OW92646   6.590   1.350   1.252 -0.5768  0.2553  0.5245
29397SOL    HW192647   6.524   1.410   1.216 -0.0503  0.6153  0.1361
29397SOL    HW292648   6.674   1.387   1.223 -0.2865 -1.5560 -1.1606
29398SOL     OW92649   2.760   7.916   3.042  0.0326 -0.2106  0.1439
29398SOL    HW192650   2.832   7.979   3.052 -1.3477  1.3834  0.6156
29398SOL    HW292651   2.803   7.833   3.023  2.0189  0.5657  0.9411
29399SOL     OW92652   6.456   1.097   7.322 -0.5217 -0.1912  0.2925
29399SOL    HW192653   6.362   1.114   7.308 -0.1609  0.5688 -1.4641
29399SOL    HW292654   6.479   1.151   7.397 -1.4514 -0.2514  0.6417
29400SOL     OW92655   8.976   5.542   4.111  0.3937 -0.0952 -0.0453
29400SOL    HW192656   9.018   5.489   4.178  0.7432  1.0286  0.6510
29400SOL    HW292657   8.882   5.527   4.122  0.4558  0.0297  0.6483
29401SOL     OW92658   9.155   0.036   3.564  0.2436  0.3683 -0.1278
29401SOL    HW192659   9.236  -0.004   3.593 -0.1857 -1.9028 -1.8302
29401SOL    HW292660   9.138  -0.002   3.477 -1.9493  1.7706 -0.4052
29402SOL     OW92661   1.930   7.401   6.494 -0.2037  0.5336 -0.4285
29402SOL    HW192662   1.940   7.306   6.502  2.7362  0.7936  0.4193
29402SOL    HW292663   1.846   7.420   6.535 -0.6949 -1.6629 -0.3102
29403SOL     OW92664  10.762   7.511   8.191  0.2838 -0.4249  0.1398
29403SOL    HW192665  10.667   7.516   8.179  0.3474  0.5272 -0.0690
29403SOL    HW292666  10.793   7.601   8.178  1.1896 -0.6780  0.4352
29404SOL     OW92667   0.978   3.934   3.688  0.4741 -0.1856 -0.1115
29404SOL    HW192668   0.970   3.904   3.597  1.2766 -0.3843 -0.1202
29404SOL    HW292669   0.911   3.883   3.735 -1.9450  1.9288 -1.0306
29405SOL     OW92670   9.128   4.905   6.243  0.6538  0.8366 -0.2135
29405SOL    HW192671   9.220   4.932   6.246  0.1537  2.8359 -0.8290
29405SOL    HW292672   9.087   4.968   6.184 -0.9145 -0.7065 -0.8523
29406SOL     OW92673   2.696   1.837  10.420 -0.2792  0.5957  0.4076
29406SOL    HW192674   2.659   1.838  10.508 -0.3757 -0.0975  0.3853
29406SOL    HW292675   2.773   1.893  10.425  0.6852 -0.7533  1.3745
29407SOL     OW92676   4.229   1.461   7.944 -0.0820  0.5385 -0.2700
29407SOL    HW192677   4.310   1.507   7.922  0.9105 -0.8043  0.4617
29407SOL    HW292678   4.209   1.490   8.033  0.3732 -0.1805  0.0736
29408SOL     OW92679   2.719   1.201   3.469 -0.1907  0.3208  0.4197
29408SOL    HW192680   2.732   1.275   3.411 -0.1856 -0.0071  0.0023
29408SOL    HW292681   2.807   1.169   3.488 -0.2111  0.2032  0.3172
29409SOL     OW92682  10.875   7.392   9.610  1.0078 -0.8340  0.2796
29409SOL    HW192683  10.857   7.486   9.606  1.1073 -0.8305 -0.2298
29409SOL    HW292684  10.800   7.351   9.568  1.1213 -0.9604  0.1991
29410SOL     OW92685  10.948   9.357  10.691  0.4335 -0.1876 -0.0368
29410SOL    HW192686  11.025   9.340  10.638  1.6361 -2.3012  2.1747
29410SOL    HW292687  10.967   9.316  10.775 -1.7654  2.0739  1.7318
29411SOL     OW92688   3.446   7.641  10.779 -0.4470  0.3126  0.5808
29411SOL    HW192689   3.397   7.722  10.763  3.7421  2.7406 -1.7774
29411SOL    HW292690   3.502   7.661  10.854  0.7699 -0.3109 -0.1343
29412SOL     OW92691   1.988   9.052   9.280  0.1450  0.0489 -0.5115
29412SOL    HW192692   2.064   9.059   9.338 -0.3962  2.8303 -0.0198
29412SOL    HW292693   2.025   9.037   9.194  1.2064  0.3078 -0.1129
29413SOL     OW92694   3.605   1.269  10.809 -0.1023  0.4334  0.1243
29413SOL    HW192695   3.546   1.295  10.738 -1.1460 -0.5016  0.6175
29413SOL    HW292696   3.623   1.350  10.856  0.4121  1.0213 -1.0456
29414SOL     OW92697  10.104   3.376   8.375 -0.4835 -0.1746  0.1708
29414SOL    HW192698  10.070   3.440   8.312  0.5181  0.0341 -0.1810
29414SOL    HW292699  10.063   3.294   8.349 -0.3581 -0.0210 -0.5469
29415SOL     OW92700   4.355   3.086   5.501  0.1754  0.2170 -0.5787
29415SOL    HW192701   4.263   3.063   5.490  0.7689 -1.7617 -1.9150
29415SOL    HW292702   4.375   3.141   5.425  1.2249 -3.4419 -3.2148
29416SOL     OW92703   3.990  10.244   1.506 -0.3750  0.1989  0.1944
29416SOL    HW192704   3.981  10.232   1.601  0.0423  2.1690  0.5365
29416SOL    HW292705   4.083  10.265   1.494 -0.8242  1.9996 -0.3514
29417SOL     OW92706   4.689   7.618   5.862 -0.3379 -0.0453 -1.0456
29417SOL    HW192707   4.626   7.616   5.934  0.6916 -2.0427 -0.1101
29417SOL    HW292708   4.635   7.631   5.784 -1.9503 -1.5955 -0.2693
29418SOL     OW92709   7.938   6.107  10.856 -0.4266 -0.1021  0.1346
29418SOL    HW192710   8.011   6.160  10.887 -1.3063  0.2589  1.6885
29418SOL    HW292711   7.906   6.062  10.934 -0.6911 -1.7290 -0.8635
29419SOL     OW92712   8.066   0.995   0.975 -0.0773 -0.0655  0.2020
29419SOL    HW192713   8.076   0.902   0.957 -0.4942 -0.1490  0.3820
29419SOL    HW292714   8.051   1.035   0.889 -0.5286 -0.2530  0.1910
29420SOL     OW92715   8.309   7.739   0.611 -0.7123  0.6560 -0.4360
29420SOL    HW192716   8.359   7.723   0.532  0.9918 -0.6493  0.8419
29420SOL    HW292717   8.246   7.807   0.586 -0.0055  0.5275 -2.7790
29421SOL     OW92718   5.399   8.528   0.336  0.6132  0.3478 -0.6289
29421SOL    HW192719   5.444   8.460   0.386 -0.4153  0.2025  0.1442
29421SOL    HW292720   5.400   8.496   0.246 -1.5722 -1.7191 -0.0173
29422SOL     OW92721   8.345   8.387   3.524 -0.4633  0.0009  0.0374
29422SOL    HW192722   8.439   8.373   3.517 -0.6011 -0.0088 -2.9338
29422SOL    HW292723   8.308   8.298   3.524 -0.4826 -0.0927  3.2044
29423SOL     OW92724   3.920   5.818   9.182  0.2626 -0.1833  0.1622
29423SOL    HW192725   4.004   5.865   9.188  0.4607 -0.6944  1.9792
29423SOL    HW292726   3.933   5.756   9.111  0.9909  0.5677 -0.3841
29424SOL     OW92727   5.513   1.712   2.303  0.1102 -0.7026  0.4362
29424SOL    HW192728   5.502   1.789   2.248  0.7425 -0.9946 -0.1037
29424SOL    HW292729   5.552   1.746   2.384 -0.3725 -0.3441  0.5193
29425SOL     OW92730   2.041  10.221   0.999  0.2512  0.1725  0.2877
29425SOL    HW192731   2.011  10.308   1.026  0.5146  0.2858  0.2197
29425SOL    HW292732   2.125  10.210   1.044  1.4896  1.0194 -1.6974
29426SOL     OW92733   2.557   4.418   9.799 -0.4136 -0.2562 -0.4397
29426SOL    HW192734   2.566   4.451   9.709  0.6167 -0.8551 -0.5697
29426SOL    HW292735   2.475   4.369   9.798 -0.5040 -0.1065 -1.0045
29427SOL     OW92736   0.999  11.038   7.225  0.7990  0.2328  0.0573
29427SOL    HW192737   0.986  10.950   7.191 -0.6934  0.6772 -0.5981
29427SOL    HW292738   0.996  11.095   7.147  1.2413  0.9097  0.5205
29428SOL     OW92739   1.031   6.717   4.618 -0.5310  0.3337  0.0904
29428SOL    HW192740   1.059   6.700   4.528  0.7385 -1.8995  0.8361
29428SOL    HW292741   1.100   6.771   4.656  0.0474 -0.5573  0.3307
29429SOL     OW92742   0.987  10.974   5.621 -0.2574  0.0927 -0.1129
29429SOL    HW192743   0.983  11.006   5.532 -3.1618 -0.5222 -0.3200
29429SOL    HW292744   1.021  11.047   5.672 -0.3059  1.0855 -1.4593
29430SOL     OW92745   1.489   0.628   5.944  0.1637 -0.0846 -0.6921
29430SOL    HW192746   1.440   0.583   5.876  0.5210 -0.4324 -0.7201
29430SOL    HW292747   1.574   0.647   5.904  0.5610 -0.7475 -0.1748
29431SOL     OW92748   3.386  10.631   3.223 -0.1492  0.4904  0.5210
29431SOL    HW192749   3.293  10.654   3.215  0.2666  1.7072 -1.7915
29431SOL    HW292750   3.420  10.637   3.134  2.1721  0.1125  1.3073
29432SOL     OW92751   9.751   8.240   0.450 -0.5948 -0.0045  0.3321
29432SOL    HW192752   9.688   8.246   0.521 -0.0395  1.2046  0.7576
29432SOL    HW292753   9.802   8.321   0.456  0.3829 -0.5181 -0.5742
29433SOL     OW92754   3.639   0.758   5.161  0.0681  0.8263  0.6405
29433SOL    HW192755   3.565   0.750   5.101  0.3106 -0.9182  0.5203
29433SOL    HW292756   3.694   0.826   5.122 -0.1586  0.2692 -0.7024
29434SOL     OW92757   1.943   0.817   7.567 -0.0677 -0.5211  0.4938
29434SOL    HW192758   1.890   0.785   7.495 -0.4819 -1.1455  1.0651
29434SOL    HW292759   2.011   0.870   7.525 -0.1956 -1.0162 -0.3591
29435SOL     OW92760   2.135   9.868   2.497  0.0807  0.1710 -0.4187
29435SOL    HW192761   2.039   9.862   2.489 -0.3675  2.3982  2.0251
29435SOL    HW292762   2.162   9.780   2.523 -1.5910 -0.0394  0.7787
29436SOL     OW92763   3.193   1.520   4.169 -0.0315 -0.1286 -0.1092
29436SOL    HW192764   3.257   1.564   4.113 -0.9130  0.0934 -0.9736
29436SOL    HW292765   3.239   1.444   4.204 -0.1338 -1.6358 -3.0380
29437SOL     OW92766   9.438   9.120   4.341 -0.1870  0.0477 -0.2879
29437SOL    HW192767   9.531   9.104   4.354 -0.4143 -1.5112 -0.4360
29437SOL    HW292768   9.396   9.083   4.418 -0.6074  2.0400  0.4982
29438SOL     OW92769  10.179   2.023   5.731 -0.3851 -0.4906  0.6257
29438SOL    HW192770  10.119   2.097   5.716  0.6773  0.3641  0.5144
29438SOL    HW292771  10.134   1.948   5.691 -1.2411  0.1872  0.2691
29439SOL     OW92772   7.449   3.936   1.163 -0.8626 -0.0486 -0.8042
29439SOL    HW192773   7.523   3.915   1.220 -0.2577  0.0235 -1.5463
29439SOL    HW292774   7.487   3.988   1.092 -1.9846  2.0016 -0.0089
29440SOL     OW92775   6.262   8.223   0.693  0.3487 -0.3127 -0.9831
29440SOL    HW192776   6.215   8.305   0.679 -0.4008 -0.0636  2.2677
29440SOL    HW292777   6.198   8.165   0.732  1.7895 -1.1784  0.2065
29441SOL     OW92778   0.510   8.546   2.899 -0.3856 -0.2895 -0.2306
29441SOL    HW192779   0.493   8.635   2.868 -3.2413 -0.2990  1.0425
29441SOL    HW292780   0.467   8.541   2.984 -0.4085 -2.9337 -0.3170
29442SOL     OW92781   1.494   2.570   3.351 -0.2115  0.3420 -0.1015
29442SOL    HW192782   1.401   2.563   3.373 -0.0419 -1.7890  0.1385
29442SOL    HW292783   1.498   2.638   3.283 -1.9000  0.6145  0.0408
29443SOL     OW92784   9.421   7.839   4.327 -0.4834  0.4286 -0.6506
29443SOL    HW192785   9.370   7.760   4.308 -0.0423 -0.5225  1.8588
29443SOL    HW292786   9.494   7.835   4.265 -0.1423 -1.4697 -0.1862
29444SOL     OW92787   7.567  10.838   9.900  0.0859  0.2204  0.1386
29444SOL    HW192788   7.515  10.787   9.963 -1.1139  0.7429 -0.3945
29444SOL    HW292789   7.550  10.929   9.924 -1.2048  0.4642 -1.5343
29445SOL     OW92790   0.419   0.957   5.482  0.0051 -0.3265  0.3090
29445SOL    HW192791   0.497   0.907   5.457  0.2605  0.4445 -0.4720
29445SOL    HW292792   0.350   0.891   5.487  0.4686 -0.8614 -0.1026
29446SOL     OW92793  10.734   0.862   8.824  0.2414  0.0441 -0.1837
29446SOL    HW192794  10.714   0.848   8.917 -0.8798 -0.6520 -0.5068
29446SOL    HW292795  10.673   0.931   8.797 -0.7473 -1.0507 -0.8286
29447SOL     OW92796  10.804   1.099   4.856 -0.8795 -0.6331 -0.2436
29447SOL    HW192797  10.747   1.126   4.929 -2.7078  0.8914 -2.0917
29447SOL    HW292798  10.766   1.016   4.826 -1.6297 -0.0654 -0.9119
29448SOL     OW92799   6.178   7.499   6.913 -0.6607 -0.1054  0.1370
29448SOL    HW192800   6.258   7.484   6.962  0.3782  1.8969 -0.7889
29448SOL    HW292801   6.205   7.554   6.839 -2.5876 -0.8717 -1.2262
29449SOL     OW92802   5.038   3.860  11.025 -0.2362  0.5427  0.5753
29449SOL    HW192803   5.098   3.923  10.987  1.9931 -0.0268  2.8693
29449SOL    HW292804   5.061   3.857  11.118 -0.7547 -2.9838  0.7478
29450SOL     OW92805   9.186  10.362   2.035 -0.3265 -0.1900 -0.0438
29450SOL    HW192806   9.258  10.425   2.033  0.1622 -0.7675 -1.3539
29450SOL    HW292807   9.212  10.294   1.973 -1.7101 -0.7354 -0.0489
29451SOL     OW92808   2.598   1.967   3.008 -0.1991  0.0829  0.5151
29451SOL    HW192809   2.539   1.913   2.956 -0.1398 -0.2810  0.8156
29451SOL    HW292810   2.685   1.950   2.972 -0.3267  1.0817 -0.3244
29452SOL     OW92811   5.419   4.903   9.923 -0.4221 -0.3130 -0.0513
29452SOL    HW192812   5.470   4.871   9.849  0.3845 -0.8043  0.6909
29452SOL    HW292813   5.478   4.895   9.998 -0.2795  2.6017  0.2740
29453SOL     OW92814   9.474   1.520   2.036 -0.0086 -0.2078  0.2159
29453SOL    HW192815   9.474   1.488   2.126 -1.7635 -0.8919  0.0133
29453SOL    HW292816   9.411   1.464   1.991 -0.0383  0.8860 -1.1566
29454SOL     OW92817   1.698   3.321   4.538 -0.1768  0.0627  0.5530
29454SOL    HW192818   1.683   3.415   4.538  1.0110  0.2760  0.8062
29454SOL    HW292819   1.776   3.310   4.483 -0.1830 -0.7552  0.6942
29455SOL     OW92820   7.144   4.169   1.013  0.5358 -0.2320 -0.6065
29455SOL    HW192821   7.073   4.118   1.054  0.4951  1.0796  1.0999
29455SOL    HW292822   7.193   4.106   0.963 -0.7330 -1.5529 -0.2620
29456SOL     OW92823   2.314   6.567   2.409 -0.1636 -0.0765 -0.5453
29456SOL    HW192824   2.385   6.619   2.448  0.8132 -0.0806 -2.2442
29456SOL    HW292825   2.259   6.632   2.365 -2.6026  0.2383  2.5789
29457SOL     OW92826   2.177   6.021   1.586  0.2495  0.5330 -0.5761
29457SOL    HW192827   2.112   6.091   1.580  0.4338  0.5947 -2.7962
29457SOL    HW292828   2.150   5.968   1.661  0.3477  3.1828  1.4696
29458SOL     OW92829   4.862   2.749   7.768  0.5862  0.1378  0.7066
29458SOL    HW192830   4.848   2.724   7.676 -0.0343  0.5219  0.6914
29458SOL    HW292831   4.955   2.733   7.783  0.6507 -0.1167  0.0655
29459SOL     OW92832   9.417   4.473   2.982  0.1842  0.4192  0.0234
29459SOL    HW192833   9.362   4.543   3.016 -0.9074  0.2165 -1.2695
29459SOL    HW292834   9.364   4.394   2.988  1.4274 -0.3655  1.5306
29460SOL     OW92835   0.053   0.076   3.692 -0.1646 -0.2537  0.1140
29460SOL    HW192836  -0.012   0.055   3.759  0.2060 -0.9479  0.2600
29460SOL    HW292837   0.104   0.148   3.729 -0.5765  0.0060  0.1771
29461SOL     OW92838   9.630   4.867   8.805  0.4049 -0.7522  0.3742
29461SOL    HW192839   9.556   4.836   8.856  0.7359 -0.5696  0.9826
29461SOL    HW292840   9.595   4.882   8.717 -0.3378 -0.3891  0.7285
29462SOL     OW92841   2.878   1.898   4.287  0.0817 -0.2482  0.2327
29462SOL    HW192842   2.938   1.825   4.268 -0.7407 -1.1156  0.8892
29462SOL    HW292843   2.793   1.856   4.301 -0.4255  0.8528  0.5257
29463SOL     OW92844   4.412   4.173   5.184 -0.5675 -0.4371  0.2690
29463SOL    HW192845   4.330   4.221   5.173  1.2436  2.3830 -2.8193
29463SOL    HW292846   4.473   4.238   5.219  1.0623 -1.6150 -0.2633
29464SOL     OW92847   0.388   3.108  10.765  0.0162  0.6840  0.4310
29464SOL    HW192848   0.317   3.160  10.803 -0.5646  0.7925 -0.7377
29464SOL    HW292849   0.401   3.146  10.678  0.5173 -0.2634  0.0791
29465SOL     OW92850   8.355   9.475   8.878 -0.6533  0.5967 -0.4047
29465SOL    HW192851   8.414   9.412   8.921 -0.6500  0.8084 -0.0926
29465SOL    HW292852   8.364   9.457   8.785 -0.4041  0.3513 -0.3341
29466SOL     OW92853   9.287   0.041   9.406  0.2300 -0.2367  0.0387
29466SOL    HW192854   9.356   0.034   9.473  0.6676 -1.8263 -0.5421
29466SOL    HW292855   9.228  -0.032   9.425 -1.1047  0.8716  0.2754
29467SOL     OW92856   1.971  10.144   3.850  0.4142 -0.3714 -0.2766
29467SOL    HW192857   1.975  10.115   3.759  0.6578  1.7587 -1.0199
29467SOL    HW292858   1.881  10.128   3.877  0.8237 -2.8205 -0.2055
29468SOL     OW92859   7.304   1.434   9.777  0.2320 -0.8603 -0.2042
29468SOL    HW192860   7.255   1.433   9.694 -0.1309  2.3902 -0.1438
29468SOL    HW292861   7.380   1.488   9.758  0.8596 -1.2019  1.2603
29469SOL     OW92862   8.688   5.942   1.858 -0.0477  0.5470 -0.3095
29469SOL    HW192863   8.731   6.017   1.817 -0.4963  0.8835 -0.1759
29469SOL    HW292864   8.660   5.887   1.785  4.5558 -2.0767 -0.4836
29470SOL     OW92865   5.145   5.117   9.222  0.5205 -0.1732  0.6766
29470SOL    HW192866   5.105   5.030   9.216  0.5514 -0.1876  0.6844
29470SOL    HW292867   5.161   5.129   9.315 -0.2014  0.1646  0.7610
29471SOL     OW92868   4.798   6.241   5.860 -0.0896 -1.0891 -0.6032
29471SOL    HW192869   4.765   6.329   5.875  1.1642 -0.8177  0.7527
29471SOL    HW292870   4.766   6.218   5.772 -1.7413  0.0767 -0.3552
29472SOL     OW92871   7.556   9.688   3.123 -0.2215 -0.6002  0.5956
29472SOL    HW192872   7.514   9.738   3.054 -0.2201 -3.7732 -1.9401
29472SOL    HW292873   7.648   9.715   3.120 -0.7134  1.2863  1.3502
29473SOL     OW92874  10.705   0.773   2.379  0.0733  0.2436 -0.1725
29473SOL    HW192875  10.725   0.864   2.359  0.4023 -0.0579 -1.3313
29473SOL    HW292876  10.790   0.734   2.402 -0.2214  0.4536  1.3767
29474SOL     OW92877   2.772   7.552   1.512  0.0355  0.3695  0.9564
29474SOL    HW192878   2.809   7.477   1.559 -0.6770 -1.8947 -1.8166
29474SOL    HW292879   2.847   7.593   1.469  0.2289  0.2253  1.1568
29475SOL     OW92880   7.541   3.662  10.079 -0.2528 -0.0128  0.2297
29475SOL    HW192881   7.502   3.578  10.052 -0.5056  0.5020 -1.0863
29475SOL    HW292882   7.477   3.699  10.140 -2.2251  1.0889 -2.3489
29476SOL     OW92883   1.110   0.588   6.929 -0.0386 -0.3106  1.0427
29476SOL    HW192884   1.025   0.552   6.906  1.0580 -2.3519 -0.1257
29476SOL    HW292885   1.151   0.522   6.985  1.9894 -0.9995 -1.0678
29477SOL     OW92886   4.612   3.562   8.030  0.2063 -0.2393 -0.1087
29477SOL    HW192887   4.639   3.631   8.091  1.3467 -1.5318  0.9282
29477SOL    HW292888   4.693   3.512   8.013 -0.9115 -2.4786  0.7473
29478SOL     OW92889   6.492   6.726   2.402  0.1880 -0.8853 -0.0212
29478SOL    HW192890   6.493   6.814   2.440 -0.4446 -1.8653  2.4675
29478SOL    HW292891   6.406   6.691   2.424  0.0628 -1.8071 -1.8244
29479SOL     OW92892   8.652   0.484   3.243 -0.1591  0.3150 -0.2166
29479SOL    HW192893   8.646   0.396   3.279  0.2040 -0.0201 -0.9514
29479SOL    HW292894   8.564   0.520   3.252 -0.6215 -0.5775 -1.0550
29480SOL     OW92895   5.100   8.934   1.662 -0.1169 -0.7102  0.1029
29480SOL    HW192896   5.099   9.022   1.699 -3.2920 -0.3315 -0.6606
29480SOL    HW292897   5.102   8.876   1.738  1.6903 -0.0709  0.6109
29481SOL     OW92898   8.154   8.064   7.121  0.1795  0.3922  0.5814
29481SOL    HW192899   8.165   8.104   7.034  0.1608 -0.5479  0.1342
29481SOL    HW292900   8.237   8.082   7.165  0.3986  0.4031  0.1741
29482SOL     OW92901   6.925  10.256   0.579  0.0911 -0.3637 -0.6321
29482SOL    HW192902   6.846  10.237   0.630  0.9998 -0.5107  0.7616
29482SOL    HW292903   6.981  10.179   0.591  0.8516  0.1449 -0.8149
29483SOL     OW92904   9.763   2.216   4.863 -0.6384 -0.6373 -0.3714
29483SOL    HW192905   9.808   2.299   4.850 -2.2680  0.2214 -0.7544
29483SOL    HW292906   9.747   2.211   4.957  1.2656 -1.5323 -0.0511
29484SOL     OW92907   4.031   5.876   1.756 -0.0168 -0.3567  0.0934
29484SOL    HW192908   3.955   5.837   1.713 -0.8059 -0.1742  1.2797
29484SOL    HW292909   4.085   5.910   1.684 -0.7623 -1.0169 -0.7877
29485SOL     OW92910   3.017   1.985   3.668 -0.3196  0.1650  0.0982
29485SOL    HW192911   2.961   1.969   3.744  1.6584 -1.8732  1.2402
29485SOL    HW292912   2.982   1.928   3.600 -0.7786  0.3418  0.1840
29486SOL     OW92913   1.965  10.464   6.461 -0.0502  0.0772  0.1244
29486SOL    HW192914   1.909  10.497   6.532 -0.3108  2.4203 -1.0794
29486SOL    HW292915   2.027  10.406   6.505  0.6376  2.4366  2.5166
29487SOL     OW92916  10.951   9.811   2.739 -0.2512 -0.4355  0.3304
29487SOL    HW192917  10.904   9.861   2.673  0.6331 -2.7037 -2.2285
29487SOL    HW292918  10.885   9.753   2.777 -0.3703 -0.6816 -0.2330
29488SOL     OW92919   7.885   9.854   0.471  0.1474  0.1583  0.5378
29488SOL    HW192920   7.892   9.803   0.390  0.6130  1.1243 -0.0572
29488SOL    HW292921   7.947   9.812   0.531 -0.1076 -0.4908  0.3560
29489SOL     OW92922   4.931  10.448   4.007  0.7531  0.0544 -0.0754
29489SOL    HW192923   4.960  10.371   3.959 -0.6231 -1.1728  0.9804
29489SOL    HW292924   4.914  10.514   3.939  0.8930 -0.9324 -1.0874
29490SOL     OW92925   9.155   1.725   8.020  0.6553  0.1611 -0.1337
29490SOL    HW192926   9.213   1.657   7.988  0.6709  0.5155 -0.8789
29490SOL    HW292927   9.088   1.735   7.952 -0.0031  0.0993  0.4842
29491SOL     OW92928   3.722   0.385   0.694  0.2898  0.5341 -0.6771
29491SOL    HW192929   3.680   0.384   0.608  1.3023 -0.3792 -1.1917
29491SOL    HW292930   3.653   0.358   0.755 -0.0100 -0.4771 -1.4332
29492SOL     OW92931   9.778   1.232   5.416 -0.1488  0.4826  0.2578
29492SOL    HW192932   9.795   1.280   5.497  0.1765  0.7297  0.0526
29492SOL    HW292933   9.732   1.153   5.443  1.0155 -0.0359  0.8283
29493SOL     OW92934   8.715   4.238   3.290  0.3077  0.1681 -0.1574
29493SOL    HW192935   8.685   4.204   3.206  1.1229 -0.3298 -0.2544
29493SOL    HW292936   8.644   4.219   3.351 -0.6829  1.3372 -0.9044
29494SOL     OW92937  10.996   4.510   9.013 -0.1923 -0.3600 -0.2905
29494SOL    HW192938  10.983   4.603   8.993 -0.5391 -0.6580 -1.5382
29494SOL    HW292939  11.089   4.494   8.995  1.0082  0.6177  3.8393
29495SOL     OW92940   2.736   3.580   6.217 -0.8516  0.0130  0.3309
29495SOL    HW192941   2.679   3.525   6.271 -0.5106 -0.8662 -0.1878
29495SOL    HW292942   2.733   3.666   6.259 -2.7085  0.0428  0.1898
29496SOL     OW92943  10.972   7.835   1.482  0.2098 -0.0023  0.6218
29496SOL    HW192944  10.997   7.743   1.471 -0.3356 -0.4149  2.5139
29496SOL    HW292945  11.046   7.884   1.447  1.0818 -1.1655  0.7684
29497SOL     OW92946   3.980   9.776   3.493 -0.2681 -0.2942  0.2033
29497SOL    HW192947   3.971   9.825   3.575 -1.7341 -2.7690  1.6584
29497SOL    HW292948   3.896   9.733   3.481  0.9496 -2.6118 -0.7974
29498SOL     OW92949   9.856   3.062   5.858  0.4714 -0.3909 -0.4107
29498SOL    HW192950   9.867   3.077   5.764  0.6590 -1.1049 -0.5154
29498SOL    HW292951   9.833   2.969   5.864  1.1474 -0.5240  0.2950
29499SOL     OW92952   5.976   1.702   1.739 -0.7013 -0.4156 -0.1729
29499SOL    HW192953   5.979   1.795   1.714  0.9767 -0.5959 -0.7998
29499SOL    HW292954   6.045   1.661   1.686  1.7805 -1.1967  3.2779
29500SOL     OW92955   8.734   1.784   9.212  0.2445 -0.1336 -0.3365
29500SOL    HW192956   8.671   1.796   9.283  0.0662 -0.7801 -0.3760
29500SOL    HW292957   8.685   1.802   9.132  0.1354 -0.5244 -0.3601
29501SOL     OW92958   3.590   5.202   1.789 -0.4342  0.3370 -0.3939
29501SOL    HW192959   3.622   5.287   1.759 -1.1201  0.4251 -0.9056
29501SOL    HW292960   3.669   5.149   1.802 -0.0733  0.6032 -1.4353
29502SOL     OW92961   3.310   1.063   3.483  0.1511 -0.5180  0.0385
29502SOL    HW192962   3.301   1.140   3.539  1.2371 -0.6025  0.3688
29502SOL    HW292963   3.237   1.007   3.508  1.2730 -1.1187  2.3593
29503SOL     OW92964   9.159   2.776   9.470 -0.2065 -0.1447  0.3191
29503SOL    HW192965   9.127   2.866   9.468 -0.6036 -0.2933 -1.8990
29503SOL    HW292966   9.247   2.781   9.432  0.2575 -0.5524  1.2902
29504SOL     OW92967   5.054   2.195   2.324  0.0489  0.7139 -0.2205
29504SOL    HW192968   5.033   2.124   2.385  2.8269  0.2664  0.3247
29504SOL    HW292969   4.972   2.244   2.316 -1.5038 -1.5641  0.6870
29505SOL     OW92970   4.930   8.798   6.235  0.7285  0.3548 -0.4866
29505SOL    HW192971   4.852   8.843   6.202  0.8194  1.7519  1.0886
29505SOL    HW292972   5.000   8.863   6.229  1.5066 -0.4840 -0.7384
29506SOL     OW92973   9.667   8.115   3.381 -0.3035 -0.5131 -0.8357
29506SOL    HW192974   9.579   8.099   3.348 -0.2643  1.4051 -1.9910
29506SOL    HW292975   9.678   8.051   3.452 -2.4399 -1.0714 -0.9504
29507SOL     OW92976  10.143   3.972   6.184  0.6040  0.6226 -0.0337
29507SOL    HW192977  10.133   4.055   6.230 -0.7385  0.3311  0.2614
29507SOL    HW292978  10.079   3.975   6.113  0.4455 -0.2059  0.0579
29508SOL     OW92979   3.865  10.287   9.526 -0.5244  0.2703 -0.6749
29508SOL    HW192980   3.772  10.309   9.515 -1.0162 -0.6632  1.2426
29508SOL    HW292981   3.874  10.267   9.619  1.5852  0.1769 -0.8583
29509SOL     OW92982   0.905   5.448   9.542  0.2315 -0.0899 -0.3317
29509SOL    HW192983   0.826   5.499   9.558  0.5000  0.2619 -0.1292
29509SOL    HW292984   0.958   5.502   9.483  0.6045 -0.0442  0.0379
29510SOL     OW92985   3.054   3.773   0.606  0.0813 -0.3795 -0.3837
29510SOL    HW192986   3.087   3.782   0.517  1.0082 -0.6754 -0.0836
29510SOL    HW292987   3.112   3.827   0.659  0.7854 -1.7575  0.3105
29511SOL     OW92988   9.742   3.422  10.622  0.1740  0.1178  0.1721
29511SOL    HW192989   9.704   3.425  10.709 -0.9924 -2.3519 -0.1716
29511SOL    HW292990   9.812   3.358  10.628  0.0492 -0.1149 -0.7017
29512SOL     OW92991   4.263   1.429   9.975 -0.1990 -0.0149  0.2363
29512SOL    HW192992   4.296   1.361  10.033 -1.2934 -0.2863  0.5782
29512SOL    HW292993   4.172   1.403   9.958  0.6035 -1.0695 -3.2585
29513SOL     OW92994   1.806   5.044   2.792  0.0090  0.1333 -0.5506
29513SOL    HW192995   1.811   5.131   2.753 -0.9244 -0.2844 -1.6719
29513SOL    HW292996   1.895   5.009   2.784  0.2107  0.6969 -0.7854
29514SOL     OW92997   9.850   9.434   3.786  0.1729  0.0341  0.2179
29514SOL    HW192998   9.871   9.346   3.818  2.1013  0.9159  1.6364
29514SOL    HW292999   9.931   9.465   3.746 -0.0772  1.5909  0.8264
29515SOL     OW93000  10.846  11.069   9.551  0.1769  0.9021 -0.9011
29515SOL    HW193001  10.789  11.140   9.577 -0.2239  0.0260  0.7543
29515SOL    HW293002  10.889  11.100   9.472 -0.4389  2.7172 -0.5608
29516SOL     OW93003   8.112   1.558   3.588 -0.0332  0.6109 -0.0212
29516SOL    HW193004   8.190   1.566   3.642  2.0709 -1.3661 -2.5474
29516SOL    HW293005   8.060   1.490   3.631  1.7529 -1.1648 -0.5613
29517SOL     OW93006   6.895   2.274   1.614  0.3916 -0.2629  0.4967
29517SOL    HW193007   6.939   2.325   1.546 -0.2644 -0.9353 -0.4617
29517SOL    HW293008   6.949   2.196   1.624  0.3103 -0.3159  0.5193
29518SOL     OW93009   4.230   2.238   3.919  0.0026  0.6375  0.5965
29518SOL    HW193010   4.161   2.223   3.984 -2.2122 -1.3194 -1.9477
29518SOL    HW293011   4.226   2.332   3.900  0.3938  1.1616  2.8267
29519SOL     OW93012   6.852   9.112   6.125 -0.6768 -0.2125  0.4410
29519SOL    HW193013   6.768   9.091   6.084 -1.0236 -3.0428  2.3532
29519SOL    HW293014   6.916   9.101   6.054 -1.7645  1.3512 -0.8716
29520SOL     OW93015   3.384   5.871   6.089  0.7657 -0.1999  0.1180
29520SOL    HW193016   3.308   5.898   6.038  0.2482 -2.4509 -0.4272
29520SOL    HW293017   3.411   5.950   6.136 -1.2085  0.9410 -0.5442
29521SOL     OW93018   1.291   9.883   1.899 -0.0893 -0.1402 -0.1931
29521SOL    HW193019   1.240   9.963   1.887 -1.3038 -0.8247  0.1624
29521SOL    HW293020   1.241   9.833   1.964  0.9038 -0.9724 -0.0512
29522SOL     OW93021   7.225   0.021   0.986 -0.4967 -0.6110  0.2058
29522SOL    HW193022   7.222  -0.035   1.064 -0.3096 -1.0411 -0.0912
29522SOL    HW293023   7.199   0.107   1.018 -0.0999 -0.7081  0.8108
29523SOL     OW93024   3.999  11.038   7.147 -0.5891  0.0087  0.5385
29523SOL    HW193025   4.036  10.952   7.168  1.5210  0.5680 -0.6136
29523SOL    HW293026   4.019  11.091   7.224  0.4970  0.1265  0.1995
29524SOL     OW93027   9.542  10.165   1.726 -0.2643  0.1096  1.0347
29524SOL    HW193028   9.507  10.253   1.713  0.2143  0.1529 -0.0598
29524SOL    HW293029   9.565  10.163   1.819 -1.6961  0.5978  1.4404
29525SOL     OW93030   0.562   2.887   0.008 -0.1892  0.3756  0.5500
29525SOL    HW193031   0.595   2.909  -0.080 -0.9609  0.4547  0.2728
29525SOL    HW293032   0.639   2.858   0.056  0.4509  1.4868  0.2146
29526SOL     OW93033   8.510   3.069   8.902 -0.2639  0.1666 -0.2276
29526SOL    HW193034   8.478   2.983   8.930  1.0296 -0.4962 -0.6716
29526SOL    HW293035   8.531   3.057   8.809  1.2476  0.5237  0.0397
29527SOL     OW93036   0.670   7.910   5.876  0.1899 -0.0468 -0.0075
29527SOL    HW193037   0.756   7.950   5.893 -0.8035  1.4805  1.7590
29527SOL    HW293038   0.624   7.918   5.960 -1.5408 -1.2014 -0.8223
29528SOL     OW93039   5.090  10.682   9.352  0.5274  0.5213 -0.0468
29528SOL    HW193040   5.049  10.662   9.268  1.6959 -1.6925 -0.1729
29528SOL    HW293041   5.133  10.767   9.339  1.1903 -0.0651 -1.9017
29529SOL     OW93042   7.030   4.021   0.761  0.0489 -0.0653 -0.0163
29529SOL    HW193043   7.027   4.008   0.666  1.3470 -1.1201  0.0597
29529SOL    HW293044   7.124   4.025   0.781 -0.1317  3.9462  0.7748
29530SOL     OW93045   9.003   4.609   7.880  0.6870 -0.1805  0.5392
29530SOL    HW193046   9.062   4.679   7.908  0.6476 -0.4264  1.2532
29530SOL    HW293047   8.948   4.649   7.812  1.7675  0.0065 -0.2587
29531SOL     OW93048   7.614   6.501   3.544 -0.0804  0.2746 -0.4504
29531SOL    HW193049   7.654   6.481   3.459  1.6784 -0.2043  0.4395
29531SOL    HW293050   7.552   6.430   3.559  1.0239 -0.7357 -0.4815
29532SOL     OW93051   4.290   7.438   9.082 -0.3822  0.3382  0.2878
29532SOL    HW193052   4.231   7.508   9.111  0.5422  1.1464  0.2862
29532SOL    HW293053   4.274   7.366   9.143 -2.5227 -0.0921 -0.6789
29533SOL     OW93054   4.637   8.956   3.847  0.4896  0.2018 -0.5345
29533SOL    HW193055   4.590   9.021   3.794 -1.2109  0.4820  1.2090
29533SOL    HW293056   4.598   8.872   3.822  1.6255 -0.0234 -1.6732
29534SOL     OW93057   2.203  10.465   1.642  0.2755  0.3752 -0.2539
29534SOL    HW193058   2.147  10.399   1.601 -0.3246  1.7103 -1.7115
29534SOL    HW293059   2.141  10.527   1.682  0.4354  2.9060 -3.4862
29535SOL     OW93060   7.363   1.214   9.932 -0.0137 -0.2687 -0.2421
29535SOL    HW193061   7.284   1.197   9.984  0.4568 -2.6577 -0.1727
29535SOL    HW293062   7.341   1.290   9.879 -2.5142 -1.0561 -0.4606
29536SOL     OW93063   7.203   4.974   5.726  0.0257  0.0028  0.1241
29536SOL    HW193064   7.108   4.968   5.715  0.1575 -1.2342 -0.4781
29536SOL    HW293065   7.238   4.919   5.656  1.1825  0.2287  0.5162
29537SOL     OW93066   4.795   8.798   4.435 -0.0038 -0.1896 -0.2172
29537SOL    HW193067   4.750   8.838   4.509 -0.0098  0.4161 -0.5424
29537SOL    HW293068   4.780   8.704   4.446  0.0879 -0.1178  0.6077
29538SOL     OW93069   1.422   4.436   4.944  0.1728  0.3594  0.2938
29538SOL    HW193070   1.456   4.391   4.867 -0.2941  1.4179 -0.5501
29538SOL    HW293071   1.329   4.413   4.946  0.4384 -0.7374  1.3270
29539SOL     OW93072   9.372   9.729   0.786 -0.0625 -0.0858 -0.2479
29539SOL    HW193073   9.365   9.634   0.780  0.1989 -0.0401 -1.5632
29539SOL    HW293074   9.334   9.751   0.871 -0.0641 -1.3670  0.0968
29540SOL     OW93075   6.880  10.777   4.996  0.0112 -0.4687 -0.0263
29540SOL    HW193076   6.905  10.688   4.972 -0.0861 -0.4073 -0.3621
29540SOL    HW293077   6.784  10.776   4.994 -0.0135 -0.5771  0.7912
29541SOL     OW93078   4.755   0.011   5.609  0.3519 -0.1746  0.4001
29541SOL    HW193079   4.835   0.051   5.576 -0.7122  1.1214 -0.7642
29541SOL    HW293080   4.779  -0.079   5.630  1.6914 -0.3564 -1.6472
29542SOL     OW93081   2.678   7.015   0.929  0.3933  0.2880 -0.2654
29542SOL    HW193082   2.592   7.002   0.969  1.0378  2.3210  2.0152
29542SOL    HW293083   2.704   6.928   0.899 -1.0652 -0.9908  1.9212
29543SOL     OW93084   6.025   8.099   7.234 -0.2951  0.3717  0.2632
29543SOL    HW193085   6.094   8.057   7.285 -0.7954 -1.4771 -0.5262
29543SOL    HW293086   6.058   8.097   7.144 -0.2956  1.8158  0.1983
29544SOL     OW93087   0.825  11.068   7.423 -0.3281  0.4274  0.0010
29544SOL    HW193088   0.778  10.990   7.396 -2.6649  1.4000  0.9580
29544SOL    HW293089   0.899  11.074   7.363 -1.6088 -1.0195 -1.8436
29545SOL     OW93090   5.428   9.636   5.793  0.1532  0.6283 -0.1675
29545SOL    HW193091   5.343   9.679   5.783 -0.9930 -0.6995  2.6248
29545SOL    HW293092   5.457   9.661   5.881  1.3811 -0.9918 -0.0772
29546SOL     OW93093   7.157   8.694   2.683 -0.1226  0.4805  0.0119
29546SOL    HW193094   7.089   8.633   2.712 -0.1052  0.1063 -0.7056
29546SOL    HW293095   7.231   8.637   2.661  0.5856  0.9090  1.1839
29547SOL     OW93096   1.790   1.827   5.356  0.6835 -0.2381  0.5855
29547SOL    HW193097   1.880   1.800   5.373  0.7068 -0.1103  0.6687
29547SOL    HW293098   1.795   1.883   5.279  0.2545 -2.8802 -1.5182
29548SOL     OW93099   1.523   1.742   4.889  0.2774  0.1884  0.1201
29548SOL    HW193100   1.465   1.779   4.957  1.1355  1.7706  0.0336
29548SOL    HW293101   1.601   1.715   4.937  0.3806  0.1309 -0.0809
29549SOL     OW93102  10.309   9.649   0.293  0.5028  0.1455 -0.8972
29549SOL    HW193103  10.310   9.728   0.239  0.8596  0.0222 -1.0717
29549SOL    HW293104  10.278   9.679   0.378  1.3927  0.6242 -0.7355
29550SOL     OW93105   5.377   7.178   6.122  0.4551  0.7811  0.4354
29550SOL    HW193106   5.396   7.114   6.190 -1.8896  0.5350  0.9543
29550SOL    HW293107   5.432   7.153   6.048 -0.1685 -1.6708  0.7361
29551SOL     OW93108   3.414  10.358   4.564 -0.5692  0.5512 -0.1531
29551SOL    HW193109   3.339  10.382   4.510  0.4330 -0.6414 -2.1927
29551SOL    HW293110   3.390  10.273   4.602 -1.2609  1.3756  1.3173
29552SOL     OW93111  10.173   5.745   0.260  0.3597 -0.2223 -0.0935
29552SOL    HW193112  10.262   5.713   0.245  1.0471  1.7039 -0.3643
29552SOL    HW293113  10.160   5.812   0.193 -2.0397 -1.7650 -1.2950
29553SOL     OW93114   9.619   7.733   2.178 -0.0952 -0.5215 -0.3538
29553SOL    HW193115   9.702   7.709   2.138 -0.9523 -3.1380 -0.7551
29553SOL    HW293116   9.640   7.750   2.270  1.4185  2.6838 -1.1725
29554SOL     OW93117   2.792   9.634   9.101 -1.0095  0.3209  0.0411
29554SOL    HW193118   2.868   9.682   9.134 -0.0151 -1.2214  0.0932
29554SOL    HW293119   2.718   9.692   9.119  0.1675  2.0691 -0.4035
29555SOL     OW93120   2.738   1.237   3.058  0.1712 -0.1443  0.4497
29555SOL    HW193121   2.763   1.145   3.063  0.7929  0.0275  0.6226
29555SOL    HW293122   2.737   1.266   3.149  1.7517  0.4654  0.3134
29556SOL     OW93123   7.666   1.505   8.033 -0.2473  0.2433 -0.0676
29556SOL    HW193124   7.574   1.519   8.055 -0.9763  0.6104 -2.8983
29556SOL    HW293125   7.685   1.416   8.063 -0.9306  0.7905  2.1663
29557SOL     OW93126   4.699   8.989  10.499 -0.7667 -0.0767  0.1770
29557SOL    HW193127   4.687   9.038  10.580 -0.4786 -0.7975  0.6633
29557SOL    HW293128   4.794   8.983  10.488 -0.7967  0.9221 -0.7792
29558SOL     OW93129   2.897  10.588   7.726  0.0446 -0.5751  0.2731
29558SOL    HW193130   2.942  10.568   7.808 -2.9037 -1.0304  1.9242
29558SOL    HW293131   2.822  10.529   7.726 -1.5710  1.3692 -1.3807
29559SOL     OW93132   3.357   2.487   5.392  0.1760  0.2334  0.6258
29559SOL    HW193133   3.377   2.471   5.484 -0.2673 -0.1449  0.6587
29559SOL    HW293134   3.349   2.582   5.385 -0.3313  0.2292  1.0936
29560SOL     OW93135   6.475   6.554   7.274 -0.1230 -0.1981 -0.4015
29560SOL    HW193136   6.402   6.585   7.329 -0.4781 -0.2948 -0.8133
29560SOL    HW293137   6.553   6.588   7.318 -0.3977 -0.3013  0.1865
29561SOL     OW93138   0.081   8.488   3.291 -0.3256 -0.1860  0.0848
29561SOL    HW193139   0.116   8.402   3.269  0.5874  0.7353 -2.4595
29561SOL    HW293140   0.136   8.519   3.363  1.2892 -0.5958 -0.9117
29562SOL     OW93141   1.816   1.644   1.591  0.6538 -0.4640 -0.3860
29562SOL    HW193142   1.798   1.691   1.510  0.9963  1.2012  0.4663
29562SOL    HW293143   1.912   1.641   1.596  0.6346 -0.5412 -0.0221
29563SOL     OW93144   9.941   4.769   7.094 -0.1329 -0.1187 -0.2425
29563SOL    HW193145   9.905   4.778   7.182 -1.8618 -1.1691 -0.7838
29563SOL    HW293146   9.948   4.859   7.061  0.7565  0.2921  1.0378
29564SOL     OW93147  10.676  10.204   0.589  0.0192  0.4575 -0.0819
29564SOL    HW193148  10.662  10.188   0.495  0.8393  1.6715 -0.4329
29564SOL    HW293149  10.600  10.165   0.631  0.0154 -0.8060 -1.1827
29565SOL     OW93150   9.890   9.494   7.657  0.0547 -0.2913  0.4288
29565SOL    HW193151   9.899   9.503   7.752 -0.3738 -1.4212  0.5942
29565SOL    HW293152   9.804   9.453   7.645 -0.4649  0.9932 -0.5350
29566SOL     OW93153  10.230   0.435   6.709  0.1134 -0.0203 -0.1187
29566SOL    HW193154  10.139   0.461   6.693 -0.1949  1.4514  3.1856
29566SOL    HW293155  10.227   0.340   6.716 -1.4101  0.0593  0.8919
29567SOL     OW93156   4.024   4.622   7.567 -0.2704  0.1782  0.0465
29567SOL    HW193157   3.953   4.560   7.585  0.8030 -0.8125  0.9562
29567SOL    HW293158   4.094   4.569   7.530 -0.3961  1.3475 -2.0328
29568SOL     OW93159   9.666  11.007   5.684  0.4223 -0.1703 -0.6428
29568SOL    HW193160   9.613  11.018   5.763  0.3071 -0.1641 -0.7224
29568SOL    HW293161   9.655  10.915   5.661  0.5815 -0.2101 -0.5618
29569SOL     OW93162   9.774   0.885   6.097  0.2149  0.4824 -0.2653
29569SOL    HW193163   9.678   0.893   6.098  0.2779  1.2591  0.5020
29569SOL    HW293164   9.805   0.975   6.107  1.0280  0.0633  1.1642
29570SOL     OW93165   2.120   4.887   5.101 -0.2360 -0.1310  0.0061
29570SOL    HW193166   2.202   4.860   5.141 -0.5186 -1.9158 -0.5106
29570SOL    HW293167   2.133   4.870   5.007 -0.2220  2.2619 -0.4974
29571SOL     OW93168  10.995   1.341   3.316  0.2243  0.4351 -0.0338
29571SOL    HW193169  10.967   1.422   3.274  1.0739  0.7590  0.0019
29571SOL    HW293170  10.928   1.323   3.381 -0.2983  0.7628 -0.4702
29572SOL     OW93171   5.356   6.481   3.992  0.2627  0.8874 -0.1665
29572SOL    HW193172   5.281   6.424   4.009 -0.0553  1.6143  0.9895
29572SOL    HW293173   5.417   6.426   3.942  0.4976 -0.9100  1.9340
29573SOL     OW93174   0.137   8.578   4.530 -0.4948  0.2319  0.0810
29573SOL    HW193175   0.091   8.654   4.494  0.6554  0.6753 -0.4756
29573SOL    HW293176   0.121   8.508   4.467 -1.2457  0.0981  0.4086
29574SOL     OW93177   8.166   8.000   7.885 -0.2937  0.4726  0.0455
29574SOL    HW193178   8.213   7.917   7.893 -1.0360  0.0768  0.4772
29574SOL    HW293179   8.234   8.067   7.889  0.1444 -0.0206  1.9298
29575SOL     OW93180   3.178   3.821   8.142  0.0866  0.3042 -0.6243
29575SOL    HW193181   3.237   3.757   8.101 -1.2904 -0.1366 -2.0363
29575SOL    HW293182   3.233   3.898   8.156  1.0518 -0.1421 -1.7489
29576SOL     OW93183   3.053   4.106  10.021 -0.3069 -0.2273  0.1577
29576SOL    HW193184   3.021   4.123   9.932  0.2439  2.5797  0.4220
29576SOL    HW293185   2.990   4.150  10.078  0.2049 -0.6664  1.0947
29577SOL     OW93186   6.531  10.669   6.489 -0.0296  0.1888  0.2259
29577SOL    HW193187   6.562  10.638   6.575 -1.4003  1.0996  1.0796
29577SOL    HW293188   6.588  10.743   6.469  0.2782 -0.0080  0.3562
29578SOL     OW93189   3.531  10.580   6.057 -0.1373 -0.6021  0.1141
29578SOL    HW193190   3.545  10.493   6.095  0.7686 -0.6682 -0.3451
29578SOL    HW293191   3.549  10.570   5.964 -0.2402  0.0325  0.0177
29579SOL     OW93192   2.760   2.982   8.000  0.3922 -0.5250  0.3253
29579SOL    HW193193   2.836   3.028   8.037 -1.0172  0.9062  1.5889
29579SOL    HW293194   2.689   3.046   8.006 -0.8637 -1.7261 -1.0996
29580SOL     OW93195   4.704   3.547   2.678 -0.2747  0.7610 -0.1428
29580SOL    HW193196   4.629   3.519   2.626 -0.9244 -0.1250  1.2009
29580SOL    HW293197   4.778   3.544   2.618 -0.9353 -0.5933 -0.9357
29581SOL     OW93198   5.142  10.396   0.588 -0.0317 -0.0661 -0.0557
29581SOL    HW193199   5.208  10.460   0.563  1.2652 -0.7189  1.5005
29581SOL    HW293200   5.088  10.440   0.653 -0.8002  0.2658 -0.8872
29582SOL     OW93201   9.124   1.767   2.259 -0.2773  0.3771 -0.6571
29582SOL    HW193202   9.166   1.689   2.223 -0.7732 -0.5522  0.6935
29582SOL    HW293203   9.034   1.740   2.276 -0.4935  1.2913 -0.2905
29583SOL     OW93204   4.352   5.437   4.728  0.4053 -0.8196  0.0713
29583SOL    HW193205   4.316   5.350   4.747 -0.5635 -0.7253 -1.2242
29583SOL    HW293206   4.287   5.498   4.761 -0.4054 -0.6440 -1.7264
29584SOL     OW93207   9.491   5.022   9.441  0.3773  0.4357  0.4594
29584SOL    HW193208   9.445   4.975   9.510  1.8904  0.8973  1.8427
29584SOL    HW293209   9.546   4.956   9.398 -0.9744  0.0284 -0.7474
29585SOL     OW93210   7.371   8.213  10.086 -0.3418 -0.2815 -0.3587
29585SOL    HW193211   7.456   8.247  10.060 -0.3893 -0.8222 -1.2675
29585SOL    HW293212   7.343   8.270  10.159  0.6485  0.0785 -0.2484
29586SOL     OW93213   8.282  11.013   8.433 -0.1732  0.2534  0.2098
29586SOL    HW193214   8.255  11.078   8.498 -0.1080  0.2666  0.2244
29586SOL    HW293215   8.333  11.063   8.370  1.5951 -0.1061  1.2721
29587SOL     OW93216   0.562   8.626   1.243 -0.1144  0.1514 -0.5419
29587SOL    HW193217   0.548   8.644   1.336 -2.3283  3.2087 -1.2859
29587SOL    HW293218   0.512   8.547   1.226 -0.6907  0.2390  0.6437
29588SOL     OW93219   1.831  10.252   9.178 -0.0483 -0.1270 -0.2115
29588SOL    HW193220   1.892  10.200   9.126  0.0388  0.2834 -0.5217
29588SOL    HW293221   1.853  10.230   9.269 -0.2899 -0.9380 -0.3423
29589SOL     OW93222  10.536   5.802  10.481  0.2375 -0.4649  0.2135
29589SOL    HW193223  10.556   5.756  10.399  0.0900 -1.1644  0.5602
29589SOL    HW293224  10.609   5.780  10.539  0.6751  0.5584  0.0738
29590SOL     OW93225   4.428   1.097   0.296  0.3746  0.8317 -0.2588
29590SOL    HW193226   4.438   1.017   0.243 -0.0745 -0.1036  1.0225
29590SOL    HW293227   4.514   1.109   0.337  0.4753  1.0799 -0.5394
29591SOL     OW93228   2.059   9.401   8.889  0.0184  0.6640  0.1565
29591SOL    HW193229   2.094   9.313   8.894  1.2228  0.9356 -2.2461
29591SOL    HW293230   2.085   9.442   8.972  0.9938 -0.6824  0.5526
29592SOL     OW93231   9.015   4.783   9.791  0.4023 -0.2485  0.7204
29592SOL    HW193232   9.072   4.761   9.718 -3.1542  2.0792 -3.2529
29592SOL    HW293233   9.034   4.875   9.809  0.3420 -0.4476  1.8745
29593SOL     OW93234   1.829   5.025   2.201  0.2297 -0.2161 -0.2186
29593SOL    HW193235   1.891   4.974   2.253 -2.5055 -1.4676  2.0468
29593SOL    HW293236   1.856   5.009   2.110  2.7933 -1.1871  0.6265
29594SOL     OW93237   8.056   0.813   6.187 -0.0139 -0.2241  0.4970
29594SOL    HW193238   8.093   0.745   6.131 -0.3730  0.3891 -0.5138
29594SOL    HW293239   8.073   0.782   6.276 -0.0138 -1.5475  0.0678
29595SOL     OW93240   7.207   3.973   1.254 -0.6983 -0.1620 -0.4498
29595SOL    HW193241   7.236   3.970   1.346  0.5633  1.2129 -0.7458
29595SOL    HW293242   7.287   3.955   1.204 -1.0488  0.5159 -1.2786
29596SOL     OW93243   8.940   5.003   7.887  0.0924  0.3317 -0.5505
29596SOL    HW193244   9.000   4.983   7.960  1.3400 -1.7547 -2.0420
29596SOL    HW293245   8.914   4.918   7.853 -1.1291  1.2515 -2.0488
29597SOL     OW93246   1.984   1.573   8.529 -0.5851  0.2453 -0.3988
29597SOL    HW193247   2.012   1.623   8.606 -0.7875  0.3747 -0.4060
29597SOL    HW293248   1.970   1.484   8.562 -0.2713  0.2053 -0.3739
29598SOL     OW93249   9.253   1.140   4.494  0.2742 -0.1888  0.1328
29598SOL    HW193250   9.327   1.183   4.452  0.4562 -0.7377 -0.1312
29598SOL    HW293251   9.238   1.189   4.575  0.7895  0.0519  0.0826
29599SOL     OW93252   3.541   8.722   3.774  0.0012 -0.1358 -0.1087
29599SOL    HW193253   3.584   8.808   3.772  2.1232 -1.0426  2.1712
29599SOL    HW293254   3.608   8.662   3.806 -1.4595 -2.6736 -1.4582
29600SOL     OW93255  10.766   7.438   2.860  0.3185 -0.4003  0.3003
29600SOL    HW193256  10.766   7.510   2.924 -1.6083 -0.2811  0.2070
29600SOL    HW293257  10.703   7.375   2.894 -1.4668  0.0658 -1.8581
29601SOL     OW93258   7.153   1.946   0.071  0.2574 -0.4972 -0.4300
29601SOL    HW193259   7.101   1.869   0.092 -0.4715 -0.6081 -2.4399
29601SOL    HW293260   7.188   1.929  -0.017  1.1232  0.9200 -0.3958
29602SOL     OW93261   6.685   5.829   5.361  0.8353  0.7465  0.0339
29602SOL    HW193262   6.639   5.772   5.298  1.4416 -1.0422  1.1488
29602SOL    HW293263   6.756   5.775   5.395 -0.1302  1.2041  3.1094
29603SOL     OW93264   6.980   3.455   1.108 -0.6369  0.7955 -0.4568
29603SOL    HW193265   6.895   3.495   1.090 -1.8574 -0.7789  1.2945
29603SOL    HW293266   6.958   3.371   1.150  1.7769  0.8212  1.0621
29604SOL     OW93267   1.406   5.315   7.741  0.1716  0.2176 -0.4687
29604SOL    HW193268   1.411   5.377   7.813  0.6266 -0.6287  0.2375
29604SOL    HW293269   1.315   5.321   7.710  0.0503  0.7804 -0.0179
29605SOL     OW93270   0.362   5.515   0.392 -0.3248  0.2483  0.1398
29605SOL    HW193271   0.354   5.562   0.309 -1.9307 -0.9820 -0.4604
29605SOL    HW293272   0.434   5.558   0.437  0.8272  0.7281 -2.0384
29606SOL     OW93273   3.547   0.192   7.217 -0.3770 -0.4717 -0.2305
29606SOL    HW193274   3.528   0.103   7.189 -2.6318  0.1608 -0.9120
29606SOL    HW293275   3.602   0.182   7.296 -0.1805 -2.4103 -0.5811
29607SOL     OW93276   9.305   9.601   5.925  0.1727  0.0749  0.1209
29607SOL    HW193277   9.228   9.548   5.906 -0.7495  1.8432 -1.3699
29607SOL    HW293278   9.364   9.585   5.851 -1.0984  2.7659 -1.6364
29608SOL     OW93279   1.768   3.214   5.131 -0.4539  0.3680  0.3752
29608SOL    HW193280   1.806   3.127   5.127 -1.3859 -0.2913  3.3358
29608SOL    HW293281   1.674   3.200   5.125 -0.5695  1.4374 -1.1229
29609SOL     OW93282   2.845   3.215   0.114 -0.5561 -0.1913 -0.3959
29609SOL    HW193283   2.791   3.140   0.138  0.4012 -0.4467  1.0605
29609SOL    HW293284   2.782   3.279   0.079 -1.8149 -0.5381  1.0923
29610SOL     OW93285   5.136   3.846   9.461 -0.5673 -0.0262 -0.3706
29610SOL    HW193286   5.166   3.876   9.375  0.3695  0.9740  0.2783
29610SOL    HW293287   5.091   3.764   9.443  2.6817 -1.7539 -1.4116
29611SOL     OW93288   6.013   5.353   4.038 -0.1499 -0.5691 -0.5134
29611SOL    HW193289   6.040   5.295   3.966 -1.3619 -0.4207 -1.1259
29611SOL    HW293290   5.918   5.342   4.042 -0.0412 -1.1419  1.5930
29612SOL     OW93291   7.155   1.901   5.608 -0.6984  0.3221  0.0144
29612SOL    HW193292   7.149   1.811   5.576  0.5317  0.3814 -0.4366
29612SOL    HW293293   7.085   1.948   5.561 -2.2098 -0.6366  1.2238
29613SOL     OW93294   5.569   2.680   4.226 -0.3020 -0.0275  0.3165
29613SOL    HW193295   5.656   2.719   4.237  0.2154 -0.6425 -1.2883
29613SOL    HW293296   5.515   2.751   4.192 -0.7534  0.6481  2.2938
29614SOL     OW93297   7.018   3.583   2.440 -0.3320 -0.2040  0.1912
29614SOL    HW193298   7.010   3.665   2.488 -0.4179 -0.4453  0.5936
29614SOL    HW293299   6.981   3.517   2.499 -1.3335 -0.3695 -0.5835
29615SOL     OW93300  10.650   7.827   2.850  0.1329  0.3667 -0.5556
29615SOL    HW193301  10.677   7.877   2.773 -1.0452  0.8784 -0.6478
29615SOL    HW293302  10.555   7.833   2.851 -0.1787 -2.7907 -1.1868
29616SOL     OW93303  10.601   1.231   8.857 -0.0674 -0.0206  0.4680
29616SOL    HW193304  10.653   1.211   8.935 -0.1460  1.9470  1.0825
29616SOL    HW293305  10.551   1.151   8.840  0.7848 -0.8700  1.7424
29617SOL     OW93306   4.211   1.529   8.693  0.2611  0.1474  0.0642
29617SOL    HW193307   4.157   1.486   8.758  0.0798  0.3523  0.0497
29617SOL    HW293308   4.277   1.577   8.745 -0.2586  0.8123  0.1218
29618SOL     OW93309   4.870   7.321   3.186 -0.0844 -0.0728 -0.4264
29618SOL    HW193310   4.851   7.240   3.140  0.2168  0.4388 -1.4910
29618SOL    HW293311   4.954   7.304   3.229 -0.2836 -0.5000 -0.1992
29619SOL     OW93312   7.828  10.219   2.434 -0.1022 -0.0603  0.0135
29619SOL    HW193313   7.857  10.131   2.410 -0.0415 -0.2532  0.7576
29619SOL    HW293314   7.907  10.273   2.430  0.4604 -0.6235  2.2219
29620SOL     OW93315   4.064   6.260   9.624 -0.4235  0.3048  0.4689
29620SOL    HW193316   4.150   6.258   9.667  0.0185 -0.3627 -0.3913
29620SOL    HW293317   4.031   6.171   9.632  0.0139 -0.0406 -1.1877
29621SOL     OW93318   9.363   2.330   2.883  0.1813  0.4933  0.3072
29621SOL    HW193319   9.430   2.277   2.839  1.4440  2.1116  0.1796
29621SOL    HW293320   9.360   2.411   2.833  1.0691  2.0713  2.6429
29622SOL     OW93321   9.047   0.980   2.190  0.3320 -0.0174  0.0908
29622SOL    HW193322   9.104   0.958   2.116  0.3178  1.1905 -0.3007
29622SOL    HW293323   9.102   0.970   2.267  0.6088 -0.4283 -0.1572
29623SOL     OW93324   2.858   6.295  10.627 -0.4377 -0.3940 -0.1054
29623SOL    HW193325   2.861   6.261  10.537 -1.6791  1.4757 -0.9354
29623SOL    HW293326   2.828   6.386  10.616  0.5600  0.2543  2.1249
29624SOL     OW93327   5.557   6.664   5.332 -0.2695 -0.0410  0.2022
29624SOL    HW193328   5.593   6.714   5.258 -2.1485  1.9481  0.5433
29624SOL    HW293329   5.562   6.573   5.303 -0.3429  0.6174 -2.1393
29625SOL     OW93330   8.856   4.660   6.815 -0.1323 -0.0191  0.1391
29625SOL    HW193331   8.863   4.694   6.904  0.8381  1.6090 -0.5030
29625SOL    HW293332   8.876   4.736   6.759  2.7107 -1.7080 -1.3960
29626SOL     OW93333   8.455   1.581   4.493 -0.0456 -0.6728  0.1911
29626SOL    HW193334   8.548   1.566   4.510 -0.2032 -1.2496  0.5489
29626SOL    HW293335   8.409   1.522   4.553 -0.6348 -1.1708 -0.7345
29627SOL     OW93336   3.260   5.838   0.610 -0.3983  0.4227 -0.2466
29627SOL    HW193337   3.208   5.821   0.532  0.6912  0.0290 -0.9030
29627SOL    HW293338   3.342   5.791   0.596 -0.5159 -0.3927  1.5221
29628SOL     OW93339   2.465   2.593   1.320 -0.2766  0.0488  0.2254
29628SOL    HW193340   2.373   2.619   1.322  0.5560  3.3245  0.6386
29628SOL    HW293341   2.497   2.620   1.234  0.2105 -1.6684 -0.1817
29629SOL     OW93342   3.800   2.740   8.040 -0.9129 -0.4007 -0.1279
29629SOL    HW193343   3.833   2.829   8.052 -1.5419 -0.0496 -0.9466
29629SOL    HW293344   3.850   2.705   7.967  0.4596 -1.3140  1.1736
29630SOL     OW93345   7.125   4.804   3.001 -0.2866  0.1556  0.1472
29630SOL    HW193346   7.069   4.743   2.953  0.3826 -0.7785  0.5253
29630SOL    HW293347   7.200   4.817   2.943 -0.3531  0.5011  0.1377
29631SOL     OW93348   2.477   2.107  10.957  0.3065 -0.4545  0.4435
29631SOL    HW193349   2.544   2.091  11.023  1.0624  2.2809  0.4567
29631SOL    HW293350   2.501   2.192  10.919 -1.4806 -0.8086 -1.6563
29632SOL     OW93351   0.612   8.557   9.504 -0.2465 -0.2151  0.2362
29632SOL    HW193352   0.621   8.653   9.509 -0.9622 -0.1904  1.1881
29632SOL    HW293353   0.699   8.524   9.526  0.1803  0.2150 -0.7362
29633SOL     OW93354  11.034   9.945   0.169  0.1289  0.1003  0.4030
29633SOL    HW193355  10.993   9.859   0.161 -0.4333  0.3319  0.7742
29633SOL    HW293356  11.040   9.978   0.080 -0.0998 -0.1130  0.3091
29634SOL     OW93357  10.423   8.125  10.902  0.1813 -0.4454  0.2092
29634SOL    HW193358  10.438   8.042  10.948 -2.0343 -0.5823  0.7839
29634SOL    HW293359  10.347   8.107  10.846 -1.4188  1.6319  1.5887
29635SOL     OW93360   8.879   5.093   0.217  0.0544  0.1349  0.4346
29635SOL    HW193361   8.918   5.055   0.296  0.1934  0.3566  0.4728
29635SOL    HW293362   8.955   5.113   0.161 -0.0790 -0.7841 -0.1012
29636SOL     OW93363   6.064   6.008   8.303  0.3396  0.2747 -0.1145
29636SOL    HW193364   6.069   5.921   8.344  0.1166 -1.0735 -2.7533
29636SOL    HW293365   6.143   6.015   8.251 -0.6820  0.6723 -1.6936
29637SOL     OW93366   7.855   3.006   0.340  0.0662 -0.0391  0.2569
29637SOL    HW193367   7.859   3.060   0.261  2.8367 -0.5678 -0.0582
29637SOL    HW293368   7.934   3.029   0.389 -0.7394 -0.9412  2.0705
29638SOL     OW93369  10.099   9.325   8.502  0.1104  0.3214 -0.0200
29638SOL    HW193370  10.089   9.414   8.470  0.3456  0.6212  0.7180
29638SOL    HW293371  10.147   9.280   8.433  0.4434  0.9015 -0.1704
29639SOL     OW93372   1.376   1.990   9.860 -0.0729  0.1544  0.6753
29639SOL    HW193373   1.341   2.079   9.867  0.5224  0.4275  0.2722
29639SOL    HW293374   1.299   1.933   9.860 -0.8924  0.8927 -3.4549
29640SOL     OW93375   4.652   7.439   0.948  0.3599  0.8004 -0.0177
29640SOL    HW193376   4.646   7.386   0.868  1.7759  0.8961 -0.1988
29640SOL    HW293377   4.565   7.478   0.956 -0.4910 -0.9458 -0.2884
29641SOL     OW93378  10.103  10.569   4.510 -0.3793  0.3174 -0.0450
29641SOL    HW193379  10.063  10.570   4.597  1.5336  1.4260  0.8932
29641SOL    HW293380  10.181  10.514   4.519  0.6096  1.5623 -0.6360
29642SOL     OW93381   7.422   6.011   4.071 -0.3349 -0.2914  0.5035
29642SOL    HW193382   7.466   6.092   4.048  1.2954 -0.8637  1.4839
29642SOL    HW293383   7.357   5.998   4.001 -0.6251  1.8145  0.3384
29643SOL     OW93384   3.409  10.268   1.906 -0.5238  0.4650 -0.0420
29643SOL    HW193385   3.463  10.346   1.907 -0.3950  0.3759  0.5987
29643SOL    HW293386   3.433  10.223   1.825  1.4625 -0.3142  0.9077
29644SOL     OW93387   8.783   9.602   4.796  0.2514  0.0626 -0.0863
29644SOL    HW193388   8.741   9.551   4.727  1.0925  0.7894 -1.1752
29644SOL    HW293389   8.873   9.569   4.798  0.1403 -0.1965  0.9192
29645SOL     OW93390  10.048   2.151   3.048  0.5131  0.0764  0.5334
29645SOL    HW193391  10.037   2.245   3.033 -0.1381 -0.1113 -0.2606
29645SOL    HW293392   9.984   2.130   3.115  0.1858  0.0759  0.2209
29646SOL     OW93393   4.009   7.349   1.744 -0.5765  0.3036 -0.1972
29646SOL    HW193394   4.047   7.283   1.803 -0.3266 -0.2744 -0.9935
29646SOL    HW293395   4.083   7.405   1.720 -0.8739  1.1801  0.8460
29647SOL     OW93396   1.712   8.736   5.558  0.3471 -0.4357 -0.1277
29647SOL    HW193397   1.758   8.749   5.475  1.0951 -2.3066 -0.0615
29647SOL    HW293398   1.723   8.819   5.605  2.1621 -0.2151 -0.8543
29648SOL     OW93399   5.244   8.058   7.570  0.0455 -0.2501 -0.1020
29648SOL    HW193400   5.149   8.059   7.578  0.1267 -0.0217  1.1027
29648SOL    HW293401   5.268   8.150   7.559  0.0513 -0.4293 -1.9543
29649SOL     OW93402   8.070  10.902   1.277  0.0511  0.4171  0.4876
29649SOL    HW193403   8.139  10.882   1.213  0.9146 -0.8457  1.7538
29649SOL    HW293404   8.117  10.936   1.353 -1.0447  2.8871  0.1605
29650SOL     OW93405   2.787   3.841   0.658  0.0506 -0.2636  0.1259
29650SOL    HW193406   2.880   3.829   0.639  0.0939 -0.4585  0.4428
29650SOL    HW293407   2.742   3.822   0.575  0.4254  2.0312 -0.6649
29651SOL     OW93408   0.341   4.053   1.444 -0.0639 -0.2607 -0.5082
29651SOL    HW193409   0.291   4.101   1.378 -1.1581 -1.0008 -0.2424
29651SOL    HW293410   0.312   4.089   1.528  0.2455 -0.3267 -0.3693
29652SOL     OW93411   6.159   8.835   3.258 -0.0877 -0.4450 -0.4846
29652SOL    HW193412   6.201   8.813   3.175  0.7935  1.2370 -0.5351
29652SOL    HW293413   6.084   8.890   3.233 -0.5319 -0.9265 -0.2258
29653SOL     OW93414   0.714  10.085   2.762 -0.3526  0.0235 -0.5636
29653SOL    HW193415   0.691   9.992   2.766 -1.3060  0.2352 -0.8023
29653SOL    HW293416   0.779  10.091   2.692  1.5940 -0.8055  1.0598
29654SOL     OW93417  10.475  10.573   2.530  0.0640 -0.5567  0.4191
29654SOL    HW193418  10.455  10.602   2.619  1.6487 -2.2952  1.3997
29654SOL    HW293419  10.390  10.556   2.490 -0.7310  1.3918  1.1355
29655SOL     OW93420   0.249   6.056   1.334 -0.3028 -0.2533 -0.4656
29655SOL    HW193421   0.275   6.014   1.252  1.4216 -0.3731  0.1095
29655SOL    HW293422   0.281   6.146   1.326  0.5616 -0.4708  0.3627
29656SOL     OW93423   2.729   7.524   3.228  0.7105  0.6605 -0.3138
29656SOL    HW193424   2.646   7.523   3.181  0.4923 -0.1568  0.0621
29656SOL    HW293425   2.705   7.542   3.319  0.7426 -1.2191  0.1016
29657SOL     OW93426   3.058   1.921   3.201  0.0529  0.0563  0.3741
29657SOL    HW193427   3.062   2.000   3.148  2.8792 -0.4015 -0.2619
29657SOL    HW293428   3.007   1.859   3.148 -0.2891  0.7573 -0.1239
29658SOL     OW93429   1.800   7.405   9.605  0.2253 -0.2476 -0.2999
29658SOL    HW193430   1.746   7.408   9.526 -0.2987  0.2841  0.0787
29658SOL    HW293431   1.882   7.365   9.576 -0.5068 -1.4283 -0.7903
29659SOL     OW93432   3.850   6.694   4.490  0.2876 -0.0398  0.1627
29659SOL    HW193433   3.765   6.734   4.506 -0.0402 -0.9524  0.7955
29659SOL    HW293434   3.831   6.601   4.477  1.1681 -0.2326  0.1533
29660SOL     OW93435   0.704   4.720   8.213 -0.0846 -0.4433  0.0147
29660SOL    HW193436   0.627   4.672   8.183 -0.2389  0.7800 -1.6907
29660SOL    HW293437   0.713   4.793   8.152  1.4032  0.4712  1.2313
29661SOL     OW93438   4.638   1.911   9.804  0.6387  0.0948  0.1941
29661SOL    HW193439   4.573   1.965   9.849 -0.0887 -0.1223 -0.5762
29661SOL    HW293440   4.651   1.837   9.863 -1.6462 -1.1153 -0.6813
29662SOL     OW93441   5.910   2.794   0.235  0.0948 -0.0325 -0.0219
29662SOL    HW193442   5.873   2.829   0.154 -0.0844  2.9243  1.1768
29662SOL    HW293443   5.912   2.700   0.223  0.0773  0.3008 -3.4382
29663SOL     OW93444   7.539   6.628  10.782  0.3631 -0.5936 -0.0861
29663SOL    HW193445   7.501   6.697  10.727  0.4242  1.2645  2.0795
29663SOL    HW293446   7.625   6.661  10.806  0.3953 -1.4292  1.0006
29664SOL     OW93447   6.811   7.624   0.939  0.0050 -0.2358  0.0364
29664SOL    HW193448   6.771   7.634   1.026  1.6208 -0.4049  0.8455
29664SOL    HW293449   6.742   7.587   0.885 -0.9601 -0.4110  1.3348
29665SOL     OW93450   0.112   5.028   5.258 -0.0155 -0.5015  0.2924
29665SOL    HW193451   0.103   4.995   5.169 -0.9606  0.3191  0.0610
29665SOL    HW293452   0.058   5.107   5.260  3.0429  1.7383  0.4772
29666SOL     OW93453   2.427   4.303   6.783 -0.1774 -0.1253  0.4088
29666SOL    HW193454   2.376   4.357   6.843 -1.2084  0.1527 -0.6796
29666SOL    HW293455   2.376   4.222   6.773  1.0355 -1.0623  1.5270
29667SOL     OW93456   2.979   9.025   8.891 -0.5588  0.2501  0.0066
29667SOL    HW193457   3.019   9.048   8.807 -1.6722 -0.9654 -0.9084
29667SOL    HW293458   2.886   9.046   8.879 -1.2804 -2.6437 -0.1846
29668SOL     OW93459   3.665   9.014   0.128  0.2069 -0.2218  0.1641
29668SOL    HW193460   3.603   8.945   0.150 -0.9669  0.4386 -0.9549
29668SOL    HW293461   3.726   8.973   0.067 -1.6416  0.1438 -2.0777
29669SOL     OW93462   2.211   6.887   0.870 -0.0588 -0.1560 -0.7922
29669SOL    HW193463   2.159   6.960   0.838 -1.3907 -1.0773 -0.8000
29669SOL    HW293464   2.291   6.928   0.904 -0.4737  1.2240 -1.3914
29670SOL     OW93465  10.002  10.574   0.242  0.2342 -0.1662  0.0058
29670SOL    HW193466   9.989  10.572   0.147 -1.5468 -0.5918  0.2262
29670SOL    HW293467  10.091  10.607   0.253 -0.1747  1.7960 -1.7652
29671SOL     OW93468   7.984   8.548  10.647 -0.5134  0.1666 -0.1081
29671SOL    HW193469   7.966   8.628  10.598  0.0740 -1.0160 -2.4493
29671SOL    HW293470   7.914   8.542  10.711 -1.7943  1.4498 -1.3310
29672SOL     OW93471   0.576   4.693   3.433  0.4996 -0.1068  0.3306
29672SOL    HW193472   0.618   4.633   3.495 -0.6295 -1.8324 -0.4791
29672SOL    HW293473   0.488   4.657   3.423  0.2166  0.9522 -1.2124
29673SOL     OW93474  10.831   2.557   6.834  0.0729  0.0343  0.3437
29673SOL    HW193475  10.826   2.587   6.924 -0.1920  0.7404  0.1060
29673SOL    HW293476  10.750   2.510   6.819 -0.9675  1.9096 -0.1997
29674SOL     OW93477   0.695   0.859   5.137  0.6794  0.2014  0.1586
29674SOL    HW193478   0.750   0.811   5.075 -0.8944  0.4654 -1.5245
29674SOL    HW293479   0.721   0.951   5.126  1.0378  0.1555  0.5885
29675SOL     OW93480  10.564   5.042   3.759 -0.6954  0.3332 -0.6888
29675SOL    HW193481  10.625   5.077   3.824  1.7193 -1.3490 -1.8731
29675SOL    HW293482  10.551   5.114   3.697 -0.7778  1.0656  0.1658
29676SOL     OW93483   7.397   1.284   5.458 -0.1549 -0.4584  0.1222
29676SOL    HW193484   7.343   1.291   5.379 -2.2415  0.2286  1.5495
29676SOL    HW293485   7.383   1.195   5.489  0.5720 -0.6889 -0.1846
29677SOL     OW93486   8.299   3.104   9.508 -0.2744  0.1668  0.0007
29677SOL    HW193487   8.338   3.049   9.576 -0.8792  2.0226  1.9733
29677SOL    HW293488   8.224   3.145   9.551 -0.5012  1.6607 -1.7107
29678SOL     OW93489   1.825   6.380   6.786  0.0324 -0.6548 -0.2028
29678SOL    HW193490   1.808   6.458   6.839  0.3270 -0.4560 -0.3978
29678SOL    HW293491   1.754   6.319   6.809 -0.6200 -0.0521 -0.5923
29679SOL     OW93492   8.000   6.910   7.680 -0.0700 -0.1055  0.0435
29679SOL    HW193493   7.947   6.960   7.618  0.8516  0.4327 -0.3319
29679SOL    HW293494   7.943   6.896   7.755 -0.0219  2.4655  0.6304
29680SOL     OW93495   6.889   3.376   9.416 -0.3397  0.8524 -0.3904
29680SOL    HW193496   6.929   3.371   9.329  1.2467  1.0298  0.3066
29680SOL    HW293497   6.808   3.425   9.402 -0.6338  0.0011 -1.9317
29681SOL     OW93498  10.822  10.896   1.174  0.0009  0.0910  0.0842
29681SOL    HW193499  10.740  10.873   1.129  0.4812  0.2261 -0.9014
29681SOL    HW293500  10.842  10.820   1.228 -1.5909  0.6731  1.6019
29682SOL     OW93501   3.815   8.369   1.663  0.1521  0.4781 -0.6380
29682SOL    HW193502   3.854   8.354   1.578 -1.1154 -0.1253 -1.1330
29682SOL    HW293503   3.805   8.465   1.668  3.3758  0.8786  0.3250
29683SOL     OW93504   1.724   2.865   9.619 -0.0057  0.0843  0.5209
29683SOL    HW193505   1.682   2.808   9.555 -1.1559  0.4282  0.9415
29683SOL    HW293506   1.672   2.946   9.617  0.7434  0.5930  0.9440
29684SOL     OW93507   4.319   1.653   3.961 -0.6077 -0.6463  0.3411
29684SOL    HW193508   4.253   1.685   3.900  0.5056 -0.2484 -0.6951
29684SOL    HW293509   4.270   1.629   4.040 -2.1258 -1.5396 -0.8371
29685SOL     OW93510   5.230   6.687   2.471  0.5816 -0.2858  0.1773
29685SOL    HW193511   5.143   6.683   2.510  1.0224  0.7868  1.3650
29685SOL    HW293512   5.215   6.689   2.376 -0.6285 -0.9660  0.3498
29686SOL     OW93513   3.699   3.051   2.628 -0.4184  0.3373  0.1957
29686SOL    HW193514   3.700   3.143   2.655  0.3547 -0.0409  1.5491
29686SOL    HW293515   3.781   3.040   2.579  1.2898 -0.3996  2.9902
29687SOL     OW93516   0.404   5.679  10.138 -0.2152  0.3125 -0.2693
29687SOL    HW193517   0.432   5.588  10.145  1.0416  0.7240  0.4311
29687SOL    HW293518   0.358   5.696  10.220  1.0253  0.7605  0.3631
29688SOL     OW93519  10.610  10.392   4.385 -0.4825  0.7153 -0.8164
29688SOL    HW193520  10.657  10.431   4.312  0.4378 -0.0127 -0.6308
29688SOL    HW293521  10.675  10.386   4.455 -1.4342  1.7516  0.2166
29689SOL     OW93522   2.095   5.912   3.110 -0.2529  0.0553  0.6862
29689SOL    HW193523   2.010   5.954   3.103  0.8226  2.1394 -0.9281
29689SOL    HW293524   2.107   5.868   3.026  0.8012  0.9497  0.3432
29690SOL     OW93525   5.500   7.292   9.087 -0.0954 -0.7951 -0.3320
29690SOL    HW193526   5.533   7.367   9.137  1.1639 -1.5949  0.1078
29690SOL    HW293527   5.565   7.279   9.017 -1.1537 -0.4941 -1.4019
29691SOL     OW93528   2.331   4.459   8.804  0.3375  0.1224 -0.5638
29691SOL    HW193529   2.339   4.364   8.818  0.4990  0.3029  0.6944
29691SOL    HW293530   2.262   4.486   8.864  2.2767  1.2467  1.2925
29692SOL     OW93531   2.416   6.324   2.952  0.1858 -0.0290 -0.2699
29692SOL    HW193532   2.333   6.287   2.981  1.1653 -1.4511  0.8818
29692SOL    HW293533   2.448   6.373   3.027  0.2066  0.8703 -0.8508
29693SOL     OW93534   5.203   7.737   6.008 -0.1113 -0.0558  0.6175
29693SOL    HW193535   5.279   7.796   6.000  0.3204 -0.7267 -0.4440
29693SOL    HW293536   5.198   7.693   5.923 -0.2504 -1.7776  1.4853
29694SOL     OW93537   7.946   9.663   2.710 -0.0513  0.1241 -0.6210
29694SOL    HW193538   7.965   9.745   2.664  0.7937  0.4258  0.2370
29694SOL    HW293539   8.031   9.621   2.720 -0.6439 -1.7439 -2.5796
29695SOL     OW93540   1.436   3.304   0.223  0.1662  0.1600  1.0748
29695SOL    HW193541   1.480   3.343   0.148 -0.2518 -0.2491  0.6172
29695SOL    HW293542   1.383   3.233   0.187  1.0371 -0.9574  1.9122
29696SOL     OW93543   0.824   0.173   3.505 -0.3735  0.2136 -0.1207
29696SOL    HW193544   0.856   0.246   3.558 -1.2894  0.1367  0.5491
29696SOL    HW293545   0.734   0.196   3.484 -0.6469 -0.6984  0.0334
29697SOL     OW93546   7.461   1.084   4.773  0.2411  0.1814  0.2870
29697SOL    HW193547   7.398   1.015   4.797  0.8641 -1.4334 -2.2922
29697SOL    HW293548   7.412   1.141   4.713  1.1555 -1.2751 -2.0105
29698SOL     OW93549   6.402   3.180  10.933  0.0480  0.2284  0.9844
29698SOL    HW193550   6.378   3.221  11.016  1.1525  0.7490  1.0642
29698SOL    HW293551   6.464   3.242  10.892  0.7149 -0.7291  0.4974
29699SOL     OW93552   1.295   6.074   7.810 -0.2561  0.0873  0.2644
29699SOL    HW193553   1.316   6.114   7.894  0.7420 -0.0955  0.1153
29699SOL    HW293554   1.201   6.059   7.813 -0.4430  1.3003  0.8147
29700SOL     OW93555   7.752   6.664   2.429  0.1643  0.5273  0.6032
29700SOL    HW193556   7.751   6.730   2.498  1.9139 -0.2806  1.4337
29700SOL    HW293557   7.765   6.581   2.475 -2.5632 -0.5657 -0.3543
29701SOL     OW93558   7.044   0.949   1.807 -0.2085  0.2281  0.0174
29701SOL    HW193559   7.043   1.036   1.847  0.3963 -0.0366  0.6342
29701SOL    HW293560   7.019   0.889   1.878  1.4499 -0.3064  0.1862
29702SOL     OW93561   3.380   4.112   0.285  0.4263  0.6937 -0.1842
29702SOL    HW193562   3.334   4.107   0.369  0.2400  0.5329 -0.2941
29702SOL    HW293563   3.457   4.056   0.297  1.6018  2.4027  0.6179
29703SOL     OW93564   1.472  10.332   8.100  0.0570 -0.2732  0.1356
29703SOL    HW193565   1.543  10.396   8.098 -0.3971  0.2856  1.3432
29703SOL    HW293566   1.438  10.336   8.189 -1.3620 -0.6752 -0.3590
29704SOL     OW93567   9.930   4.700   9.359  0.3331  0.1080 -0.3181
29704SOL    HW193568   9.996   4.760   9.393 -2.2595  3.1819 -0.2615
29704SOL    HW293569   9.951   4.691   9.266  1.8809 -0.5717  0.0611
29705SOL     OW93570   6.710   4.296  10.575  0.0506  0.5532  0.3272
29705SOL    HW193571   6.804   4.293  10.561 -0.3009 -0.7677 -2.5358
29705SOL    HW293572   6.686   4.388  10.561  0.8424  0.8161  0.6551
29706SOL     OW93573   3.452   3.540   3.457 -0.2374  0.3108  0.1880
29706SOL    HW193574   3.453   3.635   3.467 -0.6332  0.3116  0.2391
29706SOL    HW293575   3.528   3.520   3.403 -0.7730  0.7655 -0.7557
29707SOL     OW93576   0.048   8.961   2.836  0.4699 -0.6103 -0.3383
29707SOL    HW193577   0.049   9.023   2.763  1.8299 -0.2105 -0.0213
29707SOL    HW293578   0.056   8.875   2.795  0.6961 -0.4195 -0.6969
29708SOL     OW93579   3.450   5.947   1.714  0.1526  0.4742 -0.4493
29708SOL    HW193580   3.426   5.861   1.749 -0.8527  0.5189 -0.9839
29708SOL    HW293581   3.484   5.995   1.789 -2.1077  0.6276  0.5659
29709SOL     OW93582   8.285   1.827   5.415 -0.1681 -0.2389  0.4936
29709SOL    HW193583   8.237   1.893   5.466 -0.5409 -1.0101  1.1708
29709SOL    HW293584   8.325   1.876   5.344 -1.0832  0.5984  0.5345
29710SOL     OW93585   2.011   7.766   1.041 -0.1443  0.4048  0.0953
29710SOL    HW193586   1.999   7.858   1.015 -1.6638 -0.2132 -1.6592
29710SOL    HW293587   2.087   7.737   0.990 -0.4576  0.3676 -0.3625
29711SOL     OW93588   0.225   4.396   5.924  0.3973 -0.5881 -0.3920
29711SOL    HW193589   0.310   4.408   5.968  0.2074 -1.5210  0.2679
29711SOL    HW293590   0.207   4.302   5.933 -0.8134 -0.3652 -0.3260
29712SOL     OW93591  10.036   4.554   8.875  1.0236 -0.4446 -0.5189
29712SOL    HW193592  10.058   4.474   8.828  0.4318 -0.5684 -0.5944
29712SOL    HW293593   9.940   4.558   8.872  1.0395  0.1617 -0.3437
29713SOL     OW93594   2.533   7.134   1.950 -0.1309  0.5404 -0.6069
29713SOL    HW193595   2.495   7.212   1.910 -2.4508 -0.0466  0.2894
29713SOL    HW293596   2.527   7.151   2.044 -1.4054 -0.9704 -0.3718
29714SOL     OW93597   0.513   1.378   5.355  0.1799  0.4980 -0.2220
29714SOL    HW193598   0.549   1.462   5.328 -0.6532  0.7053 -0.7485
29714SOL    HW293599   0.420   1.396   5.368  0.4349  0.2944  2.3688
29715SOL     OW93600   4.710   5.110   4.759  0.4313 -0.0432 -0.1157
29715SOL    HW193601   4.713   5.035   4.699  2.8078  0.7718 -1.1296
29715SOL    HW293602   4.710   5.070   4.846 -0.3119 -1.2148 -0.6180
29716SOL     OW93603  10.900   8.001   9.524  0.2100  0.1985 -0.3104
29716SOL    HW193604  10.879   8.068   9.588 -0.7136  0.6506 -1.0561
29716SOL    HW293605  10.826   7.940   9.527  1.8393 -1.8681  1.6542
29717SOL     OW93606   6.617   3.222   9.698  0.4765  0.7463 -0.4681
29717SOL    HW193607   6.684   3.154   9.704  0.6543  0.9840  0.5579
29717SOL    HW293608   6.598   3.245   9.789 -0.8971  0.8000 -0.7465
29718SOL     OW93609   1.842   3.176   7.191  0.0928 -0.1777 -0.0030
29718SOL    HW193610   1.825   3.161   7.098  0.1123  0.8765 -0.1889
29718SOL    HW293611   1.922   3.126   7.209 -1.0143 -2.0070 -0.0514
29719SOL     OW93612   9.747   9.722   1.173  0.2144 -0.1023 -0.3140
29719SOL    HW193613   9.828   9.760   1.140 -0.2378  0.7407 -0.4807
29719SOL    HW293614   9.743   9.635   1.132  0.0872  0.5962 -1.8345
29720SOL     OW93615  10.976   9.136   4.400 -0.5363  0.3569  0.0095
29720SOL    HW193616  11.009   9.178   4.479 -0.8887  0.8169 -0.0889
29720SOL    HW293617  10.998   9.043   4.411 -1.8977  0.1565  1.3455
29721SOL     OW93618   3.895   6.464   4.779  0.4463  0.1484  0.5247
29721SOL    HW193619   3.935   6.505   4.855  0.2787  0.2366  0.5650
29721SOL    HW293620   3.954   6.485   4.706  0.3084  0.5447  0.5271
29722SOL     OW93621   4.958   7.727   6.476 -0.2969 -0.2512  0.5143
29722SOL    HW193622   4.873   7.684   6.468 -1.3481  1.8838 -0.8587
29722SOL    HW293623   4.986   7.742   6.385  1.2953 -0.4279  0.9469
29723SOL     OW93624   2.462   6.399   8.122 -0.3424  0.0469 -0.4767
29723SOL    HW193625   2.423   6.486   8.132 -0.6787 -0.1035 -0.4865
29723SOL    HW293626   2.477   6.369   8.211 -0.4902 -0.0060 -0.4705
29724SOL     OW93627   4.251   1.968   5.606 -0.3818  0.4868  0.0957
29724SOL    HW193628   4.317   1.899   5.601  0.8237  1.6152 -0.2047
29724SOL    HW293629   4.204   1.962   5.522  2.6770  2.7814 -2.0283
29725SOL     OW93630  10.595   7.646   3.822 -0.1595 -0.2083 -0.0085
29725SOL    HW193631  10.542   7.597   3.759  0.9386 -0.2956 -0.9147
29725SOL    HW293632  10.596   7.735   3.788 -1.1017  0.1732  0.9347
29726SOL     OW93633  10.634   5.306   9.035  0.5808  0.2552  0.4207
29726SOL    HW193634  10.677   5.311   8.950 -0.4596 -2.2280 -0.3362
29726SOL    HW293635  10.540   5.315   9.015  0.1380 -2.3667  0.9557
29727SOL     OW93636   9.366   5.363   1.731  0.2649  0.4733 -0.0941
29727SOL    HW193637   9.287   5.380   1.782  0.8873  0.7225  0.8209
29727SOL    HW293638   9.419   5.443   1.741  0.8886  0.0792 -0.1829
29728SOL     OW93639   5.861   2.164   8.669 -0.0271  0.3930  0.2340
29728SOL    HW193640   5.858   2.171   8.574 -1.0319 -0.8072  0.1556
29728SOL    HW293641   5.955   2.158   8.689  0.1836  0.3671 -0.6991
29729SOL     OW93642   2.831   3.704   7.217 -0.4609 -0.4679  0.0547
29729SOL    HW193643   2.886   3.640   7.262 -0.8189 -0.7567  0.0856
29729SOL    HW293644   2.741   3.676   7.236 -0.6186  0.0314  0.0492
29730SOL     OW93645   8.579   1.730   1.576 -0.2396 -0.1193  0.7702
29730SOL    HW193646   8.509   1.708   1.636  0.2106 -1.3668  0.8731
29730SOL    HW293647   8.578   1.659   1.511 -0.9027  1.3302 -0.8748
29731SOL     OW93648   6.658   7.180   6.255 -0.3996  0.4586 -0.2617
29731SOL    HW193649   6.719   7.137   6.315 -0.5073  1.2631  0.4304
29731SOL    HW293650   6.594   7.112   6.235 -1.3205  0.6259  1.8645
29732SOL     OW93651   4.335   0.960   0.815 -0.7345 -0.1991  0.3355
29732SOL    HW193652   4.380   0.970   0.731 -0.1216  0.2960  0.7086
29732SOL    HW293653   4.307   1.049   0.838  1.1463  0.1081  1.7400
29733SOL     OW93654   2.169   0.690   3.775  0.5630  0.0180 -0.4982
29733SOL    HW193655   2.232   0.631   3.816  0.0334 -0.5120 -0.4495
29733SOL    HW293656   2.100   0.633   3.742  0.1747  0.5875 -0.6769
29734SOL     OW93657   4.156   6.125  10.864  0.0540 -0.1847 -0.2707
29734SOL    HW193658   4.177   6.107  10.956 -1.3172  2.0237  0.5511
29734SOL    HW293659   4.242   6.133  10.821  0.7253 -0.2826  1.0065
29735SOL     OW93660   6.937   3.475   6.286 -0.1762 -0.1676 -0.0836
29735SOL    HW193661   6.957   3.502   6.196 -1.7897 -0.2777 -0.5072
29735SOL    HW293662   6.903   3.386   6.277 -0.7330 -0.0342  0.5841
29736SOL     OW93663  10.187   3.443   1.256  0.2594  0.5311 -0.3723
29736SOL    HW193664  10.276   3.422   1.285 -0.3552 -0.3752  0.9439
29736SOL    HW293665  10.135   3.367   1.280 -1.1025  1.5225 -0.0535
29737SOL     OW93666   5.693   0.670   6.270 -0.0452 -0.0716  0.0158
29737SOL    HW193667   5.751   0.718   6.329  1.7165 -0.6831 -1.1264
29737SOL    HW293668   5.610   0.663   6.318  0.7672  0.9490  1.6677
29738SOL     OW93669   9.072  11.030   6.783 -0.6224  0.4614 -0.1362
29738SOL    HW193670   9.011  11.049   6.854  0.9705  0.2763  1.3407
29738SOL    HW293671   9.112  10.947   6.807  1.4653  1.4050 -0.1367
29739SOL     OW93672   2.150   7.622   6.032 -0.1757  0.1798 -0.1684
29739SOL    HW193673   2.090   7.583   6.096 -0.4441  2.2025  0.9207
29739SOL    HW293674   2.177   7.549   5.976 -2.2601 -1.1288  0.4098
29740SOL     OW93675   7.879   8.100   7.694 -0.9520  0.0962  0.2048
29740SOL    HW193676   7.908   8.085   7.604 -0.7427 -0.1466  0.3123
29740SOL    HW293677   7.927   8.178   7.722  0.3595 -0.8644  0.7146
29741SOL     OW93678   3.306  10.524   9.186  0.1619 -0.3511  0.0979
29741SOL    HW193679   3.361  10.454   9.222 -0.1272 -0.6685 -0.0709
29741SOL    HW293680   3.287  10.581   9.261  3.5441  1.7333 -0.4003
29742SOL     OW93681   8.480   7.472   9.088 -0.0116 -0.9698 -0.1133
29742SOL    HW193682   8.535   7.497   9.162 -1.8257 -0.4496  1.1255
29742SOL    HW293683   8.474   7.376   9.094 -1.4975 -0.8328  1.4978
29743SOL     OW93684   0.536   9.964   1.740  0.4509  0.0544 -0.3220
29743SOL    HW193685   0.479   9.904   1.788  1.3011 -0.2109  0.3781
29743SOL    HW293686   0.581  10.015   1.807  0.7269  0.5589 -0.8722
29744SOL     OW93687   0.108   8.883  10.366 -0.6882 -0.5908  0.1019
29744SOL    HW193688   0.014   8.867  10.370 -0.3785 -2.4722  0.7596
29744SOL    HW293689   0.148   8.797  10.374  1.1080  0.1423 -0.3464
29745SOL     OW93690   7.918   7.934   3.238 -0.3796  0.3723 -0.5685
29745SOL    HW193691   7.979   7.949   3.310 -0.3470 -0.5279 -0.3882
29745SOL    HW293692   7.831   7.941   3.277 -0.3568 -0.9618 -0.2359
29746SOL     OW93693  10.949   4.234   4.089  0.5371  0.2517 -0.0776
29746SOL    HW193694  10.856   4.232   4.114  1.2144 -0.7884  2.7092
29746SOL    HW293695  10.985   4.309   4.136  1.1715  0.5836 -1.0544
29747SOL     OW93696   4.436   2.543   8.098  0.5582  0.8620 -0.0069
29747SOL    HW193697   4.407   2.491   8.173  2.2004 -1.7971 -1.0831
29747SOL    HW293698   4.355   2.580   8.062 -0.4132  1.0356  2.1997
29748SOL     OW93699   9.320   5.260   2.966 -0.0945 -0.1940 -0.0544
29748SOL    HW193700   9.323   5.208   2.886  0.3400 -0.2070 -0.0300
29748SOL    HW293701   9.314   5.351   2.936 -0.6664 -0.2404 -0.0968
29749SOL     OW93702   5.225   7.569   5.467  0.4570 -0.5477 -0.3281
29749SOL    HW193703   5.271   7.651   5.449  0.8903 -0.7187 -0.0295
29749SOL    HW293704   5.230   7.560   5.562 -0.4303 -0.4377 -0.2698
29750SOL     OW93705   5.525   9.264   6.669  0.5833  0.2565 -0.1999
29750SOL    HW193706   5.461   9.261   6.599 -0.6168  2.8547  0.6481
29750SOL    HW293707   5.610   9.259   6.625 -0.1043 -2.5221 -1.4009
29751SOL     OW93708   0.320   5.427  10.914 -0.2286 -0.2289 -0.1557
29751SOL    HW193709   0.387   5.462  10.973 -0.5688 -1.1511  0.8219
29751SOL    HW293710   0.244   5.411  10.971 -0.1768 -2.2417 -0.5848
29752SOL     OW93711   6.220   1.286   5.931  0.3137  0.5883  0.1617
29752SOL    HW193712   6.285   1.334   5.983  0.1169  0.4959  0.4924
29752SOL    HW293713   6.214   1.336   5.849  0.3732  0.9247  0.3620
29753SOL     OW93714   8.616   6.135   9.303 -0.2522  0.3611 -0.1699
29753SOL    HW193715   8.669   6.069   9.347 -1.7371 -0.4029  0.5213
29753SOL    HW293716   8.604   6.102   9.214 -1.2128 -0.4526  0.2506
29754SOL     OW93717   1.672  10.496   8.085 -0.6209 -0.0585 -0.1682
29754SOL    HW193718   1.723  10.516   8.007  1.4660 -0.6180  0.9893
29754SOL    HW293719   1.681  10.573   8.141 -0.7758 -0.2955  0.1887
29755SOL     OW93720   2.242  10.137  10.368 -0.2409 -0.1964 -0.3320
29755SOL    HW193721   2.235  10.065  10.305  2.6524 -1.2678  0.4173
29755SOL    HW293722   2.197  10.105  10.446  2.4235 -2.0794  0.5879
29756SOL     OW93723   5.346   2.649   8.772  0.2231  0.0523  0.0086
29756SOL    HW193724   5.304   2.664   8.857 -0.5272  0.3527 -0.4090
29756SOL    HW293725   5.439   2.637   8.794 -0.3574 -3.1282  1.2112
29757SOL     OW93726   4.176   9.006   1.754 -0.0225 -0.1018 -0.0760
29757SOL    HW193727   4.228   9.054   1.819  2.2594 -2.3879 -0.0610
29757SOL    HW293728   4.237   8.987   1.683 -1.1604 -1.8348 -0.6566
29758SOL     OW93729   1.769   7.639   6.862 -0.0271  0.6246  0.3225
29758SOL    HW193730   1.702   7.673   6.803 -2.5132 -2.2721  1.2566
29758SOL    HW293731   1.747   7.676   6.947  0.3452  0.6299  0.4205
29759SOL     OW93732   9.926   0.647   9.902 -0.1908 -0.1936  0.2844
29759SOL    HW193733   9.884   0.724   9.864 -0.0964  0.6567  1.8151
29759SOL    HW293734   9.991   0.682   9.963  1.5409 -1.4974 -0.7378
29760SOL     OW93735   5.845   3.697   4.506  0.1477  0.1468 -0.4592
29760SOL    HW193736   5.882   3.638   4.440  0.3363  0.0421 -0.2585
29760SOL    HW293737   5.921   3.733   4.552  0.0418  0.6868 -0.7017
29761SOL     OW93738   9.543  10.759   5.725 -0.7547 -0.4039  0.0984
29761SOL    HW193739   9.505  10.673   5.706  0.0190 -0.5718 -0.7479
29761SOL    HW293740   9.522  10.774   5.817 -2.1081 -0.8662 -0.1129
29762SOL     OW93741   1.013   4.303   5.955 -0.5245 -0.4017  0.0276
29762SOL    HW193742   0.922   4.286   5.932 -1.3250  1.6656  1.3853
29762SOL    HW293743   1.032   4.388   5.914  0.2925 -0.1053  0.9803
29763SOL     OW93744   7.501   0.184   1.943  0.0196  0.0042  0.0959
29763SOL    HW193745   7.455   0.247   1.998  1.2412 -0.9402  2.3506
29763SOL    HW293746   7.560   0.237   1.890 -1.8251  1.0149 -1.0398
29764SOL     OW93747   1.976   9.036   0.839 -0.2411  0.0142  0.4483
29764SOL    HW193748   1.928   8.953   0.831 -2.0638  1.0805 -0.2226
29764SOL    HW293749   1.982   9.052   0.933  1.2418 -1.4534  0.6504
29765SOL     OW93750   6.156   1.195   1.285  0.0647  0.1104  0.3777
29765SOL    HW193751   6.162   1.223   1.377 -1.7342  0.2176  0.5021
29765SOL    HW293752   6.239   1.149   1.269  1.5286  2.2418  1.2752
29766SOL     OW93753   7.689   3.573   5.452 -0.4454 -0.5664 -0.3168
29766SOL    HW193754   7.639   3.609   5.525  0.3726  0.3846 -0.2051
29766SOL    HW293755   7.780   3.580   5.479 -0.1883 -1.3277 -0.9422
29767SOL     OW93756   6.781  10.013   8.443 -0.0824  0.4466  0.1723
29767SOL    HW193757   6.823   9.928   8.451  0.7074  0.6122 -1.7781
29767SOL    HW293758   6.766  10.024   8.349 -1.9822  1.6114  0.5611
29768SOL     OW93759   0.558   1.104   9.824  0.6936  0.1862  0.6300
29768SOL    HW193760   0.516   1.084   9.908 -1.2773  1.1542 -0.0436
29768SOL    HW293761   0.553   1.200   9.817 -0.4066  0.0542 -1.1261
29769SOL     OW93762  10.953   7.720   5.196 -0.5444 -0.4996 -0.0979
29769SOL    HW193763  10.930   7.631   5.168 -1.9191 -0.8023  1.7575
29769SOL    HW293764  10.967   7.712   5.290 -1.9752  1.4461  0.3490
29770SOL     OW93765   4.254   5.316   3.873  0.0576  0.5265 -0.6709
29770SOL    HW193766   4.320   5.261   3.916 -0.7088 -0.4775 -0.7425
29770SOL    HW293767   4.170   5.284   3.906 -0.4443  1.2303 -1.2144
29771SOL     OW93768   4.299   9.896   2.157 -0.4228  0.0859  0.0592
29771SOL    HW193769   4.283   9.987   2.130  0.2631  0.0451 -0.5034
29771SOL    HW293770   4.376   9.901   2.213  0.3494 -0.2823 -0.9326
29772SOL     OW93771   2.135   5.252   6.737  0.2434 -0.0725 -0.0042
29772SOL    HW193772   2.178   5.333   6.709  0.6986 -0.9980 -2.2388
29772SOL    HW293773   2.085   5.224   6.660  0.0300 -1.8480  0.7370
29773SOL     OW93774   7.874   9.467   3.195 -0.0267  0.0938 -0.4615
29773SOL    HW193775   7.843   9.474   3.105  0.0349  1.5489 -0.3996
29773SOL    HW293776   7.795   9.475   3.249  0.1192  1.0731 -0.3674
29774SOL     OW93777   2.886   7.344   4.886  0.1138  0.1266  0.5136
29774SOL    HW193778   2.805   7.364   4.933 -1.4206 -1.6107 -1.1980
29774SOL    HW293779   2.905   7.423   4.836 -0.6778  0.4915  0.7737
29775SOL     OW93780   8.557   6.446   7.416  0.1021 -0.3148  0.1111
29775SOL    HW193781   8.501   6.424   7.490  0.7610  1.5607  1.2553
29775SOL    HW293782   8.497   6.454   7.342 -0.7324 -1.0810  0.6759
29776SOL     OW93783   7.738   0.555   1.075 -0.1626  0.2433 -0.7592
29776SOL    HW193784   7.671   0.487   1.083  0.4527 -0.4736 -1.5037
29776SOL    HW293785   7.690   0.634   1.053 -0.8821  0.0363  0.0349
29777SOL     OW93786   2.008   0.517   0.054 -0.5588 -0.1848  0.0091
29777SOL    HW193787   1.915   0.508   0.074 -1.1016 -2.5355 -2.8529
29777SOL    HW293788   2.010   0.550  -0.036  1.3997  0.3477  0.1922
29778SOL     OW93789   2.280   1.082   8.311  0.1181  0.0964  0.4493
29778SOL    HW193790   2.210   1.134   8.350 -0.5382 -1.0321  0.8218
29778SOL    HW293791   2.266   1.089   8.217  1.6573  2.7690  0.3112
29779SOL     OW93792   2.770   8.193   9.860 -0.4267  0.0676 -0.6746
29779SOL    HW193793   2.753   8.214   9.952 -1.7152 -0.9084 -0.6664
29779SOL    HW293794   2.863   8.172   9.857  0.3568  2.9758 -0.1909
29780SOL     OW93795   6.938   4.297   6.334 -0.3519 -0.4102 -0.2581
29780SOL    HW193796   7.007   4.358   6.357 -0.1758 -0.5536 -0.4082
29780SOL    HW293797   6.940   4.230   6.402  0.0114 -0.7043 -0.5551
29781SOL     OW93798   3.319   2.947   7.126  0.2262  0.3557  0.0300
29781SOL    HW193799   3.349   2.950   7.217  0.5308  1.5113 -0.0963
29781SOL    HW293800   3.387   2.897   7.081 -0.2977 -0.8696  0.5603
29782SOL     OW93801   9.657  10.233   3.513  0.4463 -0.0039  0.7620
29782SOL    HW193802   9.652  10.189   3.428  2.9505 -0.6028  0.8371
29782SOL    HW293803   9.644  10.325   3.493 -0.5386 -0.2993 -0.0322
29783SOL     OW93804   5.625  10.656   0.213  0.1177 -0.8608  0.2297
29783SOL    HW193805   5.594  10.725   0.272 -0.5679 -0.5153 -0.5195
29783SOL    HW293806   5.695  10.697   0.162  1.1927 -1.3641  1.2658
29784SOL     OW93807   0.419   3.958  11.072 -0.1157  0.1297 -0.7320
29784SOL    HW193808   0.331   3.951  11.034 -0.1325  0.0824 -0.6840
29784SOL    HW293809   0.417   3.902  11.149 -0.2090  0.5652 -0.4179
29785SOL     OW93810   2.080   5.707   1.617 -0.1054 -0.1425  0.0974
29785SOL    HW193811   2.032   5.768   1.562 -0.8964  1.2546  2.1848
29785SOL    HW293812   2.078   5.747   1.704  2.1271 -1.6139  0.9251
29786SOL     OW93813   7.679   0.609  10.185 -0.1007 -0.3839  0.1093
29786SOL    HW193814   7.774   0.595  10.174  0.1597  0.2383  1.3181
29786SOL    HW293815   7.653   0.542  10.249 -0.2069  0.2634  0.7547
29787SOL     OW93816   8.236   1.681   3.829 -0.5942  0.6881 -0.4481
29787SOL    HW193817   8.176   1.640   3.891 -1.5036 -0.8491 -2.2420
29787SOL    HW293818   8.309   1.712   3.884 -1.8939  0.4974  1.4940
29788SOL     OW93819   3.068  11.033   7.366 -0.3555 -0.5848 -0.0993
29788SOL    HW193820   3.087  10.947   7.404  1.0614  0.7064  2.3121
29788SOL    HW293821   3.098  11.026   7.275 -0.4192 -2.6750 -0.0035
29789SOL     OW93822   9.615   8.980   9.443  0.0110  0.0651  0.0711
29789SOL    HW193823   9.682   8.946   9.502 -0.3964  2.2905  2.0032
29789SOL    HW293824   9.534   8.979   9.495 -0.8266  0.1862 -1.1732
29790SOL     OW93825   1.444   9.492   1.693  0.1239  0.3581  0.4808
29790SOL    HW193826   1.512   9.507   1.758 -0.2873  0.3841  0.9036
29790SOL    HW293827   1.466   9.552   1.622 -0.8327  2.1553  1.6452
29791SOL     OW93828   0.825   8.994   6.147 -0.5445 -0.1239  0.4835
29791SOL    HW193829   0.826   9.074   6.199  0.2273 -0.4236  0.9425
29791SOL    HW293830   0.768   9.014   6.072 -2.1054  0.1521  1.6849
29792SOL     OW93831   1.786   6.812  10.988 -0.4771  0.0962 -0.5808
29792SOL    HW193832   1.772   6.718  11.000  0.3482  0.0577  0.1979
29792SOL    HW293833   1.881   6.823  10.993 -0.5342  0.9121 -1.1582
29793SOL     OW93834   2.580   7.867   8.736 -0.2225 -0.0553 -0.3554
29793SOL    HW193835   2.569   7.847   8.643 -3.3005 -0.4397  0.0093
29793SOL    HW293836   2.599   7.960   8.739  1.9268 -0.3907 -1.4073
29794SOL     OW93837   6.432   2.496   7.906  0.0217  0.8681  0.8243
29794SOL    HW193838   6.497   2.469   7.972  1.0371  0.5031 -0.2872
29794SOL    HW293839   6.351   2.507   7.956  0.9166  1.3127  2.2612
29795SOL     OW93840   3.334   5.648   6.293 -0.4272  0.0467  0.2515
29795SOL    HW193841   3.256   5.599   6.266  0.3988 -0.4519 -1.3258
29795SOL    HW293842   3.346   5.714   6.224  0.9009 -0.3026  0.1252
29796SOL     OW93843   9.755   6.165   6.715 -0.1720  0.2756  0.5034
29796SOL    HW193844   9.708   6.220   6.778  2.0595  0.2270  2.3603
29796SOL    HW293845   9.736   6.075   6.742  0.0672  0.2374  0.5462
29797SOL     OW93846  10.459   2.535   3.300  0.2199  0.4264  0.1603
29797SOL    HW193847  10.402   2.484   3.243  0.3081  1.0522 -0.5041
29797SOL    HW293848  10.528   2.475   3.326 -0.8428 -0.4016  1.1417
29798SOL     OW93849   6.891   9.463  10.118  0.0714  1.3234  0.0267
29798SOL    HW193850   6.843   9.524  10.174  0.4223  1.0074  0.6858
29798SOL    HW293851   6.825   9.424  10.061 -0.3678  1.2994  0.5511
29799SOL     OW93852  10.186   9.611   6.547  0.0943 -0.0891  0.6216
29799SOL    HW193853  10.157   9.563   6.470  1.3590 -0.4650  0.3564
29799SOL    HW293854  10.188   9.546   6.617 -1.8056  0.4179  1.1957
29800SOL     OW93855   5.804   9.904   5.417 -0.2469 -0.3148 -0.2000
29800SOL    HW193856   5.729   9.853   5.387  0.4006 -1.4068 -0.0635
29800SOL    HW293857   5.853   9.923   5.337 -0.2552 -0.3037 -0.2026
29801SOL     OW93858  10.495   1.376   8.167 -0.0797 -0.5068 -0.8573
29801SOL    HW193859  10.567   1.418   8.121  0.6391  0.2349  0.8556
29801SOL    HW293860  10.424   1.374   8.103  0.6605  1.0628 -1.7943
29802SOL     OW93861   2.081   5.029   7.174  0.8043  0.2748 -0.5870
29802SOL    HW193862   2.104   4.943   7.138  1.5986  1.5554 -3.4294
29802SOL    HW293863   2.161   5.060   7.215  0.3374 -0.5458  1.0208
29803SOL     OW93864   7.974   7.245   2.373  0.4176 -0.6428 -0.0925
29803SOL    HW193865   7.928   7.327   2.391  1.4205  0.4170 -2.0364
29803SOL    HW293866   8.047   7.245   2.435 -0.1522 -0.6021  0.6046
29804SOL     OW93867   9.006   9.072   7.693  0.0503 -0.1553  0.3776
29804SOL    HW193868   9.052   8.993   7.722  0.9892 -0.5678 -1.9649
29804SOL    HW293869   8.927   9.076   7.747  0.1504 -2.5025  0.7779
29805SOL     OW93870  10.687   6.914   8.945  0.5948  0.1079 -0.3803
29805SOL    HW193871  10.667   6.870   8.863  1.3326 -0.2418 -0.3790
29805SOL    HW293872  10.609   6.966   8.964  0.0008 -0.6291 -0.7586
29806SOL     OW93873  10.028   6.863   5.078  0.0111 -0.1155  0.3596
29806SOL    HW193874   9.944   6.822   5.097  0.3461 -0.3174  1.5224
29806SOL    HW293875  10.037   6.930   5.147  1.5237 -1.1926  1.2576
29807SOL     OW93876   0.429   4.477   9.215 -0.6447 -0.3354 -0.5858
29807SOL    HW193877   0.423   4.453   9.307 -1.2957  1.1529 -0.2137
29807SOL    HW293878   0.484   4.409   9.176  0.8148 -0.2305  1.1718
29808SOL     OW93879   7.739   3.490   1.367 -0.1728  0.4095 -0.6089
29808SOL    HW193880   7.711   3.427   1.433  0.3848 -0.5786 -1.2963
29808SOL    HW293881   7.670   3.486   1.300  0.3857 -0.2573 -1.1537
29809SOL     OW93882   6.329   0.983   5.691  0.2332 -0.5506 -0.2115
29809SOL    HW193883   6.340   0.890   5.710  2.7138 -0.9595 -2.9332
29809SOL    HW293884   6.239   0.991   5.662 -0.1667 -2.0008  0.5175
29810SOL     OW93885   0.458   2.484   2.295 -0.1633  0.4081 -0.3934
29810SOL    HW193886   0.440   2.576   2.277  2.5595  1.1527  0.2770
29810SOL    HW293887   0.518   2.456   2.226 -1.7092 -1.1949 -1.1585
29811SOL     OW93888   0.763   2.443   3.307  0.3609  0.1699  0.0626
29811SOL    HW193889   0.709   2.428   3.229  0.4463  0.0200  0.0317
29811SOL    HW293890   0.815   2.521   3.287  0.1290  0.3374  0.1068
29812SOL     OW93891   6.257   2.505   2.781 -0.6919 -0.0866 -0.3020
29812SOL    HW193892   6.265   2.585   2.833  1.9347  0.1611 -0.9306
29812SOL    HW293893   6.251   2.435   2.846  1.5364  0.3030  0.4294
29813SOL     OW93894   0.174   6.520   8.832  0.4683  0.6414  0.7863
29813SOL    HW193895   0.206   6.528   8.742 -1.8686 -2.3576 -0.4992
29813SOL    HW293896   0.207   6.434   8.861  0.4629  1.1815  2.4896
29814SOL     OW93897   9.718   3.736   7.817 -0.0973 -0.1415  0.0113
29814SOL    HW193898   9.778   3.781   7.877 -0.7899  0.4440  0.2932
29814SOL    HW293899   9.770   3.719   7.739  0.4939  0.1583  0.3328
29815SOL     OW93900   0.272   1.742   5.126 -0.5661 -0.5750 -0.1522
29815SOL    HW193901   0.234   1.801   5.062  0.4839 -1.4018 -1.6051
29815SOL    HW293902   0.298   1.665   5.076  0.4229 -1.2042  1.2413
29816SOL     OW93903   7.137   2.102   1.890  0.5512 -0.0672  0.5228
29816SOL    HW193904   7.132   2.062   1.977 -3.2236  1.1469  1.0136
29816SOL    HW293905   7.075   2.052   1.837 -0.3649  1.8128 -0.2594
29817SOL     OW93906   5.169   2.551   6.139 -0.2213 -0.0061  0.1246
29817SOL    HW193907   5.208   2.606   6.072  0.6198  0.0445  0.6369
29817SOL    HW293908   5.204   2.463   6.121  0.7416  0.1699  1.0166
29818SOL     OW93909   1.112  10.986   6.523 -0.4958  0.1315  0.2821
29818SOL    HW193910   1.105  11.082   6.518  0.6398  0.1683 -1.5735
29818SOL    HW293911   1.023  10.955   6.508 -0.9505  0.8968  1.3120
29819SOL     OW93912  10.207   8.668   5.935 -0.3176 -0.1805  0.6660
29819SOL    HW193913  10.187   8.643   5.845  0.6978 -2.0988  0.9260
29819SOL    HW293914  10.206   8.764   5.933 -0.5190 -0.1697 -1.3287
29820SOL     OW93915   1.303   6.896   2.217  0.4806 -0.2654  0.3823
29820SOL    HW193916   1.290   6.982   2.258 -0.0532 -0.5224  0.7728
29820SOL    HW293917   1.252   6.836   2.272  1.6547 -0.9990  0.7115
29821SOL     OW93918   1.688   7.205   5.320  0.2258  0.1917 -0.8590
29821SOL    HW193919   1.737   7.232   5.398 -1.0576 -0.3329  0.1653
29821SOL    HW293920   1.717   7.115   5.304 -0.8899 -0.3892  0.1996
29822SOL     OW93921   2.159   5.878   0.986  0.1949 -0.1263 -0.3093
29822SOL    HW193922   2.102   5.918   1.052 -0.1438 -1.2461  0.1113
29822SOL    HW293923   2.247   5.905   1.010  0.0578 -0.4023  0.5216
29823SOL     OW93924   2.850   9.235   8.324  0.3420 -0.9589 -0.3034
29823SOL    HW193925   2.909   9.308   8.304 -0.2797 -1.1844 -3.4398
29823SOL    HW293926   2.868   9.170   8.257 -0.1977 -3.0886  1.5091
29824SOL     OW93927   4.182   6.643   5.410  0.7778 -0.2679  0.0187
29824SOL    HW193928   4.218   6.573   5.465 -0.5464 -0.2194  0.9979
29824SOL    HW293929   4.090   6.620   5.398  0.3440  1.2130  0.2433
29825SOL     OW93930   0.866   4.462   8.418  0.1615 -0.4348  1.0166
29825SOL    HW193931   0.923   4.387   8.400  0.2264 -0.1048 -0.2219
29825SOL    HW293932   0.786   4.423   8.455  0.8665 -0.9595  2.0223
29826SOL     OW93933   0.999   7.857   9.188  0.3915 -0.5269 -0.4955
29826SOL    HW193934   1.047   7.807   9.121 -0.0681 -0.5146 -0.8347
29826SOL    HW293935   0.997   7.798   9.264  3.5420  0.5639  0.5999
29827SOL     OW93936  10.361   0.981   9.232 -0.0636  0.0745  0.2444
29827SOL    HW193937  10.430   0.964   9.168  2.5460  0.7441  2.6770
29827SOL    HW293938  10.293   0.917   9.212  2.3705 -2.3927 -0.7723
29828SOL     OW93939   3.769   4.516   2.711  0.3605 -0.5017 -0.8888
29828SOL    HW193940   3.721   4.598   2.705  0.0293 -0.6022  0.2331
29828SOL    HW293941   3.861   4.542   2.719  0.3721 -0.2790 -1.6568
29829SOL     OW93942   2.144   3.493  10.180 -0.3373 -0.1797  1.1227
29829SOL    HW193943   2.220   3.438  10.163 -1.1825 -1.3400  0.9886
29829SOL    HW293944   2.180   3.577  10.207  0.9815 -0.7212  1.0791
29830SOL     OW93945   2.302   1.546   9.547  0.0872 -0.1573 -0.4148
29830SOL    HW193946   2.311   1.479   9.479 -2.4445 -0.7159 -0.3314
29830SOL    HW293947   2.302   1.629   9.499  0.1528 -0.4253 -0.8862
29831SOL     OW93948   0.526   4.670   5.287 -0.5829  0.7522 -0.2675
29831SOL    HW193949   0.580   4.632   5.218 -1.1260 -0.1227 -0.2226
29831SOL    HW293950   0.474   4.737   5.242 -1.5155 -0.3456 -0.9057
29832SOL     OW93951   3.845   5.176   5.715  0.9275  0.7547  0.0565
29832SOL    HW193952   3.767   5.225   5.738 -0.1850 -1.1659  0.5939
29832SOL    HW293953   3.835   5.156   5.622 -0.2551 -1.1195  0.5250
29833SOL     OW93954   0.284  10.499   9.423  0.2774 -0.1397 -0.2263
29833SOL    HW193955   0.241  10.493   9.337 -0.2146  2.4186 -0.2460
29833SOL    HW293956   0.331  10.416   9.432 -0.8108 -1.0683 -2.3315
29834SOL     OW93957   6.749   2.400   3.915  0.5679  0.1141  0.3178
29834SOL    HW193958   6.720   2.313   3.942  3.0253 -0.9699 -0.2858
29834SOL    HW293959   6.841   2.405   3.943  0.9422  1.9039 -1.0197
29835SOL     OW93960   1.876   5.323   7.959  0.3090  0.0421 -0.2342
29835SOL    HW193961   1.946   5.356   8.016  0.7443 -1.5183  0.1855
29835SOL    HW293962   1.844   5.245   8.003 -1.5341  0.5671 -0.5724
29836SOL     OW93963   1.983   5.564   4.903 -0.3701  0.2885 -0.8231
29836SOL    HW193964   1.937   5.559   4.820  0.5444  1.8075 -1.4533
29836SOL    HW293965   2.024   5.478   4.913  0.1813  0.3425 -2.3624
29837SOL     OW93966   8.243   9.887   9.563  0.3138  0.1537 -0.2842
29837SOL    HW193967   8.265   9.862   9.653  1.5653  1.3616 -0.2224
29837SOL    HW293968   8.161   9.934   9.570  0.1061 -0.2656  0.1436
29838SOL     OW93969   1.665   3.568   0.344  0.0837  0.1328  0.0917
29838SOL    HW193970   1.631   3.637   0.401 -1.8709 -1.5456  1.0879
29838SOL    HW293971   1.677   3.611   0.259  1.5224  2.3006  1.3033
29839SOL     OW93972   6.981   4.434   2.506  0.4154 -0.2179  0.2658
29839SOL    HW193973   7.051   4.464   2.563  1.6880  0.1781 -1.4180
29839SOL    HW293974   6.948   4.514   2.465  1.6872 -0.7132 -1.8865
29840SOL     OW93975   5.080   1.805   2.742  0.7080  0.4081 -0.1625
29840SOL    HW193976   5.121   1.853   2.814  1.0469 -3.1975  2.3080
29840SOL    HW293977   5.003   1.764   2.780 -0.5845  0.3952 -2.5812
29841SOL     OW93978   5.074  10.202   9.015 -0.5513 -0.0110  0.1742
29841SOL    HW193979   5.045  10.182   9.104  0.5985 -1.2895  0.2941
29841SOL    HW293980   5.022  10.144   8.959  0.0907 -0.6255  0.1968
29842SOL     OW93981   9.535   1.088   1.581  0.2288 -0.0661 -0.2479
29842SOL    HW193982   9.590   1.089   1.502 -0.4294  0.1055 -0.7086
29842SOL    HW293983   9.559   1.007   1.626 -0.4101 -0.8783 -1.3477
29843SOL     OW93984   8.435   2.582   1.935  0.3784  0.6500 -0.2869
29843SOL    HW193985   8.436   2.586   1.839 -2.0948  3.0599 -0.3408
29843SOL    HW293986   8.483   2.501   1.956  0.3872 -0.3479 -3.5405
29844SOL     OW93987   4.624   6.053   9.745 -0.2424  0.4276  0.0331
29844SOL    HW193988   4.709   6.076   9.783 -0.3017 -0.2436  0.6026
29844SOL    HW293989   4.561   6.109   9.791 -0.1709  0.5085  0.0319
29845SOL     OW93990   3.894   3.211   4.015  0.5779  0.1278  0.1301
29845SOL    HW193991   3.965   3.274   3.998 -0.5419  1.4716  0.2732
29845SOL    HW293992   3.920   3.168   4.096  0.5550  1.6688  0.9942
29846SOL     OW93993   1.606   7.680   1.810  0.0265 -0.2988  0.3085
29846SOL    HW193994   1.546   7.750   1.835  0.6550  0.3759 -0.0246
29846SOL    HW293995   1.593   7.670   1.715  2.5660  1.9988 -0.4072
29847SOL     OW93996   9.830   4.971   2.179 -0.2392  0.1944 -0.1212
29847SOL    HW193997   9.792   4.886   2.156 -0.8021  0.5480 -0.5381
29847SOL    HW293998   9.836   5.018   2.095 -0.0758  0.6247  0.1276
29848SOL     OW93999   1.908   4.074   1.361 -0.6033  0.2325 -0.1369
29848SOL    HW194000   1.927   4.150   1.416 -1.2810  0.3805 -0.0992
29848SOL    HW294001   1.841   4.026   1.410 -0.3305 -0.2801 -0.2614
29849SOL     OW94002   2.803   4.103   1.280 -0.1077 -0.2884  0.3460
29849SOL    HW194003   2.767   4.058   1.356 -0.3572  0.2052  0.5248
29849SOL    HW294004   2.879   4.050   1.254  1.3923  0.7554  2.3457
29850SOL     OW94005   3.484   0.731   0.604 -0.7140 -0.6768 -0.1334
29850SOL    HW194006   3.561   0.704   0.554  0.2775 -0.4251  1.2293
29850SOL    HW294007   3.449   0.806   0.555  0.9641  0.3580  0.1811
29851SOL     OW94008   9.730   5.779   6.569 -0.0783  0.1385  0.3013
29851SOL    HW194009   9.728   5.683   6.560 -3.6626  0.2595 -3.0639
29851SOL    HW294010   9.695   5.811   6.487  0.8999  4.4476  1.3349
29852SOL     OW94011   9.318   4.453   6.577 -0.1264  0.1992  0.1725
29852SOL    HW194012   9.357   4.367   6.560 -0.0917 -0.1139  1.6885
29852SOL    HW294013   9.392   4.509   6.599 -0.1041  0.7554 -1.2065
29853SOL     OW94014   3.324   6.896   1.146  0.0938 -0.3616  0.3584
29853SOL    HW194015   3.302   6.967   1.206 -0.9624 -1.5309  1.4274
29853SOL    HW294016   3.254   6.897   1.081 -1.0961 -1.6576  1.5499
29854SOL     OW94017   8.952   7.277   1.564  0.2203  0.1780 -0.4069
29854SOL    HW194018   8.999   7.220   1.503  0.1264  1.1903 -1.4730
29854SOL    HW294019   8.859   7.260   1.546  0.0667 -2.2265  2.0766
29855SOL     OW94020   6.485   7.398   9.404  0.0175  0.0248 -0.2844
29855SOL    HW194021   6.456   7.462   9.339 -0.5229 -1.0191 -1.1002
29855SOL    HW294022   6.523   7.328   9.352 -0.1652 -0.6946  0.5457
29856SOL     OW94023   0.682   5.608   9.564 -0.0974 -0.1055  0.2238
29856SOL    HW194024   0.627   5.597   9.487 -1.1713 -1.1436  1.0924
29856SOL    HW294025   0.678   5.702   9.583 -1.4935 -0.1270  0.1736
29857SOL     OW94026   2.749  10.221   8.028 -1.0091  0.0078  0.1089
29857SOL    HW194027   2.840  10.205   8.053 -0.2488 -0.2528 -2.5227
29857SOL    HW294028   2.704  10.139   8.047  0.3299 -1.4652 -2.5143
29858SOL     OW94029  10.366   4.325   0.841  0.3932 -0.4851  0.6108
29858SOL    HW194030  10.446   4.364   0.807  0.7103 -0.9073  0.8677
29858SOL    HW294031  10.324   4.394   0.892  0.2223 -0.0362 -0.1256
29859SOL     OW94032   4.783  10.805   5.633  0.8498 -0.2638  0.4611
29859SOL    HW194033   4.759  10.734   5.693 -0.0969 -0.0809  0.3113
29859SOL    HW294034   4.809  10.761   5.552  0.3369 -0.4428  0.3926
29860SOL     OW94035  10.847   6.945   6.524 -0.7757  0.8113 -0.3017
29860SOL    HW194036  10.928   6.992   6.541 -1.0802  1.0633  0.5020
29860SOL    HW294037  10.806   6.935   6.610 -0.7533 -0.8689 -0.4423
29861SOL     OW94038   7.073   5.231   5.863  0.8013 -0.0431 -0.0311
29861SOL    HW194039   7.031   5.157   5.818  1.7670  0.5755 -2.0827
29861SOL    HW294040   7.009   5.302   5.858  1.2456  0.2899 -1.3003
29862SOL     OW94041   6.886   2.221   3.358 -0.2415  0.2625  0.0134
29862SOL    HW194042   6.907   2.128   3.354 -1.3755 -0.0583  0.7377
29862SOL    HW294043   6.925   2.252   3.440  0.1659  0.4356 -0.2445
29863SOL     OW94044   5.307   6.266   7.061 -0.3145 -0.0529 -0.1088
29863SOL    HW194045   5.213   6.266   7.078 -0.0032 -1.3336  2.1103
29863SOL    HW294046   5.336   6.178   7.088  1.7729  0.9064  1.0369
29864SOL     OW94047   7.546   2.007   0.105 -0.0062 -0.3219  0.1585
29864SOL    HW194048   7.630   1.998   0.149  0.6798  1.2396 -0.7505
29864SOL    HW294049   7.494   2.062   0.163 -0.0708 -0.4991  0.2705
29865SOL     OW94050   5.110   5.928   4.461 -0.0803  0.1302  0.0550
29865SOL    HW194051   5.105   5.986   4.386 -1.9976 -0.7047 -0.5237
29865SOL    HW294052   5.029   5.944   4.510  0.5126 -0.2894  1.2192
29866SOL     OW94053   7.727  10.508   4.783  0.6510  0.5331 -0.1770
29866SOL    HW194054   7.750  10.521   4.691 -0.7967 -0.9838 -0.8089
29866SOL    HW294055   7.632  10.519   4.785  0.5885 -0.1089  1.0117
29867SOL     OW94056   2.306   6.824   7.686  0.1686 -0.1482 -0.3505
29867SOL    HW194057   2.272   6.887   7.750 -0.9183  0.6069 -1.5993
29867SOL    HW294058   2.228   6.778   7.654  0.7490 -0.8697 -0.7524
29868SOL     OW94059   2.858   7.049   0.637 -0.0635  0.3336  0.3340
29868SOL    HW194060   2.798   7.019   0.568  0.9101 -0.4209 -0.2009
29868SOL    HW294061   2.806   7.113   0.687 -0.8598  0.7468 -0.9609
29869SOL     OW94062   7.087   9.377   4.522  0.2448 -0.1733  0.3187
29869SOL    HW194063   7.010   9.430   4.541  0.1741 -0.2119  0.1377
29869SOL    HW294064   7.130   9.366   4.607 -0.3284 -0.7396  0.5417
29870SOL     OW94065  10.078   0.200   8.264  0.2561 -0.1224 -0.3127
29870SOL    HW194066  10.064   0.106   8.250 -2.5258  0.1390  0.1949
29870SOL    HW294067  10.169   0.205   8.295  1.5805 -2.2385 -3.3712
29871SOL     OW94068   3.507   8.077   2.490 -0.6075 -0.3129 -0.6134
29871SOL    HW194069   3.493   8.108   2.580 -0.9107  1.2278 -1.1548
29871SOL    HW294070   3.575   8.134   2.455  1.8085 -2.8927 -0.4380
29872SOL     OW94071   3.117   8.267   9.600  0.1915 -0.4744 -0.2187
29872SOL    HW194072   3.043   8.277   9.540 -1.0401 -2.0648  0.9345
29872SOL    HW294073   3.184   8.326   9.566 -1.6844  1.2211 -1.1787
29873SOL     OW94074   5.437  10.057   0.660  0.0160  0.3211 -0.2692
29873SOL    HW194075   5.528  10.073   0.686  0.4266  0.4325 -1.7164
29873SOL    HW294076   5.391  10.043   0.743  1.6079 -1.1438  0.4292
29874SOL     OW94077   0.754   5.236   0.794  0.1824  0.1763  1.2124
29874SOL    HW194078   0.796   5.320   0.811  0.8879 -0.2442  1.5684
29874SOL    HW294079   0.684   5.257   0.732  0.3970  1.0118  1.2376
29875SOL     OW94080   3.058   7.495   0.362  0.0964 -1.0682 -0.2593
29875SOL    HW194081   3.011   7.411   0.366 -0.4947 -0.8035 -1.1809
29875SOL    HW294082   3.025   7.545   0.436 -0.2175 -1.3239 -0.2255
29876SOL     OW94083   2.166   6.644   7.933  0.1261 -0.0713 -0.1553
29876SOL    HW194084   2.146   6.738   7.928 -1.7982 -0.3718  0.6848
29876SOL    HW294085   2.151   6.612   7.844  1.8950  0.5784 -0.7151
29877SOL     OW94086   9.105   9.010   1.661  0.2373 -0.1582 -0.4867
29877SOL    HW194087   9.112   8.981   1.751 -1.1590 -0.4736 -0.4640
29877SOL    HW294088   9.177   8.966   1.615  1.3913  0.5480  0.5779
29878SOL     OW94089   8.019   7.034   6.281  0.3805 -0.5736 -0.3357
29878SOL    HW194090   8.100   7.084   6.267 -0.6680  0.7876 -1.9107
29878SOL    HW294091   7.988   7.063   6.367  1.0261 -0.3387 -0.1696
29879SOL     OW94092   3.982   6.630   5.159 -0.4258 -0.2684 -0.2799
29879SOL    HW194093   3.972   6.723   5.181 -0.5210 -0.4605  0.5087
29879SOL    HW294094   3.935   6.584   5.228 -0.8354 -0.8901 -0.9664
29880SOL     OW94095  10.738   5.406   5.696  0.3908 -0.1376 -1.2416
29880SOL    HW194096  10.787   5.336   5.652 -0.1113 -1.1835 -0.2030
29880SOL    HW294097  10.649   5.372   5.704  0.5498 -0.2275  0.9527
29881SOL     OW94098   2.431   0.499   8.863  0.3163 -0.4867  0.3508
29881SOL    HW194099   2.343   0.524   8.892  0.0852 -1.6453  0.7013
29881SOL    HW294100   2.423   0.490   8.768 -0.4309 -2.2829  0.5387
29882SOL     OW94101   1.399   4.572   0.155  0.4282  0.4924  0.0045
29882SOL    HW194102   1.456   4.511   0.202 -0.0229 -1.1886 -1.5312
29882SOL    HW294103   1.457   4.643   0.128  1.0260  0.6477  1.5819
29883SOL     OW94104   8.180   2.546   0.101 -0.4036  0.1563  0.2797
29883SOL    HW194105   8.233   2.590   0.035 -0.2585  0.9202  0.8839
29883SOL    HW294106   8.210   2.455   0.100  0.3730  0.4096  0.0700
29884SOL     OW94107   8.261  10.603   8.434  0.2643  0.3698 -0.7292
29884SOL    HW194108   8.329  10.536   8.423  0.4275  0.5281 -0.7013
29884SOL    HW294109   8.184  10.567   8.389  0.1939 -0.0638 -0.2698
29885SOL     OW94110   8.992   1.100  10.423  0.3031 -0.2559  0.2985
29885SOL    HW194111   9.046   1.171  10.457  1.6661 -0.4859 -1.2755
29885SOL    HW294112   8.913   1.143  10.391  0.6329  0.4109  0.3685
29886SOL     OW94113   7.808  10.301   0.942 -0.5941  0.4058  0.2839
29886SOL    HW194114   7.875  10.237   0.918 -0.1500  0.9432  0.0607
29886SOL    HW294115   7.849  10.356   1.008 -0.7804  0.7904  0.0868
29887SOL     OW94116   6.141   4.540   9.305 -0.1947 -0.2358  0.6500
29887SOL    HW194117   6.053   4.509   9.284 -0.3704  0.4734  0.3336
29887SOL    HW294118   6.177   4.570   9.221 -1.0390  3.0188  1.3232
29888SOL     OW94119   6.250   1.376   7.045  0.1375 -0.0969  0.1946
29888SOL    HW194120   6.187   1.313   7.081  0.9137 -1.3801 -0.5869
29888SOL    HW294121   6.198   1.453   7.025 -1.2570 -1.1985 -0.6340
29889SOL     OW94122   8.425   7.296   8.506 -0.5073 -0.4619  0.0638
29889SOL    HW194123   8.360   7.336   8.564  1.4604  2.6492  0.3520
29889SOL    HW294124   8.479   7.243   8.564 -0.7167 -0.2611  0.4490
29890SOL     OW94125   8.526   4.344   6.082  0.2978 -0.0113 -0.4294
29890SOL    HW194126   8.444   4.392   6.071  0.9523  0.8133 -2.0464
29890SOL    HW294127   8.506   4.276   6.146 -1.7008  0.0472 -0.9416
29891SOL     OW94128   2.570   8.562   2.346 -0.1407 -0.5223 -0.0353
29891SOL    HW194129   2.634   8.522   2.405 -0.0303 -2.4250 -1.3358
29891SOL    HW294130   2.559   8.497   2.276 -3.9524 -0.5562  0.4188
29892SOL     OW94131  10.420   9.390   0.391  0.4413  0.2551  0.2617
29892SOL    HW194132  10.402   9.477   0.355  0.7381  1.1272  2.1033
29892SOL    HW294133  10.496   9.359   0.341 -1.0525 -0.0113 -2.0135
29893SOL     OW94134  10.951  11.037   3.851  0.5871 -0.9016  0.5263
29893SOL    HW194135  10.958  10.953   3.806 -0.2387 -0.4766 -0.4581
29893SOL    HW294136  10.857  11.057   3.851  0.7195 -0.2160  1.1947
29894SOL     OW94137   8.331   1.513   2.204  0.4431  0.0143  0.1869
29894SOL    HW194138   8.332   1.604   2.233 -0.2174 -0.0959  0.5737
29894SOL    HW294139   8.241   1.498   2.175  0.5147 -0.5512  0.2395
29895SOL     OW94140   4.852   1.213   6.069  0.1229  0.0475  0.7208
29895SOL    HW194141   4.859   1.169   6.154 -0.8353  0.5757  1.0821
29895SOL    HW294142   4.759   1.234   6.060 -0.0234 -1.0825 -1.0150
29896SOL     OW94143   2.925   7.190   9.872  0.3141  0.1145 -0.6526
29896SOL    HW194144   2.878   7.261   9.915  0.4572  0.0204 -0.3332
29896SOL    HW294145   2.962   7.139   9.944 -0.3514 -0.6774 -0.8543
29897SOL     OW94146   8.298   6.539   0.630 -0.2512 -0.1680 -0.1561
29897SOL    HW194147   8.245   6.550   0.710 -0.1032 -0.2879 -0.0425
29897SOL    HW294148   8.338   6.625   0.617  0.1395 -0.2960  0.1924
29898SOL     OW94149   4.628   6.613   8.253 -0.6188 -0.6489 -0.5503
29898SOL    HW194150   4.541   6.646   8.231  0.5971  2.4297 -1.2964
29898SOL    HW294151   4.688   6.684   8.227  1.9529 -1.8172  1.6849
29899SOL     OW94152   4.868   3.869   5.355  0.1236  0.2859 -0.0924
29899SOL    HW194153   4.920   3.947   5.341  2.4128 -0.6304  2.4302
29899SOL    HW294154   4.844   3.872   5.448 -1.6220 -0.9410 -0.4468
29900SOL     OW94155   2.248   1.675   1.490  0.2804  0.3553 -0.4665
29900SOL    HW194156   2.242   1.591   1.444 -0.3038  0.4473 -0.5685
29900SOL    HW294157   2.170   1.677   1.546  0.9652  0.2578  0.5109
29901SOL     OW94158  10.647   4.469   5.051 -0.2907  0.1548 -0.7181
29901SOL    HW194159  10.568   4.498   5.006 -0.0420  2.3275  0.1263
29901SOL    HW294160  10.619   4.393   5.102 -2.0976  1.3843  0.2398
29902SOL     OW94161   4.086   7.558  10.221  0.0673  0.0296  0.0312
29902SOL    HW194162   4.166   7.551  10.272 -0.0253  1.1511  0.3557
29902SOL    HW294163   4.111   7.528  10.133  0.9029  0.5821  0.0706
29903SOL     OW94164   4.612   5.088   8.332 -0.1453  0.1844 -0.4156
29903SOL    HW194165   4.665   5.158   8.367 -0.0346 -0.2183  0.2331
29903SOL    HW294166   4.674   5.018   8.310 -0.1329  0.6615 -2.0366
29904SOL     OW94167   8.015   3.552   2.133  0.2121  0.7337 -0.1545
29904SOL    HW194168   8.019   3.521   2.042 -0.1620  0.3029 -0.0255
29904SOL    HW294169   8.083   3.501   2.178 -1.2206 -0.8116  0.3216
29905SOL     OW94170   9.399   6.613   0.897 -0.5400 -0.3671 -0.4570
29905SOL    HW194171   9.344   6.680   0.938  0.4728 -0.9084  1.9002
29905SOL    HW294172   9.432   6.655   0.817 -1.6441  1.1438 -0.1710
29906SOL     OW94173   8.456   7.051   4.007 -0.2732 -0.0585 -0.0982
29906SOL    HW194174   8.544   7.090   4.004 -0.4564  0.6067  1.7651
29906SOL    HW294175   8.397   7.125   3.999 -0.6920 -0.4672 -0.9605
29907SOL     OW94176   8.560   8.175   7.054 -0.4806 -0.0598  0.0267
29907SOL    HW194177   8.567   8.223   6.972  0.2760 -0.9974 -0.4806
29907SOL    HW294178   8.487   8.115   7.041 -0.2767 -0.3017 -0.0209
29908SOL     OW94179   2.720   6.785   1.699 -0.6294  0.0952  0.0839
29908SOL    HW194180   2.651   6.738   1.746 -0.4475  0.3778  0.6485
29908SOL    HW294181   2.675   6.856   1.654 -0.6256  0.7336  1.0561
29909SOL     OW94182   7.914   2.877   5.364 -0.3731 -0.3940  0.5371
29909SOL    HW194183   7.942   2.941   5.299 -0.6286 -1.5789 -0.8124
29909SOL    HW294184   7.912   2.925   5.446 -0.3956  1.2706 -0.3861
29910SOL     OW94185   8.622   2.291   9.814 -0.5064 -0.1792  0.6861
29910SOL    HW194186   8.697   2.273   9.758 -1.5140  0.6829 -1.0372
29910SOL    HW294187   8.652   2.272   9.903  1.2990 -1.1441 -0.0975
29911SOL     OW94188   7.496   0.785  10.118  0.2550 -0.3359 -0.2684
29911SOL    HW194189   7.466   0.770  10.029 -1.6807 -1.7198  0.5626
29911SOL    HW294190   7.548   0.707  10.140 -0.4540 -0.6598  0.2800
29912SOL     OW94191   8.388   1.028   3.561  0.2325  0.3817  0.2731
29912SOL    HW194192   8.424   1.009   3.648  3.3257  1.4507 -0.6443
29912SOL    HW294193   8.385   1.124   3.558 -0.7852  0.3422 -0.4978
29913SOL     OW94194   8.691   3.573   8.085  0.0426  0.3511  0.5201
29913SOL    HW194195   8.600   3.574   8.114 -0.3535 -1.2427 -0.5263
29913SOL    HW294196   8.725   3.490   8.117  0.8068  0.4358 -0.0477
29914SOL     OW94197   7.643   1.440   2.462 -0.4245  0.0107 -0.2787
29914SOL    HW194198   7.568   1.478   2.417 -0.9074  0.8667  1.2031
29914SOL    HW294199   7.655   1.493   2.540  0.5883 -1.2379  0.4728
29915SOL     OW94200   1.682   4.886   0.991  0.2556  0.0061 -0.0115
29915SOL    HW194201   1.712   4.820   0.930  3.7192  1.8485 -0.5655
29915SOL    HW294202   1.742   4.960   0.978 -0.4010  1.4549  3.8443
29916SOL     OW94203   5.100   6.267   7.499 -0.3948  0.0068  0.5836
29916SOL    HW194204   5.149   6.298   7.575 -0.2290  1.6795 -0.1552
29916SOL    HW294205   5.073   6.347   7.453 -1.6267 -0.9217 -0.4127
29917SOL     OW94206   8.942   9.988  10.163  0.0781  0.4119 -0.0495
29917SOL    HW194207   8.920   9.907  10.116  2.4043 -1.5349  1.9388
29917SOL    HW294208   9.008  10.030  10.108 -0.1329  0.2405 -0.4379
29918SOL     OW94209   7.168   6.777   6.397 -0.3867  0.5913 -0.1726
29918SOL    HW194210   7.209   6.831   6.464 -0.2426 -0.5869  0.7240
29918SOL    HW294211   7.129   6.704   6.446 -0.0342 -0.4461 -1.3816
29919SOL     OW94212   2.538   8.095   9.776 -0.0475  0.4624  0.3283
29919SOL    HW194213   2.552   8.064   9.686 -0.2354  1.0799  0.0815
29919SOL    HW294214   2.623   8.129   9.803  0.7068 -1.9715  1.3046
29920SOL     OW94215   3.874   3.989   0.892  0.5920 -0.2642  0.1537
29920SOL    HW194216   3.866   3.968   0.799  0.5895  2.1730 -0.4813
29920SOL    HW294217   3.892   4.083   0.894  1.4648 -0.3871  2.6026
29921SOL     OW94218   9.588   5.180   8.048  0.7086  0.2415  0.1384
29921SOL    HW194219   9.614   5.164   8.139  0.4809 -1.6713 -0.1008
29921SOL    HW294220   9.493   5.189   8.052  0.5417 -1.1978 -0.0499
29922SOL     OW94221   6.543   1.137  10.427 -0.5342  0.3222  0.2713
29922SOL    HW194222   6.465   1.191  10.416 -0.5272  0.0643 -1.3412
29922SOL    HW294223   6.550   1.089  10.345  2.0823  1.3122 -0.1673
29923SOL     OW94224   2.122   3.962   8.608 -0.0402  0.0263  0.4899
29923SOL    HW194225   2.202   3.935   8.652  1.1380 -0.1287 -1.6213
29923SOL    HW294226   2.083   3.881   8.577 -0.0139  0.2396 -0.1079
29924SOL     OW94227   6.321   2.176   3.702  0.5237  0.1554  0.0693
29924SOL    HW194228   6.331   2.263   3.741  0.9382 -0.8911  2.4925
29924SOL    HW294229   6.234   2.178   3.663  0.2921  1.4961  0.5677
29925SOL     OW94230   3.885   7.369   9.481  0.0731 -0.3999  0.4202
29925SOL    HW194231   3.913   7.461   9.482 -0.3782 -0.2417 -0.4171
29925SOL    HW294232   3.945   7.325   9.541 -0.9685  0.7879  2.4343
29926SOL     OW94233   4.548   7.692  10.375  0.1329 -0.3231 -0.1483
29926SOL    HW194234   4.514   7.706  10.464  1.8440 -0.6818  0.6016
29926SOL    HW294235   4.643   7.701  10.384  0.2965  0.1645 -2.0618
29927SOL     OW94236   9.158   1.431  10.645 -0.0083 -0.1008 -0.1894
29927SOL    HW194237   9.072   1.409  10.681  1.0961 -1.2102  1.9423
29927SOL    HW294238   9.157   1.394  10.557 -1.2854 -1.2081  0.2526
29928SOL     OW94239   4.988   3.166   9.844 -0.5295 -0.0494  0.1794
29928SOL    HW194240   4.923   3.141   9.910  0.6182 -0.9808  1.0030
29928SOL    HW294241   4.980   3.261   9.837 -2.8509 -0.2300 -0.7018
29929SOL     OW94242   4.065   1.372   4.851 -0.5251  0.6210  0.5693
29929SOL    HW194243   4.028   1.460   4.851 -2.5277 -0.1680  0.1243
29929SOL    HW294244   4.116   1.367   4.770 -0.9837  1.1398  0.2432
29930SOL     OW94245   6.376   9.765   1.462  0.2112  0.5216 -0.4325
29930SOL    HW194246   6.452   9.737   1.411  1.1513  2.8604 -0.4009
29930SOL    HW294247   6.317   9.804   1.397 -1.2021 -1.5350 -0.5082
29931SOL     OW94248   5.861   1.303   2.300 -0.0245  0.4598 -0.1703
29931SOL    HW194249   5.947   1.322   2.264 -0.2503  2.0405  0.0718
29931SOL    HW294250   5.829   1.387   2.332 -0.7150 -0.5004  1.8044
29932SOL     OW94251   1.027   8.082   5.644 -0.1631 -0.9175  0.3588
29932SOL    HW194252   0.948   8.050   5.688  0.5959 -3.2186  0.1619
29932SOL    HW294253   1.033   8.028   5.565 -0.4828  1.8693 -1.7175
29933SOL     OW94254  10.117   2.222   2.390 -0.0801 -0.2708  0.2639
29933SOL    HW194255  10.132   2.133   2.359  1.2773  0.0188  0.0289
29933SOL    HW294256  10.058   2.211   2.466 -1.2619 -1.1952 -0.7418
29934SOL     OW94257   2.644   9.662   6.279  0.4959 -0.5283  0.2887
29934SOL    HW194258   2.582   9.660   6.205 -0.8004  0.6768  1.2845
29934SOL    HW294259   2.713   9.721   6.250  0.1464 -0.2860 -0.0709
29935SOL     OW94260   9.417   8.043   8.990 -0.0047  0.2031  0.3004
29935SOL    HW194261   9.484   7.996   8.941  0.1193  0.7479 -0.0670
29935SOL    HW294262   9.386   7.980   9.055  2.3141  0.5217  1.8745
29936SOL     OW94263   8.698   7.601   5.881  0.9984 -0.1816  1.3996
29936SOL    HW194264   8.629   7.541   5.909 -0.0968  0.1925 -0.3626
29936SOL    HW294265   8.703   7.666   5.951 -1.2372  0.4018  1.1026
29937SOL     OW94266   5.612   4.486   4.752 -0.0736  0.4224  0.4590
29937SOL    HW194267   5.533   4.485   4.807 -0.9015 -0.9611 -0.7080
29937SOL    HW294268   5.660   4.408   4.777  0.5151  0.8027  0.5448
29938SOL     OW94269  11.007   5.766  10.112  0.6906 -0.1035 -0.0647
29938SOL    HW194270  11.062   5.836  10.146 -0.0719  0.2502  0.4625
29938SOL    HW294271  11.003   5.702  10.183 -2.3151  1.4159  1.3260
29939SOL     OW94272   1.181   8.346   3.779 -0.0002 -0.0490  0.1361
29939SOL    HW194273   1.101   8.310   3.740  0.0547  1.1905 -1.1997
29939SOL    HW294274   1.227   8.269   3.813 -1.1214 -0.9367 -0.2707
29940SOL     OW94275   9.851   0.503   3.813 -0.4384  0.3624  0.3921
29940SOL    HW194276   9.822   0.562   3.743 -0.0518  1.6064  1.2527
29940SOL    HW294277   9.775   0.447   3.829 -0.2956 -0.4685 -1.5088
29941SOL     OW94278   7.465   6.972   0.116  0.1491 -0.7650 -0.5596
29941SOL    HW194279   7.447   6.896   0.171 -0.1828  0.2238  0.7522
29941SOL    HW294280   7.379   7.000   0.085 -0.2772  1.2664  2.0489
29942SOL     OW94281   0.336   4.154   8.423  0.7956  0.2177  0.3406
29942SOL    HW194282   0.394   4.078   8.429  0.2374 -0.4016 -1.4941
29942SOL    HW294283   0.355   4.191   8.337 -0.5129  0.8450  0.3056
29943SOL     OW94284  10.577   4.146   0.243  0.0958 -0.1812  0.2580
29943SOL    HW194285  10.670   4.155   0.222  0.3749 -1.3141  0.9389
29943SOL    HW294286  10.542   4.092   0.172  0.1282 -0.3919  0.3999
29944SOL     OW94287   0.659   9.727   5.249  0.1651 -0.3668  0.1138
29944SOL    HW194288   0.623   9.653   5.200 -1.1541 -0.5578  1.3142
29944SOL    HW294289   0.719   9.688   5.312  0.6607 -0.2634 -0.2908
29945SOL     OW94290   6.600   4.802   7.193 -0.2862 -0.3206  0.1360
29945SOL    HW194291   6.665   4.770   7.131  0.0050 -1.3456  0.9296
29945SOL    HW294292   6.516   4.781   7.152 -0.1382  0.7621 -0.7670
29946SOL     OW94293   5.831   5.419   3.723  0.4060 -0.3904  0.9200
29946SOL    HW194294   5.805   5.445   3.811 -1.5684 -0.5154  0.4241
29946SOL    HW294295   5.766   5.353   3.697  1.3603 -0.8705 -0.3661
29947SOL     OW94296   0.330   3.277   8.902 -0.6523 -0.1286 -0.3518
29947SOL    HW194297   0.285   3.262   8.819  0.8119  1.5338 -1.5273
29947SOL    HW294298   0.263   3.312   8.960 -1.3835  0.0824 -1.2953
29948SOL     OW94299   5.018   4.604   9.935 -0.1511  0.7020  0.9016
29948SOL    HW194300   5.055   4.686   9.968 -0.1019  1.4380 -0.8986
29948SOL    HW294301   5.094   4.547   9.923 -0.0815  0.7239  1.2147
29949SOL     OW94302   0.801   0.001  11.045  0.3177 -0.1315  0.0463
29949SOL    HW194303   0.753   0.082  11.061  0.0685 -0.3926  0.6278
29949SOL    HW294304   0.886   0.016  11.088  0.3262 -0.1214  0.0257
29950SOL     OW94305  10.823   8.610   5.370  0.0568 -0.5872 -0.1145
29950SOL    HW194306  10.867   8.525   5.377  0.1127 -0.5415  0.0822
29950SOL    HW294307  10.735   8.588   5.341  0.6499 -0.5855 -2.0741
29951SOL     OW94308   8.688   2.671   9.322  0.1322  0.0004  0.2937
29951SOL    HW194309   8.596   2.688   9.342  0.4129  0.5695  1.1901
29951SOL    HW294310   8.692   2.667   9.227 -0.9168 -0.6119  0.2624
29952SOL     OW94311   7.467   4.372   5.717 -0.3995 -0.3879 -0.2181
29952SOL    HW194312   7.510   4.347   5.799 -0.4983 -0.6977 -0.2569
29952SOL    HW294313   7.538   4.402   5.661 -0.5614  1.7854  0.6628
29953SOL     OW94314   7.909   7.943  10.927 -0.4072  0.3241  0.2450
29953SOL    HW194315   7.930   7.855  10.896  0.3902  0.1899  1.1232
29953SOL    HW294316   7.936   8.000  10.855 -0.6968 -0.1287 -0.2283
29954SOL     OW94317   0.411   2.562   0.860  0.0564 -0.0901 -0.4027
29954SOL    HW194318   0.498   2.552   0.821 -0.0812 -1.3122 -0.4284
29954SOL    HW294319   0.428   2.576   0.953  0.3264  1.3863 -0.6459
29955SOL     OW94320   4.291   7.469   6.214 -0.0295  0.1138  0.3268
29955SOL    HW194321   4.344   7.443   6.139 -0.1932 -2.3309  0.9765
29955SOL    HW294322   4.337   7.434   6.290 -0.5313  1.4302  1.2822
29956SOL     OW94323   9.211   4.758   4.853 -0.0108  0.1186  0.5540
29956SOL    HW194324   9.210   4.761   4.949  1.7344 -0.5607  0.6270
29956SOL    HW294325   9.122   4.732   4.829  0.1874 -2.3598  2.1246
29957SOL     OW94326   0.772   5.170   6.467 -0.4978 -0.2706 -0.0042
29957SOL    HW194327   0.828   5.136   6.538 -1.5585 -0.2709  0.8464
29957SOL    HW294328   0.818   5.248   6.437  1.0301 -1.3834 -0.7359
29958SOL     OW94329   6.383   1.189   2.919 -0.0074  0.0326  0.3715
29958SOL    HW194330   6.413   1.215   3.006  0.1876  0.1649  0.2664
29958SOL    HW294331   6.339   1.106   2.932 -0.1783  0.1632  0.6336
29959SOL     OW94332   7.259   8.905   5.320  0.1010 -0.2830  0.3168
29959SOL    HW194333   7.189   8.895   5.385 -1.2573  0.6396 -0.9357
29959SOL    HW294334   7.254   8.825   5.267 -0.5476  0.1292 -0.2562
29960SOL     OW94335   9.975   8.972   0.637 -0.4324 -0.7788  0.1172
29960SOL    HW194336  10.044   9.032   0.608 -0.8775 -0.7215 -0.8685
29960SOL    HW294337  10.002   8.887   0.604 -0.7747 -0.7750 -0.1834
29961SOL     OW94338   4.005   6.995   1.413  0.0666  0.2448  0.1703
29961SOL    HW194339   4.001   6.989   1.508  0.5435 -0.9818  0.1219
29961SOL    HW294340   3.914   6.987   1.384 -0.2589  1.9952  0.5595
29962SOL     OW94341   2.462   1.126  10.505  0.1457  0.0904  0.5014
29962SOL    HW194342   2.417   1.202  10.540  0.1021 -0.7670  2.4366
29962SOL    HW294343   2.466   1.064  10.578  0.8928 -1.4528 -0.7684
29963SOL     OW94344   9.362   8.366   7.778 -0.0122  0.5363  0.6390
29963SOL    HW194345   9.364   8.333   7.688 -0.9023  0.9193  0.4654
29963SOL    HW294346   9.440   8.421   7.785 -0.2379  0.9681 -0.0931
29964SOL     OW94347   2.944   6.988   1.723 -0.2288  0.3341 -0.1706
29964SOL    HW194348   2.916   6.898   1.741  0.1561  0.1972 -0.2611
29964SOL    HW294349   2.862   7.038   1.721 -0.5575 -0.2097 -1.2627
29965SOL     OW94350   4.362   6.637   8.072  0.4084  0.1470 -0.0963
29965SOL    HW194351   4.304   6.641   7.997 -1.0354  0.1604  0.9792
29965SOL    HW294352   4.370   6.544   8.092 -1.0352  0.2410  1.0624
29966SOL     OW94353   0.426   0.331   4.008  0.4077 -0.0676 -0.1656
29966SOL    HW194354   0.431   0.271   3.933  1.1664  0.4138 -0.5098
29966SOL    HW294355   0.371   0.403   3.978 -0.3346 -0.4774  0.1793
29967SOL     OW94356   7.274   6.193   1.999  0.0377  0.2725 -0.2984
29967SOL    HW194357   7.286   6.163   2.089  0.6188  0.5950 -0.2699
29967SOL    HW294358   7.261   6.112   1.949  2.4207 -0.1415 -0.3553
29968SOL     OW94359   9.992   7.380   1.208 -0.1155  0.5550  0.2828
29968SOL    HW194360  10.046   7.410   1.135  3.2779  1.9379  3.0506
29968SOL    HW294361  10.018   7.289   1.222  0.4757  0.7738  0.6839
29969SOL     OW94362   4.031   2.076   9.879  0.6943  0.0765 -0.9814
29969SOL    HW194363   4.066   2.115   9.959  0.8925  0.8107 -1.4113
29969SOL    HW294364   4.086   2.113   9.809 -0.4583  0.6631 -1.6019
29970SOL     OW94365   1.535  10.019   9.057 -0.3763 -0.9143  0.2222
29970SOL    HW194366   1.551  10.110   9.033 -0.9694 -0.6302  0.8530
29970SOL    HW294367   1.469  10.024   9.126 -0.6557 -1.8421  0.0376
29971SOL     OW94368   7.200   5.322   1.142  0.1096  0.3151 -0.2175
29971SOL    HW194369   7.168   5.384   1.076  2.1223  1.7395  0.0546
29971SOL    HW294370   7.121   5.275   1.171 -1.4964  2.6065 -0.5959
29972SOL     OW94371   3.548   2.455   8.205  0.2766 -0.0659  0.0214
29972SOL    HW194372   3.506   2.538   8.227 -1.6616 -0.2153 -2.6599
29972SOL    HW294373   3.641   2.471   8.221 -0.1914  2.1151  0.9755
29973SOL     OW94374   3.684   4.097   9.064  0.0292 -0.2078  0.2396
29973SOL    HW194375   3.667   4.056   9.148  1.1494 -0.6467  0.2728
29973SOL    HW294376   3.771   4.065   9.039  0.1116  0.6604 -0.6357
29974SOL     OW94377   8.534   9.955   1.352  0.5845 -0.2884  0.0165
29974SOL    HW194378   8.571  10.035   1.390 -0.9822  1.0117 -1.0527
29974SOL    HW294379   8.476   9.920   1.420  0.2121  0.2653 -0.0126
29975SOL     OW94380   3.753  10.226   2.579  0.1300 -0.0713  0.1709
29975SOL    HW194381   3.695  10.164   2.535 -0.2397  0.8075 -0.6051
29975SOL    HW294382   3.835  10.221   2.531  0.8719 -1.6086  1.5122
29976SOL     OW94383   8.333   3.986   0.523  0.0638 -0.2733 -0.2691
29976SOL    HW194384   8.290   3.905   0.495  0.9219 -0.1832 -1.9744
29976SOL    HW294385   8.276   4.021   0.591 -0.3903 -2.2297  0.4180
29977SOL     OW94386   3.976   3.025   0.566  0.4568 -0.0816 -0.7478
29977SOL    HW194387   4.009   2.978   0.643  0.5415 -2.6492 -2.2653
29977SOL    HW294388   4.053   3.037   0.510  0.7373  3.2013  0.1242
29978SOL     OW94389   6.162   1.512   5.450  0.3305 -0.3467  0.5263
29978SOL    HW194390   6.190   1.452   5.519  1.7279 -0.1151  0.1874
29978SOL    HW294391   6.233   1.509   5.385  0.4805  1.7135  0.5466
29979SOL     OW94392  10.036   1.961  10.041 -0.2144 -0.1593 -0.0079
29979SOL    HW194393   9.972   1.994  10.103 -2.2180 -1.1701 -1.4337
29979SOL    HW294394  10.027   2.016   9.964  1.2596  0.2101  0.0511
29980SOL     OW94395   6.625  10.400   8.906 -0.6771 -0.5536 -0.6136
29980SOL    HW194396   6.570  10.342   8.853 -0.6618  0.7328 -2.0911
29980SOL    HW294397   6.612  10.487   8.869  1.0810  0.0474  0.0653
29981SOL     OW94398   0.579   1.326   8.856 -0.2946  0.0586  0.4837
29981SOL    HW194399   0.500   1.319   8.910  0.1869  0.9701  1.3308
29981SOL    HW294400   0.646   1.361   8.915  0.3492  0.7154 -0.6002
29982SOL     OW94401   2.960   6.421   8.731  0.1911  0.0868 -0.0952
29982SOL    HW194402   2.908   6.412   8.651 -1.0025  1.4568  0.4852
29982SOL    HW294403   2.992   6.511   8.728  0.7665 -0.0867  0.6191
29983SOL     OW94404   0.654   9.292   2.605 -0.0913  0.1062  0.4133
29983SOL    HW194405   0.630   9.349   2.532 -2.0248 -1.7528 -0.5033
29983SOL    HW294406   0.729   9.241   2.573 -0.7507 -0.4993 -0.1923
29984SOL     OW94407   5.484   1.589   2.931  0.0802  0.0715  0.2856
29984SOL    HW194408   5.518   1.607   3.018  0.1910  0.1823  0.2193
29984SOL    HW294409   5.465   1.675   2.894  2.1204  0.1765 -0.6439
29985SOL     OW94410   9.358   1.226   5.199  0.7339 -0.2143  0.0758
29985SOL    HW194411   9.268   1.197   5.182  1.4465 -2.1716 -0.6433
29985SOL    HW294412   9.349   1.318   5.222 -1.2448  0.2596 -2.1770
29986SOL     OW94413   2.022   3.912   2.241  0.5017 -0.1754  0.1871
29986SOL    HW194414   2.112   3.943   2.252  0.2121 -0.0394  2.8884
29986SOL    HW294415   2.022   3.824   2.278 -0.4531 -0.2115  0.1258
29987SOL     OW94416   7.638   2.655   4.031  0.0621 -0.7409 -0.6031
29987SOL    HW194417   7.565   2.637   4.090  0.3989 -0.2613 -0.0352
29987SOL    HW294418   7.714   2.668   4.088  0.4299 -0.4565 -1.1419
29988SOL     OW94419   4.208  10.298   2.282  0.3961 -0.0986  0.0266
29988SOL    HW194420   4.199  10.263   2.193 -1.4558  0.2061  0.0520
29988SOL    HW294421   4.297  10.273   2.309  0.8441 -0.5614 -1.7377
29989SOL     OW94422   9.446   8.044   2.605  0.6824  0.6269  0.2022
29989SOL    HW194423   9.378   7.977   2.614  1.4983 -0.7810 -2.8122
29989SOL    HW294424   9.423   8.111   2.670 -2.8558 -0.3349  0.1426
29990SOL     OW94425   4.413   9.194   0.822 -0.3037  0.0871 -0.1783
29990SOL    HW194426   4.412   9.109   0.778 -2.2160  0.4907 -1.0408
29990SOL    HW294427   4.329   9.233   0.799  0.3938  2.0868  0.4607
29991SOL     OW94428   1.512  10.154   6.329  0.3567 -0.4656 -0.2403
29991SOL    HW194429   1.496  10.170   6.236  0.2931  0.0776 -0.1401
29991SOL    HW294430   1.457  10.079   6.350  0.3197 -0.5488 -0.6259
29992SOL     OW94431   8.237   2.162   3.067  0.1643  0.1088 -0.3765
29992SOL    HW194432   8.166   2.106   3.098  0.1965  1.5044  2.6023
29992SOL    HW294433   8.317   2.116   3.094  0.1889  1.4853  2.1989
29993SOL     OW94434   8.394   1.165   9.325 -0.3487 -0.5362 -0.4346
29993SOL    HW194435   8.449   1.238   9.297 -0.9264  0.3982  0.7714
29993SOL    HW294436   8.305   1.192   9.303 -0.6237 -0.6009  0.5376
29994SOL     OW94437  10.247   3.765   3.606  0.3540 -0.1451  0.0023
29994SOL    HW194438  10.223   3.849   3.567 -1.9917 -1.0426 -0.6535
29994SOL    HW294439  10.295   3.719   3.537  1.2814  0.4614  0.2230
29995SOL     OW94440   9.420   4.064   2.396 -0.8061  0.1155  0.1425
29995SOL    HW194441   9.453   4.154   2.402  0.0865 -0.1506 -0.5730
29995SOL    HW294442   9.358   4.067   2.323 -2.4578  0.6249  1.5126
29996SOL     OW94443   7.938   7.491   0.020  0.0223 -0.0951  0.4547
29996SOL    HW194444   7.946   7.423  -0.047  3.2196  0.3366  0.2497
29996SOL    HW294445   7.956   7.573  -0.026  0.4748  0.3941  1.4701
29997SOL     OW94446   3.218   6.569   2.727  0.3799  0.5606  0.2914
29997SOL    HW194447   3.244   6.525   2.808  2.5062 -0.3229 -0.7707
29997SOL    HW294448   3.155   6.509   2.686  1.1813 -0.2188  0.1570
29998SOL     OW94449  10.307   6.500   2.299 -0.3877 -0.1265 -0.4708
29998SOL    HW194450  10.347   6.427   2.252  1.1764  0.7639 -0.5969
29998SOL    HW294451  10.320   6.478   2.391  1.9747  0.8866 -0.4809
29999SOL     OW94452   6.423   5.943   8.676 -0.9636 -0.3348  0.2048
29999SOL    HW194453   6.492   5.968   8.738 -1.5280  0.4860  0.5177
29999SOL    HW294454   6.379   5.869   8.717 -0.1259 -1.0235 -0.1057
30000SOL     OW94455   4.438  10.442   3.978  0.8664  0.0352 -0.5149
30000SOL    HW194456   4.396  10.394   4.049  0.5472 -0.2612 -0.8911
30000SOL    HW294457   4.440  10.533   4.007  1.3936 -0.1909  0.1661
30001SOL     OW94458   8.109   5.717   8.262  0.3123 -0.1334  0.0182
30001SOL    HW194459   8.082   5.755   8.179 -0.1664  2.9786  1.4509
30001SOL    HW294460   8.032   5.668   8.292 -0.1263  0.1548 -0.6156
30002SOL     OW94461   3.861   7.973   3.383  0.1152 -0.1671 -0.2126
30002SOL    HW194462   3.927   7.947   3.319 -1.5355 -1.5655 -1.4328
30002SOL    HW294463   3.904   8.042   3.434  1.7405  0.5436 -2.3554
30003SOL     OW94464   4.252   8.411   3.519 -0.1188  0.1458 -0.3490
30003SOL    HW194465   4.205   8.391   3.438 -2.0670  0.7259  0.5631
30003SOL    HW294466   4.258   8.327   3.565 -1.2187  0.2021 -0.0493
30004SOL     OW94467   6.133   0.008   2.023  0.1049  0.5400 -0.7795
30004SOL    HW194468   6.219   0.041   1.996  0.1216  0.0831 -1.2937
30004SOL    HW294469   6.072   0.051   1.964 -0.0365  0.9283 -0.3601
30005SOL     OW94470   0.766   0.536   2.924 -0.1697  0.1318 -0.8702
30005SOL    HW194471   0.747   0.587   2.845 -1.6586 -0.7908 -1.1379
30005SOL    HW294472   0.802   0.600   2.985 -0.9280  1.2842 -1.5883
30006SOL     OW94473   7.478  10.098   9.460  0.0584  0.2020  0.1589
30006SOL    HW194474   7.527  10.111   9.379 -0.2576  1.4457  0.1473
30006SOL    HW294475   7.457  10.186   9.490 -0.9144 -0.2682  0.9349
30007SOL     OW94476  10.854   0.604   2.669  0.0846 -0.5856 -0.3447
30007SOL    HW194477  10.822   0.544   2.602 -0.5828 -0.3343 -0.2645
30007SOL    HW294478  10.929   0.560   2.707  1.0293 -0.3533 -1.8493
30008SOL     OW94479  10.889   9.024   2.072  0.1016 -0.1117 -0.6765
30008SOL    HW194480  10.826   8.960   2.039  0.2043 -1.2755  1.2061
30008SOL    HW294481  10.973   8.995   2.037  0.1325 -1.0052  0.0823
30009SOL     OW94482   2.877   2.432   3.251 -0.0089  0.2529  0.0880
30009SOL    HW194483   2.889   2.466   3.162 -2.7718 -2.4030 -1.5123
30009SOL    HW294484   2.964   2.405   3.278  1.2047  2.7209 -1.0247
30010SOL     OW94485   1.655   1.230   5.837  0.0397  0.1613  0.2760
30010SOL    HW194486   1.638   1.146   5.794 -0.5137  0.4702 -0.1200
30010SOL    HW294487   1.570   1.273   5.841  0.0037  0.0065  1.9990
30011SOL     OW94488   5.588   9.088   4.204 -0.0447 -0.1274 -0.6290
30011SOL    HW194489   5.577   8.994   4.215 -2.7574  0.2095  0.2539
30011SOL    HW294490   5.647   9.113   4.275  2.2101 -1.3405 -1.9686
30012SOL     OW94491   1.017   1.820   3.516 -0.3265  0.3138  0.5776
30012SOL    HW194492   1.104   1.841   3.551 -0.7544  0.2828  1.6936
30012SOL    HW294493   1.029   1.738   3.468  0.2648  0.3285  0.6927
30013SOL     OW94494   7.742   1.218  11.049 -0.4722  0.7259 -0.0990
30013SOL    HW194495   7.746   1.146  11.112  1.1712  1.2651  0.4597
30013SOL    HW294496   7.651   1.248  11.052 -0.7501 -0.1582  0.9865
30014SOL     OW94497   0.842   8.197   2.146  0.0858  0.0271  0.5628
30014SOL    HW194498   0.892   8.258   2.092  0.3721  0.8786  1.7631
30014SOL    HW294499   0.907   8.151   2.198 -0.1649 -1.0243 -0.0176
30015SOL     OW94500   4.337   2.837   6.602  0.1585 -0.7744  0.1608
30015SOL    HW194501   4.271   2.864   6.538  1.4073 -0.0817 -0.8823
30015SOL    HW294502   4.392   2.775   6.555  2.2678  1.1817 -0.1360
30016SOL     OW94503   7.284   0.827   8.967  0.2207 -0.5329 -0.5543
30016SOL    HW194504   7.346   0.847   8.897 -1.0424  0.6769 -1.3711
30016SOL    HW294505   7.313   0.881   9.041 -0.4055  0.8210 -1.2563
30017SOL     OW94506   5.233   9.084   1.245  0.0004  0.5805 -0.0885
30017SOL    HW194507   5.229   9.180   1.249  0.3442  0.5432  2.2082
30017SOL    HW294508   5.306   9.061   1.301 -1.2722 -1.1046  0.9589
30018SOL     OW94509   9.588   5.856   3.825 -0.3631  0.4246 -0.5094
30018SOL    HW194510   9.510   5.889   3.869  0.6771  0.2783  1.5731
30018SOL    HW294511   9.570   5.869   3.731 -2.3899  1.4085 -0.0462
30019SOL     OW94512   5.455   0.239   1.286  0.1048  0.2890  0.4554
30019SOL    HW194513   5.537   0.281   1.313  0.3177 -0.1313  0.4787
30019SOL    HW294514   5.467   0.147   1.311 -0.9201  0.4727  1.7277
30020SOL     OW94515   7.748   1.401   9.815  1.1026 -0.2994  0.2297
30020SOL    HW194516   7.696   1.325   9.841  0.2645 -0.4294 -1.6168
30020SOL    HW294517   7.812   1.366   9.752  1.0714  0.4298 -0.2211
30021SOL     OW94518   4.412   5.719   5.624 -0.2083 -0.4211 -0.1363
30021SOL    HW194519   4.410   5.723   5.719  2.3556 -0.6202 -0.0246
30021SOL    HW294520   4.341   5.658   5.601 -1.0740 -0.1112  1.5801
30022SOL     OW94521   7.771   8.226   2.746  0.4459 -0.0439  0.3890
30022SOL    HW194522   7.765   8.148   2.691 -1.1820  0.6313 -0.4619
30022SOL    HW294523   7.858   8.261   2.729  0.1146 -0.0617 -1.4916
30023SOL     OW94524   1.206   5.554   9.639  0.0705 -0.3005 -0.2145
30023SOL    HW194525   1.150   5.596   9.573  0.2810  0.6703  0.1972
30023SOL    HW294526   1.184   5.598   9.721  0.8999 -0.4117  0.0840
30024SOL     OW94527   2.897   0.783   5.332 -0.3823 -0.1266  0.2000
30024SOL    HW194528   2.906   0.689   5.320 -1.3622 -0.2341  0.2385
30024SOL    HW294529   2.806   0.795   5.361  0.0509  0.7256  1.2482
30025SOL     OW94530   8.871  10.153  10.904 -0.4568  0.3111 -0.3884
30025SOL    HW194531   8.837  10.111  10.825 -1.3336 -0.2698  0.2792
30025SOL    HW294532   8.914  10.232  10.872  0.4603 -0.6383 -1.5832
30026SOL     OW94533   3.488   0.505   6.519  0.7234 -0.4850 -0.4367
30026SOL    HW194534   3.406   0.551   6.501  1.0937  0.7261  0.8412
30026SOL    HW294535   3.475   0.464   6.604  1.1745 -0.9105 -0.5693
30027SOL     OW94536   7.162   5.301   2.300  0.0908 -0.2704  0.0998
30027SOL    HW194537   7.169   5.392   2.329  0.2499 -0.1493 -0.3050
30027SOL    HW294538   7.083   5.268   2.343 -0.4530  0.3205 -0.4204
30028SOL     OW94539   7.727   0.067   3.896 -0.1962 -0.1874  0.0368
30028SOL    HW194540   7.639   0.041   3.925 -0.4203  0.6704  0.1530
30028SOL    HW294541   7.766   0.108   3.973  0.1918 -0.2729 -0.1119
30029SOL     OW94542   7.772   8.580   9.174 -0.0217  0.0446 -0.4090
30029SOL    HW194543   7.856   8.608   9.209 -0.0244 -2.3749  1.9012
30029SOL    HW294544   7.739   8.655   9.126  4.1381  0.5916 -2.8638
30030SOL     OW94545   7.302   4.847   0.783  0.7454 -0.5896 -0.3608
30030SOL    HW194546   7.230   4.898   0.821  1.2594  1.2628 -1.7257
30030SOL    HW294547   7.258   4.780   0.730  0.0147  0.1061 -0.6564
30031SOL     OW94548   2.347   1.673   5.487 -0.3826  0.7269 -0.4953
30031SOL    HW194549   2.347   1.615   5.563  0.4531  0.2007 -0.8732
30031SOL    HW294550   2.271   1.645   5.435 -0.6562  0.7454 -0.1046
30032SOL     OW94551   4.243   8.679   3.196 -0.7260  0.0776  0.1085
30032SOL    HW194552   4.158   8.712   3.166 -0.0894 -0.1946 -2.1182
30032SOL    HW294553   4.278   8.750   3.250 -1.2330  1.3121 -1.1198
30033SOL     OW94554   4.407   5.193   7.602 -0.4426  0.0721  0.2243
30033SOL    HW194555   4.399   5.254   7.529  0.2946 -1.0998 -0.8763
30033SOL    HW294556   4.339   5.127   7.586  1.6271 -1.8506 -1.1211
30034SOL     OW94557   8.745   6.209   6.254 -0.5412 -0.4496 -0.2633
30034SOL    HW194558   8.651   6.201   6.272 -0.2930 -0.5143  1.1099
30034SOL    HW294559   8.766   6.300   6.274 -0.0549 -0.7814  0.7905
30035SOL     OW94560   2.591   3.922   3.091 -0.3477  1.0331 -0.4151
30035SOL    HW194561   2.641   3.972   3.155  1.4251  0.5278 -1.3400
30035SOL    HW294562   2.619   3.831   3.105 -1.2789  0.6855 -0.7426
30036SOL     OW94563   1.977   4.498   3.519  0.0769 -0.3556 -0.0698
30036SOL    HW194564   1.953   4.576   3.467 -1.0275 -1.0911 -0.7098
30036SOL    HW294565   2.062   4.472   3.484  0.1613  0.2019 -0.2952
30037SOL     OW94566   3.789   7.860   2.382  0.4130 -0.6458 -0.3438
30037SOL    HW194567   3.842   7.937   2.399  1.9667 -1.6612 -0.4203
30037SOL    HW294568   3.744   7.879   2.299 -0.9745  1.0453  0.7358
30038SOL     OW94569   2.125   3.505   5.786  0.2254 -0.2201  0.4256
30038SOL    HW194570   2.089   3.563   5.853  0.8441  2.5542 -1.5005
30038SOL    HW294571   2.051   3.485   5.729  0.6609  1.5664 -0.8335
30039SOL     OW94572   1.102   1.519   6.918 -0.1966 -0.4410  0.1305
30039SOL    HW194573   1.112   1.441   6.863  0.2809 -1.1465  1.1720
30039SOL    HW294574   1.148   1.588   6.871 -1.4506 -0.5438 -1.2747
30040SOL     OW94575   3.327   7.015  10.414 -0.3083  0.3470 -0.5226
30040SOL    HW194576   3.330   7.026  10.319 -1.0833  1.6971 -0.3980
30040SOL    HW294577   3.342   7.102  10.450 -2.0213  0.2479  0.5645
30041SOL     OW94578   3.691   2.617   2.302  0.2312 -0.3322 -0.0350
30041SOL    HW194579   3.685   2.685   2.235  1.4195 -0.2948 -0.1312
30041SOL    HW294580   3.614   2.563   2.288 -3.1663  3.2194  2.6539
30042SOL     OW94581   4.727   0.935   5.809 -0.4135  0.4856  0.1164
30042SOL    HW194582   4.770   1.011   5.769 -1.3389  0.8939 -0.1526
30042SOL    HW294583   4.641   0.969   5.836 -1.5095 -0.8229 -1.5030
30043SOL     OW94584  11.051   7.828   3.561 -0.0109 -0.6394  0.1078
30043SOL    HW194585  11.012   7.766   3.622  0.2219  0.1461  1.0724
30043SOL    HW294586  11.033   7.914   3.599 -0.5319 -0.0878 -1.3206
30044SOL     OW94587   2.334   3.091   9.677  0.4128  0.3863 -0.2292
30044SOL    HW194588   2.288   3.028   9.733  0.3799  0.5257 -0.0988
30044SOL    HW294589   2.336   3.172   9.728  0.4115  0.5059 -0.4174
30045SOL     OW94590   3.493   7.538   3.974 -0.3384  0.4081  0.5382
30045SOL    HW194591   3.435   7.477   3.927  0.0794  0.8598 -0.5958
30045SOL    HW294592   3.433   7.591   4.027 -0.6886 -1.2017  1.8634
30046SOL     OW94593  10.839   6.992   1.786 -0.0006 -0.3277  0.4523
30046SOL    HW194594  10.858   7.086   1.782 -0.7957 -0.1984 -1.1060
30046SOL    HW294595  10.918   6.950   1.754 -0.0882 -0.1030 -0.0786
30047SOL     OW94596   7.965   5.978   3.430 -0.3552  1.0514  0.1222
30047SOL    HW194597   8.059   5.960   3.436 -0.4387 -0.2858 -1.6923
30047SOL    HW294598   7.936   5.984   3.521  0.8968 -1.9266  0.8284
30048SOL     OW94599   8.734   0.085   5.613  0.2131  0.2715 -0.1215
30048SOL    HW194600   8.819   0.125   5.594 -0.7981  2.2105 -0.7857
30048SOL    HW294601   8.670   0.144   5.575 -1.4891 -0.9095  0.7578
30049SOL     OW94602   3.452   7.880   7.442  0.6275  0.2070  0.2651
30049SOL    HW194603   3.429   7.973   7.435  1.1829  0.4458  1.3519
30049SOL    HW294604   3.405   7.838   7.370 -0.2981  1.2098  0.2580
30050SOL     OW94605   4.342   4.513   9.426  0.2641 -0.4512  1.0550
30050SOL    HW194606   4.371   4.602   9.405  1.8349 -1.1972 -0.2285
30050SOL    HW294607   4.247   4.516   9.416  0.4948  0.4227 -1.9414
30051SOL     OW94608   2.681   6.276   2.876 -0.0231 -0.2611  0.5496
30051SOL    HW194609   2.586   6.290   2.876 -0.0246  0.0046 -1.2297
30051SOL    HW294610   2.715   6.343   2.817  1.3328 -0.0895  1.4837
30052SOL     OW94611   8.774   8.739   2.734  0.1641  0.6456 -1.0523
30052SOL    HW194612   8.796   8.797   2.806 -0.8062  0.3167 -0.4629
30052SOL    HW294613   8.679   8.749   2.724 -0.2084 -1.5147 -0.2772
30053SOL     OW94614   3.981   6.814   4.089  0.4280  0.3711  0.1748
30053SOL    HW194615   4.068   6.774   4.084  1.0754  1.8664 -1.4198
30053SOL    HW294616   3.927   6.760   4.031 -0.0147 -1.1297  1.8854
30054SOL     OW94617   5.089   4.331   5.040 -0.0754  0.1010 -0.5195
30054SOL    HW194618   5.048   4.258   4.993  1.1820 -0.7375 -0.3766
30054SOL    HW294619   5.020   4.397   5.047 -1.2611 -1.0799 -0.6403
30055SOL     OW94620   5.475   6.255   4.218 -0.5220  0.2320 -0.0855
30055SOL    HW194621   5.441   6.218   4.300 -1.7910 -0.0712 -0.7342
30055SOL    HW294622   5.503   6.343   4.242  0.2699 -0.2731  0.9383
30056SOL     OW94623   8.760   8.568   8.852  0.2526 -0.2199  0.3323
30056SOL    HW194624   8.678   8.618   8.853 -0.4473 -1.3229  1.0997
30056SOL    HW294625   8.821   8.622   8.802 -0.5497  1.2399  0.8656
30057SOL     OW94626   2.406   6.329   6.860  0.5448 -0.0638  0.2708
30057SOL    HW194627   2.474   6.269   6.828  0.6948  0.4402 -0.3813
30057SOL    HW294628   2.339   6.327   6.792  1.0127  1.2634 -0.2616
30058SOL     OW94629   6.834   0.982   0.594 -0.7956 -0.0268  0.5594
30058SOL    HW194630   6.764   0.929   0.556 -0.7340  0.7049 -0.6126
30058SOL    HW294631   6.845   1.055   0.534  1.8557 -0.7638 -0.0151
30059SOL     OW94632   4.004   2.472   6.171  0.3788  0.0845 -0.0678
30059SOL    HW194633   4.026   2.487   6.079 -1.2769  0.1975 -0.4806
30059SOL    HW294634   3.918   2.429   6.169  0.2230  0.2485  1.4291
30060SOL     OW94635   2.421   9.767   5.328  0.0621  0.0492 -0.0570
30060SOL    HW194636   2.351   9.828   5.308 -1.1317 -1.6397 -1.3157
30060SOL    HW294637   2.416   9.754   5.423 -0.0951  1.3350  0.1290
30061SOL     OW94638  10.867   8.643   7.018  0.2559  0.1604  0.1952
30061SOL    HW194639  10.796   8.647   6.954 -0.6420  1.3390  1.2130
30061SOL    HW294640  10.899   8.553   7.014  0.4807  0.2925 -2.1516
30062SOL     OW94641   0.033  10.600   6.982 -0.4118 -0.3464 -0.2439
30062SOL    HW194642   0.000  10.665   6.919  1.7942  0.7475 -0.3445
30062SOL    HW294643   0.082  10.537   6.928 -0.2631 -0.5785  0.1589
30063SOL     OW94644   1.051   0.893   6.741  0.1366 -0.4877  0.1831
30063SOL    HW194645   0.974   0.927   6.787  0.2984 -0.3690  0.3654
30063SOL    HW294646   1.111   0.967   6.735  0.3896 -0.6749  0.3678
30064SOL     OW94647   9.329   7.176   6.727  0.0503 -0.0590 -0.2511
30064SOL    HW194648   9.287   7.154   6.810  1.2419  1.9523  0.9675
30064SOL    HW294649   9.257   7.181   6.664 -0.8322 -2.0095  0.5233
30065SOL     OW94650   5.635   8.984   9.235  0.1177 -0.8318  0.4264
30065SOL    HW194651   5.601   9.041   9.304 -1.1760 -0.8692 -0.1600
30065SOL    HW294652   5.611   8.895   9.262 -0.3797 -0.8487 -0.0431
30066SOL     OW94653   0.545   1.830   5.086  0.0405 -0.8373  0.1113
30066SOL    HW194654   0.516   1.822   4.995 -1.6034 -1.9350  0.6808
30066SOL    HW294655   0.465   1.819   5.137  1.2255 -2.4266  1.7510
30067SOL     OW94656   6.812   0.769   6.119  0.5811 -0.0080 -0.2596
30067SOL    HW194657   6.861   0.830   6.064 -0.9499  0.4755 -1.1658
30067SOL    HW294658   6.866   0.691   6.124  1.6489  0.6803 -0.8002
30068SOL     OW94659   2.935   3.871   7.645 -0.1542  0.6793 -0.2610
30068SOL    HW194660   2.882   3.799   7.680  0.5715  0.0226 -0.4751
30068SOL    HW294661   2.993   3.896   7.716 -1.2872  1.9628  0.2478
30069SOL     OW94662   5.741   8.700   4.499 -0.0650 -0.7764 -0.3011
30069SOL    HW194663   5.796   8.626   4.526  1.2355  0.8441  1.8610
30069SOL    HW294664   5.803   8.769   4.476 -1.2403 -0.0283 -1.3236
30070SOL     OW94665   5.347   6.354   4.829  0.1609  0.1083 -0.6260
30070SOL    HW194666   5.300   6.428   4.866  0.1929 -1.0879  1.9732
30070SOL    HW294667   5.286   6.281   4.834  1.4518 -0.9516  0.7031
30071SOL     OW94668  10.919   7.255   1.779 -0.3342 -0.3520  0.5897
30071SOL    HW194669  11.013   7.248   1.757 -0.7263 -1.6690 -0.8824
30071SOL    HW294670  10.888   7.330   1.727 -0.4945 -1.1810 -0.5395
30072SOL     OW94671   7.687   9.380   2.112 -0.5033 -0.5911  0.0329
30072SOL    HW194672   7.782   9.370   2.120 -0.4779  0.2097  0.9210
30072SOL    HW294673   7.652   9.294   2.134 -0.0924 -0.1487  2.9573
30073SOL     OW94674   9.191   6.028  10.053 -0.0566 -0.3015 -0.3280
30073SOL    HW194675   9.097   6.032  10.034 -0.2363  1.3969  0.7424
30073SOL    HW294676   9.218   6.119  10.060  1.4333 -0.7745  0.5618
30074SOL     OW94677   1.786   3.112   3.498 -0.5903 -0.1066  0.0763
30074SOL    HW194678   1.771   3.168   3.421  0.6636  0.0656 -0.0649
30074SOL    HW294679   1.730   3.035   3.482 -0.4215 -0.0361 -0.9744
30075SOL     OW94680   4.105   5.056   1.324 -0.2529  0.3331  0.1084
30075SOL    HW194681   4.142   5.012   1.401  0.5665 -0.5767 -0.7871
30075SOL    HW294682   4.144   5.144   1.327  0.6368 -0.0491  0.1392
30076SOL     OW94683   1.666  10.304   1.492 -0.5605  0.2048  0.3449
30076SOL    HW194684   1.665  10.255   1.410  0.4671 -0.1830  0.5462
30076SOL    HW294685   1.652  10.239   1.560 -1.2603  0.5037  0.4945
30077SOL     OW94686   2.242   9.090   8.489  0.3060  0.1907  0.6673
30077SOL    HW194687   2.279   9.131   8.567  0.5459 -0.7997  1.0981
30077SOL    HW294688   2.161   9.049   8.519 -0.2644  0.8799  0.1060
30078SOL     OW94689   9.457   2.652  10.047 -0.0922 -0.0776  0.0140
30078SOL    HW194690   9.397   2.698  10.105  0.2130 -0.9683  1.0523
30078SOL    HW294691   9.465   2.709   9.970 -0.1980  1.3031  1.0066
30079SOL     OW94692   1.334   5.324   0.164  0.4678  0.4988 -0.1352
30079SOL    HW194693   1.381   5.247   0.132 -2.3763 -1.0163 -1.0620
30079SOL    HW294694   1.270   5.289   0.226 -1.8350  1.8392 -1.5894
30080SOL     OW94695  10.704   9.502   6.403 -0.2100  0.0849  0.3419
30080SOL    HW194696  10.729   9.417   6.436  0.8561 -0.1288 -0.9256
30080SOL    HW294697  10.747   9.565   6.460  0.0797 -0.2471  0.4871
30081SOL     OW94698   2.062   8.130   7.435  0.4957  0.2091  0.2030
30081SOL    HW194699   2.157   8.138   7.446  0.4831  0.5297  0.0764
30081SOL    HW294700   2.025   8.173   7.512  0.4663 -2.5403  1.9006
30082SOL     OW94701   2.491   9.729   9.407  0.0530 -0.0677  0.8324
30082SOL    HW194702   2.457   9.790   9.472  0.6865 -0.4901  1.5781
30082SOL    HW294703   2.448   9.646   9.426 -0.5972  0.0616 -0.0037
30083SOL     OW94704   1.152   6.218   8.559 -0.2267  0.2669  0.5132
30083SOL    HW194705   1.233   6.228   8.508 -0.1827  1.3654  0.7815
30083SOL    HW294706   1.153   6.126   8.585  0.5308  0.0623 -0.1599
30084SOL     OW94707   3.604   3.877   6.989  0.2455  0.0559 -0.0320
30084SOL    HW194708   3.568   3.855   7.075 -0.4780 -0.0870 -0.3615
30084SOL    HW294709   3.682   3.929   7.008  0.2774 -0.2461  0.7136
30085SOL     OW94710   9.487   0.986   4.320  0.5498  0.3181 -0.3276
30085SOL    HW194711   9.413   0.963   4.263  0.2246  2.0133 -0.6221
30085SOL    HW294712   9.476   1.079   4.338  1.9053  0.3118  0.6989
30086SOL     OW94713   1.983  10.188   2.622  0.6028  0.1467 -0.0653
30086SOL    HW194714   2.051  10.177   2.689 -0.0312 -0.8278  0.4377
30086SOL    HW294715   1.967  10.282   2.619  2.3319  0.4638 -0.5592
30087SOL     OW94716   7.590   3.760   5.288 -0.3244  0.4786 -0.3367
30087SOL    HW194717   7.678   3.768   5.252 -0.1253  3.1605  0.5343
30087SOL    HW294718   7.590   3.675   5.332  0.9430 -0.7322 -2.4721
30088SOL     OW94719   6.011  10.821   9.281 -0.4065  0.1242  0.1105
30088SOL    HW194720   6.038  10.797   9.192 -1.6559  3.4669 -1.3457
30088SOL    HW294721   6.081  10.788   9.337  1.1010 -0.9768 -2.2446
30089SOL     OW94722   0.942   1.598   7.846 -0.4241  0.0587 -0.2414
30089SOL    HW194723   0.849   1.582   7.862 -0.5748 -0.2923 -1.3857
30089SOL    HW294724   0.960   1.557   7.761  0.3911  1.5450 -0.8314
30090SOL     OW94725  10.862   4.947   9.493 -0.0860 -0.0043  0.3252
30090SOL    HW194726  10.829   5.004   9.562 -0.0396  1.5430 -0.8855
30090SOL    HW294727  10.804   4.963   9.418  0.8587 -0.3810 -0.5144
30091SOL     OW94728   0.177  10.725   1.773  0.3366  0.1952  0.6874
30091SOL    HW194729   0.129  10.740   1.854  2.0759 -0.4573  1.8690
30091SOL    HW294730   0.120  10.763   1.705 -0.9261  1.1882  2.2252
30092SOL     OW94731   4.882   2.076   9.207  0.0206 -0.4959 -0.5483
30092SOL    HW194732   4.956   2.052   9.151  0.1577  0.5772 -0.8517
30092SOL    HW294733   4.921   2.128   9.277 -0.0332 -2.5063  1.0498
30093SOL     OW94734   2.414  10.974   6.365  0.7532  0.0822 -0.2725
30093SOL    HW194735   2.380  11.037   6.302  0.9381 -0.2016 -0.6635
30093SOL    HW294736   2.467  11.026   6.426  1.3729  0.2357 -0.9298
30094SOL     OW94737   8.788  10.775   0.864 -1.2009 -0.4268 -0.3146
30094SOL    HW194738   8.857  10.736   0.918 -1.5675 -1.2331 -0.4176
30094SOL    HW294739   8.810  10.868   0.860  0.3801 -0.8121 -1.0951
30095SOL     OW94740   9.249   8.568   1.608  0.1684 -0.5252  0.3232
30095SOL    HW194741   9.180   8.518   1.564 -0.5651 -0.1664  1.0360
30095SOL    HW294742   9.203   8.616   1.677  1.6041 -3.0339  3.2358
30096SOL     OW94743   2.460   5.370   4.206 -0.1912 -0.2233 -0.3443
30096SOL    HW194744   2.526   5.339   4.269  0.6590 -0.3198 -1.2637
30096SOL    HW294745   2.466   5.309   4.133  0.7030  1.4036 -1.6882
30097SOL     OW94746   3.714  11.003  10.214  0.3461 -0.2548  0.3535
30097SOL    HW194747   3.786  11.003  10.277  0.7384  0.2333 -0.0915
30097SOL    HW294748   3.691  11.095  10.203  1.2324 -0.1869 -1.2840
30098SOL     OW94749  10.844   3.854   2.689 -0.9436  0.1637  0.5315
30098SOL    HW194750  10.930   3.820   2.666 -0.3707 -0.0256  2.6585
30098SOL    HW294751  10.842   3.942   2.653 -0.1051 -0.0615 -0.0844
30099SOL     OW94752   9.638   3.181   4.427 -0.4029 -0.6266 -0.5663
30099SOL    HW194753   9.625   3.089   4.403  0.7540 -0.9627  0.0289
30099SOL    HW294754   9.668   3.223   4.346  1.6663 -1.3621 -0.2485
30100SOL     OW94755   5.170   1.337   4.029  0.2692  0.4432  0.3841
30100SOL    HW194756   5.141   1.398   4.097 -1.2979  0.3874 -0.1823
30100SOL    HW294757   5.092   1.322   3.976  1.6215  1.1079 -1.9211
30101SOL     OW94758   7.647   3.644   6.871 -0.1027 -0.3413  0.4241
30101SOL    HW194759   7.690   3.688   6.945  2.2143 -0.5821 -0.6813
30101SOL    HW294760   7.578   3.704   6.844 -0.3097  0.2364  2.1000
30102SOL     OW94761   3.910   4.100   6.253 -0.4117 -0.1520 -0.4003
30102SOL    HW194762   3.857   4.169   6.213 -1.6694 -0.1575  1.1491
30102SOL    HW294763   3.983   4.146   6.293 -1.6202  0.4155  1.2373
30103SOL     OW94764   3.350   8.621   2.609 -0.1525  0.0061 -0.8969
30103SOL    HW194765   3.285   8.556   2.637 -1.5115  1.7546  0.2675
30103SOL    HW294766   3.434   8.576   2.618 -0.9994 -1.4278  0.3573
30104SOL     OW94767   2.172   9.627   9.662  0.9660 -0.2188 -0.2516
30104SOL    HW194768   2.160   9.715   9.696  1.4173 -0.0360 -0.5406
30104SOL    HW294769   2.098   9.577   9.695  0.5986  0.3213 -0.2508
30105SOL     OW94770   4.309   6.857   1.398  0.2360  0.0160  0.2111
30105SOL    HW194771   4.390   6.858   1.347  0.1876 -0.9453  0.1012
30105SOL    HW294772   4.297   6.948   1.425  1.3365  0.1810  0.2009
30106SOL     OW94773   7.195   7.693   6.374 -0.1300  0.3332 -0.9402
30106SOL    HW194774   7.162   7.620   6.323  0.4653  0.3030 -1.2914
30106SOL    HW294775   7.266   7.654   6.426 -0.5684  0.4150 -0.2711
30107SOL     OW94776   9.713  10.699   8.312  0.2109  0.6741 -0.2712
30107SOL    HW194777   9.696  10.610   8.279 -1.6294  0.9949 -0.3199
30107SOL    HW294778   9.805  10.715   8.292  0.4516 -1.0427 -0.6959
30108SOL     OW94779   5.401   3.623   0.881 -0.3807  0.0901  0.0951
30108SOL    HW194780   5.493   3.598   0.876 -0.7136 -1.0936 -0.4660
30108SOL    HW294781   5.367   3.608   0.793 -0.9409  1.2816  0.0825
30109SOL     OW94782   0.629   3.099   5.655 -0.6066  0.0375  0.1382
30109SOL    HW194783   0.657   3.043   5.728 -2.4918 -0.7055  0.3379
30109SOL    HW294784   0.617   3.185   5.695  0.0616  0.0570  0.3180
30110SOL     OW94785   6.435   9.294   5.956  0.2254  0.1463  0.2165
30110SOL    HW194786   6.353   9.249   5.976  0.7560 -1.1769 -0.4241
30110SOL    HW294787   6.496   9.262   6.023  0.9207 -1.0576 -0.9587
30111SOL     OW94788   2.462   4.900   3.145 -0.7097 -0.6787  0.4316
30111SOL    HW194789   2.483   4.979   3.194 -0.4592  1.4284 -2.7449
30111SOL    HW294790   2.404   4.850   3.202  2.6847 -0.5492  4.4509
30112SOL     OW94791   5.059   7.172   1.181  0.3191 -0.1728  0.0144
30112SOL    HW194792   5.107   7.199   1.260  0.5501 -2.3407  0.6733
30112SOL    HW294793   4.995   7.242   1.167  1.6710  1.2934  0.8709
30113SOL     OW94794   1.547   1.378   5.159  0.4566  0.1480  0.2219
30113SOL    HW194795   1.533   1.459   5.209  0.5235  1.0047 -1.0967
30113SOL    HW294796   1.629   1.392   5.112  0.4484 -0.6832 -0.0642
30114SOL     OW94797   1.237   4.607   1.199  0.2221  0.0197 -0.6225
30114SOL    HW194798   1.152   4.565   1.199  0.2331 -0.0025 -0.6200
30114SOL    HW294799   1.297   4.542   1.163  0.4492 -0.4124  0.4869
30115SOL     OW94800   8.866   6.576   0.557 -0.3917  0.1493 -0.0066
30115SOL    HW194801   8.826   6.663   0.566  0.2920  0.4976 -0.2753
30115SOL    HW294802   8.884   6.548   0.647  1.7087  1.3985  0.0305
30116SOL     OW94803   7.782  11.051   1.251 -0.1346 -0.6895 -0.5251
30116SOL    HW194804   7.791  11.146   1.241  1.2690 -0.8584 -1.1763
30116SOL    HW294805   7.859  11.016   1.207  1.7258 -1.9515  3.2277
30117SOL     OW94806   2.613   5.285  10.203 -0.0457 -0.2519  0.4663
30117SOL    HW194807   2.669   5.244  10.137  0.5561  1.0169  0.1522
30117SOL    HW294808   2.672   5.343  10.251 -0.8976  0.3774  0.7718
30118SOL     OW94809   8.612   2.299   6.228 -0.1020 -0.1612 -0.5448
30118SOL    HW194810   8.580   2.280   6.316 -0.6369 -0.4315 -0.7929
30118SOL    HW294811   8.585   2.223   6.176  1.0007 -0.4226 -0.7504
30119SOL     OW94812   7.561   2.537   0.244  0.1135  0.2354 -0.3964
30119SOL    HW194813   7.621   2.572   0.178  0.6722  0.2088  0.0890
30119SOL    HW294814   7.495   2.606   0.254 -0.4797 -0.1216 -1.5992
30120SOL     OW94815   2.717   5.607   0.752 -0.2345 -0.4997  0.4699
30120SOL    HW194816   2.637   5.596   0.699 -0.1971  0.8054  0.1068
30120SOL    HW294817   2.779   5.544   0.715 -0.5725 -0.3844 -0.3130
30121SOL     OW94818   3.059   6.784   5.296  0.2370  0.7569 -0.0249
30121SOL    HW194819   3.001   6.850   5.260 -0.8316  0.5367  1.2082
30121SOL    HW294820   3.068   6.807   5.389  0.2839 -0.4899  0.3056
30122SOL     OW94821   3.497   3.956   0.790  1.1126 -0.1350 -0.1843
30122SOL    HW194822   3.477   3.862   0.790 -1.0813  0.2242 -2.7370
30122SOL    HW294823   3.547   3.969   0.871 -0.5624 -3.0508  1.4989
30123SOL     OW94824   2.548   9.025   6.110  0.1680  0.2086  0.4520
30123SOL    HW194825   2.474   9.003   6.166  1.0960 -0.6193  1.4131
30123SOL    HW294826   2.624   8.985   6.154  0.9132 -0.7095 -1.5252
30124SOL     OW94827  10.705   9.624   1.453 -0.2080 -0.2711 -0.4137
30124SOL    HW194828  10.787   9.575   1.465 -0.9539 -1.1471  1.4995
30124SOL    HW294829  10.700   9.681   1.529 -0.8578  0.6001 -1.0866
30125SOL     OW94830   4.754   3.235   7.696  0.2651 -0.4804 -0.1765
30125SOL    HW194831   4.743   3.181   7.774 -0.9711  1.4158  1.0656
30125SOL    HW294832   4.841   3.273   7.706 -0.3408  0.7108  1.0068
30126SOL     OW94833   9.833   6.650   2.003  0.1173 -0.1023  0.3407
30126SOL    HW194834   9.849   6.688   2.090 -2.3961  1.1749  0.3450
30126SOL    HW294835   9.903   6.684   1.948  0.1037  1.4563  1.2468
30127SOL     OW94836   5.141   2.836   9.855 -0.5299  0.5166 -0.7203
30127SOL    HW194837   5.231   2.860   9.876 -0.8563  1.8809 -0.7723
30127SOL    HW294838   5.100   2.822   9.941 -0.4949  0.7983 -0.6557
30128SOL     OW94839   6.273   3.217  10.580  0.0251 -0.5603  0.0629
30128SOL    HW194840   6.224   3.255  10.507 -1.2842 -0.8745  0.7427
30128SOL    HW294841   6.294   3.292  10.636 -1.0151 -0.5827  0.5144
30129SOL     OW94842   1.715   2.989   8.674 -0.2871  0.2576 -0.2270
30129SOL    HW194843   1.625   2.985   8.706  0.0939  0.2127  0.8740
30129SOL    HW294844   1.758   2.913   8.713 -0.3698 -1.2182 -2.7825
30130SOL     OW94845   8.988   2.688   7.358 -0.0611 -0.5877  0.0662
30130SOL    HW194846   8.909   2.636   7.343 -0.3990  0.0582 -0.4324
30130SOL    HW294847   9.046   2.664   7.285 -0.4149  0.0975 -0.4508
30131SOL     OW94848   5.968   5.608   4.212 -0.1968  0.1480  0.0924
30131SOL    HW194849   5.955   5.670   4.140 -0.8534 -0.5527 -0.4082
30131SOL    HW294850   5.998   5.528   4.170 -1.0290 -0.4188  0.5338
30132SOL     OW94851  10.952   6.850   4.875  0.5564  0.1586 -0.2767
30132SOL    HW194852  10.924   6.832   4.964  1.3431 -2.1964 -0.4140
30132SOL    HW294853  10.904   6.787   4.821  0.5338  1.1378 -1.4618
30133SOL     OW94854   8.442   7.075  10.959 -0.6335  0.0904 -0.1622
30133SOL    HW194855   8.522   7.058  10.910 -1.1337 -0.3454 -0.8358
30133SOL    HW294856   8.405   6.988  10.977 -0.7957  0.2706  0.4252
30134SOL     OW94857   2.942   2.010   6.831 -0.3006  0.8058  0.0903
30134SOL    HW194858   2.952   2.100   6.861 -0.5887  0.9439 -0.2226
30134SOL    HW294859   2.868   2.012   6.771  0.6020  0.6609 -1.0846
30135SOL     OW94860   7.701   7.573   2.852  0.0041 -0.7205 -0.3094
30135SOL    HW194861   7.713   7.662   2.885 -0.0583 -0.8821  0.1609
30135SOL    HW294862   7.614   7.575   2.811 -0.5422 -0.8775  0.7961
30136SOL     OW94863   3.693   1.039   7.526 -0.0910 -0.2314 -0.2109
30136SOL    HW194864   3.723   1.129   7.517  0.0632 -0.0734  1.5422
30136SOL    HW294865   3.613   1.045   7.579  1.1162 -1.2514  1.8619
30137SOL     OW94866   7.289   3.608   8.059  0.1127  0.1812 -0.0834
30137SOL    HW194867   7.263   3.517   8.070 -0.6737  0.0273 -2.4899
30137SOL    HW294868   7.222   3.658   8.107  0.2900 -0.4721  0.8622
30138SOL     OW94869   8.772   1.376   1.781 -0.0452 -0.0114  0.1447
30138SOL    HW194870   8.725   1.309   1.732  0.7331 -1.0170  0.7335
30138SOL    HW294871   8.799   1.439   1.714 -2.7152  0.9622 -0.1502
30139SOL     OW94872  10.791   4.159   7.445  0.1904  0.4060 -0.3009
30139SOL    HW194873  10.885   4.142   7.452  0.3290  1.2217 -0.0682
30139SOL    HW294874  10.756   4.134   7.531  0.2488  0.4280 -0.2707
30140SOL     OW94875   2.804   2.851   5.667 -0.2866 -0.9222  0.3446
30140SOL    HW194876   2.796   2.941   5.636 -1.7040 -0.6687  1.3332
30140SOL    HW294877   2.825   2.800   5.588  1.7877  0.3956 -0.0258
30141SOL     OW94878   4.861   0.303   3.325  0.0587  0.0046  0.1439
30141SOL    HW194879   4.956   0.303   3.308 -0.0082  0.6490 -0.2550
30141SOL    HW294880   4.822   0.307   3.238 -0.3214  1.4505  0.3582
30142SOL     OW94881   3.694   9.530   2.920 -0.3423 -0.2844 -0.4715
30142SOL    HW194882   3.648   9.515   2.838 -2.6621  0.2114  0.6613
30142SOL    HW294883   3.744   9.611   2.906 -2.1713  0.8297 -0.8488
30143SOL     OW94884  10.021   5.294   4.359  0.0966  0.3667 -0.3940
30143SOL    HW194885   9.973   5.211   4.353  1.1683 -0.2314 -0.9656
30143SOL    HW294886  10.030   5.311   4.453  0.4554 -0.5155 -0.2633
30144SOL     OW94887   6.921   9.339   4.791 -0.0430 -0.5597 -0.3938
30144SOL    HW194888   6.896   9.402   4.859 -0.4962 -1.3563  0.1949
30144SOL    HW294889   6.891   9.379   4.709 -0.4252 -0.0653 -0.0186
30145SOL     OW94890   3.280   7.382   3.854 -0.5619 -0.6479 -0.9520
30145SOL    HW194891   3.216   7.426   3.910  0.5268 -0.6710  0.3677
30145SOL    HW294892   3.265   7.289   3.870  1.1081 -0.6452  0.9840
30146SOL     OW94893   0.599   4.009   7.058  0.1278 -0.1567  0.0435
30146SOL    HW194894   0.565   4.049   7.138 -0.1901 -1.9377  0.8619
30146SOL    HW294895   0.691   4.033   7.056 -0.5411  2.6171 -0.8383
30147SOL     OW94896   8.507   9.435   2.808 -0.0048  0.3887  0.7424
30147SOL    HW194897   8.501   9.479   2.723  4.4535 -1.4304 -0.7865
30147SOL    HW294898   8.535   9.504   2.868  0.1286  1.0490 -0.0585
30148SOL     OW94899   0.244   7.216   4.502  0.0932  0.1633  0.2144
30148SOL    HW194900   0.269   7.213   4.594  0.5947  0.4962  0.0919
30148SOL    HW294901   0.184   7.141   4.491 -1.8050  1.4387  1.3191
30149SOL     OW94902   5.282   6.216   6.090 -0.1600 -0.2443  0.4221
30149SOL    HW194903   5.205   6.251   6.134  0.2275 -0.4919  1.3218
30149SOL    HW294904   5.334   6.176   6.160  0.3692 -0.8429 -0.2935
30150SOL     OW94905   0.969   3.220   4.349  0.3266  0.3158  0.0372
30150SOL    HW194906   0.906   3.149   4.355 -0.6110  1.0175 -1.2176
30150SOL    HW294907   1.024   3.197   4.274 -0.4995  1.3010 -0.8863
30151SOL     OW94908   2.496   8.439   0.269 -0.0812 -0.7195 -0.0404
30151SOL    HW194909   2.446   8.472   0.195 -1.2464 -2.3355 -0.0189
30151SOL    HW294910   2.432   8.430   0.340  1.0514  1.0231  1.2986
30152SOL     OW94911   6.846   9.967   3.085 -0.4050 -0.2499  0.7579
30152SOL    HW194912   6.835   9.993   3.176  0.2114  1.3991  0.3965
30152SOL    HW294913   6.927   9.917   3.083 -0.6199 -0.6248  1.1573
30153SOL     OW94914   6.008   7.165   3.925 -0.3629 -0.4519 -0.0921
30153SOL    HW194915   6.069   7.150   3.997  0.8788  0.1281 -0.9904
30153SOL    HW294916   5.921   7.153   3.964  0.3224 -1.8661  1.0765
30154SOL     OW94917   6.597   1.090   8.690  0.2417 -0.1846 -0.1089
30154SOL    HW194918   6.643   1.160   8.643  1.0774 -0.3633  0.4270
30154SOL    HW294919   6.667   1.033   8.723 -0.3739 -0.5294  0.6253
30155SOL     OW94920  10.114   5.205   6.337  0.0933  0.0671 -0.7102
30155SOL    HW194921  10.170   5.166   6.270  1.3334  0.4909  0.0494
30155SOL    HW294922  10.152   5.291   6.354 -0.8655  0.4171 -0.2584
30156SOL     OW94923   2.462   3.388   8.813 -0.7238  0.0130  0.0856
30156SOL    HW194924   2.476   3.483   8.812  1.9374 -0.3092  0.6325
30156SOL    HW294925   2.490   3.358   8.727  0.6648 -0.4865  0.6769
30157SOL     OW94926   2.972  10.268   4.270  0.4586 -0.5723  0.3014
30157SOL    HW194927   2.921  10.187   4.277 -3.1365  1.5446  1.2734
30157SOL    HW294928   2.963  10.294   4.179  1.8524 -1.3084 -0.0806
30158SOL     OW94929   9.545   7.581   5.726 -0.1024 -0.3469 -0.0744
30158SOL    HW194930   9.465   7.534   5.706 -0.5621 -0.0690  1.0375
30158SOL    HW294931   9.522   7.673   5.718  0.6735 -0.2633 -1.7896
30159SOL     OW94932   0.570   9.926   8.672  0.0307  0.0858  0.6009
30159SOL    HW194933   0.498   9.863   8.673 -0.9949  1.2297  0.1149
30159SOL    HW294934   0.607   9.921   8.760 -0.8048 -0.3269  0.9406
30160SOL     OW94935   7.198   4.933   8.476  0.8271 -0.0022  0.5490
30160SOL    HW194936   7.172   4.947   8.384 -0.5966  0.0780  0.9299
30160SOL    HW294937   7.197   5.021   8.514 -1.1044 -0.2761  1.2277
30161SOL     OW94938   9.102   6.849   6.048  0.0658 -0.2003  0.1477
30161SOL    HW194939   9.135   6.934   6.020 -0.8886  0.5058  1.0550
30161SOL    HW294940   9.163   6.820   6.116 -0.0348  0.1295  0.3801
30162SOL     OW94941  10.990   0.609   6.384  0.1068  0.1918 -0.1379
30162SOL    HW194942  10.984   0.515   6.401  0.4494 -0.1301 -1.6410
30162SOL    HW294943  10.933   0.649   6.449 -0.7445 -1.1296 -0.0423
30163SOL     OW94944   8.156   2.491   3.612  0.3054 -0.0694  0.3084
30163SOL    HW194945   8.208   2.568   3.591  1.5235 -1.1472 -0.7661
30163SOL    HW294946   8.150   2.442   3.529 -1.1875 -0.7011  0.7501
30164SOL     OW94947  10.105   5.622   2.062  0.0737 -0.0346 -0.2031
30164SOL    HW194948  10.134   5.592   1.976  1.0780 -0.0224  0.1167
30164SOL    HW294949  10.141   5.710   2.071 -2.5481  1.2073 -0.9836
30165SOL     OW94950   8.312   7.772   7.884 -0.0979  0.0305  0.2822
30165SOL    HW194951   8.261   7.732   7.813 -2.6105  0.9571  1.4612
30165SOL    HW294952   8.395   7.797   7.843 -0.4913 -1.6916 -1.6975
30166SOL     OW94953   9.448   8.980   0.213  0.4888  0.3335 -0.3906
30166SOL    HW194954   9.424   9.018   0.298 -0.2372  0.4739 -0.6492
30166SOL    HW294955   9.370   8.991   0.159 -0.0541 -2.1903 -0.2724
30167SOL     OW94956   8.975   2.895   3.741  0.2734  0.4771 -0.4305
30167SOL    HW194957   8.944   2.805   3.741 -0.3966  0.6778  1.0205
30167SOL    HW294958   8.895   2.948   3.744  0.6448  1.0357  1.7708
30168SOL     OW94959   9.211   3.449   6.684 -0.2316 -0.0392  0.6245
30168SOL    HW194960   9.181   3.440   6.593 -2.1728  0.5007  1.1856
30168SOL    HW294961   9.300   3.483   6.675 -0.0018 -0.9356 -1.0883
30169SOL     OW94962   2.498   9.542   6.839 -0.0578 -0.7182 -0.0686
30169SOL    HW194963   2.451   9.575   6.763 -0.2335  0.1781  0.4157
30169SOL    HW294964   2.589   9.570   6.826 -0.5421  1.7848  1.2776
30170SOL     OW94965   2.292   6.321   2.288  0.1519 -0.4342 -0.1001
30170SOL    HW194966   2.354   6.331   2.216  1.7857 -0.6974  1.2077
30170SOL    HW294967   2.314   6.392   2.348  0.1375 -1.3716  1.0397
30171SOL     OW94968   9.465   4.271  10.697 -0.1789 -0.0205 -0.0988
30171SOL    HW194969   9.448   4.178  10.714 -0.4840  0.0622  0.0553
30171SOL    HW294970   9.441   4.315  10.778 -0.3817  0.2304 -0.2913
30172SOL     OW94971   8.656  10.665   1.635  0.1143 -0.2680  0.1888
30172SOL    HW194972   8.591  10.601   1.667  0.2029  0.4548  1.9422
30172SOL    HW294973   8.639  10.671   1.541 -0.7348 -1.9146  0.1886
30173SOL     OW94974  10.350   2.338   9.043 -0.0833 -0.1546  0.3953
30173SOL    HW194975  10.297   2.260   9.062 -1.3883 -0.0628 -2.3381
30173SOL    HW294976  10.339   2.394   9.120 -1.6939 -1.3594  1.1126
30174SOL     OW94977   5.277   2.881   4.495  0.1303 -0.0018  0.6092
30174SOL    HW194978   5.281   2.966   4.540 -0.9871  0.9196 -0.9523
30174SOL    HW294979   5.200   2.839   4.531  1.3654 -0.9617  2.2999
30175SOL     OW94980   8.262   7.348   2.155 -0.3698  0.2293 -0.5922
30175SOL    HW194981   8.181   7.390   2.183 -0.5947 -1.0548  0.7442
30175SOL    HW294982   8.264   7.264   2.200  2.2710  0.6933  0.3774
30176SOL     OW94983   7.034   3.077   6.707 -0.3001 -0.6917 -0.6696
30176SOL    HW194984   7.050   3.122   6.624  0.0478 -0.5268 -0.5144
30176SOL    HW294985   7.117   3.036   6.728  0.1750  0.8214  0.5402
30177SOL     OW94986   2.785   0.210   1.046  0.3208  0.1338  0.0268
30177SOL    HW194987   2.746   0.290   1.082 -0.5126 -0.4113  0.3834
30177SOL    HW294988   2.862   0.240   0.999 -0.3223  1.2221 -0.3741
30178SOL     OW94989   7.054   2.990  11.067  0.7800  0.4882 -0.6713
30178SOL    HW194990   7.042   2.901  11.099  0.3805  0.4262 -0.9814
30178SOL    HW294991   7.119   2.982  10.997  1.6291  0.6192  0.0892
30179SOL     OW94992   1.829   7.005   3.718  0.2866  0.2732  0.2746
30179SOL    HW194993   1.756   6.974   3.771  1.6622 -0.6612  1.7461
30179SOL    HW294994   1.846   6.934   3.657 -1.8034  1.6712 -2.1043
30180SOL     OW94995   6.709   6.946   9.329 -0.2698  0.0472 -0.2524
30180SOL    HW194996   6.727   6.910   9.242 -0.2449 -1.0207  0.1777
30180SOL    HW294997   6.662   6.876   9.375 -1.5196  1.1137  0.1396
30181SOL     OW94998   4.683   3.458   3.906  0.2236  0.0854 -0.0541
30181SOL    HW194999   4.684   3.484   3.813 -0.6734  0.3411 -0.0020
30181SOL    HW295000   4.626   3.381   3.908  1.1360 -0.6106  0.1304
30182SOL     OW95001   9.075   2.467   1.001 -0.2233 -0.5662 -0.5264
30182SOL    HW195002   9.076   2.474   0.906 -3.0622  0.5546 -0.5622
30182SOL    HW295003   9.057   2.556   1.031  1.8852 -0.6327  1.1703
30183SOL     OW95004   5.310   9.120   8.795 -0.2544 -0.0195 -0.1271
30183SOL    HW195005   5.276   9.127   8.884  0.0624 -0.7329  0.0527
30183SOL    HW295006   5.406   9.117   8.806 -0.1898  0.4770 -0.5302
30184SOL     OW95007   9.109  10.525   7.210 -0.3812  0.0322 -0.3132
30184SOL    HW195008   9.164  10.601   7.230 -1.7850  0.9349  0.3169
30184SOL    HW295009   9.020  10.561   7.207 -1.0026 -1.4769 -0.6935
30185SOL     OW95010   8.914   3.582   6.530 -0.2235 -0.2961  0.0460
30185SOL    HW195011   8.921   3.646   6.458 -1.1266 -0.8970 -0.5911
30185SOL    HW295012   8.984   3.519   6.512 -0.1227 -0.1687 -0.0143
30186SOL     OW95013   1.165   4.215   9.077 -0.4959 -0.2473 -0.1840
30186SOL    HW195014   1.075   4.248   9.080  0.0589  1.3281  0.4036
30186SOL    HW295015   1.159   4.126   9.111 -1.6847  0.2491  1.0069
30187SOL     OW95016   9.684   2.803   5.611  0.2931  0.1954 -0.5350
30187SOL    HW195017   9.640   2.877   5.653  0.8080  0.0393  0.2899
30187SOL    HW295018   9.742   2.843   5.547  2.3744  0.6994  1.5395
30188SOL     OW95019   4.938   5.179   7.110  0.0320  0.6326  0.5420
30188SOL    HW195020   4.986   5.159   7.030  0.4950 -0.0241  0.9704
30188SOL    HW295021   4.853   5.211   7.081  0.9471  2.4943 -0.2672
30189SOL     OW95022   7.582   2.558   2.192 -0.2551 -0.0490 -0.6833
30189SOL    HW195023   7.545   2.574   2.279 -1.1480 -0.5955 -0.9446
30189SOL    HW295024   7.662   2.611   2.189  0.8214 -1.4698  1.1588
30190SOL     OW95025   0.092  10.954   4.333 -0.3813  0.2013  0.0741
30190SOL    HW195026   0.022  10.971   4.270 -0.9109 -1.2539  0.2474
30190SOL    HW295027   0.125  10.867   4.309 -2.8945 -2.0398  3.7982
30191SOL     OW95028   6.893   8.981   1.961  0.5750 -0.3259  0.0681
30191SOL    HW195029   6.908   8.908   2.022  1.9864 -0.8032 -0.8102
30191SOL    HW295030   6.821   8.951   1.906 -0.4756 -0.0369  1.2443
30192SOL     OW95031   3.980   8.536   7.608  0.0941 -0.1465  0.9053
30192SOL    HW195032   3.970   8.630   7.621  0.3171  0.1884 -0.9375
30192SOL    HW295033   4.002   8.501   7.694  0.2365  1.5209  1.5777
30193SOL     OW95034   8.481   3.437   6.139 -0.0465 -0.6591 -0.0349
30193SOL    HW195035   8.571   3.406   6.131  0.4741  0.6643  0.3015
30193SOL    HW295036   8.483   3.526   6.102 -1.4666 -1.0050 -1.0340
30194SOL     OW95037   2.458   6.053   5.786  0.4387 -0.1304 -0.6560
30194SOL    HW195038   2.416   6.044   5.700 -1.8251 -0.8341  0.4631
30194SOL    HW295039   2.465   6.147   5.799  0.0831 -0.0107 -1.2765
30195SOL     OW95040   8.219   2.840   7.264 -0.1548 -0.1936 -0.4644
30195SOL    HW195041   8.270   2.902   7.316  1.1195 -0.8062 -0.9612
30195SOL    HW295042   8.145   2.818   7.321  0.0695  0.7591  0.2410
30196SOL     OW95043   1.184   9.495   6.446 -0.0813  0.6770 -0.2521
30196SOL    HW195044   1.271   9.468   6.417  0.5159  1.1002  1.0298
30196SOL    HW295045   1.199   9.580   6.488 -1.3650  1.4412 -1.2719
30197SOL     OW95046   7.428   0.917   0.632  0.3433  0.4644 -0.1003
30197SOL    HW195047   7.465   1.005   0.632 -0.2104  0.8878 -4.3741
30197SOL    HW295048   7.335   0.929   0.613  0.3847 -1.0070 -1.4684
30198SOL     OW95049   6.696   2.996   9.220 -0.6183  0.0158  0.0120
30198SOL    HW195050   6.717   2.996   9.127 -1.2160  1.3919 -0.1481
30198SOL    HW295051   6.608   3.033   9.225 -0.1958  0.9155  1.2042
30199SOL     OW95052  10.710   7.406   0.527  0.3260  0.5876  0.1712
30199SOL    HW195053  10.621   7.371   0.532  0.0130  1.3833  0.2408
30199SOL    HW295054  10.755   7.370   0.603 -0.3208  1.2619  0.8771
30200SOL     OW95055   6.039   8.578   1.933  0.0008  0.0781 -0.2693
30200SOL    HW195056   6.029   8.664   1.974  0.5549  0.1260 -0.2320
30200SOL    HW295057   6.121   8.544   1.969  0.9268  0.4630 -1.9506
30201SOL     OW95058   1.898   0.550   1.068  0.0392  0.3460 -0.2804
30201SOL    HW195059   1.960   0.593   1.127  0.4812 -0.9697  0.2366
30201SOL    HW295060   1.902   0.603   0.988  0.2165  1.5347  0.4852
30202SOL     OW95061   2.316  10.327   2.526  0.0685  0.2871 -0.0708
30202SOL    HW195062   2.307  10.237   2.558  0.4490 -0.1468 -1.1374
30202SOL    HW295063   2.302  10.320   2.431  0.1071  1.3520 -0.1642
30203SOL     OW95064   1.281   6.832   4.730 -0.0089  0.3071 -0.6489
30203SOL    HW195065   1.338   6.781   4.671 -0.5260  2.0406 -2.7806
30203SOL    HW295066   1.342   6.884   4.782  0.5151 -2.1118  1.3622
30204SOL     OW95067   8.083   0.342  10.165 -0.1828  0.1671 -0.0054
30204SOL    HW195068   7.996   0.309  10.140  0.7135 -1.3031 -1.3344
30204SOL    HW295069   8.136   0.264  10.175  0.7900  1.0037  1.7403
30205SOL     OW95070  10.888   0.830   8.020  0.5110 -0.1239  0.1008
30205SOL    HW195071  10.939   0.877   7.954  2.0294  0.0512  1.3299
30205SOL    HW295072  10.905   0.877   8.101 -0.2672 -1.0843  0.8486
30206SOL     OW95073   3.415   5.482   0.096  0.0155  0.5145 -0.2508
30206SOL    HW195074   3.418   5.388   0.116 -1.0889  0.0762 -1.9522
30206SOL    HW295075   3.425   5.487   0.001 -0.3026  2.1010 -0.2332
30207SOL     OW95076   0.689   2.459   8.337  0.2327 -0.3093 -0.8286
30207SOL    HW195077   0.737   2.510   8.271  1.2446 -0.2076 -0.0296
30207SOL    HW295078   0.712   2.368   8.318  0.0454 -0.3294 -0.9726
30208SOL     OW95079   3.096   4.326  10.433 -0.3789 -0.0422 -0.1564
30208SOL    HW195080   3.149   4.247  10.440  0.4220  0.5990  1.4319
30208SOL    HW295081   3.159   4.398  10.444 -1.2593  0.7899 -0.4448
30209SOL     OW95082   2.361   2.083   6.247  0.2612  0.4057  0.4625
30209SOL    HW195083   2.278   2.057   6.208  0.7865  1.1575 -1.2430
30209SOL    HW295084   2.349   2.174   6.273  0.0168  0.0058  1.8646
30210SOL     OW95085   4.110   4.566   9.245  0.1022 -0.6155 -0.0610
30210SOL    HW195086   4.029   4.613   9.266  0.6675  0.5568 -0.4231
30210SOL    HW295087   4.102   4.547   9.151  0.5458  0.1326 -0.2583
30211SOL     OW95088   0.180   7.908   1.114 -0.1238 -0.5107 -0.0617
30211SOL    HW195089   0.205   7.988   1.067 -1.5542 -0.1220 -0.2210
30211SOL    HW295090   0.178   7.840   1.047 -1.9067 -0.0112 -0.5885
30212SOL     OW95091   4.045   1.655   1.634 -0.3979  0.1534  0.3009
30212SOL    HW195092   4.127   1.612   1.610  0.9564  1.4688  2.2513
30212SOL    HW295093   4.060   1.748   1.614 -2.2471  0.1760 -1.2920
30213SOL     OW95094   7.355   2.278   8.962 -0.5238  0.4499 -0.5608
30213SOL    HW195095   7.299   2.230   9.023  0.7568  0.4683  0.6788
30213SOL    HW295096   7.365   2.365   9.001  0.0216  0.5782 -0.9670
30214SOL     OW95097   0.648  10.699  10.176 -0.5668  0.0532 -0.0306
30214SOL    HW195098   0.570  10.698  10.121  0.6062 -0.6750 -1.7689
30214SOL    HW295099   0.717  10.661  10.121  0.6895 -0.6760  1.9471
30215SOL     OW95100   2.049   1.410  10.342 -0.4186  0.1997  0.0377
30215SOL    HW195101   2.034   1.462  10.263 -2.3356 -0.5556 -0.1340
30215SOL    HW295102   1.987   1.338  10.336  1.4488 -1.5649  0.7928
30216SOL     OW95103   8.560   5.069   7.996  0.4209  0.5362 -0.3955
30216SOL    HW195104   8.473   5.102   8.019  0.7142  0.3590  1.1235
30216SOL    HW295105   8.618   5.112   8.059  1.1386 -0.9351 -0.0164
30217SOL     OW95106   8.329  10.956   7.488 -0.1547 -0.3287 -0.3578
30217SOL    HW195107   8.345  11.026   7.424  0.7477 -1.0315 -0.9132
30217SOL    HW295108   8.386  10.884   7.461  0.3272 -0.6189  1.2880
30218SOL     OW95109   8.612   9.013   7.548  0.3974  0.1969 -0.0682
30218SOL    HW195110   8.634   8.921   7.561  0.6699  0.5569  2.4129
30218SOL    HW295111   8.682   9.061   7.592 -0.2907  1.5663 -0.4258
30219SOL     OW95112   0.357  10.665   6.840 -0.6508 -0.0391  0.3516
30219SOL    HW195113   0.407  10.680   6.920  0.6740  0.9864 -0.6255
30219SOL    HW295114   0.324  10.575   6.849  3.5834 -1.8627 -0.0173
30220SOL     OW95115   2.339   8.421   0.498 -0.1759  0.1014 -0.9506
30220SOL    HW195116   2.294   8.337   0.503 -0.6131  0.2855 -1.6139
30220SOL    HW295117   2.421   8.408   0.545 -0.9351 -0.2370  0.3302
30221SOL     OW95118   4.491   2.330   4.904 -0.0432 -0.0830 -0.3041
30221SOL    HW195119   4.500   2.246   4.949  1.7199  1.2737  2.1131
30221SOL    HW295120   4.435   2.311   4.828 -1.4914 -2.9470  1.3259
30222SOL     OW95121   9.258   8.678   1.155 -0.8962  0.1007  0.2499
30222SOL    HW195122   9.296   8.594   1.129 -0.7159  0.5216 -0.8681
30222SOL    HW295123   9.198   8.700   1.085  1.2590  2.3523 -1.0239
30223SOL     OW95124   7.205   8.593   1.530 -0.2478  0.4155 -0.0051
30223SOL    HW195125   7.179   8.645   1.454 -0.3809 -0.2530 -0.4211
30223SOL    HW295126   7.134   8.530   1.542 -0.7370  1.1631  1.3131
30224SOL     OW95127   2.202   5.961   8.377  0.5934  0.0531  0.0274
30224SOL    HW195128   2.227   6.051   8.401  0.5735  0.0224  0.1667
30224SOL    HW295129   2.112   5.969   8.344  0.2172 -0.0590  0.9950
30225SOL     OW95130   1.752  10.699   8.421 -0.0724  0.2236  0.4189
30225SOL    HW195131   1.788  10.642   8.489  0.3217  1.1846  1.0500
30225SOL    HW295132   1.674  10.653   8.389  0.5354 -0.9037  0.5227
30226SOL     OW95133   6.181   1.120   5.427 -0.0394  0.4612 -0.1821
30226SOL    HW195134   6.228   1.108   5.345 -2.2503  1.1581 -1.6531
30226SOL    HW295135   6.092   1.090   5.408 -0.6091  0.6148  1.9850
30227SOL     OW95136   4.640   2.690   0.383 -0.9223 -0.1965  0.3984
30227SOL    HW195137   4.625   2.605   0.423 -1.4241  0.9087  2.6904
30227SOL    HW295138   4.554   2.730   0.377 -0.4925  0.8960  1.1560
30228SOL     OW95139   3.402   6.348   8.798  0.5787 -0.1447  0.2862
30228SOL    HW195140   3.421   6.431   8.754  1.6041 -0.8819 -0.7046
30228SOL    HW295141   3.484   6.325   8.842  0.4900 -0.9445  0.0417
30229SOL     OW95142   0.335   4.560   2.653 -0.2585 -0.2813 -0.0683
30229SOL    HW195143   0.306   4.606   2.574 -0.7067 -0.6054 -0.0953
30229SOL    HW295144   0.282   4.480   2.655 -0.2090 -0.3037  0.5270
30230SOL     OW95145  10.413   5.042   2.155 -0.2029  0.1050  0.4015
30230SOL    HW195146  10.330   5.029   2.108  0.2517  0.4478 -0.5230
30230SOL    HW295147  10.480   5.015   2.093  0.4220  0.6190  0.8396
30231SOL     OW95148   4.503   0.640   0.096  0.1878  0.1853  0.0812
30231SOL    HW195149   4.447   0.582   0.148 -1.0098 -0.3850 -1.7265
30231SOL    HW295150   4.539   0.584   0.027 -0.8604  1.4727 -1.6193
30232SOL     OW95151   7.647   5.566   7.068 -0.1338 -0.1525  0.0151
30232SOL    HW195152   7.571   5.622   7.055  0.6514  0.6214 -1.4349
30232SOL    HW295153   7.697   5.609   7.138  0.2056  0.7210 -0.7371
30233SOL     OW95154   2.269   8.021   1.995  0.2289 -0.3669 -0.5087
30233SOL    HW195155   2.241   7.988   2.080  1.5567 -0.5085 -0.1077
30233SOL    HW295156   2.237   7.956   1.932 -1.2680  0.0389 -0.1977
30234SOL     OW95157   1.655   1.015   4.912  0.5587  0.2440  0.0511
30234SOL    HW195158   1.616   1.101   4.930 -0.3790  0.1427 -1.3253
30234SOL    HW295159   1.744   1.035   4.883 -0.3832  1.0029 -2.5596
30235SOL     OW95160   9.744   6.270  10.005  0.5128  0.3611 -0.2759
30235SOL    HW195161   9.823   6.220  10.026 -0.0598 -0.3999  0.1334
30235SOL    HW295162   9.674   6.225  10.053 -0.1070  1.2466 -0.3289
30236SOL     OW95163   2.044   0.868  10.485 -0.0039  0.3186  0.3929
30236SOL    HW195164   1.949   0.873  10.480 -0.0195 -0.5037 -0.2930
30236SOL    HW295165   2.075   0.950  10.446 -0.4095 -0.0456 -0.7208
30237SOL     OW95166   9.939   7.225  10.006  0.1379  0.0580 -0.7085
30237SOL    HW195167   9.866   7.234   9.944 -1.3231 -0.1070  0.9125
30237SOL    HW295168  10.005   7.286   9.974 -0.4782 -0.1658 -2.5278
30238SOL     OW95169   8.460   4.771   9.688  0.2920  0.4431  0.0814
30238SOL    HW195170   8.494   4.737   9.771 -0.3362  0.2729  0.2730
30238SOL    HW295171   8.524   4.743   9.623 -0.1061 -0.9669  0.2613
30239SOL     OW95172   3.966  10.070   9.743 -0.1409 -0.1720  0.5983
30239SOL    HW195173   4.042  10.071   9.801 -0.2730  0.1688  0.7691
30239SOL    HW295174   3.995  10.022   9.666  0.2839  0.0538  0.6147
30240SOL     OW95175   4.176   6.059   2.665  0.1072 -0.1213  0.0504
30240SOL    HW195176   4.114   6.089   2.732  0.1208 -0.1806  0.0898
30240SOL    HW295177   4.202   5.972   2.694 -0.5304 -0.5017 -0.4672
30241SOL     OW95178   5.407   8.867  10.754  0.2898 -0.1082 -0.2652
30241SOL    HW195179   5.408   8.944  10.811  0.7647  1.9497 -2.8603
30241SOL    HW295180   5.371   8.797  10.809 -1.7044  2.3192  1.7592
30242SOL     OW95181   5.240   1.261   2.389  0.0212 -0.1447 -0.1825
30242SOL    HW195182   5.226   1.280   2.296  0.8984  0.6256 -0.1764
30242SOL    HW295183   5.267   1.345   2.427 -0.1989 -0.4740  0.7511
30243SOL     OW95184   4.993  10.292   5.476  0.1702 -0.2565  0.2633
30243SOL    HW195185   5.016  10.331   5.392 -0.5978 -1.7022 -0.6547
30243SOL    HW295186   4.982  10.367   5.535 -0.0345  0.8251 -1.1071
30244SOL     OW95187   3.376   0.484   9.091  0.0193 -0.0378 -0.4354
30244SOL    HW195188   3.356   0.491   8.998  1.0960  0.2768 -0.6596
30244SOL    HW295189   3.410   0.570   9.115  1.4922 -0.6447 -0.2126
30245SOL     OW95190   6.579   2.741  10.544 -0.1707  0.0398  0.3374
30245SOL    HW195191   6.529   2.727  10.624  0.0304 -0.4570  0.3782
30245SOL    HW295192   6.531   2.811  10.498  0.6622  1.5616  1.6816
30246SOL     OW95193   4.480   1.016   1.248  0.0464 -0.1888 -0.6099
30246SOL    HW195194   4.440   0.938   1.209 -0.5130  0.8910 -2.3025
30246SOL    HW295195   4.518   1.063   1.173 -2.9533  3.1090 -0.3195
30247SOL     OW95196   5.437   6.059   3.270  0.3465 -0.0985  0.0825
30247SOL    HW195197   5.390   6.117   3.211  0.3221  0.3740  0.5547
30247SOL    HW295198   5.462   5.984   3.216 -0.2090  0.0392 -0.3690
30248SOL     OW95199   5.901   6.071   3.216 -0.1848  0.3898  0.1670
30248SOL    HW195200   5.874   5.995   3.164 -0.1417 -0.6287  1.5666
30248SOL    HW295201   5.826   6.130   3.213 -0.8364 -0.4113  0.3145
30249SOL     OW95202   1.444   1.719   8.938  0.3967  0.2401  0.0006
30249SOL    HW195203   1.419   1.740   9.027  0.6567  4.0233 -0.6676
30249SOL    HW295204   1.524   1.770   8.922  0.3741 -0.3235 -2.3963
30250SOL     OW95205   8.971   2.154   6.547  0.8381  0.2077  0.1029
30250SOL    HW195206   8.904   2.117   6.605 -0.8882  0.7943 -1.4114
30250SOL    HW295207   8.940   2.133   6.458  1.9325  1.7450 -0.6898
30251SOL     OW95208   1.953   4.964   7.742 -0.0441 -0.0697  0.5217
30251SOL    HW195209   1.926   4.985   7.653  0.9872  0.3220  0.2978
30251SOL    HW295210   1.871   4.963   7.792 -0.6140 -0.1776 -0.3986
30252SOL     OW95211  10.315   8.065   6.546 -0.4082  0.1715  0.2317
30252SOL    HW195212  10.300   8.093   6.636  0.0001  0.2960  0.2645
30252SOL    HW295213  10.318   7.969   6.551  0.1469  0.1982  0.4393
30253SOL     OW95214   0.396   0.582   3.313 -0.2859 -0.4363  0.1652
30253SOL    HW195215   0.484   0.547   3.298 -0.0443  0.5063 -0.6791
30253SOL    HW295216   0.345   0.551   3.238  0.3708  2.4290 -1.5828
30254SOL     OW95217   1.743   5.503   5.857  0.2809 -0.2688  0.5769
30254SOL    HW195218   1.762   5.515   5.764 -0.2502 -0.7125  0.4030
30254SOL    HW295219   1.770   5.413   5.876 -2.4685 -1.3103  0.0648
30255SOL     OW95220   8.217   4.480   4.930  0.6400 -0.0385  0.1047
30255SOL    HW195221   8.138   4.513   4.973  0.2886  0.4601 -0.8795
30255SOL    HW295222   8.248   4.409   4.986 -1.6277 -1.6012 -0.4987
30256SOL     OW95223  10.299  10.984   2.809  0.2973  0.1108  0.2139
30256SOL    HW195224  10.330  10.993   2.899  0.3720 -0.8923  0.3061
30256SOL    HW295225  10.375  10.950   2.761 -0.8088 -3.2863  0.6206
30257SOL     OW95226   8.557   2.539   7.710  0.1434 -0.3515 -0.8290
30257SOL    HW195227   8.558   2.507   7.620 -1.2204  1.6870 -1.6437
30257SOL    HW295228   8.519   2.627   7.704  0.0343 -0.1458  1.7409
30258SOL     OW95229   9.811   6.086   0.153  0.0357  0.3359  0.0121
30258SOL    HW195230   9.741   6.034   0.113 -0.2767  0.5520  0.2710
30258SOL    HW295231   9.801   6.071   0.247  0.4956  0.1739  0.0400
30259SOL     OW95232   9.132  10.002   1.424  0.0563 -0.0278 -0.1486
30259SOL    HW195233   9.144   9.962   1.510 -0.0014  0.6396  0.1716
30259SOL    HW295234   9.151   9.931   1.362  0.5436 -0.3918  0.4074
30260SOL     OW95235   4.691   9.728   1.290 -0.4532 -0.4663 -0.2945
30260SOL    HW195236   4.667   9.793   1.356 -1.9903 -1.6136  0.3403
30260SOL    HW295237   4.720   9.780   1.215 -1.7390  0.9694  0.1434
30261SOL     OW95238   2.145   6.438   2.622 -0.1453 -0.0810 -0.1277
30261SOL    HW195239   2.202   6.453   2.547  0.0341 -0.8197 -0.1436
30261SOL    HW295240   2.123   6.345   2.618 -1.7906  0.2946 -0.4258
30262SOL     OW95241   1.181   0.404   6.745 -0.0531  0.5068 -0.5789
30262SOL    HW195242   1.199   0.448   6.662  0.3225 -0.6820 -1.1545
30262SOL    HW295243   1.132   0.468   6.797 -0.3008  1.2595 -1.7194
30263SOL     OW95244   6.357   8.888   0.253 -0.1093  0.4333 -0.4299
30263SOL    HW195245   6.394   8.954   0.312 -0.3052  1.5560 -1.5165
30263SOL    HW295246   6.263   8.890   0.272 -0.1028  0.3994 -0.3938
30264SOL     OW95247   2.946   6.436   2.210 -0.2945 -0.4865 -0.1214
30264SOL    HW195248   2.939   6.394   2.295 -0.2174  0.0385  0.1460
30264SOL    HW295249   2.859   6.427   2.171 -1.2346  1.8884  1.2444
30265SOL     OW95250  10.136   6.940   2.744 -0.6679  0.0646 -0.0642
30265SOL    HW195251  10.112   6.963   2.833 -0.9687 -0.6551  0.0497
30265SOL    HW295252  10.053   6.922   2.700 -0.5089  0.2150 -0.4288
30266SOL     OW95253  10.499   9.965   8.500 -0.1443 -0.4341  0.1916
30266SOL    HW195254  10.584   9.958   8.544  0.1151  0.1468 -0.2068
30266SOL    HW295255  10.510  10.037   8.438 -0.4780 -1.2660 -0.8778
30267SOL     OW95256   0.321   8.906   7.182 -0.2492 -0.1769 -0.3258
30267SOL    HW195257   0.305   8.812   7.187  3.9699 -1.0050  1.0373
30267SOL    HW295258   0.357   8.920   7.095 -0.7088  0.1703 -0.4643
30268SOL     OW95259   6.523   4.713   1.679 -0.3588 -0.4748 -0.6963
30268SOL    HW195260   6.610   4.736   1.711 -1.0756 -0.0309  1.0081
30268SOL    HW295261   6.476   4.682   1.756 -1.8721 -0.2423 -1.4923
30269SOL     OW95262   3.371   6.224   3.200 -0.1300 -0.3554 -0.0530
30269SOL    HW195263   3.399   6.138   3.232  0.7624  0.6202  1.9150
30269SOL    HW295264   3.278   6.229   3.221  0.2880 -0.0089  1.8990
30270SOL     OW95265   7.067   5.064  10.656 -0.2548  0.0463 -0.2454
30270SOL    HW195266   7.149   5.020  10.634 -0.0443  0.0351  0.5507
30270SOL    HW295267   7.000   4.996  10.649 -0.1690  0.0054 -0.6827
30271SOL     OW95268   7.959  10.739   3.362 -0.1151  0.9669 -0.0151
30271SOL    HW195269   7.865  10.756   3.370 -0.0991  0.3374  2.1328
30271SOL    HW295270   7.964  10.649   3.331 -0.2543  0.5913  1.0129
30272SOL     OW95271   3.870   7.948   7.448 -0.2499  0.0571  0.3241
30272SOL    HW195272   3.807   7.958   7.519  0.3004  1.6673  0.6207
30272SOL    HW295273   3.947   7.910   7.491 -0.3917 -0.2581  0.3052
30273SOL     OW95274  10.009   8.552   8.405  0.2257  0.7048 -0.4730
30273SOL    HW195275   9.981   8.608   8.478  1.0304  0.1762  0.2635
30273SOL    HW295276  10.104   8.545   8.417  0.6628  2.0712 -2.6126
30274SOL     OW95277   7.486   9.971   2.025  0.8474  0.0129 -0.0840
30274SOL    HW195278   7.457   9.902   2.086  0.7341  0.1092 -0.0286
30274SOL    HW295279   7.434  10.048   2.050 -0.1052 -0.2707 -1.0968
30275SOL     OW95280   4.211   2.271   8.469 -0.9126  0.3805 -0.6681
30275SOL    HW195281   4.192   2.265   8.563 -1.2430  1.3228 -0.6603
30275SOL    HW295282   4.206   2.181   8.437  1.9471 -0.3840  0.7113
30276SOL     OW95283   2.392   1.393   5.158 -0.0142  0.1150 -0.6797
30276SOL    HW195284   2.321   1.330   5.172  1.7085 -1.8092 -0.0754
30276SOL    HW295285   2.434   1.363   5.077  0.5715  0.7677 -0.6202
30277SOL     OW95286   0.802   1.628  10.211 -0.8814  0.0776 -0.2580
30277SOL    HW195287   0.800   1.545  10.257 -1.9152  0.1324 -0.1714
30277SOL    HW295288   0.842   1.608  10.126 -0.2305 -0.3009  0.1350
30278SOL     OW95289   1.597   4.714   3.824  0.4211 -0.0946 -0.1080
30278SOL    HW195290   1.606   4.745   3.915  0.4889 -2.2501  0.6840
30278SOL    HW295291   1.684   4.682   3.801  0.0089 -1.1421 -0.2824
30279SOL     OW95292   5.942   8.133   7.763 -0.2882 -0.2692  0.6314
30279SOL    HW195293   5.991   8.053   7.743 -0.3233 -0.2757  0.5715
30279SOL    HW295294   5.932   8.132   7.858 -1.5129 -1.0490  0.5084
30280SOL     OW95295   4.584   9.987   2.873  0.3702  0.0240  0.0419
30280SOL    HW195296   4.657   9.926   2.873 -0.8803 -1.6080 -1.9149
30280SOL    HW295297   4.615  10.061   2.822  1.3990  0.4175  1.1853
30281SOL     OW95298   9.629  10.348   9.526 -0.1748  0.2794  0.0532
30281SOL    HW195299   9.566  10.343   9.598  1.2300  0.4152  1.3527
30281SOL    HW295300   9.624  10.439   9.497  1.5150  1.1597  2.2160
30282SOL     OW95301   3.095   0.514   3.393  0.7016 -0.7351  0.1825
30282SOL    HW195302   3.084   0.455   3.468  0.5912  0.4142  1.0877
30282SOL    HW295303   3.029   0.582   3.406  1.7957  0.4036 -0.0499
30283SOL     OW95304   2.311   4.532   0.156  0.0347  0.1602  0.4649
30283SOL    HW195305   2.255   4.485   0.095  0.9918 -0.9264  0.3940
30283SOL    HW295306   2.270   4.519   0.242 -1.9804  2.6794  0.0047
30284SOL     OW95307   8.660   1.217  10.738 -0.3229  0.3228  0.1010
30284SOL    HW195308   8.588   1.172  10.693 -2.1570  1.0924  2.0425
30284SOL    HW295309   8.616   1.286  10.788  2.0602  2.3965 -0.4588
30285SOL     OW95310   9.513   8.692   7.953  0.5116  0.1534  0.0844
30285SOL    HW195311   9.563   8.639   8.014  2.4678  0.6270 -1.0400
30285SOL    HW295312   9.462   8.751   8.009  1.5311 -0.0478  1.2755
30286SOL     OW95313   9.527   2.407   0.402  0.2810  0.2595  0.1260
30286SOL    HW195314   9.501   2.371   0.317 -0.1014  2.9011 -0.9637
30286SOL    HW295315   9.610   2.452   0.384 -1.5940  4.0653  0.1153
30287SOL     OW95316   7.465   8.297   9.380 -0.3280  0.5478  0.2103
30287SOL    HW195317   7.527   8.227   9.358 -0.3630 -0.7258  3.5041
30287SOL    HW295318   7.508   8.377   9.353  2.4652 -0.3619  1.5399
30288SOL     OW95319   2.198   1.867   7.501  0.1655  0.3510  0.2009
30288SOL    HW195320   2.241   1.787   7.471  1.3072  0.7758  0.6453
30288SOL    HW295321   2.111   1.864   7.462  1.3991  0.6737 -2.8209
30289SOL     OW95322   1.485   9.544   9.208  0.2301  0.0017  0.6519
30289SOL    HW195323   1.580   9.557   9.211  0.2827 -0.0946 -0.2410
30289SOL    HW295324   1.448   9.630   9.226  0.5026  0.2146  0.2130
30290SOL     OW95325  10.994   3.651   8.373 -0.0760  0.1439  0.5633
30290SOL    HW195326  11.067   3.589   8.375 -1.4210 -1.5921 -0.3601
30290SOL    HW295327  11.034   3.735   8.350  1.4658 -1.0328 -1.3804
30291SOL     OW95328   8.779   2.287   3.728  0.3547  0.1712  0.1219
30291SOL    HW195329   8.853   2.271   3.670 -0.8114 -0.3855 -1.2954
30291SOL    HW295330   8.720   2.343   3.676 -1.6549 -1.9854 -0.1134
30292SOL     OW95331   8.396   2.710   6.287  0.3571  0.1252 -0.1999
30292SOL    HW195332   8.476   2.661   6.266  0.8886  1.1608 -0.7222
30292SOL    HW295333   8.427   2.800   6.300 -0.7813  0.6318 -0.8683
30293SOL     OW95334   3.135   3.281   9.798 -0.1268  0.3550 -0.3328
30293SOL    HW195335   3.047   3.271   9.763 -0.2042 -0.5788  0.1013
30293SOL    HW295336   3.185   3.211   9.756  0.0350 -0.0919  0.6046
30294SOL     OW95337   2.201   5.890   1.347  0.3143 -0.5551  0.2968
30294SOL    HW195338   2.215   5.957   1.280  2.2038  0.5309  1.6601
30294SOL    HW295339   2.182   5.940   1.426  0.9507 -1.6557  1.1681
30295SOL     OW95340   0.159   0.216   9.360  0.1148  0.3979 -0.0174
30295SOL    HW195341   0.227   0.282   9.371  0.2377 -0.0140  2.2809
30295SOL    HW295342   0.082   0.253   9.403  0.9446 -1.8649  4.0435
30296SOL     OW95343  11.067  10.168   9.635 -0.4057  0.0382 -0.3914
30296SOL    HW195344  11.108  10.219   9.705 -0.9358  0.6181 -0.4888
30296SOL    HW295345  10.985  10.136   9.675  0.2025 -1.2669 -0.1309
30297SOL     OW95346   7.250  10.664   5.146  0.2621 -0.0314 -0.2797
30297SOL    HW195347   7.334  10.637   5.182 -0.7927 -1.5143  1.2127
30297SOL    HW295348   7.217  10.587   5.100 -0.4703  0.3945 -0.4839
30298SOL     OW95349   0.262   0.661   2.076  0.6133 -0.3872  0.1522
30298SOL    HW195350   0.274   0.673   1.982 -1.0255 -0.2937 -0.0819
30298SOL    HW295351   0.313   0.732   2.116 -0.3520  0.8803 -0.7709
30299SOL     OW95352   1.988   6.166   3.498  0.1040  0.0106 -0.2155
30299SOL    HW195353   1.985   6.165   3.594  1.2872 -2.0014 -0.1401
30299SOL    HW295354   2.039   6.244   3.476  2.6687 -1.1960  0.9934
30300SOL     OW95355   7.665   7.443   1.610 -0.1075 -0.0857  0.4499
30300SOL    HW195356   7.757   7.465   1.627 -0.6442  1.1889  1.8573
30300SOL    HW295357   7.633   7.513   1.553 -0.5413  0.1855  1.0187
30301SOL     OW95358  10.086   2.532   6.443 -0.2615  0.0804  0.3550
30301SOL    HW195359  10.171   2.576   6.450  0.0083 -0.5245  1.0877
30301SOL    HW295360  10.088   2.489   6.358  0.6461 -0.8649  0.8335
30302SOL     OW95361   3.344   7.299   1.802 -0.2579  0.1660 -0.2195
30302SOL    HW195362   3.336   7.378   1.855  0.4287  0.0997 -0.0106
30302SOL    HW295363   3.257   7.258   1.807  0.0457 -0.3437  1.6550
30303SOL     OW95364   5.939   9.626   6.724  0.5163 -0.6134  0.3589
30303SOL    HW195365   5.968   9.710   6.759  0.2004  0.1981 -1.2428
30303SOL    HW295366   5.916   9.574   6.802 -0.6616  1.2831  1.3389
30304SOL     OW95367   3.260   1.369   1.181 -0.3829 -0.8847 -0.1623
30304SOL    HW195368   3.321   1.375   1.255 -1.4542 -3.7092  1.0889
30304SOL    HW295369   3.313   1.392   1.104  0.9280  1.5230  1.3485
30305SOL     OW95370   7.753   6.263   6.205  0.4718  0.0490  0.0981
30305SOL    HW195371   7.754   6.340   6.261  1.0954 -0.2972  0.5825
30305SOL    HW295372   7.748   6.298   6.116 -2.6918  0.5769  0.3778
30306SOL     OW95373   8.038   1.538  10.588 -0.1808  0.2247 -0.3135
30306SOL    HW195374   8.062   1.627  10.562  1.7623 -0.4046 -0.8343
30306SOL    HW295375   8.081   1.482  10.523 -2.0525 -1.0888 -0.4853
30307SOL     OW95376   3.739   1.418   6.998  0.5170 -0.0697  0.0542
30307SOL    HW195377   3.691   1.336   7.014 -1.3198  0.6005 -1.5703
30307SOL    HW295378   3.702   1.480   7.060  0.8714 -0.0959  0.2938
30308SOL     OW95379  10.289   6.629   8.016 -0.0595 -0.2511 -0.0388
30308SOL    HW195380  10.260   6.655   7.928 -1.3532  1.3801  0.7989
30308SOL    HW295381  10.210   6.634   8.069  1.1101  1.2475  1.7050
30309SOL     OW95382  10.337   2.521   2.004  0.4089 -0.2421  0.1922
30309SOL    HW195383  10.371   2.437   1.973  0.8723  0.5747 -1.6902
30309SOL    HW295384  10.242   2.508   2.010  0.6577 -1.6225  2.4828
30310SOL     OW95385   8.073   4.004   2.746  0.3436 -0.2089 -0.0324
30310SOL    HW195386   8.163   3.986   2.775  1.7472  2.0076 -2.4547
30310SOL    HW295387   8.085   4.050   2.662 -3.1234 -0.6428 -0.8987
30311SOL     OW95388   9.623   7.564  10.008 -0.3724  0.3154 -0.0574
30311SOL    HW195389   9.715   7.586  10.013 -0.1739 -0.3253 -0.6526
30311SOL    HW295390   9.604   7.520  10.091  0.6259 -2.1889 -1.0329
30312SOL     OW95391   5.859   2.611  10.393 -0.2330 -0.1488 -0.2033
30312SOL    HW195392   5.807   2.534  10.370 -1.9522  0.8515  0.1419
30312SOL    HW295393   5.830   2.678  10.330 -1.0268  1.0636  1.3704
30313SOL     OW95394   6.409   0.160   8.819  0.5694  0.0372  0.1174
30313SOL    HW195395   6.402   0.074   8.778 -0.6744 -0.8334  1.9959
30313SOL    HW295396   6.321   0.178   8.851  0.8417  1.9820 -0.1378
30314SOL     OW95397   6.088   7.697   0.496 -0.3479 -0.9404  0.4141
30314SOL    HW195398   6.047   7.758   0.557  0.9553  0.5723 -0.1520
30314SOL    HW295399   6.043   7.714   0.413 -1.4973 -2.3613  0.6985
30315SOL     OW95400   9.008   9.625   8.564  0.1369  0.0976  0.1245
30315SOL    HW195401   9.019   9.621   8.469 -1.9322  1.6136 -0.2429
30315SOL    HW295402   9.094   9.655   8.596  1.2048 -1.4802 -1.0921
30316SOL     OW95403   3.182   2.392   3.305 -0.0009 -0.0916  0.8534
30316SOL    HW195404   3.234   2.467   3.274 -0.3668 -0.4362 -0.6692
30316SOL    HW295405   3.142   2.356   3.226 -1.5432 -0.6212  1.8225
30317SOL     OW95406   8.761   1.967   8.680 -0.0055 -0.3984 -0.2025
30317SOL    HW195407   8.679   1.993   8.722  0.2406  0.2005 -0.0832
30317SOL    HW295408   8.750   1.992   8.588  0.3248  0.3603 -0.0391
30318SOL     OW95409   3.977   8.095   9.564  0.6335  0.1443  0.4329
30318SOL    HW195410   4.025   8.154   9.506  1.0437  1.4005  2.0055
30318SOL    HW295411   4.032   8.017   9.569  0.0814 -0.4651 -1.6732
30319SOL     OW95412   4.667   1.616   4.466  0.6768 -0.1039  0.1094
30319SOL    HW195413   4.746   1.665   4.488  0.1657  1.1948 -0.8022
30319SOL    HW295414   4.661   1.622   4.371 -0.3977 -0.3604  0.1533
30320SOL     OW95415   4.980   7.457   3.903 -0.2815 -0.6088  0.0864
30320SOL    HW195416   5.013   7.515   3.835 -1.3476  0.1832  0.2236
30320SOL    HW295417   4.949   7.380   3.856  1.9728 -1.5220 -0.0241
30321SOL     OW95418   4.988   8.596   9.520 -0.2202  0.3133 -0.4255
30321SOL    HW195419   4.921   8.533   9.545  0.8224 -0.1321  1.4361
30321SOL    HW295420   4.958   8.679   9.557 -0.1521  0.2770 -0.2873
30322SOL     OW95421   3.149   3.100   8.381 -0.4436 -0.6001 -0.0645
30322SOL    HW195422   3.157   3.195   8.380 -2.0939 -0.3505  2.1526
30322SOL    HW295423   3.066   3.082   8.336  0.3751 -1.0915 -1.4067
30323SOL     OW95424   0.015   9.480   9.173  0.7880  0.5254  0.4215
30323SOL    HW195425  -0.064   9.519   9.210  1.5353  2.1219  0.3908
30323SOL    HW295426   0.084   9.502   9.236  1.5973  1.0358 -0.6221
30324SOL     OW95427  10.669  10.385   9.450 -0.2068 -0.5363  0.3000
30324SOL    HW195428  10.699  10.474   9.432 -1.4622 -0.2391 -0.4116
30324SOL    HW295429  10.750  10.335   9.461  0.6871 -0.0823 -3.0296
30325SOL     OW95430   2.306   3.819   4.656  0.3809 -0.4294 -1.1368
30325SOL    HW195431   2.380   3.829   4.596 -0.0246 -2.2164 -2.0065
30325SOL    HW295432   2.305   3.726   4.677 -1.2858 -0.3303 -0.6684
30326SOL     OW95433   6.848   7.056   3.243  0.0934 -0.1450 -0.4105
30326SOL    HW195434   6.924   7.086   3.292  0.0142  1.5944 -1.2838
30326SOL    HW295435   6.866   7.080   3.152 -1.0954 -0.5097 -0.7686
30327SOL     OW95436   8.805   0.225   3.969 -0.3099  0.7137 -0.1360
30327SOL    HW195437   8.833   0.142   3.930 -0.7322  0.8979 -0.8517
30327SOL    HW295438   8.711   0.226   3.956 -0.4755  0.7505  0.9812
30328SOL     OW95439   5.112   3.829   0.205  0.5356 -0.4303 -0.0516
30328SOL    HW195440   5.199   3.869   0.200  0.8446 -0.9486  0.8521
30328SOL    HW295441   5.098   3.815   0.299 -1.3834  1.4842  0.0297
30329SOL     OW95442   5.876   8.387   5.095 -0.0667  0.0734  0.0103
30329SOL    HW195443   5.843   8.369   5.007 -0.6496  0.1072  0.2169
30329SOL    HW295444   5.912   8.475   5.089 -1.2029  0.5669  0.0991
30330SOL     OW95445   5.329   3.248   2.289  0.0085 -0.2156  0.0149
30330SOL    HW195446   5.307   3.271   2.199 -0.4098  2.7935  0.7604
30330SOL    HW295447   5.249   3.266   2.339  1.5838  3.2983  1.6372
30331SOL     OW95448   2.819   1.282   5.604  0.1596  0.0065 -0.3819
30331SOL    HW195449   2.897   1.335   5.621 -0.1715  0.3804  0.0164
30331SOL    HW295450   2.845   1.193   5.626  0.3994  0.1680  0.0157
30332SOL     OW95451   6.299   2.252   7.621  0.3350 -0.6792  0.1268
30332SOL    HW195452   6.330   2.240   7.531 -2.8549  1.8342 -1.5110
30332SOL    HW295453   6.367   2.304   7.663  1.6209 -1.4133 -0.9621
30333SOL     OW95454   0.463   8.435   9.943  0.2209 -0.3304  0.7945
30333SOL    HW195455   0.492   8.356   9.989 -0.2770  0.3503  2.3511
30333SOL    HW295456   0.440   8.496  10.013  1.8134  1.6814 -0.3088
30334SOL     OW95457   4.104   4.722  10.697  0.1482 -0.6060  0.2360
30334SOL    HW195458   4.099   4.653  10.630  1.5504  0.4840 -1.0790
30334SOL    HW295459   4.014   4.733  10.727 -0.4643 -1.4187 -1.1940
30335SOL     OW95460   5.039   0.828   6.791 -0.5930  0.7381  0.3851
30335SOL    HW195461   5.067   0.784   6.871 -0.1493  2.0169  0.9538
30335SOL    HW295462   4.966   0.775   6.759 -0.0073 -0.4563  0.9755
30336SOL     OW95463   6.919  10.620   7.150 -0.1137 -0.4172  0.0669
30336SOL    HW195464   6.895  10.548   7.208 -0.2958  0.1277  0.6921
30336SOL    HW295465   7.015  10.620   7.149 -0.1059 -0.2868  0.5640
30337SOL     OW95466   0.725   2.099   1.290  0.3162 -0.2033  0.2992
30337SOL    HW195467   0.631   2.087   1.303  0.4400 -1.6023  0.0565
30337SOL    HW295468   0.746   2.046   1.213  1.2560  0.3414  0.1582
30338SOL     OW95469   8.148   0.477   3.132 -0.6027  0.9167 -0.5148
30338SOL    HW195470   8.168   0.426   3.054 -2.5518  1.6678 -1.5881
30338SOL    HW295471   8.127   0.412   3.198  1.4630  0.2556 -0.4361
30339SOL     OW95472   3.458   0.863  10.493  0.1871  0.2508  0.3854
30339SOL    HW195473   3.483   0.838  10.582 -0.5973  0.1115  0.5733
30339SOL    HW295474   3.362   0.860  10.493  0.1565 -3.4429 -1.5174
30340SOL     OW95475   0.880   9.354   7.753 -0.0405  0.8186  0.1869
30340SOL    HW195476   0.945   9.382   7.817 -0.6724  2.9273 -0.0154
30340SOL    HW295477   0.800   9.339   7.804  0.1666 -0.1746  0.2278
30341SOL     OW95478   1.662   4.409   1.220 -0.0314 -0.4462  0.0215
30341SOL    HW195479   1.654   4.432   1.313 -0.3836 -0.7182  0.0617
30341SOL    HW295480   1.741   4.454   1.191  0.9061 -1.5055  0.8125
30342SOL     OW95481   4.414   0.957   6.474  0.9920  0.1820 -0.3219
30342SOL    HW195482   4.379   1.046   6.473  0.1204 -0.0901  1.1861
30342SOL    HW295483   4.489   0.961   6.534 -0.9369 -0.6351  2.3590
30343SOL     OW95484   7.157   9.108  10.658 -0.4020  0.0198 -0.6099
30343SOL    HW195485   7.195   9.059  10.731  1.8401  1.0138 -1.0272
30343SOL    HW295486   7.117   9.185  10.699 -1.2809 -0.6222 -0.2359
30344SOL     OW95487   0.018  10.477   0.799  0.5450 -0.2310  0.3361
30344SOL    HW195488   0.083  10.435   0.855  1.5249  0.1599 -0.4844
30344SOL    HW295489  -0.012  10.407   0.740  0.3451 -0.3671  0.5974
30345SOL     OW95490   2.075   4.788   3.468  0.1116 -0.5639  1.4142
30345SOL    HW195491   2.136   4.766   3.398  1.3758 -0.1357  2.3469
30345SOL    HW295492   2.020   4.857   3.430  0.5081 -0.6237  0.7095
30346SOL     OW95493   6.839   7.177   7.819  0.8602  0.5836  0.4127
30346SOL    HW195494   6.765   7.137   7.863  0.7499 -0.5573 -0.7482
30346SOL    HW295495   6.874   7.240   7.882 -1.1796  1.2701  0.9360
30347SOL     OW95496   0.060   1.100   7.563 -0.6213 -0.1562 -0.1778
30347SOL    HW195497   0.047   1.054   7.646  1.1159  3.5430  2.4839
30347SOL    HW295498  -0.028   1.131   7.539 -0.7869  2.8402  3.2588
30348SOL     OW95499   1.910   2.556   3.469  0.2425  0.8733 -0.3886
30348SOL    HW195500   1.851   2.483   3.449  0.6805  0.7819 -1.4374
30348SOL    HW295501   1.852   2.631   3.481 -0.1128  0.7629 -1.3113
30349SOL     OW95502   8.018   6.582   9.627  0.0712  0.2039 -0.6660
30349SOL    HW195503   7.959   6.507   9.635  1.3503 -1.1899 -3.0291
30349SOL    HW295504   7.984   6.631   9.552 -0.7062  2.0267  0.8115
30350SOL     OW95505   6.583   9.646   6.720  0.4777  0.0779  0.3088
30350SOL    HW195506   6.501   9.597   6.713  0.4785  0.1681 -0.3415
30350SOL    HW295507   6.564   9.716   6.783  0.7841 -1.3591  2.0978
30351SOL     OW95508   3.926   1.345   1.820 -0.5839  0.0704 -0.1146
30351SOL    HW195509   3.882   1.402   1.883 -0.3180  0.8412 -0.6044
30351SOL    HW295510   4.011   1.386   1.806  0.1111 -1.1156  0.4313
30352SOL     OW95511  10.252   4.932   4.116 -0.1907  0.0911 -0.2947
30352SOL    HW195512  10.266   4.973   4.030 -2.4942  1.7338  0.0222
30352SOL    HW295513  10.276   5.000   4.179  1.6292 -1.1528  0.4576
30353SOL     OW95514   2.358   1.179   0.743  0.1596 -0.4857 -0.2129
30353SOL    HW195515   2.262   1.187   0.741  0.2503  0.6871 -1.5561
30353SOL    HW295516   2.374   1.100   0.793 -1.4980 -0.3154  0.6715
30354SOL     OW95517   7.482   5.633   1.256 -0.1921  0.8221  0.5717
30354SOL    HW195518   7.533   5.606   1.180 -0.7306 -1.2801  0.8630
30354SOL    HW295519   7.535   5.699   1.300  1.1337  0.4621 -0.4370
30355SOL     OW95520   9.232   8.656   8.650  0.1565 -0.3672  0.5528
30355SOL    HW195521   9.267   8.688   8.733 -0.5433  0.0942  0.6743
30355SOL    HW295522   9.273   8.570   8.639  1.8755  0.4265  0.3426
30356SOL     OW95523   0.646   1.170   0.964  0.5937 -0.3764  0.2590
30356SOL    HW195524   0.727   1.203   1.003  0.7146 -0.3567 -0.0054
30356SOL    HW295525   0.675   1.109   0.896  0.3970 -0.0682 -0.1046
30357SOL     OW95526   8.904   6.991   9.538  0.6269  0.0070  0.4786
30357SOL    HW195527   8.894   6.911   9.485  1.2648  0.3753 -0.2094
30357SOL    HW295528   8.981   6.974   9.592  1.7049  0.7443 -0.7783
30358SOL     OW95529   7.658   0.559   7.690 -0.4967 -0.5859  0.8165
30358SOL    HW195530   7.659   0.599   7.778 -0.9813  0.3018  0.4385
30358SOL    HW295531   7.598   0.615   7.640  1.9200  0.6712 -0.8784
30359SOL     OW95532  10.538   2.053   9.162 -0.7135 -0.1839  0.0464
30359SOL    HW195533  10.563   2.087   9.248  0.0646  1.6077 -0.8292
30359SOL    HW295534  10.605   1.989   9.141  0.2522  0.8145 -0.0341
30360SOL     OW95535   9.368   4.651   9.507 -0.1978 -0.6480  0.2274
30360SOL    HW195536   9.461   4.661   9.524 -0.5025  0.0314  1.6429
30360SOL    HW295537   9.330   4.630   9.592 -1.5171  0.5297 -0.0360
30361SOL     OW95538   4.200   8.183   7.701  0.2902  0.7421  0.2946
30361SOL    HW195539   4.176   8.137   7.781 -0.5426 -1.4119 -1.1095
30361SOL    HW295540   4.262   8.125   7.656  0.7835  1.9188 -0.6145
30362SOL     OW95541   0.734   5.755   1.144 -0.2081  0.6221  0.1444
30362SOL    HW195542   0.728   5.680   1.085  0.0999  1.7282 -1.3586
30362SOL    HW295543   0.682   5.731   1.220  0.5219 -1.4194  0.0405
30363SOL     OW95544   9.465   9.512   4.089 -0.0106  0.0587 -0.5044
30363SOL    HW195545   9.497   9.422   4.091  0.7814  0.2829 -1.7618
30363SOL    HW295546   9.369   9.504   4.089  0.0507 -0.7532 -0.1016
30364SOL     OW95547   6.004   4.356   2.850 -0.3106  0.1248 -0.3538
30364SOL    HW195548   6.053   4.438   2.847  0.5488 -0.3659 -0.1774
30364SOL    HW295549   5.929   4.374   2.907  0.4018  0.5181  0.4822
30365SOL     OW95550  10.925   6.690   1.899 -0.2933  0.1002  0.7565
30365SOL    HW195551  10.871   6.766   1.919 -0.7983 -0.3329  1.0665
30365SOL    HW295552  10.889   6.620   1.954  0.8442 -0.0902  1.2845
30366SOL     OW95553   0.691   9.316   5.646 -0.1647 -0.1572 -0.1325
30366SOL    HW195554   0.692   9.360   5.732  1.8843 -0.8509  0.2679
30366SOL    HW295555   0.613   9.262   5.647 -0.4211  0.2068  1.1152
30367SOL     OW95556   3.523   8.508   6.623  0.3514  0.0569  0.1794
30367SOL    HW195557   3.546   8.595   6.655 -0.8570 -0.8044  3.9279
30367SOL    HW295558   3.580   8.449   6.672 -0.9799 -1.3933  0.0536
30368SOL     OW95559   9.589   2.282   4.135 -0.0976 -0.6532  0.3358
30368SOL    HW195560   9.648   2.355   4.112 -1.7656  0.8072  0.4442
30368SOL    HW295561   9.640   2.203   4.116  1.4112  0.5277 -0.8319
30369SOL     OW95562   2.582   3.594   7.247  0.4779 -0.0632  0.0482
30369SOL    HW195563   2.534   3.564   7.170  2.1465 -0.4199 -0.8736
30369SOL    HW295564   2.515   3.637   7.301 -0.7514  0.0037 -1.4717
30370SOL     OW95565   8.568   2.257   7.733  0.3737  0.5521 -0.1290
30370SOL    HW195566   8.658   2.271   7.705  0.6674  0.3821  0.7029
30370SOL    HW295567   8.530   2.345   7.738  0.3503  0.5932 -0.9129
30371SOL     OW95568   9.426  10.865   4.646 -0.4498 -0.1694 -0.0545
30371SOL    HW195569   9.355  10.919   4.610 -1.8921 -0.6963  1.8436
30371SOL    HW295570   9.383  10.783   4.672  1.1221 -1.0212  0.0014
30372SOL     OW95571   0.278   3.386   4.312  0.0790  0.9131 -0.0738
30372SOL    HW195572   0.202   3.362   4.259  1.1078 -0.8451 -0.8557
30372SOL    HW295573   0.247   3.379   4.402 -0.9419  1.1685 -0.3876
30373SOL     OW95574   6.850   2.146   8.226 -0.4575  0.1105 -0.5118
30373SOL    HW195575   6.931   2.114   8.186 -1.0272 -0.8133 -0.9405
30373SOL    HW295576   6.853   2.241   8.212  1.7265  0.4662  1.6572
30374SOL     OW95577   0.729   7.368   1.590  0.0141 -0.9405 -0.9194
30374SOL    HW195578   0.724   7.329   1.677  0.7767  1.5059  0.2855
30374SOL    HW295579   0.786   7.309   1.541  1.0797 -1.4159  0.8041
30375SOL     OW95580  10.450   9.417   8.662  0.3351 -0.3731 -0.3375
30375SOL    HW195581  10.394   9.383   8.591  1.4533  1.0144 -1.9661
30375SOL    HW295582  10.438   9.354   8.733 -0.0585 -2.4345 -2.0913
30376SOL     OW95583   7.279   1.711   7.185 -0.6079 -0.0575  0.1373
30376SOL    HW195584   7.303   1.727   7.276  1.1130  0.1796 -0.3161
30376SOL    HW295585   7.328   1.633   7.160  0.6528  1.0869 -1.1651
30377SOL     OW95586   2.669   8.629   0.401  0.1538  0.1171  0.4649
30377SOL    HW195587   2.611   8.557   0.378  2.1186 -2.4596  2.8291
30377SOL    HW295588   2.727   8.638   0.326  0.8047 -1.8979  0.6578
30378SOL     OW95589   8.091   1.473   1.178  0.4279 -0.1392  0.6195
30378SOL    HW195590   8.032   1.412   1.222 -1.1454  1.8808  1.4703
30378SOL    HW295591   8.035   1.522   1.118  1.6397  0.4797 -0.0510
30379SOL     OW95592   1.871   0.832   8.236  0.0145 -0.3257  0.3024
30379SOL    HW195593   1.796   0.779   8.208 -0.4528 -0.5432  1.8727
30379SOL    HW295594   1.945   0.796   8.188 -0.7449 -0.6254 -0.6833
30380SOL     OW95595   5.324   0.926   2.686  0.3256 -0.1397  0.2154
30380SOL    HW195596   5.278   0.986   2.744  0.0973  0.0191 -0.1252
30380SOL    HW295597   5.306   0.960   2.598  0.6967 -0.3550  0.0545
30381SOL     OW95598   6.916   6.243   3.703 -0.3325  0.9811 -0.4612
30381SOL    HW195599   6.824   6.254   3.725 -0.8899  0.7268 -2.4998
30381SOL    HW295600   6.942   6.326   3.664  0.5868  1.3795  0.9378
30382SOL     OW95601  10.724   7.529  10.928 -0.4998 -0.3652 -0.1631
30382SOL    HW195602  10.814   7.498  10.939 -1.2423 -2.5804  0.2959
30382SOL    HW295603  10.704   7.512  10.836 -0.9119 -1.3284  0.0908
30383SOL     OW95604   2.493   2.506  10.046  0.4021 -0.6075  0.0398
30383SOL    HW195605   2.553   2.527  10.117  0.6501  1.1318 -0.6436
30383SOL    HW295606   2.432   2.579  10.044 -0.0143 -0.9689 -1.0996
30384SOL     OW95607   3.403   8.003   7.910 -0.4658 -0.3600 -0.2879
30384SOL    HW195608   3.496   7.982   7.921 -0.6214 -1.8749 -1.6805
30384SOL    HW295609   3.366   7.929   7.863 -2.4801  0.0635  0.5217
30385SOL     OW95610   9.605   0.482   7.327 -0.7338 -0.1181 -0.5908
30385SOL    HW195611   9.686   0.524   7.355  0.6450 -1.6926 -1.9636
30385SOL    HW295612   9.634   0.403   7.281 -3.1221 -2.6355  1.8449
30386SOL     OW95613   4.865   4.857   7.221 -0.6427 -0.0361  0.2398
30386SOL    HW195614   4.934   4.834   7.160 -1.5584 -1.3353 -0.3378
30386SOL    HW295615   4.912   4.892   7.297  0.6115 -0.3558 -0.3554
30387SOL     OW95616   7.663   2.331   9.248 -0.3205  0.5136  0.1588
30387SOL    HW195617   7.625   2.414   9.221 -0.1784  0.3474 -0.5569
30387SOL    HW295618   7.589   2.280   9.281 -0.2979  1.1901  1.3154
30388SOL     OW95619   2.559  10.553   2.803  0.2068 -0.6378 -0.0151
30388SOL    HW195620   2.645  10.555   2.846 -0.7465 -2.3567  2.1499
30388SOL    HW295621   2.550  10.639   2.764  2.6237 -0.1732  0.2810
30389SOL     OW95622   5.732  10.342   3.199  0.0457 -0.3953 -0.1058
30389SOL    HW195623   5.722  10.334   3.104 -1.4517  0.2888 -0.0321
30389SOL    HW295624   5.796  10.411   3.211 -0.3726  0.0927 -0.6264
30390SOL     OW95625  10.232   7.412   5.062 -0.1723 -0.3804  0.3623
30390SOL    HW195626  10.180   7.490   5.044 -1.2636 -1.1684  0.0449
30390SOL    HW295627  10.287   7.402   4.984  2.0148  1.6006  1.5099
30391SOL     OW95628  10.623   6.990   5.751  0.5528  0.4117 -0.6116
30391SOL    HW195629  10.700   6.984   5.695  0.8646 -1.2743 -0.0596
30391SOL    HW295630  10.549   6.978   5.691  0.8479 -0.5918 -0.7930
30392SOL     OW95631   8.376   1.185  10.982 -0.3037 -0.1186 -0.2180
30392SOL    HW195632   8.366   1.092  10.959  1.4197 -0.2703 -0.4491
30392SOL    HW295633   8.400   1.184  11.074  0.0599  0.0695 -0.3090
30393SOL     OW95634   4.876  10.087   9.994 -0.0445  0.1021 -0.4327
30393SOL    HW195635   4.909  10.004  10.029 -0.0971 -0.2097 -1.1082
30393SOL    HW295636   4.954  10.143   9.991  0.3802 -0.5025 -1.6385
30394SOL     OW95637   8.680   9.410   5.348  0.4309  0.1883  0.5025
30394SOL    HW195638   8.692   9.469   5.423 -0.8676  0.5465  0.4481
30394SOL    HW295639   8.626   9.459   5.286  2.5545  0.3883 -1.2883
30395SOL     OW95640   5.484   3.532   6.722  0.3007 -0.2498 -0.6039
30395SOL    HW195641   5.558   3.574   6.765  1.2962 -2.0114 -0.4639
30395SOL    HW295642   5.511   3.523   6.630 -0.8982  1.5138 -1.1688
30396SOL     OW95643   3.789   5.077   0.736 -0.4218 -0.2573  0.4127
30396SOL    HW195644   3.711   5.030   0.706 -0.6106 -0.2782  0.9366
30396SOL    HW295645   3.776   5.089   0.830  0.5416 -0.8986  0.6397
30397SOL     OW95646   1.490   9.550   8.120 -0.2123 -0.7900  0.1545
30397SOL    HW195647   1.441   9.597   8.052 -0.0270  0.2156  0.7063
30397SOL    HW295648   1.559   9.610   8.145  2.8624 -2.9981 -2.2343
30398SOL     OW95649   4.220   3.881   4.390  0.1326  0.5667 -0.0385
30398SOL    HW195650   4.149   3.831   4.430  1.0410 -0.8117 -0.0672
30398SOL    HW295651   4.293   3.871   4.452  0.1763  2.3890  0.2555
30399SOL     OW95652   8.080   9.725   6.286  0.6031 -0.4445 -0.2105
30399SOL    HW195653   8.094   9.660   6.218 -0.0290  0.9555 -1.7512
30399SOL    HW295654   8.138   9.798   6.262 -0.1790  0.3822  0.3155
30400SOL     OW95655   5.303   6.451   5.530 -0.0824  0.2278 -0.2469
30400SOL    HW195656   5.295   6.424   5.621 -0.3107  1.4884  0.1278
30400SOL    HW295657   5.335   6.542   5.534  0.2711  0.1794 -1.4281
30401SOL     OW95658   6.900  10.758   9.877  0.3253 -0.3540  0.1548
30401SOL    HW195659   6.989  10.732   9.900 -0.1507 -1.4839  0.8161
30401SOL    HW295660   6.875  10.698   9.807  0.0590 -0.0726  0.0055
30402SOL     OW95661   2.987   4.167  10.863 -0.1051 -0.2800 -0.1470
30402SOL    HW195662   2.944   4.146  10.946  0.9552 -3.4510 -0.2694
30402SOL    HW295663   3.079   4.142  10.877  0.5900  1.2764 -1.5917
30403SOL     OW95664   0.552   2.554  10.048  0.8372  0.1722 -0.4858
30403SOL    HW195665   0.565   2.459  10.039  1.2197 -0.0788  1.9000
30403SOL    HW295666   0.458   2.564  10.060  0.8886 -0.0025  0.0751
30404SOL     OW95667   6.589   0.842   2.031  0.6720 -0.5475  0.0142
30404SOL    HW195668   6.683   0.823   2.042  0.6503 -0.4262  0.4264
30404SOL    HW295669   6.545   0.768   2.073  0.5853  0.6089  2.0961
30405SOL     OW95670   3.339   4.998   9.132 -0.1970 -0.6501 -0.2859
30405SOL    HW195671   3.391   5.042   9.065 -2.0835  0.7649 -0.9283
30405SOL    HW295672   3.367   5.039   9.214  0.2113 -0.4341 -0.5298
30406SOL     OW95673   2.103   5.304   2.754 -0.4619  0.1367  0.7008
30406SOL    HW195674   2.132   5.262   2.673 -1.3344 -1.9034  1.3767
30406SOL    HW295675   2.154   5.261   2.823 -1.9926 -0.4704  1.4998
30407SOL     OW95676   8.159   0.026   7.222 -0.4032 -0.1817  0.3079
30407SOL    HW195677   8.237   0.079   7.237 -2.0658  1.6484  3.7688
30407SOL    HW295678   8.096   0.085   7.181 -0.4091 -1.3338 -1.4673
30408SOL     OW95679   0.440   8.771   8.003  0.0551  0.4288  0.1890
30408SOL    HW195680   0.498   8.759   7.928  0.3619  0.3717  0.4295
30408SOL    HW295681   0.364   8.715   7.984  0.1858  0.3188 -0.0200
30409SOL     OW95682   2.568   2.507   9.546  0.3935  0.2206 -0.0253
30409SOL    HW195683   2.575   2.547   9.633  1.6469 -0.4699  0.2043
30409SOL    HW295684   2.541   2.417   9.562 -1.0757  0.5455 -0.4723
30410SOL     OW95685   9.950   7.676   7.695  0.5117  0.1020  0.3861
30410SOL    HW195686  10.033   7.652   7.653 -0.4174 -1.9585 -0.4206
30410SOL    HW295687   9.968   7.760   7.737  3.1392 -0.5134  0.6661
30411SOL     OW95688   7.283   6.776   7.846  0.8191 -0.4141 -0.4889
30411SOL    HW195689   7.331   6.811   7.771  0.4652  2.4311  0.5013
30411SOL    HW295690   7.346   6.775   7.917 -0.4063  3.5418  0.8714
30412SOL     OW95691  10.435   3.889   5.172  0.2736  1.2072  0.2439
30412SOL    HW195692  10.392   3.955   5.117  0.7461  1.6587  0.4162
30412SOL    HW295693  10.465   3.938   5.249  1.9669  1.1014 -0.3107
30413SOL     OW95694   0.029  10.634   6.378 -0.1967 -0.1503  0.3653
30413SOL    HW195695   0.010  10.706   6.438 -0.6244 -0.6230  0.8030
30413SOL    HW295696  -0.036  10.567   6.399  0.1800 -0.6569 -0.0561
30414SOL     OW95697   8.559  10.096  10.723  0.0587  0.0556  0.2004
30414SOL    HW195698   8.486  10.146  10.687  1.3658  1.5342 -0.5170
30414SOL    HW295699   8.556  10.112  10.817  0.5149  1.6201 -0.0241
30415SOL     OW95700   8.609   5.612   5.400 -0.0527 -0.0457  0.5577
30415SOL    HW195701   8.639   5.537   5.452  0.5579  0.3381  0.7614
30415SOL    HW295702   8.575   5.674   5.465 -2.1811 -0.8352  0.2907
30416SOL     OW95703   1.877   5.287   6.340  0.6844  0.5475  0.7190
30416SOL    HW195704   1.856   5.197   6.364  1.9416  0.2674  0.8495
30416SOL    HW295705   1.906   5.328   6.422 -0.4178  1.2433  0.7762
30417SOL     OW95706   7.100   6.719   9.624 -0.1109 -0.4299  0.3765
30417SOL    HW195707   7.069   6.630   9.607 -0.2944 -0.6137  1.5744
30417SOL    HW295708   7.135   6.748   9.540  0.6636 -1.9209  0.1463
30418SOL     OW95709   4.651   2.076   3.567  0.7932  0.2670 -0.1934
30418SOL    HW195710   4.681   1.986   3.553 -0.0570 -0.3764  1.7151
30418SOL    HW295711   4.559   2.074   3.543  0.4031  0.2177  1.2225
30419SOL     OW95712   3.157   6.992   3.675  0.0486  0.6583  0.1478
30419SOL    HW195713   3.070   6.975   3.709  0.3578  1.5665  1.4485
30419SOL    HW295714   3.188   6.906   3.644  0.2309 -0.5129  3.2753
30420SOL     OW95715   3.019   6.250   5.304  0.1251  0.1483  0.5596
30420SOL    HW195716   2.938   6.273   5.259  1.4220  0.7411 -1.6688
30420SOL    HW295717   3.069   6.332   5.307  1.3699 -0.5612  0.2106
30421SOL     OW95718   6.220   9.476   3.682 -0.0685 -0.4433 -0.1421
30421SOL    HW195719   6.276   9.433   3.618  0.7848 -1.2116  1.0837
30421SOL    HW295720   6.131   9.462   3.649  0.3607 -0.4463 -1.3638
30422SOL     OW95721   0.632   3.667   4.865 -0.2778 -0.4756  0.0315
30422SOL    HW195722   0.598   3.604   4.928 -3.0997  2.0508  1.2618
30422SOL    HW295723   0.598   3.637   4.781 -1.8546 -0.4821  0.6369
30423SOL     OW95724   4.628   9.015   4.855  0.5904  0.3587 -0.3556
30423SOL    HW195725   4.638   9.075   4.781  0.1950  0.8768  0.0058
30423SOL    HW295726   4.535   9.018   4.876  0.7509  0.4944  0.3830
30424SOL     OW95727   0.948   6.523   3.361  0.2406  0.4430  0.5008
30424SOL    HW195728   0.952   6.617   3.344  2.1989  0.1542 -1.0414
30424SOL    HW295729   1.038   6.501   3.387  0.1253 -1.1792 -0.3745
30425SOL     OW95730   2.941   8.899  10.130  0.1492 -0.6203  0.0311
30425SOL    HW195731   3.029   8.876  10.100  0.7473  1.6256 -0.1488
30425SOL    HW295732   2.956   8.968  10.195 -1.4837  0.0569 -0.2709
30426SOL     OW95733   8.682   3.853  10.027 -0.5372 -0.1316 -0.0242
30426SOL    HW195734   8.706   3.783   9.968 -0.5415 -0.2966  0.1686
30426SOL    HW295735   8.648   3.809  10.105  1.4190 -0.0085  0.9800
30427SOL     OW95736   8.948   1.943   9.213 -0.3211  1.1802  0.6530
30427SOL    HW195737   8.958   1.953   9.118 -0.6186  0.4214  0.5384
30427SOL    HW295738   8.878   1.879   9.224  1.1199 -0.3525  1.3391
30428SOL     OW95739   1.876   3.409  10.101  0.1168 -0.9169 -0.4514
30428SOL    HW195740   1.966   3.439  10.114 -0.3090  0.2799 -0.0557
30428SOL    HW295741   1.863   3.410  10.006  0.0546  0.4560 -0.4533
30429SOL     OW95742   2.217  11.039   0.435 -0.4273  0.6489 -0.3670
30429SOL    HW195743   2.152  11.031   0.365 -0.0982 -0.2694 -0.5936
30429SOL    HW295744   2.208  11.128   0.468 -1.2614  0.7738 -0.9221
30430SOL     OW95745   7.484   0.634   2.040 -0.6992 -0.0943  0.1659
30430SOL    HW195746   7.524   0.645   2.126 -0.1833 -1.3174  0.1016
30430SOL    HW295747   7.503   0.716   1.994  1.3754 -0.4520  0.2942
30431SOL     OW95748   0.955   7.732   6.826 -0.5540 -0.1104 -0.3176
30431SOL    HW195749   0.998   7.693   6.750  0.0709  0.6833 -0.3822
30431SOL    HW295750   1.021   7.791   6.863 -1.4797  0.8854 -0.2321
30432SOL     OW95751   1.496   3.630   8.130  0.1297 -0.2271  0.2188
30432SOL    HW195752   1.560   3.662   8.066  1.8380 -1.0337  1.4207
30432SOL    HW295753   1.464   3.708   8.174 -2.7144  0.5891 -2.9190
30433SOL     OW95754   9.113  10.802   8.854  0.1356 -0.0118 -0.1661
30433SOL    HW195755   9.047  10.837   8.795  0.1264 -0.2015 -0.2674
30433SOL    HW295756   9.160  10.880   8.886 -0.4760  0.1675  0.3151
30434SOL     OW95757   5.745   0.892   5.041  0.1103 -0.0195  0.0531
30434SOL    HW195758   5.838   0.867   5.032 -0.1098 -1.3436  1.0412
30434SOL    HW295759   5.745   0.957   5.111  0.2800 -0.1924  0.2183
30435SOL     OW95760   7.500   5.229   9.878  0.6222  0.0336  0.3105
30435SOL    HW195761   7.543   5.294   9.933 -0.1787  0.8874 -0.0506
30435SOL    HW295762   7.547   5.147   9.896  1.3099  0.6005  1.1519
30436SOL     OW95763   2.946   1.731   2.518  0.0309  0.1518  0.6044
30436SOL    HW195764   2.909   1.796   2.577  1.7204  0.2610  1.6261
30436SOL    HW295765   2.929   1.647   2.561 -3.0977 -0.2902 -1.2295
30437SOL     OW95766   0.157   2.268   0.946 -0.4575  0.3360 -0.0676
30437SOL    HW195767   0.078   2.225   0.978 -1.1921  0.1162 -2.0119
30437SOL    HW295768   0.194   2.312   1.022 -1.3398 -1.2279  1.3291
30438SOL     OW95769   9.304  10.033   8.263 -0.0875  0.0496 -0.2391
30438SOL    HW195770   9.242  10.085   8.212  0.5199  0.4957 -0.5309
30438SOL    HW295771   9.391  10.061   8.233  0.2868  0.3778  1.0948
30439SOL     OW95772   1.796   9.397   2.829  0.7754 -0.0105  0.1046
30439SOL    HW195773   1.779   9.450   2.907 -3.2706 -1.6942  0.5975
30439SOL    HW295774   1.818   9.460   2.761  1.1315  1.7908  1.7960
30440SOL     OW95775   7.777  10.434   5.709 -0.0710  0.2042 -0.1107
30440SOL    HW195776   7.818  10.510   5.667 -0.0295  0.1522 -0.1648
30440SOL    HW295777   7.835  10.360   5.687 -0.3989  0.0640 -0.5007
30441SOL     OW95778  10.574   0.888   3.506  0.6039 -0.2079  0.0197
30441SOL    HW195779  10.537   0.809   3.546  0.0978  0.8003  1.6214
30441SOL    HW295780  10.569   0.955   3.574  0.0658  1.5137 -1.6241
30442SOL     OW95781   0.975   5.210  10.738  0.0413 -0.1909  0.3852
30442SOL    HW195782   0.947   5.148  10.805 -1.1956 -0.0960 -0.0198
30442SOL    HW295783   0.895   5.231  10.690  0.7563  0.4022 -0.5760
30443SOL     OW95784   1.955   4.894   5.543  0.5001 -0.2833  0.6817
30443SOL    HW195785   1.902   4.970   5.518 -1.4356 -1.5854  0.6331
30443SOL    HW295786   2.041   4.912   5.504  0.0984  1.8290  0.6172
30444SOL     OW95787   4.459  10.691   7.065  0.0251 -0.4333 -0.3872
30444SOL    HW195788   4.392  10.754   7.089  1.8076  1.0688  0.9435
30444SOL    HW295789   4.511  10.736   6.998 -0.8217 -1.9646 -2.1750
30445SOL     OW95790   8.125   3.598   1.270 -0.3388 -0.2775 -0.1609
30445SOL    HW195791   8.117   3.684   1.311 -0.0331 -1.1601  1.8649
30445SOL    HW295792   8.203   3.605   1.215 -0.0781  0.6270  0.3035
30446SOL     OW95793  10.747   9.012   3.595  0.4997 -0.6034 -0.5479
30446SOL    HW195794  10.682   8.948   3.625  0.5142 -0.2604  0.2379
30446SOL    HW295795  10.784   9.048   3.675  0.7404  0.1510 -0.9881
30447SOL     OW95796   6.883   5.170  10.391 -0.0486  0.7303 -0.0779
30447SOL    HW195797   6.945   5.238  10.365  0.5674 -0.1062 -0.8629
30447SOL    HW295798   6.902   5.154  10.484  0.9682  0.4469 -0.3189
30448SOL     OW95799   3.869   2.199   4.348 -0.0844  0.0200 -0.0951
30448SOL    HW195800   3.796   2.204   4.286  1.0116 -1.4412 -1.5840
30448SOL    HW295801   3.848   2.264   4.415 -1.6198  1.2272 -1.6602
30449SOL     OW95802   4.598   4.623   3.536 -0.1169  0.8103 -0.7462
30449SOL    HW195803   4.579   4.532   3.515  0.0650  0.4111  0.7004
30449SOL    HW295804   4.613   4.623   3.631  0.0541  2.3138 -0.7500
30450SOL     OW95805  10.363   3.252   4.723 -0.1250 -0.0102  0.4450
30450SOL    HW195806  10.359   3.292   4.810 -1.7714  0.6745  0.0870
30450SOL    HW295807  10.297   3.183   4.725 -0.1658 -0.0014 -0.2713
30451SOL     OW95808   1.545  10.981   8.007  0.6355 -0.4652  0.0722
30451SOL    HW195809   1.497  10.946   8.083 -0.4554  0.7108 -0.0402
30451SOL    HW295810   1.553  10.907   7.947  1.3178 -1.3588  1.2222
30452SOL     OW95811   7.481   2.614   5.985  0.4664  0.4735  0.2686
30452SOL    HW195812   7.511   2.668   5.913  1.3185  0.2162  0.4208
30452SOL    HW295813   7.481   2.672   6.061  0.8799  0.3974  0.3281
30453SOL     OW95814   3.520  10.870   8.621 -0.0607  0.1112  0.1663
30453SOL    HW195815   3.559  10.915   8.546 -0.4235  1.3867  0.7141
30453SOL    HW295816   3.426  10.881   8.608 -0.1368 -0.0596  0.5794
30454SOL     OW95817   9.362   8.213   1.011  0.6278  0.6022 -0.4254
30454SOL    HW195818   9.424   8.270   1.057  1.1092  0.0046 -0.3334
30454SOL    HW295819   9.302   8.183   1.080  0.8073  0.4226 -0.3484
30455SOL     OW95820   6.715   9.284   9.348  0.6046 -0.1664  0.0700
30455SOL    HW195821   6.799   9.296   9.303 -0.2981  0.5253 -1.5461
30455SOL    HW295822   6.672   9.214   9.299  0.4460 -0.8742  1.2123
30456SOL     OW95823   7.025   1.387   9.469  0.3464 -0.4032 -0.2517
30456SOL    HW195824   7.017   1.321   9.400  0.7069 -1.5080  0.7397
30456SOL    HW295825   7.118   1.409   9.470  0.2992 -0.1948 -0.2704
30457SOL     OW95826   2.059   1.241   4.667 -0.2771 -0.2024  0.0220
30457SOL    HW195827   2.070   1.334   4.647 -1.3617 -0.2422 -0.8521
30457SOL    HW295828   2.063   1.197   4.582 -2.4536 -0.6506  0.0843
30458SOL     OW95829   3.640   1.768  10.593  0.0003 -0.0430 -0.0457
30458SOL    HW195830   3.716   1.805  10.548  0.1492 -0.4651 -0.1518
30458SOL    HW295831   3.580   1.744  10.523  0.0502 -0.3059 -0.0030
30459SOL     OW95832   6.384   2.357   2.339 -0.2580 -0.3150 -0.8694
30459SOL    HW195833   6.394   2.328   2.430 -1.3575  0.6543 -0.4119
30459SOL    HW295834   6.416   2.284   2.286 -0.4113 -1.2408  0.2826
30460SOL     OW95835   6.616   8.298   2.347 -0.2605  0.1327  0.4539
30460SOL    HW195836   6.646   8.213   2.316 -0.6037  0.2769 -0.3005
30460SOL    HW295837   6.645   8.303   2.438  1.2584 -0.0809  0.0054
30461SOL     OW95838   9.195   4.660   3.737 -0.2206 -0.1858  0.2319
30461SOL    HW195839   9.290   4.662   3.751 -0.2336 -1.9871  0.7683
30461SOL    HW295840   9.164   4.590   3.795 -1.3753 -2.3259 -2.7634
30462SOL     OW95841   3.128  10.181   9.097 -0.5742 -0.4493 -0.0701
30462SOL    HW195842   3.213  10.185   9.053 -0.2934  1.9409  0.5619
30462SOL    HW295843   3.064  10.178   9.026 -0.0340  0.4533 -0.6082
30463SOL     OW95844   7.580   1.276   0.787 -0.1965  0.6083 -0.0270
30463SOL    HW195845   7.488   1.265   0.766  0.2068 -1.3432 -0.9534
30463SOL    HW295846   7.626   1.251   0.708  1.1609  1.2294  0.5267
30464SOL     OW95847   9.696   4.186   4.679  0.3171  0.2504  0.4227
30464SOL    HW195848   9.659   4.099   4.694  0.1320  0.0471 -1.0331
30464SOL    HW295849   9.790   4.172   4.671  0.3212  0.2341  0.4930
30465SOL     OW95850   7.753   5.399   9.248  0.0848 -0.1527 -0.4995
30465SOL    HW195851   7.817   5.393   9.177  2.0734 -2.5898  1.2921
30465SOL    HW295852   7.807   5.411   9.327 -1.7773 -0.8178  0.9505
30466SOL     OW95853   1.530   5.375   9.291 -0.1091  0.2161 -0.4495
30466SOL    HW195854   1.624   5.371   9.279  0.1819  3.6771 -0.4323
30466SOL    HW295855   1.515   5.335   9.377  2.1608  3.9161  1.9840
30467SOL     OW95856   7.002   4.192   9.841 -0.4660  0.1525  0.2969
30467SOL    HW195857   7.001   4.280   9.806 -1.1195  0.0666  0.0770
30467SOL    HW295858   6.910   4.164   9.838 -0.1532 -0.8499 -0.4413
30468SOL     OW95859   0.462  10.690   1.794 -0.0011 -0.3263 -0.0841
30468SOL    HW195860   0.462  10.597   1.819  0.4329  0.0466  1.4111
30468SOL    HW295861   0.369  10.713   1.790 -0.1028 -0.3351  1.5988
30469SOL     OW95862   8.497   0.086   6.745  0.1054 -0.0016  0.1575
30469SOL    HW195863   8.447   0.104   6.826 -0.3042 -0.8792  0.1089
30469SOL    HW295864   8.437   0.034   6.692  0.6291  0.0009 -0.4387
30470SOL     OW95865   3.023   9.736   3.476 -0.1579 -0.3001 -0.1500
30470SOL    HW195866   3.012   9.722   3.382 -0.4507  2.6706 -0.6602
30470SOL    HW295867   3.073   9.817   3.483  0.3507 -0.7370  2.2873
30471SOL     OW95868   7.085   0.610  10.861 -0.2178 -0.1582  0.5894
30471SOL    HW195869   7.085   0.666  10.938 -4.5255  3.9896 -1.9376
30471SOL    HW295870   7.144   0.654  10.799 -0.3187 -0.8506 -0.0193
30472SOL     OW95871   2.881   6.219   6.217 -0.4177 -0.0056  0.0307
30472SOL    HW195872   2.953   6.183   6.269 -1.7123 -1.1346  1.1199
30472SOL    HW295873   2.849   6.144   6.166 -1.6826  0.1331  0.5942
30473SOL     OW95874   7.411   8.526   5.972 -0.8598 -0.7388 -0.0330
30473SOL    HW195875   7.453   8.585   5.909 -2.3205 -1.2411 -1.5618
30473SOL    HW295876   7.482   8.496   6.028  0.0346  2.0504  0.4924
30474SOL     OW95877   4.621   6.715   6.680  0.0202  0.3437 -0.1446
30474SOL    HW195878   4.716   6.705   6.673  0.3463  2.7779  0.1723
30474SOL    HW295879   4.586   6.640   6.632  2.0643 -1.0486  0.3635
30475SOL     OW95880   8.461   4.585   4.808  0.0157  0.7452 -0.1839
30475SOL    HW195881   8.433   4.554   4.722 -2.1599  0.7626  0.4481
30475SOL    HW295882   8.419   4.526   4.870  1.5129  0.7632  0.9051
30476SOL     OW95883   0.693  10.942   8.315 -0.2376 -0.4492 -0.1193
30476SOL    HW195884   0.608  10.938   8.271 -0.6696 -2.0497  0.7828
30476SOL    HW295885   0.693  11.026   8.361 -0.0460  0.9722 -2.5292
30477SOL     OW95886   3.489  10.930   9.577 -0.5790  0.7291  0.2056
30477SOL    HW195887   3.570  10.979   9.568 -0.7504  1.1163  0.7338
30477SOL    HW295888   3.517  10.840   9.595 -0.2150  0.0974 -3.0087
30478SOL     OW95889   4.798   7.500   6.258 -0.4239 -0.3807  0.1058
30478SOL    HW195890   4.809   7.411   6.293  3.1708  0.4471  1.5264
30478SOL    HW295891   4.743   7.545   6.323 -0.5218 -1.0008  0.4623
30479SOL     OW95892   2.444   9.080   5.174 -0.3505  0.1258 -0.4190
30479SOL    HW195893   2.396   9.162   5.164 -2.3399 -1.0931 -1.7736
30479SOL    HW295894   2.375   9.014   5.188  1.0677 -1.4754 -0.6428
30480SOL     OW95895   7.258   6.707   7.312  0.4864 -0.3358  0.4307
30480SOL    HW195896   7.250   6.620   7.273  2.9398 -0.0937 -0.8722
30480SOL    HW295897   7.264   6.766   7.237  2.4039  0.4869  1.1479
30481SOL     OW95898   8.967   5.003   0.723  0.1717 -0.6345  0.1017
30481SOL    HW195899   8.884   5.051   0.721 -0.2225 -1.3058 -1.7380
30481SOL    HW295900   9.034   5.069   0.706  0.1394  0.0223  2.1916
30482SOL     OW95901   3.073   4.944   3.906 -0.2210 -0.0062  0.0704
30482SOL    HW195902   3.094   4.975   3.818 -1.2572 -0.7662 -0.4610
30482SOL    HW295903   3.158   4.937   3.950  0.3608 -0.1917 -1.0632
30483SOL     OW95904   1.697   5.560   5.577  0.5262  0.1236  0.0503
30483SOL    HW195905   1.694   5.652   5.552 -2.1443  0.8286  2.4646
30483SOL    HW295906   1.674   5.513   5.497  2.4899  1.4269 -1.3776
30484SOL     OW95907   9.042  10.321   5.817  0.4183 -0.0966 -0.2985
30484SOL    HW195908   9.123  10.270   5.815  0.4468 -0.0638 -0.0226
30484SOL    HW295909   8.973  10.257   5.802  0.3735 -0.3944  1.0320
30485SOL     OW95910   4.758   7.380   6.015  0.7847 -0.1641 -0.5355
30485SOL    HW195911   4.747   7.450   5.950  1.2798 -0.2369 -0.7064
30485SOL    HW295912   4.788   7.425   6.094 -3.4255  0.4591  0.9209
30486SOL     OW95913   2.249   7.200   8.083 -0.1090 -0.4099  0.5516
30486SOL    HW195914   2.171   7.231   8.036  1.4206  0.1930 -1.7893
30486SOL    HW295915   2.300   7.279   8.099 -0.1639 -0.7333  2.5353
30487SOL     OW95916   7.250   7.556   9.427  0.0179  0.6056 -0.1016
30487SOL    HW195917   7.317   7.606   9.473  0.8000  0.2000 -0.7802
30487SOL    HW295918   7.262   7.466   9.458 -0.5363  0.6174  0.1491
30488SOL     OW95919   7.920   4.671   2.008 -0.0577 -0.4668 -0.5605
30488SOL    HW195920   7.978   4.678   1.932 -0.6353  1.8080 -0.8598
30488SOL    HW295921   7.842   4.627   1.974 -0.0811  0.0228 -1.1625
30489SOL     OW95922   0.278   2.941   2.084  0.0246 -0.5816 -0.0918
30489SOL    HW195923   0.252   3.022   2.128  0.4408 -0.9640  0.8922
30489SOL    HW295924   0.314   2.969   2.000  0.6273  0.2929  0.4491
30490SOL     OW95925   3.875  10.338   3.836  0.0989 -0.3359  0.5125
30490SOL    HW195926   3.902  10.385   3.757  3.3832 -0.7760  1.2296
30490SOL    HW295927   3.783  10.317   3.821  0.3135  0.4787 -2.7284
30491SOL     OW95928   7.135  10.879  11.003 -0.2314 -0.1112  0.0145
30491SOL    HW195929   7.204  10.856  11.064  0.8395 -0.3761 -1.2503
30491SOL    HW295930   7.134  10.975  11.002 -2.0260 -0.0067  2.3277
30492SOL     OW95931   1.570   3.830   0.327  0.2394  0.3326  0.6114
30492SOL    HW195932   1.635   3.898   0.311 -2.7974  3.3692  0.0278
30492SOL    HW295933   1.525   3.819   0.243 -1.6276  0.2181  1.5743
30493SOL     OW95934  10.350   4.924   4.814  0.7953 -0.2637  0.0833
30493SOL    HW195935  10.385   4.932   4.725  0.3772  0.0632 -0.0555
30493SOL    HW295936  10.268   4.875   4.804  0.3639  0.4177  0.1845
30494SOL     OW95937   6.463  10.983   2.678 -0.5666 -0.5128 -0.2807
30494SOL    HW195938   6.474  11.046   2.606  1.2215 -0.0941  0.3304
30494SOL    HW295939   6.545  10.986   2.726 -1.6609 -0.9167  1.7081
30495SOL     OW95940  10.464   4.061   0.461  0.5657  0.2561  0.3566
30495SOL    HW195941  10.519   4.086   0.387  1.7721  0.8170  1.3952
30495SOL    HW295942  10.489   4.122   0.531 -1.4727  0.5988  0.8485
30496SOL     OW95943   6.200   9.737   6.072 -0.1294 -0.2165  0.3612
30496SOL    HW195944   6.234   9.711   6.158 -0.6580  1.5147  1.1455
30496SOL    HW295945   6.277   9.761   6.022  0.2310 -1.7647  0.1384
30497SOL     OW95946   4.733   8.270   5.105  0.0940 -0.0442 -0.3889
30497SOL    HW195947   4.665   8.213   5.141 -1.5348  2.3861  0.6186
30497SOL    HW295948   4.793   8.210   5.061 -1.5249 -2.5079  0.5345
30498SOL     OW95949   5.809   4.613   7.561 -0.3105 -0.1173  0.6224
30498SOL    HW195950   5.791   4.585   7.651 -1.6513 -0.0981  0.3841
30498SOL    HW295951   5.729   4.591   7.513 -0.4368  1.7817 -0.1178
30499SOL     OW95952   0.916   4.322   3.347  0.1452 -0.4647  0.1634
30499SOL    HW195953   0.949   4.353   3.263  0.3737  0.8215  0.7013
30499SOL    HW295954   0.992   4.286   3.391  0.1488 -0.5801  0.0627
30500SOL     OW95955   5.008   4.720   1.629 -0.2084 -0.2397  0.3836
30500SOL    HW195956   4.967   4.798   1.667  0.4755  0.5273 -0.3991
30500SOL    HW295957   4.943   4.686   1.567  0.0332  0.5458 -0.3175
30501SOL     OW95958   5.172   5.132   9.851  0.2355  0.6567 -0.4663
30501SOL    HW195959   5.172   5.153   9.758 -1.0968 -1.2033 -0.9539
30501SOL    HW295960   5.082   5.105   9.869  0.9437 -0.9970  0.8699
30502SOL     OW95961   0.463   2.861   0.971  0.1332  0.0607  0.2220
30502SOL    HW195962   0.504   2.941   0.942  1.4133 -0.9753 -0.9456
30502SOL    HW295963   0.372   2.886   0.990  0.2833  1.5898 -0.9002
30503SOL     OW95964   4.725   8.614   1.166  0.1053 -0.4871 -0.1230
30503SOL    HW195965   4.786   8.675   1.124 -0.9764  0.2335 -0.6748
30503SOL    HW295966   4.697   8.660   1.246 -1.2669  0.0914 -0.9025
30504SOL     OW95967  10.089   4.840   4.325 -0.0079  0.2430  0.6921
30504SOL    HW195968  10.114   4.749   4.305 -1.8329  0.1697 -1.6399
30504SOL    HW295969  10.144   4.893   4.267 -2.3118  0.2653 -1.6719
30505SOL     OW95970   3.441  10.053   9.760  0.2695  0.2541 -0.5473
30505SOL    HW195971   3.488  10.028   9.680 -1.0173  1.9382 -1.8743
30505SOL    HW295972   3.508  10.094   9.815  0.8833  0.3286 -1.3359
30506SOL     OW95973   6.238   8.042   8.138 -0.5087 -0.6723  0.1795
30506SOL    HW195974   6.298   8.019   8.067  0.1698 -1.0419  0.8542
30506SOL    HW295975   6.209   8.131   8.118  1.1113 -0.0682  0.3925
30507SOL     OW95976   2.615   2.145   4.720 -0.4159  0.1733 -0.5624
30507SOL    HW195977   2.679   2.145   4.649  0.0634 -0.6973 -0.1441
30507SOL    HW295978   2.633   2.226   4.768  1.1331 -0.5750  0.2033
30508SOL     OW95979   9.104  10.163   6.710 -0.6402 -0.2681  0.3882
30508SOL    HW195980   9.124  10.161   6.804 -1.8137 -0.4535  0.6478
30508SOL    HW295981   9.112  10.255   6.686  1.1496 -0.4053  0.3138
30509SOL     OW95982   2.009   9.913   2.977  0.6235  0.3131 -0.0966
30509SOL    HW195983   2.080   9.866   3.022  0.6152  0.0115 -0.3909
30509SOL    HW295984   2.045   9.999   2.960  0.8690  0.2082 -0.1146
30510SOL     OW95985   0.173   0.669   0.988 -0.4760 -0.0598 -0.1965
30510SOL    HW195986   0.236   0.619   1.039  2.0847 -0.0935 -3.1369
30510SOL    HW295987   0.191   0.760   1.010 -1.5743 -0.1281  1.1986
30511SOL     OW95988   5.822   1.025   9.022 -0.7343 -0.5922  0.7556
30511SOL    HW195989   5.906   1.026   9.070  0.3329  1.1582 -0.9923
30511SOL    HW295990   5.836   0.961   8.952 -0.3883  0.5774 -0.2630
30512SOL     OW95991   4.217   6.264   1.716  0.3035  0.1577 -0.3673
30512SOL    HW195992   4.226   6.174   1.686  3.6724  0.1429  0.2775
30512SOL    HW295993   4.257   6.317   1.648 -0.9724  1.1255 -0.3982
30513SOL     OW95994   6.866   1.617   6.276  0.0233 -0.4145 -0.3257
30513SOL    HW195995   6.829   1.706   6.273 -0.0738 -0.4531 -0.2811
30513SOL    HW295996   6.936   1.618   6.210 -0.5877 -0.5820 -0.9866
30514SOL     OW95997   7.455   1.481   7.068  0.5894  0.8513 -0.0309
30514SOL    HW195998   7.520   1.416   7.040 -0.4100 -0.1103 -0.2040
30514SOL    HW295999   7.456   1.547   6.998  0.0095 -0.1589 -1.0291
30515SOL     OW96000   4.126   2.155  10.122 -0.0295 -0.2071 -0.0219
30515SOL    HW196001   4.127   2.247  10.149 -1.7562 -0.6376  1.7073
30515SOL    HW296002   4.192   2.113  10.177  0.3472 -0.1311 -0.4059
30516SOL     OW96003   8.560   7.589   8.653  0.5431 -0.7521 -0.3986
30516SOL    HW196004   8.503   7.513   8.661  0.9349 -1.1442 -1.2104
30516SOL    HW296005   8.510   7.661   8.690 -0.7365 -0.9586 -1.6676
30517SOL     OW96006   8.519  10.911   5.975  0.0120 -0.6055  0.6061
30517SOL    HW196007   8.480  10.894   6.061 -1.5131  1.7902  0.4955
30517SOL    HW296008   8.448  10.951   5.924  1.6177  0.5359 -0.8617
30518SOL     OW96009   5.942   7.720   1.722  0.1726 -0.3472  0.2414
30518SOL    HW196010   5.874   7.654   1.739 -1.2108  1.0070  0.2558
30518SOL    HW296011   5.894   7.792   1.681  1.8722  0.1277 -0.9888
30519SOL     OW96012   2.724   6.718   0.967  0.2823 -0.3386  0.0319
30519SOL    HW196013   2.703   6.710   0.874 -1.4762 -0.5600  0.4129
30519SOL    HW296014   2.767   6.636   0.989  0.5023 -0.3784 -0.5370
30520SOL     OW96015   8.261   3.706   0.046 -0.4642 -0.4680 -0.4176
30520SOL    HW196016   8.308   3.650  -0.016 -0.4412 -0.3202 -0.5345
30520SOL    HW296017   8.297   3.682   0.132 -0.4250 -0.6021 -0.4714
30521SOL     OW96018   4.471   5.253   6.763 -0.1659  0.8491 -0.3240
30521SOL    HW196019   4.434   5.186   6.706 -0.0395  0.2757  0.2601
30521SOL    HW296020   4.430   5.335   6.734 -2.2131  0.1909  0.5582
30522SOL     OW96021  10.925   3.998   5.286  0.3052  0.5349  0.4471
30522SOL    HW196022  10.859   3.941   5.247 -1.1742  1.3139  1.7130
30522SOL    HW296023  10.957   4.051   5.213  0.1309 -0.4072 -0.3326
30523SOL     OW96024   7.912   4.436   0.367  0.5424  0.2887 -0.7816
30523SOL    HW196025   7.834   4.389   0.339  1.7363 -2.1625 -0.2931
30523SOL    HW296026   7.906   4.437   0.463  0.0584  2.1325 -0.7836
30524SOL     OW96027   8.026   1.905   6.397  0.2702 -0.1206  0.6959
30524SOL    HW196028   7.958   1.843   6.372  0.5234  0.6002 -2.1140
30524SOL    HW296029   8.102   1.851   6.417 -0.3050 -0.8063  1.0520
30525SOL     OW96030   7.602   0.926   2.263  0.3536 -0.0741  0.0124
30525SOL    HW196031   7.625   0.851   2.317  1.1386 -0.8574 -1.3649
30525SOL    HW296032   7.510   0.912   2.240  1.2778 -2.3652 -2.8269
30526SOL     OW96033   9.250   1.212   8.088  0.3351 -0.9926 -0.1747
30526SOL    HW196034   9.229   1.135   8.036  1.2378 -1.3045 -0.0866
30526SOL    HW296035   9.313   1.261   8.035  1.2187 -1.2825  0.5909
30527SOL     OW96036   8.846   7.070   0.444 -0.4507 -0.7314 -0.1802
30527SOL    HW196037   8.800   7.147   0.413  0.8601 -0.9391 -2.9118
30527SOL    HW296038   8.927   7.105   0.483  0.1024 -0.6610 -1.3399
30528SOL     OW96039   4.871   6.989   3.987 -0.2506  0.0330  0.1032
30528SOL    HW196040   4.798   6.996   4.049 -0.7261 -1.6200 -0.2232
30528SOL    HW296041   4.844   6.921   3.926  0.4866  1.1801 -1.5745
30529SOL     OW96042   8.232   4.001   8.352 -0.2808 -0.1787  0.4825
30529SOL    HW196043   8.232   3.934   8.284 -0.4808  0.6247 -0.3263
30529SOL    HW296044   8.216   3.953   8.433 -2.3886 -0.8764 -0.2940
30530SOL     OW96045   5.924   2.618   0.689  0.3294 -0.2709 -1.1208
30530SOL    HW196046   5.999   2.651   0.740 -1.1871  0.9177  0.4771
30530SOL    HW296047   5.886   2.550   0.744  0.0048 -0.6112 -1.7562
30531SOL     OW96048   5.536   6.536   1.109  0.6817  0.2761 -0.7045
30531SOL    HW196049   5.626   6.560   1.130  0.7359  0.2580 -0.9135
30531SOL    HW296050   5.535   6.440   1.116  0.8375  0.2274 -1.3129
30532SOL     OW96051   6.259   7.064   2.722 -0.6373 -0.3982  0.0169
30532SOL    HW196052   6.331   7.062   2.785 -1.3702 -2.5052  0.8874
30532SOL    HW296053   6.250   7.156   2.698  1.2888  0.1202  1.0980
30533SOL     OW96054  10.618   1.171   7.579 -0.0257  0.5995  0.2982
30533SOL    HW196055  10.585   1.083   7.563  2.7575 -0.6797  1.1387
30533SOL    HW296056  10.623   1.211   7.492 -0.7003 -0.2849 -0.1565
30534SOL     OW96057   1.698   8.314  10.333  0.0399  0.0906  0.0885
30534SOL    HW196058   1.635   8.383  10.315 -0.8515 -0.4660  1.0419
30534SOL    HW296059   1.647   8.233  10.333  0.6165 -0.3038  1.5060
30535SOL     OW96060   4.190   8.546   5.847  0.1025 -0.3830  0.4352
30535SOL    HW196061   4.151   8.462   5.869  1.2157 -0.9980  0.1048
30535SOL    HW296062   4.268   8.525   5.796 -0.6736  0.9056 -1.4079
30536SOL     OW96063   3.167   0.624   8.671  0.1283 -0.1887 -0.8159
30536SOL    HW196064   3.199   0.548   8.719 -0.1749 -0.2814 -0.7579
30536SOL    HW296065   3.217   0.624   8.589  0.7512  0.0557 -0.4354
30537SOL     OW96066   3.426   4.041   8.693  0.6530  0.6217 -0.1917
30537SOL    HW196067   3.510   4.063   8.734 -0.4121  1.1935  1.7961
30537SOL    HW296068   3.360   4.074   8.754 -1.0475 -2.4512 -0.1880
30538SOL     OW96069   1.304  10.975   0.947  0.7341 -0.0258 -0.4205
30538SOL    HW196070   1.241  10.932   1.005 -0.9685  0.1166 -2.0685
30538SOL    HW296071   1.345  10.902   0.900 -1.0562 -0.0403 -2.1115
30539SOL     OW96072   5.213   6.322   3.474 -0.1355  0.8325  0.2093
30539SOL    HW196073   5.123   6.350   3.491 -0.2435 -0.5503  2.3291
30539SOL    HW296074   5.266   6.372   3.535  0.7373  2.3432 -1.6717
30540SOL     OW96075   8.516   6.413   9.149 -0.5862  0.0759 -0.2732
30540SOL    HW196076   8.598   6.367   9.132 -1.8677 -2.5734  0.3231
30540SOL    HW296077   8.470   6.412   9.065 -1.5632 -1.8085  0.2455
30541SOL     OW96078   1.364  10.627   2.976 -0.2451 -0.8775 -0.0563
30541SOL    HW196079   1.444  10.655   2.932 -1.4334  1.3489 -0.9434
30541SOL    HW296080   1.371  10.661   3.065 -0.3710 -0.3302 -0.2540
30542SOL     OW96081   2.605   2.804   1.910  0.1682  0.5092  0.0181
30542SOL    HW196082   2.533   2.749   1.880  0.1724 -0.0825  1.0586
30542SOL    HW296083   2.611   2.873   1.844 -1.3947  0.6124 -0.0597
30543SOL     OW96084   4.792   1.977   4.707 -0.6105  0.6264 -0.2277
30543SOL    HW196085   4.879   2.002   4.738 -0.5559  1.2713 -0.8729
30543SOL    HW296086   4.732   2.015   4.770 -0.4784  1.4862 -0.5971
30544SOL     OW96087   9.857   8.852  10.521 -0.4289 -0.2209  0.3036
30544SOL    HW196088   9.764   8.874  10.527 -0.0194  1.2681  1.5350
30544SOL    HW296089   9.864   8.766  10.562 -1.2820 -0.4558 -0.0193
30545SOL     OW96090   4.610   2.019   3.273  0.0267 -0.2199  0.3439
30545SOL    HW196091   4.573   2.106   3.289 -0.3536 -0.1666 -0.7195
30545SOL    HW296092   4.572   1.964   3.341 -1.4098  0.0150 -0.2173
30546SOL     OW96093   9.589   4.200   4.927  0.5189 -0.2524 -0.2108
30546SOL    HW196094   9.630   4.251   4.997  0.2898  0.4287 -0.5580
30546SOL    HW296095   9.625   4.238   4.846 -1.1083  0.6826 -0.5433
30547SOL     OW96096  11.038   8.571   0.001  0.1867  0.5475  0.4902
30547SOL    HW196097  11.015   8.653  -0.044 -0.2653 -0.2810 -0.8190
30547SOL    HW296098  10.959   8.517  -0.005  1.0744 -0.6946 -0.2962
30548SOL     OW96099   5.969   6.281   5.916 -0.0605 -0.1366  0.1570
30548SOL    HW196100   5.939   6.268   5.827 -1.9688  1.2470  0.5528
30548SOL    HW296101   5.909   6.229   5.970 -0.6794  1.2087  0.8214
30549SOL     OW96102   3.878   1.186   6.741 -0.0677  0.2685  0.8233
30549SOL    HW196103   3.929   1.176   6.661  0.0941  0.9942  0.8290
30549SOL    HW296104   3.851   1.278   6.740 -1.4285 -0.1121  0.7812
30550SOL     OW96105  10.711   7.946   3.741  0.1059 -0.0635 -0.3373
30550SOL    HW196106  10.722   7.945   3.646 -1.3572  0.9909 -0.5483
30550SOL    HW296107  10.617   7.951   3.755  0.3604  2.8654  1.0868
30551SOL     OW96108   7.668  10.399   0.721 -0.5188 -0.1293 -0.4330
30551SOL    HW196109   7.604  10.434   0.784 -1.0628  2.0552 -2.0747
30551SOL    HW296110   7.739  10.366   0.775 -1.6726  0.1859  1.3783
30552SOL     OW96111   3.933   5.513   3.196 -0.6713  0.3759  0.0627
30552SOL    HW196112   3.898   5.426   3.176  1.2805 -0.2728 -0.7342
30552SOL    HW296113   3.936   5.517   3.291  1.3437 -1.3958  0.1545
30553SOL     OW96114   1.892   6.736   0.321  0.1559 -0.5352 -0.7921
30553SOL    HW196115   1.868   6.826   0.300 -3.7180 -1.4305 -0.9316
30553SOL    HW296116   1.902   6.736   0.416  1.1719  0.2103 -0.8849
30554SOL     OW96117   8.889   4.303   5.805  0.5169 -0.5453 -0.1506
30554SOL    HW196118   8.820   4.342   5.751 -1.2912 -0.5558  2.0220
30554SOL    HW296119   8.864   4.211   5.813  1.0854 -0.6726  0.2095
30555SOL     OW96120   7.756   9.074   1.917 -0.6426 -0.2414 -0.0479
30555SOL    HW196121   7.712   9.128   1.852  1.0842  1.3113 -0.0017
30555SOL    HW296122   7.830   9.127   1.947  0.3986 -2.1334  0.9489
30556SOL     OW96123   1.655   3.925   1.449  0.2600  0.0524  0.0104
30556SOL    HW196124   1.571   3.939   1.405 -0.4912  1.9905  1.9189
30556SOL    HW296125   1.631   3.896   1.537  1.6212  0.3063  0.4819
30557SOL     OW96126   1.174   1.139   3.465 -0.0667 -0.0540  1.0398
30557SOL    HW196127   1.213   1.143   3.553 -0.7734 -3.8862  1.6898
30557SOL    HW296128   1.225   1.072   3.420 -1.7100 -0.3723 -0.4182
30558SOL     OW96129   0.230   7.025  10.231  0.0895 -0.6627  0.3181
30558SOL    HW196130   0.212   6.952  10.172 -1.8719 -0.4181  0.5438
30558SOL    HW296131   0.291   6.989  10.295  0.5695 -1.5613 -0.6116
30559SOL     OW96132   3.353   6.679   5.674  0.2163 -0.5345 -0.0353
30559SOL    HW196133   3.362   6.623   5.597 -0.6632  1.8424 -1.9796
30559SOL    HW296134   3.443   6.704   5.696  0.4956 -1.4592 -0.0562
30560SOL     OW96135   7.817   0.068   5.238  0.6058 -0.0406  0.1701
30560SOL    HW196136   7.842   0.024   5.156 -1.1245  0.9304 -0.9431
30560SOL    HW296137   7.900   0.098   5.275  1.6358 -2.3002 -0.1255
30561SOL     OW96138   1.274   0.348  10.213 -0.2637 -0.4970  0.4196
30561SOL    HW196139   1.266   0.261  10.251 -0.7016 -0.5827  0.1413
30561SOL    HW296140   1.338   0.393  10.268 -2.8752  0.3149  3.0227
30562SOL     OW96141   3.121  10.223   6.267 -0.1607 -0.0006  0.2624
30562SOL    HW196142   3.212  10.218   6.299 -0.4512 -2.8785  0.8931
30562SOL    HW296143   3.121  10.172   6.187 -1.3334 -0.5218  0.5824
30563SOL     OW96144   0.919   6.487   1.792 -0.2816  0.2503  0.0580
30563SOL    HW196145   0.936   6.393   1.802  1.9594  0.5345 -0.4072
30563SOL    HW296146   0.947   6.507   1.703 -1.3948  1.2425 -0.0821
30564SOL     OW96147   5.652   9.709   1.437  0.0791  0.4198  0.0951
30564SOL    HW196148   5.715   9.638   1.451 -0.4835 -0.0701  0.1797
30564SOL    HW296149   5.692   9.763   1.369  1.0757  0.6997  0.8875
30565SOL     OW96150   1.987   8.887   5.393 -0.2408  0.7860 -0.2497
30565SOL    HW196151   1.932   8.863   5.318  0.6607 -0.1747 -0.6236
30565SOL    HW296152   2.019   8.975   5.373  0.7593  0.1698 -1.4648
30566SOL     OW96153   1.285   3.336   2.119 -0.4246  0.2276 -0.1291
30566SOL    HW196154   1.354   3.372   2.175 -2.1794  0.2746  2.1671
30566SOL    HW296155   1.320   3.253   2.087  1.6157  1.3995 -1.1205
30567SOL     OW96156   9.817   6.517   3.712 -0.6061  0.6193 -0.1465
30567SOL    HW196157   9.769   6.565   3.780  1.0971 -0.5247  1.9967
30567SOL    HW296158   9.881   6.581   3.679 -1.0968  1.0305 -0.3109
30568SOL     OW96159   8.805   7.159   5.845 -0.0139 -0.8747  0.1990
30568SOL    HW196160   8.730   7.215   5.862  0.3613  0.3731 -1.8794
30568SOL    HW296161   8.772   7.091   5.787  0.1137 -1.2427  0.5563
30569SOL     OW96162   2.931   3.202   1.263  0.4415  0.7797  0.1344
30569SOL    HW196163   2.948   3.158   1.346  2.0580 -1.2525 -1.1689
30569SOL    HW296164   2.885   3.137   1.210  1.4941  1.1697 -1.3195
30570SOL     OW96165   6.633   4.502   1.194 -0.5669 -0.3131  0.0320
30570SOL    HW196166   6.607   4.500   1.286  1.7013 -0.4457  0.7125
30570SOL    HW296167   6.629   4.410   1.166 -1.2913 -0.2678 -0.0411
30571SOL     OW96168   6.144   6.664   2.858  0.0678 -0.0120 -0.4481
30571SOL    HW196169   6.230   6.690   2.893 -0.3621  2.0855 -0.8359
30571SOL    HW296170   6.098   6.627   2.934  0.7838  0.2347  0.1172
30572SOL     OW96171   4.906   8.204   1.123  0.4051  0.2133 -0.5453
30572SOL    HW196172   4.813   8.222   1.139  0.2208  0.5085 -1.8564
30572SOL    HW296173   4.939   8.175   1.208 -1.2749 -1.5705 -0.4163
30573SOL     OW96174   3.324   9.108   8.103 -0.1433 -0.1985  0.4521
30573SOL    HW196175   3.344   9.089   8.194 -0.0515 -1.5026  0.1853
30573SOL    HW296176   3.391   9.171   8.076  0.4640 -0.6081  0.9883
30574SOL     OW96177   7.150   3.896  10.292 -0.1037  0.9474  0.4949
30574SOL    HW196178   7.057   3.916  10.303 -0.2027  1.1636 -0.6205
30574SOL    HW296179   7.152   3.834  10.219  0.6708  1.5308  0.0012
30575SOL     OW96180   0.848  10.842   9.242  0.0746 -0.2224 -0.1968
30575SOL    HW196181   0.934  10.805   9.261  0.7018  1.2939  0.0270
30575SOL    HW296182   0.855  10.873   9.152  1.2306  3.6595  1.0666
30576SOL     OW96183   1.389   9.473  10.845  0.8351  0.3794  0.1512
30576SOL    HW196184   1.308   9.423  10.856  0.4740  0.3201 -2.3317
30576SOL    HW296185   1.373   9.530  10.770  2.7567  1.1392  0.2455
30577SOL     OW96186   5.639   5.771   3.460 -0.3015  0.1169 -0.2744
30577SOL    HW196187   5.580   5.702   3.431  0.4533 -0.4350 -0.5106
30577SOL    HW296188   5.618   5.784   3.552  0.1750 -1.0849  0.0248
30578SOL     OW96189   0.145  10.990   1.644  0.7519  0.5180  0.5737
30578SOL    HW196190   0.238  10.986   1.665  0.4037  0.8175  2.3569
30578SOL    HW296191   0.112  11.062   1.699 -1.0203 -1.3407  2.0845
30579SOL     OW96192   2.188   6.175   3.072 -0.4345 -0.1371 -0.2218
30579SOL    HW196193   2.176   6.082   3.095 -1.7812  0.1782  0.4279
30579SOL    HW296194   2.099   6.208   3.059 -0.0293  1.2683  0.3827
30580SOL     OW96195   1.668   1.836   1.906 -0.3994 -0.1158  0.8849
30580SOL    HW196196   1.659   1.744   1.879 -0.8922  0.2763 -0.4056
30580SOL    HW296197   1.579   1.863   1.928 -0.2525  0.0511  1.2860
30581SOL     OW96198  10.838   0.766   3.711 -0.4280 -0.2910 -0.0873
30581SOL    HW196199  10.831   0.712   3.789  1.1061 -1.5796 -0.7919
30581SOL    HW296200  10.758   0.747   3.662 -1.2508  0.2892  0.9848
30582SOL     OW96201   2.044   2.523   9.914 -0.2069 -0.3723  0.8805
30582SOL    HW196202   1.952   2.504   9.897 -0.4313  0.1757  1.4531
30582SOL    HW296203   2.043   2.599   9.972  0.5861 -0.8258  1.5136
30583SOL     OW96204   8.360   3.365   5.478 -0.3793  0.2478 -0.1917
30583SOL    HW196205   8.390   3.277   5.455 -0.7162 -0.0849  0.5969
30583SOL    HW296206   8.404   3.422   5.415 -0.8578 -0.5625 -1.3053
30584SOL     OW96207   1.678   8.092   5.048 -0.7546  0.2395 -0.4256
30584SOL    HW196208   1.718   8.124   4.967 -2.7501  1.2415 -1.0784
30584SOL    HW296209   1.600   8.044   5.019 -1.5257  0.6396  0.8978
30585SOL     OW96210   9.541   2.143   8.664 -0.1893  0.0347 -0.0518
30585SOL    HW196211   9.578   2.125   8.577 -0.7775  2.1686 -0.8103
30585SOL    HW296212   9.500   2.061   8.690 -0.1593 -0.6051 -1.8686
30586SOL     OW96213   7.609   5.956   7.023 -0.8580 -0.0975 -0.5854
30586SOL    HW196214   7.575   5.962   6.933 -1.6786  1.6923 -0.2004
30586SOL    HW296215   7.546   6.006   7.075  0.1997 -0.1865  0.8227
30587SOL     OW96216   9.417   2.931   0.640 -0.6297 -0.2559  0.5149
30587SOL    HW196217   9.441   2.992   0.709  0.0834  0.0483  0.0140
30587SOL    HW296218   9.322   2.921   0.648 -0.4172 -1.1679  2.2898
30588SOL     OW96219   9.590   5.192   2.799  0.5011 -0.6496  0.3525
30588SOL    HW196220   9.647   5.269   2.805  1.0983 -1.0199 -0.4314
30588SOL    HW296221   9.611   5.140   2.876  0.8074 -0.5122  0.3604
30589SOL     OW96222   5.383   3.983   7.816 -0.1450 -0.0627 -0.1784
30589SOL    HW196223   5.432   3.905   7.789  0.1922  0.8656 -2.5422
30589SOL    HW296224   5.401   4.047   7.746 -2.5517  1.2363  0.3020
30590SOL     OW96225   8.171   9.821   0.206  0.6665 -0.0050  0.2656
30590SOL    HW196226   8.147   9.914   0.205  0.0765 -0.1512 -1.0550
30590SOL    HW296227   8.093   9.776   0.172  1.1358 -0.9278  0.3932
30591SOL     OW96228   9.364  10.014   2.930  0.0153  0.4039  0.2537
30591SOL    HW196229   9.332   9.956   2.861 -1.0488  1.1319  0.1057
30591SOL    HW296230   9.451  10.040   2.901  0.3364 -0.7671  0.1161
30592SOL     OW96231   1.508   9.008   7.151 -0.0930 -0.5538  0.1866
30592SOL    HW196232   1.446   9.080   7.136  0.8696  0.3556  0.5293
30592SOL    HW296233   1.563   9.037   7.223  0.7713 -1.3317 -0.1353
30593SOL     OW96234   7.587   9.936   2.735 -0.3022  0.2514  0.6950
30593SOL    HW196235   7.674   9.970   2.715 -0.0432  1.5469  3.5379
30593SOL    HW296236   7.528  10.010   2.717 -0.6622 -0.1468  0.1839
30594SOL     OW96237   7.916  10.680   1.403 -0.1544 -0.3126  0.0143
30594SOL    HW196238   7.822  10.688   1.392 -0.1930 -0.6390  0.1058
30594SOL    HW296239   7.951  10.765   1.375 -0.5957  0.3655  1.3961
30595SOL     OW96240   4.176   4.790   9.883  0.0688 -0.2453 -0.4941
30595SOL    HW196241   4.179   4.695   9.896  2.2306 -0.3588 -1.3973
30595SOL    HW296242   4.231   4.826   9.954 -3.2097  0.6824  1.7949
30596SOL     OW96243   3.775   6.889   9.781 -0.0171  0.0450  0.1473
30596SOL    HW196244   3.870   6.901   9.780  0.1410 -0.9507  1.0549
30596SOL    HW296245   3.761   6.807   9.733 -0.5345  0.8023 -1.0154
30597SOL     OW96246   6.283   6.523   8.361  0.3548 -0.1808  0.2052
30597SOL    HW196247   6.271   6.440   8.316 -0.8300  0.2392 -0.3068
30597SOL    HW296248   6.325   6.580   8.297 -1.4009  0.4401 -0.4561
30598SOL     OW96249   5.666   0.171   0.613 -0.7006 -0.0389  0.5950
30598SOL    HW196250   5.732   0.103   0.604 -1.8447 -0.9107 -2.3087
30598SOL    HW296251   5.713   0.252   0.592 -0.6478 -0.7696 -2.6373
30599SOL     OW96252   0.278   0.697   6.680 -0.7323  0.0256  0.2261
30599SOL    HW196253   0.304   0.606   6.697  0.1014  0.3255  0.5960
30599SOL    HW296254   0.288   0.741   6.764 -1.5858  0.3642  0.1568
30600SOL     OW96255   4.659   3.401   0.214  0.3645  0.0765  0.3669
30600SOL    HW196256   4.658   3.459   0.137 -0.9814 -0.7047 -0.2306
30600SOL    HW296257   4.689   3.457   0.286  1.9216  0.7639 -0.7491
30601SOL     OW96258  10.830   1.812   1.690  0.3040  0.3322 -0.3812
30601SOL    HW196259  10.869   1.773   1.768  0.9090  2.0800  0.2207
30601SOL    HW296260  10.766   1.875   1.723  0.4798  1.0033 -1.2779
30602SOL     OW96261   4.329   0.095   2.667  0.1541 -0.2864 -0.3780
30602SOL    HW196262   4.324   0.084   2.762 -2.0134  2.5798 -0.0100
30602SOL    HW296263   4.242   0.129   2.642  0.7065 -0.7719 -3.3834
30603SOL     OW96264   6.184   5.867   2.530 -0.1607  0.1976  0.4091
30603SOL    HW196265   6.251   5.932   2.550 -0.5546  1.1158 -1.1148
30603SOL    HW296266   6.151   5.839   2.616  1.4695  0.4331  1.1499
30604SOL     OW96267   1.368   5.782   9.308 -0.0431  0.0501  0.0022
30604SOL    HW196268   1.450   5.831   9.302  0.6775 -1.2419 -1.4027
30604SOL    HW296269   1.342   5.790   9.400  0.8424  1.7304  0.1431
30605SOL     OW96270   1.042   5.639   9.395  0.4827  0.0659  0.3373
30605SOL    HW196271   1.087   5.619   9.313 -0.3087  1.5331 -0.4920
30605SOL    HW296272   0.997   5.721   9.378  0.4831  0.5231  2.3273
30606SOL     OW96273   4.864  10.513   1.936 -0.1150  0.1763 -0.3099
30606SOL    HW196274   4.933  10.477   1.881  1.7200  3.4661 -0.3918
30606SOL    HW296275   4.849  10.601   1.902 -0.3138  1.6279  3.1352
30607SOL     OW96276   2.957   3.174   1.522  0.3841  0.0083  0.4713
30607SOL    HW196277   2.915   3.227   1.589  2.1923  1.1859  0.7337
30607SOL    HW296278   2.992   3.099   1.569  0.5689  0.1990  0.6388
30608SOL     OW96279   6.333   4.136   0.193 -0.2005  0.0412  0.0777
30608SOL    HW196280   6.243   4.109   0.175  0.0731  0.3963 -2.1222
30608SOL    HW296281   6.366   4.167   0.109  2.7290 -2.1907  0.2729
30609SOL     OW96282   3.787   1.005  10.847 -0.4751 -0.0824 -0.5164
30609SOL    HW196283   3.789   1.016  10.752  1.9116  0.9517 -0.4368
30609SOL    HW296284   3.699   1.032  10.873 -0.2649  2.6723 -2.1900
30610SOL     OW96285   9.492   1.098   5.428  0.3193 -0.7126  0.2680
30610SOL    HW196286   9.489   1.156   5.504 -2.3172 -1.7019  1.0212
30610SOL    HW296287   9.458   1.151   5.356  0.9951 -0.3569  0.2053
30611SOL     OW96288   6.157   7.334   1.785 -0.2286  0.1647  0.2599
30611SOL    HW196289   6.064   7.328   1.763 -0.3341  0.1185  0.7189
30611SOL    HW296290   6.171   7.428   1.802 -0.6244 -0.0546  2.0359
30612SOL     OW96291   0.266   6.146   8.656  0.2869  0.3895 -0.1700
30612SOL    HW196292   0.260   6.050   8.659  1.0239  0.3223  2.6053
30612SOL    HW296293   0.360   6.163   8.646  0.0821  0.8545 -1.3814
30613SOL     OW96294   9.978   4.437   3.243  0.0999  0.5973 -0.7184
30613SOL    HW196295  10.036   4.363   3.225 -1.0469 -0.9388  1.5018
30613SOL    HW296296   9.976   4.486   3.160  0.8431 -1.8831 -2.3129
30614SOL     OW96297   9.034   8.363   8.526  0.5709 -0.3968  0.4153
30614SOL    HW196298   8.963   8.351   8.589 -0.8292  0.8431 -0.8635
30614SOL    HW296299   9.113   8.365   8.580 -0.5914  0.8939  2.1801
30615SOL     OW96300   9.176   0.940   1.553 -0.3166  0.6052 -0.5385
30615SOL    HW196301   9.176   0.975   1.464  2.4873 -0.4333 -1.0615
30615SOL    HW296302   9.200   1.015   1.608  1.0407  0.5948 -1.0810
30616SOL     OW96303   0.173  10.490   5.199 -0.3894  0.0395 -0.3959
30616SOL    HW196304   0.122  10.564   5.233 -0.5239 -0.5989  0.8354
30616SOL    HW296305   0.261  10.503   5.234 -0.7685 -1.1603  1.1187
30617SOL     OW96306   4.674   1.687   1.099  0.0970 -1.0923 -0.0993
30617SOL    HW196307   4.760   1.722   1.076 -0.6593  1.8637  1.0979
30617SOL    HW296308   4.621   1.702   1.020  0.3351 -1.7161 -0.3849
30618SOL     OW96309   6.353   6.615  10.190  0.2696 -0.0119  0.5904
30618SOL    HW196310   6.283   6.637  10.251 -0.2502 -0.0031  0.0033
30618SOL    HW296311   6.432   6.611  10.244 -0.2373 -0.3604  1.3195
30619SOL     OW96312   9.969   8.002   3.494  0.3725 -0.3172 -0.0234
30619SOL    HW196313   9.879   8.033   3.478  0.1381 -1.1432 -0.3625
30619SOL    HW296314   9.962   7.907   3.492  1.4159 -0.3974 -0.9452
30620SOL     OW96315   2.208   1.976   3.575 -0.4396 -0.0544 -1.0779
30620SOL    HW196316   2.300   1.997   3.588 -0.3850  0.5191 -2.2866
30620SOL    HW296317   2.208   1.909   3.506 -0.9560  0.5296 -1.6604
30621SOL     OW96318   6.649   1.373   2.483  0.0154  0.5064  0.4912
30621SOL    HW196319   6.569   1.356   2.534 -0.1618 -0.1162  0.0304
30621SOL    HW296320   6.684   1.286   2.464  0.4649  0.7534  0.1635
30622SOL     OW96321   3.424   1.952   9.166 -0.1584 -0.2587  0.4359
30622SOL    HW196322   3.515   1.979   9.175 -0.1311  0.1335 -0.7709
30622SOL    HW296323   3.396   1.992   9.083 -1.4396 -0.3232  0.8214
30623SOL     OW96324   9.070   3.791   3.942 -0.3604 -0.6452  0.0314
30623SOL    HW196325   9.097   3.739   4.017 -1.5719 -1.3998 -0.0225
30623SOL    HW296326   8.999   3.847   3.975  0.1334  0.1327 -0.1949
30624SOL     OW96327   8.318   1.386   2.691 -0.3291 -0.0745 -0.1804
30624SOL    HW196328   8.291   1.430   2.610 -0.3030 -2.6690 -1.6867
30624SOL    HW296329   8.244   1.398   2.751 -1.0041  0.5425 -1.1061
30625SOL     OW96330   0.496   3.978   3.910 -0.6728 -0.3095 -0.1189
30625SOL    HW196331   0.474   3.914   3.978  1.4281 -2.1538 -1.0433
30625SOL    HW296332   0.543   4.047   3.956 -0.1279 -1.0498  0.4540
30626SOL     OW96333   4.029   4.966   4.410 -0.7909 -0.5322  0.1099
30626SOL    HW196334   4.108   4.912   4.420  0.3180  0.3859 -2.6751
30626SOL    HW296335   4.053   5.051   4.446 -0.4113 -0.2165 -0.8483
30627SOL     OW96336   1.833   1.093   1.282  0.0937 -0.7150  0.4114
30627SOL    HW196337   1.740   1.069   1.277 -0.0377 -0.6591  2.1251
30627SOL    HW296338   1.865   1.049   1.361  1.1492  0.5111  0.6970
30628SOL     OW96339  10.543   0.747   7.045 -0.5159  0.1663 -0.2529
30628SOL    HW196340  10.515   0.771   6.956  0.4102  1.4442 -0.2373
30628SOL    HW296341  10.533   0.827   7.095  1.6950  0.2999  0.0859
30629SOL     OW96342   6.312   0.735   6.934 -0.1067  0.0169 -0.0489
30629SOL    HW196343   6.258   0.813   6.947 -1.6252 -1.0915  0.4948
30629SOL    HW296344   6.378   0.762   6.870 -0.5403  1.7556  0.1877
30630SOL     OW96345   3.363   6.095   7.707  0.3442  0.2355  0.1582
30630SOL    HW196346   3.374   6.111   7.801 -3.5758  0.3511  0.7847
30630SOL    HW296347   3.372   6.000   7.698 -3.6216 -0.4861  1.6644
30631SOL     OW96348   5.161  10.064   9.785  0.1580  0.0688  0.4748
30631SOL    HW196349   5.208  10.013   9.851 -1.2239  0.3936  1.7595
30631SOL    HW296350   5.200  10.152   9.791 -0.8723  0.4643  1.8746
30632SOL     OW96351   5.308   8.184   4.490  0.6793  0.2992  0.0941
30632SOL    HW196352   5.370   8.213   4.557  3.3513 -0.9961 -1.6243
30632SOL    HW296353   5.331   8.235   4.413 -1.2277  0.5852 -0.3273
30633SOL     OW96354   8.199   3.261   5.175 -0.0644  0.7886 -0.0650
30633SOL    HW196355   8.180   3.213   5.095  2.7746 -0.2332 -0.2552
30633SOL    HW296356   8.238   3.195   5.233  0.5028  2.0924  1.0908
30634SOL     OW96357   3.168   1.454   7.704  0.1460  0.5033  0.0263
30634SOL    HW196358   3.188   1.446   7.798 -1.8044 -0.7208  0.3833
30634SOL    HW296359   3.228   1.392   7.662  0.6291  0.6298  0.5140
30635SOL     OW96360   6.909   2.239   7.635  0.0533 -0.3031 -0.8211
30635SOL    HW196361   6.859   2.319   7.650  0.0579 -0.5621  0.7555
30635SOL    HW296362   6.855   2.187   7.576 -1.0846 -0.1358  0.0392
30636SOL     OW96363   7.847   8.362   3.105 -0.0264  0.1788  0.2008
30636SOL    HW196364   7.801   8.422   3.163 -1.8368  0.1872 -1.1482
30636SOL    HW296365   7.777   8.311   3.063  1.1413  0.4285 -2.2090
30637SOL     OW96366   8.730   9.539   7.649 -0.2475  0.2889  0.6712
30637SOL    HW196367   8.717   9.619   7.599 -1.0635  0.8342  1.7375
30637SOL    HW296368   8.657   9.483   7.624 -0.5602  0.4965  1.1032
30638SOL     OW96369   2.170   9.367   3.320  0.7056  0.1902  0.3465
30638SOL    HW196370   2.261   9.362   3.350  0.6987 -0.3911  0.2701
30638SOL    HW296371   2.146   9.459   3.333  1.7294  0.6707 -0.8778
30639SOL     OW96372   8.837  10.239   3.143  0.6063 -0.1176  0.5016
30639SOL    HW196373   8.844  10.180   3.218  0.1688 -1.0662 -0.1791
30639SOL    HW296374   8.897  10.201   3.078  1.2050  0.8572  0.4746
30640SOL     OW96375   1.668   2.826   1.983 -0.6859 -0.3333 -0.1878
30640SOL    HW196376   1.574   2.834   1.970 -0.6955  0.6822  0.4722
30640SOL    HW296377   1.679   2.807   2.076 -0.1935  0.6541 -0.0321
30641SOL     OW96378   1.283   7.125   0.146  0.1125  0.1205 -0.0102
30641SOL    HW196379   1.307   7.160   0.060  0.0694  1.7030  0.5804
30641SOL    HW296380   1.367   7.111   0.190  0.1387 -0.7877 -0.3249
30642SOL     OW96381   5.667   9.525   0.860  0.2853  0.2653  0.5949
30642SOL    HW196382   5.721   9.455   0.823 -0.4481 -1.0296  1.8739
30642SOL    HW296383   5.597   9.479   0.907 -0.2391  1.8653  1.4547
30643SOL     OW96384   1.249  10.966   8.942  0.4109 -0.6300 -0.5939
30643SOL    HW196385   1.215  11.054   8.926 -3.7900 -1.2963  2.7157
30643SOL    HW296386   1.294  10.972   9.027  1.0501 -1.4711 -0.8573
30644SOL     OW96387   9.095   8.752   6.145  0.0095 -0.5528 -0.7537
30644SOL    HW196388   9.101   8.667   6.189 -0.1834  0.3141  1.0177
30644SOL    HW296389   9.001   8.768   6.136  0.0170 -0.0081  0.0137
30645SOL     OW96390   0.168   8.352   7.131  0.2647  0.0098 -0.2014
30645SOL    HW196391   0.167   8.300   7.212  0.4073 -0.7543 -0.6813
30645SOL    HW296392   0.260   8.355   7.105  0.3483  1.1088  0.1978
30646SOL     OW96393   6.162   5.392   2.568  0.0983 -0.0694 -0.7130
30646SOL    HW196394   6.215   5.421   2.643 -0.7523  0.2680 -0.2210
30646SOL    HW296395   6.224   5.387   2.495  0.6842  0.9857 -0.3196
30647SOL     OW96396   9.774   0.149   5.509  0.2957 -0.0740  0.6785
30647SOL    HW196397   9.750   0.083   5.574  1.8608 -1.5087 -0.1318
30647SOL    HW296398   9.801   0.098   5.432  1.3293  1.5257 -0.0637
30648SOL     OW96399   0.053   6.858   3.194 -0.2191 -0.1001  0.1605
30648SOL    HW196400   0.134   6.855   3.245  0.6798  1.6969 -1.0677
30648SOL    HW296401   0.078   6.820   3.109 -0.9748 -0.5352  0.1258
30649SOL     OW96402   5.013   9.468   4.590  0.0445  0.2843  0.3927
30649SOL    HW196403   4.943   9.493   4.651 -0.4051  0.2792 -0.1190
30649SOL    HW296404   5.066   9.548   4.582  0.4428  0.1186  1.2287
30650SOL     OW96405   0.855  10.623   7.535  0.3158  0.3613  0.1057
30650SOL    HW196406   0.883  10.534   7.512 -0.1954  0.2765 -0.2117
30650SOL    HW296407   0.873  10.630   7.629 -2.5925 -1.2651  0.9018
30651SOL     OW96408   5.265   6.319   8.228  0.0272  0.0908 -0.1928
30651SOL    HW196409   5.313   6.294   8.306 -0.5617 -0.8439 -0.1178
30651SOL    HW296410   5.320   6.288   8.155  1.0072  1.7417 -0.2005
30652SOL     OW96411  10.488   5.451   8.254  0.1618 -0.7304  0.0862
30652SOL    HW196412  10.441   5.513   8.310  1.9692  0.3321  0.5338
30652SOL    HW296413  10.460   5.365   8.284  0.4159 -0.1828  2.0518
30653SOL     OW96414   1.720   2.425   6.550  0.2462  0.0739 -0.6032
30653SOL    HW196415   1.635   2.457   6.519 -0.0458 -0.4904 -0.3938
30653SOL    HW296416   1.700   2.346   6.599  0.6918  0.9078  1.0138
30654SOL     OW96417   8.935   2.550   3.837  0.2324 -0.7740  0.0302
30654SOL    HW196418   8.862   2.504   3.795  0.0172  1.0785 -1.7718
30654SOL    HW296419   8.894   2.610   3.899  0.4640 -2.0875  1.5418
30655SOL     OW96420   3.330   2.989   5.915 -0.4491  0.0268 -1.1595
30655SOL    HW196421   3.416   2.954   5.939 -0.4635  1.4179  1.3145
30655SOL    HW296422   3.268   2.924   5.947 -0.3634  0.5320  0.1132
30656SOL     OW96423  10.807  10.991   2.978  0.0223 -0.4684 -0.0054
30656SOL    HW196424  10.792  10.899   2.956  1.8732 -0.5053 -1.3905
30656SOL    HW296425  10.871  10.988   3.049 -1.0686 -0.2467  1.0069
30657SOL     OW96426   8.706   8.623   5.470  0.2721  0.0723 -0.3711
30657SOL    HW196427   8.620   8.644   5.507  0.3650 -0.4888  0.1844
30657SOL    HW296428   8.765   8.688   5.510  0.1796  0.1784 -0.4065
30658SOL     OW96429   4.771   0.006  10.428 -0.0712  0.4369  0.1155
30658SOL    HW196430   4.753   0.004  10.522  0.6184  0.9237  0.2663
30658SOL    HW296431   4.719  -0.066  10.392  1.3158 -1.1650  1.1533
30659SOL     OW96432   9.820   0.650   5.918  0.0484  0.4646  0.3648
30659SOL    HW196433   9.804   0.665   5.825 -0.8653 -2.5277 -0.0651
30659SOL    HW296434   9.780   0.725   5.962 -0.0212  1.6454 -1.6157
30660SOL     OW96435   8.785   0.915  11.063  0.0088 -0.1949  0.7121
30660SOL    HW196436   8.760   0.827  11.091 -2.6191  0.1065 -0.3456
30660SOL    HW296437   8.764   0.917  10.969  0.7931  1.2909  0.5395
30661SOL     OW96438   7.659   4.877   3.351  0.0941 -0.1016  0.8612
30661SOL    HW196439   7.642   4.783   3.346 -0.5117  0.0302  0.3420
30661SOL    HW296440   7.643   4.909   3.263  0.0180  0.5370  1.1029
30662SOL     OW96441   2.303   0.562   4.175 -0.1481 -0.4629 -0.5567
30662SOL    HW196442   2.366   0.495   4.150  0.5766  0.0949 -0.2547
30662SOL    HW296443   2.326   0.638   4.122  0.8710  0.4628  1.1544
30663SOL     OW96444   0.407   8.915  10.220  0.0901 -0.4127  0.1860
30663SOL    HW196445   0.485   8.958  10.187  0.6379 -0.9807  0.7010
30663SOL    HW296446   0.433   8.880  10.305 -1.2657  0.9781  1.2347
30664SOL     OW96447   8.631   4.581   9.259  0.2424 -0.0547  0.6858
30664SOL    HW196448   8.680   4.658   9.233  1.7678 -0.9604  0.7915
30664SOL    HW296449   8.636   4.578   9.354 -0.1425 -0.0820  0.7103
30665SOL     OW96450   3.108   1.431   9.600  0.0619  0.4525  0.3800
30665SOL    HW196451   3.057   1.390   9.669  3.0329 -2.9175  0.9421
30665SOL    HW296452   3.199   1.417   9.626  1.3476  0.1280 -3.5281
30666SOL     OW96453   1.805   9.975  10.064  0.4429  0.4115 -0.1483
30666SOL    HW196454   1.714   9.951  10.083  0.4113 -1.5577 -2.2546
30666SOL    HW296455   1.800  10.033   9.989  0.9137 -0.5513 -0.9567
30667SOL     OW96456   1.172   2.973   0.288  0.1477  0.3150  0.5466
30667SOL    HW196457   1.243   2.939   0.344  0.9103 -1.4573 -1.3481
30667SOL    HW296458   1.216   2.995   0.206 -1.3945 -0.1857 -0.4444
30668SOL     OW96459   3.680   8.654   4.581  0.1052 -0.1468 -0.3206
30668SOL    HW196460   3.743   8.694   4.521  0.1901 -0.9474 -0.7714
30668SOL    HW296461   3.698   8.560   4.577  1.5442 -0.1199  2.5877
30669SOL     OW96462   0.256   7.890   6.086 -0.6949  0.8437 -0.6737
30669SOL    HW196463   0.232   7.968   6.036  1.6885  2.5253  0.5889
30669SOL    HW296464   0.349   7.902   6.104 -0.4085 -2.0239  0.1354
30670SOL     OW96465   1.449   4.972   3.990  0.1954  0.5178 -0.3686
30670SOL    HW196466   1.392   4.992   4.065 -2.1317 -0.2798 -1.8229
30670SOL    HW296467   1.474   4.880   4.004 -1.5124 -0.1251 -1.2869
30671SOL     OW96468   4.342   9.110   4.549 -0.4477 -0.5836  0.2234
30671SOL    HW196469   4.260   9.127   4.596 -1.5746 -1.2008 -1.4026
30671SOL    HW296470   4.322   9.034   4.494  1.1959 -0.6626 -0.3116
30672SOL     OW96471   2.101   5.234   2.249  0.0502 -0.0873  0.1183
30672SOL    HW196472   2.012   5.266   2.239 -0.0334 -0.9306 -2.7982
30672SOL    HW296473   2.149   5.273   2.176  1.8179 -0.4815  1.0138
30673SOL     OW96474   2.988   9.354   6.288  0.2128  0.6003  0.4965
30673SOL    HW196475   2.907   9.369   6.336  0.4210  0.6555  0.8379
30673SOL    HW296476   3.006   9.261   6.300  0.2204  0.5964  0.4536
30674SOL     OW96477   9.316   3.214   1.562 -0.0156 -0.3364 -0.3306
30674SOL    HW196478   9.384   3.247   1.621 -0.4645 -0.6001  0.3437
30674SOL    HW296479   9.363   3.195   1.481  0.3876  1.2516 -0.5155
30675SOL     OW96480   7.609   8.200   8.340 -0.1888  0.0738  0.0255
30675SOL    HW196481   7.575   8.228   8.255  0.6632 -0.4537 -0.5137
30675SOL    HW296482   7.553   8.242   8.404 -0.1329  1.4294 -0.7847
30676SOL     OW96483   6.507   5.177   5.334  0.0477  0.0522 -0.4781
30676SOL    HW196484   6.434   5.166   5.396  0.5728  1.4639  0.4436
30676SOL    HW296485   6.505   5.097   5.281 -0.7793 -0.9629  0.9923
30677SOL     OW96486   2.059   6.166   0.866  0.8065 -0.5426  0.1453
30677SOL    HW196487   2.136   6.172   0.809  0.1586  1.4889 -0.6231
30677SOL    HW296488   2.053   6.252   0.907 -1.0325 -0.6477  0.1978
30678SOL     OW96489   8.839   1.520   8.351 -0.1122  0.2718 -0.1661
30678SOL    HW196490   8.843   1.609   8.316  1.2309 -0.1088 -1.1060
30678SOL    HW296491   8.894   1.469   8.290 -2.8363 -1.7026 -1.1465
30679SOL     OW96492   1.847   5.934   2.238  0.0624 -0.5693 -0.0567
30679SOL    HW196493   1.942   5.926   2.235 -0.0111 -1.5898  0.1911
30679SOL    HW296494   1.819   5.916   2.148  0.0752 -0.5784 -0.0589
30680SOL     OW96495   1.567   9.278   6.033 -0.0595  0.1776 -0.0232
30680SOL    HW196496   1.539   9.337   6.103 -1.3031 -0.7322  0.2835
30680SOL    HW296497   1.607   9.336   5.968  1.7533  0.9891  1.6960
30681SOL     OW96498   6.668   5.422   1.677  0.2688  0.2532  0.0615
30681SOL    HW196499   6.760   5.405   1.698  0.1472  0.1958  0.5410
30681SOL    HW296500   6.618   5.365   1.735 -0.0783  0.4028 -0.0854
30682SOL     OW96501   7.854   7.271   6.957 -0.0995  0.1126  0.6013
30682SOL    HW196502   7.909   7.327   7.012  1.2536  0.7291 -1.2901
30682SOL    HW296503   7.892   7.184   6.967  1.1426  0.4951 -0.5155
30683SOL     OW96504   2.158   0.674   8.666  0.0084  0.4463 -0.6155
30683SOL    HW196505   2.072   0.640   8.643 -0.9595  2.7976 -0.7504
30683SOL    HW296506   2.176   0.636   8.752 -1.1104 -0.1620 -0.6269
30684SOL     OW96507   1.038   9.943   4.603  0.1606  0.5005  0.1794
30684SOL    HW196508   1.077  10.030   4.598  0.1557  0.5313  0.6513
30684SOL    HW296509   1.067   9.899   4.523  0.5839  0.7625  0.1890
30685SOL     OW96510   6.871   5.564   8.559  0.0960 -0.0403 -0.5863
30685SOL    HW196511   6.854   5.512   8.637  2.2253  0.1792  0.0761
30685SOL    HW296512   6.893   5.500   8.491 -2.9437 -0.3362 -1.4764
30686SOL     OW96513   9.200   3.461   0.692 -0.1703  0.7583 -0.2718
30686SOL    HW196514   9.128   3.522   0.676 -0.1540  1.3135  1.5108
30686SOL    HW296515   9.163   3.394   0.749 -0.0213 -0.5849 -1.7115
30687SOL     OW96516   4.420   7.771   5.208  0.1113  0.2990 -0.1177
30687SOL    HW196517   4.344   7.819   5.174 -0.1313 -0.2337 -0.3404
30687SOL    HW296518   4.398   7.679   5.193 -0.5448 -0.0465  2.5481
30688SOL     OW96519   5.690   5.395   8.870 -0.8574 -0.1713  0.8035
30688SOL    HW196520   5.721   5.305   8.859  1.8482  0.7680 -0.1495
30688SOL    HW296521   5.637   5.411   8.792  0.0897 -0.4450  0.0693
30689SOL     OW96522  10.425   3.301   7.404 -0.0671 -0.8792 -0.4231
30689SOL    HW196523  10.356   3.244   7.372 -2.1813  1.2159  0.0835
30689SOL    HW296524  10.449   3.264   7.489 -1.3311 -1.1167 -0.1393
30690SOL     OW96525  10.280   7.569   2.590  0.1416  0.3880  0.3533
30690SOL    HW196526  10.324   7.643   2.548 -2.2370  1.4047 -0.4831
30690SOL    HW296527  10.268   7.505   2.520 -0.1258  0.3152  0.4647
30691SOL     OW96528   8.642   1.782   0.656 -0.1779 -0.0295  0.1590
30691SOL    HW196529   8.666   1.875   0.661 -3.2185  0.8518  0.3035
30691SOL    HW296530   8.704   1.738   0.714  0.9885  1.9599  0.5181
30692SOL     OW96531   0.838   4.503   1.111  0.2017 -0.1370  0.0244
30692SOL    HW196532   0.783   4.504   1.032  1.0704  2.4644 -0.6436
30692SOL    HW296533   0.910   4.444   1.090 -0.0723 -0.2068 -0.7501
30693SOL     OW96534   0.341   9.717   6.029 -0.2770  0.3993 -0.4568
30693SOL    HW196535   0.384   9.760   5.955  0.4801  0.2797 -0.1013
30693SOL    HW296536   0.405   9.722   6.100 -0.6276 -0.2993 -0.0780
30694SOL     OW96537   9.727   6.082   9.691 -0.2707 -0.6949  1.1936
30694SOL    HW196538   9.794   6.128   9.740 -1.4708  0.3099  1.9397
30694SOL    HW296539   9.701   6.009   9.747  1.9747 -2.6973 -0.1910
30695SOL     OW96540   4.472   2.598   3.500  0.4984 -0.4193  0.6736
30695SOL    HW196541   4.519   2.641   3.571 -0.3090  1.2670  0.2453
30695SOL    HW296542   4.480   2.659   3.426 -0.0687 -1.3610 -0.1861
30696SOL     OW96543   3.350   6.838   6.820  0.0505 -0.0182 -0.1286
30696SOL    HW196544   3.327   6.768   6.881  0.1197  0.4373  0.4322
30696SOL    HW296545   3.266   6.866   6.783  0.2059 -2.2010 -2.4418
30697SOL     OW96546   2.413   8.230  10.913  0.3353  0.1284  0.2686
30697SOL    HW196547   2.349   8.159  10.911  1.2341 -0.7212  0.9483
30697SOL    HW296548   2.496   8.187  10.933  1.1613  1.1893 -0.7302
30698SOL     OW96549   1.696   9.293   0.105  0.2040  0.4121 -0.0358
30698SOL    HW196550   1.756   9.294   0.030  0.3492  0.3176  0.0784
30698SOL    HW296551   1.753   9.290   0.182  0.0524 -0.0812  0.0668
30699SOL     OW96552   2.763  10.746   5.545  0.1006 -0.5110  0.4238
30699SOL    HW196553   2.673  10.723   5.521  0.5774 -2.9557  0.7361
30699SOL    HW296554   2.814  10.731   5.465  0.4764 -0.8477  0.7222
30700SOL     OW96555   9.656   2.260   4.481 -0.4958  0.2307 -0.4604
30700SOL    HW196556   9.572   2.245   4.438  0.0563 -0.2882 -1.4033
30700SOL    HW296557   9.643   2.339   4.533 -2.4974 -1.5529  1.9602
30701SOL     OW96558   0.766   8.235   2.408  0.5765 -0.2473 -0.3320
30701SOL    HW196559   0.692   8.184   2.441  0.4671  0.7045  0.9474
30701SOL    HW296560   0.768   8.216   2.314 -0.7844 -0.9214 -0.2440
30702SOL     OW96561   1.131   6.424   9.912 -0.0528  0.6710  0.3727
30702SOL    HW196562   1.035   6.425   9.906 -0.1488 -2.9379 -0.9238
30702SOL    HW296563   1.149   6.421  10.006 -1.1357  1.6535  0.6475
30703SOL     OW96564   9.693   2.185   0.589 -0.2984 -0.3384 -0.3136
30703SOL    HW196565   9.698   2.181   0.493  0.5271  0.4477 -0.3254
30703SOL    HW296566   9.670   2.276   0.607 -0.4591 -0.4879  0.2308
30704SOL     OW96567   0.848   7.958   3.837 -0.4507  0.4016 -0.0869
30704SOL    HW196568   0.882   7.918   3.757 -0.6894 -0.6856  0.3317
30704SOL    HW296569   0.766   8.000   3.810 -0.3375  0.3629 -0.4903
30705SOL     OW96570   4.583   1.172   1.557  0.0573  0.0919 -0.2269
30705SOL    HW196571   4.536   1.163   1.640 -0.4581  0.9929 -0.4051
30705SOL    HW296572   4.635   1.092   1.550 -3.0615 -2.0460 -1.0772
30706SOL     OW96573   2.494   3.332   1.600 -0.2771 -0.0074  0.0070
30706SOL    HW196574   2.533   3.286   1.525  0.6985  2.7593 -1.3137
30706SOL    HW296575   2.420   3.380   1.563  1.0693  2.5480  0.4121
30707SOL     OW96576   1.243   6.485   4.503  0.0280  0.1797 -0.2233
30707SOL    HW196577   1.322   6.430   4.506  1.5210  2.1144 -1.0866
30707SOL    HW296578   1.200   6.471   4.587  3.2377  1.6711  1.8811
30708SOL     OW96579  10.344   9.694   0.783 -0.2854 -0.0791 -0.4007
30708SOL    HW196580  10.272   9.638   0.810 -0.9264  0.5661 -0.7416
30708SOL    HW296581  10.375   9.735   0.864 -0.0424 -0.6568 -0.2014
30709SOL     OW96582   0.088   5.399   8.794 -0.0499  0.2672  0.7377
30709SOL    HW196583   0.128   5.332   8.850  0.0003 -0.7240 -0.4357
30709SOL    HW296584   0.050   5.349   8.721  1.6014  1.6288 -1.1690
30710SOL     OW96585   2.343   3.221   2.312  0.0447 -0.0902 -0.6198
30710SOL    HW196586   2.415   3.176   2.268  3.4286  2.2461  2.0296
30710SOL    HW296587   2.343   3.309   2.274 -0.8478  0.2015  0.0258
30711SOL     OW96588   3.473   3.755   9.448  0.5492  0.6215  0.0249
30711SOL    HW196589   3.448   3.733   9.538  1.8910  0.3322  0.3482
30711SOL    HW296590   3.455   3.676   9.398 -0.6595  0.9394 -0.0771
30712SOL     OW96591   1.860   6.083   9.027  0.4109 -0.0475  0.1159
30712SOL    HW196592   1.771   6.111   9.051  0.7911  0.2870  1.2040
30712SOL    HW296593   1.869   5.996   9.066  0.8530  0.2811  0.7669
30713SOL     OW96594   2.074   8.018   4.046 -0.2975  0.7685 -0.5367
30713SOL    HW196595   2.167   8.038   4.035 -0.2374  0.7727 -0.0760
30713SOL    HW296596   2.042   7.998   3.958  1.0045 -2.9661 -0.3498
30714SOL     OW96597   8.318   8.516  10.317 -0.0849  0.4430  0.5777
30714SOL    HW196598   8.315   8.557  10.403 -1.1143 -0.9648  1.2588
30714SOL    HW296599   8.239   8.545  10.273  1.1760  2.3789 -0.5339
30715SOL     OW96600   0.907   2.976   2.093  0.5240 -0.2772  0.3022
30715SOL    HW196601   0.839   2.912   2.118  0.8525 -0.3128  1.1345
30715SOL    HW296602   0.906   2.975   1.997 -0.7066 -0.2181  0.2921
30716SOL     OW96603  10.253   4.550   8.341  0.1924 -0.1554 -0.0397
30716SOL    HW196604  10.343   4.549   8.308 -0.4734  1.2292 -2.1650
30716SOL    HW296605  10.215   4.468   8.310  0.9014 -1.1324  1.5734
30717SOL     OW96606   8.929  10.791   6.190 -0.2519 -0.5076  0.1867
30717SOL    HW196607   8.935  10.702   6.156  0.2238 -0.1122 -0.8075
30717SOL    HW296608   9.019  10.815   6.210 -0.2679  0.0458 -0.3641
30718SOL     OW96609   8.499   3.619   7.749  0.2009 -1.1388 -0.4423
30718SOL    HW196610   8.457   3.695   7.789 -1.7683 -1.0265 -2.5278
30718SOL    HW296611   8.590   3.625   7.778 -0.1625  1.2755  0.5071
30719SOL     OW96612   4.800   6.551   2.408 -0.0735  0.8704 -0.1907
30719SOL    HW196613   4.830   6.463   2.383 -0.5830  0.3562  0.9256
30719SOL    HW296614   4.706   6.549   2.390 -0.2419  0.8806  0.6789
30720SOL     OW96615   2.222  10.622   9.586 -0.1948  0.3074 -0.4777
30720SOL    HW196616   2.245  10.530   9.597 -1.1050  0.1272  0.0426
30720SOL    HW296617   2.142  10.620   9.534 -0.1071  0.8146 -0.6318
30721SOL     OW96618   7.645   9.514   1.848 -0.5784  0.2594 -0.0899
30721SOL    HW196619   7.636   9.501   1.942 -0.3094 -2.4319 -0.3602
30721SOL    HW296620   7.733   9.549   1.837 -0.3838  0.0205  0.6273
30722SOL     OW96621   1.866  10.764   2.574  0.1828  0.0621  0.4606
30722SOL    HW196622   1.902  10.677   2.588 -0.8169 -0.5566 -0.6517
30722SOL    HW296623   1.905  10.818   2.643 -0.9073 -1.7260  2.5843
30723SOL     OW96624   3.829   0.961   8.437 -0.3691  0.4834 -0.3154
30723SOL    HW196625   3.765   0.959   8.366  0.0056 -1.1393 -0.6477
30723SOL    HW296626   3.903   0.910   8.404 -0.1720 -0.2904  1.2207
30724SOL     OW96627   9.021   5.849   3.234  0.1792 -0.3092 -0.3281
30724SOL    HW196628   9.070   5.867   3.314  0.2457 -0.6529 -0.2887
30724SOL    HW296629   9.086   5.815   3.173  0.4427  1.4341 -1.0796
30725SOL     OW96630   6.059   1.119   9.277 -0.0736  0.3420 -0.2875
30725SOL    HW196631   6.079   1.077   9.361 -1.4038 -0.3555 -0.2922
30725SOL    HW296632   6.072   1.050   9.212  0.7302  0.8188 -0.6432
30726SOL     OW96633   0.088   7.554   7.887 -0.7242 -0.1964  0.2914
30726SOL    HW196634   0.063   7.636   7.844  1.6326  0.4927  0.0903
30726SOL    HW296635   0.183   7.559   7.895 -0.7948 -1.2940  3.5725
30727SOL     OW96636   2.819   7.725   8.874  0.0807 -0.3831 -0.2183
30727SOL    HW196637   2.760   7.780   8.820  0.0104  0.1303  0.3703
30727SOL    HW296638   2.791   7.636   8.855 -0.3987 -0.1781 -0.5249
30728SOL     OW96639   7.340  10.772   9.283  0.5086 -0.0180  0.2728
30728SOL    HW196640   7.246  10.783   9.267  0.5279 -0.4337 -0.1450
30728SOL    HW296641   7.381  10.845   9.236  0.3535  0.5780  1.0421
30729SOL     OW96642   1.729   4.092   1.104  0.8250  0.1043  0.0270
30729SOL    HW196643   1.726   4.184   1.128 -0.5281  0.1800 -0.3187
30729SOL    HW296644   1.772   4.049   1.177 -0.6363  0.7149  1.3127
30730SOL     OW96645   7.901   5.428   7.689 -0.3978  0.2513  0.1391
30730SOL    HW196646   7.971   5.454   7.629 -0.0543 -0.5203  0.2009
30730SOL    HW296647   7.938   5.442   7.776 -1.2946  2.5021  0.2442
30731SOL     OW96648   6.028   9.381   5.160 -0.0171  0.7878 -0.0810
30731SOL    HW196649   6.020   9.285   5.160  0.2288  0.7613 -1.0970
30731SOL    HW296650   6.123   9.396   5.159 -0.0576  1.0313 -0.9027
30732SOL     OW96651  11.001   6.462   5.491 -0.0874 -0.6443  0.0758
30732SOL    HW196652  11.077   6.422   5.448  0.4715  0.3527  0.1220
30732SOL    HW296653  10.993   6.414   5.574  0.9199 -0.2897  0.3828
30733SOL     OW96654   6.739   8.172   8.904 -0.5396 -0.7270  0.2523
30733SOL    HW196655   6.746   8.197   8.812 -2.5692 -2.2517 -0.3686
30733SOL    HW296656   6.805   8.103   8.915 -0.1105 -0.3605  0.0389
30734SOL     OW96657   4.183   1.122   8.777 -0.0703  0.2360 -0.4948
30734SOL    HW196658   4.206   1.030   8.786  0.5985  0.4480 -0.0179
30734SOL    HW296659   4.199   1.142   8.684  2.3546  0.5427 -0.0732
30735SOL     OW96660   7.146   3.040   7.110  0.4046  0.2889 -0.0523
30735SOL    HW196661   7.197   2.961   7.093  1.2244  0.5291  1.1877
30735SOL    HW296662   7.205   3.112   7.086 -0.2020  0.5573 -0.8156
30736SOL     OW96663   6.671   0.537   8.588 -0.0135 -0.1681  0.2997
30736SOL    HW196664   6.700   0.482   8.661 -0.4189 -2.5470 -1.2238
30736SOL    HW296665   6.576   0.537   8.594 -0.0064  1.3595  0.9105
30737SOL     OW96666   8.114  10.920   6.752 -0.1379  0.2309  0.1322
30737SOL    HW196667   8.177  10.980   6.711 -0.3367  1.9368  2.1915
30737SOL    HW296668   8.051  10.977   6.795 -1.0012 -1.4783  1.2335
30738SOL     OW96669   9.087   1.951   6.757  0.0318  0.2795  0.2987
30738SOL    HW196670   9.140   1.912   6.826  0.1506  1.1887  0.7335
30738SOL    HW296671   9.143   1.950   6.680 -0.4358 -1.6106 -0.0569
30739SOL     OW96672   6.777   9.384   9.879 -0.1695  0.0312 -0.5184
30739SOL    HW196673   6.718   9.312   9.855 -0.5556  0.1291  0.1036
30739SOL    HW296674   6.718   9.456   9.900  0.1820  0.2062 -0.1336
30740SOL     OW96675   0.292   6.286   8.120  0.4951  0.5952 -0.1505
30740SOL    HW196676   0.345   6.336   8.058  0.1870 -0.0224 -0.9285
30740SOL    HW296677   0.234   6.351   8.160  1.5838  1.2139  0.4492
30741SOL     OW96678   7.382   1.624   3.027  0.2498 -0.3277  0.2359
30741SOL    HW196679   7.464   1.610   2.981  0.0434  0.5155 -0.3927
30741SOL    HW296680   7.408   1.648   3.116  0.7358  1.3795 -0.3369
30742SOL     OW96681   2.576   1.501   6.639  0.0278  0.1320 -0.0200
30742SOL    HW196682   2.525   1.430   6.600  0.5411 -0.7497  0.8739
30742SOL    HW296683   2.662   1.462   6.657 -0.2399  0.4281  2.1428
30743SOL     OW96684   6.302   5.361   2.811 -0.4124 -0.1808 -0.1568
30743SOL    HW196685   6.345   5.275   2.817 -1.0816 -0.4802  0.5148
30743SOL    HW296686   6.370   5.423   2.837  0.2212 -0.4498 -1.1209
30744SOL     OW96687   8.478   6.679   3.754 -0.1718  0.3970  0.4242
30744SOL    HW196688   8.535   6.636   3.690 -0.4089 -0.5422  0.8254
30744SOL    HW296689   8.464   6.612   3.822 -1.2720  0.8150  0.6227
30745SOL     OW96690   1.465   4.802   7.405  0.0905 -0.2621 -0.1048
30745SOL    HW196691   1.454   4.752   7.486 -3.6865 -1.2144 -0.9851
30745SOL    HW296692   1.377   4.833   7.384  1.3214  1.8831 -2.6911
30746SOL     OW96693   7.753  10.585   4.528  0.7724  0.0609 -0.1979
30746SOL    HW196694   7.693  10.652   4.495 -0.8350 -1.9189 -1.5884
30746SOL    HW296695   7.758  10.520   4.457 -0.1629 -2.7616  2.1028
30747SOL     OW96696   3.536   7.551   1.625  0.1546 -0.0975 -0.4953
30747SOL    HW196697   3.512   7.634   1.667 -0.1238  0.1568 -1.1478
30747SOL    HW296698   3.608   7.518   1.679  0.5853  0.8002 -0.4948
30748SOL     OW96699   0.853   5.563   7.143 -0.3259  0.1752 -1.1551
30748SOL    HW196700   0.774   5.521   7.176 -0.2115  1.3323  0.7572
30748SOL    HW296701   0.905   5.492   7.107 -1.3937 -0.8812 -0.6762
30749SOL     OW96702   0.071   4.074  10.412 -0.4935  0.2815  0.1871
30749SOL    HW196703   0.134   4.024  10.360 -0.1029 -0.2460  1.1402
30749SOL    HW296704   0.045   4.146  10.354 -2.0379 -1.6692 -1.7163
30750SOL     OW96705   5.449   1.601   7.147 -0.0489  0.0435 -0.2979
30750SOL    HW196706   5.430   1.695   7.146 -0.5720 -0.0582 -0.2534
30750SOL    HW296707   5.363   1.559   7.148  0.1807 -0.4388 -0.3763
30751SOL     OW96708   1.998   6.080   4.973 -0.3705 -0.3054  0.0455
30751SOL    HW196709   2.073   6.099   4.917 -0.6583 -1.0628 -0.6109
30751SOL    HW296710   2.016   5.992   5.008 -0.3414  0.0292  0.9061
30752SOL     OW96711   8.676   1.453   6.259  0.2125  0.9548 -0.1452
30752SOL    HW196712   8.725   1.510   6.318  0.5905  1.3207 -0.8085
30752SOL    HW296713   8.691   1.365   6.293  1.3925  1.0497 -0.3745
30753SOL     OW96714  10.145   7.125   1.209 -0.1129 -0.1426 -0.2580
30753SOL    HW196715  10.109   7.070   1.139  0.3986 -2.1371  0.9738
30753SOL    HW296716  10.180   7.063   1.273  2.8863  1.6167  0.0122
30754SOL     OW96717   4.782  10.614   1.457 -0.0601 -0.0386 -0.3637
30754SOL    HW196718   4.818  10.526   1.458  1.8220  0.6920  0.6668
30754SOL    HW296719   4.805  10.649   1.371 -0.5199 -0.4214 -0.6479
30755SOL     OW96720  10.828   5.960   0.456  0.2001  0.5991  0.0099
30755SOL    HW196721  10.736   5.933   0.458  0.9428 -2.2836  1.9844
30755SOL    HW296722  10.862   5.923   0.375 -0.4359  2.0151 -0.9231
30756SOL     OW96723   6.266   1.723   0.849 -0.1221  0.1719  0.0105
30756SOL    HW196724   6.296   1.720   0.758  1.0447  2.7133  0.2391
30756SOL    HW296725   6.195   1.659   0.852  0.9076 -1.2197 -2.2425
30757SOL     OW96726   5.501   2.222   7.120  0.3282  0.1254 -0.4321
30757SOL    HW196727   5.542   2.222   7.207 -0.9519 -1.3719  0.2150
30757SOL    HW296728   5.548   2.155   7.071 -0.5166 -0.7420 -0.0820
30758SOL     OW96729   8.072   2.531   8.308 -0.1750 -0.0166 -0.1010
30758SOL    HW196730   8.116   2.588   8.244 -1.5361  1.5767  0.3160
30758SOL    HW296731   8.105   2.560   8.393 -1.5765  0.8650  0.1830
30759SOL     OW96732  10.868   4.724  10.347  0.1532  0.0013 -0.0326
30759SOL    HW196733  10.945   4.678  10.315  0.4314  0.2557  0.2669
30759SOL    HW296734  10.830   4.765  10.269 -0.0701 -0.6892 -0.2931
30760SOL     OW96735   0.937   8.643   6.489  0.3781  0.3175  0.3012
30760SOL    HW196736   0.861   8.667   6.437  0.2734 -0.6655 -0.0200
30760SOL    HW296737   0.923   8.551   6.511  1.5123  0.1022  0.1758
30761SOL     OW96738   1.056   1.800   1.361  0.4000 -0.1057  0.2684
30761SOL    HW196739   1.092   1.765   1.280  1.3667 -1.7147  1.3509
30761SOL    HW296740   1.128   1.796   1.424 -1.1860 -2.0929  2.1101
30762SOL     OW96741   9.929   5.635   8.626  0.5626  0.1612 -0.6742
30762SOL    HW196742   9.925   5.731   8.630  0.3148  0.1374 -0.3247
30762SOL    HW296743   9.858   5.606   8.682 -0.3264 -0.2266 -1.9607
30763SOL     OW96744   4.070   1.293   7.562  0.1414 -0.4638 -0.7550
30763SOL    HW196745   4.135   1.222   7.557  0.9001  0.0765  0.6425
30763SOL    HW296746   4.123   1.373   7.566 -0.6672  0.0947 -1.0541
30764SOL     OW96747   7.889   1.152   7.038  0.5012  0.8240 -0.1423
30764SOL    HW196748   7.819   1.114   7.091  1.2138  0.3169  0.4399
30764SOL    HW296749   7.964   1.094   7.050  1.4459  2.0939  0.3211
30765SOL     OW96750   3.651   9.002   3.762  0.5578 -0.3421  0.5575
30765SOL    HW196751   3.669   9.068   3.695  1.4185 -0.9741  0.1489
30765SOL    HW296752   3.573   9.035   3.807  0.1365  0.2499 -0.5512
30766SOL     OW96753   9.870   3.563   8.869  0.0673 -0.0571 -0.0289
30766SOL    HW196754   9.847   3.606   8.787  0.6265  0.6023  0.1498
30766SOL    HW296755   9.953   3.518   8.850 -0.8800 -1.7228 -0.4329
30767SOL     OW96756   2.202   6.723   5.041  0.7249  0.2544 -0.3470
30767SOL    HW196757   2.161   6.673   5.111 -0.6486  1.2314 -0.4204
30767SOL    HW296758   2.140   6.718   4.969  1.8559 -0.2471 -1.3211
30768SOL     OW96759   3.210   2.824   7.999  0.3890 -0.2041  0.3494
30768SOL    HW196760   3.285   2.769   7.977  1.2504  0.9579  0.2785
30768SOL    HW296761   3.231   2.861   8.085  0.5854  1.2394 -0.2883
30769SOL     OW96762   9.318   0.984   2.632  0.2406 -0.4508 -0.2373
30769SOL    HW196763   9.388   0.918   2.637  0.4662 -0.2095 -0.2004
30769SOL    HW296764   9.252   0.954   2.694  0.0147 -1.0308 -0.7439
30770SOL     OW96765  10.813   8.360   0.694  0.4118 -0.4379 -0.3645
30770SOL    HW196766  10.734   8.308   0.686  1.0320 -1.2822 -1.3106
30770SOL    HW296767  10.784   8.450   0.676 -0.5326 -0.5454  0.5397
30771SOL     OW96768   4.361  11.072   7.344  0.0121 -0.2479  0.7628
30771SOL    HW196769   4.349  11.105   7.433  0.1809  0.6230  0.4724
30771SOL    HW296770   4.403  11.144   7.297 -0.6870 -0.4423 -0.1937
30772SOL     OW96771   9.837   0.261   9.205 -0.0061  0.1819 -0.4800
30772SOL    HW196772   9.821   0.356   9.204  1.8480  0.5676  0.6445
30772SOL    HW296773   9.928   0.252   9.178 -0.1663 -1.3011 -0.5852
30773SOL     OW96774   6.648   9.595  10.003 -0.2517  0.3313 -0.2245
30773SOL    HW196775   6.655   9.630  10.092 -1.2459  0.5159 -0.2041
30773SOL    HW296776   6.557   9.567   9.996 -0.4928  1.3735 -1.5609
30774SOL     OW96777  10.005  10.912   9.979  0.1099 -0.5035 -0.0754
30774SOL    HW196778   9.934  10.897  10.041 -0.9486 -3.6758 -1.8245
30774SOL    HW296779   9.981  10.992   9.932 -1.7053 -0.8441  0.2125
30775SOL     OW96780   7.270   4.990   0.301 -0.0523 -0.7598  0.2553
30775SOL    HW196781   7.299   4.924   0.363 -0.5733 -0.6626  0.6122
30775SOL    HW296782   7.175   4.990   0.309 -0.0419  0.3525  0.6088
30776SOL     OW96783   0.635   1.293   6.679  0.3204  0.5560  0.3290
30776SOL    HW196784   0.566   1.331   6.624 -1.1926 -2.5881 -0.1784
30776SOL    HW296785   0.667   1.217   6.628  1.0098 -0.6681  2.4686
30777SOL     OW96786   1.568  10.261   8.953 -0.7482 -0.6423  0.0963
30777SOL    HW196787   1.528  10.335   8.998  1.4816  0.9830 -0.3757
30777SOL    HW296788   1.637  10.301   8.899  0.7954 -3.0832  0.0925
30778SOL     OW96789   4.235   0.973   7.975  0.4003 -0.1397 -0.1393
30778SOL    HW196790   4.181   1.048   7.948  0.5227  0.4014  1.0528
30778SOL    HW296791   4.307   0.972   7.913  0.1564  0.4639 -0.4427
30779SOL     OW96792   2.473   5.302   1.466  0.5499 -0.6132 -0.0423
30779SOL    HW196793   2.479   5.227   1.406 -1.2358 -1.3471  0.6166
30779SOL    HW296794   2.418   5.271   1.538  1.1845  0.8105  1.1144
30780SOL     OW96795   1.889   1.689   0.634 -0.3698  0.7171 -0.3007
30780SOL    HW196796   1.944   1.722   0.563 -0.5320  1.0815 -0.2650
30780SOL    HW296797   1.948   1.678   0.708 -0.2675  0.6937 -0.3862
30781SOL     OW96798   6.908   7.401   1.376 -0.1449  0.1228 -0.3114
30781SOL    HW196799   6.953   7.318   1.363  2.3025  1.2904 -0.0486
30781SOL    HW296800   6.845   7.407   1.304 -0.1663 -1.7933 -0.4925
30782SOL     OW96801   1.297  10.211   4.771 -0.0291 -0.1699 -0.8508
30782SOL    HW196802   1.342  10.127   4.783 -0.8253 -0.4615  0.2695
30782SOL    HW296803   1.368  10.275   4.762  0.6089 -1.1219 -3.3900
30783SOL     OW96804   6.840   0.386   8.411  0.1171 -0.1575 -0.6865
30783SOL    HW196805   6.833   0.413   8.320  1.1054  1.2461 -0.3756
30783SOL    HW296806   6.770   0.434   8.456  0.1246 -0.2545 -0.5686
30784SOL     OW96807   2.030   0.678   5.363 -0.4148 -0.0789  0.4629
30784SOL    HW196808   2.102   0.713   5.415 -1.8808  1.2728  1.6945
30784SOL    HW296809   2.056   0.695   5.272  1.5188 -1.1234  0.7698
30785SOL     OW96810   0.805   5.832   2.369  0.3048 -0.0915  0.4479
30785SOL    HW196811   0.810   5.809   2.277 -0.3176  0.4175  0.2762
30785SOL    HW296812   0.758   5.759   2.410  0.9405 -0.5100  0.4418
30786SOL     OW96813  10.282   1.203   5.292  0.2336  0.1334 -0.0057
30786SOL    HW196814  10.198   1.208   5.248  0.7356  1.2166 -0.8714
30786SOL    HW296815  10.277   1.122   5.343 -0.7273 -0.6509 -1.2832
30787SOL     OW96816  10.207   9.918  10.526 -0.0010 -0.3549  0.2003
30787SOL    HW196817  10.146   9.988  10.501  0.1026  0.1237  1.2372
30787SOL    HW296818  10.190   9.848  10.463 -1.6121 -0.2351  0.4498
30788SOL     OW96819   0.148   3.738   8.800 -0.3098  0.4286  0.0559
30788SOL    HW196820   0.209   3.664   8.807 -1.8774 -0.7330  4.1274
30788SOL    HW296821   0.198   3.812   8.834 -0.9099 -0.5034  3.3147
30789SOL     OW96822   7.804  10.163   2.031 -0.4230 -0.3023  0.0152
30789SOL    HW196823   7.728  10.220   2.027 -1.5640 -1.7584  0.1151
30789SOL    HW296824   7.780  10.094   2.093  0.9270 -0.8797 -0.0494
30790SOL     OW96825   1.040   1.096   0.642  0.1694 -0.0387 -0.6027
30790SOL    HW196826   1.111   1.119   0.702  0.2101  0.8981 -0.9922
30790SOL    HW296827   1.072   1.018   0.596 -0.0880 -1.1007  0.9475
30791SOL     OW96828   1.559   0.863  10.683 -0.5059  0.4467  0.3046
30791SOL    HW196829   1.578   0.948  10.722  0.5949 -0.2500  1.3717
30791SOL    HW296830   1.475   0.875  10.639 -2.4413  1.0756  3.7542
30792SOL     OW96831   2.404   9.683   2.761 -0.7523  0.6723  0.1993
30792SOL    HW196832   2.424   9.594   2.791  0.0081  0.8111  0.1099
30792SOL    HW296833   2.313   9.678   2.732 -0.3635 -0.3863 -0.9280
30793SOL     OW96834   6.615   6.689   6.831  0.1966  0.6190  1.0637
30793SOL    HW196835   6.534   6.650   6.800  0.1358  1.4153  0.1436
30793SOL    HW296836   6.683   6.650   6.776  0.3594  0.3879  1.4314
30794SOL     OW96837   1.855   6.296   7.213  0.1429 -0.1286 -0.7441
30794SOL    HW196838   1.859   6.385   7.250 -0.4695  0.5047 -2.1269
30794SOL    HW296839   1.894   6.240   7.280  3.1678  1.5368 -0.9399
30795SOL     OW96840   7.085   8.928   2.287 -0.2827 -0.5957  0.6879
30795SOL    HW196841   7.062   8.887   2.203 -0.1508 -2.3785  1.4812
30795SOL    HW296842   7.012   8.907   2.345  0.1181 -0.2879  1.3134
30796SOL     OW96843   3.160   5.983   5.957 -0.0115  0.2824 -0.4840
30796SOL    HW196844   3.094   5.952   6.019  0.1797  1.2643  0.2420
30796SOL    HW296845   3.156   6.078   5.964  0.8605  0.3733 -1.0843
30797SOL     OW96846   1.419   0.548   6.775 -0.0837 -0.1003 -0.4932
30797SOL    HW196847   1.326   0.532   6.759 -0.5044  0.5918  1.0623
30797SOL    HW296848   1.464   0.504   6.702 -1.5352 -1.6731 -0.5102
30798SOL     OW96849   5.258  10.547   5.252 -0.0740  0.3961  0.2690
30798SOL    HW196850   5.240  10.615   5.187 -0.4213  0.4791  0.4516
30798SOL    HW296851   5.354  10.540   5.252 -0.1239 -1.5596 -2.2473
30799SOL     OW96852   1.678   3.019   6.292 -0.4565 -0.2662 -0.2307
30799SOL    HW196853   1.739   3.055   6.227 -0.9936 -0.7693 -1.0244
30799SOL    HW296854   1.730   2.955   6.340 -0.2060 -0.2942 -0.5350
30800SOL     OW96855   8.168   7.905   0.328 -0.4498 -0.0800 -0.3643
30800SOL    HW196856   8.085   7.901   0.281 -1.6561 -0.3137  1.6583
30800SOL    HW296857   8.146   7.947   0.411  1.1609 -1.4213  0.7932
30801SOL     OW96858   3.168   2.002   0.317  0.0708 -0.6663  0.1116
30801SOL    HW196859   3.232   2.050   0.370 -0.6027 -1.1437  1.4100
30801SOL    HW296860   3.206   2.001   0.229 -0.2781  2.9811 -0.2399
30802SOL     OW96861  10.462   7.820  10.727  0.2094 -0.0555 -0.3566
30802SOL    HW196862  10.508   7.839  10.645 -0.4174  4.4341  0.0817
30802SOL    HW296863  10.531   7.794  10.788  1.2841  0.5757 -1.2665
30803SOL     OW96864   2.471   8.218   9.350  0.0420  0.0984  0.7451
30803SOL    HW196865   2.387   8.239   9.392  1.4731  1.8474  2.9765
30803SOL    HW296866   2.471   8.271   9.270 -1.5270 -1.0544 -0.0833
30804SOL     OW96867  10.718   6.757   8.695 -0.0888  0.3327  0.3858
30804SOL    HW196868  10.766   6.675   8.708 -1.6174 -0.3356  2.2713
30804SOL    HW296869  10.744   6.786   8.607  3.7636  0.0973  1.2566
30805SOL     OW96870   7.840   5.520   4.011 -0.7114  0.6282 -0.2239
30805SOL    HW196871   7.776   5.553   3.947 -1.2578  1.7512  0.8598
30805SOL    HW296872   7.789   5.500   4.088  0.1312  0.6712  0.3607
30806SOL     OW96873   4.452   3.660   0.902  0.1197  0.2563  0.2313
30806SOL    HW196874   4.433   3.569   0.923  0.1064  0.0646 -0.5522
30806SOL    HW296875   4.385   3.684   0.837 -0.2353  1.0070  0.8633
30807SOL     OW96876   6.082   2.228   9.775 -0.3859 -0.1987 -0.5378
30807SOL    HW196877   6.026   2.248   9.700  0.1684  2.0315 -0.4094
30807SOL    HW296878   6.167   2.266   9.752 -0.3725  1.1265  1.4720
30808SOL     OW96879   5.239   2.014   0.791  0.5231 -0.3481  0.7026
30808SOL    HW196880   5.209   1.926   0.772 -1.8352  0.4766  0.2472
30808SOL    HW296881   5.220   2.064   0.711  1.1097  0.7498  1.2186
30809SOL     OW96882   8.200   2.128  10.676  0.1120 -0.9063  0.1899
30809SOL    HW196883   8.144   2.075  10.620  0.0251 -0.5023 -0.1096
30809SOL    HW296884   8.289   2.105  10.650  0.0939 -1.7015  0.8082
30810SOL     OW96885  10.993  10.928   0.902 -0.4731 -0.1796 -0.3967
30810SOL    HW196886  10.975  10.850   0.954  2.7322 -0.1230  1.0499
30810SOL    HW296887  11.028  10.894   0.819  0.2451 -0.3182 -0.0461
30811SOL     OW96888   7.133   4.359   5.120  0.1762 -0.4195 -0.2828
30811SOL    HW196889   7.123   4.350   5.025  0.1582 -0.1219 -0.3110
30811SOL    HW296890   7.061   4.415   5.147 -0.2030 -1.0352  0.0058
30812SOL     OW96891   0.823   3.431   6.491 -0.1734 -0.5429 -0.1545
30812SOL    HW196892   0.815   3.522   6.519 -0.9645 -1.0214  1.2715
30812SOL    HW296893   0.742   3.389   6.522  0.1646 -1.7284 -0.8024
30813SOL     OW96894   7.382   0.246   8.502  0.4651 -0.8393 -0.2504
30813SOL    HW196895   7.464   0.272   8.543  1.0907  0.4964 -2.1854
30813SOL    HW296896   7.317   0.307   8.536  0.4424 -1.3410  0.6216
30814SOL     OW96897   8.717   2.879   5.723 -0.0372 -0.1068 -0.1453
30814SOL    HW196898   8.800   2.911   5.689  0.7703 -1.2712  0.6588
30814SOL    HW296899   8.711   2.788   5.692 -1.0005 -0.0517 -0.1687
30815SOL     OW96900   7.906   1.932   5.877 -0.4309 -0.1948 -0.1310
30815SOL    HW196901   7.832   1.988   5.900 -0.0541 -0.5203  2.1235
30815SOL    HW296902   7.907   1.864   5.945  0.4480 -1.6677 -1.5344
30816SOL     OW96903   4.206  10.010   1.638  0.3465  0.2904  0.9238
30816SOL    HW196904   4.264  10.080   1.669 -0.7743  1.0414  1.3576
30816SOL    HW296905   4.146   9.994   1.710 -0.4102 -0.0247  0.2439
30817SOL     OW96906  10.816   9.568   4.289  0.0209  0.2051  0.3991
30817SOL    HW196907  10.817   9.617   4.207 -0.8877 -0.2346  0.1112
30817SOL    HW296908  10.752   9.614   4.343 -1.2980 -0.9817 -0.0973
30818SOL     OW96909   5.954   3.757   6.111  0.6654  0.1378  0.2911
30818SOL    HW196910   5.926   3.848   6.110  1.5442  0.4265 -1.3284
30818SOL    HW296911   6.047   3.760   6.132  1.2675 -0.1418 -2.0377
30819SOL     OW96912   8.241   5.902   2.765 -0.2610 -0.4670 -0.3307
30819SOL    HW196913   8.170   5.966   2.769 -0.5889 -0.8835  1.1101
30819SOL    HW296914   8.208   5.833   2.707 -0.4748 -0.0060 -0.7633
30820SOL     OW96915   5.869   5.148   6.539 -0.5550  0.2678  0.5845
30820SOL    HW196916   5.903   5.184   6.457 -1.5823 -1.2903 -0.5807
30820SOL    HW296917   5.811   5.216   6.574 -2.0674  0.0186 -1.2919
30821SOL     OW96918  10.328   2.406   3.109 -0.0522  0.1339 -0.5006
30821SOL    HW196919  10.401   2.373   3.055  0.7332 -0.0220  0.6274
30821SOL    HW296920  10.249   2.377   3.062  0.5922 -2.1183 -0.3261
30822SOL     OW96921   0.355  10.830   9.300  0.0693  0.5950 -0.5166
30822SOL    HW196922   0.279  10.832   9.242  0.1728 -0.8110 -0.7404
30822SOL    HW296923   0.419  10.776   9.254  1.1154  1.5511 -0.2100
30823SOL     OW96924   3.310   0.917   9.532  0.4550 -0.5525 -0.2823
30823SOL    HW196925   3.316   0.984   9.463 -2.2379  1.2603  1.0476
30823SOL    HW296926   3.283   0.838   9.486  1.7392 -0.2316 -1.6663
30824SOL     OW96927   9.349   2.405  10.147 -0.1174  0.1004  0.1559
30824SOL    HW196928   9.390   2.491  10.135  1.5916 -0.6343  0.3754
30824SOL    HW296929   9.352   2.365  10.060  0.6621 -0.3719  0.3891
30825SOL     OW96930   2.179   8.552   3.204 -0.0301  0.6206  0.0994
30825SOL    HW196931   2.200   8.603   3.125 -0.7830 -0.5557 -0.9037
30825SOL    HW296932   2.263   8.519   3.235  0.1605  0.0344 -0.9839
30826SOL     OW96933   0.581   5.574   6.308  0.0062 -0.1603  0.5874
30826SOL    HW196934   0.508   5.622   6.347 -0.2419  0.1000 -0.1641
30826SOL    HW296935   0.541   5.495   6.271 -0.6190  1.5763 -2.9049
30827SOL     OW96936   5.275  10.404   7.676  0.5295  0.2178  0.3547
30827SOL    HW196937   5.290  10.344   7.603  2.0468  0.8129  0.1477
30827SOL    HW296938   5.181  10.424   7.672  0.4987 -0.1444 -1.1304
30828SOL     OW96939  10.696   6.701   6.061 -0.4024  0.4210  0.5543
30828SOL    HW196940  10.681   6.793   6.037  0.7397  0.4551 -0.1034
30828SOL    HW296941  10.629   6.653   6.012  1.1396  0.6083 -1.9081
30829SOL     OW96942   2.777   4.001   6.734 -0.0683 -0.5196  0.0248
30829SOL    HW196943   2.709   3.963   6.679 -0.1738  0.4691 -0.5436
30829SOL    HW296944   2.734   4.011   6.820 -0.6317  0.0687 -0.3193
30830SOL     OW96945   2.747   1.978   8.478 -0.1341 -0.2891  0.1201
30830SOL    HW196946   2.744   1.883   8.491  0.4524 -0.1326  1.6151
30830SOL    HW296947   2.841   1.999   8.478 -0.2257  0.2216 -0.9701
30831SOL     OW96948   9.816   5.179   0.284 -0.1086 -0.0629 -0.0694
30831SOL    HW196949   9.765   5.129   0.220 -0.0881  1.3575 -1.2604
30831SOL    HW296950   9.750   5.215   0.344 -0.5048  1.2248 -1.2166
30832SOL     OW96951  10.149   7.900   5.258 -0.2850  0.2046  0.6167
30832SOL    HW196952  10.154   7.908   5.162 -1.4767 -0.6894  0.4612
30832SOL    HW296953  10.217   7.837   5.280 -0.3701 -0.0008  0.2972
30833SOL     OW96954   1.893   2.985   2.035 -0.1557 -0.2832  0.0482
30833SOL    HW196955   1.821   2.956   1.978 -0.3389  1.5171 -0.7082
30833SOL    HW296956   1.969   2.935   2.004 -0.9114 -1.7450  0.4320
30834SOL     OW96957   4.288   4.033   9.703  0.0058  0.2090 -0.1981
30834SOL    HW196958   4.292   3.956   9.646  0.6216  1.1043 -1.3740
30834SOL    HW296959   4.194   4.047   9.716 -0.1246 -0.4652 -0.3294
30835SOL     OW96960   7.128   8.412   7.634 -0.0934 -0.5757  0.4750
30835SOL    HW196961   7.058   8.370   7.683 -1.8590 -0.4721 -1.7648
30835SOL    HW296962   7.184   8.340   7.605  0.9696 -0.6331  2.5089
30836SOL     OW96963   8.471   9.098  10.312  0.1623 -0.3586 -0.3849
30836SOL    HW196964   8.425   9.120  10.231  0.3747 -1.2743 -0.7721
30836SOL    HW296965   8.535   9.031  10.286 -0.5055 -1.4720  0.7129
30837SOL     OW96966  10.456   8.079   5.627 -0.4341  0.1950  0.1300
30837SOL    HW196967  10.438   8.139   5.699 -1.6228 -0.6834  0.5999
30837SOL    HW296968  10.519   8.016   5.662  0.7302  1.0761 -0.3296
30838SOL     OW96969   6.420   3.083   6.524 -0.4529 -0.1660  0.2742
30838SOL    HW196970   6.369   3.017   6.477  0.7663 -0.3684 -0.8253
30838SOL    HW296971   6.432   3.153   6.461  0.0064  0.1948  0.7552
30839SOL     OW96972   3.803   9.692   2.672  0.5191  0.0292  0.0796
30839SOL    HW196973   3.838   9.717   2.758 -0.9434  1.1542  0.3929
30839SOL    HW296974   3.853   9.743   2.609  1.0355 -0.1617  0.3338
30840SOL     OW96975   3.136   2.569   8.239 -0.1475 -0.0241  0.0120
30840SOL    HW196976   3.099   2.562   8.151 -2.7449  0.0266  0.9947
30840SOL    HW296977   3.066   2.610   8.291  0.7705 -1.2504  2.3757
30841SOL     OW96978   2.755   2.781   5.043  0.4215  0.1375 -0.3817
30841SOL    HW196979   2.769   2.755   5.134  1.1813 -0.0549 -0.5470
30841SOL    HW296980   2.706   2.863   5.048  0.2491  0.0033  0.1893
30842SOL     OW96981   7.686   3.774   6.386 -0.3848 -0.1165 -0.0215
30842SOL    HW196982   7.601   3.732   6.381  0.6665 -2.2699 -1.6466
30842SOL    HW296983   7.692   3.827   6.306 -0.1219 -0.1857 -0.0515
30843SOL     OW96984   2.887   1.839   0.341 -0.2831  0.3138 -0.0279
30843SOL    HW196985   2.982   1.833   0.352 -0.3356 -0.5558  0.0503
30843SOL    HW296986   2.865   1.928   0.368  0.6279  0.8463 -0.9260
30844SOL     OW96987   5.599   1.794   7.555 -0.6726  0.4095 -0.2036
30844SOL    HW196988   5.527   1.818   7.497  0.2354  1.3352 -0.9862
30844SOL    HW296989   5.570   1.821   7.642 -1.0525  1.2745 -0.5907
30845SOL     OW96990   3.719   7.946   7.230  0.5328 -0.3893 -0.1124
30845SOL    HW196991   3.770   7.938   7.310 -0.8593 -0.6491  0.7943
30845SOL    HW296992   3.751   8.027   7.189 -1.1153  1.8396  2.5869
30846SOL     OW96993   1.258   7.788   0.700  0.0679  0.7227  0.2977
30846SOL    HW196994   1.219   7.807   0.785 -1.5097  0.6035 -0.3600
30846SOL    HW296995   1.233   7.863   0.645  2.8268  1.8559  0.4212
30847SOL     OW96996   2.466   7.360   3.377  0.5695 -0.6226  0.1136
30847SOL    HW196997   2.470   7.358   3.473  1.1915 -1.4946  0.0791
30847SOL    HW296998   2.555   7.382   3.350  0.3003  0.0305 -0.2656
30848SOL     OW96999   1.277   1.337   3.189 -0.0750 -0.4464 -0.1246
30848SOL    HW197000   1.201   1.382   3.225  0.7483  0.8992  0.0050
30848SOL    HW297001   1.244   1.295   3.109 -1.2541 -1.0766  0.6624
30849SOL     OW97002   2.434   7.423   2.719 -0.4911  0.0503 -0.4455
30849SOL    HW197003   2.340   7.438   2.733 -0.7019 -0.1530 -1.5258
30849SOL    HW297004   2.449   7.449   2.628  0.2867 -0.9153 -0.6105
30850SOL     OW97005  10.783   3.385   9.743 -0.0725 -0.4443 -0.1665
30850SOL    HW197006  10.866   3.432   9.750 -0.3330 -0.1472  1.3340
30850SOL    HW297007  10.805   3.294   9.763 -0.3957 -0.0257  2.3465
30851SOL     OW97008   8.086   8.589  10.128 -0.0808 -0.2921 -0.0425
30851SOL    HW197009   8.079   8.494  10.140  1.4665 -0.4267 -0.0397
30851SOL    HW297010   8.021   8.609  10.061  1.3126 -1.7717 -1.9431
30852SOL     OW97011   3.643   3.650  10.987  0.5312 -0.1160 -0.2044
30852SOL    HW197012   3.713   3.654  10.921  0.0484  0.2662 -0.7004
30852SOL    HW297013   3.684   3.686  11.066  0.2974  2.2305 -1.0493
30853SOL     OW97014   8.563   3.612   5.948  0.2975  0.1329  0.1872
30853SOL    HW197015   8.624   3.686   5.943  1.4528 -0.6655  1.8739
30853SOL    HW297016   8.478   3.651   5.926  1.1107  1.6339 -0.4962
30854SOL     OW97017  10.383   6.215   3.618 -0.1723  0.2737  0.1366
30854SOL    HW197018  10.347   6.216   3.530  3.8373 -1.0997 -1.7786
30854SOL    HW297019  10.353   6.132   3.655 -0.5624  0.0891 -0.5728
30855SOL     OW97020   5.702   0.124  10.530  0.0099  0.2299  0.4583
30855SOL    HW197021   5.740   0.057  10.588 -0.0542  0.4001  0.7010
30855SOL    HW297022   5.755   0.202  10.547  0.0579  0.2510  0.2060
30856SOL     OW97023   5.225  11.011   8.888  0.0315  0.3542  0.4317
30856SOL    HW197024   5.305  10.971   8.922  0.1567  0.5852  0.4064
30856SOL    HW297025   5.154  10.970   8.938 -0.0187 -1.4905 -1.0357
30857SOL     OW97026   0.715   3.433  10.560 -0.6458  0.9637  0.2405
30857SOL    HW197027   0.735   3.463  10.471  0.9351  0.0646  0.2443
30857SOL    HW297028   0.620   3.425  10.562 -0.7603  1.6251 -1.1676
30858SOL     OW97029  10.922   7.190   5.096  0.5027 -0.3774  0.2060
30858SOL    HW197030  10.855   7.195   5.028  0.3664  0.5599  0.3975
30858SOL    HW297031  11.005   7.184   5.048  0.3952  0.1173 -0.0423
30859SOL     OW97032   1.170   3.826   0.885 -0.4148 -0.2304  0.1967
30859SOL    HW197033   1.263   3.804   0.881 -0.5588 -0.6965 -0.7206
30859SOL    HW297034   1.141   3.790   0.969  0.0466 -0.8345  0.1055
30860SOL     OW97035   9.591   3.784   4.590  0.7953 -0.8267  0.2341
30860SOL    HW197036   9.612   3.853   4.653  0.0411 -0.7919  0.4516
30860SOL    HW297037   9.674   3.739   4.576  1.2372 -0.0483  0.2939
30861SOL     OW97038   6.237   8.466   4.579  0.0921  0.6438  0.1648
30861SOL    HW197039   6.199   8.390   4.624  1.1939 -0.8900 -1.3742
30861SOL    HW297040   6.294   8.506   4.644 -1.7446  1.1928  1.5357
30862SOL     OW97041   7.303   4.463   0.695  0.3054 -0.3197 -0.3126
30862SOL    HW197042   7.315   4.431   0.606  0.8321  1.9164 -1.0916
30862SOL    HW297043   7.259   4.547   0.685 -0.5738 -0.4974  1.6118
30863SOL     OW97044   9.851  10.953   7.500 -0.2421 -0.0905  0.1022
30863SOL    HW197045   9.945  10.936   7.512 -0.0734  1.2569  0.8490
30863SOL    HW297046   9.812  10.930   7.585 -0.1884  1.8034  0.6913
30864SOL     OW97047   5.534   3.152   8.436  0.3342 -0.1337 -0.0875
30864SOL    HW197048   5.459   3.115   8.483  0.5098 -2.0909 -1.2538
30864SOL    HW297049   5.540   3.242   8.468 -1.3613 -0.4906  1.4027
30865SOL     OW97050   7.244   7.720   0.766 -0.5552  0.0689 -0.0788
30865SOL    HW197051   7.332   7.687   0.781 -1.5147 -1.8525  2.0622
30865SOL    HW297052   7.193   7.642   0.742 -1.9365  0.8657  0.1378
30866SOL     OW97053   0.045   9.672   6.547 -0.4961  0.0356 -0.0418
30866SOL    HW197054   0.109   9.651   6.479 -0.6540  0.2780 -0.2648
30866SOL    HW297055  -0.038   9.640   6.513 -0.6931  0.7607 -0.2652
30867SOL     OW97056   9.991   0.527  10.386  0.3982  0.3592 -0.2696
30867SOL    HW197057  10.038   0.597  10.341  0.3536  0.1946 -0.5712
30867SOL    HW297058   9.933   0.572  10.447 -0.0084  0.6000 -0.8333
30868SOL     OW97059   4.866   6.775   5.295  0.3416 -0.0530  0.2462
30868SOL    HW197060   4.884   6.842   5.229 -0.2267 -1.7170 -1.6976
30868SOL    HW297061   4.951   6.755   5.332  1.3205 -1.4262 -2.4361
30869SOL     OW97062   5.874   7.084  10.368  0.0787 -0.5404 -0.5677
30869SOL    HW197063   5.933   7.043  10.304  0.9848 -0.6501  0.3131
30869SOL    HW297064   5.872   7.022  10.441  1.8945  1.1309  1.0362
30870SOL     OW97065   5.392   2.297   4.302 -0.1178  0.0660  0.2594
30870SOL    HW197066   5.432   2.374   4.341 -0.0505  1.7498 -2.8490
30870SOL    HW297067   5.465   2.238   4.285  0.2582  0.6001 -0.0035
30871SOL     OW97068   1.085   0.101   2.276 -0.3161 -0.5188 -0.3538
30871SOL    HW197069   1.081   0.196   2.267 -0.1360 -0.3292  1.2869
30871SOL    HW297070   1.174   0.083   2.305 -0.0333 -1.3069 -1.6131
30872SOL     OW97071   8.135   1.148   3.250  0.1571 -0.0104  0.5978
30872SOL    HW197072   8.133   1.210   3.176  4.8089 -0.2923 -0.0268
30872SOL    HW297073   8.074   1.079   3.223  0.8215  0.4317 -2.4950
30873SOL     OW97074   3.202   9.206  10.903 -0.1603 -0.0100  0.3854
30873SOL    HW197075   3.151   9.126  10.889 -0.6044 -0.3328  3.3044
30873SOL    HW297076   3.138   9.277  10.901  0.3067  0.4910 -2.8124
30874SOL     OW97077   3.203   4.608   8.002 -0.3690 -0.3750 -0.5257
30874SOL    HW197078   3.228   4.692   8.040  1.7240 -2.4795  3.4133
30874SOL    HW297079   3.235   4.612   7.912  0.3598  2.7402 -0.2501
30875SOL     OW97080   1.987   0.309   7.015 -0.5144  0.4235  0.0211
30875SOL    HW197081   1.922   0.265   7.070 -0.9528 -0.2975 -1.0555
30875SOL    HW297082   1.939   0.382   6.976  0.0904  1.6368  1.4384
30876SOL     OW97083   2.333  10.227   6.001  0.1010 -0.0256  0.3405
30876SOL    HW197084   2.371  10.176   6.074 -0.6125 -0.5272  0.3707
30876SOL    HW297085   2.406  10.237   5.939  0.6196  0.0965  0.9518
30877SOL     OW97086   2.653   1.307   9.163 -0.0881  0.3569  0.6171
30877SOL    HW197087   2.593   1.376   9.134 -0.1857  0.4790  1.1059
30877SOL    HW297088   2.689   1.339   9.245  0.7423  0.3288  0.2666
30878SOL     OW97089   1.979   4.032   3.382  0.0238  0.1044 -0.0973
30878SOL    HW197090   1.947   4.109   3.428 -3.0590 -1.4616  0.6573
30878SOL    HW297091   1.930   4.030   3.300 -1.0728 -1.7672  0.5415
30879SOL     OW97092   6.288   0.707   0.046  0.4304 -0.2083 -0.0625
30879SOL    HW197093   6.369   0.723   0.095 -0.2728  2.0152  0.5017
30879SOL    HW297094   6.287   0.775  -0.021 -1.0594 -0.0852  0.0677
30880SOL     OW97095   7.760   3.932   4.231 -0.2367 -0.1141 -0.4343
30880SOL    HW197096   7.826   3.947   4.299  0.3849 -0.8822 -0.8502
30880SOL    HW297097   7.771   4.005   4.170  0.2848 -0.2777 -0.5396
30881SOL     OW97098   5.174   1.493   7.414  0.5437 -0.0955 -0.3726
30881SOL    HW197099   5.206   1.564   7.470 -0.8790  0.0927  0.2520
30881SOL    HW297100   5.154   1.536   7.331 -1.7073  0.6109  0.4524
30882SOL     OW97101   1.944   1.141   5.084  0.2853 -0.0571  0.3633
30882SOL    HW197102   1.915   1.095   5.005 -0.8665 -0.9828  1.2883
30882SOL    HW297103   1.897   1.225   5.082 -2.2941 -1.3605  1.6206
30883SOL     OW97104   9.368   2.708   3.126  0.3081 -0.3247 -0.7154
30883SOL    HW197105   9.318   2.660   3.059  1.9238 -0.1738 -2.0981
30883SOL    HW297106   9.385   2.793   3.086  0.4665  0.1426  0.3200
30884SOL     OW97107   8.347   7.572  10.820  0.2146  0.2432 -0.1149
30884SOL    HW197108   8.270   7.583  10.764  1.5990  2.3548 -1.7779
30884SOL    HW297109   8.344   7.481  10.848 -2.6848  0.1614 -0.3744
30885SOL     OW97110   2.132   5.101   1.846  0.2439  0.1462 -0.0799
30885SOL    HW197111   2.052   5.064   1.882 -1.0260  2.2389 -0.5515
30885SOL    HW297112   2.128   5.080   1.752 -0.5921  1.5615 -0.3892
30886SOL     OW97113   7.913   2.780   7.124 -0.2009  0.3180 -0.3502
30886SOL    HW197114   7.947   2.798   7.212  2.3551 -1.9245 -0.7536
30886SOL    HW297115   7.968   2.833   7.066  0.7408 -1.1358 -0.8220
30887SOL     OW97116   3.352   2.528   4.221  0.1395  0.3123  0.4321
30887SOL    HW197117   3.392   2.593   4.163 -1.0732 -0.4485 -1.3654
30887SOL    HW297118   3.357   2.566   4.308  2.6792  1.2169 -0.0309
30888SOL     OW97119   1.084   4.615   4.125 -0.0381  0.2521  0.0769
30888SOL    HW197120   1.041   4.652   4.048 -1.2393 -2.1237 -0.5033
30888SOL    HW297121   1.012   4.582   4.179  0.9154 -0.7121  0.8100
30889SOL     OW97122  11.040   6.149  10.268 -0.2997  0.1531  0.3068
30889SOL    HW197123  11.032   6.195  10.185  3.7558 -0.4660 -0.6246
30889SOL    HW297124  11.073   6.215  10.329  1.5064 -0.4347  0.0384
30890SOL     OW97125   0.222   6.299   4.217 -0.0823  0.4155 -0.0777
30890SOL    HW197126   0.223   6.204   4.207  0.6413  0.4535 -0.3795
30890SOL    HW297127   0.167   6.314   4.294  1.1285 -0.3474  0.9704
30891SOL     OW97128   5.028   7.434   0.047 -0.2433 -0.7571  0.1969
30891SOL    HW197129   5.057   7.487  -0.028  1.9888 -1.3952  0.5131
30891SOL    HW297130   4.971   7.491   0.097  0.6039  0.7039 -0.4520
30892SOL     OW97131   6.042   4.483   7.277 -0.3207  0.0063 -0.3128
30892SOL    HW197132   6.133   4.479   7.246 -0.5437 -0.0656 -0.9667
30892SOL    HW297133   6.046   4.537   7.356  0.0459  1.3944 -1.2445
30893SOL     OW97134   0.773   5.432   8.982 -0.1990  0.6035 -0.3915
30893SOL    HW197135   0.684   5.468   8.980 -1.0983 -1.5117 -1.5300
30893SOL    HW297136   0.761   5.337   8.982  2.0802  0.2260  1.3421
30894SOL     OW97137   2.740   8.487   4.727 -0.4508 -0.0112  0.2297
30894SOL    HW197138   2.649   8.512   4.710 -0.3937  1.1434  1.4599
30894SOL    HW297139   2.735   8.399   4.765 -1.0632  0.1421  0.5014
30895SOL     OW97140  10.384   4.245   1.537 -0.1043 -0.0046  0.6958
30895SOL    HW197141  10.446   4.226   1.467 -0.8407  0.2469 -0.0307
30895SOL    HW297142  10.404   4.181   1.605 -1.1670 -2.0914 -0.8453
30896SOL     OW97143   4.364  10.931   5.680 -0.4038  0.2676 -0.1241
30896SOL    HW197144   4.287  10.956   5.629 -1.1596 -0.9873  0.3484
30896SOL    HW297145   4.404  10.861   5.628  0.5703  1.0616 -0.4783
30897SOL     OW97146  10.069   6.813   6.291  0.0979 -0.7807  0.3106
30897SOL    HW197147  10.138   6.775   6.237  0.0150  3.0111 -2.8777
30897SOL    HW297148  10.113   6.880   6.343 -0.8289  0.1415 -0.0668
30898SOL     OW97149   2.011   5.032  10.356  0.0883  0.5492 -0.4646
30898SOL    HW197150   2.061   4.965  10.309 -0.4854  0.2208 -0.6094
30898SOL    HW297151   2.011   5.002  10.447 -1.7487 -0.6490 -0.8164
30899SOL     OW97152   4.941   5.606   3.935  0.6099  0.3350 -0.3457
30899SOL    HW197153   5.029   5.629   3.904  1.0536 -0.5844  0.1664
30899SOL    HW297154   4.882   5.658   3.882  1.5135  2.0863  0.2818
30900SOL     OW97155  10.595   4.868   7.551  0.2365  0.1197 -0.0678
30900SOL    HW197156  10.650   4.865   7.629 -0.4562  1.5129  0.5076
30900SOL    HW297157  10.520   4.814   7.572 -1.1055  2.3469  1.2205
30901SOL     OW97158   6.997  10.953   7.887  0.3708  0.7281 -0.7139
30901SOL    HW197159   6.918  10.915   7.849  0.8497 -0.6658 -0.3520
30901SOL    HW297160   6.969  10.992   7.970  0.3324 -1.1923  0.2115
30902SOL     OW97161   2.665   2.398   8.491  0.7028  0.3829  0.3836
30902SOL    HW197162   2.626   2.312   8.507 -0.0966  0.6581 -0.0495
30902SOL    HW297163   2.754   2.390   8.525  1.0052 -0.9584 -0.6100
30903SOL     OW97164   0.322   5.811   9.900 -0.3636 -0.1718 -0.4149
30903SOL    HW197165   0.241   5.773   9.867 -2.2399  0.5619  2.8691
30903SOL    HW297166   0.327   5.780   9.991  1.5762  2.0222  0.3266
30904SOL     OW97167   4.977  10.221   6.257 -0.5606  0.0401 -0.2198
30904SOL    HW197168   5.045  10.284   6.282 -0.3055  0.4199 -1.7470
30904SOL    HW297169   4.902  10.275   6.232 -0.8426 -0.3205 -0.1633
30905SOL     OW97170   0.634   4.501   3.217 -0.4070 -0.3832 -0.3500
30905SOL    HW197171   0.543   4.496   3.188 -0.9485 -1.1325  1.3657
30905SOL    HW297172   0.633   4.567   3.286  0.4416 -0.1220 -0.5822
30906SOL     OW97173   7.255   6.221  10.933 -0.2294  0.0540  0.8587
30906SOL    HW197174   7.223   6.296  10.983  0.4416  1.5449 -0.8368
30906SOL    HW297175   7.200   6.219  10.855  0.2163 -0.8006  0.5562
30907SOL     OW97176   3.161   1.964   2.191 -0.4298 -0.4066  0.2338
30907SOL    HW197177   3.247   1.920   2.190 -0.3719 -0.3403  1.2394
30907SOL    HW297178   3.168   2.028   2.262 -0.4100  1.4818 -1.3788
30908SOL     OW97179   7.513   6.971   3.744  0.5664  0.4979 -0.1543
30908SOL    HW197180   7.587   6.990   3.687  0.3240  0.3307 -0.5287
30908SOL    HW297181   7.441   7.024   3.709  0.2186 -0.1572 -0.4561
30909SOL     OW97182   8.377   9.992   7.632  0.5307  0.0533  0.0657
30909SOL    HW197183   8.299  10.041   7.657 -0.2421 -0.7892 -0.6355
30909SOL    HW297184   8.372   9.911   7.682 -0.5666 -1.2541 -2.0254
30910SOL     OW97185   3.845   9.510   3.766  0.5359  0.0951 -0.1241
30910SOL    HW197186   3.853   9.427   3.813  0.0296 -0.2075 -0.5599
30910SOL    HW297187   3.773   9.555   3.809 -0.0386 -0.2541 -0.6975
30911SOL     OW97188   0.161   5.750   0.748  0.2294 -0.3524 -0.2502
30911SOL    HW197189   0.155   5.685   0.678  1.8628  1.1516 -1.8837
30911SOL    HW297190   0.080   5.738   0.798  0.1828 -3.1846 -0.8261
30912SOL     OW97191   9.729   6.019   4.831  0.1237  0.1273  0.2884
30912SOL    HW197192   9.763   5.930   4.823  0.9499  0.5060 -0.5188
30912SOL    HW297193   9.638   6.007   4.858 -0.3851 -1.0284 -1.7272
30913SOL     OW97194   8.340   1.684   8.226 -0.3601  0.5656  0.3100
30913SOL    HW197195   8.366   1.664   8.136 -0.4973  2.4312 -0.1913
30913SOL    HW297196   8.246   1.703   8.220 -0.7504 -0.9636  1.1734
30914SOL     OW97197   4.135  10.972   3.236  0.0125  0.2595  0.6491
30914SOL    HW197198   4.066  11.029   3.271 -0.1699  0.0658  0.6121
30914SOL    HW297199   4.207  10.980   3.299  0.2917  1.1297  0.2400
30915SOL     OW97200  10.253   3.077   8.728  0.3509 -0.0192  1.2929
30915SOL    HW197201  10.205   3.107   8.804  0.8876  1.7101  1.0001
30915SOL    HW297202  10.345   3.084   8.753  0.5482  0.9988  0.3705
30916SOL     OW97203   3.329   1.135   4.417 -0.2256  0.2856 -0.0814
30916SOL    HW197204   3.241   1.171   4.421  1.0099  3.7348  0.1825
30916SOL    HW297205   3.381   1.194   4.471  2.3200 -1.4117 -0.4913
30917SOL     OW97206   1.079   1.503   5.142 -0.0251 -0.4385  0.1408
30917SOL    HW197207   1.119   1.458   5.217 -2.2396 -1.7125  0.6586
30917SOL    HW297208   1.032   1.576   5.182  1.4498  0.8755 -0.4284
30918SOL     OW97209   5.994   1.660   6.337  0.7119 -0.3883 -0.1876
30918SOL    HW197210   6.047   1.610   6.276 -1.3652 -0.6887 -1.8562
30918SOL    HW297211   5.939   1.715   6.281 -2.2227 -1.6246  1.2655
30919SOL     OW97212   4.954   2.056   0.769 -0.2905  0.4489 -0.1425
30919SOL    HW197213   4.917   2.121   0.827 -0.0367 -1.2272  2.0127
30919SOL    HW297214   4.975   2.104   0.689 -0.4256  2.8941  1.2152
30920SOL     OW97215   7.627   1.561   5.651 -0.7106  0.1069  0.2895
30920SOL    HW197216   7.697   1.621   5.675 -0.2834 -0.1922 -0.1892
30920SOL    HW297217   7.557   1.617   5.618 -0.4406  0.3587  0.1466
30921SOL     OW97218   4.805   7.498  10.537 -0.7714  0.1540  0.5438
30921SOL    HW197219   4.886   7.538  10.506 -0.7220  0.1367  0.6513
30921SOL    HW297220   4.776   7.443  10.463 -0.6096  0.0490  0.5593
30922SOL     OW97221   3.225   9.638  10.331  0.0434  0.1838  0.0574
30922SOL    HW197222   3.297   9.700  10.318 -0.6060  1.1913  1.0424
30922SOL    HW297223   3.178   9.637  10.248 -0.0396  1.1827  0.0783
30923SOL     OW97224   1.367   9.725   7.901 -0.6489 -0.4324  0.4807
30923SOL    HW197225   1.307   9.785   7.945  1.9723  3.0844 -0.2365
30923SOL    HW297226   1.346   9.733   7.808  1.3720  1.6389  0.1141
30924SOL     OW97227   5.231   3.478   4.290 -0.2445 -0.2893  0.1116
30924SOL    HW197228   5.147   3.449   4.326 -0.5818 -0.8008 -1.0472
30924SOL    HW297229   5.288   3.402   4.298 -0.5530 -0.6654 -1.1268
30925SOL     OW97230   4.031   6.325   7.446 -0.5969 -0.7459 -0.4029
30925SOL    HW197231   4.072   6.263   7.387  0.2299  3.5359 -4.9548
30925SOL    HW297232   3.938   6.321   7.424 -0.7276 -1.1014  0.1756
30926SOL     OW97233   3.461   3.889   6.477 -0.0230  0.3067  0.0092
30926SOL    HW197234   3.426   3.973   6.448 -0.8117 -0.1266 -0.3351
30926SOL    HW297235   3.410   3.867   6.555  0.6573  0.4712  0.5058
30927SOL     OW97236   4.681   8.347   1.245  0.2616  0.0595 -0.0153
30927SOL    HW197237   4.598   8.326   1.288 -0.2753 -0.6423 -1.3321
30927SOL    HW297238   4.671   8.436   1.214  0.8012  0.7204  1.5866
30928SOL     OW97239   7.827   6.705   3.897 -0.1690  0.6638 -0.1419
30928SOL    HW197240   7.736   6.735   3.907 -0.6258  0.1177 -2.2303
30928SOL    HW297241   7.833   6.677   3.806  1.3502 -1.7992  0.6132
30929SOL     OW97242   0.043   6.306   7.512 -0.2884  0.0262 -0.5407
30929SOL    HW197243   0.112   6.367   7.486  0.6599 -0.8259 -0.0907
30929SOL    HW297244  -0.038   6.348   7.482  0.4489  0.8292 -1.4921
30930SOL     OW97245   9.576  10.131   2.052 -0.6470 -0.0675  0.2463
30930SOL    HW197246   9.508  10.086   2.102 -0.5569 -1.7183 -1.0184
30930SOL    HW297247   9.631  10.061   2.019  1.0394  1.1759  0.3054
30931SOL     OW97248   3.526   6.570   3.506 -0.3460  0.6567 -0.3466
30931SOL    HW197249   3.471   6.594   3.432  0.0428  1.4177 -0.4024
30931SOL    HW297250   3.476   6.504   3.554 -0.0609 -0.8013 -1.9888
30932SOL     OW97251   1.239   6.037   1.015  0.2986 -0.0440  0.5405
30932SOL    HW197252   1.211   5.947   1.002  0.6637 -0.1824  0.7114
30932SOL    HW297253   1.332   6.038   0.992  0.4286  0.1676  1.0520
30933SOL     OW97254   1.271   9.473  10.092 -0.1364 -0.3934  0.1498
30933SOL    HW197255   1.349   9.467  10.037  0.2446  0.1637  0.6219
30933SOL    HW297256   1.216   9.538  10.048 -0.8980 -1.6578 -0.8456
30934SOL     OW97257  10.039   0.402   5.797 -0.1829  0.4968 -0.1599
30934SOL    HW197258  10.040   0.344   5.874  1.2920  0.5742 -0.0868
30934SOL    HW297259  10.025   0.343   5.723  0.2309  0.1633  0.0176
30935SOL     OW97260   0.732   2.894   7.149 -0.2011 -0.0865  0.5019
30935SOL    HW197261   0.822   2.928   7.154 -0.6696  1.6730 -1.3749
30935SOL    HW297262   0.743   2.799   7.140  1.6613  0.2440 -1.8908
30936SOL     OW97263   7.092   8.540   3.421 -0.6552 -0.1429  0.1883
30936SOL    HW197264   7.091   8.603   3.350 -0.8359  1.0937  1.2560
30936SOL    HW297265   7.004   8.544   3.459 -0.4839 -0.5857  0.6600
30937SOL     OW97266   4.784   2.817   0.625 -0.5353 -0.9641 -0.2236
30937SOL    HW197267   4.762   2.786   0.537 -1.9347  0.2952 -0.3621
30937SOL    HW297268   4.701   2.812   0.673  0.1600 -1.3921  0.9495
30938SOL     OW97269   2.275   8.307   5.961  0.3625 -0.2927 -0.3444
30938SOL    HW197270   2.292   8.233   6.019  0.2676 -0.1119 -0.0830
30938SOL    HW297271   2.191   8.342   5.991  1.6128  1.5023  1.2107
30939SOL     OW97272   7.315   4.700   8.944  0.0727  0.0768 -0.1938
30939SOL    HW197273   7.407   4.722   8.934 -0.1311  0.2748 -2.0056
30939SOL    HW297274   7.312   4.605   8.938  0.0624  0.1332 -1.1134
30940SOL     OW97275   1.785   5.210   4.701 -0.4933  0.1395  0.3667
30940SOL    HW197276   1.738   5.135   4.737 -0.6383  0.4263  0.7759
30940SOL    HW297277   1.865   5.173   4.663 -0.2397 -0.1347  1.1675
30941SOL     OW97278   8.652   9.894   5.934 -0.5143  0.5505 -0.6860
30941SOL    HW197279   8.746   9.912   5.925  0.2905 -1.2133  2.5383
30941SOL    HW297280   8.614   9.979   5.958  0.7707  0.8260  0.5487
30942SOL     OW97281   2.759   4.802   2.231  0.0141  0.7638  0.4058
30942SOL    HW197282   2.746   4.858   2.155 -0.6216  0.2851  0.1466
30942SOL    HW297283   2.678   4.751   2.237  1.4201 -1.8651 -0.8424
30943SOL     OW97284   8.263   7.282   1.441  0.7018 -0.1524  0.3110
30943SOL    HW197285   8.282   7.256   1.351  1.7696 -1.3847  0.8457
30943SOL    HW297286   8.179   7.327   1.437 -0.1144 -1.6921 -1.0734
30944SOL     OW97287   3.304   3.573   8.437  0.2689 -0.6266  0.0578
30944SOL    HW197288   3.275   3.570   8.346 -3.1380  0.0131  0.9794
30944SOL    HW297289   3.302   3.481   8.466  0.8051 -0.7658 -0.3358
30945SOL     OW97290   4.224   1.636   8.173 -0.2120 -0.3170 -0.5703
30945SOL    HW197291   4.292   1.640   8.240  0.5558  0.0173 -1.3454
30945SOL    HW297292   4.173   1.716   8.185  0.1683 -0.0629 -0.6334
30946SOL     OW97293   4.055   3.205   3.057  0.2886  0.1718 -0.0718
30946SOL    HW197294   3.974   3.194   3.007  0.3981  0.1550 -0.2455
30946SOL    HW297295   4.072   3.119   3.095  0.1319  0.2185  0.1082
30947SOL     OW97296   9.841   2.010   5.920 -0.4459  0.8026  0.2240
30947SOL    HW197297   9.793   1.935   5.954  2.1357 -1.6700 -1.1148
30947SOL    HW297298   9.820   2.012   5.827  1.3770  0.1047 -0.2427
30948SOL     OW97299  11.052   3.649   8.059 -0.4502  0.5416  0.0462
30948SOL    HW197300  11.035   3.569   8.108  0.2848  0.0381 -0.4991
30948SOL    HW297301  11.054   3.718   8.125 -2.5356  0.3494  0.3619
30949SOL     OW97302   4.435   4.464   6.759 -0.2437 -0.0993  0.0431
30949SOL    HW197303   4.489   4.490   6.834  0.9204 -0.7322 -0.5523
30949SOL    HW297304   4.466   4.518   6.687  0.1331 -1.0046 -0.4891
30950SOL     OW97305   0.602   8.484   1.525 -0.6117  0.2505  0.0917
30950SOL    HW197306   0.651   8.548   1.576 -1.3648  0.9909 -0.1024
30950SOL    HW297307   0.669   8.435   1.477 -0.0482  1.0870  0.0057
30951SOL     OW97308   7.910   6.673   5.740 -0.0222  0.1573  0.4656
30951SOL    HW197309   7.958   6.727   5.678 -0.1958  0.2370  0.4018
30951SOL    HW297310   7.943   6.700   5.826  0.8870 -0.5852  0.3731
30952SOL     OW97311   3.257   9.884   9.493 -0.5772  0.2770 -0.1039
30952SOL    HW197312   3.253   9.973   9.458 -0.0632  0.0102 -0.8808
30952SOL    HW297313   3.346   9.855   9.475 -0.9345 -0.6377 -0.4829
30953SOL     OW97314   1.374  10.306   2.280 -0.4686  0.2585  0.0786
30953SOL    HW197315   1.352  10.365   2.209  2.0877 -0.0381 -1.0628
30953SOL    HW297316   1.468  10.291   2.271 -0.6959 -2.6479  1.3282
30954SOL     OW97317   8.586   7.406   5.573 -0.2602 -0.4118  0.1036
30954SOL    HW197318   8.535   7.485   5.556  0.8478  0.3891  0.4079
30954SOL    HW297319   8.572   7.387   5.666  1.7502  1.1477  0.7971
30955SOL     OW97320   5.761   4.089   3.293 -0.1363 -0.0698  0.3012
30955SOL    HW197321   5.721   4.129   3.371 -2.6907  1.0453 -1.4510
30955SOL    HW297322   5.756   3.995   3.309 -0.8177  0.1331  1.4072
30956SOL     OW97323   2.122   1.640   2.743  0.4249  0.4120 -0.3999
30956SOL    HW197324   2.084   1.725   2.718  2.1400  1.1109 -0.7923
30956SOL    HW297325   2.114   1.637   2.838  1.7192  1.7533 -0.2071
30957SOL     OW97326   5.980   9.979   6.582 -0.8326 -0.3698  0.0380
30957SOL    HW197327   5.916  10.025   6.528 -1.1746 -0.1431  0.6299
30957SOL    HW297328   5.979   9.889   6.549  0.5138  0.2241 -1.7467
30958SOL     OW97329   5.505   9.717   6.879 -0.4048  0.1999 -0.0276
30958SOL    HW197330   5.543   9.629   6.870  1.0344  0.6236  1.5775
30958SOL    HW297331   5.579   9.776   6.873 -1.4402  1.4022 -1.7597
30959SOL     OW97332   0.964   2.211   4.366  0.6470  0.2833 -0.4987
30959SOL    HW197333   0.947   2.196   4.460  3.1578  1.0193  0.1421
30959SOL    HW297334   1.042   2.159   4.347  0.5408  0.6426 -2.0546
30960SOL     OW97335   7.982   0.499   6.011 -0.0781 -0.4286  0.5012
30960SOL    HW197336   7.980   0.406   5.989  0.8988 -0.2327 -0.5047
30960SOL    HW297337   7.990   0.502   6.106  0.2917 -1.3797  0.5068
30961SOL     OW97338   3.521   1.248   4.880  0.5470  0.1212 -0.1877
30961SOL    HW197339   3.492   1.234   4.790  1.4679  0.3147 -0.5276
30961SOL    HW297340   3.558   1.336   4.880 -2.3380  1.4787  1.1794
30962SOL     OW97341   9.115   0.287   7.191 -0.1264 -0.2958  0.2116
30962SOL    HW197342   9.056   0.312   7.262  1.3226  1.2398  0.9276
30962SOL    HW297343   9.203   0.308   7.223  0.5650  0.8279 -2.1575
30963SOL     OW97344   0.426   2.750   6.002  0.4734  0.0699  0.0432
30963SOL    HW197345   0.441   2.740   6.096 -0.8592  0.6576  0.3329
30963SOL    HW297346   0.468   2.833   5.980 -0.0398  0.3973  0.3061
30964SOL     OW97347   0.720   1.267   8.221 -0.3216  0.2774 -0.1839
30964SOL    HW197348   0.632   1.302   8.210 -0.7023 -0.6210 -0.1066
30964SOL    HW297349   0.707   1.181   8.261  0.4668 -0.5676 -1.6448
30965SOL     OW97350   2.715   2.977  10.807  0.3427 -0.6090  0.5073
30965SOL    HW197351   2.756   2.891  10.816  2.3282  0.4248  1.7655
30965SOL    HW297352   2.632   2.968  10.854  0.9158 -1.5768  1.3690
30966SOL     OW97353   2.993   7.561   4.139 -0.1501  0.5683 -0.1801
30966SOL    HW197354   2.994   7.521   4.052  3.3487  1.6768 -0.7896
30966SOL    HW297355   2.912   7.528   4.179 -1.2306 -1.0424 -3.3098
30967SOL     OW97356   3.372   9.496   2.103 -0.0701  0.1396 -0.4162
30967SOL    HW197357   3.373   9.536   2.016  1.2212 -1.1974 -1.0616
30967SOL    HW297358   3.358   9.403   2.087  1.5319 -0.3477  0.6587
30968SOL     OW97359   2.020   8.796   1.726 -0.5173  0.3697 -0.5364
30968SOL    HW197360   2.071   8.732   1.677 -0.7315  0.5070 -0.9444
30968SOL    HW297361   1.946   8.747   1.760 -1.4811  0.6835 -2.0867
30969SOL     OW97362   9.992   3.120   8.276 -0.5691 -0.2541  0.7216
30969SOL    HW197363  10.046   3.066   8.334 -0.5731  0.1171  1.0781
30969SOL    HW297364   9.902   3.100   8.302 -0.5526  0.7515  1.6381
30970SOL     OW97365   6.219   5.382  10.197 -0.1824 -0.0648 -0.1566
30970SOL    HW197366   6.147   5.434  10.160 -1.4865 -1.2439  0.6539
30970SOL    HW297367   6.198   5.374  10.290  1.1623 -0.2111  0.1536
30971SOL     OW97368   6.353   5.585  10.976 -0.8983  0.5980 -0.6156
30971SOL    HW197369   6.372   5.603  10.884 -0.8284 -1.8047 -1.1458
30971SOL    HW297370   6.440   5.584  11.018 -0.9406  1.8294 -0.4640
30972SOL     OW97371   0.028   3.883   8.276  0.0439  0.9965 -0.6262
30972SOL    HW197372   0.034   3.936   8.196 -0.8147 -0.3229 -1.6084
30972SOL    HW297373  -0.006   3.943   8.342 -2.3172  1.3444 -2.0620
30973SOL     OW97374   3.772   3.244   1.051 -0.9420 -0.1112  0.2903
30973SOL    HW197375   3.851   3.190   1.053 -0.6942  0.2322  0.0382
30973SOL    HW297376   3.700   3.182   1.051 -0.6859 -0.4253  1.1780
30974SOL     OW97377   1.287   0.063   4.586 -0.3286 -0.6228 -0.6089
30974SOL    HW197378   1.210   0.016   4.554 -0.9224 -0.1623  0.0874
30974SOL    HW297379   1.353  -0.005   4.598 -0.2477 -0.8790 -2.2593
30975SOL     OW97380   7.890   6.914   3.427 -0.4161 -0.6247 -0.0838
30975SOL    HW197381   7.921   7.002   3.409  1.4567 -1.4147 -1.0478
30975SOL    HW297382   7.827   6.896   3.358  0.4550 -0.6134 -0.9043
30976SOL     OW97383   7.101   9.600   7.710 -0.0011 -0.1120  0.3011
30976SOL    HW197384   7.081   9.672   7.651  2.0748  0.0825 -0.2308
30976SOL    HW297385   7.061   9.625   7.794 -0.7822  0.8096 -0.3308
30977SOL     OW97386   7.899   3.470   5.588 -0.2897  0.1830 -0.8002
30977SOL    HW197387   7.958   3.439   5.519 -1.3524  0.3462 -1.7924
30977SOL    HW297388   7.931   3.426   5.667  0.3406 -0.7620 -1.5569
30978SOL     OW97389   8.246  10.305   5.685 -0.3540  0.1842  0.2666
30978SOL    HW197390   8.290  10.296   5.601  1.5474 -3.4324  1.4332
30978SOL    HW297391   8.209  10.218   5.703 -0.0402  0.5803  3.4572
30979SOL     OW97392   5.347   6.498   3.684 -0.1157 -0.2320 -0.0382
30979SOL    HW197393   5.296   6.482   3.764  0.3248  1.7008  0.6973
30979SOL    HW297394   5.436   6.473   3.707  0.0662  0.5979  0.2057
30980SOL     OW97395   8.665   4.039   8.756 -0.0330  0.3785  0.8770
30980SOL    HW197396   8.705   3.952   8.766 -0.1657  0.1020 -0.7930
30980SOL    HW297397   8.732   4.091   8.712  0.1471  1.2335  2.1013
30981SOL     OW97398   7.799   8.682   7.862 -0.4242 -0.3105 -0.4331
30981SOL    HW197399   7.785   8.774   7.887 -1.4441  0.1815 -2.5123
30981SOL    HW297400   7.718   8.638   7.888 -0.9202 -0.0879 -1.5505
30982SOL     OW97401   4.950   3.218   3.224  0.2752 -0.2168  0.2023
30982SOL    HW197402   4.878   3.258   3.176  1.4939 -0.6293 -2.1369
30982SOL    HW297403   4.990   3.291   3.272  0.0923  0.6230 -0.8792
30983SOL     OW97404   1.282   1.112  10.878  0.3098 -0.4636  0.1211
30983SOL    HW197405   1.199   1.149  10.909 -0.9714 -1.1820 -2.2524
30983SOL    HW297406   1.335   1.103  10.957 -0.3556  3.6628  1.2453
30984SOL     OW97407   0.384   0.190   8.263 -0.1892  0.1658 -0.5381
30984SOL    HW197408   0.398   0.169   8.171 -0.8820 -1.2464 -0.3548
30984SOL    HW297409   0.380   0.105   8.307  0.0287  0.8092  0.7839
30985SOL     OW97410   3.093   2.193   3.126  0.0314 -0.2171 -0.1327
30985SOL    HW197411   3.185   2.194   3.099  0.2654  0.2350  0.6635
30985SOL    HW297412   3.045   2.179   3.045  0.8498 -1.7232 -0.4146
30986SOL     OW97413   4.414   9.771   3.053 -0.0581 -0.6433  0.4691
30986SOL    HW197414   4.395   9.835   2.985 -0.2477 -1.9615 -0.7769
30986SOL    HW297415   4.507   9.752   3.043 -0.1342 -1.0038  0.3997
30987SOL     OW97416   8.679   9.743   8.814  0.5509  0.4643  0.2455
30987SOL    HW197417   8.637   9.728   8.899  0.0567  0.1410 -0.0530
30987SOL    HW297418   8.664   9.662   8.765  1.3555  0.4172  0.0589
30988SOL     OW97419   1.729   6.933   7.399  0.3369 -0.2763 -0.2792
30988SOL    HW197420   1.684   7.010   7.365  0.6713 -0.2561 -0.6903
30988SOL    HW297421   1.815   6.965   7.425 -0.1936 -0.1252  1.3795
30989SOL     OW97422   1.259   2.539   4.486 -0.2701  0.0541  0.5777
30989SOL    HW197423   1.197   2.593   4.535 -0.2622  0.5941  0.0014
30989SOL    HW297424   1.250   2.568   4.395  0.6229 -0.0512  0.4437
30990SOL     OW97425   0.530   6.278   3.492  0.0839 -0.2303  0.0054
30990SOL    HW197426   0.493   6.234   3.415  0.5936  0.8005 -0.8464
30990SOL    HW297427   0.615   6.236   3.505  1.1277  1.2734 -1.5668
30991SOL     OW97428   8.383   5.010   0.465  0.5142  0.0996  0.4639
30991SOL    HW197429   8.459   5.045   0.417 -1.4441  2.0071 -1.5201
30991SOL    HW297430   8.332   4.964   0.398  0.1669 -1.6754  1.8817
30992SOL     OW97431   5.329   5.920   1.466 -0.4973 -0.3640  0.6077
30992SOL    HW197432   5.362   5.831   1.474  1.0881  0.1419  0.1704
30992SOL    HW297433   5.343   5.959   1.552 -1.5955 -0.6419  0.9285
30993SOL     OW97434   2.541   7.665   3.715  0.1693 -0.3252  0.2565
30993SOL    HW197435   2.464   7.624   3.755  0.1750 -2.5693 -1.7732
30993SOL    HW297436   2.606   7.666   3.785 -1.2013  0.2733  1.5996
30994SOL     OW97437   2.816  10.946   7.852 -0.1918  0.0388  0.0290
30994SOL    HW197438   2.908  10.932   7.873 -0.1038 -0.4019 -0.6005
30994SOL    HW297439   2.806  10.909   7.764 -1.2500 -1.0429  0.5782
30995SOL     OW97440   4.242   6.713   5.941  0.4949 -0.0580 -0.2651
30995SOL    HW197441   4.248   6.659   6.021 -0.0956  0.2227 -0.0235
30995SOL    HW297442   4.326   6.700   5.897  0.1332 -1.7075 -0.5512
30996SOL     OW97443   6.902   4.867   2.413 -0.3281  0.4634 -0.6596
30996SOL    HW197444   6.850   4.936   2.455 -1.7463 -0.6744 -0.4528
30996SOL    HW297445   6.837   4.809   2.372  0.7365 -1.2293 -0.0803
30997SOL     OW97446   1.674   6.280   2.998 -0.2072  0.1616  0.2381
30997SOL    HW197447   1.655   6.216   3.068 -2.6393  1.3015  0.7492
30997SOL    HW297448   1.669   6.365   3.042 -0.9975  0.8614 -1.1450
30998SOL     OW97449   9.581   7.127   6.579 -0.9105  0.3008  0.4484
30998SOL    HW197450   9.538   7.166   6.503 -2.7277  1.2009  1.8565
30998SOL    HW297451   9.660   7.180   6.591 -2.1891  2.1984  0.9781
30999SOL     OW97452  10.577   8.920   4.397 -0.1170  0.0423  0.7205
30999SOL    HW197453  10.567   8.883   4.485  0.9370 -3.0073 -0.3153
30999SOL    HW297454  10.639   8.992   4.409  0.6269 -0.8134  2.3927
31000SOL     OW97455   9.880   5.784   9.940 -0.4831  0.1578  0.1130
31000SOL    HW197456   9.880   5.722  10.013 -0.3357 -0.9943 -0.8242
31000SOL    HW297457   9.805   5.841   9.956 -0.2145  0.1949  1.3586
31001SOL     OW97458   3.056   5.251   7.511 -0.6288  0.0670 -0.0929
31001SOL    HW197459   3.039   5.330   7.562 -2.2281  0.2027 -0.7663
31001SOL    HW297460   2.971   5.208   7.504  0.2589 -1.9109  0.5171
31002SOL     OW97461   9.198   5.322   7.831  0.0791 -0.1158  0.1884
31002SOL    HW197462   9.242   5.401   7.862  1.1133 -0.1016 -1.2465
31002SOL    HW297463   9.267   5.269   7.793 -0.9309 -0.7162 -0.8756
31003SOL     OW97464   9.319   9.188   4.831  0.1600  0.0102 -0.3080
31003SOL    HW197465   9.354   9.114   4.881  0.3592  0.4700  0.2512
31003SOL    HW297466   9.393   9.218   4.778  0.1342 -0.0748 -0.3908
31004SOL     OW97467   4.279   6.895   5.323  0.3129 -0.0828 -0.0743
31004SOL    HW197468   4.236   6.820   5.364  1.4914  0.0935  1.5865
31004SOL    HW297469   4.208   6.944   5.282 -0.8756 -0.5787  1.3019
31005SOL     OW97470   7.753   2.555   7.106  0.2522  0.0054 -0.1334
31005SOL    HW197471   7.809   2.631   7.089  1.3792 -0.5464  0.9186
31005SOL    HW297472   7.811   2.493   7.152 -1.1488 -0.7110  0.7272
31006SOL     OW97473  10.636   7.764   2.472 -0.2152 -0.1420  0.4615
31006SOL    HW197474  10.709   7.728   2.522 -1.6174 -0.8684  2.0718
31006SOL    HW297475  10.646   7.859   2.479  0.2374 -0.2359  1.1902
31007SOL     OW97476   3.758   0.219   7.418  0.5563  0.3207  0.5056
31007SOL    HW197477   3.846   0.190   7.397 -0.6221 -0.9126 -3.8083
31007SOL    HW297478   3.761   0.314   7.412  1.3580  0.2232 -0.9215
31008SOL     OW97479   4.367   0.826   2.026 -0.3090 -0.7132 -0.1857
31008SOL    HW197480   4.378   0.776   2.107  0.3711  0.5243  0.5166
31008SOL    HW297481   4.274   0.816   2.004 -0.5009 -1.0681  0.7468
31009SOL     OW97482   5.062   0.939   5.856 -0.0295 -0.0007  0.7960
31009SOL    HW197483   5.146   0.947   5.901  0.6434 -2.1208  0.0233
31009SOL    HW297484   5.066   1.004   5.785  0.8953  0.0016  0.8427
31010SOL     OW97485   7.464   9.578   9.058  0.9930 -0.5521 -0.2606
31010SOL    HW197486   7.410   9.642   9.104 -0.2945 -1.6592 -0.1619
31010SOL    HW297487   7.533   9.630   9.017  0.1927  0.8506  0.0956
31011SOL     OW97488   9.209   2.570   4.474 -0.3622  0.4475  1.1083
31011SOL    HW197489   9.165   2.646   4.514 -0.6130 -0.1885  2.0634
31011SOL    HW297490   9.151   2.544   4.403 -0.0996  1.3566  0.5326
31012SOL     OW97491   9.359   5.768   4.257 -0.3600  0.0806  0.0654
31012SOL    HW197492   9.277   5.768   4.209 -0.6021 -3.7216  0.1573
31012SOL    HW297493   9.421   5.723   4.199 -0.1053 -2.7503  2.3040
31013SOL     OW97494   4.790   4.369   7.765 -0.7481  0.1389 -0.3503
31013SOL    HW197495   4.700   4.335   7.760 -0.0218 -2.0169 -0.0505
31013SOL    HW297496   4.837   4.323   7.696  0.6822 -0.7604  1.1408
31014SOL     OW97497   0.532   6.555   4.863 -0.0067  0.1777 -0.4932
31014SOL    HW197498   0.595   6.504   4.915 -1.2275  0.8089  1.7453
31014SOL    HW297499   0.586   6.605   4.802  1.7658  1.0695  1.6552
31015SOL     OW97500   3.702   8.642   9.543 -0.0629  0.1423 -0.3417
31015SOL    HW197501   3.746   8.655   9.627 -1.2885  0.4886  0.2778
31015SOL    HW297502   3.644   8.718   9.535 -0.9281 -0.5502 -0.8578
31016SOL     OW97503   1.934   3.797   9.264 -0.4786  0.0518  0.2294
31016SOL    HW197504   1.870   3.844   9.318  1.1958  1.5918  0.9761
31016SOL    HW297505   2.010   3.788   9.321  0.5221 -0.3573 -1.1389
31017SOL     OW97506   5.736   5.196   2.692  0.4171 -0.7170 -0.0099
31017SOL    HW197507   5.675   5.256   2.735  1.2021  0.5215 -0.5752
31017SOL    HW297508   5.793   5.253   2.640  1.3742 -1.9389 -0.3337
31018SOL     OW97509   5.363   5.263   1.950 -0.0892 -0.1441  0.0434
31018SOL    HW197510   5.337   5.338   1.897 -0.5394 -2.1265 -2.7673
31018SOL    HW297511   5.289   5.202   1.945  0.0269 -0.6294  2.7025
31019SOL     OW97512  10.446   7.131   6.290 -0.2174  0.2266 -0.0446
31019SOL    HW197513  10.522   7.082   6.261  0.1991  0.2197  0.9891
31019SOL    HW297514  10.455   7.217   6.249 -0.7133 -0.3939 -1.5057
31020SOL     OW97515   1.724   4.240   2.799  0.7875  0.4255  0.2554
31020SOL    HW197516   1.660   4.169   2.790 -0.3468  1.5516 -0.9118
31020SOL    HW297517   1.698   4.286   2.878 -0.5112  1.4786 -0.7441
31021SOL     OW97518  10.105   5.531   9.953  0.1260 -0.2015  0.0704
31021SOL    HW197519  10.183   5.548  10.007 -0.1524 -1.2079  0.8277
31021SOL    HW297520  10.036   5.582   9.994  0.7962  2.4521 -1.8790
31022SOL     OW97521   2.164   9.232  10.331 -0.1275 -0.3542 -0.4582
31022SOL    HW197522   2.233   9.217  10.266  0.8758  0.5462  0.3547
31022SOL    HW297523   2.092   9.175  10.304  0.2881 -0.0783 -2.3031
31023SOL     OW97524   8.923   5.156   2.143  0.1350  0.0010 -0.5133
31023SOL    HW197525   8.983   5.089   2.110  1.6480  1.5837 -1.1440
31023SOL    HW297526   8.902   5.208   2.066  0.4741  1.3365  0.2708
31024SOL     OW97527   8.872   7.416   6.588  0.0751 -0.4059  0.1498
31024SOL    HW197528   8.810   7.392   6.657 -0.5422 -0.0451 -0.2697
31024SOL    HW297529   8.856   7.509   6.573  0.5876 -0.3542 -0.1064
31025SOL     OW97530   2.698   3.666   1.193  0.5666 -0.6077  0.4208
31025SOL    HW197531   2.671   3.676   1.285 -2.4443  0.1055 -0.4310
31025SOL    HW297532   2.655   3.585   1.165 -0.0573  0.1206 -0.8045
31026SOL     OW97533   5.041   3.381   3.461 -0.9352 -0.0838 -0.2239
31026SOL    HW197534   5.004   3.363   3.548 -0.6412  1.1309  0.1769
31026SOL    HW297535   5.037   3.476   3.453  0.9934 -0.0023 -0.6526
31027SOL     OW97536   1.358   3.587   3.230  0.0496  0.2493  0.1056
31027SOL    HW197537   1.300   3.655   3.264 -0.5371 -0.2186  0.0575
31027SOL    HW297538   1.404   3.554   3.308 -0.2215  0.1839  0.2409
31028SOL     OW97539   7.416   7.772   1.950 -0.4191 -0.0111 -0.1968
31028SOL    HW197540   7.472   7.763   1.873 -0.2853 -0.5087 -0.0449
31028SOL    HW297541   7.468   7.822   2.012  1.3096 -3.3462  1.2871
31029SOL     OW97542   6.791   8.291   7.655 -0.6116  0.1523 -0.1173
31029SOL    HW197543   6.797   8.384   7.677 -0.3964  0.3902 -1.1213
31029SOL    HW297544   6.878   8.257   7.677  0.3274  0.8361 -2.4706
31030SOL     OW97545   9.172   2.080   7.293  0.0495  0.2436 -0.9516
31030SOL    HW197546   9.208   2.153   7.343 -2.8564  1.4182 -0.3720
31030SOL    HW297547   9.221   2.003   7.323  1.3680  1.5668  0.4305
31031SOL     OW97548  10.431   5.931   7.840 -0.8600 -0.1212 -0.1295
31031SOL    HW197549  10.526   5.922   7.845 -0.7860 -1.0778 -2.3874
31031SOL    HW297550  10.402   5.915   7.930  1.0665  0.0162  0.5816
31032SOL     OW97551   9.679   8.624   0.817  0.2539 -0.1920  0.1828
31032SOL    HW197552   9.698   8.609   0.724 -0.1091  0.3625  0.0143
31032SOL    HW297553   9.726   8.704   0.839 -1.4029  0.9278 -0.1159
31033SOL     OW97554   7.303   9.136   7.434 -0.1504  0.3558  0.4312
31033SOL    HW197555   7.255   9.192   7.496 -1.6019  0.2213 -0.5359
31033SOL    HW297556   7.279   9.170   7.348 -0.1610 -1.0364 -0.1369
31034SOL     OW97557   9.007   0.958   2.734 -0.0588 -0.4174  0.1051
31034SOL    HW197558   9.004   1.030   2.671  1.0948  0.1461  0.6495
31034SOL    HW297559   8.958   0.887   2.693 -0.1356  0.2512 -0.9960
31035SOL     OW97560   3.868   8.386   5.924  0.6570  0.4753  0.0376
31035SOL    HW197561   3.791   8.331   5.943 -0.4070  1.9319  0.1253
31035SOL    HW297562   3.832   8.474   5.911  2.3510  1.2696  0.4039
31036SOL     OW97563   6.638   3.094   8.341 -0.5668  0.5183  0.3019
31036SOL    HW197564   6.612   3.054   8.424  0.7160  1.9339  1.4338
31036SOL    HW297565   6.570   3.158   8.323 -0.0226  1.3465  1.1276
31037SOL     OW97566   5.576   5.811   3.729 -0.2525 -0.2424 -0.2933
31037SOL    HW197567   5.529   5.893   3.710 -0.0696 -0.1795 -0.4812
31037SOL    HW297568   5.654   5.840   3.777 -0.1284 -0.2940 -0.4627
31038SOL     OW97569   8.103   5.296   5.606 -0.8138  0.0695 -0.0998
31038SOL    HW197570   8.067   5.352   5.537  0.4136  1.7122  0.5321
31038SOL    HW297571   8.153   5.355   5.662  0.6816 -1.6819  0.5296
31039SOL     OW97572  10.694   7.222   2.239  0.1998 -0.5508  0.2765
31039SOL    HW197573  10.749   7.143   2.240  0.1413 -0.5907  0.4337
31039SOL    HW297574  10.608   7.191   2.209 -0.5995 -1.0797  2.8191
31040SOL     OW97575  10.174   6.552   9.195  0.7382  0.0630  1.0016
31040SOL    HW197576  10.135   6.470   9.224  2.6408 -0.8523  1.1322
31040SOL    HW297577  10.118   6.620   9.232 -0.4415 -1.1563  1.5356
31041SOL     OW97578   3.149   6.537  10.821 -0.1455  1.0715  0.7513
31041SOL    HW197579   3.213   6.497  10.762 -0.0706 -0.0078  1.5228
31041SOL    HW297580   3.158   6.631  10.806  0.3780  0.8551 -0.4139
31042SOL     OW97581   0.389   9.357   9.252 -0.1374 -0.1031 -0.3531
31042SOL    HW197582   0.348   9.272   9.270 -0.0200 -0.4554 -1.6126
31042SOL    HW297583   0.482   9.342   9.269 -0.3422  0.3032  1.1806
31043SOL     OW97584   5.741   1.607  10.254 -0.1382 -0.1357  0.3726
31043SOL    HW197585   5.754   1.609  10.160  0.4987 -2.3345  0.3584
31043SOL    HW297586   5.829   1.596  10.291 -0.2366  1.7733  1.3381
31044SOL     OW97587   3.524   9.489   4.893 -0.0658 -0.1125  0.2392
31044SOL    HW197588   3.460   9.432   4.934 -1.8100  0.8300 -1.0158
31044SOL    HW297589   3.479   9.574   4.886  1.8491  0.9858  0.5984
31045SOL     OW97590   0.958   0.197   7.003  1.3377  0.0881 -0.4328
31045SOL    HW197591   0.961   0.282   6.958 -1.5120  1.4992  1.7089
31045SOL    HW297592   1.001   0.213   7.087 -0.7314 -0.0032  0.7049
31046SOL     OW97593   5.570   0.747   0.664 -0.0814 -0.0730  0.3154
31046SOL    HW197594   5.636   0.816   0.660  0.3510 -0.5336 -0.9872
31046SOL    HW297595   5.594   0.694   0.740  1.2967 -0.4757 -0.3764
31047SOL     OW97596   6.954   8.800   5.402  0.0573 -0.0260 -0.1507
31047SOL    HW197597   6.956   8.726   5.341 -1.9622 -1.0950  0.9492
31047SOL    HW297598   6.888   8.775   5.467  1.0619  1.7124  1.6366
31048SOL     OW97599   8.630   2.635   7.204 -0.5299  0.6847  0.6315
31048SOL    HW197600   8.611   2.723   7.170  0.6173  0.3039 -1.1394
31048SOL    HW297601   8.594   2.576   7.137  0.8130 -0.1243  0.5898
31049SOL     OW97602   2.226   7.568   8.551  0.5443 -0.3341  0.6352
31049SOL    HW197603   2.205   7.599   8.639 -1.3003 -1.0073  0.4806
31049SOL    HW297604   2.298   7.624   8.522  0.2468  0.8302  2.0292
31050SOL     OW97605   5.339   9.797   3.307  0.6663 -0.3269 -0.1412
31050SOL    HW197606   5.245   9.788   3.289  0.6768 -1.2765  0.2222
31050SOL    HW297607   5.353   9.891   3.315 -0.4366 -0.2123  0.7178
31051SOL     OW97608   9.376   4.798  10.771  0.3635 -0.0669 -0.2053
31051SOL    HW197609   9.337   4.884  10.757  0.7531  0.3002  0.9392
31051SOL    HW297610   9.302   4.738  10.769 -0.1665  0.5204  0.9806
31052SOL     OW97611   2.519   3.161   6.111  0.3724  0.2661 -0.5286
31052SOL    HW197612   2.607   3.127   6.125  0.2947  0.7323  1.3686
31052SOL    HW297613   2.461   3.091   6.140  0.2050  1.3243  1.9732
31053SOL     OW97614  10.754   3.734   1.427 -0.1800  0.1855  0.0061
31053SOL    HW197615  10.822   3.668   1.417 -0.1430  0.4029 -1.4193
31053SOL    HW297616  10.793   3.799   1.486  0.8405  0.2734 -0.7282
31054SOL     OW97617   9.207   3.615   7.211  0.1567 -0.2010 -0.1604
31054SOL    HW197618   9.231   3.557   7.284 -0.0209 -0.5127 -0.3446
31054SOL    HW297619   9.152   3.560   7.155  0.3461  0.0189 -0.5628
31055SOL     OW97620   3.621   8.563   9.296 -0.6085 -0.0784 -0.2864
31055SOL    HW197621   3.656   8.614   9.370 -0.5392 -0.2308 -0.2135
31055SOL    HW297622   3.686   8.494   9.283 -1.4255 -1.0461  0.5746
31056SOL     OW97623   8.793   2.432   8.096  0.1343 -0.3338  0.5669
31056SOL    HW197624   8.803   2.354   8.043  1.5775 -0.1111  0.4795
31056SOL    HW297625   8.821   2.405   8.184 -1.3065 -0.4410  1.0193
31057SOL     OW97626   6.889   3.677   1.697  0.3750  0.1639  0.3641
31057SOL    HW197627   6.822   3.613   1.722  0.2588  0.0481 -0.2160
31057SOL    HW297628   6.967   3.625   1.680  1.0611  0.4308  2.4667
31058SOL     OW97629  10.449   5.788   1.388 -0.2179  0.3592  0.2590
31058SOL    HW197630  10.494   5.801   1.471  0.7605  0.9603 -0.3478
31058SOL    HW297631  10.417   5.697   1.392  2.5019 -0.6850  0.0633
31059SOL     OW97632   1.603  10.622   2.806  0.4037  0.2635  0.1267
31059SOL    HW197633   1.619  10.716   2.807 -0.5737  0.4451  0.1504
31059SOL    HW297634   1.560  10.606   2.722 -0.1839 -0.0184  0.4756
31060SOL     OW97635   3.633   0.423  10.297  0.0339  0.5657  0.6202
31060SOL    HW197636   3.656   0.339  10.336  1.3260  0.9760  0.7920
31060SOL    HW297637   3.559   0.455  10.348  0.4631  0.1972  1.4865
31061SOL     OW97638   3.794   3.498   0.751 -0.0872  0.1421 -0.3087
31061SOL    HW197639   3.837   3.470   0.832 -1.0191 -0.6030 -0.0442
31061SOL    HW297640   3.817   3.431   0.687 -1.0246 -0.4174 -0.0928
31062SOL     OW97641   5.268   3.498   8.575  0.1003 -0.2190 -0.7297
31062SOL    HW197642   5.197   3.436   8.596  0.4151 -0.1570  0.6433
31062SOL    HW297643   5.256   3.569   8.638  0.9556  0.1445 -0.9686
31063SOL     OW97644  10.921   5.107   0.640 -0.1779  0.2216 -0.4830
31063SOL    HW197645  10.894   5.194   0.611  0.7218  0.7298  0.1709
31063SOL    HW297646  10.940   5.117   0.733 -0.9844 -0.9077 -0.1700
31064SOL     OW97647   0.415   1.765   5.768  0.0126 -0.4483  0.2361
31064SOL    HW197648   0.345   1.791   5.707 -1.6298 -0.0084  2.2047
31064SOL    HW297649   0.452   1.848   5.798 -0.6004 -0.5611  1.3620
31065SOL     OW97650   7.727   6.290   0.905 -0.2727  0.4877 -0.0105
31065SOL    HW197651   7.640   6.277   0.944 -0.9370  2.3249 -0.7981
31065SOL    HW297652   7.776   6.336   0.973 -0.0947 -0.0224  0.2102
31066SOL     OW97653   3.755   0.008   6.386 -0.0494 -0.4054  0.7365
31066SOL    HW197654   3.704  -0.072   6.372 -0.6133  0.1186 -0.3277
31066SOL    HW297655   3.817   0.010   6.313 -1.0986  0.8982 -0.1934
31067SOL     OW97656  10.022   0.528   7.018 -0.1494  0.1868  0.0795
31067SOL    HW197657   9.952   0.571   7.067  0.8783  2.4151 -0.2555
31067SOL    HW297658  10.102   0.570   7.050  1.2928 -3.2603  1.5096
31068SOL     OW97659   7.869   2.955   4.430  0.3074  0.0360 -0.1723
31068SOL    HW197660   7.863   2.942   4.335 -1.2197  0.6106 -0.1871
31068SOL    HW297661   7.887   3.049   4.440  0.4774 -0.0257  0.1176
31069SOL     OW97662   8.261   9.841   6.048  0.4729 -0.5606 -0.1797
31069SOL    HW197663   8.199   9.793   5.992 -1.7166  2.1884 -0.3258
31069SOL    HW297664   8.296   9.910   5.993  0.0964  0.7499  1.1457
31070SOL     OW97665   8.788   4.779   4.532  0.0044  0.3911 -0.5867
31070SOL    HW197666   8.858   4.840   4.508  0.1753 -0.2687 -1.8586
31070SOL    HW297667   8.807   4.755   4.623  1.4777  0.1865 -0.9241
31071SOL     OW97668   4.211   0.903   6.051  0.1598  0.2783  0.1440
31071SOL    HW197669   4.196   0.985   6.004  2.2106  1.2939  1.1391
31071SOL    HW297670   4.154   0.839   6.007  0.3039  1.6615 -2.2215
31072SOL     OW97671   8.672   4.670   6.185  0.3036 -0.4720  0.6417
31072SOL    HW197672   8.710   4.593   6.142  0.8043 -0.4563  1.0434
31072SOL    HW297673   8.597   4.636   6.233  0.0218 -0.5685  0.1433
31073SOL     OW97674   3.092   3.461   7.810 -0.4335  0.0695  0.0621
31073SOL    HW197675   3.113   3.492   7.722  2.1409 -0.7975  0.3008
31073SOL    HW297676   3.075   3.367   7.798 -1.1161  0.1510  0.3583
31074SOL     OW97677   7.279   6.125   6.491 -0.3042  0.3908 -0.0637
31074SOL    HW197678   7.270   6.050   6.550  0.5349 -0.2565 -0.7418
31074SOL    HW297679   7.293   6.086   6.405 -0.0010  1.3340 -0.4474
31075SOL     OW97680   1.230  10.254   0.591 -0.3020  0.0340  0.4477
31075SOL    HW197681   1.161  10.222   0.532  1.1580  0.4596 -1.5982
31075SOL    HW297682   1.249  10.180   0.649 -0.3450 -1.1628 -1.0105
31076SOL     OW97683   9.055   8.479   7.665 -0.1706  0.4765 -0.3301
31076SOL    HW197684   9.009   8.473   7.749  0.0750  2.3319 -0.0068
31076SOL    HW297685   8.996   8.528   7.609  0.2002  0.3470 -0.8405
31077SOL     OW97686   1.088  10.124   3.221 -0.7866 -0.4722  0.3607
31077SOL    HW197687   1.082  10.218   3.240 -0.0567 -0.4692  0.5998
31077SOL    HW297688   1.128  10.120   3.134 -2.5453 -0.5322 -0.4980
31078SOL     OW97689   9.528   3.682   0.953 -0.0487 -0.2546  0.0866
31078SOL    HW197690   9.536   3.615   0.885  0.5335  0.8672 -1.0178
31078SOL    HW297691   9.461   3.650   1.012 -2.5012 -0.1761 -2.4212
31079SOL     OW97692   7.526   2.655   1.322  0.3568 -0.1367  0.1501
31079SOL    HW197693   7.608   2.605   1.319 -0.8281 -2.1597 -0.8478
31079SOL    HW297694   7.500   2.664   1.231 -0.3936  0.7165  0.4368
31080SOL     OW97695   6.367   0.136   1.983  0.2251  0.3627 -0.5195
31080SOL    HW197696   6.378   0.219   1.938 -0.3615  0.0420 -1.2676
31080SOL    HW297697   6.429   0.140   2.056 -0.8346  2.0761  0.3608
31081SOL     OW97698   1.875   0.140   7.958 -0.0316 -0.3321  0.4185
31081SOL    HW197699   1.911   0.082   8.025 -1.2726 -0.8487  0.6715
31081SOL    HW297700   1.838   0.082   7.892 -0.0261  0.1741 -0.0448
31082SOL     OW97701   3.755   8.184   4.050 -0.5132  0.3758 -0.1222
31082SOL    HW197702   3.691   8.207   3.983 -0.4748 -1.8037 -0.9765
31082SOL    HW297703   3.774   8.091   4.036  0.9767  0.3249  1.6841
31083SOL     OW97704   4.333   5.009   6.646 -0.1649 -0.4436  0.2279
31083SOL    HW197705   4.247   5.029   6.683  0.5367 -0.3378  1.8989
31083SOL    HW297706   4.319   5.004   6.552 -1.8886  0.1184  0.4355
31084SOL     OW97707   2.802  10.895   3.572  0.5696  0.6377  0.0138
31084SOL    HW197708   2.846  10.923   3.652  0.0099 -0.2932  0.6693
31084SOL    HW297709   2.721  10.853   3.602  2.3255 -3.7691 -0.6246
31085SOL     OW97710   1.498   3.816   4.438 -0.1353  0.4993 -0.4066
31085SOL    HW197711   1.550   3.856   4.508  0.2958  1.9368 -1.4946
31085SOL    HW297712   1.407   3.830   4.465  0.0308  0.4981  0.1621
31086SOL     OW97713   4.481   7.800   0.040  0.1393 -0.4527 -0.5134
31086SOL    HW197714   4.427   7.879   0.033  0.9254  0.2285  0.7068
31086SOL    HW297715   4.436   7.745   0.104  0.8729  0.1462  0.5578
31087SOL     OW97716   0.157   3.887   4.780  0.1911  0.5327 -0.4486
31087SOL    HW197717   0.233   3.916   4.831  0.8366 -0.8868 -0.5659
31087SOL    HW297718   0.123   3.813   4.829  1.4949 -1.6043 -2.5633
31088SOL     OW97719   1.646   3.420   5.816 -0.0392 -0.0269  0.4738
31088SOL    HW197720   1.723   3.365   5.802 -0.9400 -2.4107  3.8171
31088SOL    HW297721   1.575   3.374   5.771 -0.5029 -0.8573  2.0006
31089SOL     OW97722   0.984   2.265   1.849  0.4113 -0.4025 -0.3186
31089SOL    HW197723   0.969   2.183   1.802  0.1043 -0.8333  0.5240
31089SOL    HW297724   0.901   2.284   1.892  0.9033 -0.3858  0.6290
31090SOL     OW97725  10.848   4.622   1.585  0.1553 -0.7915  0.0060
31090SOL    HW197726  10.773   4.580   1.543 -0.9149  1.0713 -0.0562
31090SOL    HW297727  10.923   4.596   1.531 -0.7435 -0.9585 -1.2135
31091SOL     OW97728   6.738  10.475   7.909 -0.7508  0.5191 -0.4488
31091SOL    HW197729   6.743  10.526   7.990  0.5585  0.9901 -0.7994
31091SOL    HW297730   6.666  10.414   7.923  1.1650 -1.3792  2.2240
31092SOL     OW97731   3.038   9.854   2.747 -0.3607  0.9140 -0.2115
31092SOL    HW197732   3.129   9.826   2.757 -0.8181  0.0072  1.9025
31092SOL    HW297733   3.035   9.941   2.786 -0.7557  0.1627  1.5006
31093SOL     OW97734   0.921   0.185   9.858 -0.5628 -0.1746  0.1729
31093SOL    HW197735   0.936   0.279   9.868 -1.0070 -0.1387  0.5538
31093SOL    HW297736   1.006   0.145   9.877 -0.7542  0.0532  1.6479
31094SOL     OW97737   4.947   9.477   9.799 -0.1809 -0.1901  0.1540
31094SOL    HW197738   4.986   9.522   9.724 -0.0480 -0.2716  0.1734
31094SOL    HW297739   4.987   9.519   9.875 -1.1167  0.6425  0.2138
31095SOL     OW97740  10.527   4.316   6.281  0.1303  0.3552  0.5522
31095SOL    HW197741  10.508   4.225   6.258  2.0360  0.1976 -0.5831
31095SOL    HW297742  10.466   4.368   6.228 -0.6574 -0.2355  0.8733
31096SOL     OW97743   4.942   5.317   4.192  0.5160 -0.0696 -0.2859
31096SOL    HW197744   4.927   5.324   4.287 -1.5780 -0.4125 -0.5463
31096SOL    HW297745   4.999   5.391   4.171  1.9310 -0.6186  1.3950
31097SOL     OW97746   1.908   7.421   8.398 -0.0737  0.0932  0.1557
31097SOL    HW197747   1.877   7.410   8.308 -0.6762  1.3421  0.1940
31097SOL    HW297748   1.916   7.516   8.409  0.9153 -0.0782  1.1223
31098SOL     OW97749   1.293   6.387   0.645  0.4644  1.1746 -0.1460
31098SOL    HW197750   1.261   6.346   0.725 -0.9434 -2.9661 -2.5103
31098SOL    HW297751   1.214   6.420   0.602  0.6684  0.0832 -1.4105
31099SOL     OW97752   6.808   4.331   3.624 -0.4109 -0.0342  0.2364
31099SOL    HW197753   6.887   4.278   3.633 -0.1389  0.2714 -0.3160
31099SOL    HW297754   6.778   4.316   3.535 -1.6472 -1.0539  0.7929
31100SOL     OW97755   8.962  10.005   8.048 -0.6012 -0.0204  0.0369
31100SOL    HW197756   8.978  10.083   7.995  1.0584  0.3797  1.0561
31100SOL    HW297757   8.938  10.039   8.134 -0.0059 -0.6362  0.4485
31101SOL     OW97758   4.375   1.987   8.352 -0.2820 -0.3967  0.0116
31101SOL    HW197759   4.365   2.060   8.291 -0.0494  0.5519  1.0914
31101SOL    HW297760   4.322   1.917   8.313 -2.7870  1.1911  0.3240
31102SOL     OW97761  10.282   0.858   7.039  0.2344  0.6872 -0.5471
31102SOL    HW197762  10.261   0.793   7.105  0.0020 -0.8882 -2.0853
31102SOL    HW297763  10.354   0.909   7.077 -0.7398  0.6981  1.3926
31103SOL     OW97764   2.104   1.332   7.362 -0.4760  0.0042  0.2619
31103SOL    HW197765   2.163   1.276   7.310 -1.6461  0.6056 -1.8454
31103SOL    HW297766   2.114   1.300   7.452  1.7538 -1.0342 -0.2666
31104SOL     OW97767   0.256   1.203   5.413 -0.6916 -0.2239 -0.7133
31104SOL    HW197768   0.337   1.154   5.425 -0.3377  0.4325 -0.3588
31104SOL    HW297769   0.223   1.173   5.328 -0.0201 -0.4200 -0.9160
31105SOL     OW97770   1.632   7.052  11.009 -0.4075 -0.1880  0.0197
31105SOL    HW197771   1.694   6.979  11.012  0.9247  0.9146  0.0350
31105SOL    HW297772   1.548   7.012  11.033  0.1702 -1.8188 -0.5040
31106SOL     OW97773  11.053   4.956   2.744  0.2659 -0.2162  0.0811
31106SOL    HW197774  11.040   4.952   2.839  0.0545 -2.0207  0.0216
31106SOL    HW297775  11.147   4.971   2.733  0.4724 -1.0655  0.5910
31107SOL     OW97776   9.194   3.901   5.558 -0.1803 -0.2408 -0.1851
31107SOL    HW197777   9.190   3.811   5.590  0.5188 -0.0175  0.5470
31107SOL    HW297778   9.247   3.896   5.478  1.1007 -0.2662  0.6545
31108SOL     OW97779   9.198   9.491   9.150 -0.5598  1.1263 -0.1942
31108SOL    HW197780   9.244   9.522   9.228 -0.8490 -2.0622  1.4021
31108SOL    HW297781   9.267   9.466   9.090 -0.2910  1.1327  0.1106
31109SOL     OW97782   4.109   3.819   7.173 -0.2867 -0.2834  0.3082
31109SOL    HW197783   4.153   3.820   7.258  2.4983  1.0541 -1.0135
31109SOL    HW297784   4.178   3.839   7.110 -2.1550 -1.5657 -2.3527
31110SOL     OW97785   6.936   7.189   5.495  0.6541  0.5714 -0.1538
31110SOL    HW197786   6.988   7.194   5.576 -1.0714  0.6612  1.0039
31110SOL    HW297787   6.914   7.096   5.486 -1.5087  0.9034  1.0982
31111SOL     OW97788   4.463   2.345   2.864 -0.4242 -0.5259  0.1641
31111SOL    HW197789   4.442   2.352   2.770  1.1132 -2.6523 -0.4333
31111SOL    HW297790   4.495   2.255   2.874  0.1967 -0.0983  2.6022
31112SOL     OW97791   4.464   5.796   0.789  0.0488  0.6505 -0.5205
31112SOL    HW197792   4.546   5.771   0.747 -0.6160 -0.4793 -1.2152
31112SOL    HW297793   4.489   5.856   0.859  1.6201 -0.8451  0.2664
31113SOL     OW97794  10.625   4.607   4.648  0.0249 -0.5226 -0.2982
31113SOL    HW197795  10.674   4.527   4.635 -0.7065 -0.5887 -3.2055
31113SOL    HW297796  10.592   4.630   4.562 -1.9913  1.4974  0.8938
31114SOL     OW97797   9.931  10.060   6.868  0.2005 -0.5037  0.2339
31114SOL    HW197798   9.868  10.122   6.832  0.6370  0.4573  1.0757
31114SOL    HW297799  10.016  10.104   6.860  0.5259 -1.0034  0.7982
31115SOL     OW97800   4.877   5.227   1.172 -0.3993 -0.0445 -0.2070
31115SOL    HW197801   4.808   5.213   1.107  0.3553  0.4718 -1.1445
31115SOL    HW297802   4.881   5.322   1.183  0.3810 -0.0404 -0.4279
31116SOL     OW97803  10.753   5.457   4.637 -0.4944 -0.2233 -0.3354
31116SOL    HW197804  10.669   5.502   4.633 -0.1285  0.4773 -0.3604
31116SOL    HW297805  10.818   5.528   4.640  0.0660 -0.7492  0.2934
31117SOL     OW97806   6.869   6.297   2.717 -0.0802  0.3775  0.5905
31117SOL    HW197807   6.847   6.342   2.635  1.6110  0.9590  0.4197
31117SOL    HW297808   6.957   6.261   2.702  0.0261  0.0163  1.9621
31118SOL     OW97809   3.314   4.969   7.689  0.0671 -0.4240 -0.0398
31118SOL    HW197810   3.337   5.013   7.607 -1.4496 -0.7566 -0.6804
31118SOL    HW297811   3.237   4.917   7.667 -1.5791  0.9716  2.0458
31119SOL     OW97812   1.234   8.349   2.750 -0.0381  0.2715  0.1192
31119SOL    HW197813   1.151   8.381   2.786 -0.6326 -0.6039 -0.4271
31119SOL    HW297814   1.273   8.424   2.706 -0.5387  0.6922  0.3979
31120SOL     OW97815   2.009   7.546  10.078 -0.3262 -0.0179  0.1462
31120SOL    HW197816   2.008   7.549   9.982 -2.0399 -1.8201  0.0454
31120SOL    HW297817   2.102   7.542  10.101  0.1005  0.0938 -1.4533
31121SOL     OW97818   4.116   9.435   4.011 -0.5256  0.1718  0.1983
31121SOL    HW197819   4.061   9.358   3.998  0.4965 -0.3877 -1.0203
31121SOL    HW297820   4.200   9.401   4.039 -0.4545  0.9495  0.9873
31122SOL     OW97821   0.830   2.949  10.092  0.7850  0.8057  0.2870
31122SOL    HW197822   0.876   2.954  10.176 -0.7602  0.1606  1.2160
31122SOL    HW297823   0.833   2.857  10.069  0.9556  0.9393 -0.2395
31123SOL     OW97824   4.442   2.944   4.315  0.0183  0.2703 -0.1245
31123SOL    HW197825   4.395   2.958   4.233  0.9020 -2.8087 -1.3275
31123SOL    HW297826   4.509   3.012   4.316  0.7564 -0.2858 -2.6738
31124SOL     OW97827   8.821   8.544   0.823  0.2041  0.0577 -0.6937
31124SOL    HW197828   8.832   8.453   0.793 -0.7917  0.7015 -3.3003
31124SOL    HW297829   8.889   8.592   0.776  2.3553  0.4572  2.4852
31125SOL     OW97830   8.185   7.643   9.330 -0.6771  0.2347 -0.3371
31125SOL    HW197831   8.147   7.622   9.245  1.0247 -2.1493 -0.6240
31125SOL    HW297832   8.156   7.572   9.387 -0.2477  0.7752  0.5780
31126SOL     OW97833   5.610   9.932   0.477 -0.6132 -0.0834 -0.3346
31126SOL    HW197834   5.601   9.864   0.543 -2.1725 -0.6016 -1.0412
31126SOL    HW297835   5.565  10.008   0.514  0.0084  0.1843 -0.0995
31127SOL     OW97836   1.277   7.076   8.753  0.5749  0.5855  0.4812
31127SOL    HW197837   1.324   7.132   8.815 -0.2864  1.4774  0.3504
31127SOL    HW297838   1.188   7.072   8.788  0.6604 -0.8903  0.5991
31128SOL     OW97839  10.226   0.108   8.674 -0.0566 -0.3991 -0.4462
31128SOL    HW197840  10.196   0.195   8.700  1.8863  0.0055  0.6483
31128SOL    HW297841  10.184   0.049   8.736 -0.5439 -0.1330 -0.5178
31129SOL     OW97842   6.091   9.141   7.975  0.1586  0.2320  0.2565
31129SOL    HW197843   6.028   9.205   8.007  0.9775  0.7751  0.8355
31129SOL    HW297844   6.053   9.107   7.894 -0.0082  1.8888 -0.3885
31130SOL     OW97845   9.102   8.381   9.024 -0.3931  0.0002  0.2294
31130SOL    HW197846   9.071   8.370   8.934 -0.4770  0.6583  0.1732
31130SOL    HW297847   9.031   8.427   9.068  0.3563  1.2363  0.1812
31131SOL     OW97848   9.698   2.891   1.500 -0.2935  0.0627 -1.0284
31131SOL    HW197849   9.640   2.901   1.425 -0.4817  0.4678 -0.8355
31131SOL    HW297850   9.649   2.927   1.574  0.7535  1.8089 -1.1209
31132SOL     OW97851  10.317   5.941   0.558  1.1003 -0.0383  0.2489
31132SOL    HW197852  10.318   6.030   0.594 -0.8730  0.0505  0.1830
31132SOL    HW297853  10.380   5.944   0.486  0.6024  1.5171 -0.1787
31133SOL     OW97854   7.324   9.396   6.924 -0.2335  0.5528 -0.2265
31133SOL    HW197855   7.332   9.324   6.862  0.3236 -0.1612  0.6403
31133SOL    HW297856   7.413   9.426   6.939 -0.3067  0.4299  0.5391
31134SOL     OW97857   4.371   9.841   4.665 -0.0071 -0.4015  0.4059
31134SOL    HW197858   4.439   9.884   4.614  1.4212 -2.3133  0.5618
31134SOL    HW297859   4.419   9.797   4.735 -1.7073  0.4525  2.2061
31135SOL     OW97860   8.029   2.748   1.049 -0.1045 -0.1490 -0.4212
31135SOL    HW197861   7.938   2.755   1.079  0.0439 -1.5854  0.4930
31135SOL    HW297862   8.040   2.655   1.030  0.6078  0.3177 -2.5108
31136SOL     OW97863   9.688   4.463   9.926  0.1661 -0.1969  0.3940
31136SOL    HW197864   9.760   4.518   9.955 -1.0330  1.5359  0.2568
31136SOL    HW297865   9.712   4.436   9.837  0.7165  0.2533  0.4011
31137SOL     OW97866  10.268   0.643  10.095  0.5466  0.6263 -0.3775
31137SOL    HW197867  10.291   0.550  10.092  3.7852  1.3629 -1.5563
31137SOL    HW297868  10.265   0.664  10.189 -1.0597 -0.7563 -0.0631
31138SOL     OW97869   3.797   4.232   4.496  0.0495 -0.1839 -0.2459
31138SOL    HW197870   3.757   4.306   4.542  1.2812  0.0330  0.5152
31138SOL    HW297871   3.836   4.179   4.565  0.9344 -0.4686 -0.9471
31139SOL     OW97872   8.547   2.711   4.971 -0.2693 -0.0132 -0.3119
31139SOL    HW197873   8.581   2.766   5.041  1.1236 -0.0414 -0.9442
31139SOL    HW297874   8.565   2.621   5.000  0.2058 -0.0290 -0.6501
31140SOL     OW97875  10.148   6.013  11.061 -0.1724 -0.5903  0.1383
31140SOL    HW197876  10.092   6.091  11.061  1.8757  0.9817  0.5299
31140SOL    HW297877  10.166   5.996  10.968  2.4165  1.8713  0.0389
31141SOL     OW97878   6.043   7.227   8.918 -0.2899  0.3680 -0.1335
31141SOL    HW197879   6.136   7.220   8.942 -0.2199 -0.6720 -0.6396
31141SOL    HW297880   6.045   7.255   8.826 -0.4348 -0.9155 -0.5445
31142SOL     OW97881   1.036   5.829   3.073 -0.2437 -0.3589 -0.3604
31142SOL    HW197882   1.116   5.839   3.125  0.9096  0.8692 -2.2503
31142SOL    HW297883   1.028   5.735   3.058  0.4570 -0.5498  0.3766
31143SOL     OW97884   1.405   3.094   2.068  0.2378  0.1595  0.1818
31143SOL    HW197885   1.445   3.048   2.142 -0.8902 -0.3004  0.5176
31143SOL    HW297886   1.380   3.024   2.007 -1.6883  0.2580  0.7920
31144SOL     OW97887   4.042   6.280   6.841  0.6279 -0.6064 -0.0852
31144SOL    HW197888   4.101   6.218   6.798  1.9666  0.3463  0.3284
31144SOL    HW297889   4.060   6.269   6.934  0.9336  0.4343 -0.0088
31145SOL     OW97890   0.288   1.249   7.608  0.2175  0.0449 -0.3705
31145SOL    HW197891   0.205   1.202   7.600  0.2818 -0.2667  0.6177
31145SOL    HW297892   0.351   1.194   7.561 -0.2646  0.6697 -1.7796
31146SOL     OW97893   0.145   1.210   3.438  0.1710  0.3163 -0.6564
31146SOL    HW197894   0.085   1.269   3.392 -1.9214 -0.8324  0.4016
31146SOL    HW297895   0.130   1.125   3.397  0.7891 -0.0596 -0.1121
31147SOL     OW97896   9.664   0.615   7.647 -0.7039  0.5978  0.0704
31147SOL    HW197897   9.665   0.687   7.710  1.5100 -0.0256  0.8329
31147SOL    HW297898   9.629   0.655   7.567  0.6601  2.6004  0.3915
31148SOL     OW97899  10.512   5.697   5.208  0.3673  0.1450  0.4053
31148SOL    HW197900  10.574   5.769   5.211  1.0632 -0.4537  0.9224
31148SOL    HW297901  10.558   5.627   5.163  0.3184 -0.5154  1.3438
31149SOL     OW97902  10.038   2.949   0.709 -0.1396  0.7901  0.1794
31149SOL    HW197903  10.102   2.891   0.668 -0.6142 -0.0288  0.5484
31149SOL    HW297904  10.036   3.027   0.654  0.2542  0.2931 -0.5490
31150SOL     OW97905   5.579  10.213  10.261  0.6699 -0.1652  0.6591
31150SOL    HW197906   5.626  10.291  10.231 -0.3564  0.2614  0.1099
31150SOL    HW297907   5.594  10.148  10.193 -1.8443  0.8728 -0.9855
31151SOL     OW97908   6.603   4.438   9.373  0.0371 -0.0386 -0.0412
31151SOL    HW197909   6.514   4.463   9.399 -0.7916 -0.0607 -2.5976
31151SOL    HW297910   6.635   4.383   9.445 -1.4358  1.1383  1.6034
31152SOL     OW97911   8.761   6.892   9.795  0.0403 -0.3314  0.1901
31152SOL    HW197912   8.758   6.864   9.703  2.1671  0.6619 -0.2347
31152SOL    HW297913   8.682   6.855   9.834 -1.0514 -0.5547 -2.0990
31153SOL     OW97914   9.619   6.933   2.959  0.7850  0.3575 -0.2900
31153SOL    HW197915   9.636   7.012   2.907 -0.8548  1.9905  1.4810
31153SOL    HW297916   9.543   6.893   2.919  0.4115  0.8047 -0.0419
31154SOL     OW97917   3.765   7.215   4.868  0.1371 -0.2832  0.1580
31154SOL    HW197918   3.673   7.209   4.894 -0.0881 -0.9365 -0.7608
31154SOL    HW297919   3.787   7.307   4.882 -1.2928  0.3978 -1.6908
31155SOL     OW97920   3.606   3.885   5.213  0.0042  0.6859  0.1054
31155SOL    HW197921   3.672   3.932   5.265  0.9835 -0.8554  0.3172
31155SOL    HW297922   3.643   3.882   5.125  0.3376 -0.3270  0.2618
31156SOL     OW97923   6.505   2.583   2.108  0.3487  0.6329  0.1997
31156SOL    HW197924   6.414   2.562   2.130  0.5078 -0.1807  0.1133
31156SOL    HW297925   6.507   2.678   2.103 -1.0930  0.6367 -2.2971
31157SOL     OW97926   2.649   8.421   9.460  0.3971  0.5029 -0.3028
31157SOL    HW197927   2.609   8.343   9.422  0.1773 -0.3165  1.4836
31157SOL    HW297928   2.580   8.487   9.458  0.2491  0.3317 -0.8756
31158SOL     OW97929   4.065   3.732   4.598 -0.0231 -0.2958 -0.1085
31158SOL    HW197930   4.026   3.654   4.559 -1.4384  0.0991  0.4805
31158SOL    HW297931   4.136   3.698   4.652 -0.1362 -1.1025 -0.4470
31159SOL     OW97932   3.928   0.570   5.234  0.2994 -0.1492 -0.2327
31159SOL    HW197933   3.950   0.491   5.283  0.2948 -1.2073 -1.8656
31159SOL    HW297934   3.835   0.585   5.252 -0.3666 -2.0048 -1.8660
31160SOL     OW97935   8.198   0.754   3.090  0.8374 -0.3924 -0.6406
31160SOL    HW197936   8.190   0.660   3.074 -0.9424 -0.2159 -1.0657
31160SOL    HW297937   8.176   0.794   3.006  0.5920  0.4104 -0.2079
31161SOL     OW97938   4.583   9.199   4.659 -0.6330 -0.2768 -0.4337
31161SOL    HW197939   4.496   9.181   4.623 -1.2520  1.4527  0.0594
31161SOL    HW297940   4.637   9.221   4.582 -0.5722 -1.5012 -0.7542
31162SOL     OW97941   8.475   0.073   5.333 -0.0492 -0.2048 -0.0500
31162SOL    HW197942   8.562   0.035   5.333  0.8076  1.6500 -0.9611
31162SOL    HW297943   8.481   0.149   5.275 -1.9721  0.6215  0.7346
31163SOL     OW97944   8.237   7.182   6.296 -0.1603 -0.3271  0.6715
31163SOL    HW197945   8.210   7.274   6.291 -0.2578 -0.4061 -0.8700
31163SOL    HW297946   8.332   7.185   6.295 -0.1617 -0.2265  0.8975
31164SOL     OW97947   0.063   0.452  10.697 -0.0961  0.1762  0.1028
31164SOL    HW197948   0.046   0.467  10.604  1.6750 -1.3878 -0.5210
31164SOL    HW297949   0.122   0.377  10.700 -0.4445 -0.0972  2.5296
31165SOL     OW97950   0.729   8.489   6.714 -0.8081  0.0217  0.0914
31165SOL    HW197951   0.736   8.397   6.687 -1.7328 -0.3240  0.9948
31165SOL    HW297952   0.774   8.492   6.798  1.0375  0.8592 -0.8553
31166SOL     OW97953   4.860   2.690   9.770  0.1795 -0.2485 -0.8527
31166SOL    HW197954   4.948   2.722   9.786  0.2448 -0.9132  0.1225
31166SOL    HW297955   4.860   2.665   9.677  0.3754  1.7237 -1.4329
31167SOL     OW97956   2.467   7.968   0.757  0.6607  0.3757 -0.0906
31167SOL    HW197957   2.535   7.915   0.716  0.5697  1.4821 -1.7544
31167SOL    HW297958   2.387   7.946   0.710  0.3985  1.1217 -0.0058
31168SOL     OW97959   4.086   7.850   8.907  0.2737 -0.5736 -0.5271
31168SOL    HW197960   4.104   7.917   8.841 -3.6267  1.8385  0.5506
31168SOL    HW297961   4.162   7.854   8.966  1.3390  1.0292 -1.8934
31169SOL     OW97962   6.792   9.628   7.028 -0.3408 -0.5330 -0.4685
31169SOL    HW197963   6.862   9.571   7.061 -0.2715 -0.0483  0.2351
31169SOL    HW297964   6.792   9.613   6.933 -1.6496 -3.2348 -0.1458
31170SOL     OW97965  11.051  11.053   5.692  0.3683 -0.7006 -0.7551
31170SOL    HW197966  11.017  11.074   5.605 -1.2588 -2.4243 -0.5865
31170SOL    HW297967  11.011  11.117   5.750  1.7031  0.6552 -1.2703
31171SOL     OW97968   0.724  10.970   3.042  0.0828 -0.4282 -0.5892
31171SOL    HW197969   0.793  10.927   2.991  0.8726 -1.3710  1.1934
31171SOL    HW297970   0.770  11.024   3.106 -0.8623 -0.0055 -0.2383
31172SOL     OW97971   3.390   0.200   8.936  0.0986 -0.3037  0.0082
31172SOL    HW197972   3.314   0.241   8.896 -0.8321 -2.4507 -0.5764
31172SOL    HW297973   3.383   0.221   9.029  0.2652  1.6705 -0.3756
31173SOL     OW97974   2.711   5.908   5.246 -0.4754  0.3550 -0.3805
31173SOL    HW197975   2.759   5.863   5.315 -1.3172  1.3293  0.8720
31173SOL    HW297976   2.770   5.905   5.170  0.8808  0.1112  0.6492
31174SOL     OW97977   1.799   2.719   7.594  0.1525  0.2334 -0.2490
31174SOL    HW197978   1.875   2.712   7.536 -0.3100  0.0792 -0.8372
31174SOL    HW297979   1.793   2.633   7.636 -0.4788 -0.1844 -1.1816
31175SOL     OW97980   3.783   5.880   3.806 -0.1680  0.3711  0.2743
31175SOL    HW197981   3.726   5.851   3.735 -0.3697  0.8886  0.2143
31175SOL    HW297982   3.872   5.868   3.773 -0.2264 -0.9114  0.5579
31176SOL     OW97983   1.511   5.407   2.243  0.1523  0.5486 -0.3716
31176SOL    HW197984   1.473   5.495   2.238  0.4788  0.6811 -0.5789
31176SOL    HW297985   1.496   5.380   2.334 -0.9171  0.3727 -0.5908
31177SOL     OW97986   0.917   5.882   9.438  0.2527  0.0323  0.1868
31177SOL    HW197987   0.831   5.894   9.398 -0.9371 -1.2494  2.2106
31177SOL    HW297988   0.976   5.935   9.384 -1.5944  0.0905 -1.8931
31178SOL     OW97989   5.234   6.466   7.980 -0.4274  0.2084  0.1766
31178SOL    HW197990   5.270   6.551   8.007 -2.2360  1.4700 -1.1122
31178SOL    HW297991   5.211   6.422   8.062  0.4699  0.9845  0.8669
31179SOL     OW97992   1.521   1.449   0.574 -0.2936 -0.0535 -0.1980
31179SOL    HW197993   1.491   1.495   0.495 -0.2283 -0.0263 -0.2067
31179SOL    HW297994   1.563   1.370   0.541 -1.4883 -0.7317 -0.1343
31180SOL     OW97995   5.985   4.647  10.711  0.7656 -0.0394  0.0545
31180SOL    HW197996   5.993   4.742  10.701  0.1625 -0.0145 -0.2525
31180SOL    HW297997   5.910   4.624  10.655  2.4196 -1.0395 -1.8835
31181SOL     OW97998   4.188   2.784   7.426  0.0849  0.0297  0.3095
31181SOL    HW197999   4.220   2.738   7.349 -0.2665  0.5317 -0.1482
31181SOL    HW298000   4.247   2.859   7.435 -1.1348  1.1994 -0.7896
31182SOL     OW98001   1.297   6.540   8.143  0.2901  0.3947 -0.4244
31182SOL    HW198002   1.286   6.587   8.226  0.9756 -2.5456  1.4916
31182SOL    HW298003   1.222   6.482   8.138  2.2161 -2.3646  0.3347
31183SOL     OW98004   6.154   5.411   3.037  0.0931 -0.0859 -0.8215
31183SOL    HW198005   6.195   5.387   2.954  1.9888  1.1779 -0.3362
31183SOL    HW298006   6.197   5.494   3.061 -0.1607 -0.5724  1.5563
31184SOL     OW98007   2.334   9.291   1.025 -0.6272  0.0863 -0.1330
31184SOL    HW198008   2.315   9.197   1.020  0.1871 -0.0519 -0.9023
31184SOL    HW298009   2.349   9.317   0.934 -0.1969  0.8168  0.1378
31185SOL     OW98010   7.375   6.673   3.445  0.2630  0.1793 -0.3121
31185SOL    HW198011   7.435   6.742   3.418 -0.5963  0.8049 -0.6704
31185SOL    HW298012   7.404   6.649   3.533 -0.3861  2.1591  0.5086
31186SOL     OW98013   4.261   0.396   6.072  0.0212  0.0307  0.0746
31186SOL    HW198014   4.222   0.467   6.021  1.2802  1.5879  1.2113
31186SOL    HW298015   4.191   0.368   6.131 -0.3885  0.5362 -0.1630
31187SOL     OW98016   5.234   3.952   6.770 -0.4126  0.4881  0.4012
31187SOL    HW198017   5.291   3.989   6.837 -0.2414 -0.5608  0.8499
31187SOL    HW298018   5.276   3.975   6.687  1.2181 -1.0771  0.7391
31188SOL     OW98019   6.917   6.460   1.302 -0.3532  0.2403  0.1249
31188SOL    HW198020   6.894   6.415   1.384  2.7215 -1.9257 -0.0118
31188SOL    HW298021   6.946   6.547   1.329 -2.0736  0.5791  0.9672
31189SOL     OW98022   8.015  10.312   0.180  0.0552  0.6442 -0.4920
31189SOL    HW198023   8.082  10.377   0.198  2.0408 -1.4766  0.1790
31189SOL    HW298024   7.999  10.319   0.085  2.5230  0.0825 -1.0126
31190SOL     OW98025   2.746   2.514   0.259  0.3325  0.0882  0.3167
31190SOL    HW198026   2.753   2.596   0.208  0.3190 -1.3019 -2.0773
31190SOL    HW298027   2.677   2.464   0.215  0.6847 -1.4235  1.4098
31191SOL     OW98028   6.765  10.636   2.213 -0.2250  0.5490  0.2262
31191SOL    HW198029   6.857  10.660   2.203 -0.2485  0.1272 -1.1905
31191SOL    HW298030   6.767  10.553   2.262  0.1276  0.7010  0.4701
31192SOL     OW98031   7.622   4.462   1.331  0.3338 -0.2963 -0.4669
31192SOL    HW198032   7.680   4.448   1.256  0.2008 -1.0796 -0.4332
31192SOL    HW298033   7.534   4.453   1.294  0.2197  0.7969 -0.5010
31193SOL     OW98034  10.848   2.962   3.325 -0.2530  0.0784  0.0825
31193SOL    HW198035  10.868   3.031   3.389 -0.8451 -0.1489  0.5198
31193SOL    HW298036  10.754   2.967   3.312 -0.2190 -0.2719 -0.3254
31194SOL     OW98037   9.326   9.002   8.351 -0.2776 -0.5003  0.2944
31194SOL    HW198038   9.390   9.073   8.344  1.3996 -2.0366 -1.0407
31194SOL    HW298039   9.351   8.956   8.431  0.2144 -1.0166 -0.1516
31195SOL     OW98040   7.664  10.269  10.300 -0.9279  0.3466 -0.4364
31195SOL    HW198041   7.736  10.324  10.270  1.1959 -1.6152  0.6927
31195SOL    HW298042   7.662  10.282  10.395 -0.4954 -1.2752 -0.1724
31196SOL     OW98043   3.269   3.526   8.179  0.1615 -0.2547 -0.2710
31196SOL    HW198044   3.322   3.483   8.111 -0.7776 -1.0149 -0.5400
31196SOL    HW298045   3.203   3.461   8.202 -0.1681  0.3906  0.6381
31197SOL     OW98046  10.700   0.123  10.306 -0.7653  0.1565  0.3004
31197SOL    HW198047  10.627   0.095  10.251  0.9682 -1.3824 -1.3529
31197SOL    HW298048  10.672   0.102  10.395 -1.5714 -2.3556 -0.4531
31198SOL     OW98049   8.377   8.138   8.918 -0.2006 -0.2433 -0.3140
31198SOL    HW198050   8.409   8.226   8.898 -1.6466  0.0118 -1.7291
31198SOL    HW298051   8.284   8.141   8.897 -0.5682 -1.7517  0.8974
31199SOL     OW98052   9.044   3.801   7.421  0.5004  0.0665  0.3152
31199SOL    HW198053   9.128   3.785   7.377  1.5189 -0.4345  2.3295
31199SOL    HW298054   9.063   3.869   7.486 -0.7913  0.3319  0.4436
31200SOL     OW98055   0.527   9.487   2.980  0.4087 -0.6092 -0.1929
31200SOL    HW198056   0.574   9.412   2.943 -0.2350 -0.3965 -1.4765
31200SOL    HW298057   0.442   9.487   2.936 -0.2038 -0.0443  0.9444
31201SOL     OW98058   6.149   1.463   8.267  0.8006  0.5187  0.1817
31201SOL    HW198059   6.112   1.552   8.266 -2.0297 -0.5681  0.5376
31201SOL    HW298060   6.212   1.465   8.339  0.3882  2.1006  0.5583
31202SOL     OW98061   9.185   4.838   6.572  0.2300  0.2503  0.2924
31202SOL    HW198062   9.094   4.810   6.580  0.0250  0.5594 -0.7560
31202SOL    HW298063   9.187   4.926   6.609 -0.0933  0.5825 -0.4588
31203SOL     OW98064   6.039   8.262   1.034  0.0153  0.3494 -0.1889
31203SOL    HW198065   5.990   8.306   0.965 -1.7649  0.9407  1.3874
31203SOL    HW298066   6.094   8.199   0.988  0.2753  1.9889 -2.2681
31204SOL     OW98067   5.488   2.618   7.885  0.0160 -0.4964 -0.0033
31204SOL    HW198068   5.455   2.695   7.838 -0.4680 -0.6516  0.0765
31204SOL    HW298069   5.493   2.550   7.818 -0.4623 -0.6569  0.1239
31205SOL     OW98070   3.075   3.911   7.867  0.5497  0.0325 -0.7924
31205SOL    HW198071   3.104   3.882   7.954  1.4795  0.9836 -0.7648
31205SOL    HW298072   3.019   3.986   7.885  1.4314  0.7609 -1.0462
31206SOL     OW98073   3.088   2.552   4.411  0.5841  0.1992  0.8510
31206SOL    HW198074   3.172   2.512   4.432  1.1464  1.1809  0.5211
31206SOL    HW298075   3.109   2.642   4.385 -0.4895  0.2559  0.0844
31207SOL     OW98076   4.588   3.786   9.611  0.0616  0.1631 -0.0426
31207SOL    HW198077   4.644   3.857   9.642 -2.7884  2.3577  0.5683
31207SOL    HW298078   4.541   3.824   9.536  1.5090 -2.6156 -2.5603
31208SOL     OW98079   2.558   1.323  10.064  0.2860 -0.5323 -0.2820
31208SOL    HW198080   2.490   1.369  10.014  1.0569  0.1603 -0.7125
31208SOL    HW298081   2.528   1.328  10.155 -0.5872 -0.8631 -0.5356
31209SOL     OW98082   2.289   2.684   2.876 -0.4050  0.5210 -0.6622
31209SOL    HW198083   2.335   2.638   2.946  0.2902  0.5256 -1.0988
31209SOL    HW298084   2.218   2.625   2.850 -2.6947  1.8045  2.1217
31210SOL     OW98085   5.077   5.646   4.832 -0.1739  0.1291 -0.3866
31210SOL    HW198086   5.024   5.567   4.837  1.3279 -0.8966 -0.0810
31210SOL    HW298087   5.163   5.620   4.864  1.0364  1.2674 -2.4440
31211SOL     OW98088   7.886   6.989   6.013  0.0096  0.1839  0.2753
31211SOL    HW198089   7.797   7.015   6.036 -0.0488  0.4501 -0.2312
31211SOL    HW298090   7.942   7.030   6.080 -0.1229  1.2313 -0.2237
31212SOL     OW98091   0.490   9.058   5.635 -0.4419  0.0424 -0.0642
31212SOL    HW198092   0.402   9.051   5.672 -0.7181 -3.7084 -1.0144
31212SOL    HW298093   0.545   9.004   5.692  0.5531 -0.2267 -1.2270
31213SOL     OW98094   1.868   8.687  10.160  0.3732 -0.2927 -0.2173
31213SOL    HW198095   1.846   8.660  10.071 -0.0554  0.0837 -0.2231
31213SOL    HW298096   1.844   8.779  10.165  2.6196  0.3678 -0.4622
31214SOL     OW98097   1.207   8.917   9.875  0.0212  0.2474 -0.0752
31214SOL    HW198098   1.206   8.973   9.798 -0.6446 -1.7289 -1.5878
31214SOL    HW298099   1.115   8.906   9.899  0.2625  1.9125  1.9045
31215SOL     OW98100   5.203   7.042   4.368 -0.1610  0.4742  0.7043
31215SOL    HW198101   5.249   6.978   4.314 -1.8348  0.1467 -0.3816
31215SOL    HW298102   5.189   7.117   4.311 -2.6967 -0.1988  0.3316
31216SOL     OW98103   0.426   9.714   0.491 -0.6040  0.6301 -0.3784
31216SOL    HW198104   0.489   9.660   0.538 -1.4246 -0.0589 -0.0285
31216SOL    HW298105   0.475   9.791   0.463  0.5665 -0.2240 -0.7625
31217SOL     OW98106   4.816   8.908   2.066 -0.4054  0.3322  0.0616
31217SOL    HW198107   4.910   8.890   2.061  0.0587  2.4499  0.1503
31217SOL    HW298108   4.774   8.827   2.036  1.4538 -0.3499 -0.8312
31218SOL     OW98109   8.851   9.069   3.818  0.0943  0.0875 -0.2563
31218SOL    HW198110   8.937   9.105   3.837 -0.2316  1.1491 -0.7142
31218SOL    HW298111   8.850   9.058   3.723  0.0371 -0.7616 -0.1644
31219SOL     OW98112  10.817   2.024   9.319  0.0004 -0.0662  0.2598
31219SOL    HW198113  10.756   2.082   9.365 -0.6354 -0.4845 -0.0437
31219SOL    HW298114  10.865   2.081   9.259  0.1410  0.3176  0.7314
31220SOL     OW98115   0.143  10.259   1.443 -1.0089  0.6558  0.2832
31220SOL    HW198116   0.160  10.306   1.525 -0.8485  0.4322  0.3786
31220SOL    HW298117   0.144  10.327   1.376  0.3297  0.6522  0.2745
31221SOL     OW98118   2.752   1.741   8.252 -0.1595  0.2881  0.1788
31221SOL    HW198119   2.818   1.793   8.205 -0.4393  2.2322  1.7854
31221SOL    HW298120   2.802   1.694   8.319  0.5168 -3.8637 -2.8069
31222SOL     OW98121   5.295   0.994   1.440 -0.0242 -0.0694 -0.2863
31222SOL    HW198122   5.232   1.064   1.421  0.5046  0.5597  0.2205
31222SOL    HW298123   5.368   1.012   1.381  0.5142  0.3716  0.4994
31223SOL     OW98124   4.584  10.920  10.313  0.3935 -0.5342  0.1147
31223SOL    HW198125   4.615  10.837  10.278  1.8991  0.1894 -0.3556
31223SOL    HW298126   4.536  10.961  10.241  0.3252 -0.6617  0.0889
31224SOL     OW98127   9.302   0.947   8.372  0.1109 -0.1237  0.0781
31224SOL    HW198128   9.375   0.970   8.314  0.1519  1.6313  0.7805
31224SOL    HW298129   9.343   0.922   8.454 -0.0560  0.9108  0.4893
31225SOL     OW98130   7.505   5.110   6.081 -0.3770 -0.4179  0.3309
31225SOL    HW198131   7.472   5.195   6.112  3.0584  0.9851  0.6049
31225SOL    HW298132   7.477   5.106   5.989  0.5071  1.7466 -0.1114
31226SOL     OW98133   0.085   5.541   4.603 -0.2764 -0.1488  0.4596
31226SOL    HW198134   0.053   5.503   4.521 -0.9368  1.4042 -0.0255
31226SOL    HW298135   0.030   5.501   4.670 -1.4307  0.4589 -0.1075
31227SOL     OW98136   3.876   9.718   2.942 -0.2685 -0.1438  0.1045
31227SOL    HW198137   3.889   9.813   2.947 -2.3100  0.1934 -0.2341
31227SOL    HW298138   3.907   9.686   3.027 -0.8930  1.0210  0.8098
31228SOL     OW98139   9.899   8.115   8.275 -0.3640 -0.2055  0.3168
31228SOL    HW198140   9.966   8.100   8.342 -0.2380 -0.9766  0.0277
31228SOL    HW298141   9.941   8.086   8.194 -0.6370  0.4042 -0.0417
31229SOL     OW98142   9.068   2.565   7.891 -0.5537  0.4867  0.0971
31229SOL    HW198143   9.107   2.530   7.811 -1.5938  0.1952 -0.2995
31229SOL    HW298144   8.980   2.593   7.864  0.0126  2.9099  0.5012
31230SOL     OW98145   4.025   5.443   1.470 -0.0984 -0.6017  0.2727
31230SOL    HW198146   4.093   5.396   1.422 -0.3522 -0.9332  0.2352
31230SOL    HW298147   3.970   5.375   1.507 -2.2953 -0.4106 -2.3109
31231SOL     OW98148   6.072  10.298   1.106 -0.6111  0.1826 -0.0486
31231SOL    HW198149   6.088  10.273   1.015 -1.7799  0.6456 -0.3966
31231SOL    HW298150   5.978  10.312   1.111 -0.5256  0.4046  1.1790
31232SOL     OW98151   9.743  10.887   4.331 -0.3823  0.2670  0.0211
31232SOL    HW198152   9.824  10.845   4.360 -1.0795  0.1553  1.9933
31232SOL    HW298153   9.679  10.816   4.329 -1.0984  0.8257  1.4198
31233SOL     OW98154   6.456   6.973   0.793  0.1005  0.0140  0.1557
31233SOL    HW198155   6.549   6.968   0.769  0.1772  0.8020  0.2769
31233SOL    HW298156   6.418   6.894   0.754  1.0446 -0.9752  1.1778
31234SOL     OW98157   1.008   3.311   7.237  0.4877  0.2709  0.0492
31234SOL    HW198158   1.033   3.238   7.293  0.2718  1.4885  1.7920
31234SOL    HW298159   1.059   3.385   7.269 -1.4419  1.5787  0.2889
31235SOL     OW98160   2.123   1.950   3.106  0.1163 -0.4963 -0.3570
31235SOL    HW198161   2.173   1.959   3.025  0.4650 -1.1864 -0.2189
31235SOL    HW298162   2.037   1.988   3.085  0.2266 -0.6001 -1.0259
31236SOL     OW98163   6.567   1.509   2.262  0.4557 -0.1575 -0.3939
31236SOL    HW198164   6.599   1.447   2.328 -0.7824  0.4260  0.7997
31236SOL    HW298165   6.478   1.529   2.289 -0.0311  0.2433 -2.1757
31237SOL     OW98166   8.300   3.470   9.440 -0.7625 -0.4186  0.1427
31237SOL    HW198167   8.348   3.393   9.470 -0.6808 -0.6044 -0.4574
31237SOL    HW298168   8.345   3.498   9.361 -0.4853  0.5559  0.6292
31238SOL     OW98169   6.764  10.805   6.593  0.0857  0.2347  0.4882
31238SOL    HW198170   6.803  10.890   6.616  0.8465  0.3741 -1.1416
31238SOL    HW298171   6.839  10.751   6.568 -0.5950 -0.0862 -0.9427
31239SOL     OW98172   0.100  10.588   2.825  0.3420 -0.4578  0.1233
31239SOL    HW198173   0.057  10.674   2.833 -2.1226 -1.5272 -0.6632
31239SOL    HW298174   0.028  10.526   2.823  2.0385 -2.5173 -0.2214
31240SOL     OW98175   1.384   5.829  10.096 -0.0520  0.3351 -0.3822
31240SOL    HW198176   1.352   5.897  10.156  0.5541  0.6480 -0.4095
31240SOL    HW298177   1.391   5.751  10.150  2.0694  1.0065  0.3806
31241SOL     OW98178   0.419   1.129   8.032  0.7999  0.0975 -0.2897
31241SOL    HW198179   0.435   1.157   8.122 -0.6064  0.0708 -0.0071
31241SOL    HW298180   0.340   1.177   8.006 -0.2275 -1.7169 -0.6577
31242SOL     OW98181   2.424   8.004   7.119 -0.1791  0.3601 -0.2186
31242SOL    HW198182   2.472   8.028   7.040  0.2179  0.2964 -0.0009
31242SOL    HW298183   2.332   8.006   7.093 -0.1226  1.4020 -0.3992
31243SOL     OW98184   1.154   2.305   6.095 -0.1436  0.2940 -0.1397
31243SOL    HW198185   1.190   2.231   6.046  2.6956  2.0730 -0.9612
31243SOL    HW298186   1.097   2.265   6.161  0.8376 -2.5569 -0.8957
31244SOL     OW98187   5.440   2.883   7.302  0.2005 -0.4563 -0.4032
31244SOL    HW198188   5.497   2.957   7.324 -0.4652  0.0639 -0.4186
31244SOL    HW298189   5.370   2.921   7.250 -1.2332 -0.7533  1.2345
31245SOL     OW98190   9.298   6.994   4.196 -0.1193  0.2285  0.3327
31245SOL    HW198191   9.319   6.968   4.106 -1.6909  1.3181 -0.4059
31245SOL    HW298192   9.366   7.057   4.220  0.1374  0.1646 -0.2163
31246SOL     OW98193   3.341   5.225   5.962  0.1809 -0.0841  0.3408
31246SOL    HW198194   3.272   5.254   5.903  0.5946  2.4723  1.0180
31246SOL    HW298195   3.294   5.176   6.031 -0.8307  0.7058  0.2365
31247SOL     OW98196   6.543   8.442   9.673 -0.3538  0.1654 -0.0254
31247SOL    HW198197   6.530   8.438   9.579  0.0567 -1.8091 -0.0387
31247SOL    HW298198   6.463   8.405   9.710  0.5030 -1.4367  0.2869
31248SOL     OW98199  10.050   3.712  10.286  0.6487 -0.7968 -0.5182
31248SOL    HW198200  10.095   3.680  10.208  1.5685 -0.4203 -0.1597
31248SOL    HW298201  10.119   3.720  10.352 -0.3355 -2.5629  0.8244
31249SOL     OW98202   8.248   4.117   4.949 -0.0556  0.5047 -0.8974
31249SOL    HW198203   8.312   4.187   4.962  0.5404 -0.0824 -0.5823
31249SOL    HW298204   8.178   4.136   5.011 -0.2010  1.1598 -1.2536
31250SOL     OW98205   8.051   4.529   8.310 -0.8601  0.0549  1.0377
31250SOL    HW198206   8.123   4.586   8.283 -0.6627 -0.5592  0.2282
31250SOL    HW298207   8.028   4.559   8.398 -1.0998  1.7031  0.4397
31251SOL     OW98208   1.883   5.104   8.690  0.1745 -0.3515 -0.3565
31251SOL    HW198209   1.901   5.030   8.633 -1.2464  0.6796 -2.2561
31251SOL    HW298210   1.888   5.068   8.779 -0.7755 -2.7819 -1.2117
31252SOL     OW98211  10.829   9.146   2.328  0.2208 -0.5845 -0.2025
31252SOL    HW198212  10.830   9.240   2.311 -2.5685 -0.4001  0.2434
31252SOL    HW298213  10.867   9.107   2.249  0.9146  0.8533 -0.6192
31253SOL     OW98214   3.491   5.068   7.036 -0.3498 -0.4560  0.0766
31253SOL    HW198215   3.479   5.018   6.955  1.8828 -0.0448 -0.5844
31253SOL    HW298216   3.519   5.002   7.100 -2.5079 -0.8488  0.6746
31254SOL     OW98217   2.754   3.863   6.283  0.5552 -0.2530  0.0608
31254SOL    HW198218   2.759   3.836   6.375  1.7236 -1.1574 -0.2445
31254SOL    HW298219   2.845   3.880   6.258  0.5730 -2.3450 -1.5813
31255SOL     OW98220   0.165   6.944   3.885 -0.1579 -0.2155 -0.7312
31255SOL    HW198221   0.118   6.873   3.930 -0.3419  0.5122  0.2602
31255SOL    HW298222   0.254   6.941   3.922 -0.4712  0.7585  0.1547
31256SOL     OW98223   9.373   6.317   3.136  0.1572 -0.7211  0.1723
31256SOL    HW198224   9.312   6.379   3.176 -1.3831 -1.4032 -1.0415
31256SOL    HW298225   9.434   6.295   3.207 -0.7841  0.2493  1.3264
31257SOL     OW98226   8.979   3.304   3.264  0.2490  0.0184  0.2494
31257SOL    HW198227   8.897   3.266   3.233  0.8474 -0.4260 -0.8552
31257SOL    HW298228   8.954   3.361   3.337 -0.9108 -0.8523  0.5458
31258SOL     OW98229   0.728   8.876   0.947 -0.4793  0.2176  0.7063
31258SOL    HW198230   0.667   8.929   0.895  0.3956 -1.0280 -1.7430
31258SOL    HW298231   0.813   8.919   0.935  0.2358 -1.6108 -1.2858
31259SOL     OW98232   6.087   0.122   5.578 -0.2318 -0.0232  0.1583
31259SOL    HW198233   6.076   0.186   5.648 -1.2946 -0.5218  0.4682
31259SOL    HW298234   6.148   0.057   5.613  0.6332  0.6582 -0.0568
31260SOL     OW98235   7.616   3.374   8.025 -0.0538 -0.0183  0.0044
31260SOL    HW198236   7.599   3.446   8.086 -2.7079  1.0570 -1.8068
31260SOL    HW298237   7.690   3.404   7.973 -0.5384  1.0174 -0.1185
31261SOL     OW98238   4.339   3.484   5.662 -0.3003  0.2758 -0.2156
31261SOL    HW198239   4.266   3.434   5.697 -0.1602  0.2953  0.1088
31261SOL    HW298240   4.373   3.430   5.591  1.1438 -1.0899  1.4377
31262SOL     OW98241   2.475  11.025   2.852 -0.0076 -0.1144 -0.2096
31262SOL    HW198242   2.419  11.040   2.775  0.4238  0.8796 -0.3425
31262SOL    HW298243   2.476  11.109   2.897  0.9021 -0.2922  0.1111
31263SOL     OW98244   6.852   6.731   4.509  0.8772  0.0545 -0.1410
31263SOL    HW198245   6.944   6.757   4.503  0.6309  0.9173 -0.3146
31263SOL    HW298246   6.841   6.667   4.438  1.4248 -0.3147  0.1014
31264SOL     OW98247   4.849   5.797   8.202  0.4155 -0.1398  0.0871
31264SOL    HW198248   4.833   5.819   8.111 -0.1413 -0.1829  0.1703
31264SOL    HW298249   4.909   5.866   8.233 -0.5651  0.7431  0.0893
31265SOL     OW98250   6.867   6.313   0.588 -0.0006 -0.5338 -0.5444
31265SOL    HW198251   6.910   6.236   0.549  0.9332  0.5158 -1.6817
31265SOL    HW298252   6.814   6.277   0.659 -0.3272 -2.3369 -1.6297
31266SOL     OW98253   2.114   6.716   0.671  0.5100  1.0082 -0.1100
31266SOL    HW198254   2.153   6.732   0.758  1.2794  0.0850 -0.2695
31266SOL    HW298255   2.148   6.631   0.645 -2.0075 -0.0919 -0.0732
31267SOL     OW98256   0.199   5.684   1.155 -0.1647 -0.4413 -0.3587
31267SOL    HW198257   0.114   5.640   1.153  0.9628 -2.7591 -0.6989
31267SOL    HW298258   0.263   5.613   1.164  1.8126  1.1321 -1.1346
31268SOL     OW98259   6.959   7.016   4.542 -0.2203  0.0067  0.1950
31268SOL    HW198260   6.973   7.103   4.578  1.3262 -0.7907  1.6290
31268SOL    HW298261   7.024   7.008   4.472 -1.3371  0.4949 -0.9521
31269SOL     OW98262   5.191   4.352   7.772 -0.3893  0.3380 -0.5083
31269SOL    HW198263   5.142   4.429   7.801 -0.3471  1.0508 -2.1961
31269SOL    HW298264   5.229   4.316   7.852 -1.4325  1.3455  0.4790
31270SOL     OW98265   5.531   5.200  11.068 -0.3491  0.0293 -0.1630
31270SOL    HW198266   5.522   5.170  10.977 -0.0962  0.2771 -0.2696
31270SOL    HW298267   5.614   5.161  11.097  0.2688  1.0732 -0.4809
31271SOL     OW98268  10.577   0.148   2.969  0.4973 -0.2013  0.0074
31271SOL    HW198269  10.565   0.239   2.998  0.8540  0.7281 -2.4758
31271SOL    HW298270  10.566   0.153   2.874 -0.0047 -2.8886 -0.1324
31272SOL     OW98271   7.635   7.122   2.970  0.2499  0.1814 -0.3978
31272SOL    HW198272   7.712   7.075   2.937 -0.6035 -1.4671 -0.1223
31272SOL    HW298273   7.653   7.214   2.948  2.2189 -0.1659 -0.4704
31273SOL     OW98274   1.471   0.964   0.510 -0.4989  0.0923 -0.0280
31273SOL    HW198275   1.537   0.895   0.516 -0.9810 -0.4448 -0.7160
31273SOL    HW298276   1.486   1.018   0.588  0.8705  0.0978 -0.2657
31274SOL     OW98277  10.892   6.457   8.363 -0.3972  0.5417 -0.1962
31274SOL    HW198278  10.856   6.413   8.441  0.7464 -1.2410 -0.6058
31274SOL    HW298279  10.946   6.527   8.398 -0.5926  0.3148  0.5936
31275SOL     OW98280   2.267   9.072   2.552  0.5080  0.0208  0.2329
31275SOL    HW198281   2.340   9.053   2.494 -0.7495  0.0587 -1.4403
31275SOL    HW298282   2.194   9.094   2.494 -1.1080 -0.9132  1.7861
31276SOL     OW98283   6.391   2.285   7.069  0.0317  0.5069  0.9142
31276SOL    HW198284   6.475   2.323   7.096  0.9044  2.3047 -3.5116
31276SOL    HW298285   6.325   2.344   7.106  0.7425  0.2681  2.6875
31277SOL     OW98286  10.832   0.474   2.433 -0.2740 -0.1874 -0.0622
31277SOL    HW198287  10.891   0.541   2.400 -1.0394  1.2042  1.2833
31277SOL    HW298288  10.889   0.398   2.450  0.3996 -0.3946 -2.7959
31278SOL     OW98289   5.755   5.473   0.982  0.6092  0.1364 -0.7221
31278SOL    HW198290   5.748   5.379   1.000 -2.7805  0.4174  0.2099
31278SOL    HW298291   5.756   5.514   1.068 -0.6884  1.0031 -1.0865
31279SOL     OW98292   4.642   8.005   5.451  0.2274  0.0991  0.0485
31279SOL    HW198293   4.711   7.984   5.514 -1.6196  1.1288  2.5858
31279SOL    HW298294   4.583   7.929   5.454 -0.2408  0.4625  0.0704
31280SOL     OW98295   4.198   3.255   8.527 -0.5438 -0.1086 -0.1151
31280SOL    HW198296   4.244   3.301   8.457 -0.9274  1.2889  0.5127
31280SOL    HW298297   4.107   3.253   8.498 -0.9555  1.7481  0.9536
31281SOL     OW98298   1.272   6.718   7.220 -0.1309  0.1706  0.4377
31281SOL    HW198299   1.368   6.719   7.211  0.0108 -1.6304  1.2205
31281SOL    HW298300   1.257   6.695   7.311 -1.3808  2.9755  1.0418
31282SOL     OW98301  11.073   3.616   5.646  0.0127  0.3525  0.7157
31282SOL    HW198302  11.139   3.684   5.657 -1.4328  1.4615  3.4452
31282SOL    HW298303  11.026   3.641   5.567 -0.7295  2.8444  1.8468
31283SOL     OW98304   5.737   0.204   5.340  0.6637  0.2805 -0.0237
31283SOL    HW198305   5.645   0.213   5.363  0.5176  0.7917 -0.7876
31283SOL    HW298306   5.766   0.293   5.319  1.6429  0.3160  1.3433
31284SOL     OW98307   4.209   7.435  10.649 -0.0726 -0.5377 -0.5573
31284SOL    HW198308   4.223   7.520  10.609  0.7077 -0.3466  0.0889
31284SOL    HW298309   4.151   7.389  10.588  0.8539 -0.1646 -1.7726
31285SOL     OW98310   9.029  10.518   1.511  0.3611 -0.1497 -0.1162
31285SOL    HW198311   8.944  10.494   1.546  0.5153  1.5135  1.5777
31285SOL    HW298312   9.091  10.463   1.559  0.3124 -0.9442 -0.9338
31286SOL     OW98313   3.224   2.400   1.977  0.3674 -0.3735 -0.2224
31286SOL    HW198314   3.231   2.408   2.072  0.8309 -1.0702 -0.1891
31286SOL    HW298315   3.315   2.402   1.947  0.4238 -2.7316 -0.4072
31287SOL     OW98316   8.866   4.575   3.564 -0.5622  0.8932  0.2040
31287SOL    HW198317   8.912   4.493   3.577 -2.2552 -0.6536 -2.6345
31287SOL    HW298318   8.838   4.601   3.652 -0.4971 -1.9123  1.1312
31288SOL     OW98319   8.430   6.666   6.605  0.2051 -0.3205 -0.1299
31288SOL    HW198320   8.514   6.655   6.562 -0.8691  1.3390 -2.9124
31288SOL    HW298321   8.403   6.578   6.629  1.5173 -1.1957 -1.6822
31289SOL     OW98322   7.676  10.382   5.984  0.0879  0.4739 -0.1517
31289SOL    HW198323   7.749  10.347   6.035 -0.6243 -0.6114  0.1546
31289SOL    HW298324   7.709  10.385   5.894  0.0750 -1.3016 -0.2352
31290SOL     OW98325  10.064   6.695   8.137  0.5785  0.4297  0.1550
31290SOL    HW198326   9.971   6.710   8.153  0.8682  0.4954  1.9310
31290SOL    HW298327  10.106   6.776   8.162  1.1886  0.1520  0.0386
31291SOL     OW98328   8.756  10.594   8.575 -0.2354 -0.4105 -0.3505
31291SOL    HW198329   8.779  10.501   8.581 -1.0408 -0.5367  1.2663
31291SOL    HW298330   8.714  10.614   8.658  2.8177  2.2263  0.7766
31292SOL     OW98331   9.141   4.271   2.340  0.1434 -1.1410  0.0785
31292SOL    HW198332   9.231   4.301   2.349  0.8486 -3.1859  0.4465
31292SOL    HW298333   9.099   4.294   2.422 -0.3269  1.6766 -0.8582
31293SOL     OW98334   1.635   3.957   5.961  0.2223  0.1766 -0.2829
31293SOL    HW198335   1.661   3.866   5.948  0.3222 -0.0008  1.0026
31293SOL    HW298336   1.635   3.968   6.056  1.3724  1.8647 -0.4489
31294SOL     OW98337   0.011   3.672   4.293  0.0708  0.3474 -0.2485
31294SOL    HW198338  -0.034   3.756   4.282  0.0810  0.5098  0.9022
31294SOL    HW298339  -0.016   3.641   4.379 -0.9300 -1.4535 -1.1508
31295SOL     OW98340   3.688   9.225   5.760 -0.2513 -0.0498  0.4765
31295SOL    HW198341   3.645   9.229   5.845  0.9454  1.7583  1.0456
31295SOL    HW298342   3.764   9.168   5.775 -0.5666 -0.5187  0.3373
31296SOL     OW98343  10.018   4.145   5.194 -0.4331 -0.5822  0.2031
31296SOL    HW198344   9.973   4.141   5.110 -1.3739  0.0713  0.6596
31296SOL    HW298345   9.954   4.182   5.255  1.1486  1.8448  0.5649
31297SOL     OW98346   6.581   3.288   3.562  0.5223 -0.2686 -0.2858
31297SOL    HW198347   6.540   3.224   3.620  0.7182 -0.5730 -0.4766
31297SOL    HW298348   6.616   3.235   3.490  0.9676  0.0202 -0.2840
31298SOL     OW98349   2.251   3.581   0.838  0.1885 -0.6044 -0.2897
31298SOL    HW198350   2.284   3.635   0.910 -0.6228  0.0590 -0.3918
31298SOL    HW298351   2.157   3.575   0.854 -0.1191  0.1387 -1.6459
31299SOL     OW98352   8.782   2.053  10.954  0.6792  0.2697 -0.5761
31299SOL    HW198353   8.822   1.981  10.905  2.0523  1.4059 -1.2072
31299SOL    HW298354   8.705   2.077  10.904 -0.0598 -1.0260 -0.1167
31300SOL     OW98355   9.013   6.089   9.490  0.7866 -0.2510  0.2310
31300SOL    HW198356   9.061   6.171   9.491  0.7532 -0.1292  3.5260
31300SOL    HW298357   8.970   6.085   9.575 -2.2611 -1.9946 -1.2198
31301SOL     OW98358   9.288   4.080   6.364 -0.4203 -0.2071  0.4143
31301SOL    HW198359   9.321   4.163   6.329  0.1259  0.0351  1.4799
31301SOL    HW298360   9.192   4.089   6.359 -0.3591  0.2295 -0.0559
31302SOL     OW98361   2.634  10.486   0.185  0.1317  0.6036 -0.5032
31302SOL    HW198362   2.570  10.468   0.254  1.8686 -1.4939  0.6566
31302SOL    HW298363   2.714  10.509   0.232  0.9975  0.4184 -1.8382
31303SOL     OW98364   0.304   2.035   5.325 -0.4177 -0.0626 -0.1068
31303SOL    HW198365   0.262   2.065   5.406  0.4010  0.5572  0.1062
31303SOL    HW298366   0.338   1.948   5.346  1.0140  0.6586  0.6835
31304SOL     OW98367   6.181   1.282   9.933  0.2813 -0.2050  0.5013
31304SOL    HW198368   6.129   1.292   9.853  1.5222 -0.3411 -0.3607
31304SOL    HW298369   6.125   1.316  10.003 -0.8516 -0.1174 -0.4138
31305SOL     OW98370   6.890   5.468   5.848  0.4522  0.1773 -0.2422
31305SOL    HW198371   6.809   5.506   5.882  0.4563  0.0288 -0.0655
31305SOL    HW298372   6.920   5.531   5.783  1.1090  1.0931  0.9202
31306SOL     OW98373   1.097   8.234  10.643 -0.0774  0.6998  0.3814
31306SOL    HW198374   1.005   8.220  10.666 -0.1346  1.0406  0.3726
31306SOL    HW298375   1.130   8.292  10.711  0.1138  0.6314  0.3478
31307SOL     OW98376  10.542   9.107   5.663  0.5615  0.0109  0.2081
31307SOL    HW198377  10.579   9.153   5.738 -3.3304 -0.6817  2.8214
31307SOL    HW298378  10.589   9.024   5.660  1.3783  0.4167  1.3127
31308SOL     OW98379   9.252   9.734   2.508  0.6177  0.2387  0.4495
31308SOL    HW198380   9.310   9.659   2.494 -1.0293 -1.0967  0.4833
31308SOL    HW298381   9.294   9.806   2.461  1.6906 -0.9718 -0.5282
31309SOL     OW98382   7.900   3.694   2.829  0.1012  0.4677  0.2139
31309SOL    HW198383   7.856   3.610   2.840 -0.4018  0.6671 -0.2198
31309SOL    HW298384   7.983   3.684   2.876  0.2692 -0.4327 -0.2438
31310SOL     OW98385   7.427   9.501   6.435 -0.3073  0.1373  0.3788
31310SOL    HW198386   7.353   9.550   6.399  0.7735  0.8008 -1.0314
31310SOL    HW298387   7.392   9.413   6.452 -1.2838  0.2874 -0.7755
31311SOL     OW98388   1.482   2.277   7.706  0.6839  0.2759  0.4199
31311SOL    HW198389   1.467   2.364   7.741  0.3641  0.1207  0.6760
31311SOL    HW298390   1.557   2.287   7.647  0.4681  0.7719  0.2338
31312SOL     OW98391   7.815   1.263   8.451 -0.1897 -0.0312  0.2770
31312SOL    HW198392   7.881   1.267   8.520  0.0720  1.3612 -0.0361
31312SOL    HW298393   7.746   1.323   8.480 -0.7658 -0.5585  0.0183
31313SOL     OW98394   1.634   4.528   6.319  0.1775  0.0061  0.4690
31313SOL    HW198395   1.548   4.495   6.293  0.7412 -1.7856  0.7125
31313SOL    HW298396   1.679   4.546   6.237  0.1625 -0.7294  0.2902
31314SOL     OW98397   9.557   3.910   0.327 -0.2999 -0.1671 -0.6422
31314SOL    HW198398   9.565   3.899   0.422  0.2110  0.0092 -0.6610
31314SOL    HW298399   9.487   3.851   0.301  0.7780 -1.6008 -0.4121
31315SOL     OW98400   0.238   2.042   7.778 -0.3905 -0.5189 -0.4486
31315SOL    HW198401   0.149   2.007   7.778 -0.1307 -1.2141 -1.0244
31315SOL    HW298402   0.281   1.998   7.704  0.9675 -1.5639  0.9002
31316SOL     OW98403   6.917   8.753   5.864 -0.5359  0.2330  0.1654
31316SOL    HW198404   6.907   8.666   5.904 -0.3753  0.9202  1.7839
31316SOL    HW298405   6.869   8.747   5.781  1.5416 -2.1689 -1.0265
31317SOL     OW98406   6.764   2.738   9.766 -0.5186 -0.1374  0.1265
31317SOL    HW198407   6.750   2.681   9.841 -0.6211  0.3659  0.4974
31317SOL    HW298408   6.845   2.707   9.727  0.2008  0.3616  1.1746
31318SOL     OW98409   6.218   7.419   9.890 -0.1092  0.5237 -0.2558
31318SOL    HW198410   6.181   7.453   9.809  0.1946 -1.3205 -1.2308
31318SOL    HW298411   6.287   7.481   9.912  0.5675  0.4759 -2.0552
31319SOL     OW98412   1.517   5.653   6.291 -0.0115  0.8072 -0.1959
31319SOL    HW198413   1.545   5.571   6.251  1.6162  1.3333 -0.1890
31319SOL    HW298414   1.582   5.717   6.264 -0.3695  1.7633  1.0849
31320SOL     OW98415   3.072   2.635   4.877  0.1382  0.0180  0.0823
31320SOL    HW198416   3.148   2.690   4.897  1.3072 -1.3953 -0.2059
31320SOL    HW298417   3.025   2.682   4.809  0.9619  0.7881  0.0277
31321SOL     OW98418   1.888   3.836   8.318 -0.0301  0.6153  0.3728
31321SOL    HW198419   1.812   3.841   8.376  0.6925  1.9261  1.2499
31321SOL    HW298420   1.897   3.924   8.282  0.7178  0.3133 -0.2071
31322SOL     OW98421   9.430   6.984   3.499  0.0869 -0.0341  0.4479
31322SOL    HW198422   9.402   6.980   3.408 -2.0688 -1.2461  1.0898
31322SOL    HW298423   9.519   6.950   3.499  0.2957  0.4606 -1.2572
31323SOL     OW98424   7.556   7.214   1.583  0.1243  0.3060  0.4942
31323SOL    HW198425   7.567   7.310   1.583  2.7945  0.0876 -1.1609
31323SOL    HW298426   7.465   7.201   1.555  0.3276  2.3655 -1.4577
31324SOL     OW98427   0.282   2.299   7.236  0.0107  0.0988  0.2077
31324SOL    HW198428   0.273   2.345   7.320 -0.0784  0.2035  0.1406
31324SOL    HW298429   0.192   2.285   7.207 -0.0239 -1.7545  1.1156
31325SOL     OW98430   2.900   5.594   3.341  0.4349  0.1260 -0.2489
31325SOL    HW198431   2.958   5.518   3.342  0.6108  0.2280  1.6450
31325SOL    HW298432   2.826   5.569   3.396  0.1548  1.0626 -0.1740
31326SOL     OW98433   6.287   5.833   9.354  0.2066  0.0591 -0.0393
31326SOL    HW198434   6.262   5.919   9.318 -0.9527  0.1372  0.8806
31326SOL    HW298435   6.211   5.806   9.406  1.2416 -0.7294  1.1170
31327SOL     OW98436  10.243   7.387  10.981  0.6612  0.1427  0.2148
31327SOL    HW198437  10.229   7.370  11.074 -0.6512 -2.4035 -0.3591
31327SOL    HW298438  10.334   7.361  10.966  0.6239 -0.2478  0.6339
31328SOL     OW98439   2.728   0.867   7.413  0.7017 -0.1917 -0.3647
31328SOL    HW198440   2.635   0.860   7.390  0.3379 -1.7655  1.3271
31328SOL    HW298441   2.771   0.803   7.355  0.4571 -0.7711  0.0817
31329SOL     OW98442   8.976   6.262   8.009 -0.1931 -0.3425 -0.3703
31329SOL    HW198443   9.039   6.198   8.043  1.8819  2.1038  0.6902
31329SOL    HW298444   8.891   6.223   8.027  0.9524 -2.6332  0.5520
31330SOL     OW98445   9.821   9.437   4.465  0.1553  0.0573 -0.6485
31330SOL    HW198446   9.868   9.450   4.383  1.6673 -0.2791  0.1298
31330SOL    HW298447   9.885   9.459   4.533 -0.8215 -0.4046  0.4492
31331SOL     OW98448   2.109   2.093   2.031 -0.9158 -0.0690 -0.0472
31331SOL    HW198449   2.151   2.128   2.109 -0.3627 -1.0055  0.1032
31331SOL    HW298450   2.148   2.142   1.959 -0.2223 -0.2909  0.1630
31332SOL     OW98451   5.674   6.330   4.828 -0.1505 -0.7387 -0.2202
31332SOL    HW198452   5.609   6.398   4.842  0.6615  0.4186 -1.8144
31332SOL    HW298453   5.750   6.376   4.793  1.8597 -1.9169  2.2412
31333SOL     OW98454   4.433   9.907   9.735 -0.4103  0.3505 -0.3528
31333SOL    HW198455   4.477   9.968   9.676  0.4430  0.1584  0.0789
31333SOL    HW298456   4.483   9.912   9.816 -0.0643 -1.2443 -0.4455
31334SOL     OW98457   4.435  10.629   5.737  0.1558  0.5985  0.3682
31334SOL    HW198458   4.376  10.557   5.759 -1.2343  1.2892 -0.9160
31334SOL    HW298459   4.430  10.688   5.811  0.4378 -0.0789  0.9378
31335SOL     OW98460   8.107   5.398   0.623  0.2317  0.0814 -0.4102
31335SOL    HW198461   8.141   5.432   0.705  0.9343 -0.5427 -0.4347
31335SOL    HW298462   8.013   5.413   0.627  0.2011 -0.3681  0.7067
31336SOL     OW98463   5.991   4.334   6.450  0.3779 -0.2386 -0.3114
31336SOL    HW198464   5.922   4.280   6.488  0.2422  0.2740  0.1929
31336SOL    HW298465   6.035   4.373   6.526  0.4344  0.4040 -0.6633
31337SOL     OW98466   6.674   5.982   7.629 -0.3740 -0.4083 -0.1729
31337SOL    HW198467   6.765   5.970   7.655 -0.0093 -0.2794 -1.3610
31337SOL    HW298468   6.661   6.077   7.625 -1.0222 -0.3911  1.5043
31338SOL     OW98469   4.348   6.222   3.635 -0.0369 -0.1558  0.7650
31338SOL    HW198470   4.325   6.196   3.724  0.7035  3.3202  2.1152
31338SOL    HW298471   4.295   6.300   3.618  2.6848  1.6396 -0.1680
31339SOL     OW98472   5.172   0.410   9.007 -0.2851 -0.2268 -0.2013
31339SOL    HW198473   5.132   0.352   8.941 -0.8524 -0.0509 -0.0215
31339SOL    HW298474   5.236   0.355   9.052 -0.1546 -0.4513 -0.6530
31340SOL     OW98475   3.641   7.774   9.542  0.1875  0.2665  0.0404
31340SOL    HW198476   3.569   7.727   9.499 -0.7954 -0.4578  2.3020
31340SOL    HW298477   3.679   7.709   9.601  3.0751  0.5130 -1.4101
31341SOL     OW98478  10.911   4.022   6.444  0.3293 -0.3613 -0.1512
31341SOL    HW198479  10.935   4.094   6.385  0.2243 -1.3586 -1.4674
31341SOL    HW298480  10.816   4.014   6.434  0.3939 -0.9367 -0.3278
31342SOL     OW98481   1.764   7.114   4.027  0.1183 -0.2368  0.4027
31342SOL    HW198482   1.687   7.147   4.072 -0.7674  0.0017 -1.2236
31342SOL    HW298483   1.738   7.028   3.993  0.1123  0.3607 -1.2086
31343SOL     OW98484   0.483   9.821   2.197 -0.7956 -0.3719  0.3551
31343SOL    HW198485   0.493   9.806   2.291 -1.6345  0.4453  0.5962
31343SOL    HW298486   0.402   9.873   2.189  0.9243  2.4090 -0.5121
31344SOL     OW98487   0.916   2.144   9.550 -0.0287 -0.3507 -0.3051
31344SOL    HW198488   0.930   2.239   9.542  0.2312 -0.4508 -1.1031
31344SOL    HW298489   0.979   2.116   9.617 -1.1311  0.2584  1.0449
31345SOL     OW98490   8.796   7.920   5.464 -0.2219  0.0454 -0.0721
31345SOL    HW198491   8.832   7.976   5.533 -0.5365 -1.9716  1.8355
31345SOL    HW298492   8.763   7.843   5.511 -2.2987 -0.5151 -2.2897
31346SOL     OW98493   3.880   8.408  10.111  0.6083 -0.0636  0.4511
31346SOL    HW198494   3.882   8.380  10.019  0.4155 -1.1164  0.7495
31346SOL    HW298495   3.923   8.337  10.158  3.5032  1.8227  0.8930
31347SOL     OW98496   0.536   4.667   7.701 -0.2905  0.8562  0.2985
31347SOL    HW198497   0.610   4.682   7.644  0.3380 -0.3714  0.7553
31347SOL    HW298498   0.461   4.660   7.642  0.3769 -0.6289 -0.4342
31348SOL     OW98499  10.963   0.485   1.754 -0.5137 -0.6787  0.4442
31348SOL    HW198500  11.049   0.521   1.731 -0.0915 -2.6462 -1.3958
31348SOL    HW298501  10.904   0.560   1.754  1.1157  0.6537  1.3824
31349SOL     OW98502  10.720   6.229   9.604  0.1508  0.4241  0.6397
31349SOL    HW198503  10.685   6.257   9.689  0.6976 -0.7929  1.2787
31349SOL    HW298504  10.661   6.270   9.540 -1.6218 -0.4265  1.6452
31350SOL     OW98505   0.896  10.197   5.494 -0.6150  0.2179  0.3221
31350SOL    HW198506   0.920  10.105   5.499 -3.8217 -0.6408  3.1014
31350SOL    HW298507   0.948  10.239   5.563  2.3947  1.0995 -2.2402
31351SOL     OW98508   8.149   2.022   4.458  0.1314 -0.2866  0.3066
31351SOL    HW198509   8.206   1.950   4.485  0.4693  0.2828  1.1676
31351SOL    HW298510   8.201   2.101   4.473 -0.6031  0.1999  0.3841
31352SOL     OW98511   4.673   4.630   8.119  0.7901 -0.0301  0.1383
31352SOL    HW198512   4.724   4.696   8.166 -1.1012  0.5626  1.4853
31352SOL    HW298513   4.601   4.679   8.080 -0.8030 -1.2797  1.3758
31353SOL     OW98514   8.290   1.429   0.859 -0.5561  0.5350 -0.7554
31353SOL    HW198515   8.368   1.465   0.818  0.4975  0.1755  0.8286
31353SOL    HW298516   8.221   1.494   0.843  0.4811  1.6589 -0.7456
31354SOL     OW98517   2.508   3.791   7.678 -0.2483  0.5297  0.1182
31354SOL    HW198518   2.555   3.840   7.611  0.3746 -0.1537  0.0531
31354SOL    HW298519   2.524   3.840   7.759  0.3070  0.4734  0.0439
31355SOL     OW98520   3.355   1.775   5.135  0.2182  0.2745 -0.1706
31355SOL    HW198521   3.344   1.762   5.230  0.8913 -0.1500 -0.1414
31355SOL    HW298522   3.269   1.803   5.105  0.4188  2.1637  0.8510
31356SOL     OW98523   7.362   6.459   2.284  0.3573  0.1079 -0.3435
31356SOL    HW198524   7.428   6.526   2.270  1.4316 -1.0706 -1.1523
31356SOL    HW298525   7.317   6.450   2.200 -0.4942  0.5327  0.0539
31357SOL     OW98526   5.883   9.092   2.747 -0.2243  0.1115 -0.1008
31357SOL    HW198527   5.821   9.019   2.739 -0.0244 -0.0547 -0.1546
31357SOL    HW298528   5.886   9.111   2.841  1.2306 -1.2866  0.1815
31358SOL     OW98529   3.595  10.327   6.176 -0.3469 -0.8644  0.7376
31358SOL    HW198530   3.641  10.325   6.092 -1.3394 -1.3771  0.2044
31358SOL    HW298531   3.666  10.332   6.241  0.4195  0.5281 -0.1368
31359SOL     OW98532  10.848   8.859   7.499  0.4655  0.3551  0.0711
31359SOL    HW198533  10.754   8.874   7.498  0.4815  0.4596 -0.8788
31359SOL    HW298534  10.864   8.805   7.422  0.9222 -1.3625  1.3118
31360SOL     OW98535   8.898   4.785   9.442 -0.2040 -0.2781 -0.3304
31360SOL    HW198536   8.887   4.790   9.537  1.7340  1.5422 -0.1208
31360SOL    HW298537   8.846   4.857   9.407  0.8195  0.4329 -0.4267
31361SOL     OW98538   7.999   1.601   6.560  0.4313 -0.2852 -0.3625
31361SOL    HW198539   7.995   1.513   6.598 -0.6312 -0.6551 -1.2852
31361SOL    HW298540   7.913   1.614   6.519 -0.1595  1.9568  1.3957
31362SOL     OW98541   8.522   6.182   0.801 -0.3489 -0.3420  0.0768
31362SOL    HW198542   8.565   6.111   0.752  0.6404 -0.6233  1.2934
31362SOL    HW298543   8.430   6.155   0.805 -0.1740 -1.0553 -0.3399
31363SOL     OW98544   9.647   8.029   5.589 -0.4258 -0.2467 -0.4294
31363SOL    HW198545   9.717   8.076   5.634 -0.6237 -0.1457 -0.2259
31363SOL    HW298546   9.624   7.957   5.648 -1.6134  0.6758  0.2616
31364SOL     OW98547   1.039   6.084   1.540 -0.4048 -0.3479 -0.1533
31364SOL    HW198548   1.090   6.004   1.550  0.2415  0.0222 -0.4063
31364SOL    HW298549   0.971   6.061   1.476 -1.2422 -1.1584  0.9906
31365SOL     OW98550   0.878   9.662   4.862  0.0303 -0.0099  0.3229
31365SOL    HW198551   0.967   9.644   4.832  1.2714  1.8467  2.5524
31365SOL    HW298552   0.872   9.758   4.862 -2.2095 -0.1057 -0.3193
31366SOL     OW98553   3.773   4.371   0.641 -0.0773 -0.0217  0.1930
31366SOL    HW198554   3.743   4.349   0.553  1.7041 -1.2591 -0.1690
31366SOL    HW298555   3.696   4.360   0.697 -0.9145 -0.4868 -1.0192
31367SOL     OW98556   8.946   1.916   0.199 -0.1305  0.1998 -0.0417
31367SOL    HW198557   9.026   1.874   0.231  0.6883  0.6416 -1.3860
31367SOL    HW298558   8.875   1.859   0.228  0.7136 -0.4692  0.7601
31368SOL     OW98559   9.302   1.632   3.459 -0.0008 -0.5972  0.7326
31368SOL    HW198560   9.258   1.694   3.517  0.0943 -0.5936  0.8003
31368SOL    HW298561   9.326   1.559   3.517  0.6039 -0.3374  0.8063
31369SOL     OW98562   7.106  10.091   7.558 -0.0598  0.5229 -0.3478
31369SOL    HW198563   7.193  10.120   7.533  0.1021 -0.1314 -0.5609
31369SOL    HW298564   7.047  10.151   7.513  0.2826  1.5120  0.4793
31370SOL     OW98565   4.999   5.998   3.302  0.1800 -0.1047 -0.6792
31370SOL    HW198566   5.058   5.924   3.313  1.2225  0.5803 -1.4814
31370SOL    HW298567   4.986   6.033   3.390  0.4770 -0.6375 -0.4237
31371SOL     OW98568   7.506   3.127   5.682  0.2918  0.2754 -0.0014
31371SOL    HW198569   7.584   3.172   5.649  1.0938  0.3592  1.8884
31371SOL    HW298570   7.479   3.071   5.610  0.9729  1.6370 -1.3793
31372SOL     OW98571  11.035   8.476   1.020 -0.1395  0.4437  0.0313
31372SOL    HW198572  11.128   8.458   1.006 -0.0155  1.7940 -1.1496
31372SOL    HW298573  11.030   8.572   1.024 -1.7915  0.5662 -2.5652
31373SOL     OW98574  10.687   9.826   2.596  0.4581  0.1386  0.9249
31373SOL    HW198575  10.658   9.890   2.532  3.4309  2.0312  1.2870
31373SOL    HW298576  10.606   9.785   2.627 -1.2900  1.2099 -1.8477
31374SOL     OW98577   6.886   8.340   4.949  0.2999  0.5247  0.1314
31374SOL    HW198578   6.945   8.271   4.919  0.2799  1.0527 -1.1722
31374SOL    HW298579   6.834   8.298   5.018  0.1934 -0.8042 -0.7172
31375SOL     OW98580   7.099   6.452   8.891 -0.2755 -0.9582  0.0030
31375SOL    HW198581   7.009   6.472   8.868 -0.1847  0.5227  0.7853
31375SOL    HW298582   7.093   6.404   8.973 -0.3161  1.1663  1.3079
31376SOL     OW98583   3.874   4.194   4.243  0.6195  0.4542 -0.0301
31376SOL    HW198584   3.954   4.149   4.268  1.1380  2.1564  1.5671
31376SOL    HW298585   3.827   4.208   4.325 -0.5447  0.9306 -0.7434
31377SOL     OW98586   3.565   1.471   3.312  0.1315  0.2963 -0.2081
31377SOL    HW198587   3.573   1.498   3.221 -2.0523  0.9803 -0.2677
31377SOL    HW298588   3.500   1.400   3.310  0.0096  0.3602  0.8135
31378SOL     OW98589   2.379   1.331   1.876 -0.1865 -0.1517  0.0190
31378SOL    HW198590   2.380   1.259   1.813  0.5542  0.3849 -0.6001
31378SOL    HW298591   2.451   1.312   1.936 -0.0846 -0.0132 -0.0569
31379SOL     OW98592   1.390   1.706  10.137  0.3833  0.5402  0.2529
31379SOL    HW198593   1.363   1.690  10.228 -0.9472  2.0463  0.1665
31379SOL    HW298594   1.329   1.655  10.084  1.1186 -0.2865  0.1715
31380SOL     OW98595   5.005   3.272   1.822  0.3342 -0.2866 -0.0754
31380SOL    HW198596   4.927   3.216   1.814  1.5421 -2.2290  0.9146
31380SOL    HW298597   5.032   3.288   1.732 -2.0553  1.7870 -0.5295
31381SOL     OW98598   5.019   6.646   3.063  0.2701 -0.3830  0.4192
31381SOL    HW198599   5.058   6.572   3.016  0.3827 -0.7498  1.0852
31381SOL    HW298600   4.939   6.610   3.101 -0.2832  0.1463 -0.2231
31382SOL     OW98601  10.063   0.902   5.770 -0.0340 -0.0879 -0.3789
31382SOL    HW198602  10.051   0.953   5.850  1.6112  0.6958 -0.5919
31382SOL    HW298603  10.070   0.811   5.800 -0.0650  0.1269  0.2909
31383SOL     OW98604  10.693   9.513   8.532  0.2870 -0.4331  0.5867
31383SOL    HW198605  10.783   9.482   8.539  1.3495  2.6713  3.9884
31383SOL    HW298606  10.645   9.459   8.595  0.5120 -0.0138  1.1260
31384SOL     OW98607   8.204   4.370   2.718  0.3172  0.0466  0.4279
31384SOL    HW198608   8.190   4.320   2.638 -2.3980  0.8602  0.2990
31384SOL    HW298609   8.234   4.456   2.688  1.3967 -0.3124  0.4414
31385SOL     OW98610   2.364   8.540  10.518  0.0461 -0.0330 -0.4144
31385SOL    HW198611   2.458   8.556  10.512 -0.2903  1.9048 -1.3926
31385SOL    HW298612   2.325   8.627  10.520 -1.8750 -0.7556 -2.4955
31386SOL     OW98613   9.612   5.277   5.672 -0.0596 -0.0633  0.0480
31386SOL    HW198614   9.528   5.285   5.718  0.5211  1.7532  0.8930
31386SOL    HW298615   9.665   5.221   5.729 -0.6219 -1.0918 -0.4133
31387SOL     OW98616   4.561   5.777   2.454  0.6066  0.3878  0.2877
31387SOL    HW198617   4.626   5.710   2.474  0.7925 -0.0764 -1.6444
31387SOL    HW298618   4.486   5.755   2.508  0.3357 -1.9666 -0.9155
31388SOL     OW98619   1.103   5.177   0.033 -0.8360  0.0244  0.0212
31388SOL    HW198620   1.192   5.209   0.014 -0.9288  0.3062  0.0645
31388SOL    HW298621   1.107   5.152   0.125 -0.9291  0.4681  0.1485
31389SOL     OW98622   2.289   4.464   6.970  0.2914  0.4803 -0.4659
31389SOL    HW198623   2.256   4.456   7.060  2.2703  0.6010  0.3301
31389SOL    HW298624   2.218   4.506   6.922 -1.2238 -0.5406  0.7821
31390SOL     OW98625   9.578   1.929   2.831 -0.0914  0.0420  0.1307
31390SOL    HW198626   9.490   1.964   2.840  0.6140  1.7885  0.7586
31390SOL    HW298627   9.590   1.873   2.908 -0.7935 -0.5973 -0.2141
31391SOL     OW98628   1.241   5.705   6.659 -0.3607 -0.0908 -0.6331
31391SOL    HW198629   1.199   5.621   6.640 -3.3630  0.3891  2.7017
31391SOL    HW298630   1.334   5.685   6.669 -0.9645 -3.0290 -0.0746
31392SOL     OW98631   5.363   2.029   6.919  0.2672 -0.0286 -0.1786
31392SOL    HW198632   5.312   1.982   6.853 -0.8446 -1.4993  1.6268
31392SOL    HW298633   5.451   2.034   6.882 -0.1901 -1.2467 -1.5548
31393SOL     OW98634   6.450   1.253   4.100 -0.5743 -0.2626 -0.3002
31393SOL    HW198635   6.429   1.161   4.109  0.7616 -0.3743  3.2262
31393SOL    HW298636   6.546   1.256   4.101 -0.5915  1.1292 -0.5203
31394SOL     OW98637   9.729   4.184   9.991  0.0202 -0.3194  0.1422
31394SOL    HW198638   9.740   4.267   9.945 -2.1684  0.0366  0.1265
31394SOL    HW298639   9.726   4.209  10.084 -0.6926 -0.3389  0.1341
31395SOL     OW98640   6.559   0.411   7.009 -0.2079 -0.0218 -0.0977
31395SOL    HW198641   6.549   0.502   7.037 -0.0498  0.4613 -1.5072
31395SOL    HW298642   6.653   0.394   7.017 -0.1357  0.1767 -0.4883
31396SOL     OW98643   4.582   2.826  10.130 -0.4307 -0.1177 -0.0710
31396SOL    HW198644   4.616   2.752  10.181 -2.8790 -0.6285  0.9408
31396SOL    HW298645   4.577   2.898  10.193 -2.6306 -0.5028  0.2530
31397SOL     OW98646   0.895   1.701   6.631 -0.1909 -0.3887 -0.0453
31397SOL    HW198647   0.877   1.794   6.639  0.9831 -0.2310  1.1113
31397SOL    HW298648   0.848   1.661   6.705  0.4178 -0.5415  0.2607
31398SOL     OW98649   7.683   4.027   5.777 -1.1314  0.1220 -0.2520
31398SOL    HW198650   7.600   4.071   5.797 -1.4179  0.1382 -1.3673
31398SOL    HW298651   7.728   4.022   5.861 -1.6411  1.3968  0.1380
31399SOL     OW98652   8.889   2.702   5.106  0.3534  0.7966 -0.1966
31399SOL    HW198653   8.913   2.644   5.034  0.7568  1.2843 -0.4560
31399SOL    HW298654   8.834   2.647   5.163 -1.1923  0.8254 -1.5899
31400SOL     OW98655   8.464   5.401   4.664  0.3280 -0.2060  0.1783
31400SOL    HW198656   8.454   5.308   4.643 -0.0868  0.2346 -1.8072
31400SOL    HW298657   8.375   5.432   4.679  0.4120 -0.0146  0.2858
31401SOL     OW98658   9.139   8.179   8.156  0.2309 -0.6436  0.2285
31401SOL    HW198659   9.140   8.236   8.080  1.3535 -0.3882  0.4221
31401SOL    HW298660   9.208   8.213   8.213 -0.9682 -0.4739  1.6374
31402SOL     OW98661  10.735  10.276   7.456  0.2920 -0.3281  0.2845
31402SOL    HW198662  10.648  10.239   7.475 -0.4298  1.2631  0.2590
31402SOL    HW298663  10.727  10.311   7.367  0.1918  1.8576  1.0917
31403SOL     OW98664   9.923   7.932   9.890  0.1284  0.6163 -0.2990
31403SOL    HW198665   9.921   7.902   9.981 -1.1184  2.0796  0.1925
31403SOL    HW298666   9.918   7.851   9.838  1.0824 -0.2538  0.9063
31404SOL     OW98667   9.077   9.510   7.952  0.2827  0.0576 -0.1991
31404SOL    HW198668   9.048   9.583   7.897  0.6104 -0.7265 -1.4557
31404SOL    HW298669   9.035   9.433   7.914 -0.0229 -0.4239  1.0856
31405SOL     OW98670   1.554   8.626   1.812  0.3922  0.7955  0.2693
31405SOL    HW198671   1.490   8.555   1.810  0.4834  0.7128 -1.4589
31405SOL    HW298672   1.505   8.704   1.784  0.6304  1.1233  0.7362
31406SOL     OW98673   2.327   3.828  10.932  0.9646  0.5822  0.1848
31406SOL    HW198674   2.375   3.889  10.876  0.8949 -0.5649 -1.1759
31406SOL    HW298675   2.384   3.752  10.941 -0.1995 -0.4446 -0.7362
31407SOL     OW98676   3.169   7.039   9.366  0.0366 -0.2058 -0.4676
31407SOL    HW198677   3.194   7.124   9.329 -0.3662  0.7115  1.2545
31407SOL    HW298678   3.075   7.047   9.384  0.0229 -0.9546 -0.1758
31408SOL     OW98679  10.802   1.460   0.041  0.0657 -0.2445  0.2048
31408SOL    HW198680  10.871   1.429  -0.017 -1.7981 -2.8556 -0.7571
31408SOL    HW298681  10.791   1.391   0.106 -1.0833  0.5168  0.8688
31409SOL     OW98682   9.062   1.679   8.939 -0.3402 -0.7824 -0.2393
31409SOL    HW198683   9.038   1.691   8.848 -2.1244  0.1465  0.3058
31409SOL    HW298684   9.048   1.586   8.956 -0.2346 -0.9089 -0.8315
31410SOL     OW98685  10.954   8.077   1.931  0.0747 -0.3250 -0.6890
31410SOL    HW198686  10.865   8.048   1.912 -0.5510  1.2862 -0.2914
31410SOL    HW298687  10.982   8.021   2.004 -1.1399  0.1053  0.1278
31411SOL     OW98688   1.133   0.991   1.546 -0.3766  1.1190 -0.1928
31411SOL    HW198689   1.228   0.990   1.540 -0.2742  4.0241 -0.6794
31411SOL    HW298690   1.103   0.969   1.457 -0.2101 -0.2478  0.0723
31412SOL     OW98691   6.206   9.091  10.800 -0.0958  0.1626 -0.2639
31412SOL    HW198692   6.206   9.075  10.894 -2.3845  0.0971 -0.2180
31412SOL    HW298693   6.197   9.003  10.761  0.3303  0.2318 -0.5170
31413SOL     OW98694   5.175   9.562   3.377 -0.0948 -0.8088 -0.3229
31413SOL    HW198695   5.166   9.539   3.285  0.6804  1.3800 -0.9964
31413SOL    HW298696   5.156   9.656   3.381 -1.0837 -1.0425  1.9149
31414SOL     OW98697   9.878   9.510   5.856 -0.0300  0.0924 -0.4059
31414SOL    HW198698   9.930   9.431   5.846  0.0319  0.0488  0.2541
31414SOL    HW298699   9.790   9.479   5.879 -0.3883  0.1596 -1.6002
31415SOL     OW98700   5.553   4.206   8.813  0.3433  0.7264 -0.3035
31415SOL    HW198701   5.526   4.128   8.860 -0.5995  1.2004 -0.0189
31415SOL    HW298702   5.615   4.175   8.747 -1.2244 -0.4985 -1.2598
31416SOL     OW98703   7.183   2.860   3.703 -0.2628  0.4737  0.2677
31416SOL    HW198704   7.137   2.845   3.786  1.2767  0.8979  1.2485
31416SOL    HW298705   7.182   2.955   3.692  1.3005  0.5859  0.8913
31417SOL     OW98706   9.309   8.369   8.676 -0.2697 -0.1706 -0.1161
31417SOL    HW198707   9.390   8.333   8.641  0.4940 -0.2498  1.6096
31417SOL    HW298708   9.337   8.421   8.752 -1.6142  1.7412 -0.8506
31418SOL     OW98709   1.308   8.895   0.318  0.2218  0.2727 -0.4689
31418SOL    HW198710   1.293   8.919   0.227  0.5397  1.0621 -0.3136
31418SOL    HW298711   1.222   8.902   0.359  0.1935  0.5040 -0.5698
31419SOL     OW98712   2.939  10.901   6.593 -0.1419 -0.1741  0.2871
31419SOL    HW198713   2.866  10.961   6.576  1.0879  1.3098  0.0693
31419SOL    HW298714   2.924  10.828   6.533 -1.1271  0.3799 -0.1740
31420SOL     OW98715   8.706   3.826   5.944  0.2308  0.8130  0.0075
31420SOL    HW198716   8.770   3.836   5.873  0.0206 -1.4330 -0.5936
31420SOL    HW298717   8.758   3.804   6.021  0.3602  1.9499  0.2648
31421SOL     OW98718   4.715   2.756   8.057 -0.1183 -0.5528 -0.3587
31421SOL    HW198719   4.754   2.683   8.009  1.3301 -0.2329  0.2796
31421SOL    HW298720   4.644   2.786   8.000 -0.8089 -2.4910 -0.5916
31422SOL     OW98721  10.891   7.295   1.275 -0.0704 -0.0864  0.3440
31422SOL    HW198722  10.824   7.360   1.253 -1.7057 -2.0700 -0.9018
31422SOL    HW298723  10.943   7.286   1.194 -1.4363 -2.0601 -0.3757
31423SOL     OW98724   7.950   9.865  10.634 -0.4527  0.2565 -0.1871
31423SOL    HW198725   7.976   9.892  10.722  1.0164 -1.0420 -0.1609
31423SOL    HW298726   8.023   9.891  10.579  0.8635 -2.9636 -0.2238
31424SOL     OW98727   6.980   9.283   3.465 -0.0111 -0.0682 -0.0482
31424SOL    HW198728   7.011   9.325   3.545 -0.4088 -3.9657  2.4189
31424SOL    HW298729   7.050   9.222   3.442 -1.1757 -1.1131 -0.9151
31425SOL     OW98730   5.502   6.380   9.250  0.4827 -0.0985 -0.1606
31425SOL    HW198731   5.478   6.398   9.341 -0.0471  0.3877 -0.3951
31425SOL    HW298732   5.479   6.460   9.203  3.1454  0.6786 -0.3023
31426SOL     OW98733   2.847   4.272   3.004  0.2743 -0.3556 -0.1208
31426SOL    HW198734   2.882   4.242   2.920 -2.1332  0.1499 -1.4021
31426SOL    HW298735   2.901   4.348   3.027  0.2296  0.2431 -1.8536
31427SOL     OW98736   8.062  10.349   2.294 -0.3311  0.2447  0.0808
31427SOL    HW198737   8.076  10.441   2.315  0.3770 -0.0391  0.9174
31427SOL    HW298738   8.078  10.343   2.200  0.4338  0.8337  0.1641
31428SOL     OW98739   3.093  10.219   3.357 -0.5180  0.3443  0.2906
31428SOL    HW198740   3.016  10.266   3.325 -0.4075 -0.5955 -1.4915
31428SOL    HW298741   3.099  10.142   3.300  1.2188 -0.0707  0.9754
31429SOL     OW98742   2.216   8.791   7.966 -0.3246 -0.4610  0.3281
31429SOL    HW198743   2.202   8.795   8.061  1.4888  0.5225  0.5859
31429SOL    HW298744   2.187   8.703   7.942  1.2237 -1.5589  2.1789
31430SOL     OW98745  10.628   5.703   0.777  0.1457 -0.3582  0.0475
31430SOL    HW198746  10.569   5.631   0.753 -0.4489  0.2745 -0.4377
31430SOL    HW298747  10.697   5.700   0.711  0.2986 -0.6862  0.2213
31431SOL     OW98748   9.837   0.809   0.531  0.3425 -0.1380 -0.6168
31431SOL    HW198749   9.764   0.870   0.522  2.4605  2.3636 -2.5090
31431SOL    HW298750   9.798   0.722   0.516 -2.1933  1.0905 -1.6686
31432SOL     OW98751   1.258   0.156   1.162  0.5542 -0.2979 -0.4862
31432SOL    HW198752   1.286   0.173   1.252  1.2504  0.0223 -0.7491
31432SOL    HW298753   1.180   0.103   1.170  0.7143 -0.4218  0.3089
31433SOL     OW98754   7.726  10.197   1.391 -0.0285 -0.8964  0.2593
31433SOL    HW198755   7.671  10.172   1.316  1.2780 -0.3517 -0.9328
31433SOL    HW298756   7.816  10.193   1.357  0.5300  0.4847  1.4517
31434SOL     OW98757   1.458   7.278   5.189 -0.7636 -0.2239  0.4062
31434SOL    HW198758   1.408   7.197   5.193  1.1419 -1.5795 -1.1767
31434SOL    HW298759   1.539   7.259   5.237 -0.3624  0.7854  0.1612
31435SOL     OW98760   1.980   4.334   4.892  0.1563  0.4973 -0.6971
31435SOL    HW198761   1.914   4.275   4.858  0.7378  0.1363 -1.2103
31435SOL    HW298762   1.933   4.416   4.910 -0.5273  0.0750 -0.5467
31436SOL     OW98763   2.043   2.311   3.408  0.8332 -0.3578 -0.2228
31436SOL    HW198764   2.038   2.324   3.313 -0.6301  1.8171  0.0920
31436SOL    HW298765   2.009   2.392   3.445 -0.0219 -1.7303  2.1677
31437SOL     OW98766   6.930   8.919   0.571 -0.1689 -0.3386  0.6530
31437SOL    HW198767   6.842   8.881   0.573  0.4748 -1.8684  1.4306
31437SOL    HW298768   6.916   9.012   0.590 -1.6545 -0.4528  0.2671
31438SOL     OW98769   2.037   8.237   3.057 -0.5048 -0.1910  0.5109
31438SOL    HW198770   1.997   8.308   3.107  1.0980  0.6836  0.6451
31438SOL    HW298771   1.964   8.183   3.028 -2.0138  2.4528 -1.0670
31439SOL     OW98772   0.536   0.673   0.927 -0.0140 -0.2608  0.0928
31439SOL    HW198773   0.498   0.600   0.879  0.3197 -0.1949 -0.2810
31439SOL    HW298774   0.602   0.633   0.984  1.6138 -0.0861 -1.5692
31440SOL     OW98775   7.352   1.731   7.463  0.2349 -0.2677 -0.5401
31440SOL    HW198776   7.320   1.808   7.510  0.7121 -0.2199 -0.2910
31440SOL    HW298777   7.445   1.747   7.448  0.7469 -1.4967  1.0008
31441SOL     OW98778   8.658   0.039   1.567  0.6715  0.1430 -0.1752
31441SOL    HW198779   8.578   0.026   1.617 -0.3620  3.0323 -0.8760
31441SOL    HW298780   8.724   0.063   1.632  0.2763  0.2951  0.1701
31442SOL     OW98781  10.435   5.743   6.081  0.8571 -0.1626 -0.1503
31442SOL    HW198782  10.355   5.759   6.031  1.5317 -0.7792 -1.4591
31442SOL    HW298783  10.421   5.791   6.163 -0.4985  0.4223 -0.6873
31443SOL     OW98784   4.704   6.827   2.275 -0.3297 -0.8136 -0.3079
31443SOL    HW198785   4.750   6.749   2.247  0.0202 -0.4855 -0.6627
31443SOL    HW298786   4.767   6.898   2.261 -0.8210 -0.4064 -0.4664
31444SOL     OW98787   6.334   5.600   4.410 -0.4403 -0.0668 -0.4683
31444SOL    HW198788   6.360   5.601   4.318 -1.5094 -1.9319 -0.8516
31444SOL    HW298789   6.264   5.666   4.416 -0.5361 -0.1028 -1.0594
31445SOL     OW98790   7.333  10.375   1.801  0.2081 -0.3135 -0.1818
31445SOL    HW198791   7.418  10.374   1.845  0.5752  1.1965 -0.7738
31445SOL    HW298792   7.316  10.284   1.779 -0.1340 -1.2267  3.2624
31446SOL     OW98793   1.495   0.210   7.030  0.6487 -0.3520  0.4625
31446SOL    HW198794   1.558   0.278   7.052  0.3846  0.1562 -0.3418
31446SOL    HW298795   1.533   0.130   7.067  2.5703 -0.3598 -1.3771
31447SOL     OW98796   7.069   8.390   4.112 -0.6136 -0.3203 -0.0528
31447SOL    HW198797   6.979   8.380   4.082 -0.2930 -2.6490 -0.4471
31447SOL    HW298798   7.121   8.397   4.032 -0.3657  0.4119  0.1597
31448SOL     OW98799   8.478   4.689   6.567 -0.2117  0.0743  0.4611
31448SOL    HW198800   8.486   4.766   6.510  2.8385  1.2659  2.2344
31448SOL    HW298801   8.463   4.726   6.654  0.8679 -1.3141  1.2843
31449SOL     OW98802   8.309   1.777   2.304  0.3345 -0.1889  0.1688
31449SOL    HW198803   8.284   1.821   2.223 -0.1372 -0.9184 -0.0940
31449SOL    HW298804   8.243   1.804   2.368  1.9305  2.1742  0.9694
31450SOL     OW98805   3.155   1.146   1.770 -0.2140 -0.0804  0.5096
31450SOL    HW198806   3.154   1.240   1.790 -0.9887 -0.1367  0.7791
31450SOL    HW298807   3.248   1.121   1.773 -0.1591  0.2495  2.4495
31451SOL     OW98808   0.063   4.085   5.438 -0.2040  0.4385 -0.3632
31451SOL    HW198809   0.112   4.127   5.367 -1.9077  1.4842 -0.9811
31451SOL    HW298810  -0.017   4.052   5.396 -0.6719 -0.0395  0.8495
31452SOL     OW98811  10.541   0.409   9.652  0.2724  0.0333 -0.4817
31452SOL    HW198812  10.547   0.430   9.746 -1.1791  0.7567 -0.5281
31452SOL    HW298813  10.523   0.493   9.610 -2.0463 -0.6814 -1.0638
31453SOL     OW98814   9.804   6.516   6.747 -0.0711 -0.3974  0.4280
31453SOL    HW198815   9.894   6.495   6.774 -0.1138  0.7819  1.5906
31453SOL    HW298816   9.750   6.452   6.791  0.1456 -0.6561  0.3200
31454SOL     OW98817   3.510   8.216   0.349  0.3342  0.1819 -0.1422
31454SOL    HW198818   3.417   8.208   0.331  0.6752 -0.4636 -1.7904
31454SOL    HW298819   3.544   8.127   0.346  0.9773  0.3895  0.6147
31455SOL     OW98820   2.618   4.477  10.035 -0.3949  0.4244 -0.4167
31455SOL    HW198821   2.588   4.453   9.947 -0.9325 -0.3306 -0.0435
31455SOL    HW298822   2.632   4.394  10.079 -0.8889  0.7898  0.4607
31456SOL     OW98823   5.917   5.213   8.563  0.1266  0.2116  0.6909
31456SOL    HW198824   5.974   5.166   8.624 -0.7440 -1.9270 -0.0820
31456SOL    HW298825   5.977   5.253   8.500  0.8466 -1.0920  0.5195
31457SOL     OW98826   7.365   3.857   5.850  0.1576 -0.3220  0.2454
31457SOL    HW198827   7.400   3.924   5.791  1.0300 -0.8138  0.1873
31457SOL    HW298828   7.330   3.790   5.792 -1.3945  0.3954  0.2991
31458SOL     OW98829   2.805   2.325   1.095 -0.6141 -0.0319  0.4796
31458SOL    HW198830   2.760   2.269   1.032  0.1304 -1.6341  1.3045
31458SOL    HW298831   2.848   2.392   1.042 -1.1355 -0.5362 -0.5946
31459SOL     OW98832   6.598   5.587   7.531  0.2453 -0.2242 -0.2486
31459SOL    HW198833   6.552   5.514   7.491  0.8658 -0.2460 -0.9573
31459SOL    HW298834   6.664   5.612   7.466 -0.0138  1.0216 -0.0550
31460SOL     OW98835   2.634  10.749   7.969 -0.0814  0.4957 -0.2139
31460SOL    HW198836   2.668  10.662   7.989 -0.0400  0.6619  0.4773
31460SOL    HW298837   2.712  10.802   7.952 -0.0590  0.5728  0.1142
31461SOL     OW98838   2.742   8.791   8.837 -0.3873 -0.7365 -0.1210
31461SOL    HW198839   2.745   8.886   8.852  0.2951 -0.9925  1.5986
31461SOL    HW298840   2.793   8.754   8.909  1.5869 -2.2818 -2.1828
31462SOL     OW98841   4.401   5.370   1.144  0.3139 -0.1256  0.0392
31462SOL    HW198842   4.409   5.318   1.064  0.5949  1.0324 -0.7157
31462SOL    HW298843   4.452   5.322   1.209  0.5748 -0.7853 -0.6291
31463SOL     OW98844   2.406   1.056   4.436 -0.0849  0.0304 -0.0667
31463SOL    HW198845   2.466   1.002   4.487 -0.0809  0.6800  0.6254
31463SOL    HW298846   2.338   0.996   4.408  0.9826 -0.7719 -1.0576
31464SOL     OW98847   4.917   1.451  10.540  0.1621 -0.5167 -0.2254
31464SOL    HW198848   4.976   1.526  10.546  0.7631 -0.9433 -0.6625
31464SOL    HW298849   4.947   1.391  10.608 -0.0383 -0.5543 -0.1690
31465SOL     OW98850   3.036   1.578   5.361 -0.3698  0.0272 -0.0396
31465SOL    HW198851   2.981   1.587   5.438  0.1744 -0.5457  0.4310
31465SOL    HW298852   3.000   1.503   5.313 -0.3945  0.0596 -0.0717
31466SOL     OW98853   9.146  10.763   5.131 -0.1212  0.2629 -0.2664
31466SOL    HW198854   9.201  10.707   5.075  2.1975  1.2786  0.8342
31466SOL    HW298855   9.154  10.850   5.091  0.9254  0.8442  1.1446
31467SOL     OW98856   9.682   7.457  10.267  0.5523  0.0461 -0.2123
31467SOL    HW198857   9.770   7.488  10.243  0.5290 -0.2127 -0.6347
31467SOL    HW298858   9.697   7.370  10.305  0.5641  0.3603  0.5180
31468SOL     OW98859  10.306   2.372   6.646  0.7614 -0.2658 -0.6024
31468SOL    HW198860  10.269   2.336   6.565  0.2769 -1.9101  0.3050
31468SOL    HW298861  10.290   2.305   6.712  1.6362  0.8003  0.7609
31469SOL     OW98862   8.193   4.775   9.869  0.2897 -0.0369 -0.1951
31469SOL    HW198863   8.169   4.692   9.826 -2.2682  0.1961  0.6253
31469SOL    HW298864   8.280   4.758   9.906 -0.0212 -2.2494 -0.3179
31470SOL     OW98865   9.036   6.195  10.221  0.3337  0.1703  0.1230
31470SOL    HW198866   8.954   6.153  10.196 -0.8621  2.1689  0.4811
31470SOL    HW298867   9.062   6.150  10.301 -0.8576  0.0165  0.4487
31471SOL     OW98868   7.099   1.504   3.204  0.5143  0.2592 -0.0592
31471SOL    HW198869   7.016   1.552   3.201 -0.5801 -1.4734  0.9427
31471SOL    HW298870   7.127   1.500   3.113 -0.1381  1.4636 -0.3336
31472SOL     OW98871   0.392   2.119   0.857  0.1180  0.0403  0.3451
31472SOL    HW198872   0.455   2.182   0.892  0.0143 -1.0301  2.6244
31472SOL    HW298873   0.307   2.163   0.864  0.2666  0.3715  0.0843
31473SOL     OW98874   2.310  10.330   4.535 -0.2169  0.1272  0.7258
31473SOL    HW198875   2.229  10.292   4.501 -0.1329  0.8440 -0.3015
31473SOL    HW298876   2.380  10.281   4.490 -0.0933  0.3812  0.6410
31474SOL     OW98877  10.437   6.016   3.852  0.1113 -0.8133 -0.0042
31474SOL    HW198878  10.484   5.933   3.862  1.9778  0.1786 -0.2162
31474SOL    HW298879  10.361   5.993   3.798  0.5368 -2.3961  0.0098
31475SOL     OW98880   1.743   1.019   3.037 -0.4408  0.2027 -0.2735
31475SOL    HW198881   1.806   1.035   3.108  1.8052 -0.7737 -1.9326
31475SOL    HW298882   1.759   1.088   2.974 -1.5752  0.3592 -0.4083
31476SOL     OW98883   8.562   2.359   1.041 -0.6808 -0.1374  0.0804
31476SOL    HW198884   8.586   2.349   0.949 -0.1537  0.6815  0.1152
31476SOL    HW298885   8.576   2.272   1.079  2.0043  0.1648  0.0104
31477SOL     OW98886   2.372   4.429   7.419 -0.3233  0.1299 -0.0511
31477SOL    HW198887   2.342   4.482   7.492 -0.5022 -0.1249  0.0598
31477SOL    HW298888   2.306   4.360   7.409 -0.9666  0.8781 -1.2497
31478SOL     OW98889   6.869   7.984   7.087  0.1882  0.4622 -0.0571
31478SOL    HW198890   6.800   7.920   7.073  0.3365 -0.0005  1.2042
31478SOL    HW298891   6.856   8.013   7.177  1.7157  0.2746  0.2408
31479SOL     OW98892  10.688   6.625   9.364  0.5505  0.2376 -0.3203
31479SOL    HW198893  10.775   6.654   9.392  1.1701 -0.5591 -1.3436
31479SOL    HW298894  10.640   6.614   9.446  1.6179  0.0636  0.3107
31480SOL     OW98895   4.247   1.673   0.848  0.2371 -0.0284 -0.1368
31480SOL    HW198896   4.300   1.740   0.890 -0.7316  0.5680  0.1604
31480SOL    HW298897   4.180   1.721   0.799  0.9993 -0.7161 -1.9372
31481SOL     OW98898   0.600   8.827   9.570  0.0057  0.1294  0.1479
31481SOL    HW198899   0.585   8.916   9.601  0.1865  0.4548 -0.6694
31481SOL    HW298900   0.566   8.827   9.480  2.8207  0.2875 -1.0108
31482SOL     OW98901   4.994   9.846   1.461  0.0817  0.2067  0.2632
31482SOL    HW198902   4.953   9.821   1.544 -0.8979 -0.0127 -0.2727
31482SOL    HW298903   4.977   9.773   1.403  1.0958  0.1974 -0.0345
31483SOL     OW98904   8.429   7.084  10.313  0.0985 -0.0030  0.0057
31483SOL    HW198905   8.392   7.038  10.389 -1.2501 -0.2604 -0.7617
31483SOL    HW298906   8.509   7.125  10.346  0.7973 -2.0205  0.9820
31484SOL     OW98907   1.479   4.768   8.614  0.1493 -0.1375  0.2767
31484SOL    HW198908   1.487   4.763   8.519 -2.0145  0.1533  0.0143
31484SOL    HW298909   1.568   4.781   8.646  0.9027 -0.1556 -1.7104
31485SOL     OW98910   1.720   4.902   2.994 -0.4000  0.2735 -0.1217
31485SOL    HW198911   1.748   4.954   2.918 -0.4550 -0.7562 -0.8717
31485SOL    HW298912   1.628   4.925   3.007 -0.7343 -0.4386 -1.1424
31486SOL     OW98913   8.637   4.138   4.836 -0.0389  0.0069  0.2485
31486SOL    HW198914   8.719   4.128   4.884 -0.2674  0.8574  0.8436
31486SOL    HW298915   8.619   4.051   4.801 -0.0619 -0.7512  2.0321
31487SOL     OW98916  11.072   6.682   6.523  0.2928 -0.3063  0.3728
31487SOL    HW198917  11.077   6.587   6.535  0.7499 -0.3540 -0.1700
31487SOL    HW298918  11.138   6.717   6.583  0.1482 -0.3308  0.5474
31488SOL     OW98919   8.951   0.665  10.334 -0.2391  0.4286  0.0074
31488SOL    HW198920   8.878   0.643  10.391  0.1245 -0.9138 -0.0287
31488SOL    HW298921   8.917   0.655  10.245  0.3236 -1.5439 -0.0340
31489SOL     OW98922   8.010   4.066   5.221  0.4942  0.0148  0.3537
31489SOL    HW198923   7.952   3.994   5.196 -1.3158  1.4788  0.1050
31489SOL    HW298924   8.012   4.122   5.144 -2.0659  2.6381  1.9861
31490SOL     OW98925   2.351   0.072   2.641  0.4060  0.2013 -0.4776
31490SOL    HW198926   2.263   0.037   2.626 -0.3874  1.6586  0.6345
31490SOL    HW298927   2.342   0.166   2.629  1.7881  0.3881 -0.1728
31491SOL     OW98928   7.368   9.313   3.232  0.1880  0.3920 -0.0462
31491SOL    HW198929   7.435   9.246   3.217  1.7056  2.1661 -1.7604
31491SOL    HW298930   7.294   9.265   3.269  1.0005 -2.3063 -1.6502
31492SOL     OW98931   0.194   5.528  10.680 -0.0255 -0.0071  0.1263
31492SOL    HW198932   0.270   5.510  10.624  0.7745  1.0881  0.8173
31492SOL    HW298933   0.230   5.525  10.769 -0.8365  0.3578  0.4681
31493SOL     OW98934   9.144   2.489   9.550  0.2429 -0.3475 -0.2304
31493SOL    HW198935   9.132   2.581   9.524  1.6270 -0.6503 -2.1910
31493SOL    HW298936   9.060   2.465   9.589  0.2555  2.0878  1.5754
31494SOL     OW98937   5.080   4.321   9.868 -0.6946 -0.0367 -0.0995
31494SOL    HW198938   5.061   4.227   9.865  0.1275 -0.1904 -1.0094
31494SOL    HW298939   5.151   4.329   9.932 -2.4028  0.3083  1.8746
31495SOL     OW98940   3.363   4.667   3.057 -0.1029  0.0366 -0.4522
31495SOL    HW198941   3.359   4.735   3.125 -1.1143  0.8019 -1.2382
31495SOL    HW298942   3.273   4.636   3.050  0.3846 -1.5796  0.0519
31496SOL     OW98943   6.234   2.038   4.812  0.0245  0.1489 -0.5894
31496SOL    HW198944   6.168   2.051   4.744 -1.3121 -2.0778  0.1771
31496SOL    HW298945   6.196   2.078   4.891 -0.7965 -1.7633  0.0258
31497SOL     OW98946   0.647   0.847   6.281 -0.1493 -0.2807 -0.5612
31497SOL    HW198947   0.620   0.796   6.204 -2.0027 -0.5112  0.2011
31497SOL    HW298948   0.592   0.925   6.278  0.6683  0.3254 -0.1450
31498SOL     OW98949   8.371   1.036   6.630  0.1511 -0.3333 -0.3406
31498SOL    HW198950   8.325   1.024   6.713 -0.2081  1.0926 -0.2881
31498SOL    HW298951   8.303   1.021   6.563  0.7292 -2.6835 -0.4534
31499SOL     OW98952   4.175   8.168   5.038 -0.6128  0.6533  0.1369
31499SOL    HW198953   4.239   8.117   4.989 -1.8275 -2.7378  1.7592
31499SOL    HW298954   4.220   8.192   5.119 -0.4804  0.8337  0.0082
31500SOL     OW98955   2.918   4.082   0.921  0.3780 -0.1461  0.2692
31500SOL    HW198956   2.837   4.115   0.883  1.4058  0.4927 -1.4706
31500SOL    HW298957   2.891   4.008   0.975 -1.4943  0.8966  0.8386
31501SOL     OW98958   1.405   2.092   3.742  0.2018 -0.2216  0.1849
31501SOL    HW198959   1.480   2.094   3.683 -0.1754 -0.6212 -0.3233
31501SOL    HW298960   1.391   2.184   3.767 -0.9545  0.2916 -2.0914
31502SOL     OW98961  10.352   6.129   1.621  0.0370  0.1767 -0.5345
31502SOL    HW198962  10.309   6.063   1.677 -0.1436  1.7895  1.3279
31502SOL    HW298963  10.444   6.125   1.647 -0.0749  1.0468  0.0194
31503SOL     OW98964   1.632   0.469  10.189 -0.1985 -0.0918 -0.1202
31503SOL    HW198965   1.684   0.510  10.120  1.4998  0.0053  1.1639
31503SOL    HW298966   1.615   0.539  10.251  1.0919 -0.8400  1.1438
31504SOL     OW98967   5.750   3.096  10.682  0.1042 -0.3833  0.0216
31504SOL    HW198968   5.661   3.125  10.663  0.7699 -0.1165 -3.2714
31504SOL    HW298969   5.758   3.011  10.638  2.1773  0.7894 -2.0752
31505SOL     OW98970   6.791   9.380  11.046 -0.1267  0.6447 -0.3074
31505SOL    HW198971   6.822   9.417  11.128 -1.1499  0.5132  0.1504
31505SOL    HW298972   6.754   9.295  11.070  2.3754 -0.8775 -1.3526
31506SOL     OW98973   7.458   6.408   4.557 -0.0979 -0.0787 -0.6277
31506SOL    HW198974   7.396   6.432   4.489  0.7016 -1.9151 -2.0882
31506SOL    HW298975   7.484   6.319   4.536  3.7564  0.8674 -0.7115
31507SOL     OW98976   0.458   7.539   0.319 -0.5096  0.6757  0.1834
31507SOL    HW198977   0.489   7.536   0.228 -0.0781  0.8242  0.3232
31507SOL    HW298978   0.529   7.499   0.370 -1.2363 -0.4444  0.3332
31508SOL     OW98979   6.733   0.513   9.971  0.1827 -0.8083 -0.5173
31508SOL    HW198980   6.810   0.563   9.944  2.6691 -3.4740  1.0495
31508SOL    HW298981   6.724   0.532  10.065 -2.2172  0.7400 -0.9758
31509SOL     OW98982   6.579   9.032   7.546  0.3121 -0.9444 -0.0672
31509SOL    HW198983   6.487   9.033   7.518  0.3084 -1.2095 -0.0708
31509SOL    HW298984   6.611   9.121   7.528 -0.8426  0.1883  2.9246
31510SOL     OW98985   6.304  10.575   4.803 -0.5711  0.4388  0.0137
31510SOL    HW198986   6.313  10.651   4.745 -1.1403  0.8256  0.4102
31510SOL    HW298987   6.227  10.596   4.857  0.6302  0.6367  1.7063
31511SOL     OW98988   7.357   3.186   2.909 -0.2183  0.0568 -0.0280
31511SOL    HW198989   7.432   3.152   2.859 -0.1022 -1.2475  0.9604
31511SOL    HW298990   7.282   3.137   2.875 -0.5050  0.8057 -0.4824
31512SOL     OW98991   5.946   0.222   1.257  0.1527  0.0230  0.1212
31512SOL    HW198992   6.004   0.224   1.333  1.4839  2.0143 -0.8776
31512SOL    HW298993   5.989   0.162   1.196  0.7454  0.8180 -0.2646
31513SOL     OW98994   5.313   4.192   1.646 -0.1534  0.1624 -0.0403
31513SOL    HW198995   5.339   4.283   1.658 -0.2389  0.1464  0.3038
31513SOL    HW298996   5.319   4.177   1.552  0.5701  0.3091 -0.0213
31514SOL     OW98997   7.183   1.168   3.533 -0.5773 -0.1040 -0.3994
31514SOL    HW198998   7.158   1.232   3.600 -2.0839  0.1383 -1.1651
31514SOL    HW298999   7.154   1.206   3.450  1.2248 -0.4270 -1.2124
31515SOL     OW99000   7.913   2.105   3.124  0.1168 -0.0061 -0.1201
31515SOL    HW199001   7.883   2.111   3.214  1.1190 -1.7353  0.3831
31515SOL    HW299002   7.951   2.017   3.117  0.2202  0.1425 -2.1813
31516SOL     OW99003   7.410   8.699   6.640 -0.6464 -0.6487  0.0904
31516SOL    HW199004   7.467   8.776   6.636 -0.9338 -0.3483  1.4827
31516SOL    HW299005   7.470   8.625   6.630 -0.3122 -0.2838 -0.7806
31517SOL     OW99006   1.177   1.460   1.610  0.1049 -0.3234  0.2852
31517SOL    HW199007   1.125   1.535   1.640  0.4623  1.1939 -2.4593
31517SOL    HW299008   1.267   1.487   1.625  0.2092 -0.5594  0.0842
31518SOL     OW99009   5.138   5.438   2.551 -0.1277 -0.1835 -0.6129
31518SOL    HW199010   5.137   5.356   2.501 -0.3686 -0.9697  0.6303
31518SOL    HW299011   5.211   5.487   2.515  0.6407 -1.3688 -0.7464
31519SOL     OW99012   1.412   1.865   6.649  0.0919  0.4103 -0.3915
31519SOL    HW199013   1.444   1.815   6.574  0.4156  1.6717 -1.1197
31519SOL    HW299014   1.474   1.938   6.658 -0.0826  0.4168  0.9514
31520SOL     OW99015   7.721   4.652   5.654 -0.1795 -0.0012  0.2935
31520SOL    HW199016   7.646   4.694   5.697 -1.3344 -1.4462 -0.2190
31520SOL    HW299017   7.795   4.668   5.713 -1.1748  0.2966  1.5068
31521SOL     OW99018  10.118   2.746   4.787 -0.2051  0.3871 -0.1546
31521SOL    HW199019  10.073   2.767   4.869 -1.0366  1.1042 -0.7692
31521SOL    HW299020  10.053   2.762   4.719  0.4581 -0.2357 -0.9621
31522SOL     OW99021   8.982   7.337   8.205  0.3889  0.3755  0.3452
31522SOL    HW199022   8.986   7.245   8.179  1.8801 -0.1543  2.1952
31522SOL    HW299023   9.071   7.369   8.194  0.2844  1.0780  1.3707
31523SOL     OW99024   5.258   0.114   6.896 -0.4069 -0.2431 -0.3484
31523SOL    HW199025   5.250   0.130   6.802 -0.5318  1.4518 -0.0915
31523SOL    HW299026   5.352   0.110   6.912 -0.3827 -2.8897 -0.8574
31524SOL     OW99027   7.333   2.382   2.130  0.3590 -0.2367  0.3158
31524SOL    HW199028   7.332   2.455   2.191  1.4292 -0.1309  0.2212
31524SOL    HW299029   7.260   2.399   2.070  0.0003  0.2362  0.8883
31525SOL     OW99030  10.960   7.334   7.762 -0.1922 -0.3020 -0.2681
31525SOL    HW199031  10.922   7.282   7.833  0.9007 -0.5128  0.1806
31525SOL    HW299032  11.006   7.405   7.807  0.2933 -0.2939 -0.7712
31526SOL     OW99033   8.645  10.069   7.776  0.3011  0.2084  0.1098
31526SOL    HW199034   8.557  10.105   7.761  0.3272  0.0105 -0.5299
31526SOL    HW299035   8.659  10.079   7.870 -0.2960  0.4976  0.1717
31527SOL     OW99036   6.226   1.005   2.290  0.2147  0.1949 -0.0960
31527SOL    HW199037   6.148   0.949   2.284  0.2463  0.1618 -0.2034
31527SOL    HW299038   6.258   1.010   2.200  1.6282 -1.6091  0.2329
31528SOL     OW99039   0.679   0.954   2.547  1.2324 -0.6191  0.5003
31528SOL    HW199040   0.709   0.935   2.457 -0.1027  0.1447 -0.1289
31528SOL    HW299041   0.584   0.956   2.540  0.9152 -3.3567  2.5125
31529SOL     OW99042   1.748   2.583   5.957  0.0117 -0.3230  0.1261
31529SOL    HW199043   1.718   2.659   6.006 -1.3894 -1.6304  1.3996
31529SOL    HW299044   1.679   2.568   5.892 -0.6260 -1.4724  1.0101
31530SOL     OW99045   9.635  10.461   0.252  0.4175  0.1428 -0.1626
31530SOL    HW199046   9.725  10.446   0.282 -0.5403 -1.4641  2.2552
31530SOL    HW299047   9.631  10.555   0.234  2.1168  0.5912  1.4833
31531SOL     OW99048   0.082   1.396   8.294  0.2197  0.1644  0.0551
31531SOL    HW199049   0.026   1.411   8.218  0.1510  0.7571  0.2134
31531SOL    HW299050   0.149   1.464   8.288  0.8880 -0.5065 -0.1000
31532SOL     OW99051   1.431   7.759   7.725  0.2865 -0.4227  0.6729
31532SOL    HW199052   1.354   7.713   7.690  1.4629 -1.3411 -0.8653
31532SOL    HW299053   1.446   7.831   7.664 -0.1465  0.6415  1.7677
31533SOL     OW99054   5.044   7.097   4.786  0.0401 -0.4476  0.0311
31533SOL    HW199055   5.026   7.032   4.854  0.6400 -0.0101  0.6105
31533SOL    HW299056   5.106   7.158   4.825 -0.8385  0.7481 -0.3455
31534SOL     OW99057   5.155   2.835   8.666 -0.1476 -1.1634 -0.2679
31534SOL    HW199058   5.208   2.770   8.711 -1.8342 -1.7535  0.9694
31534SOL    HW299059   5.213   2.911   8.655  0.3761 -1.0217  2.8265
31535SOL     OW99060   0.994   6.963   6.413 -0.0787 -0.1392  0.8656
31535SOL    HW199061   1.034   6.955   6.327 -0.1080 -0.9898  0.9237
31535SOL    HW299062   1.009   7.054   6.438 -0.4549  0.2376 -0.2237
31536SOL     OW99063   8.008   7.358   4.808 -0.2905 -0.1934  0.2721
31536SOL    HW199064   8.005   7.288   4.743  1.4812 -0.0885  0.0360
31536SOL    HW299065   8.034   7.313   4.889 -0.3554  0.0055  0.4025
31537SOL     OW99066   6.700   6.350   4.296 -0.1321 -0.2872 -0.0623
31537SOL    HW199067   6.655   6.283   4.348 -2.2249  0.7040 -0.4661
31537SOL    HW299068   6.662   6.432   4.325  0.2531  0.4792 -1.5981
31538SOL     OW99069  10.863   4.371   7.952  0.5735  0.2108  0.4425
31538SOL    HW199070  10.852   4.455   7.907 -0.1527 -1.2641 -2.3644
31538SOL    HW299071  10.782   4.323   7.934  0.3812 -0.6310  3.1597
31539SOL     OW99072   7.278   4.839   4.195 -0.3489 -0.3309  0.0778
31539SOL    HW199073   7.328   4.816   4.117  1.2717  0.9715  0.6737
31539SOL    HW299074   7.223   4.762   4.212 -3.2968  0.5039 -4.1556
31540SOL     OW99075   9.702   3.133   8.300  0.4773 -0.3971  0.6974
31540SOL    HW199076   9.616   3.165   8.272  1.9470  1.5387 -1.9990
31540SOL    HW299077   9.691   3.038   8.306 -1.4022 -0.4115 -1.4224
31541SOL     OW99078   5.230   1.913   3.231  0.6595 -0.5236 -0.3065
31541SOL    HW199079   5.145   1.899   3.274  0.9577 -1.2338  0.0758
31541SOL    HW299080   5.258   1.999   3.261  0.7592 -0.9156  0.7729
31542SOL     OW99081   7.569   1.379   3.958  0.3011 -0.0581 -0.3608
31542SOL    HW199082   7.513   1.325   4.013  1.1662 -0.2706  0.3357
31542SOL    HW299083   7.510   1.415   3.892 -0.9283  0.9019  1.2039
31543SOL     OW99084  11.019   9.019   9.920  0.1163  0.0464  0.6356
31543SOL    HW199085  10.933   9.057   9.903  0.9957  1.6447 -0.5570
31543SOL    HW299086  11.019   9.001  10.014 -0.2822  3.4128  1.3979
31544SOL     OW99087   3.653   5.664   5.397 -0.1885  0.6499  0.2164
31544SOL    HW199088   3.564   5.673   5.430  0.2168  0.0487  1.5287
31544SOL    HW299089   3.668   5.569   5.395  0.0231  0.6795 -1.1638
31545SOL     OW99090   1.250   3.663   3.587 -0.1441 -0.6460  0.0336
31545SOL    HW199091   1.314   3.726   3.620 -0.2652 -0.8598  0.6945
31545SOL    HW299092   1.201   3.712   3.521 -0.3282  0.0065  0.6380
31546SOL     OW99093   6.448   0.484   5.739 -0.2081 -0.0618  0.6301
31546SOL    HW199094   6.533   0.441   5.737  0.4756  1.1866  1.2928
31546SOL    HW299095   6.387   0.417   5.770  0.3588 -1.2134 -0.6481
31547SOL     OW99096   2.364   5.878   8.645 -0.3796 -0.0839 -0.3011
31547SOL    HW199097   2.302   5.857   8.574 -0.4909 -2.0172  0.3059
31547SOL    HW299098   2.450   5.880   8.602 -0.4662 -1.0754 -0.5340
31548SOL     OW99099   0.221  10.755   6.622  0.7081 -0.1153  0.4238
31548SOL    HW199100   0.226  10.688   6.554 -0.4930  0.3687 -0.1632
31548SOL    HW299101   0.260  10.713   6.699 -1.5821 -2.2000  0.5975
31549SOL     OW99102   8.663   8.223   9.034 -0.0414 -0.9286 -0.3411
31549SOL    HW199103   8.613   8.188   9.108 -0.0256 -0.9832 -0.3564
31549SOL    HW299104   8.661   8.318   9.047  1.0435 -0.9895  0.4362
31550SOL     OW99105   6.157   4.430   0.100 -0.0985  0.4313 -0.0081
31550SOL    HW199106   6.135   4.493   0.168 -1.3135  0.6008 -0.5288
31550SOL    HW299107   6.077   4.422   0.048 -0.0551 -1.6906  0.1573
31551SOL     OW99108   2.995   8.179   4.349 -0.5954 -0.0847 -0.4156
31551SOL    HW199109   2.950   8.101   4.383  1.1592  0.0360  2.4521
31551SOL    HW299110   2.944   8.253   4.382  0.6718  0.0159  1.4521
31552SOL     OW99111   7.315   7.749   5.260  0.2630 -0.3041  0.2834
31552SOL    HW199112   7.310   7.827   5.315  0.4993  1.6171 -2.2160
31552SOL    HW299113   7.406   7.721   5.266  1.0641  1.7237 -1.3613
31553SOL     OW99114   1.246   2.414  10.217 -0.5593 -0.3260  0.6752
31553SOL    HW199115   1.160   2.443  10.187 -0.0955 -1.3564 -1.8738
31553SOL    HW299116   1.231   2.386  10.308 -3.1932 -1.6173 -0.0604
31554SOL     OW99117   2.055   1.654   1.745  0.1731 -0.1504  0.3678
31554SOL    HW199118   2.124   1.627   1.806  0.1967  0.5318  0.6429
31554SOL    HW299119   1.985   1.591   1.760  1.5497 -2.3228 -1.5214
31555SOL     OW99120  10.086   7.370   3.875 -0.4343  0.6310 -0.0402
31555SOL    HW199121  10.076   7.409   3.963  0.5726  1.7517 -0.3973
31555SOL    HW299122  10.137   7.291   3.889 -1.4239  0.0766  0.5452
31556SOL     OW99123   6.600   6.006   6.728 -0.3694 -0.3302  0.2887
31556SOL    HW199124   6.691   6.025   6.705 -1.0608  2.9561 -0.2038
31556SOL    HW299125   6.551   6.025   6.648 -1.8927  2.4019  1.7240
31557SOL     OW99126  10.162   1.072   6.460 -0.4687  0.2632  0.4022
31557SOL    HW199127  10.125   1.090   6.374 -1.6760 -0.6621  0.7008
31557SOL    HW299128  10.168   1.157   6.502  0.0166  0.7123 -0.5286
31558SOL     OW99129  10.398   8.280   1.159 -0.4598 -0.0764 -0.0681
31558SOL    HW199130  10.460   8.246   1.224  0.8241  0.5548 -0.9191
31558SOL    HW299131  10.360   8.358   1.201  0.8875  0.7428 -0.3061
31559SOL     OW99132  10.232   7.921   3.674 -0.5725 -0.3497  0.3607
31559SOL    HW199133  10.208   7.835   3.640  0.3122 -0.4560 -0.0187
31559SOL    HW299134  10.214   7.981   3.602 -0.9034 -0.2610  0.5185
31560SOL     OW99135   9.442   7.038   9.995 -0.0485  0.0841 -0.4177
31560SOL    HW199136   9.425   6.951  10.030  1.1387 -1.6549 -3.7854
31560SOL    HW299137   9.520   7.067  10.042  0.3616 -1.2777 -0.2085
31561SOL     OW99138   2.491   3.650   1.748 -0.0497 -0.7028  0.0036
31561SOL    HW199139   2.445   3.572   1.716 -1.7738  0.0778  0.4713
31561SOL    HW299140   2.422   3.705   1.785  0.8868  1.7737 -1.6877
31562SOL     OW99141   1.463   8.383   2.438 -0.1374 -0.0479 -0.6408
31562SOL    HW199142   1.524   8.321   2.478 -2.1540 -1.2225  0.8206
31562SOL    HW299143   1.422   8.334   2.367 -0.5499  0.1622 -0.5526
31563SOL     OW99144   4.720   5.593   6.470 -0.3711  0.1066 -0.4310
31563SOL    HW199145   4.651   5.638   6.520  1.8649  1.1895  1.9012
31563SOL    HW299146   4.673   5.524   6.422 -2.8331 -0.8616  2.9407
31564SOL     OW99147   0.332   7.439   4.199  0.0326 -0.2705  0.5509
31564SOL    HW199148   0.238   7.432   4.187 -0.1059  1.2887  0.5789
31564SOL    HW299149   0.353   7.529   4.177  1.1947  0.0433  2.6365
31565SOL     OW99150   5.772   8.661   5.037  0.2814 -0.8735 -0.3362
31565SOL    HW199151   5.680   8.657   5.013  0.0376 -0.3079  0.4475
31565SOL    HW299152   5.820   8.649   4.955 -0.4921  0.6347 -1.0430
31566SOL     OW99153   7.084  11.016   6.329 -0.4847 -0.3278 -0.0057
31566SOL    HW199154   7.136  11.088   6.292  1.2034 -0.5330  1.8278
31566SOL    HW299155   7.048  11.052   6.410  0.2362 -1.4470  0.8437
31567SOL     OW99156   1.378   8.044   8.906 -0.2922  0.0519 -0.0900
31567SOL    HW199157   1.317   8.076   8.973 -0.3670 -0.4065  0.0659
31567SOL    HW299158   1.345   7.957   8.883 -0.6677  0.4882 -1.2391
31568SOL     OW99159   4.048   8.810   5.870 -0.6522  0.4762 -0.2083
31568SOL    HW199160   4.125   8.834   5.922 -0.4654 -2.1119  0.8637
31568SOL    HW299161   4.077   8.736   5.817 -1.4045  1.8477 -2.6869
31569SOL     OW99162   5.504   6.531   6.247  0.0151  0.1559  0.5048
31569SOL    HW199163   5.565   6.566   6.312 -0.7047  0.5447  0.9817
31569SOL    HW299164   5.457   6.462   6.294 -0.6619  0.5875  0.4840
31570SOL     OW99165   8.025   5.496   5.085  0.1344 -0.1055  0.2822
31570SOL    HW199166   7.933   5.513   5.106 -0.1366 -2.0561  0.9520
31570SOL    HW299167   8.065   5.582   5.081 -1.7047  0.8010  0.0455
31571SOL     OW99168   7.409   7.161   7.034 -0.0475  0.6560 -0.1980
31571SOL    HW199169   7.412   7.112   7.117 -0.9155 -0.1972 -0.6584
31571SOL    HW299170   7.453   7.104   6.971  0.8505  1.4196 -0.2882
31572SOL     OW99171   0.774   6.091   7.839 -0.1942 -0.2246  0.3660
31572SOL    HW199172   0.741   6.025   7.779 -0.2151  1.2371 -1.3027
31572SOL    HW299173   0.754   6.175   7.797 -0.6291  0.9046  2.6241
31573SOL     OW99174  10.813   0.786   6.134 -0.1408 -0.1288  0.0427
31573SOL    HW199175  10.821   0.880   6.123 -0.8921  0.3302  2.6968
31573SOL    HW299176  10.902   0.752   6.118  0.5968  1.2882  0.9478
31574SOL     OW99177   5.798   2.045   9.649 -0.1601  0.3695 -0.1309
31574SOL    HW199178   5.858   2.079   9.582 -2.4364  0.9327 -2.0205
31574SOL    HW299179   5.777   2.120   9.703  0.7434  0.1848  0.4967
31575SOL     OW99180  10.884  10.308   1.060 -0.0176 -0.6097  0.1610
31575SOL    HW199181  10.978  10.310   1.042 -0.0532 -3.0201 -0.6578
31575SOL    HW299182  10.844  10.313   0.974 -0.8025  2.1956  0.5765
31576SOL     OW99183   7.120   0.984   0.622  0.1665  0.1932  0.5846
31576SOL    HW199184   7.137   0.901   0.666 -1.2010 -0.3420  0.1796
31576SOL    HW299185   7.033   1.010   0.654 -0.2850  0.4455 -0.7814
31577SOL     OW99186   4.592   0.740   3.324  0.2944  0.5538 -0.1304
31577SOL    HW199187   4.653   0.711   3.256  0.4536  0.1707  0.1714
31577SOL    HW299188   4.644   0.742   3.404  0.2975  1.7209 -0.1363
31578SOL     OW99189   0.476   4.127   5.709  0.6035 -0.2607  0.3076
31578SOL    HW199190   0.467   4.170   5.794 -0.4028 -0.6275  0.3996
31578SOL    HW299191   0.388   4.131   5.671  1.0875  0.1035 -0.8226
31579SOL     OW99192   8.955  10.035   3.730 -0.0940 -0.0766  0.8497
31579SOL    HW199193   9.003   9.960   3.765  2.8277  0.3274 -1.7291
31579SOL    HW299194   9.021  10.104   3.724 -2.1601  2.0236  1.1158
31580SOL     OW99195  10.145   7.920   4.678 -0.3803 -0.4319  0.3854
31580SOL    HW199196  10.086   7.907   4.604 -1.4184 -0.0800  1.1338
31580SOL    HW299197  10.172   8.012   4.672 -1.1166 -0.1725  0.8954
31581SOL     OW99198  10.088   1.509   7.283  0.0430 -0.4886 -0.4331
31581SOL    HW199199  10.034   1.453   7.227 -0.4946  2.1939 -2.8540
31581SOL    HW299200  10.081   1.596   7.243  1.4409  1.1851  2.6299
31582SOL     OW99201  10.971   7.990   4.412 -0.2961 -0.5574 -0.1971
31582SOL    HW199202  10.950   7.966   4.321  0.5357  0.6604 -0.7375
31582SOL    HW299203  11.066   7.982   4.418 -0.2185  0.4470  0.2168
31583SOL     OW99204   6.760   3.901   3.450 -0.2031  0.8816 -0.3521
31583SOL    HW199205   6.832   3.841   3.465 -0.3896 -0.1819 -3.1118
31583SOL    HW299206   6.796   3.968   3.392 -0.4700  2.5206  1.2874
31584SOL     OW99207   2.685   7.473   4.644 -0.1923 -0.1164 -0.0893
31584SOL    HW199208   2.705   7.552   4.593 -1.4508  1.2507  1.4369
31584SOL    HW299209   2.623   7.502   4.710 -0.1904 -2.2746  0.9426
31585SOL     OW99210  10.034   9.576   8.389 -0.0245  0.6781 -0.6537
31585SOL    HW199211   9.939   9.584   8.386 -0.1765 -0.8341 -0.6776
31585SOL    HW299212  10.065   9.666   8.398 -1.4276  1.2431 -1.1413
31586SOL     OW99213   2.608  10.421   3.159 -0.3942 -0.0128 -1.0582
31586SOL    HW199214   2.668  10.456   3.225  0.0145 -1.5461 -0.5745
31586SOL    HW299215   2.654  10.345   3.123 -2.4216 -1.8301  0.0013
31587SOL     OW99216   0.584   4.889   2.390 -0.1652 -0.5403 -0.5137
31587SOL    HW199217   0.670   4.903   2.351 -0.5215  2.2897 -0.4449
31587SOL    HW299218   0.598   4.898   2.485 -0.4823 -0.4159 -0.4760
31588SOL     OW99219   3.321   1.057   9.780 -0.3998 -0.2054 -0.4264
31588SOL    HW199220   3.365   1.010   9.709 -0.8115 -2.0774  0.4759
31588SOL    HW299221   3.229   1.061   9.752 -0.3334  0.2633 -0.5872
31589SOL     OW99222   7.361   6.799   0.273 -0.1989 -0.1907 -0.3797
31589SOL    HW199223   7.273   6.789   0.309  0.0888  0.3615  0.5217
31589SOL    HW299224   7.419   6.787   0.349  0.3563  3.8100  0.0278
31590SOL     OW99225   9.003  10.342   2.827 -0.1522  0.1170 -0.5231
31590SOL    HW199226   9.023  10.262   2.876 -1.3667  1.0649  1.6948
31590SOL    HW299227   8.942  10.313   2.759 -0.8060 -0.8322  0.4296
31591SOL     OW99228   2.068   6.743   1.075 -0.4764  0.1798  0.1676
31591SOL    HW199229   2.128   6.794   1.020 -0.3420 -0.4208 -0.2499
31591SOL    HW299230   2.124   6.705   1.142  0.2068 -2.8011 -1.8936
31592SOL     OW99231   1.857   1.788   3.932 -0.4383 -0.1120  0.4991
31592SOL    HW199232   1.884   1.836   3.853  1.7583 -0.2080  1.1319
31592SOL    HW299233   1.807   1.851   3.983 -0.7463  0.3489 -0.3537
31593SOL     OW99234   4.249   4.303   9.200  0.4674 -0.0903 -0.4965
31593SOL    HW199235   4.236   4.393   9.231  0.2947 -0.0703 -0.6252
31593SOL    HW299236   4.255   4.251   9.281  2.0068  0.2190 -0.3836
31594SOL     OW99237   4.699   1.441   4.992  0.1926  0.1822 -0.3979
31594SOL    HW199238   4.607   1.423   5.012  0.2214  1.6290  1.2739
31594SOL    HW299239   4.701   1.453   4.897 -1.1342 -0.8935 -0.6016
31595SOL     OW99240   5.829   0.841  11.070  0.1397 -0.7857 -0.1798
31595SOL    HW199241   5.922   0.857  11.086  0.0379 -0.5352  0.1909
31595SOL    HW299242   5.824   0.749  11.044  0.4097 -1.0197  0.5580
31596SOL     OW99243   8.339   6.413   6.682 -0.2272 -0.5429 -0.4299
31596SOL    HW199244   8.334   6.439   6.774 -1.5861 -0.9874 -0.3509
31596SOL    HW299245   8.366   6.322   6.683 -0.1946 -0.5335 -0.4679
31597SOL     OW99246   0.402   9.297   0.327  0.0991  0.1348 -0.3863
31597SOL    HW199247   0.330   9.348   0.292 -0.3549  0.5628  1.0926
31597SOL    HW299248   0.428   9.344   0.407  0.6831 -1.1031  0.1778
31598SOL     OW99249   8.051   1.234   0.231  0.2833  0.1317  0.5179
31598SOL    HW199250   7.979   1.294   0.213 -0.3972 -0.6799  0.4709
31598SOL    HW299251   8.112   1.248   0.158 -0.3892 -0.0155 -0.0851
31599SOL     OW99252   6.962   5.209   2.446 -0.3193 -0.2034 -0.3388
31599SOL    HW199253   6.969   5.142   2.514 -0.0189  0.8422  0.6908
31599SOL    HW299254   6.887   5.263   2.472 -0.1980  0.2111 -0.8302
31600SOL     OW99255   3.446   0.318   9.752  0.4489 -0.0470  0.0212
31600SOL    HW199256   3.454   0.348   9.842 -2.6519  1.5817 -0.0940
31600SOL    HW299257   3.383   0.246   9.755 -0.0622  0.3357 -0.8535
31601SOL     OW99258   1.038   9.895   7.123 -0.6096  0.4501  0.7039
31601SOL    HW199259   1.104   9.855   7.179 -3.2163 -3.2783  1.4856
31601SOL    HW299260   0.968   9.921   7.183 -1.2039  1.4124 -0.3639
31602SOL     OW99261   6.768   5.443   8.778 -0.1881 -0.1012 -0.0464
31602SOL    HW199262   6.858   5.423   8.802 -0.0532 -0.5123 -0.8641
31602SOL    HW299263   6.719   5.363   8.798 -0.4686  0.2851  0.8538
31603SOL     OW99264   5.666   3.889   4.424  0.3226  0.0555  0.5622
31603SOL    HW199265   5.658   3.932   4.509  0.3606  1.1677  0.0254
31603SOL    HW299266   5.733   3.822   4.437  1.5016  1.2689  1.0238
31604SOL     OW99267   6.336   0.574   3.016 -0.8727 -0.3698  0.1427
31604SOL    HW199268   6.283   0.629   2.959  0.0151 -1.9328 -2.3560
31604SOL    HW299269   6.362   0.500   2.961  0.9211 -1.4724  2.2992
31605SOL     OW99270   5.027   4.887   2.286 -0.3831 -0.3685  0.2235
31605SOL    HW199271   5.001   4.977   2.304  1.9513  0.6545 -0.9750
31605SOL    HW299272   4.992   4.836   2.359 -2.2866  1.3838  0.6221
31606SOL     OW99273  10.260   1.916   4.062 -0.2979  0.3669  0.0477
31606SOL    HW199274  10.216   1.996   4.031  1.4136  2.1249  1.7875
31606SOL    HW299275  10.337   1.907   4.006 -0.5934 -0.1918 -0.2725
31607SOL     OW99276   6.638  11.019   8.449 -0.0166  0.0466  0.1697
31607SOL    HW199277   6.670  10.947   8.504 -0.6305 -1.0610 -0.8791
31607SOL    HW299278   6.695  11.093   8.472 -1.3449  0.1776  3.5446
31608SOL     OW99279   2.832   3.146   9.354 -0.4276 -0.4905  0.4436
31608SOL    HW199280   2.859   3.068   9.305  0.7148  0.2827 -0.2241
31608SOL    HW299281   2.738   3.153   9.339 -0.7962 -2.4474  1.5890
31609SOL     OW99282   0.403   4.088   9.240  0.1686  0.0895 -0.4465
31609SOL    HW199283   0.353   4.034   9.178  1.9737 -2.9047  0.4647
31609SOL    HW299284   0.346   4.095   9.317 -0.2997 -0.1327 -0.7670
31610SOL     OW99285   9.852   4.284   4.437  0.3853 -0.1487 -0.2668
31610SOL    HW199286   9.879   4.198   4.405 -1.2537 -0.5755 -0.6315
31610SOL    HW299287   9.806   4.324   4.363 -0.0959  0.4493  0.3394
31611SOL     OW99288   6.682   1.988   0.561 -0.1126  0.0353 -0.2145
31611SOL    HW199289   6.719   2.076   0.546 -0.6411  0.2187 -0.4643
31611SOL    HW299290   6.612   1.980   0.496 -1.1914  0.0925  0.9162
31612SOL     OW99291   4.996   7.012   5.209  0.5343 -0.2935 -0.4300
31612SOL    HW199292   5.029   7.102   5.211 -0.5823  0.2141 -2.4211
31612SOL    HW299293   4.907   7.020   5.176  1.2863 -2.3308 -3.2919
31613SOL     OW99294   4.654   0.736  10.892 -0.2058 -0.1425 -0.1651
31613SOL    HW199295   4.670   0.773  10.806  0.8800 -1.1460 -0.4082
31613SOL    HW299296   4.587   0.794  10.930 -0.1140  0.7858 -1.3446
31614SOL     OW99297   5.585   3.909   8.061  0.1811  0.1118 -0.5259
31614SOL    HW199298   5.495   3.910   8.028 -1.1520 -2.1202  2.4639
31614SOL    HW299299   5.618   3.822   8.039  0.7870  0.1383  0.2218
31615SOL     OW99300   6.998   5.062   8.742 -0.0551 -0.3237  0.5150
31615SOL    HW199301   7.044   5.020   8.815  2.0859 -0.2075 -0.6990
31615SOL    HW299302   7.064   5.117   8.701 -2.0927  2.2645  0.4704
31616SOL     OW99303   1.103   8.334   5.585 -0.4749  0.4782 -0.7644
31616SOL    HW199304   1.116   8.376   5.670 -0.3903  1.4686 -1.2435
31616SOL    HW299305   1.070   8.247   5.605 -0.8462  0.8443  0.2754
31617SOL     OW99306   1.514   2.252   5.352 -0.2422 -0.3063  1.2936
31617SOL    HW199307   1.599   2.272   5.314 -0.5623  0.1280  0.7983
31617SOL    HW299308   1.490   2.168   5.312  0.2500 -0.7741  1.9493
31618SOL     OW99309   4.682  10.192   4.102  0.1288  0.6994 -0.5407
31618SOL    HW199310   4.737  10.269   4.111 -0.8021  1.2994  0.1688
31618SOL    HW299311   4.744  10.119   4.098  0.9884  1.2489  1.3125
31619SOL     OW99312   8.392   6.885   7.398 -0.3712  0.5276 -0.1803
31619SOL    HW199313   8.407   6.801   7.442  3.0931  0.1054 -1.8463
31619SOL    HW299314   8.431   6.950   7.456  0.7333  0.4195 -0.7663
31620SOL     OW99315   2.041  10.719   6.333 -0.0401  0.3617  0.4586
31620SOL    HW199316   1.969  10.782   6.343  0.7551  1.4566 -0.3827
31620SOL    HW299317   2.003  10.635   6.356 -1.3492  1.0445  0.8911
31621SOL     OW99318   9.057   9.166   3.217 -0.7242  0.3408  0.4635
31621SOL    HW199319   9.078   9.252   3.252 -0.0309  0.1327  0.5884
31621SOL    HW299320   8.964   9.154   3.234 -0.5853  0.6115  1.4372
31622SOL     OW99321   1.057   4.100   3.221 -0.4255 -0.0046  1.0120
31622SOL    HW199322   0.971   4.110   3.180 -1.0828 -0.5523  2.2080
31622SOL    HW299323   1.118   4.095   3.147 -1.3396  0.9446  0.1468
31623SOL     OW99324   1.404   4.254   6.435 -0.4412 -0.5953 -0.5871
31623SOL    HW199325   1.381   4.323   6.373 -1.9307 -1.7743 -1.4096
31623SOL    HW299326   1.495   4.233   6.415  1.0483  2.9370  1.5198
31624SOL     OW99327  10.005  10.243   3.831  0.3770  0.1146 -0.3747
31624SOL    HW199328  10.091  10.255   3.869  0.4762 -1.5580  0.0221
31624SOL    HW299329  10.013  10.274   3.741  1.0056  1.2134  0.0559
31625SOL     OW99330   8.150   7.163   8.828  0.0974 -0.2476  0.3072
31625SOL    HW199331   8.148   7.232   8.763  3.1538 -0.0163  0.3321
31625SOL    HW299332   8.138   7.208   8.912 -0.1672 -0.0661  0.1734
31626SOL     OW99333   8.157   6.208   0.684  0.8267  0.1762  0.4887
31626SOL    HW199334   8.168   6.114   0.698  1.4026  0.2236  0.3882
31626SOL    HW299335   8.167   6.220   0.590 -3.1797 -0.1594 -0.1414
31627SOL     OW99336   2.077   0.302   8.904  0.2153 -0.1591  0.1224
31627SOL    HW199337   2.015   0.284   8.833 -0.8705 -2.3200  1.5143
31627SOL    HW299338   2.152   0.246   8.884  0.5488  0.3538 -0.0849
31628SOL     OW99339   2.865   0.710   3.958 -0.2277 -0.2435  0.1768
31628SOL    HW199340   2.895   0.688   3.870  2.2772  2.4149  0.2271
31628SOL    HW299341   2.945   0.730   4.006 -1.5147 -1.6758  3.1462
31629SOL     OW99342   4.811  10.766   2.709 -0.3309 -0.2492  0.1476
31629SOL    HW199343   4.802  10.856   2.739 -2.8927 -0.7033  1.0457
31629SOL    HW299344   4.768  10.714   2.777  1.2122 -2.1871 -0.2734
31630SOL     OW99345   3.336   3.556   4.079  0.9591  0.5936  0.0490
31630SOL    HW199346   3.295   3.502   4.011 -0.7532  1.0801  0.6363
31630SOL    HW299347   3.348   3.496   4.152 -0.2468  0.7862  0.4361
31631SOL     OW99348   0.844   3.689   9.592  0.2250 -0.1867  0.4123
31631SOL    HW199349   0.859   3.744   9.669  0.6027 -1.3671  1.2102
31631SOL    HW299350   0.869   3.744   9.517  0.8192  0.6302  1.1977
31632SOL     OW99351   7.688   7.989  10.686 -0.0373  0.8524 -0.6125
31632SOL    HW199352   7.688   8.076  10.646  1.9219  1.3695  0.3506
31632SOL    HW299353   7.657   8.003  10.775 -2.8795 -0.0367 -1.3744
31633SOL     OW99354   0.608   0.157   5.964  0.2362  0.3234  0.3374
31633SOL    HW199355   0.520   0.121   5.973  0.4661 -0.2385  0.3466
31633SOL    HW299356   0.607   0.237   6.017 -0.1727  0.1524  0.5900
31634SOL     OW99357   3.146   2.770   0.761 -0.0190 -0.1686 -0.5964
31634SOL    HW199358   3.141   2.701   0.694 -0.5398 -0.9818  0.2544
31634SOL    HW299359   3.066   2.760   0.812  1.1358 -0.6918  1.2170
31635SOL     OW99360   3.816   7.333   7.206 -0.0149 -0.2994 -0.0391
31635SOL    HW199361   3.795   7.248   7.244 -2.1401  0.9709  1.7969
31635SOL    HW299362   3.758   7.340   7.130 -0.5418 -0.0898  0.3805
31636SOL     OW99363   8.458   5.681   3.127 -0.4544 -0.2292 -0.9711
31636SOL    HW199364   8.537   5.644   3.168 -0.4560  1.3449  0.5768
31636SOL    HW299365   8.440   5.623   3.054  0.4201 -2.3569  0.4081
31637SOL     OW99366   2.996   9.931   2.465  0.0162  0.1732 -0.1379
31637SOL    HW199367   2.987   9.884   2.548  2.0048  1.6225  0.9950
31637SOL    HW299368   2.936  10.006   2.473 -0.5647 -0.2576 -0.4545
31638SOL     OW99369  10.652   5.994  10.242 -0.1648  0.2274  0.5902
31638SOL    HW199370  10.660   6.086  10.269 -0.7863  0.3656  0.3201
31638SOL    HW299371  10.737   5.956  10.263 -0.1624  0.6749  1.4364
31639SOL     OW99372   7.023  10.372   8.258  0.3354 -0.0903  0.6837
31639SOL    HW199373   7.069  10.417   8.188 -0.1374  0.4102  0.6873
31639SOL    HW299374   7.092  10.336   8.314  0.7089 -0.1632  0.1758
31640SOL     OW99375   4.279   1.869   7.349  0.1765  0.8226  0.1022
31640SOL    HW199376   4.322   1.837   7.428 -2.6256  1.4916  2.0638
31640SOL    HW299377   4.257   1.790   7.300  2.4381  0.4202 -0.3793
31641SOL     OW99378   3.802  10.344   5.374 -0.3923  0.2035 -0.2122
31641SOL    HW199379   3.719  10.297   5.367 -0.9170  1.2102 -0.9811
31641SOL    HW299380   3.819  10.378   5.286  0.9376 -0.1462 -0.1094
31642SOL     OW99381   3.091   2.420   9.393  0.0623  0.3825  0.0875
31642SOL    HW199382   3.052   2.348   9.444  2.7817 -0.5578  1.0520
31642SOL    HW299383   3.102   2.491   9.457 -1.7639  1.3782 -0.6441
31643SOL     OW99384   8.551   9.235   1.309 -0.2247  0.6537  0.4679
31643SOL    HW199385   8.460   9.206   1.307 -0.5384  1.5938  0.5330
31643SOL    HW299386   8.576   9.241   1.217  0.7554 -2.4670  0.4156
31644SOL     OW99387   2.229   8.584   5.879 -0.2103  0.1304  0.0955
31644SOL    HW199388   2.255   8.492   5.875 -1.2610 -0.2054  0.6028
31644SOL    HW299389   2.157   8.592   5.817 -0.1145  0.6193  0.0393
31645SOL     OW99390   8.139   5.369   6.040 -0.2750 -0.1677  0.7081
31645SOL    HW199391   8.090   5.345   6.118 -0.0294 -2.0809  0.3081
31645SOL    HW299392   8.194   5.293   6.021 -1.1289 -0.2396 -1.9463
31646SOL     OW99393   4.033   0.650   8.401 -0.1714  0.6771 -0.4197
31646SOL    HW199394   3.983   0.568   8.396  1.7216 -0.4942 -1.2653
31646SOL    HW299395   4.080   0.654   8.318  2.8131  0.5439  1.1382
31647SOL     OW99396   7.272   3.550   6.929  0.6536  0.1944 -0.4625
31647SOL    HW199397   7.332   3.621   6.908  0.8915  0.8141  1.9360
31647SOL    HW299398   7.190   3.594   6.953  0.5079 -0.3723  0.1222
31648SOL     OW99399   8.636   8.780   0.050 -0.0545 -0.2429  0.2324
31648SOL    HW199400   8.630   8.834   0.129  1.0300 -1.5329  1.2496
31648SOL    HW299401   8.557   8.725   0.053 -0.1651 -0.0852  0.2436
31649SOL     OW99402   8.873   9.379   7.832 -0.5212  0.0501 -0.0993
31649SOL    HW199403   8.832   9.296   7.809 -0.2973 -0.3654  0.9694
31649SOL    HW299404   8.835   9.442   7.771 -2.0232 -0.5113  0.2224
31650SOL     OW99405   5.541   6.048  11.038  0.4624  0.0056  0.2581
31650SOL    HW199406   5.594   6.047  10.958  0.9835 -0.9632  0.5983
31650SOL    HW299407   5.517   5.956  11.052 -1.3318  0.4134  0.1138
31651SOL     OW99408   2.636  10.126   4.160  0.2321  0.1320  0.2611
31651SOL    HW199409   2.671  10.150   4.074 -0.3020 -1.9731 -0.5927
31651SOL    HW299410   2.712  10.091   4.208  0.0453 -1.1457 -0.3308
31652SOL     OW99411   0.369   0.846   1.301 -0.1960 -0.4312 -0.2936
31652SOL    HW199412   0.276   0.865   1.289 -0.4139 -0.5652  1.0292
31652SOL    HW299413   0.372   0.753   1.324  0.1555 -0.2185  0.5806
31653SOL     OW99414   1.944   5.840  10.681 -0.0045 -0.2972 -0.5513
31653SOL    HW199415   1.966   5.765  10.736 -0.9678  0.2637  0.6417
31653SOL    HW299416   1.859   5.868  10.713  1.0659  2.3620  0.1893
31654SOL     OW99417   8.241   9.249   1.444  0.1264 -0.1267 -0.2217
31654SOL    HW199418   8.234   9.319   1.378 -1.1515 -0.1683 -0.1590
31654SOL    HW299419   8.150   9.220   1.457  0.2642  0.2580  1.9538
31655SOL     OW99420   0.633   0.897   2.291  0.4028 -0.5379  0.0026
31655SOL    HW199421   0.560   0.835   2.285 -0.8911  0.9920 -0.7120
31655SOL    HW299422   0.593   0.983   2.278  2.1592  0.4659  0.8756
31656SOL     OW99423  10.406   4.960   8.457 -0.3351  0.3567 -0.2231
31656SOL    HW199424  10.380   5.047   8.427 -2.5471 -0.1602  0.0324
31656SOL    HW299425  10.333   4.903   8.433  0.6547 -1.2725  0.4351
31657SOL     OW99426   8.855   9.170   1.602  0.0993 -0.0242 -0.3982
31657SOL    HW199427   8.762   9.182   1.588  0.1353  0.4059 -0.2620
31657SOL    HW299428   8.861   9.113   1.679 -0.0450  0.4060 -0.0640
31658SOL     OW99429   3.422   8.130   6.640 -0.7137 -0.6282  0.0917
31658SOL    HW199430   3.490   8.139   6.573  0.2778  1.0697  1.2620
31658SOL    HW299431   3.440   8.045   6.680  0.6016 -0.3030  0.2340
31659SOL     OW99432   4.506   1.740   0.057  0.0379 -0.0055 -0.3140
31659SOL    HW199433   4.517   1.645   0.048  1.4505  0.0351  0.5273
31659SOL    HW299434   4.554   1.761   0.137 -0.2901  1.4143 -0.4731
31660SOL     OW99435   4.201   8.798   2.402  0.0099  0.2794  0.1540
31660SOL    HW199436   4.238   8.732   2.460 -0.2006  1.1337  1.3031
31660SOL    HW299437   4.130   8.754   2.356  0.0818 -0.3724  0.6638
31661SOL     OW99438   2.581   5.897   9.014 -0.0737  0.5300 -0.6753
31661SOL    HW199439   2.513   5.851   8.964 -0.8679  2.1795 -1.1923
31661SOL    HW299440   2.636   5.938   8.947  0.2392  0.8617 -0.2147
31662SOL     OW99441   5.742   7.066   1.145 -0.2770 -0.1835  0.0110
31662SOL    HW199442   5.654   7.030   1.154 -0.7368  1.2536  1.9228
31662SOL    HW299443   5.730   7.147   1.096 -0.1811  0.5236  1.1387
31663SOL     OW99444   2.898   0.022   5.217  0.1145  0.6420 -0.1709
31663SOL    HW199445   2.933   0.067   5.141 -1.7926  0.6790 -1.0626
31663SOL    HW299446   2.812  -0.009   5.191  0.2878 -1.3094  1.2464
31664SOL     OW99447   2.610   2.850   6.733 -0.4300 -0.1701 -0.2420
31664SOL    HW199448   2.683   2.806   6.777  0.4178 -0.8945 -2.2786
31664SOL    HW299449   2.534   2.829   6.787  0.2728 -2.4789 -0.0385
31665SOL     OW99450   1.260   5.129  10.709 -0.0683  0.4910  0.3616
31665SOL    HW199451   1.271   5.224  10.709 -0.1305  0.5031 -0.2791
31665SOL    HW299452   1.167   5.116  10.689  0.3379  0.2733 -1.5811
31666SOL     OW99453   7.535   9.202   6.352  0.3552  0.1657 -0.5272
31666SOL    HW199454   7.545   9.292   6.320 -0.2624  0.3082 -0.3446
31666SOL    HW299455   7.450   9.173   6.318  0.0577  0.0336  0.2776
31667SOL     OW99456   3.814   2.099   8.294 -0.3972  0.2754 -0.4051
31667SOL    HW199457   3.729   2.117   8.254  0.3442  1.6624 -1.4519
31667SOL    HW299458   3.865   2.060   8.224  0.5633  1.6905 -0.5365
31668SOL     OW99459  10.715   5.089   0.252 -0.6581 -0.0357 -0.8889
31668SOL    HW199460  10.733   5.084   0.158  1.3238  0.1736 -0.5668
31668SOL    HW299461  10.798   5.067   0.293 -1.6250 -0.6173  0.8409
31669SOL     OW99462   7.583   6.800   2.003 -0.1503 -0.4385 -0.5776
31669SOL    HW199463   7.674   6.788   2.030 -0.9216 -2.4077  1.5058
31669SOL    HW299464   7.574   6.894   1.988  2.2762 -0.2383 -1.1976
31670SOL     OW99465   1.295   3.502   4.289  0.0141  0.1012  0.2558
31670SOL    HW199466   1.247   3.460   4.361 -0.5136 -1.8625 -1.1570
31670SOL    HW299467   1.255   3.589   4.282 -1.7669 -0.6424  0.6284
31671SOL     OW99468   2.981   6.138   1.188 -0.2065 -1.1178 -0.1001
31671SOL    HW199469   2.907   6.194   1.212 -0.3117 -0.7841 -1.1522
31671SOL    HW299470   2.954   6.096   1.107  1.3427  0.2168 -1.3789
31672SOL     OW99471   4.959   3.728   4.277  0.0144 -0.8029 -0.2228
31672SOL    HW199472   4.902   3.800   4.303 -0.2648 -1.2927  0.5645
31672SOL    HW299473   4.899   3.662   4.242  0.1821 -0.9726 -0.1924
31673SOL     OW99474   4.425   8.296   5.936 -0.1353 -0.7365  0.1683
31673SOL    HW199475   4.392   8.207   5.940  0.5981 -1.0184  0.0595
31673SOL    HW299476   4.369   8.340   5.872  0.1189 -1.3842 -0.5064
31674SOL     OW99477   4.417   4.998   0.672 -0.4707  0.5023  0.0539
31674SOL    HW199478   4.390   5.087   0.696 -0.7777  1.1428 -2.4659
31674SOL    HW299479   4.342   4.961   0.625  0.2380 -0.5299 -0.3141
31675SOL     OW99480   9.969   8.205   4.943 -0.1453 -0.0611  0.6269
31675SOL    HW199481   9.929   8.186   5.028  2.1096 -0.9020  1.5781
31675SOL    HW299482  10.062   8.219   4.963 -0.1214  3.5098 -1.2176
31676SOL     OW99483   0.485   5.729   7.162  0.2677 -0.2419 -0.6644
31676SOL    HW199484   0.476   5.635   7.144  2.8834 -0.4812 -1.1484
31676SOL    HW299485   0.539   5.734   7.240  0.2444  0.8826 -0.7027
31677SOL     OW99486   8.324   4.939   5.501 -0.1106 -0.0070  0.4163
31677SOL    HW199487   8.313   5.032   5.481 -1.7010  0.4228  2.9507
31677SOL    HW299488   8.379   4.938   5.579  0.6177 -1.2704 -0.0880
31678SOL     OW99489   9.725   0.932   2.214  0.1725  0.0710 -0.2942
31678SOL    HW199490   9.702   0.979   2.294  0.8501  1.6682 -0.9948
31678SOL    HW299491   9.820   0.920   2.220 -0.1203 -2.4959  0.4974
31679SOL     OW99492   4.037   2.507   9.702 -0.5031 -1.0960 -0.1251
31679SOL    HW199493   4.079   2.568   9.642 -3.1177 -1.1509 -2.1937
31679SOL    HW299494   4.058   2.540   9.789  1.5392  0.3040 -1.0668
31680SOL     OW99495   8.899   3.225   5.085 -0.1308  0.2284 -0.1229
31680SOL    HW199496   8.865   3.145   5.046 -0.3352  0.4020 -0.3081
31680SOL    HW299497   8.891   3.291   5.015 -0.5689  0.5596  0.2309
31681SOL     OW99498  10.214   6.778   1.050  0.0226 -0.0420 -0.3775
31681SOL    HW199499  10.283   6.841   1.026  0.0790 -0.2303 -0.7250
31681SOL    HW299500  10.195   6.797   1.141  0.4720  0.0759 -0.3033
31682SOL     OW99501  10.030   6.285   7.496  0.0464  0.2043  0.4528
31682SOL    HW199502  10.009   6.376   7.478  1.3947  0.1234 -2.0271
31682SOL    HW299503   9.957   6.235   7.460  0.9660  0.2122 -1.5310
31683SOL     OW99504   5.283   3.999   8.063 -0.0617 -0.2137 -0.1502
31683SOL    HW199505   5.307   4.025   7.975 -0.6196  0.5073 -0.0978
31683SOL    HW299506   5.231   3.919   8.051  0.1942 -0.3357 -0.4453
31684SOL     OW99507   9.788   4.227   6.087 -0.1452 -0.3266  0.5485
31684SOL    HW199508   9.850   4.169   6.043  1.0731  2.3429 -1.5786
31684SOL    HW299509   9.717   4.238   6.024 -0.2299  0.6460  0.7935
31685SOL     OW99510   9.826   4.503   9.515 -0.1174 -0.1152 -0.0898
31685SOL    HW199511   9.879   4.556   9.456  0.7310 -0.3473  0.4466
31685SOL    HW299512   9.850   4.533   9.602 -1.8967  0.7402  0.1651
31686SOL     OW99513   2.155   3.691   6.514  0.4862 -0.1229 -0.1742
31686SOL    HW199514   2.128   3.772   6.559  1.9761  1.0304 -1.2576
31686SOL    HW299515   2.136   3.622   6.577 -0.3658  1.1167  0.9930
31687SOL     OW99516   6.181   8.781   7.249 -0.1784 -0.1711 -0.4925
31687SOL    HW199517   6.234   8.778   7.170 -0.4154  0.5864 -0.6862
31687SOL    HW299518   6.127   8.859   7.240 -0.6359 -0.3958  0.1470
31688SOL     OW99519   2.875   8.937   2.757 -0.1379 -0.2726 -0.0670
31688SOL    HW199520   2.783   8.911   2.757 -0.2893  0.0209 -2.2665
31688SOL    HW299521   2.873   9.032   2.768 -0.4114  0.1938 -3.1055
31689SOL     OW99522   2.301   4.469  10.123 -0.3631 -0.1839 -0.3386
31689SOL    HW199523   2.376   4.442  10.176 -0.2665 -0.9934 -0.8608
31689SOL    HW299524   2.319   4.560  10.100  0.9238 -0.6244 -1.1997
31690SOL     OW99525   9.001   6.688   8.706 -1.3089 -0.0030 -0.3304
31690SOL    HW199526   9.069   6.755   8.702 -1.2951  0.1713  1.8416
31690SOL    HW299527   8.927   6.726   8.659 -0.6099  0.6355 -0.9406
31691SOL     OW99528   1.169   8.202   2.540 -0.4657 -0.0655 -0.0104
31691SOL    HW199529   1.218   8.253   2.604 -1.8368  0.3778  0.7088
31691SOL    HW299530   1.168   8.256   2.461 -0.1601  0.1061  0.1039
31692SOL     OW99531   8.896   7.168   4.311 -0.2899 -0.3656  0.0414
31692SOL    HW199532   8.979   7.189   4.267 -0.5827  1.4566  0.2729
31692SOL    HW299533   8.865   7.252   4.344 -1.1088 -1.3579  1.9519
31693SOL     OW99534   9.156   4.331   5.776 -0.0528  0.6402  0.5191
31693SOL    HW199535   9.184   4.246   5.743  2.6967  1.8186 -0.4774
31693SOL    HW299536   9.060   4.325   5.781 -0.0896 -1.8178 -1.4567
31694SOL     OW99537   2.300   7.362   8.737  0.3919  0.6728 -0.0667
31694SOL    HW199538   2.378   7.312   8.714  0.5558  1.6121 -1.6452
31694SOL    HW299539   2.288   7.424   8.665 -0.3070  2.3257  1.4027
31695SOL     OW99540   8.549   0.396   5.537  0.0333 -0.3339 -0.1647
31695SOL    HW199541   8.585   0.363   5.619  1.1952 -2.0490 -1.2991
31695SOL    HW299542   8.454   0.391   5.549  0.1580  0.3738  1.3997
31696SOL     OW99543   6.785  11.059   6.389  0.1887 -0.1795  0.4744
31696SOL    HW199544   6.789  11.028   6.479  2.1130 -0.3017  0.3764
31696SOL    HW299545   6.820  10.987   6.337  3.9842  1.6792  0.1643
31697SOL     OW99546   2.149   2.241   9.961 -0.0294 -0.1156 -0.4182
31697SOL    HW199547   2.098   2.319   9.938 -0.7278 -0.7163 -0.9358
31697SOL    HW299548   2.102   2.168   9.920 -0.8485 -1.1767  2.1934
31698SOL     OW99549   5.671   0.355   8.775 -0.4224  0.3461  0.3750
31698SOL    HW199550   5.757   0.351   8.734 -0.2498  1.1690  0.6327
31698SOL    HW299551   5.609   0.345   8.703 -0.1147  0.5581  0.0763
31699SOL     OW99552   5.461   8.375   9.918  0.1799 -0.5494 -0.5177
31699SOL    HW199553   5.475   8.410  10.006 -1.4172 -0.4462 -0.2755
31699SOL    HW299554   5.459   8.451   9.861 -1.8828 -0.3037 -0.1845
31700SOL     OW99555   1.806  10.204   6.969 -0.2869 -0.1535 -0.0034
31700SOL    HW199556   1.719  10.182   7.002 -0.2029 -1.9844 -0.8955
31700SOL    HW299557   1.791  10.233   6.879 -0.0173  0.0083  0.0020
31701SOL     OW99558   7.915   8.437   8.446 -0.2650  0.2473 -0.5924
31701SOL    HW199559   7.908   8.530   8.423 -0.2676 -0.0477 -1.8775
31701SOL    HW299560   7.924   8.393   8.361  1.5301 -0.7772  0.0987
31702SOL     OW99561   0.875   7.549   3.985 -0.3325  0.2396 -0.1311
31702SOL    HW199562   0.845   7.471   3.938  0.8104  0.7849 -1.8298
31702SOL    HW299563   0.815   7.555   4.060 -2.5171 -0.4342 -1.6965
31703SOL     OW99564   2.439  10.764   9.754  0.4695  0.3617 -0.5092
31703SOL    HW199565   2.372  10.719   9.704 -1.0620 -0.0831  1.7567
31703SOL    HW299566   2.483  10.695   9.804  1.1803  0.8950 -0.3745
31704SOL     OW99567  10.995   0.206   5.843  0.6266  0.0541  0.2019
31704SOL    HW199568  10.949   0.235   5.921 -0.1370 -0.9557  0.1408
31704SOL    HW299569  11.050   0.281   5.818  0.2275  0.6911  1.1940
31705SOL     OW99570   7.665   0.194   5.486  0.3946 -0.5690 -0.5516
31705SOL    HW199571   7.642   0.241   5.406  0.6200  0.1934 -0.1787
31705SOL    HW299572   7.581   0.161   5.519  0.1477  0.0578 -0.5229
31706SOL     OW99573   3.974   3.972   0.612  0.1411  0.0736 -0.3497
31706SOL    HW199574   3.904   3.915   0.581 -0.8328  0.3969  1.1367
31706SOL    HW299575   4.051   3.916   0.618 -0.1203 -0.4187 -1.4831
31707SOL     OW99576   8.038   6.046  10.426  0.2120  0.1213  0.1213
31707SOL    HW199577   8.090   6.017  10.500  0.0216  0.3952  0.3654
31707SOL    HW299578   8.040   5.973  10.364 -0.6586 -0.6130  0.9183
31708SOL     OW99579   8.274   5.145  10.140 -1.0060  0.5849 -0.0071
31708SOL    HW199580   8.328   5.222  10.150  0.5221 -0.5564  0.9611
31708SOL    HW299581   8.267   5.108  10.228 -0.6459 -1.0419 -0.6146
31709SOL     OW99582   2.618   2.805   4.329 -0.4986 -0.3730  0.2831
31709SOL    HW199583   2.563   2.771   4.259  1.5588 -1.9320 -0.7134
31709SOL    HW299584   2.706   2.810   4.290 -0.0617  3.3311  1.3317
31710SOL     OW99585   5.095   7.523   8.965 -0.1780 -0.0029  0.7837
31710SOL    HW199586   5.166   7.553   9.021  1.4063 -0.2655 -0.9757
31710SOL    HW299587   5.023   7.502   9.025  0.9171  1.1020  2.5425
31711SOL     OW99588   8.115   3.149   8.778  0.1275 -0.1669 -0.3286
31711SOL    HW199589   8.021   3.135   8.780 -0.0725  1.1071  0.3729
31711SOL    HW299590   8.149   3.077   8.725 -1.1560 -1.0438 -0.0025
31712SOL     OW99591   1.156   9.144   0.482 -0.8540  0.2143  0.5398
31712SOL    HW199592   1.166   9.097   0.564  0.4933 -2.5826 -1.0622
31712SOL    HW299593   1.115   9.080   0.423 -1.4270  1.9913 -1.0800
31713SOL     OW99594   3.205  10.177   0.374 -0.3688  0.3226 -0.4845
31713SOL    HW199595   3.189  10.209   0.463 -0.6354  1.5735 -0.9668
31713SOL    HW299596   3.171  10.246   0.317  1.1656  0.2263 -1.5645
31714SOL     OW99597   2.410   3.942   9.764  0.4513 -0.5077 -0.3911
31714SOL    HW199598   2.372   3.858   9.790 -0.8374  0.3335  0.6182
31714SOL    HW299599   2.476   3.920   9.699  0.8165 -2.3857  0.5459
31715SOL     OW99600   0.515   2.796   1.904 -0.1328 -0.3312  0.4227
31715SOL    HW199601   0.543   2.796   1.813 -2.1324  1.6819 -0.2543
31715SOL    HW299602   0.425   2.765   1.902 -0.1804 -0.3452  1.7370
31716SOL     OW99603   2.259   6.753   4.505 -0.7572 -0.3721 -0.3885
31716SOL    HW199604   2.343   6.729   4.543 -1.4738 -2.4290  0.0212
31716SOL    HW299605   2.270   6.844   4.476  0.7576  0.3168  2.0660
31717SOL     OW99606   8.483   9.086   8.281  0.4367  0.3446 -0.1858
31717SOL    HW199607   8.473   9.178   8.305 -0.7284  0.1524  0.1079
31717SOL    HW299608   8.491   9.086   8.186 -0.4487  0.6948 -0.2701
31718SOL     OW99609   4.275  10.677   0.549 -0.4418 -0.3824 -0.0722
31718SOL    HW199610   4.235  10.665   0.636 -1.0227 -1.3134 -0.4436
31718SOL    HW299611   4.348  10.736   0.564 -1.8241  1.2329  0.6915
31719SOL     OW99612   5.473   7.298   3.018 -0.1259  0.0656  0.3142
31719SOL    HW199613   5.551   7.320   2.966 -0.6141 -1.4242 -1.1321
31719SOL    HW299614   5.506   7.238   3.085  0.0329 -0.3407 -0.1196
31720SOL     OW99615   3.979   3.459  10.972 -0.0699 -0.5814 -0.3846
31720SOL    HW199616   4.019   3.494  10.892 -0.7148  1.9816  0.3122
31720SOL    HW299617   4.016   3.512  11.042 -2.9257  0.4391  0.5037
31721SOL     OW99618   4.051   3.789   3.334  0.1563 -0.8533  0.3965
31721SOL    HW199619   4.059   3.695   3.347 -0.3506 -0.7581  1.5702
31721SOL    HW299620   3.966   3.812   3.371 -0.0513 -0.0349 -0.5369
31722SOL     OW99621   9.778   5.200   8.795 -0.9932  0.4748  0.0527
31722SOL    HW199622   9.763   5.108   8.815 -1.2378  0.4306 -0.3200
31722SOL    HW299623   9.703   5.246   8.832 -0.7478  0.5589  0.4581
31723SOL     OW99624  10.496   4.074   2.632  0.3262 -0.4046 -0.4148
31723SOL    HW199625  10.531   4.119   2.555 -0.8087  0.2095 -0.6029
31723SOL    HW299626  10.401   4.083   2.624  0.1648 -0.7799  0.7885
31724SOL     OW99627   0.371   1.159   9.319  0.1515  0.1746 -0.1015
31724SOL    HW199628   0.445   1.168   9.258  0.7115  1.1445  0.6947
31724SOL    HW299629   0.300   1.125   9.265  1.4313 -1.7256 -0.6988
31725SOL     OW99630   9.244   8.878   5.593 -0.0187  0.2126  0.1377
31725SOL    HW199631   9.289   8.806   5.637  0.5459 -0.3802 -1.3515
31725SOL    HW299632   9.241   8.852   5.501  0.2254  2.1171 -0.4469
31726SOL     OW99633   5.314   3.408   4.749 -0.5106 -0.1697  0.0842
31726SOL    HW199634   5.356   3.344   4.807  0.4211  0.5735  0.2501
31726SOL    HW299635   5.382   3.430   4.685 -0.6669  0.9942  0.3078
31727SOL     OW99636   3.757   9.518  10.831 -0.1510  0.4904 -0.1972
31727SOL    HW199637   3.795   9.448  10.884  1.5654  0.6443 -1.1565
31727SOL    HW299638   3.690   9.557  10.887 -0.4942 -1.2944  0.7090
31728SOL     OW99639   3.130   6.422   1.916 -0.1744 -0.5006  0.2254
31728SOL    HW199640   3.115   6.507   1.957  0.7361 -0.2410  0.0368
31728SOL    HW299641   3.130   6.360   1.990  0.8974 -0.1075  0.5698
31729SOL     OW99642   8.700   3.787   5.533 -0.3275  0.7021  0.0436
31729SOL    HW199643   8.759   3.776   5.458 -0.1790 -0.4515  0.3127
31729SOL    HW299644   8.733   3.726   5.599  0.0236  2.2691  1.3778
31730SOL     OW99645   1.067   5.550   3.146 -0.3102  0.1094  0.6579
31730SOL    HW199646   1.115   5.473   3.118  0.4094  1.4838 -2.2740
31730SOL    HW299647   0.992   5.516   3.195  0.3963 -2.3584  0.1251
31731SOL     OW99648   5.225  11.062   6.222  0.4165  0.4936  0.0671
31731SOL    HW199649   5.283  11.050   6.298 -2.2036  1.9188  2.4594
31731SOL    HW299650   5.176  10.980   6.216  0.4022  0.5009  0.0858
31732SOL     OW99651   1.778   5.137   0.641 -0.5441 -0.6967 -0.2551
31732SOL    HW199652   1.852   5.132   0.581  0.1612  1.4434  0.3618
31732SOL    HW299653   1.807   5.089   0.719 -0.0876 -0.4508 -0.2732
31733SOL     OW99654   6.560   1.870   5.938 -0.2558  0.0270  0.0684
31733SOL    HW199655   6.578   1.964   5.948  0.6833 -0.2837  1.7829
31733SOL    HW299656   6.465   1.863   5.942 -0.2982  0.8322  1.0446
31734SOL     OW99657   7.980   4.798   9.348  0.2491 -0.1672  0.0075
31734SOL    HW199658   8.016   4.885   9.365 -0.4645  0.2622 -0.6027
31734SOL    HW299659   7.898   4.796   9.397  1.1407 -1.1967  1.5215
31735SOL     OW99660   7.517   0.891   5.370  0.0300  1.2019  0.2128
31735SOL    HW199661   7.522   0.801   5.339  0.9042  1.1640  0.4303
31735SOL    HW299662   7.460   0.936   5.308  1.5814  1.0878 -1.3790
31736SOL     OW99663   5.688   6.399   2.688  0.1089 -0.0155  0.4815
31736SOL    HW199664   5.694   6.457   2.613 -1.2519  1.1126  1.2091
31736SOL    HW299665   5.725   6.316   2.657 -0.2182  0.4791 -1.3470
31737SOL     OW99666  10.010   6.248   4.169 -0.5807  0.0932  0.6732
31737SOL    HW199667  10.035   6.256   4.261 -0.4906 -0.8794  0.7412
31737SOL    HW299668  10.029   6.157   4.147 -1.6310  0.0237  0.0058
31738SOL     OW99669   4.888   3.630   8.428 -0.3065  0.2792 -0.0495
31738SOL    HW199670   4.846   3.658   8.509  0.5593  0.0780  0.4802
31738SOL    HW299671   4.971   3.678   8.425  0.3532 -0.8052 -0.0529
31739SOL     OW99672   7.850   7.516   7.622 -0.2569  0.3219  0.7789
31739SOL    HW199673   7.782   7.450   7.635 -0.2331  0.3361  0.9913
31739SOL    HW299674   7.870   7.547   7.711 -0.9275  1.2791  0.6162
31740SOL     OW99675   2.101   0.504   9.560 -0.7823  0.1125 -0.3033
31740SOL    HW199676   2.175   0.491   9.619 -0.9490 -0.2049 -0.1632
31740SOL    HW299677   2.035   0.547   9.614 -1.1394 -0.6731 -0.1080
31741SOL     OW99678   7.000   1.299   0.945  0.4499  0.2767  0.4290
31741SOL    HW199679   6.980   1.284   0.852  0.7531 -1.1741  0.5730
31741SOL    HW299680   7.093   1.322   0.945  0.2011  1.3354  0.2921
31742SOL     OW99681   5.826   8.551   8.155  0.4233  0.7503 -0.2581
31742SOL    HW199682   5.903   8.606   8.141  2.0057 -0.8095  1.6195
31742SOL    HW299683   5.756   8.612   8.178  1.4384  2.1168 -0.6471
31743SOL     OW99684   7.888   1.175   8.167 -0.6509 -0.0571 -0.1399
31743SOL    HW199685   7.878   1.244   8.232 -0.0659  0.2252 -0.3420
31743SOL    HW299686   7.799   1.140   8.156 -0.6114 -0.7950  1.5341
31744SOL     OW99687   8.963   8.506   0.409  0.7859 -0.1255  0.5004
31744SOL    HW199688   8.943   8.514   0.315  1.1959 -1.3107  0.2951
31744SOL    HW299689   8.881   8.475   0.448  0.0740  2.0115  0.8451
31745SOL     OW99690   8.260  10.248  10.163  0.1544 -0.2229  0.2840
31745SOL    HW199691   8.296  10.168  10.201 -0.7020 -0.3046  0.9414
31745SOL    HW299692   8.314  10.264  10.085  0.1399 -1.5990 -0.0272
31746SOL     OW99693   4.314   7.770   4.780  0.0837 -0.2240  0.6696
31746SOL    HW199694   4.336   7.731   4.695  1.1338 -1.4029  1.4385
31746SOL    HW299695   4.277   7.697   4.830  0.4242  0.2036  1.5576
31747SOL     OW99696   1.912   6.416   8.560  0.0528 -0.0762  0.3055
31747SOL    HW199697   1.978   6.445   8.497 -0.0661  0.7240  0.5405
31747SOL    HW299698   1.958   6.354   8.616  0.2660 -0.4877 -0.3187
31748SOL     OW99699   6.393  10.374  10.982 -0.0355  0.4064  0.5430
31748SOL    HW199700   6.302  10.395  11.002 -0.2988 -1.1021  1.0500
31748SOL    HW299701   6.433  10.357  11.067  0.5509  0.4232  0.2742
31749SOL     OW99702   5.360   1.874   1.112  0.3640  0.2237 -0.1005
31749SOL    HW199703   5.443   1.874   1.159 -0.2422  1.4684  1.0530
31749SOL    HW299704   5.314   1.952   1.144 -0.5753  0.4867 -1.9303
31750SOL     OW99705   9.595   9.384   7.180 -0.5550  0.9966 -0.4456
31750SOL    HW199706   9.663   9.435   7.224 -1.0906  1.6160 -0.3168
31750SOL    HW299707   9.622   9.382   7.089  0.7539 -0.5959 -0.0744
31751SOL     OW99708   2.909   2.278   8.527 -0.3792 -0.2430 -0.0135
31751SOL    HW199709   2.923   2.267   8.433 -0.0285  0.0735  0.0007
31751SOL    HW299710   2.872   2.195   8.555 -0.1125 -0.4831 -0.3598
31752SOL     OW99711   2.655   1.479   1.529  0.3236 -0.5241 -0.4513
31752SOL    HW199712   2.588   1.514   1.587 -0.9374 -1.3681 -1.3599
31752SOL    HW299713   2.714   1.553   1.514  0.2002 -0.0511  1.1638
31753SOL     OW99714   1.129   9.919   1.623 -0.1379  0.0671 -0.1860
31753SOL    HW199715   1.201   9.911   1.561  0.9863 -1.0714  1.2197
31753SOL    HW299716   1.154   9.993   1.679  0.0352 -0.4490  0.4201
31754SOL     OW99717   1.793   0.184   1.972  0.3838 -0.5253 -0.1558
31754SOL    HW199718   1.716   0.202   2.025  0.2839  2.1958 -1.0764
31754SOL    HW299719   1.759   0.143   1.893  0.0686 -0.7680  0.1020
31755SOL     OW99720   7.476   0.497   0.223 -0.3945  0.6146  0.1295
31755SOL    HW199721   7.413   0.483   0.152  0.2968  1.4606 -0.6946
31755SOL    HW299722   7.495   0.591   0.219 -0.0014  0.5848  1.1521
31756SOL     OW99723   4.823   5.836   7.939 -0.2113  0.0095  0.0593
31756SOL    HW199724   4.864   5.895   7.876  0.1524  0.1828  0.4504
31756SOL    HW299725   4.730   5.853   7.932 -0.3975 -1.4315 -1.9158
31757SOL     OW99726   7.268   1.269   7.107  0.4457  0.0267 -0.3543
31757SOL    HW199727   7.323   1.343   7.080 -0.5512  0.2300 -1.9200
31757SOL    HW299728   7.183   1.285   7.066  0.1390 -1.8726 -0.5670
31758SOL     OW99729   3.721   6.385  10.330 -0.3242  0.1253  0.0684
31758SOL    HW199730   3.773   6.326  10.276  0.3522 -0.0472  0.8794
31758SOL    HW299731   3.724   6.346  10.418 -3.1074 -0.7615 -0.1136
31759SOL     OW99732   9.659   3.306   5.865  0.9276 -1.3814  0.0661
31759SOL    HW199733   9.622   3.222   5.893 -0.7442 -0.4864  0.6697
31759SOL    HW299734   9.656   3.361   5.943 -1.0049  0.2153 -1.0469
31760SOL     OW99735   5.955   8.656   0.039 -0.8791  0.7512  0.3738
31760SOL    HW199736   5.932   8.741   0.001 -2.1991 -0.3751 -1.5376
31760SOL    HW299737   6.042   8.638   0.004 -1.5371  0.3301 -1.1499
31761SOL     OW99738   4.611   7.423   7.378 -0.5268  0.4995 -0.3385
31761SOL    HW199739   4.535   7.424   7.320 -0.0718  4.3781 -1.1443
31761SOL    HW299740   4.612   7.509   7.419  1.8288 -0.4539  1.9397
31762SOL     OW99741   0.781   8.087   1.117 -0.2938 -0.7688  0.1751
31762SOL    HW199742   0.826   8.011   1.156 -0.1665 -0.2609  1.0525
31762SOL    HW299743   0.766   8.146   1.191  1.0699  0.8085 -0.7303
31763SOL     OW99744   8.555   9.355  10.976  0.1057 -0.0461  0.0566
31763SOL    HW199745   8.564   9.442  10.937  0.8353  0.7389  1.8710
31763SOL    HW299746   8.468   9.326  10.951 -0.5850  1.6981  0.3303
31764SOL     OW99747   9.651   0.212  10.516 -0.2430  0.7240  0.4081
31764SOL    HW199748   9.667   0.306  10.510 -0.0933  0.6714 -0.0827
31764SOL    HW299749   9.556   0.205  10.527 -0.1188  0.9754  1.7960
31765SOL     OW99750   3.369   2.565   2.647  0.1586 -0.4174 -0.3141
31765SOL    HW199751   3.414   2.490   2.609 -1.8166 -1.4056 -0.8379
31765SOL    HW299752   3.424   2.640   2.626  1.4716 -1.5441 -1.0054
31766SOL     OW99753   5.168   2.588   7.266  0.4906  0.1045 -0.1613
31766SOL    HW199754   5.242   2.544   7.226 -0.0255  0.9838 -2.2002
31766SOL    HW299755   5.101   2.520   7.274  1.0930 -0.4162  0.6060
31767SOL     OW99756   0.964   9.858   2.695  0.0635  0.3014  0.0327
31767SOL    HW199757   0.980   9.904   2.778  1.9758 -0.3166  0.0524
31767SOL    HW299758   1.028   9.897   2.634 -1.1464  0.5721 -1.1094
31768SOL     OW99759   2.947   9.711   5.606 -0.0940 -0.0039  0.1017
31768SOL    HW199760   2.990   9.634   5.645 -1.9517 -0.7121  0.8992
31768SOL    HW299761   2.887   9.674   5.541  0.4282  0.9429 -0.9394
31769SOL     OW99762   2.508   0.437   1.863  0.1959 -0.7104 -0.7838
31769SOL    HW199763   2.545   0.383   1.933  0.8969  1.8879  1.0249
31769SOL    HW299764   2.424   0.467   1.899  0.2731  0.1478 -1.2942
31770SOL     OW99765   2.900   9.368   6.026 -0.3605  0.8350  0.2842
31770SOL    HW199766   2.928   9.353   6.117 -0.1215  0.6846  0.1862
31770SOL    HW299767   2.982   9.375   5.977 -0.4924  0.7990  0.0595
31771SOL     OW99768   3.870   7.820   1.915 -0.0961  0.3574 -0.2845
31771SOL    HW199769   3.823   7.846   1.836 -2.3883  1.4687  1.3152
31771SOL    HW299770   3.834   7.734   1.937 -0.6459  0.7349  0.3512
31772SOL     OW99771   0.578   0.068   4.056  0.0877  0.6988 -0.0076
31772SOL    HW199772   0.557   0.112   3.974 -0.5445 -0.0353 -0.2490
31772SOL    HW299773   0.497   0.022   4.081 -0.3937  2.4759  2.0553
31773SOL     OW99774   5.790   4.398   7.185  0.2833  0.1139 -0.0732
31773SOL    HW199775   5.876   4.434   7.204 -0.1176  1.0365  0.0254
31773SOL    HW299776   5.802   4.350   7.103  1.1116 -0.6118  0.4623
31774SOL     OW99777  10.570   0.880   0.605 -0.2640  0.2321 -0.3040
31774SOL    HW199778  10.534   0.792   0.615 -0.9054  0.3227 -1.6066
31774SOL    HW299779  10.657   0.867   0.567 -0.2483  0.1502 -0.2389
31775SOL     OW99780   8.227  10.991   5.875 -0.4509  0.3300 -0.2732
31775SOL    HW199781   8.263  10.990   5.787 -0.1001  1.9297 -0.1804
31775SOL    HW299782   8.189  11.078   5.885 -0.0089  0.3779  1.3404
31776SOL     OW99783   1.896   5.399   5.483 -0.1529 -0.6835 -0.2263
31776SOL    HW199784   1.913   5.469   5.421 -0.1639 -0.1957  0.3126
31776SOL    HW299785   1.832   5.436   5.544 -1.9575 -1.9459 -1.2825
31777SOL     OW99786   8.639   0.701  10.567 -0.3395 -0.1714  0.4692
31777SOL    HW199787   8.714   0.756  10.589 -0.3700  0.3593 -0.7148
31777SOL    HW299788   8.596   0.746  10.494 -1.6200 -0.6409  0.8975
31778SOL     OW99789   3.893   0.784  10.934 -0.2825 -0.4380 -0.5515
31778SOL    HW199790   3.863   0.867  10.898  2.5046  0.8370 -0.1847
31778SOL    HW299791   3.918   0.732  10.858  1.2696  0.4769 -0.7057
31779SOL     OW99792   8.847   2.106   6.306  0.3596  0.0050 -0.1485
31779SOL    HW199793   8.762   2.142   6.282 -0.6110 -2.1538 -0.2170
31779SOL    HW299794   8.826   2.027   6.357  2.3379 -0.0109  0.7504
31780SOL     OW99795   1.564   6.804   8.386  0.4403  0.5018  0.1335
31780SOL    HW199796   1.479   6.844   8.366  0.8118  1.2392  0.0317
31780SOL    HW299797   1.549   6.710   8.373 -0.2612  0.6571 -0.2333
31781SOL     OW99798  10.723   9.024   5.266  0.0847 -0.0669 -0.7174
31781SOL    HW199799  10.725   9.053   5.357  2.2697 -0.4547 -0.5817
31781SOL    HW299800  10.803   9.059   5.227 -0.5369 -0.3528 -2.3515
31782SOL     OW99801   8.685   9.034   9.979 -1.0297  0.0507 -0.3417
31782SOL    HW199802   8.605   9.013   9.932 -1.1916 -0.0797 -0.0081
31782SOL    HW299803   8.682   8.981  10.058 -1.2522  1.0011  0.3110
31783SOL     OW99804   7.458  10.285  11.060 -0.3726 -0.6809 -0.2809
31783SOL    HW199805   7.440  10.348  10.990 -1.6273  1.6234  1.9354
31783SOL    HW299806   7.410  10.206  11.035 -1.1122  0.2080 -1.8024
31784SOL     OW99807   7.361   0.681   1.327  0.0193  0.1516 -0.0172
31784SOL    HW199808   7.368   0.607   1.388  0.6266  1.2502  1.3012
31784SOL    HW299809   7.430   0.741   1.354  0.0036  0.8852 -1.5255
31785SOL     OW99810   4.806   3.899   3.158 -1.0418 -0.3011 -0.3187
31785SOL    HW199811   4.787   3.876   3.249 -1.2339 -0.5846 -0.4302
31785SOL    HW299812   4.898   3.925   3.159 -1.2057  0.2853  0.0674
31786SOL     OW99813   2.334  10.240   1.860  0.5358  0.3002  0.2133
31786SOL    HW199814   2.250  10.246   1.904  0.2770  0.0715 -0.2471
31786SOL    HW299815   2.318  10.273   1.772  0.8088 -0.2103 -0.0337
31787SOL     OW99816   5.538   1.644   9.833  0.1371 -0.0681 -0.1599
31787SOL    HW199817   5.486   1.650   9.913 -0.9941 -2.3422 -0.6242
31787SOL    HW299818   5.564   1.552   9.828  0.1981  0.0006 -2.3565
31788SOL     OW99819   9.855   3.569   4.224  0.2536  0.0359  0.5478
31788SOL    HW199820   9.790   3.611   4.281 -1.5849  1.3084 -2.2781
31788SOL    HW299821   9.822   3.480   4.212 -0.9217  0.6003 -0.6706
31789SOL     OW99822   2.693   7.695   8.004  0.4653  0.4441  0.3199
31789SOL    HW199823   2.630   7.695   7.931  1.0065  1.2200 -0.1482
31789SOL    HW299824   2.709   7.602   8.020  0.6903  0.2656 -0.8540
31790SOL     OW99825   3.221   1.631   8.497  0.2466 -0.6919  0.4429
31790SOL    HW199826   3.302   1.680   8.514  1.3455 -2.3696  0.2469
31790SOL    HW299827   3.184   1.615   8.584  1.4180 -1.9692  0.7428
31791SOL     OW99828   6.657  10.295  10.561  0.6288  0.7276 -0.0314
31791SOL    HW199829   6.563  10.311  10.563  0.6806  1.0764 -0.3876
31791SOL    HW299830   6.682  10.286  10.653  0.0417 -0.6017  0.0183
31792SOL     OW99831   1.123   9.106   3.323  0.2347 -0.2778 -0.1213
31792SOL    HW199832   1.202   9.124   3.375 -0.6984  0.0500  1.2177
31792SOL    HW299833   1.102   9.190   3.283 -0.7857  0.2793  1.4735
31793SOL     OW99834  10.432   3.030   2.577  0.2147 -0.0861  0.0591
31793SOL    HW199835  10.399   3.096   2.517 -1.6916 -1.7980 -0.8908
31793SOL    HW299836  10.522   3.014   2.549 -0.7512 -1.1559 -2.7057
31794SOL     OW99837   2.183   1.470   8.802 -0.4306  0.1306 -0.3947
31794SOL    HW199838   2.189   1.422   8.719  1.2292  0.4773 -0.5058
31794SOL    HW299839   2.152   1.557   8.778 -2.8230 -0.6103 -0.2669
31795SOL     OW99840   0.980   6.064   4.781  0.3074  0.2747 -0.1029
31795SOL    HW199841   0.977   6.159   4.772 -0.9304  0.1829 -0.9766
31795SOL    HW299842   0.976   6.031   4.691 -0.2774 -0.5953  0.2229
31796SOL     OW99843   7.343   3.482   9.250  0.2748 -0.3173 -0.1182
31796SOL    HW199844   7.276   3.549   9.234  0.5980 -0.1026 -0.6218
31796SOL    HW299845   7.426   3.531   9.249  0.3621 -0.3486  1.9227
31797SOL     OW99846   5.186   5.333   0.643 -0.0050  0.3935  0.2824
31797SOL    HW199847   5.221   5.284   0.717 -1.8524 -1.1590  0.1983
31797SOL    HW299848   5.117   5.388   0.680 -1.2464 -0.7216 -0.2901
31798SOL     OW99849   7.592   2.094   3.784  0.0363 -0.0274  0.4205
31798SOL    HW199850   7.683   2.107   3.810  0.6228 -0.1829 -1.4025
31798SOL    HW299851   7.586   2.000   3.765 -0.3206  0.0960 -0.0979
31799SOL     OW99852   4.894   9.950   5.327  0.5679 -0.9918 -0.3123
31799SOL    HW199853   4.987   9.935   5.308  0.5235 -2.2789  0.3838
31799SOL    HW299854   4.860   9.864   5.351 -0.4605 -0.2804  0.9054
31800SOL     OW99855   2.784   7.234   8.697  0.0859 -0.4573  0.0023
31800SOL    HW199856   2.716   7.169   8.683  0.4280 -1.2496  1.7674
31800SOL    HW299857   2.834   7.234   8.616 -0.8420 -1.2757 -0.5904
31801SOL     OW99858   5.703   0.450   7.725 -0.2836  0.6772 -0.1983
31801SOL    HW199859   5.791   0.488   7.736  0.0149 -0.0330 -0.0617
31801SOL    HW299860   5.665   0.454   7.813 -0.2757  0.7251 -0.1972
31802SOL     OW99861   9.276   3.961   1.496  0.4872  0.0330 -0.3217
31802SOL    HW199862   9.226   3.914   1.563 -1.5857 -1.2271 -2.5878
31802SOL    HW299863   9.319   3.892   1.445 -0.5485  0.6605 -2.1584
31803SOL     OW99864   6.480   9.671   1.948  0.8042  0.0742  0.8507
31803SOL    HW199865   6.542   9.676   2.021 -1.9093 -0.4296  3.3653
31803SOL    HW299866   6.409   9.731   1.972 -0.0825  0.0963 -1.5455
31804SOL     OW99867   2.165   5.824   5.296 -0.4749  0.3542  0.2420
31804SOL    HW199868   2.257   5.848   5.289 -0.3497  0.2756  1.3968
31804SOL    HW299869   2.135   5.816   5.206  0.2271  2.0016 -0.1867
31805SOL     OW99870   0.261  11.062  10.770  0.1609 -0.2092  0.3141
31805SOL    HW199871   0.352  11.059  10.800  0.6455  0.5044 -0.9812
31805SOL    HW299872   0.228  10.973  10.783 -0.1717  0.3320  4.2326
31806SOL     OW99873   9.370   2.342   2.531  0.8251  0.3237 -0.2219
31806SOL    HW199874   9.457   2.370   2.503 -0.5405  2.1681 -3.0124
31806SOL    HW299875   9.355   2.389   2.613  2.3315  0.1867  0.1503
31807SOL     OW99876   8.625   4.553   2.985  0.3958  0.0297 -0.5529
31807SOL    HW199877   8.624   4.508   2.900  1.5102  0.8543 -1.0338
31807SOL    HW299878   8.692   4.508   3.036  1.2894  0.9004 -0.9220
31808SOL     OW99879   6.190   7.468   0.922 -0.3957  0.2281 -0.4313
31808SOL    HW199880   6.229   7.401   0.866 -0.5908  1.9963 -2.8372
31808SOL    HW299881   6.247   7.544   0.912  1.2497 -0.0988  4.1633
31809SOL     OW99882   4.380   5.451   6.599 -0.2784 -0.6273  0.3421
31809SOL    HW199883   4.301   5.463   6.546 -0.7825 -1.3075  0.9235
31809SOL    HW299884   4.448   5.429   6.535 -0.3248  0.9172 -0.2646
31810SOL     OW99885   4.524   8.611   1.592  0.4123  0.1490 -0.3815
31810SOL    HW199886   4.546   8.559   1.670 -3.1932 -1.1667 -0.0454
31810SOL    HW299887   4.458   8.673   1.623 -0.8996 -0.2221 -2.2715
31811SOL     OW99888   9.351  10.374   2.765  0.0281  0.1883 -0.0110
31811SOL    HW199889   9.334  10.315   2.692  1.9093  0.4825 -0.7400
31811SOL    HW299890   9.368  10.316   2.840 -0.0698 -0.1447 -0.2436
31812SOL     OW99891   6.934   1.151  10.277 -0.5284  0.2917 -0.1419
31812SOL    HW199892   6.928   1.063  10.241  1.0845 -0.3554  1.0628
31812SOL    HW299893   6.888   1.146  10.361 -0.0827  0.4851  0.1184
31813SOL     OW99894   5.871   3.858   6.860  0.1532  0.0987  0.5279
31813SOL    HW199895   5.872   3.938   6.808 -0.9641 -1.4085 -2.0606
31813SOL    HW299896   5.958   3.821   6.850  0.6243  0.8729  1.6072
31814SOL     OW99897   4.030   0.221   1.634 -0.5412  0.1646 -0.2890
31814SOL    HW199898   3.941   0.186   1.640 -0.9028  1.2450  1.5054
31814SOL    HW299899   4.032   0.293   1.698  0.9969  1.5502 -1.7671
31815SOL     OW99900   0.719   9.311   9.968  0.3548 -0.0043 -0.3333
31815SOL    HW199901   0.640   9.309   9.914  0.5490 -1.3979 -0.5955
31815SOL    HW299902   0.691   9.353  10.049 -0.5270 -0.0341 -0.6098
31816SOL     OW99903   6.064   3.424   2.139 -0.4024 -0.0458  0.1753
31816SOL    HW199904   6.014   3.501   2.165 -2.1242 -1.1443  0.2617
31816SOL    HW299905   6.081   3.377   2.221 -0.9740 -0.6720 -0.0517
31817SOL     OW99906  10.956  10.709   8.495  0.0061  0.1870 -0.4303
31817SOL    HW199907  10.988  10.672   8.576  0.6197  0.1206 -0.6951
31817SOL    HW299908  10.865  10.734   8.513 -0.4591 -1.5253 -0.2846
31818SOL     OW99909   6.447   3.439   7.295  0.2627  0.3935 -0.1099
31818SOL    HW199910   6.352   3.448   7.286 -0.0204 -1.6698  0.4220
31818SOL    HW299911   6.474   3.519   7.340 -1.2208  0.9673 -0.1773
31819SOL     OW99912   4.646   7.113   7.180 -0.4996  0.2704  0.7068
31819SOL    HW199913   4.739   7.102   7.161 -0.7243  0.0259 -0.2822
31819SOL    HW299914   4.631   7.207   7.171 -0.4454  0.2507  0.3981
31820SOL     OW99915   1.623   3.153  10.245  0.1213 -0.4628  0.0301
31820SOL    HW199916   1.714   3.175  10.264 -0.2017  1.2338 -0.2386
31820SOL    HW299917   1.628   3.091  10.172  1.0108  1.7201 -1.8595
31821SOL     OW99918  10.427   3.149   5.825  0.4409  0.1029 -0.5477
31821SOL    HW199919  10.385   3.215   5.770  1.7182  1.1187 -0.3434
31821SOL    HW299920  10.420   3.183   5.914  0.7563 -0.2445 -0.3872
31822SOL     OW99921   7.462   9.519   2.155 -0.1414 -0.2790  0.2542
31822SOL    HW199922   7.544   9.472   2.140 -0.0972  0.1612 -0.9798
31822SOL    HW299923   7.397   9.450   2.170  0.0168 -0.7302 -1.0525
31823SOL     OW99924   8.128   8.843   2.735  0.1446 -0.0684 -0.2643
31823SOL    HW199925   8.103   8.756   2.765 -1.1156 -0.1020 -1.3056
31823SOL    HW299926   8.053   8.873   2.683  0.7966  1.3957 -0.4230
31824SOL     OW99927   2.208   4.920   2.480  0.4566  0.8731 -0.1341
31824SOL    HW199928   2.185   5.011   2.496 -3.5514  0.0051  0.2169
31824SOL    HW299929   2.208   4.880   2.567 -1.5399 -0.0643 -0.5022
31825SOL     OW99930   3.864   4.449   6.320 -0.0256 -0.2104 -0.2436
31825SOL    HW199931   3.861   4.539   6.287 -0.7999 -0.0591  0.2148
31825SOL    HW299932   3.901   4.457   6.408 -1.5067 -0.1368  0.4015
31826SOL     OW99933   1.645   0.564   9.267 -0.2859  0.9014 -0.1066
31826SOL    HW199934   1.642   0.491   9.205 -0.2488  0.1678  0.7269
31826SOL    HW299935   1.588   0.536   9.338  2.2013  0.1916  1.7652
31827SOL     OW99936   6.232   1.096   4.647  0.0986  0.1596  0.4445
31827SOL    HW199937   6.229   1.002   4.626 -0.3487  0.1853  0.3776
31827SOL    HW299938   6.196   1.139   4.570  0.3826  0.3967  0.4421
31828SOL     OW99939   9.913   5.491   3.509 -0.2289 -0.0894 -0.0876
31828SOL    HW199940   9.933   5.452   3.424  0.9489 -0.8732  0.5158
31828SOL    HW299941   9.834   5.542   3.494  0.6881  0.9017 -1.9876
31829SOL     OW99942   9.565   4.114   2.844  0.2358  0.0836  0.1752
31829SOL    HW199943   9.497   4.165   2.888 -1.7325 -2.1545 -0.0672
31829SOL    HW299944   9.596   4.052   2.910  2.8536  1.6535  0.5816
31830SOL     OW99945  10.707   0.582   3.161  0.0454  0.1879  0.8732
31830SOL    HW199946  10.630   0.530   3.184  0.3388 -1.3369 -1.3233
31830SOL    HW299947  10.671   0.664   3.125 -0.8712 -1.7112 -3.1260
31831SOL     OW99948   1.117   9.370   9.594 -0.0598  0.1438 -0.0200
31831SOL    HW199949   1.143   9.462   9.600  0.5280 -0.0260  0.0181
31831SOL    HW299950   1.048   9.361   9.660 -1.4733  1.0087 -1.3061
31832SOL     OW99951   1.794   3.726  10.236  0.3121  0.3896 -0.2876
31832SOL    HW199952   1.762   3.777  10.310  1.6528 -0.0238  0.6131
31832SOL    HW299953   1.889   3.728  10.244  0.5357  1.0286 -2.5036
31833SOL     OW99954   5.330   2.147   3.296  0.0541 -1.2285  0.1550
31833SOL    HW199955   5.333   2.189   3.210 -3.1216 -1.7613 -0.3165
31833SOL    HW299956   5.319   2.219   3.358  0.1361 -0.9923 -0.1046
31834SOL     OW99957   1.195   8.552   7.707  0.2265  0.3730  0.2152
31834SOL    HW199958   1.113   8.571   7.752 -0.2337 -0.5994 -0.2055
31834SOL    HW299959   1.191   8.605   7.627  1.4847  2.8965  1.6916
31835SOL     OW99960   4.282   3.024   2.734 -0.1888  0.2780 -0.4966
31835SOL    HW199961   4.373   3.039   2.707 -0.3990 -0.9258 -1.9766
31835SOL    HW299962   4.236   3.104   2.708  0.9484  2.4742  3.3575
31836SOL     OW99963   7.390   9.311   9.008  0.2512  0.1675  0.2133
31836SOL    HW199964   7.411   9.403   9.024  2.4955 -0.3390  0.5223
31836SOL    HW299965   7.315   9.293   9.065  0.3238  1.5709  0.7864
31837SOL     OW99966   7.341   3.748   3.571  0.3850 -0.5125 -0.4142
31837SOL    HW199967   7.306   3.704   3.649  0.2696  0.6740  0.2239
31837SOL    HW299968   7.430   3.715   3.563  0.1650 -1.1816 -0.2004
31838SOL     OW99969   0.713   1.043   2.942  0.1879 -0.2892  0.1846
31838SOL    HW199970   0.727   1.087   2.857 -0.0523  0.1680  0.3786
31838SOL    HW299971   0.651   0.973   2.922 -0.5336  0.3434  0.1341
31839SOL     OW99972   9.148   6.394   7.709 -0.2781 -0.7186 -0.4715
31839SOL    HW199973   9.136   6.300   7.701 -0.1402 -0.7955  0.1953
31839SOL    HW299974   9.116   6.416   7.796 -0.6838 -0.0867 -0.7711
31840SOL     OW99975   9.857   3.927   6.514  0.2764  0.4961 -0.4736
31840SOL    HW199976   9.809   3.957   6.437 -0.7444  1.6521  0.5512
31840SOL    HW299977   9.913   4.001   6.537 -0.9078  0.9739  1.0229
31841SOL     OW99978   0.338   2.305   5.190  0.2612 -0.2126  0.2881
31841SOL    HW199979   0.289   2.339   5.264 -0.2143 -1.0606  0.3674
31841SOL    HW299980   0.321   2.211   5.190 -1.1845 -0.0216 -1.9262
31842SOL     OW99981   4.559   0.604   6.913 -0.4256  0.5953 -0.2677
31842SOL    HW199982   4.652   0.584   6.900 -0.7082 -0.2229 -1.2164
31842SOL    HW299983   4.528   0.629   6.826 -1.2903 -0.0104 -0.1439
31843SOL     OW99984   2.464  10.488   7.863 -0.0112  0.2547  0.2445
31843SOL    HW199985   2.405  10.505   7.937  0.9525 -0.0108  1.0839
31843SOL    HW299986   2.548  10.523   7.891  0.1141  1.2158 -1.2019
31844SOL     OW99987  10.274   1.609   5.596 -0.3132  0.0759 -0.2223
31844SOL    HW199988  10.309   1.535   5.646  0.3462  0.6320  0.1552
31844SOL    HW299989  10.273   1.577   5.505  2.1905  0.3435 -0.4305
31845SOL     OW99990   7.763   3.711   7.888  0.3758 -0.1994  0.4700
31845SOL    HW199991   7.807   3.726   7.804  0.4969 -1.9753  0.1609
31845SOL    HW299992   7.683   3.762   7.882  0.2514 -0.4979 -0.8612
31846SOL     OW99993  10.397   8.682   6.166  0.1053 -0.0878 -0.2472
31846SOL    HW199994  10.333   8.684   6.095  0.6186  3.1006 -0.7878
31846SOL    HW299995  10.346   8.705   6.244  0.2523  0.6233 -0.3548
31847SOL     OW99996   1.462   7.277   5.595  0.7284 -0.0048 -0.7203
31847SOL    HW199997   1.538   7.323   5.631  1.0690 -0.3094 -1.0377
31847SOL    HW299998   1.493   7.188   5.580 -0.4915 -0.9420  1.8083
31848SOL     OW99999   4.368   1.516   9.487  0.3418  0.1914 -0.4192
31848SOL    HW1    0   4.415   1.493   9.407 -3.6468 -1.8283 -2.4232
31848SOL    HW2    1   4.328   1.435   9.517 -1.2833  1.5994  1.5427
31849SOL     OW    2   5.810   0.354  10.601  0.2106 -0.2527  0.5433
31849SOL    HW1    3   5.869   0.426  10.622  0.2824 -0.5449  1.4120
31849SOL    HW2    4   5.767   0.334  10.684 -1.0073 -0.1487 -0.0412
31850SOL     OW    5   8.405   2.228   4.834 -0.5668 -0.4554 -0.0124
31850SOL    HW1    6   8.351   2.157   4.800  0.7931 -0.7974 -1.5492
31850SOL    HW2    7   8.458   2.188   4.903 -1.0295 -0.5035  0.3248
31851SOL     OW    8   4.709   8.112   3.576  0.4292 -0.3667  0.2588
31851SOL    HW1    9   4.738   8.191   3.532 -1.0744 -1.6337 -3.3364
31851SOL    HW2   10   4.788   8.059   3.584  1.1986  0.8909  1.5309
31852SOL     OW   11   9.449   3.582   4.718 -0.2925 -0.2048  0.0549
31852SOL    HW1   12   9.509   3.515   4.686  0.3035  0.0790  0.5551
31852SOL    HW2   13   9.481   3.664   4.682 -0.6638 -0.1064 -0.0609
31853SOL     OW   14   7.323   2.387   6.571 -0.2643 -0.3602  0.0840
31853SOL    HW1   15   7.312   2.464   6.515 -0.1751 -1.3618 -1.3783
31853SOL    HW2   16   7.337   2.315   6.510  0.1467 -1.4699  1.4278
31854SOL     OW   17   6.123   2.994   1.943  0.6140  0.1540 -0.0024
31854SOL    HW1   18   6.080   2.960   2.022  0.9726 -0.8259 -0.2204
31854SOL    HW2   19   6.180   3.064   1.974 -1.8202  2.2056  0.2059
31855SOL     OW   20   8.923   3.157  10.402 -0.3555 -0.0783 -0.3310
31855SOL    HW1   21   8.949   3.239  10.444  0.5345 -0.8651  0.6835
31855SOL    HW2   22   8.982   3.091  10.437 -1.0904 -1.1863 -1.0888
31856SOL     OW   23   2.943   1.308  10.925  0.1612  0.2187 -0.3430
31856SOL    HW1   24   2.854   1.342  10.922  0.0365  0.1939  1.4607
31856SOL    HW2   25   2.934   1.219  10.958  0.8511  0.2672  0.0055
31857SOL     OW   26   7.807   1.625   8.380  0.1469  0.4682  0.1943
31857SOL    HW1   27   7.763   1.544   8.353 -0.2410  0.2054  1.5526
31857SOL    HW2   28   7.752   1.695   8.344  0.9440  0.1711 -1.7153
31858SOL     OW   29  10.692   8.776   3.744  0.1316 -0.2828 -0.3041
31858SOL    HW1   30  10.754   8.751   3.675 -1.0695 -0.5533 -1.3356
31858SOL    HW2   31  10.666   8.693   3.784 -1.9527 -0.5646 -2.0471
31859SOL     OW   32   5.968   4.968   7.775 -0.0721  0.3966  0.5857
31859SOL    HW1   33   5.999   4.878   7.766  0.8236  0.6539  0.9565
31859SOL    HW2   34   5.933   4.990   7.689  0.8568  0.1013  0.1207
31860SOL     OW   35   4.715   8.210   8.426 -0.7240  0.4892 -0.4391
31860SOL    HW1   36   4.731   8.146   8.495  0.3146 -0.2087 -1.2899
31860SOL    HW2   37   4.642   8.174   8.375  0.8677 -0.9107 -1.8742
31861SOL     OW   38   3.335   3.695   3.189  0.7939  0.6503 -0.0349
31861SOL    HW1   39   3.372   3.736   3.267 -0.7175  4.4077 -1.0590
31861SOL    HW2   40   3.382   3.735   3.116 -1.4312  1.3960 -1.1496
31862SOL     OW   41   9.090   1.483   4.106 -0.2049  0.2200  0.1110
31862SOL    HW1   42   9.080   1.549   4.174 -1.3024  0.2172 -0.0385
31862SOL    HW2   43   9.012   1.491   4.051  1.3535  1.2924 -2.1216
31863SOL     OW   44   9.335   6.154   2.919  0.4037  0.6244 -0.1031
31863SOL    HW1   45   9.393   6.213   2.967  0.0507  1.1331 -0.2980
31863SOL    HW2   46   9.272   6.123   2.984  0.1084  1.0806 -0.1698
31864SOL     OW   47   5.111   4.488   4.438 -0.1189 -0.1138  0.1085
31864SOL    HW1   48   5.018   4.478   4.458 -0.3653 -0.7519 -1.2637
31864SOL    HW2   49   5.122   4.582   4.422 -0.2745  0.1370  1.3661
31865SOL     OW   50   1.555   5.290   5.734  0.0918 -0.0461  0.6061
31865SOL    HW1   51   1.518   5.253   5.654  0.7829 -0.3602  0.4236
31865SOL    HW2   52   1.563   5.384   5.716  0.5699 -0.1658  0.1750
31866SOL     OW   53  10.722   3.281   5.148 -0.1408 -0.3949 -0.7182
31866SOL    HW1   54  10.681   3.201   5.183 -1.0766 -0.4349 -1.8419
31866SOL    HW2   55  10.694   3.284   5.057  0.1292  1.0717 -0.7747
31867SOL     OW   56  10.236  10.832   5.260  0.1251 -0.0625  0.1604
31867SOL    HW1   57  10.173  10.877   5.316  0.4951 -0.5898  1.0318
31867SOL    HW2   58  10.251  10.748   5.304  0.0380 -0.7081 -1.0113
31868SOL     OW   59   2.735   7.012   7.693  0.1189  0.3814  0.4328
31868SOL    HW1   60   2.771   6.928   7.664 -1.6718 -0.8212  1.4370
31868SOL    HW2   61   2.755   7.014   7.787  0.9649  1.5431  0.2381
31869SOL     OW   62   4.356   8.137  10.079  0.3445 -0.8292  0.3867
31869SOL    HW1   63   4.293   8.171  10.015  0.4566 -1.2300  0.0583
31869SOL    HW2   64   4.367   8.045  10.055 -0.2776 -1.2178  1.5416
31870SOL     OW   65   8.425   3.285   1.386  0.5955  0.3929  0.1592
31870SOL    HW1   66   8.505   3.304   1.337  1.7789 -2.0499  0.9755
31870SOL    HW2   67   8.358   3.271   1.318  1.6363 -0.6185 -0.7156
31871SOL     OW   68   0.428   2.640   7.882 -0.1835 -0.1045 -0.4771
31871SOL    HW1   69   0.334   2.632   7.864  0.1516  0.1051 -2.5859
31871SOL    HW2   70   0.432   2.682   7.969 -2.0829  1.9988 -1.2906
31872SOL     OW   71   9.595   3.759   7.344  0.2862  0.5491  0.3153
31872SOL    HW1   72   9.613   3.668   7.367 -0.1704  0.2184 -0.5783
31872SOL    HW2   73   9.674   3.806   7.370  0.3592 -0.0240  1.1748
31873SOL     OW   74   5.216   1.594   4.386 -0.4950 -0.2213 -0.5210
31873SOL    HW1   75   5.252   1.680   4.406  1.0028 -0.5547 -1.6043
31873SOL    HW2   76   5.163   1.571   4.462 -0.2892  1.3167  0.1084
31874SOL     OW   77   4.449   5.900   1.382 -0.0189  0.2489  0.4851
31874SOL    HW1   78   4.454   5.817   1.334 -0.0321  1.0895 -1.0603
31874SOL    HW2   79   4.400   5.958   1.324  1.7941  1.9502  0.5364
31875SOL     OW   80   0.027   4.521   0.373  0.0251 -0.4444  0.4017
31875SOL    HW1   81  -0.052   4.471   0.354  0.1558 -0.0476 -1.3850
31875SOL    HW2   82   0.098   4.459   0.357  0.1247 -0.2565  0.1047
31876SOL     OW   83   0.541   9.082  10.041 -0.0121  0.0211 -0.5009
31876SOL    HW1   84   0.490   9.021   9.988  0.0995 -0.1866 -0.3661
31876SOL    HW2   85   0.475   9.144  10.075 -0.0723  0.2068 -0.9468
31877SOL     OW   86   5.946   1.087   8.580  0.1601  0.9885 -0.2122
31877SOL    HW1   87   5.905   1.107   8.496  0.9131  0.5541 -0.6964
31877SOL    HW2   88   5.987   1.002   8.567  0.6663  1.1255  0.4471
31878SOL     OW   89   6.952   3.624   8.719 -0.0475  1.0994  0.9125
31878SOL    HW1   90   6.897   3.613   8.642  0.5762  0.8541  0.5035
31878SOL    HW2   91   6.889   3.639   8.791 -0.8167 -1.5564  0.9072
31879SOL     OW   92   8.291   2.785   1.259  0.1173 -0.3214 -0.0729
31879SOL    HW1   93   8.337   2.721   1.204  0.4792  1.1285 -1.5264
31879SOL    HW2   94   8.283   2.863   1.204 -2.6336  0.0531  0.7097
31880SOL     OW   95   7.588  10.018   3.731  0.1264 -0.1077 -0.4469
31880SOL    HW1   96   7.641  10.064   3.796  0.7761  0.0613 -1.0764
31880SOL    HW2   97   7.633   9.934   3.719  1.0238  0.5351 -1.9186
31881SOL     OW   98   1.575   4.254   5.948 -0.4881  0.2851  0.2544
31881SOL    HW1   99   1.651   4.196   5.956 -0.7546 -0.6513 -2.8833
31881SOL    HW2  100   1.605   4.325   5.892 -0.5190  2.7717  3.1186
31882SOL     OW  101   6.924   6.534   0.900 -0.4488  0.1178 -0.2399
31882SOL    HW1  102   6.958   6.606   0.953  1.6951 -2.4107  2.0551
31882SOL    HW2  103   6.984   6.529   0.825  0.4068 -0.2695  0.4542
31883SOL     OW  104   9.155   9.576   0.057 -0.4685  0.5710  0.1242
31883SOL    HW1  105   9.112   9.547   0.138 -0.2382  1.1771  0.4727
31883SOL    HW2  106   9.148   9.671   0.059  1.1842  0.7173  0.3554
31884SOL     OW  107   8.551   9.294   4.262 -0.4158  0.6476 -0.4472
31884SOL    HW1  108   8.622   9.256   4.313  0.5580 -0.2909 -2.3837
31884SOL    HW2  109   8.534   9.230   4.193 -2.1658  1.5104 -0.8840
31885SOL     OW  110   0.549   1.757   1.295  0.1539 -0.6703 -0.3299
31885SOL    HW1  111   0.608   1.793   1.229 -0.1624  0.3549 -0.0683
31885SOL    HW2  112   0.566   1.809   1.373 -0.8743 -0.5604 -0.1670
31886SOL     OW  113   4.080   4.022  10.784 -0.1713 -1.1746  0.4663
31886SOL    HW1  114   4.069   4.039  10.877 -1.2496 -1.8559  0.4825
31886SOL    HW2  115   4.034   4.093  10.740 -1.4185 -1.9321  0.4957
31887SOL     OW  116   6.937   5.312   5.084  0.0621 -0.0624  0.3131
31887SOL    HW1  117   6.951   5.396   5.041 -0.0230 -0.4750 -0.5232
31887SOL    HW2  118   6.930   5.334   5.177  1.8717  0.6592  0.3141
31888SOL     OW  119   2.736   6.001   6.082  0.1193  0.3497  0.3398
31888SOL    HW1  120   2.649   5.991   6.119 -0.2428 -0.1330 -0.6081
31888SOL    HW2  121   2.749   5.922   6.030  0.9656  0.5999  0.1576
31889SOL     OW  122  10.494   6.794   9.816  0.2717  0.5811  0.2307
31889SOL    HW1  123  10.455   6.869   9.860 -0.0598 -0.5643  2.0298
31889SOL    HW2  124  10.560   6.831   9.758 -1.1154  2.3473 -0.3093
31890SOL     OW  125   7.960   4.771   5.733 -0.1760 -0.4566 -0.1483
31890SOL    HW1  126   8.014   4.711   5.681  1.8555  0.7116  0.4989
31890SOL    HW2  127   7.963   4.854   5.685 -0.8215 -0.1781  0.2757
31891SOL     OW  128   6.807   0.067   8.943  0.3357  0.7365  0.2637
31891SOL    HW1  129   6.843  -0.005   8.892  0.3058  0.9361 -0.0417
31891SOL    HW2  130   6.877   0.092   9.003 -0.2902 -0.8108  1.7228
31892SOL     OW  131   4.681   5.246   7.542  0.4551  0.1419 -0.8810
31892SOL    HW1  132   4.617   5.178   7.563  0.2514  0.1678 -1.3864
31892SOL    HW2  133   4.756   5.198   7.506 -0.5683  0.2720 -3.4210
31893SOL     OW  134   9.962   1.300   8.406 -0.4480 -0.1592  0.0844
31893SOL    HW1  135  10.037   1.352   8.377  1.4029 -1.8433  1.5751
31893SOL    HW2  136   9.887   1.360   8.399  1.2349  2.0346 -0.1898
31894SOL     OW  137  10.893   7.993   7.380  0.1116 -0.1311  0.4293
31894SOL    HW1  138  10.806   7.954   7.377 -0.8338  1.8137  0.6109
31894SOL    HW2  139  10.901   8.028   7.469 -0.7174  3.3502 -0.7177
31895SOL     OW  140   2.345  11.041   8.457  0.0172  0.0839 -0.3499
31895SOL    HW1  141   2.407  11.001   8.395  1.4383  1.1678  0.3243
31895SOL    HW2  142   2.395  11.053   8.537 -0.6972  2.1251 -0.1614
31896SOL     OW  143   9.533   6.749  10.764  0.0433 -0.0279  0.0014
31896SOL    HW1  144   9.478   6.674  10.787 -0.0039  0.5342  1.8965
31896SOL    HW2  145   9.580   6.770  10.845  1.0730  1.1463 -0.8628
31897SOL     OW  146   9.030   8.711   1.320  0.0835  0.1061  0.1630
31897SOL    HW1  147   9.028   8.630   1.271 -2.2503 -1.2419  2.2171
31897SOL    HW2  148   9.122   8.738   1.319  0.7217 -1.8651 -1.6084
31898SOL     OW  149   7.771   2.186   4.313 -0.3866 -0.6308  0.5378
31898SOL    HW1  150   7.750   2.221   4.400  1.7570 -0.2897  0.9713
31898SOL    HW2  151   7.818   2.105   4.330 -0.7950 -1.0746 -0.3623
31899SOL     OW  152   7.091   3.238   2.611 -0.7356 -0.2126  0.1193
31899SOL    HW1  153   7.088   3.144   2.625  0.9119 -0.3434 -0.2187
31899SOL    HW2  154   7.121   3.248   2.520  3.7219  0.5375  1.4183
31900SOL     OW  155   1.558   3.104   0.546  0.2313  0.7286  0.3957
31900SOL    HW1  156   1.488   3.168   0.531  0.9855  1.4063 -0.3072
31900SOL    HW2  157   1.533   3.029   0.492 -0.3685  0.6424  0.7841
31901SOL     OW  158   0.527   8.201   0.952  0.0983  0.1444 -0.8749
31901SOL    HW1  159   0.604   8.153   0.921  0.0716 -0.7471  0.3695
31901SOL    HW2  160   0.562   8.283   0.987  0.4432 -0.1046 -0.6374
31902SOL     OW  161   4.912   2.328   4.823 -0.2169  0.1358  0.0493
31902SOL    HW1  162   4.871   2.304   4.905 -1.1478  1.1998 -0.0741
31902SOL    HW2  163   4.841   2.369   4.772 -0.2208 -2.2678 -2.1032
31903SOL     OW  164   0.887   6.992   0.766  0.1191 -0.1505  0.4866
31903SOL    HW1  165   0.822   7.062   0.774 -1.3912 -1.5757  1.4509
31903SOL    HW2  166   0.908   6.989   0.673  0.9650  2.1694  0.5390
31904SOL     OW  167   9.020   5.980   2.317  0.4121 -0.3620 -0.7427
31904SOL    HW1  168   8.993   6.060   2.271  1.5290  0.2726 -0.3270
31904SOL    HW2  169   9.110   5.965   2.288  0.8955 -0.3395  0.6784
31905SOL     OW  170   5.101   1.228   7.394  0.2034 -0.0244  0.6676
31905SOL    HW1  171   5.128   1.320   7.393  2.7344 -0.6387 -1.9526
31905SOL    HW2  172   5.079   1.209   7.303 -3.3428 -1.3245  1.6461
31906SOL     OW  173   9.378   2.657   0.401 -0.1482 -0.1474 -0.0997
31906SOL    HW1  174   9.442   2.726   0.384 -1.3211  0.6605 -1.4829
31906SOL    HW2  175   9.430   2.578   0.414  1.1305  0.4334 -1.3767
31907SOL     OW  176   3.238   8.030   2.611 -0.2431  0.3911  0.6814
31907SOL    HW1  177   3.259   8.086   2.686  1.8829  2.0200 -0.9939
31907SOL    HW2  178   3.303   8.054   2.545  0.8083 -4.1302 -0.1985
31908SOL     OW  179   4.033   2.060   2.670 -0.5569  0.3054 -0.1419
31908SOL    HW1  180   4.015   2.106   2.752 -0.5151  1.1942 -0.6183
31908SOL    HW2  181   4.090   1.987   2.695 -0.7138  0.4497  0.6417
31909SOL     OW  182   8.293   2.090   7.199 -0.3836  0.0540  0.3077
31909SOL    HW1  183   8.317   2.105   7.290 -0.9927 -0.4759  0.5664
31909SOL    HW2  184   8.361   2.033   7.165 -0.2004  0.1843  0.4569
31910SOL     OW  185   7.220   3.291   8.666 -0.6165 -0.0354  0.4564
31910SOL    HW1  186   7.246   3.213   8.716  0.4494  0.1854  0.2622
31910SOL    HW2  187   7.254   3.277   8.578 -3.0114 -0.6951 -0.4438
31911SOL     OW  188  10.038   5.288   5.631  0.3969 -0.2097 -0.5640
31911SOL    HW1  189   9.966   5.346   5.604  0.4459  0.8261  1.3741
31911SOL    HW2  190  10.116   5.328   5.592  0.2206  0.0642 -0.6456
31912SOL     OW  191   9.008   0.893   3.003 -0.1092  0.4937  0.7393
31912SOL    HW1  192   9.006   0.926   2.913  0.7489  0.2753  0.6240
31912SOL    HW2  193   9.081   0.940   3.044 -0.9743  1.1469  1.5514
31913SOL     OW  194   8.419   6.772   8.993 -0.5775  0.9048 -0.5767
31913SOL    HW1  195   8.427   6.769   9.088  0.6022  1.0452 -0.6675
31913SOL    HW2  196   8.332   6.734   8.976 -0.1093 -0.7422  0.4461
31914SOL     OW  197   4.398   2.302   9.965  0.0494  0.1924 -0.5933
31914SOL    HW1  198   4.472   2.353   9.999  0.8993 -0.4293 -1.4442
31914SOL    HW2  199   4.328   2.366   9.953  0.7547  0.9714 -0.6532
31915SOL     OW  200   8.672   7.964   6.619  0.3442 -0.1494 -0.3139
31915SOL    HW1  201   8.611   8.036   6.605  1.0732  1.0117  1.9713
31915SOL    HW2  202   8.645   7.925   6.702  1.8511 -0.4985  0.0449
31916SOL     OW  203   5.609   0.524   4.698  0.0179 -0.0011  0.1295
31916SOL    HW1  204   5.643   0.467   4.767  2.3014  1.2920  0.1440
31916SOL    HW2  205   5.629   0.613   4.727  0.5907  0.5998 -1.9415
31917SOL     OW  206   9.449   6.502   6.762  0.2629  0.1255 -0.2047
31917SOL    HW1  207   9.381   6.515   6.828  1.2479  0.3652  0.7953
31917SOL    HW2  208   9.401   6.484   6.681 -0.9918  0.8964  0.3389
31918SOL     OW  209   4.501  11.074   4.810 -0.5111  0.0231 -0.4117
31918SOL    HW1  210   4.527  10.994   4.855  1.8695  0.9973  0.0721
31918SOL    HW2  211   4.523  11.145   4.870 -3.2314  1.0966 -0.5176
31919SOL     OW  212   9.977   2.119   3.537  0.0893 -0.4536  0.6749
31919SOL    HW1  213  10.056   2.065   3.538 -0.5972 -1.4709  1.1950
31919SOL    HW2  214   9.981   2.169   3.618  0.2137 -0.4873  0.6896
31920SOL     OW  215   5.753   7.854   2.830 -0.5928  0.1933 -0.1024
31920SOL    HW1  216   5.735   7.863   2.924  1.6291  1.5282  0.2699
31920SOL    HW2  217   5.688   7.909   2.788 -0.7629  0.6850  0.7667
31921SOL     OW  218   1.163   5.769   1.013  0.1637  0.5941  0.3052
31921SOL    HW1  219   1.232   5.721   0.967  1.0755  0.6609  1.5378
31921SOL    HW2  220   1.117   5.702   1.064 -0.6479  0.5639 -0.4426
31922SOL     OW  221   3.411   5.966   8.306  0.4410 -0.4537 -0.2673
31922SOL    HW1  222   3.427   6.058   8.328 -0.5614 -0.3437  0.0769
31922SOL    HW2  223   3.449   5.917   8.378 -2.5532 -0.1069  1.7362
31923SOL     OW  224   0.760   8.757   6.288  0.2480  0.1415  0.1966
31923SOL    HW1  225   0.743   8.686   6.226 -0.4581 -1.1533  1.7946
31923SOL    HW2  226   0.778   8.833   6.233 -0.6867 -0.8553 -1.5810
31924SOL     OW  227   6.898   6.141  10.116 -0.3440  0.3034  0.4234
31924SOL    HW1  228   6.934   6.069  10.168 -0.1473 -1.9283 -2.5662
31924SOL    HW2  229   6.971   6.203  10.109 -0.6726  1.1962  3.4668
31925SOL     OW  230   2.460   2.181   7.947 -0.3022  0.1708  0.0181
31925SOL    HW1  231   2.389   2.182   7.883 -0.4073 -3.0677 -0.0763
31925SOL    HW2  232   2.540   2.186   7.894 -0.4191 -0.3524 -0.2129
31926SOL     OW  233   4.025   7.317  10.495 -0.4244  0.5949 -0.1275
31926SOL    HW1  234   3.966   7.378  10.451  0.7373  2.5572  0.8886
31926SOL    HW2  235   3.968   7.247  10.527 -2.6275  3.2551  2.3621
31927SOL     OW  236   1.312   1.922   8.619 -1.1231 -0.3204  0.0179
31927SOL    HW1  237   1.391   1.870   8.631 -0.2819  1.2384  1.7218
31927SOL    HW2  238   1.268   1.919   8.703 -0.4030  2.6100  0.6268
31928SOL     OW  239   8.816  10.841   1.233  0.0209 -0.7178  0.0604
31928SOL    HW1  240   8.866  10.789   1.170  1.5323 -1.4576  1.7542
31928SOL    HW2  241   8.839  10.932   1.213  1.1938 -0.9911  0.0824
31929SOL     OW  242   1.539   1.069   6.340  0.4367  0.0379  0.2317
31929SOL    HW1  243   1.545   1.002   6.408  1.9583  0.9872  1.1163
31929SOL    HW2  244   1.630   1.084   6.313 -0.0733  0.1977 -1.5395
31930SOL     OW  245  10.907   1.899  10.683  0.2334  0.2124  0.2224
31930SOL    HW1  246  10.866   1.829  10.734  1.4478  0.0319  0.9780
31930SOL    HW2  247  10.957   1.854  10.615  0.3893  0.3745  0.2292
31931SOL     OW  248   0.337   8.344   3.520  0.0970 -0.3167  0.4885
31931SOL    HW1  249   0.358   8.253   3.498  1.1771 -0.0736  0.4794
31931SOL    HW2  250   0.332   8.389   3.436  0.3626 -0.1999  0.5347
31932SOL     OW  251  10.606   2.507   2.140  0.0299  0.4482  0.7311
31932SOL    HW1  252  10.512   2.524   2.134  0.3324  2.1352  0.3840
31932SOL    HW2  253  10.620   2.477   2.230 -1.1268 -1.9964  0.1800
31933SOL     OW  254   6.936   1.386   9.943  0.2128 -0.7637 -0.1095
31933SOL    HW1  255   6.934   1.337   9.860 -1.1570 -0.3563 -0.3381
31933SOL    HW2  256   6.937   1.478   9.916  0.7361 -0.6284  0.3389
31934SOL     OW  257   7.930   2.716   3.661 -0.3739 -0.2107 -0.2113
31934SOL    HW1  258   8.014   2.672   3.649 -0.5202 -0.6389  0.3096
31934SOL    HW2  259   7.947   2.783   3.727 -0.1696  0.4843 -0.9495
31935SOL     OW  260   0.535   3.035   7.965 -0.3348  0.1417 -0.4054
31935SOL    HW1  261   0.516   2.949   7.927  2.7303 -1.7654  1.9317
31935SOL    HW2  262   0.564   3.088   7.890 -1.3079 -1.1667 -1.7609
31936SOL     OW  263   1.299   4.192   1.350  0.3348 -0.1744 -0.5431
31936SOL    HW1  264   1.292   4.096   1.345 -0.3914 -0.0911 -1.6411
31936SOL    HW2  265   1.303   4.220   1.258 -0.3095  0.8985 -0.2616
31937SOL     OW  266   6.184  10.012   0.626 -0.3278 -0.2788 -0.3280
31937SOL    HW1  267   6.273  10.007   0.589  0.1101 -0.3243  0.6936
31937SOL    HW2  268   6.195  10.059   0.708 -0.8779 -2.2012  0.9015
31938SOL     OW  269  10.534   9.876  10.032  0.0787 -0.0804 -0.3682
31938SOL    HW1  270  10.518   9.971  10.033  0.1075 -0.0628 -1.1521
31938SOL    HW2  271  10.569   9.859   9.945  0.4803 -0.7530 -0.0806
31939SOL     OW  272   6.115   1.602   6.997 -0.1605 -0.7551  0.6713
31939SOL    HW1  273   6.038   1.562   6.958  0.8855 -2.2799  0.0798
31939SOL    HW2  274   6.169   1.627   6.922 -0.7911  1.9523  0.9963
31940SOL     OW  275   8.490   6.502   3.959  0.1052  0.2823 -0.6650
31940SOL    HW1  276   8.520   6.541   4.041  1.0621  0.4433 -1.0829
31940SOL    HW2  277   8.461   6.414   3.984  0.7325  0.1998 -0.2117
31941SOL     OW  278   0.755   7.910   5.374 -0.0322  0.0957 -0.1378
31941SOL    HW1  279   0.759   8.001   5.347 -1.6826  0.1130 -0.4016
31941SOL    HW2  280   0.763   7.913   5.469  0.9818  0.4180 -0.2260
31942SOL     OW  281   5.571   3.449   3.119  0.1054  0.3079 -0.0472
31942SOL    HW1  282   5.572   3.507   3.042  0.6965 -0.0233 -0.2962
31942SOL    HW2  283   5.506   3.382   3.097  1.1297 -0.4847 -0.8066
31943SOL     OW  284   8.979  10.540   5.662 -0.5059 -0.4354 -0.0367
31943SOL    HW1  285   9.007  10.474   5.726 -0.8239 -0.4949  0.0470
31943SOL    HW2  286   9.004  10.624   5.701  0.9761 -0.5599 -0.6912
31944SOL     OW  287   3.632   0.339  10.714 -0.2562 -0.3629  0.2109
31944SOL    HW1  288   3.678   0.257  10.734 -3.4068 -2.4541 -0.4668
31944SOL    HW2  289   3.584   0.359  10.795  0.8457  1.1484  0.5287
31945SOL     OW  290   6.391   2.465  10.188  0.4145 -0.1163 -0.6286
31945SOL    HW1  291   6.371   2.435  10.276  0.2871 -0.3894 -0.7510
31945SOL    HW2  292   6.465   2.524  10.199  1.0627 -0.9474 -0.4670
31946SOL     OW  293  10.586   5.933   4.192 -0.0499 -0.8829  0.2145
31946SOL    HW1  294  10.631   5.925   4.108 -2.2552 -2.9627 -0.8951
31946SOL    HW2  295  10.646   5.983   4.247  2.5952 -1.6411 -1.7935
31947SOL     OW  296   1.574   0.330   3.553  0.2448  0.1950 -0.7402
31947SOL    HW1  297   1.572   0.377   3.469  0.8857 -0.0318 -0.8906
31947SOL    HW2  298   1.651   0.273   3.546  0.7499  0.7184  0.2910
31948SOL     OW  299   5.844   5.118   4.206 -0.0617  0.7016  0.0298
31948SOL    HW1  300   5.916   5.172   4.238  1.7255 -1.3898 -0.2708
31948SOL    HW2  301   5.805   5.081   4.285  0.5249  0.2409  0.1110
31949SOL     OW  302   5.280   2.297   3.065 -0.2439  0.0329  0.2214
31949SOL    HW1  303   5.364   2.304   3.019 -0.8052  1.2850 -0.6644
31949SOL    HW2  304   5.214   2.304   2.996 -1.1077  1.6279  1.1311
31950SOL     OW  305   1.193   2.036   4.314 -0.0662  0.4879  0.1069
31950SOL    HW1  306   1.114   1.982   4.304  0.0802 -0.0718  1.7306
31950SOL    HW2  307   1.231   2.040   4.226 -1.1319 -0.4230 -0.4136
31951SOL     OW  308   3.363   4.894   1.915  0.4733 -0.2064  0.0557
31951SOL    HW1  309   3.312   4.827   1.867  0.6940 -0.6648  0.4538
31951SOL    HW2  310   3.452   4.885   1.881  0.5873 -0.3933  0.3978
31952SOL     OW  311   0.540   8.677   7.044  0.2908  0.6988 -0.4959
31952SOL    HW1  312   0.595   8.599   7.042  0.7714  1.0245 -0.0915
31952SOL    HW2  313   0.495   8.676   6.960 -0.8243 -0.8080  0.0612
31953SOL     OW  314   4.695   8.839   3.017 -0.6980 -0.1029  0.0434
31953SOL    HW1  315   4.680   8.774   2.948 -0.9606 -0.1915  0.1851
31953SOL    HW2  316   4.769   8.803   3.067 -1.6015 -0.8847  0.8418
31954SOL     OW  317   4.705   6.070   5.158  0.0317 -0.1969 -0.1916
31954SOL    HW1  318   4.779   6.130   5.153  0.3726 -0.6274 -0.3960
31954SOL    HW2  319   4.741   5.985   5.132 -0.1481 -0.7424  1.2282
31955SOL     OW  320   5.242   2.580   0.754 -0.3878  0.0440 -0.2877
31955SOL    HW1  321   5.211   2.570   0.844  0.6216 -0.7027 -0.0007
31955SOL    HW2  322   5.203   2.506   0.707 -0.5077  0.1485 -0.3548
31956SOL     OW  323   1.651   8.165   3.260 -0.1748  0.6968  0.2458
31956SOL    HW1  324   1.694   8.162   3.175  0.1025  0.6921  0.3828
31956SOL    HW2  325   1.704   8.108   3.316 -0.3133  0.7538  0.4379
31957SOL     OW  326   5.487   3.696   4.337  0.1812 -0.1061  0.4862
31957SOL    HW1  327   5.471   3.714   4.244  0.8172 -0.8361  0.2225
31957SOL    HW2  328   5.553   3.760   4.364  1.0148 -0.7602  0.0588
31958SOL     OW  329   0.431   8.944   6.106 -0.4478 -0.0178  0.0647
31958SOL    HW1  330   0.444   8.908   6.018 -0.1035  0.9207 -0.2773
31958SOL    HW2  331   0.422   8.867   6.162 -0.0552 -0.6332 -0.7006
31959SOL     OW  332   7.317   2.137   6.427  0.0361  0.3531 -0.4103
31959SOL    HW1  333   7.377   2.097   6.365  0.5611 -0.3129  0.5183
31959SOL    HW2  334   7.233   2.093   6.412  0.4870 -0.7764  0.2598
31960SOL     OW  335   9.218   5.190   6.436 -0.2922 -0.4007 -0.4137
31960SOL    HW1  336   9.202   5.130   6.363 -2.8133  0.0848 -0.3611
31960SOL    HW2  337   9.279   5.255   6.402 -0.7640 -0.6680 -1.8140
31961SOL     OW  338   2.025   3.750   7.435  0.1991  0.5964  0.2279
31961SOL    HW1  339   1.951   3.768   7.493 -0.0841  3.8743 -0.9273
31961SOL    HW2  340   2.082   3.827   7.444  1.6409 -0.1923 -1.5750
31962SOL     OW  341   5.228   3.493   9.349 -0.1950 -0.2255 -0.1681
31962SOL    HW1  342   5.159   3.462   9.407  0.5308  0.4404  1.0949
31962SOL    HW2  343   5.302   3.511   9.406  1.2054 -1.3505 -1.5444
31963SOL     OW  344   4.967  10.105   4.203 -0.1823 -0.4245 -0.0305
31963SOL    HW1  345   4.910  10.029   4.198  0.7640 -1.0961 -0.8466
31963SOL    HW2  346   5.056  10.070   4.198  0.2927  0.6812  0.2001
31964SOL     OW  347   8.043   9.118   8.791 -0.1240  0.2732  0.9005
31964SOL    HW1  348   8.072   9.201   8.829  0.6824  1.2687 -1.7066
31964SOL    HW2  349   8.100   9.104   8.716 -1.6700 -1.5394 -0.0182
31965SOL     OW  350   6.535   6.188   1.948  1.5121 -0.2959 -0.5249
31965SOL    HW1  351   6.582   6.183   2.031 -1.4424 -0.3244  1.2550
31965SOL    HW2  352   6.546   6.280   1.921  3.8277 -0.6519 -1.0453
31966SOL     OW  353   9.659   7.776   6.034 -0.3444 -0.2848  0.1317
31966SOL    HW1  354   9.646   7.812   6.122  0.9988  0.6516 -0.0229
31966SOL    HW2  355   9.717   7.838   5.991 -0.0902 -1.3038 -1.0596
31967SOL     OW  356   5.605   6.470   1.463 -0.0359  0.3256 -0.3524
31967SOL    HW1  357   5.617   6.419   1.383 -0.7232  0.9230 -0.8520
31967SOL    HW2  358   5.629   6.559   1.439 -0.0666  0.4780  0.1596
31968SOL     OW  359   1.289   1.798   7.757 -0.3461  0.1945  0.1667
31968SOL    HW1  360   1.327   1.884   7.778  2.9099 -0.8904 -0.6824
31968SOL    HW2  361   1.334   1.770   7.678 -0.0162 -3.0089  1.3268
31969SOL     OW  362   9.824   7.392   7.354 -0.3411  0.8267 -0.2234
31969SOL    HW1  363   9.796   7.459   7.291 -1.3531  0.5709 -0.0625
31969SOL    HW2  364   9.745   7.373   7.405  0.3548  0.7010  0.8257
31970SOL     OW  365   0.837   6.549   6.539 -0.5640 -0.1006  0.5712
31970SOL    HW1  366   0.858   6.523   6.629  0.1245 -1.1754  0.1194
31970SOL    HW2  367   0.914   6.525   6.489 -1.3423 -0.4593 -0.4834
31971SOL     OW  368  10.798   4.003   0.805  0.2114  0.0912 -0.3109
31971SOL    HW1  369  10.729   3.937   0.799 -0.8521  1.2094 -0.6830
31971SOL    HW2  370  10.876   3.959   0.771 -0.7652 -0.5755 -1.7620
31972SOL     OW  371   9.754   2.214   9.785  0.1357  0.6213  0.3389
31972SOL    HW1  372   9.847   2.206   9.806  0.6570  0.2710 -1.9036
31972SOL    HW2  373   9.726   2.123   9.770 -0.0763  0.8661 -0.8352
31973SOL     OW  374   7.596   0.079   2.196 -0.0911 -0.4171  0.0214
31973SOL    HW1  375   7.574   0.087   2.103 -0.3438  2.0074  0.2153
31973SOL    HW2  376   7.691   0.093   2.199 -0.1760  0.1605  0.1633
31974SOL     OW  377   8.559   5.729  10.268  0.4523  0.3557  0.1811
31974SOL    HW1  378   8.515   5.722  10.353 -0.4638 -1.1979 -0.3698
31974SOL    HW2  379   8.647   5.693  10.284 -0.4398 -2.1294  0.0416
31975SOL     OW  380   6.452   3.997   1.476  0.3339  0.1614 -0.2116
31975SOL    HW1  381   6.388   4.030   1.414  1.5643  1.9818 -0.5797
31975SOL    HW2  382   6.403   3.987   1.558 -1.1928 -1.8355 -1.2884
31976SOL     OW  383   6.925   8.460   7.022 -0.1143  0.4473 -0.4912
31976SOL    HW1  384   6.969   8.489   7.102  0.4461  1.1994 -1.0618
31976SOL    HW2  385   6.992   8.412   6.973 -0.0818  1.0879 -1.0922
31977SOL     OW  386   5.919   2.025   9.946 -0.0843 -0.0621  0.2393
31977SOL    HW1  387   5.974   2.065   9.879 -0.7240  0.5550  0.0638
31977SOL    HW2  388   5.963   2.047  10.029  0.5623 -0.5972  0.0418
31978SOL     OW  389   9.552   1.938   7.091  0.5565  0.4457 -0.6285
31978SOL    HW1  390   9.561   1.970   7.181  1.4710  1.0217 -0.9008
31978SOL    HW2  391   9.617   1.868   7.084  1.6336  1.4762 -1.2815
31979SOL     OW  392   4.636  10.483   6.350 -0.3842 -0.4989 -0.0170
31979SOL    HW1  393   4.541  10.475   6.359 -0.5169  1.5365  0.7631
31979SOL    HW2  394   4.669  10.474   6.439  0.5186 -4.2617 -0.5668
31980SOL     OW  395   8.432   2.592   9.696 -0.1403 -0.0375 -0.3838
31980SOL    HW1  396   8.407   2.505   9.728  1.0482 -0.6926 -1.1293
31980SOL    HW2  397   8.405   2.652   9.765 -1.3893 -0.9518 -0.0525
31981SOL     OW  398  10.681   3.970   9.897  0.5489 -0.0999 -0.5477
31981SOL    HW1  399  10.730   4.046   9.930  0.2312  0.3172 -1.0191
31981SOL    HW2  400  10.598   3.972   9.944  1.0519 -0.9261  0.4002
31982SOL     OW  401   1.433   0.587   8.025  0.3835  0.5599 -0.3763
31982SOL    HW1  402   1.360   0.534   8.056  0.1575  2.2001  2.1802
31982SOL    HW2  403   1.406   0.618   7.939 -1.7026  0.6406  0.2617
31983SOL     OW  404   8.816   3.403   4.896  0.0162 -0.2230 -0.2225
31983SOL    HW1  405   8.774   3.358   4.823 -0.2407 -0.9722  0.3763
31983SOL    HW2  406   8.775   3.490   4.897  0.2476 -0.0851 -1.1512
31984SOL     OW  407   0.109   0.913   1.152 -0.2085 -0.3267 -0.2998
31984SOL    HW1  408   0.031   0.899   1.099  0.8026 -0.0092 -1.9478
31984SOL    HW2  409   0.094   0.997   1.196 -1.9919 -1.6050  1.7302
31985SOL     OW  410   5.434   3.572  10.077  0.2146 -0.3537  0.1468
31985SOL    HW1  411   5.399   3.500  10.130  1.5238 -0.7993  0.4338
31985SOL    HW2  412   5.378   3.573   9.999 -1.0082 -0.4323  0.9929
31986SOL     OW  413   7.214   7.243   4.811 -0.3354  0.3402 -0.5268
31986SOL    HW1  414   7.229   7.149   4.820  2.3825  0.7138 -0.3989
31986SOL    HW2  415   7.277   7.284   4.870 -0.6261  2.2703 -1.4734
31987SOL     OW  416   4.804  10.885   3.004  0.1971 -0.4407 -0.5117
31987SOL    HW1  417   4.873  10.949   2.987  0.5200 -0.2720  1.1900
31987SOL    HW2  418   4.850  10.802   3.017 -0.0786 -0.6870 -1.0572
31988SOL     OW  419   0.080   7.901  11.042  0.3727 -0.0821 -0.4420
31988SOL    HW1  420   0.047   7.945  10.964  0.7150  0.0922 -0.4924
31988SOL    HW2  421   0.003   7.890  11.098  0.2683  0.5396 -0.4521
31989SOL     OW  422   3.336   5.356  10.091 -0.2200 -0.2367 -0.5899
31989SOL    HW1  423   3.361   5.264  10.094  1.2418  0.0596 -2.3098
31989SOL    HW2  424   3.260   5.359  10.033 -1.7290 -0.5775  1.2415
31990SOL     OW  425   1.291   2.516   6.057  0.1015 -0.4699  0.0350
31990SOL    HW1  426   1.344   2.542   6.132 -0.1689 -0.0759  0.0960
31990SOL    HW2  427   1.249   2.434   6.084  3.0171 -2.4930 -1.1298
31991SOL     OW  428   9.115   3.379   1.434 -0.4233 -0.4601  0.3900
31991SOL    HW1  429   9.172   3.308   1.465  1.9758 -0.2838 -3.0125
31991SOL    HW2  430   9.079   3.346   1.351 -0.5409  1.6754 -0.4680
31992SOL     OW  431   3.622   9.322   7.078  0.0784 -0.6059 -0.3781
31992SOL    HW1  432   3.558   9.290   7.142 -1.0957 -0.5552 -1.4869
31992SOL    HW2  433   3.692   9.257   7.080  0.5426 -0.1269  1.6057
31993SOL     OW  434   7.377   1.719   2.564  0.0785  0.0856  0.7435
31993SOL    HW1  435   7.361   1.673   2.481  1.1604  0.4274  0.3299
31993SOL    HW2  436   7.333   1.803   2.554 -1.4231 -0.6079  1.2804
31994SOL     OW  437   9.585   9.286   1.136  0.2213 -0.2212 -0.2461
31994SOL    HW1  438   9.629   9.370   1.123  2.1993 -1.4258 -1.9084
31994SOL    HW2  439   9.493   9.305   1.121  0.5933  1.7056 -0.3293
31995SOL     OW  440   0.059   4.198   0.937 -0.2266 -0.3000  0.2131
31995SOL    HW1  441  -0.018   4.145   0.954  0.4639 -1.0903  0.9617
31995SOL    HW2  442   0.119   4.140   0.890 -0.0002  0.2371 -0.1721
31996SOL     OW  443   4.052   4.684   2.424  0.6182 -0.3804  0.1376
31996SOL    HW1  444   4.112   4.617   2.458  1.1365 -0.2568 -0.5229
31996SOL    HW2  445   3.972   4.636   2.404  0.9227 -0.7780 -0.1556
31997SOL     OW  446   6.364   6.821   7.735  0.3935 -0.3005  0.4690
31997SOL    HW1  447   6.444   6.872   7.746  1.5528 -1.5579 -1.5569
31997SOL    HW2  448   6.389   6.732   7.761 -0.7010 -0.4911  0.9280
31998SOL     OW  449   1.412   9.090   3.064  0.1667 -0.2637  0.7151
31998SOL    HW1  450   1.425   9.165   3.006  1.8539  0.2632  1.7088
31998SOL    HW2  451   1.499   9.073   3.101 -0.3405 -2.2244  1.1102
31999SOL     OW  452   2.296   5.183   7.260 -0.1546  0.3167 -0.0138
31999SOL    HW1  453   2.339   5.245   7.203  1.2110  1.6121  2.2921
31999SOL    HW2  454   2.365   5.123   7.288 -0.4960  0.4924  1.2676
32000SOL     OW  455   1.641  10.712   4.095  0.4426  0.1739  0.0118
32000SOL    HW1  456   1.635  10.790   4.040 -1.0455 -0.0395 -0.1783
32000SOL    HW2  457   1.551  10.695   4.123  0.8125 -1.1522  0.5083
32001SOL     OW  458   0.184   5.154   0.487 -0.0531 -0.4478  0.0578
32001SOL    HW1  459   0.212   5.183   0.573 -0.9903 -3.3351  1.4684
32001SOL    HW2  460   0.092   5.129   0.498 -0.1308 -1.1112 -1.7083
32002SOL     OW  461   6.676   9.748   0.218 -0.0675  0.1542 -0.2295
32002SOL    HW1  462   6.642   9.830   0.183 -0.9082  0.4370  1.1912
32002SOL    HW2  463   6.610   9.682   0.196 -0.2831  0.2117  0.2358
32003SOL     OW  464   6.148   6.145   5.263  0.2928 -0.1765 -0.8991
32003SOL    HW1  465   6.062   6.104   5.275 -0.3913  1.3011 -0.6049
32003SOL    HW2  466   6.205   6.100   5.327 -0.4143 -0.7091 -0.6331
32004SOL     OW  467   0.088   3.268   3.197 -0.3072 -0.2781  0.1738
32004SOL    HW1  468   0.010   3.233   3.154 -0.0847 -0.9847  0.3192
32004SOL    HW2  469   0.100   3.212   3.274  0.1903 -0.0072  0.2981
32005SOL     OW  470   5.465  11.075   3.555  0.0910  0.6955  0.0201
32005SOL    HW1  471   5.538  11.113   3.603  0.3230  0.4156 -0.1091
32005SOL    HW2  472   5.422  11.018   3.618  0.1412  0.6585  0.0213
32006SOL     OW  473   9.178   4.351   8.390 -0.2653 -0.1313  0.7640
32006SOL    HW1  474   9.092   4.337   8.353  0.5462 -0.2186 -1.1806
32006SOL    HW2  475   9.164   4.416   8.459 -1.5637  1.4373 -0.9095
32007SOL     OW  476   1.495   6.613   0.014  0.4030  0.3084 -0.3733
32007SOL    HW1  477   1.458   6.528   0.040  0.3916 -0.3249 -2.2671
32007SOL    HW2  478   1.568   6.627   0.074 -1.2424  0.3085  1.7460
32008SOL     OW  479   6.549   9.107   4.180  0.1252 -0.1155  0.0786
32008SOL    HW1  480   6.499   9.150   4.249  2.5114 -0.3003  2.0694
32008SOL    HW2  481   6.538   9.013   4.197  1.1100 -0.1574  0.5636
32009SOL     OW  482   7.211   9.700   3.675 -0.2808  0.0708 -0.1228
32009SOL    HW1  483   7.226   9.780   3.726 -1.0886  1.1217 -1.4437
32009SOL    HW2  484   7.298   9.663   3.662  0.0441  0.3809  1.0352
32010SOL     OW  485  10.174   3.541   2.852 -0.1420  0.2679  0.9529
32010SOL    HW1  486  10.237   3.567   2.785 -1.2513 -2.1706 -1.2214
32010SOL    HW2  487  10.088   3.553   2.811 -0.8270 -2.3774  1.4397
32011SOL     OW  488   5.057   6.172   9.452  0.4537  0.0460  0.7435
32011SOL    HW1  489   5.139   6.196   9.495  2.5031 -2.5759 -1.3195
32011SOL    HW2  490   5.033   6.088   9.491  1.2497 -1.3565 -1.5436
32012SOL     OW  491   4.821   0.097   3.633  0.6559 -0.1855  0.4977
32012SOL    HW1  492   4.911   0.071   3.653  0.2998 -0.2399  2.2480
32012SOL    HW2  493   4.769   0.059   3.704 -0.5456  1.0770  0.3442
32013SOL     OW  494   5.031   5.994   9.083 -0.1426  0.0645 -0.7037
32013SOL    HW1  495   4.957   6.034   9.128 -1.2339 -0.4035 -1.9954
32013SOL    HW2  496   4.997   5.912   9.049  0.9665 -0.1537 -1.3537
32014SOL     OW  497   9.977   5.978   7.923  0.4823  0.4758 -0.2943
32014SOL    HW1  498  10.009   6.042   7.986  0.4907  1.9685 -1.7325
32014SOL    HW2  499   9.986   6.022   7.838  1.6961 -1.9081 -1.5070
32015SOL     OW  500  10.123   0.164   1.327  0.1284  0.0636  0.0757
32015SOL    HW1  501  10.171   0.089   1.363  0.2460  0.8843  1.7291
32015SOL    HW2  502  10.155   0.171   1.237  2.0041 -0.3487  0.6466
32016SOL     OW  503   6.295   3.607   8.185  0.6954  0.3056 -0.3215
32016SOL    HW1  504   6.379   3.635   8.222  1.0844 -0.5051 -0.5692
32016SOL    HW2  505   6.315   3.587   8.093  0.3021 -0.1776 -0.3088
32017SOL     OW  506   9.064   4.404   3.673  0.4916 -0.1680  0.1367
32017SOL    HW1  507   9.020   4.392   3.758  0.2292 -0.8532 -0.0885
32017SOL    HW2  508   9.153   4.372   3.688  0.7136  0.5646  0.4009
32018SOL     OW  509   9.392  10.460   3.136  0.1471 -0.1339  0.1619
32018SOL    HW1  510   9.305  10.493   3.157  0.1105  1.5449 -2.2878
32018SOL    HW2  511   9.390  10.368   3.163 -1.6498  0.4079  2.0494
32019SOL     OW  512   9.619   4.794   7.334  0.0786 -0.0629  0.1375
32019SOL    HW1  513   9.586   4.715   7.292 -0.5571 -1.0124  2.2705
32019SOL    HW2  514   9.545   4.827   7.385  0.2964  2.0004 -0.7527
32020SOL     OW  515   3.679   2.609   0.147  0.3570  0.0239  0.1100
32020SOL    HW1  516   3.700   2.700   0.124 -0.5885  0.4443  0.8158
32020SOL    HW2  517   3.658   2.567   0.064  1.3936  0.2839 -0.2929
32021SOL     OW  518   4.164   8.203   1.610 -0.8336 -0.3873 -0.2160
32021SOL    HW1  519   4.086   8.148   1.601 -1.3901  0.5318 -1.1530
32021SOL    HW2  520   4.136   8.275   1.666 -0.3010 -0.6826  0.4404
32022SOL     OW  521   3.632   7.183   3.371 -0.1173 -0.3943  0.3551
32022SOL    HW1  522   3.640   7.088   3.357  0.5662 -0.3501  0.4125
32022SOL    HW2  523   3.632   7.220   3.283 -1.4204 -0.5136  0.2895
32023SOL     OW  524   4.883   4.910   2.720  0.4081 -0.1655  0.0731
32023SOL    HW1  525   4.831   4.990   2.710  1.3019  0.4697  0.3614
32023SOL    HW2  526   4.867   4.883   2.811  1.2362  0.5238  0.4414
32024SOL     OW  527   2.025   7.221   0.422 -0.8509  0.1646  0.0032
32024SOL    HW1  528   2.031   7.125   0.424  0.0777  0.2236  1.4825
32024SOL    HW2  529   2.117   7.250   0.419 -1.1084  1.0193  0.2066
32025SOL     OW  530   9.114   9.476   0.327 -0.0137 -0.0328 -0.4899
32025SOL    HW1  531   9.029   9.444   0.355  0.3398 -0.3949  0.2105
32025SOL    HW2  532   9.165   9.483   0.408  0.2759  1.2403 -0.7517
32026SOL     OW  533   8.329   9.336   7.184 -0.6124  0.2999  0.0132
32026SOL    HW1  534   8.389   9.307   7.115 -1.8229 -0.1987 -0.8498
32026SOL    HW2  535   8.319   9.430   7.169 -1.1176  0.1396 -0.7029
32027SOL     OW  536   2.348   8.062   6.078  0.7801 -0.4259 -0.4629
32027SOL    HW1  537   2.279   8.021   6.025  0.5007  0.1491 -0.5470
32027SOL    HW2  538   2.335   8.026   6.166 -1.0017  1.3033  0.0317
32028SOL     OW  539   1.463   3.710   9.255 -0.2599 -0.6630  0.0143
32028SOL    HW1  540   1.448   3.664   9.338 -0.3586  0.2807  0.5319
32028SOL    HW2  541   1.558   3.718   9.249 -0.2866  0.2026  0.5734
32029SOL     OW  542   9.493   3.353   6.714  0.1211 -0.0419 -0.3403
32029SOL    HW1  543   9.472   3.393   6.630  0.9048  0.2532 -0.4004
32029SOL    HW2  544   9.547   3.418   6.759  1.3958 -0.9918 -0.4336
32030SOL     OW  545   4.473   1.911   2.199 -0.4634 -0.1867 -0.6931
32030SOL    HW1  546   4.517   1.915   2.284  0.4133  1.4462 -1.1949
32030SOL    HW2  547   4.501   1.827   2.162  0.2630 -0.2685  0.0204
32031SOL     OW  548   9.933   2.308   9.270  0.0018 -0.1444 -0.0933
32031SOL    HW1  549   9.842   2.291   9.249  0.1861  0.8442 -1.8417
32031SOL    HW2  550   9.983   2.270   9.197  1.2859 -3.2049  2.1166
32032SOL     OW  551   9.908   0.470   2.942  0.0387  0.0951 -0.1961
32032SOL    HW1  552   9.908   0.550   2.889  0.4539  1.3254  1.5668
32032SOL    HW2  553   9.844   0.488   3.011 -1.7430 -2.1258 -1.1420
32033SOL     OW  554   2.561   1.629   9.652 -0.1694 -0.1381 -0.2863
32033SOL    HW1  555   2.474   1.618   9.614 -1.0025 -1.1296  1.7841
32033SOL    HW2  556   2.612   1.555   9.619 -0.3290 -0.0039 -0.8497
32034SOL     OW  557   9.637   1.570   4.114 -0.0234  0.2592  0.1031
32034SOL    HW1  558   9.682   1.649   4.142  0.5737 -0.0190 -0.0488
32034SOL    HW2  559   9.544   1.593   4.115  0.2189  1.4807 -1.4777
32035SOL     OW  560   4.905   7.898   8.413  0.2510 -0.0829  0.1571
32035SOL    HW1  561   4.873   7.943   8.491  0.6674 -1.5045  1.1736
32035SOL    HW2  562   4.973   7.839   8.445 -0.2060 -1.3610 -1.1425
32036SOL     OW  563   2.766   1.824   9.692  0.1130 -0.1799  0.4116
32036SOL    HW1  564   2.701   1.755   9.682  0.0088  0.1196 -1.2333
32036SOL    HW2  565   2.848   1.784   9.663  0.4015 -0.1045  1.0872
32037SOL     OW  566   0.532   3.911   4.864  0.3364  0.5977  0.2556
32037SOL    HW1  567   0.560   3.820   4.853 -1.5610 -0.0158  0.1625
32037SOL    HW2  568   0.600   3.962   4.820  2.0873 -0.6458  1.3531
32038SOL     OW  569   5.244   1.985  10.096 -0.9517 -0.1780 -0.1303
32038SOL    HW1  570   5.162   1.962  10.139 -1.3550  0.8949 -0.2794
32038SOL    HW2  571   5.218   2.043  10.025 -0.1125 -0.3129 -0.5624
32039SOL     OW  572  10.296   9.742   8.158  0.3241  0.4009 -0.1926
32039SOL    HW1  573  10.332   9.749   8.246  1.7637  2.5735 -0.8863
32039SOL    HW2  574  10.343   9.669   8.119  1.2518  0.8140  0.1409
32040SOL     OW  575   8.843  10.029   0.263 -0.1346  0.2550 -0.4115
32040SOL    HW1  576   8.851  10.014   0.357  0.6706  2.4846 -0.0784
32040SOL    HW2  577   8.750  10.016   0.245 -0.0107 -2.0845  0.2823
32041SOL     OW  578   8.062   3.734   9.332 -0.0295  0.0287  0.3418
32041SOL    HW1  579   8.100   3.753   9.246 -2.5782 -1.5511 -1.2714
32041SOL    HW2  580   8.132   3.690   9.380  0.8640 -0.9646 -1.7215
32042SOL     OW  581   8.276  10.710   6.001 -0.2155  0.3900 -0.0538
32042SOL    HW1  582   8.228  10.792   6.012  0.6680  0.7421  1.4522
32042SOL    HW2  583   8.209  10.642   6.009 -0.4657  0.8500  2.4817
32043SOL     OW  584   7.973   7.222  10.134 -0.0113 -0.0758  0.1778
32043SOL    HW1  585   8.001   7.290  10.073  1.6172  0.1585  1.1341
32043SOL    HW2  586   8.054   7.190  10.174 -0.9748 -0.5679  1.8571
32044SOL     OW  587   1.948   3.923   7.088 -0.0683 -0.1291 -0.7532
32044SOL    HW1  588   1.887   3.926   7.162  0.8367 -0.8427  0.0551
32044SOL    HW2  589   1.902   3.871   7.021 -0.6110 -0.0965 -0.4140
32045SOL     OW  590   7.760   2.823   9.975  0.1664 -0.1103 -0.1490
32045SOL    HW1  591   7.709   2.866  10.044 -0.8554 -0.7913 -0.4656
32045SOL    HW2  592   7.837   2.879   9.964 -0.8277  1.3115 -0.1191
32046SOL     OW  593   4.878   7.471   9.176 -0.0915  0.1382  0.1812
32046SOL    HW1  594   4.793   7.478   9.131  0.0731 -1.2162 -0.3833
32046SOL    HW2  595   4.884   7.379   9.201  1.3093  0.1714  0.0231
32047SOL     OW  596   2.034   6.823   0.037  0.5215  0.1647 -0.0233
32047SOL    HW1  597   2.113   6.875   0.022 -1.6930  3.1851 -2.7558
32047SOL    HW2  598   1.979   6.878   0.094 -0.5726 -0.6905 -0.2107
32048SOL     OW  599   1.940   1.526   4.101  0.1773 -0.6756 -1.0211
32048SOL    HW1  600   1.952   1.432   4.084  0.4021 -1.0381  0.9723
32048SOL    HW2  601   1.941   1.566   4.014  3.9213 -2.0668 -1.7731
32049SOL     OW  602  10.342   0.926   1.806  0.3287 -0.3268 -0.0065
32049SOL    HW1  603  10.369   0.901   1.894  0.2759 -1.0033 -0.1781
32049SOL    HW2  604  10.248   0.906   1.802 -0.2681  1.9946  0.5799
32050SOL     OW  605   3.853   7.923   6.885  0.2791 -0.4040  0.0643
32050SOL    HW1  606   3.839   7.829   6.895 -1.6111 -0.1742 -0.0474
32050SOL    HW2  607   3.859   7.937   6.791 -1.6337 -0.1798 -0.0576
32051SOL     OW  608  10.951  10.106   1.944 -0.3103  0.9311  0.4274
32051SOL    HW1  609  10.911  10.161   1.877 -0.6389  1.0212  0.6929
32051SOL    HW2  610  10.985  10.168   2.009  2.8575  1.0369 -1.1532
32052SOL     OW  611   1.932   0.897   0.120 -0.1132 -0.0472  0.3532
32052SOL    HW1  612   2.012   0.901   0.067 -0.1043  1.6309  0.4412
32052SOL    HW2  613   1.863   0.926   0.062 -0.1768  1.3701  1.1028
32053SOL     OW  614   5.535   3.266   4.135 -0.0935 -0.2620  0.0501
32053SOL    HW1  615   5.611   3.290   4.081  0.0518 -0.6656  0.0717
32053SOL    HW2  616   5.473   3.338   4.121  1.0230  1.0637  1.5372
32054SOL     OW  617   4.178  10.815   1.649 -0.1271 -0.2771  0.1591
32054SOL    HW1  618   4.098  10.849   1.689  0.3510  1.2563 -0.1328
32054SOL    HW2  619   4.201  10.879   1.582  2.3089  0.2584  1.4169
32055SOL     OW  620   1.934   7.545   2.216 -0.8150  0.5344 -0.5337
32055SOL    HW1  621   1.884   7.605   2.161  0.2677 -0.5609 -2.8171
32055SOL    HW2  622   1.955   7.471   2.159 -1.1145 -1.5155  1.8496
32056SOL     OW  623   6.672  10.671   0.260  0.1601  0.2381  0.2207
32056SOL    HW1  624   6.596  10.613   0.264  1.2771 -1.3004 -0.2749
32056SOL    HW2  625   6.664  10.715   0.175  0.9622 -1.5982 -0.8641
32057SOL     OW  626   8.721   9.756   4.106  0.7489  0.1047 -0.5818
32057SOL    HW1  627   8.777   9.832   4.094 -1.1402  1.6329 -0.2610
32057SOL    HW2  628   8.750   9.717   4.188  1.1791  1.0271 -0.2829
32058SOL     OW  629   0.950   3.945   2.151 -0.1406 -0.5658 -0.0553
32058SOL    HW1  630   0.858   3.921   2.140 -0.3233  0.2702 -0.4093
32058SOL    HW2  631   0.970   4.001   2.077 -0.0554  1.3173  1.3274
32059SOL     OW  632  10.620   4.900   5.838 -0.3793 -0.4785  0.1115
32059SOL    HW1  633  10.686   4.894   5.907 -1.0331 -0.3317  0.7583
32059SOL    HW2  634  10.651   4.970   5.781  0.0083 -0.3931  0.4236
32060SOL     OW  635   5.924  11.061   8.924  0.5291  0.1850 -0.0146
32060SOL    HW1  636   5.895  11.058   8.832 -1.0124  2.5443  0.3211
32060SOL    HW2  637   5.867  10.999   8.969  0.7918 -0.4219 -0.4902
32061SOL     OW  638   1.066   0.495   5.802  0.3326 -0.7495 -0.3406
32061SOL    HW1  639   1.045   0.445   5.881  2.1492 -0.6635  0.2307
32061SOL    HW2  640   1.155   0.469   5.780  0.4037  0.3748 -1.4950
32062SOL     OW  641   6.621   6.600   1.032 -0.4231 -0.0615 -0.1703
32062SOL    HW1  642   6.618   6.628   1.124 -0.0765  0.4853 -0.3187
32062SOL    HW2  643   6.710   6.618   1.005 -0.3742 -0.7388 -0.4648
32063SOL     OW  644   4.459   0.136   4.047  0.0426 -0.3947 -0.3951
32063SOL    HW1  645   4.380   0.154   3.995  1.0460  1.1361 -1.4928
32063SOL    HW2  646   4.480   0.220   4.088  0.5989 -1.0115  0.5951
32064SOL     OW  647   8.130   9.678   7.158  0.4291  0.0221  0.8158
32064SOL    HW1  648   8.192   9.620   7.113  0.4693 -0.9624  2.1063
32064SOL    HW2  649   8.107   9.743   7.092  3.7513  1.1579  0.5937
32065SOL     OW  650   0.235  10.600   9.873 -0.3295 -0.8204  0.1980
32065SOL    HW1  651   0.233  10.662   9.801  3.2796 -1.1289 -0.3296
32065SOL    HW2  652   0.156  10.547   9.861 -1.1147  0.7185 -2.0169
32066SOL     OW  653   5.400   4.945   7.021  0.7242 -0.5682  0.0064
32066SOL    HW1  654   5.389   4.868   6.966 -4.1441 -0.3749  0.2003
32066SOL    HW2  655   5.371   4.917   7.108  3.9264  0.2875  1.4922
32067SOL     OW  656   8.089   0.289  10.946 -0.1281  0.9019 -0.5980
32067SOL    HW1  657   8.083   0.313  11.038 -0.5915 -0.0202 -0.3727
32067SOL    HW2  658   8.183   0.278  10.930 -0.0905  0.4429 -0.0670
32068SOL     OW  659   6.089   7.953   6.757 -0.0458 -0.6036  0.0235
32068SOL    HW1  660   6.066   7.862   6.738 -0.3045 -0.0471 -2.7249
32068SOL    HW2  661   6.157   7.975   6.694 -0.3299  1.2624  0.2931
32069SOL     OW  662   3.670   3.679   7.351  0.2187  0.1005  0.2312
32069SOL    HW1  663   3.702   3.665   7.262 -1.3403 -1.8817 -0.0994
32069SOL    HW2  664   3.750   3.690   7.404  1.2011  0.3489 -1.2447
32070SOL     OW  665   4.998   6.290   8.345  0.2365  0.3655  0.3640
32070SOL    HW1  666   5.085   6.293   8.305  0.2340  1.9242  0.4007
32070SOL    HW2  667   4.960   6.376   8.325 -1.6916 -0.6250 -0.5050
32071SOL     OW  668   9.554   0.438   0.795  0.6531  0.3867 -0.0023
32071SOL    HW1  669   9.572   0.525   0.832  1.4706  0.7272 -1.1520
32071SOL    HW2  670   9.459   0.435   0.789  0.6292  1.5374 -0.6622
32072SOL     OW  671   3.087   0.505   2.000 -0.1830 -0.2352  0.1334
32072SOL    HW1  672   2.994   0.527   1.996 -0.4686 -1.2898  0.3999
32072SOL    HW2  673   3.107   0.472   1.912  0.4823  1.8830 -0.5625
32073SOL     OW  674   7.964   2.373   2.650  0.5414  0.3498  0.2203
32073SOL    HW1  675   7.989   2.342   2.737  3.5698 -0.1295 -0.7060
32073SOL    HW2  676   7.997   2.306   2.591 -0.4557  1.2247 -1.3857
32074SOL     OW  677   4.607   1.754   7.043  0.0390 -0.9380 -0.4525
32074SOL    HW1  678   4.553   1.830   7.021  2.9945  1.6177  0.3399
32074SOL    HW2  679   4.666   1.786   7.111  1.0448 -4.1989  0.3893
32075SOL     OW  680   0.189   4.958   0.692 -0.2571  0.1117 -0.0154
32075SOL    HW1  681   0.129   4.958   0.618  0.7544  0.3694 -0.8585
32075SOL    HW2  682   0.182   4.870   0.728  0.3247 -0.4999 -1.3362
32076SOL     OW  683  10.628   3.801   6.269  0.5141 -0.3174 -0.5151
32076SOL    HW1  684  10.716   3.770   6.247 -0.1057 -2.1573 -0.5551
32076SOL    HW2  685  10.572   3.761   6.203 -0.3981  0.6876 -0.3720
32077SOL     OW  686   3.983   6.345   4.260  0.5147 -0.3021  0.4258
32077SOL    HW1  687   3.937   6.282   4.204  0.3900  2.2659 -2.6261
32077SOL    HW2  688   3.922   6.361   4.332 -1.9249  0.2999 -1.6001
32078SOL     OW  689   3.047   0.579   6.206  0.1269  0.1334 -0.1503
32078SOL    HW1  690   3.054   0.613   6.117 -1.7784 -0.0681 -0.4298
32078SOL    HW2  691   2.996   0.646   6.253 -0.7982 -0.7668  0.1685
32079SOL     OW  692   3.180   7.707   9.025  0.2225  0.4241  0.1869
32079SOL    HW1  693   3.245   7.663   9.081  2.2534  0.8697 -1.6687
32079SOL    HW2  694   3.198   7.673   8.937 -2.0159  0.6876 -0.4168
32080SOL     OW  695   4.685   5.109   6.593 -0.2390 -0.4248  0.2977
32080SOL    HW1  696   4.610   5.129   6.650  0.2232  2.6574 -0.0156
32080SOL    HW2  697   4.753   5.171   6.620  1.1083 -1.0399 -1.5211
32081SOL     OW  698   1.506   4.175   1.544 -0.4541 -0.0114 -0.2382
32081SOL    HW1  699   1.432   4.186   1.484  0.5969  1.0226 -1.4188
32081SOL    HW2  700   1.512   4.081   1.558 -0.8518 -0.2663 -1.6290
32082SOL     OW  701   9.414   2.271   4.365 -0.3068 -0.4360 -0.0589
32082SOL    HW1  702   9.451   2.296   4.281  3.3730 -2.3994  0.7831
32082SOL    HW2  703   9.321   2.257   4.347  0.1880 -0.0373 -3.5777
32083SOL     OW  704   2.752   1.187   0.488  0.2735 -0.3503 -0.9608
32083SOL    HW1  705   2.727   1.199   0.580  0.2029 -1.0928 -0.8737
32083SOL    HW2  706   2.824   1.249   0.475 -1.4428  1.7285 -1.1770
32084SOL     OW  707   2.424   9.913   6.943  0.3491  0.3567 -0.2582
32084SOL    HW1  708   2.471   9.882   6.866  0.2744  2.6817 -1.3229
32084SOL    HW2  709   2.361   9.977   6.909 -2.6011 -1.5298  1.2791
32085SOL     OW  710   9.119   1.368   8.300  0.1461 -0.0618  0.3638
32085SOL    HW1  711   9.140   1.321   8.219  0.8614 -0.9218  1.0244
32085SOL    HW2  712   9.037   1.329   8.330 -0.4615  0.7012 -0.2624
32086SOL     OW  713   5.345   6.725   8.086 -0.0761 -0.1147 -0.0495
32086SOL    HW1  714   5.437   6.705   8.100 -0.0122 -0.4494 -0.9075
32086SOL    HW2  715   5.343   6.777   8.005 -0.6282 -0.0484  0.0006
32087SOL     OW  716   0.572   3.439   4.061 -0.0809 -0.0411 -0.6707
32087SOL    HW1  717   0.639   3.396   4.009  1.1474 -0.2398  0.9907
32087SOL    HW2  718   0.537   3.369   4.117 -0.0396  0.5352  0.0842
32088SOL     OW  719   6.424   9.235   0.946 -0.5483  0.3131 -0.7059
32088SOL    HW1  720   6.434   9.323   0.910 -0.1553  0.5037 -0.1503
32088SOL    HW2  721   6.491   9.229   1.014 -2.5103  0.6828  1.3734
32089SOL     OW  722   0.991   8.047  10.311 -0.3263 -0.2667  0.3479
32089SOL    HW1  723   0.981   8.134  10.272  0.0454 -0.1819  0.4297
32089SOL    HW2  724   0.964   7.986  10.243 -0.7670 -0.0806  0.3532
32090SOL     OW  725  10.696  10.870   2.399  0.0337 -0.0133  0.5126
32090SOL    HW1  726  10.721  10.793   2.348 -1.6287 -0.7578  0.7489
32090SOL    HW2  727  10.601  10.861   2.410  0.0379  1.2838  1.8443
32091SOL     OW  728   6.825  10.979   8.121  0.2440 -0.1110  0.0847
32091SOL    HW1  729   6.836  10.911   8.188 -0.6323  0.0213  0.3643
32091SOL    HW2  730   6.737  10.965   8.087  1.1833 -1.1661 -2.1534
32092SOL     OW  731   2.181   6.098   1.171 -0.2781  0.3211 -0.3986
32092SOL    HW1  732   2.111   6.162   1.160 -1.0360 -0.2993  0.6012
32092SOL    HW2  733   2.262   6.148   1.164 -0.8506  1.3996  0.4535
32093SOL     OW  734   8.293   3.502   5.104  0.2201 -0.0855  0.1355
32093SOL    HW1  735   8.348   3.479   5.029 -1.1755 -0.2958 -0.8615
32093SOL    HW2  736   8.268   3.417   5.142  0.6104  0.0109  0.6214
32094SOL     OW  737   7.225   9.757   5.655 -0.1771 -0.8083  0.4037
32094SOL    HW1  738   7.147   9.811   5.642  0.4785 -0.1528 -0.9726
32094SOL    HW2  739   7.264   9.789   5.736  0.1821  0.7744 -0.3718
32095SOL     OW  740   2.735   3.404  10.669 -0.2690 -0.5577  0.3021
32095SOL    HW1  741   2.698   3.349  10.738 -1.8605 -1.0369 -0.8559
32095SOL    HW2  742   2.830   3.399  10.681 -0.4909 -1.3295  1.8894
32096SOL     OW  743   2.598   7.948   6.104 -0.2785  0.2048 -0.3197
32096SOL    HW1  744   2.659   8.021   6.097 -1.2414  1.0250 -0.3701
32096SOL    HW2  745   2.516   7.982   6.070 -1.1243 -0.4559  0.9850
32097SOL     OW  746  10.274   5.691   0.796 -0.3533 -0.2258  0.1910
32097SOL    HW1  747  10.286   5.761   0.731 -0.8761 -1.1688 -0.9565
32097SOL    HW2  748  10.341   5.626   0.774  2.0747  1.0715  3.0111
32098SOL     OW  749   5.384   4.790   0.038  0.1292  0.0347 -0.3981
32098SOL    HW1  750   5.332   4.851  -0.014 -2.3613 -0.7390  1.0036
32098SOL    HW2  751   5.362   4.703   0.005 -1.6079 -0.4878  1.8626
32099SOL     OW  752   8.774   1.461  10.432 -0.1284 -0.1713  0.3521
32099SOL    HW1  753   8.773   1.391  10.367  1.0485 -0.5486  0.7108
32099SOL    HW2  754   8.698   1.444  10.488 -0.7470 -0.2453 -0.4929
32100SOL     OW  755   7.734   4.971   5.670  0.3215 -0.2106  0.5718
32100SOL    HW1  756   7.735   4.879   5.643 -0.0443 -0.4930  1.5153
32100SOL    HW2  757   7.820   4.984   5.711 -0.1939 -0.5467  1.7883
32101SOL     OW  758   0.441   0.786  10.423  0.2090  0.1395  0.1189
32101SOL    HW1  759   0.510   0.772  10.489  1.5469 -0.2534 -1.3100
32101SOL    HW2  760   0.458   0.873  10.389 -1.0462  0.7173  0.8793
32102SOL     OW  761   1.986   2.341   3.148 -0.0088 -0.2619 -0.3904
32102SOL    HW1  762   1.980   2.259   3.098  0.3979 -0.8117  0.4486
32102SOL    HW2  763   1.902   2.384   3.133 -0.1925 -0.7858 -0.9205
32103SOL     OW  764   4.356   5.946   4.296  0.2115 -0.4973  0.5731
32103SOL    HW1  765   4.374   5.858   4.261  1.9785 -0.3411  0.9583
32103SOL    HW2  766   4.298   5.930   4.371 -0.0800 -1.2625  0.2005
32104SOL     OW  767   4.405   8.010   5.948 -0.1422  0.0941 -0.0027
32104SOL    HW1  768   4.324   8.009   6.000 -0.0635 -0.3122  0.1119
32104SOL    HW2  769   4.384   7.957   5.871  0.4385 -1.1452  0.6710
32105SOL     OW  770   1.774   6.232   0.673 -0.1752  0.0522  0.2211
32105SOL    HW1  771   1.785   6.244   0.578 -2.9696  0.7429 -0.1157
32105SOL    HW2  772   1.784   6.137   0.686 -3.5337 -0.7091 -1.5189
32106SOL     OW  773   2.367   4.290   1.856 -0.2437  0.0936 -0.4106
32106SOL    HW1  774   2.393   4.279   1.948 -1.9514 -0.2408  0.0870
32106SOL    HW2  775   2.326   4.377   1.854 -1.1120 -0.3073 -0.6019
32107SOL     OW  776   9.974   4.624  10.389 -0.1053 -0.2900 -0.0664
32107SOL    HW1  777   9.936   4.697  10.340  1.7368  0.0770 -1.0164
32107SOL    HW2  778   9.908   4.555  10.382 -1.3240  0.8492 -0.2272
32108SOL     OW  779   1.942   8.225   7.653 -0.4673  0.3970  0.8483
32108SOL    HW1  780   1.862   8.260   7.691 -0.0181  1.6701  0.6586
32108SOL    HW2  781   1.966   8.152   7.710 -1.6996  0.0542  0.9585
32109SOL     OW  782   3.678   0.306   3.862 -0.1815  0.1116 -0.4933
32109SOL    HW1  783   3.721   0.274   3.942  2.8401  0.7280 -1.7258
32109SOL    HW2  784   3.646   0.393   3.884  1.5192  0.6898 -0.1560
32110SOL     OW  785   9.524   3.884   8.693 -0.0138  0.8398 -0.0898
32110SOL    HW1  786   9.562   3.922   8.773 -0.2068  1.6993 -0.3912
32110SOL    HW2  787   9.486   3.801   8.721  0.4286  0.8643  0.5985
32111SOL     OW  788   6.894   0.204   1.886  0.5443  0.2897 -0.0132
32111SOL    HW1  789   6.989   0.206   1.891  0.5570 -0.2486 -0.0153
32111SOL    HW2  790   6.869   0.296   1.878  1.0091  0.5140  0.8994
32112SOL     OW  791   0.107   0.170   1.811  0.2819 -0.0813  0.4318
32112SOL    HW1  792   0.035   0.180   1.873  0.0902  0.3443  0.1437
32112SOL    HW2  793   0.142   0.258   1.801  1.0287 -0.3327  0.7864
32113SOL     OW  794   1.046   7.944   8.717  0.7603  0.2484  0.0419
32113SOL    HW1  795   0.973   8.006   8.729  1.4419  1.6018 -2.1796
32113SOL    HW2  796   1.031   7.876   8.783 -0.9343  1.9393  1.5253
32114SOL     OW  797   4.090   4.939   3.245  0.4081  0.0398 -0.3830
32114SOL    HW1  798   4.124   4.853   3.268  0.7382  0.0939 -0.6642
32114SOL    HW2  799   4.115   4.951   3.153  1.1415  0.8002 -0.1010
32115SOL     OW  800   7.579   6.453   2.982 -0.0208 -0.0593  0.2115
32115SOL    HW1  801   7.552   6.451   3.073 -1.9143 -0.0851 -0.3133
32115SOL    HW2  802   7.498   6.470   2.933  1.0833  0.8132 -1.4030
32116SOL     OW  803  10.582   4.210   7.289  0.1924 -0.0429  0.1632
32116SOL    HW1  804  10.609   4.194   7.199  0.4420 -2.1663  0.5725
32116SOL    HW2  805  10.658   4.184   7.342 -0.3766  0.0333  1.0459
32117SOL     OW  806   7.252   7.654   4.030 -0.5430 -0.3565  0.8553
32117SOL    HW1  807   7.310   7.603   3.974 -0.0291  0.5268  0.5680
32117SOL    HW2  808   7.212   7.719   3.972 -2.4868 -1.4599  0.8647
32118SOL     OW  809   2.520  10.691   5.426 -0.2189 -0.0881 -0.2027
32118SOL    HW1  810   2.448  10.749   5.402 -0.4200 -0.6676 -1.0069
32118SOL    HW2  811   2.491  10.603   5.401 -0.6289 -0.8408  2.5194
32119SOL     OW  812   6.752   7.156   9.798  0.0950 -0.4178  0.0131
32119SOL    HW1  813   6.758   7.140   9.703 -0.6893 -0.5008 -0.0226
32119SOL    HW2  814   6.696   7.086   9.831  1.2167 -1.0204  0.7154
32120SOL     OW  815   6.436   7.893   1.291  0.4227 -0.6135  0.3682
32120SOL    HW1  816   6.366   7.925   1.234  0.4180 -1.7250 -0.2704
32120SOL    HW2  817   6.392   7.831   1.349  0.6255 -0.2375  0.9372
32121SOL     OW  818   1.264   1.898   3.617  0.3156  0.4396  0.2249
32121SOL    HW1  819   1.308   1.964   3.669 -0.1899  0.3091  0.8260
32121SOL    HW2  820   1.335   1.847   3.578  0.7023  0.2065  1.2070
32122SOL     OW  821   1.229   1.568   7.907  0.0441 -0.7409  0.5322
32122SOL    HW1  822   1.315   1.581   7.945 -0.0769 -1.7216  1.1587
32122SOL    HW2  823   1.224   1.475   7.889 -0.3483 -0.4766 -0.8381
32123SOL     OW  824  10.542  10.102   0.394  0.4525 -0.1130 -0.8935
32123SOL    HW1  825  10.452  10.125   0.417  0.5989 -0.6992  0.3437
32123SOL    HW2  826  10.542  10.007   0.387  0.7995 -0.0613 -1.7436
32124SOL     OW  827   0.946   3.654   7.704 -0.5308  0.0545  0.2462
32124SOL    HW1  828   1.001   3.732   7.706  0.2503 -0.4870  0.1818
32124SOL    HW2  829   0.985   3.595   7.768  0.8800 -1.5730 -1.9555
32125SOL     OW  830   7.500   0.030   5.840 -0.3874  0.0710 -0.3704
32125SOL    HW1  831   7.472   0.070   5.757 -3.1576  1.3358  1.0324
32125SOL    HW2  832   7.468  -0.061   5.833 -1.0333  0.3004 -0.5312
32126SOL     OW  833   3.470   5.212   0.157  0.0602 -0.2739  0.3194
32126SOL    HW1  834   3.452   5.154   0.082 -1.7266  0.6363 -0.0306
32126SOL    HW2  835   3.462   5.156   0.233 -3.2474 -0.3195  0.0961
32127SOL     OW  836   7.352   9.838   1.459  0.0900 -0.1688 -0.2743
32127SOL    HW1  837   7.305   9.852   1.542 -0.4962 -0.6899 -0.5020
32127SOL    HW2  838   7.442   9.820   1.485  1.1011  4.2372  0.0461
32128SOL     OW  839   7.751   6.141   9.942  0.4903  0.3143 -0.4054
32128SOL    HW1  840   7.819   6.091   9.987 -0.4452 -1.2149 -0.6320
32128SOL    HW2  841   7.752   6.109   9.852 -0.5044  0.2883 -0.4202
32129SOL     OW  842   6.450   5.555   4.672 -0.4662  0.8209 -0.7259
32129SOL    HW1  843   6.368   5.506   4.678 -1.2438  2.1741  0.2008
32129SOL    HW2  844   6.450   5.590   4.583  0.0660 -0.7495 -1.3752
32130SOL     OW  845   1.875   9.140   2.852 -0.1413  0.8797  0.4424
32130SOL    HW1  846   1.908   9.125   2.941  0.5739 -0.5212 -0.0245
32130SOL    HW2  847   1.830   9.224   2.857 -0.0898  0.8448  2.1207
32131SOL     OW  848   9.364   2.476   1.791  0.1149 -0.0569  0.1937
32131SOL    HW1  849   9.400   2.494   1.704 -1.2782 -0.5453 -0.5054
32131SOL    HW2  850   9.289   2.419   1.775 -0.1963 -0.1141  1.7181
32132SOL     OW  851   6.986   2.865  10.695  0.0738 -0.0453 -0.5924
32132SOL    HW1  852   7.035   2.849  10.776  0.9119  0.5578 -0.9640
32132SOL    HW2  853   7.054   2.880  10.629 -0.5896 -0.5977 -1.4320
32133SOL     OW  854   1.141  10.894   8.268  0.2031  0.1194 -0.2701
32133SOL    HW1  855   1.056  10.851   8.273 -0.0599  0.6675  0.0788
32133SOL    HW2  856   1.171  10.879   8.179 -0.2757 -0.0525 -0.4029
32134SOL     OW  857   5.219   7.758   8.383  0.4415 -0.7456 -0.1650
32134SOL    HW1  858   5.256   7.831   8.335 -0.6483  0.1518  0.3086
32134SOL    HW2  859   5.161   7.714   8.320 -2.0142  1.2029  0.5711
32135SOL     OW  860   8.378   8.217   1.614  0.5402 -0.1794  0.3086
32135SOL    HW1  861   8.402   8.174   1.532  0.2950 -0.3290  0.3130
32135SOL    HW2  862   8.450   8.277   1.632 -0.4864  1.6533 -1.2824
32136SOL     OW  863   3.539   3.293   3.869 -0.1860 -0.4493 -0.2250
32136SOL    HW1  864   3.604   3.363   3.876 -0.1071 -0.6806  1.8671
32136SOL    HW2  865   3.472   3.329   3.810 -0.7739  1.9289  1.7374
32137SOL     OW  866   8.684   0.775   4.761  0.1820  0.0855  0.1878
32137SOL    HW1  867   8.700   0.770   4.855  0.0204 -0.1941  0.2004
32137SOL    HW2  868   8.649   0.689   4.738  2.5477 -0.7631 -0.5567
32138SOL     OW  869   3.458  10.975   0.448 -0.0114 -0.5245 -0.3632
32138SOL    HW1  870   3.406  10.985   0.368 -0.5933  2.5306  0.2807
32138SOL    HW2  871   3.489  11.064   0.468  2.0703 -1.5758  1.5428
32139SOL     OW  872  10.037   3.428   7.323  0.4020  0.7893  0.1456
32139SOL    HW1  873  10.029   3.349   7.270 -0.2358  0.9141  0.0466
32139SOL    HW2  874  10.045   3.396   7.413 -1.1534  0.6232  0.2525
32140SOL     OW  875   0.724  10.720   8.942  0.4440  0.8083  0.2553
32140SOL    HW1  876   0.778  10.796   8.921 -0.4326  0.7563 -2.6915
32140SOL    HW2  877   0.762  10.648   8.891  1.2259 -0.8409  2.9233
32141SOL     OW  878  11.007   4.533   5.161  0.0862 -0.1326 -0.5156
32141SOL    HW1  879  10.968   4.611   5.202 -1.7662 -0.8279 -0.8626
32141SOL    HW2  880  11.097   4.531   5.194 -0.9863 -0.1300  2.7702
32142SOL     OW  881   2.346   8.747   0.057 -0.1210  0.1148  0.2399
32142SOL    HW1  882   2.369   8.655   0.052  0.2144  0.1636  0.8738
32142SOL    HW2  883   2.281   8.752   0.127 -0.0845  0.3733  0.2570
32143SOL     OW  884   4.895   3.917   3.830 -0.4525 -0.0116  0.7061
32143SOL    HW1  885   4.902   4.010   3.807 -1.9151 -0.3232 -1.2564
32143SOL    HW2  886   4.981   3.881   3.809 -0.1049  0.7715  0.7569
32144SOL     OW  887   2.290   6.834   8.844 -0.4247 -0.3155 -0.3762
32144SOL    HW1  888   2.328   6.799   8.764  0.2474 -0.3962 -0.0212
32144SOL    HW2  889   2.364   6.859   8.898 -0.8395 -1.2564  0.6736
32145SOL     OW  890   3.461   0.854   2.393 -0.0894  0.3483 -0.8706
32145SOL    HW1  891   3.450   0.930   2.336 -1.2599  1.8270  1.2197
32145SOL    HW2  892   3.446   0.887   2.481 -2.5886 -2.6642  0.0239
32146SOL     OW  893   2.013   5.227   3.108 -0.5948  0.0130  0.5024
32146SOL    HW1  894   2.098   5.223   3.064 -0.2855  1.7905  0.8657
32146SOL    HW2  895   2.030   5.195   3.196 -0.4868 -0.3783  0.3428
32147SOL     OW  896   4.319   7.438   3.071 -0.0932  0.0638 -0.4439
32147SOL    HW1  897   4.392   7.476   3.119  0.2356 -0.0500 -0.8551
32147SOL    HW2  898   4.354   7.358   3.032 -0.9973 -1.1235  1.0921
32148SOL     OW  899   5.789   0.174   2.238 -0.0596 -0.2296 -0.5042
32148SOL    HW1  900   5.765   0.173   2.331 -1.5252  0.8882 -0.8238
32148SOL    HW2  901   5.829   0.089   2.223 -0.1680 -0.5953  1.0647
32149SOL     OW  902   2.713   7.318  10.509 -0.9550  0.5596  0.1137
32149SOL    HW1  903   2.655   7.394  10.509 -1.4532  0.1889 -0.5328
32149SOL    HW2  904   2.797   7.352  10.479 -0.9961  0.9812  0.4636
32150SOL     OW  905   6.411   5.144   9.979 -0.3667  0.8568 -0.0980
32150SOL    HW1  906   6.480   5.078   9.982 -0.1014  1.1351  0.0468
32150SOL    HW2  907   6.365   5.127   9.897  0.5044  1.2961 -0.6955
32151SOL     OW  908   9.994   9.646   0.707 -0.1968 -0.2574  0.3799
32151SOL    HW1  909  10.044   9.582   0.656 -0.6940 -0.7107  0.4471
32151SOL    HW2  910   9.911   9.602   0.724 -0.8835  0.7461 -0.3153
32152SOL     OW  911   8.401   9.450   3.811 -0.4099  0.1305  0.8634
32152SOL    HW1  912   8.327   9.480   3.863 -0.3064  2.3626 -0.1828
32152SOL    HW2  913   8.477   9.496   3.847  0.1551 -0.5645  0.6017
32153SOL     OW  914   9.097   3.698   4.184 -0.3833 -0.0128  0.2831
32153SOL    HW1  915   9.107   3.725   4.276 -0.5270  0.3293  0.2021
32153SOL    HW2  916   9.157   3.624   4.174  1.4756  1.4417  0.0305
32154SOL     OW  917   8.230   2.694   8.110 -0.6392 -0.2018  0.1737
32154SOL    HW1  918   8.255   2.778   8.148 -1.1668  0.0659 -0.0500
32154SOL    HW2  919   8.249   2.704   8.017 -1.0266 -0.2033  0.0935
32155SOL     OW  920   5.182   7.237   3.093 -0.6952 -0.1593 -0.7516
32155SOL    HW1  921   5.171   7.168   3.029  0.2570 -0.3429 -0.7377
32155SOL    HW2  922   5.277   7.250   3.098 -0.7785  0.1417  0.3040
32156SOL     OW  923   3.490   1.817   4.533  0.2270  0.2939  0.3147
32156SOL    HW1  924   3.431   1.837   4.606 -1.5731  1.0632 -1.2764
32156SOL    HW2  925   3.462   1.875   4.463  2.7837  0.5294 -0.6114
32157SOL     OW  926   2.140   9.858   5.769  0.1299 -0.1453  0.1653
32157SOL    HW1  927   2.111   9.868   5.679 -1.7916 -0.4931  0.6954
32157SOL    HW2  928   2.106   9.772   5.796 -0.1058  0.3408  1.4886
32158SOL     OW  929   1.281   1.853   5.056  0.3329  0.4262  0.1902
32158SOL    HW1  930   1.252   1.784   4.997  2.5261  2.3408 -3.4962
32158SOL    HW2  931   1.213   1.857   5.123 -0.8799 -3.8903 -0.4304
32159SOL     OW  932   5.156   0.384   5.976 -0.1539  0.0585 -0.3306
32159SOL    HW1  933   5.075   0.413   5.935 -0.5733 -0.4598  0.1117
32159SOL    HW2  934   5.196   0.326   5.912 -0.6242 -0.4559 -0.1680
32160SOL     OW  935   7.995   6.423   0.284 -0.1117 -0.4327 -0.3602
32160SOL    HW1  936   7.934   6.406   0.357  0.1961  1.1679  0.3236
32160SOL    HW2  937   7.945   6.404   0.205 -0.5805 -1.8389  0.2532
32161SOL     OW  938   9.516   0.885   5.587  0.0897  0.2580  0.3695
32161SOL    HW1  939   9.526   0.942   5.663  1.7928  1.4017 -0.6522
32161SOL    HW2  940   9.510   0.945   5.512 -0.8496 -0.8475 -0.4972
32162SOL     OW  941   8.421   5.349   6.830  0.0433 -0.0640  0.1428
32162SOL    HW1  942   8.329   5.376   6.832 -0.6004 -1.8127 -2.2084
32162SOL    HW2  943   8.422   5.264   6.874  0.4670 -0.2428 -0.2119
32163SOL     OW  944   8.336   7.957   4.865  0.2767  0.6892 -0.2564
32163SOL    HW1  945   8.430   7.945   4.858  0.2333 -0.8249  1.1048
32163SOL    HW2  946   8.324   8.015   4.940  0.0954 -1.8108  1.7800
32164SOL     OW  947  11.006   9.657   7.667 -0.4902  0.2011  0.1598
32164SOL    HW1  948  11.046   9.641   7.581 -1.8137 -0.0038 -0.4496
32164SOL    HW2  949  11.071   9.709   7.714 -0.3032  1.6131 -1.5209
32165SOL     OW  950   8.664   0.565   4.164  0.1340 -0.0078  0.3104
32165SOL    HW1  951   8.708   0.651   4.169  2.0607 -0.9583  0.7043
32165SOL    HW2  952   8.580   0.584   4.122  0.4242  2.0995  0.5389
32166SOL     OW  953   5.122   3.799   3.709  0.0839  0.3569  0.1405
32166SOL    HW1  954   5.204   3.842   3.687 -0.0224  2.3940  3.1683
32166SOL    HW2  955   5.147   3.730   3.772 -0.4884  1.2925  1.4454
32167SOL     OW  956   8.477   2.892   0.703 -0.0494 -0.7409  0.1573
32167SOL    HW1  957   8.481   2.926   0.792  0.4238 -3.1059  1.1115
32167SOL    HW2  958   8.384   2.889   0.682 -0.1358  0.3749  0.2902
32168SOL     OW  959   5.441   2.664   1.762 -0.0351 -0.3552  0.9617
32168SOL    HW1  960   5.506   2.595   1.770 -0.5981 -0.6850  4.5590
32168SOL    HW2  961   5.463   2.726   1.831 -1.4401  1.4144 -0.0693
32169SOL     OW  962   1.643   2.784  10.266  0.1679  0.3137 -0.0579
32169SOL    HW1  963   1.697   2.785  10.345  0.0456  1.7033  0.0318
32169SOL    HW2  964   1.556   2.760  10.297  0.1408  0.7695  0.2304
32170SOL     OW  965   5.560   5.567   6.540 -0.0988  0.3335 -1.2281
32170SOL    HW1  966   5.635   5.615   6.575  0.4918 -1.2191 -0.2664
32170SOL    HW2  967   5.526   5.624   6.471  0.3692  2.2573  0.0443
32171SOL     OW  968   6.442   6.341   8.771  0.1255  0.0730 -0.3381
32171SOL    HW1  969   6.371   6.406   8.779  0.3944  0.5906 -1.8137
32171SOL    HW2  970   6.498   6.376   8.702  1.2356 -0.8893  0.0469
32172SOL     OW  971   3.678   7.396   8.971  0.2543  0.1716 -0.1011
32172SOL    HW1  972   3.682   7.351   9.056  0.9552 -0.2911 -0.3642
32172SOL    HW2  973   3.672   7.489   8.994  1.2299  0.1141  0.4756
32173SOL     OW  974   4.394   3.970   3.301 -0.1475  0.2777  0.3171
32173SOL    HW1  975   4.449   4.043   3.271  0.6404  0.0029  1.0187
32173SOL    HW2  976   4.346   3.942   3.224  0.3448  0.8509 -0.2093
32174SOL     OW  977  10.460   1.398   8.462  0.1392 -0.3193  0.1496
32174SOL    HW1  978  10.547   1.381   8.426  0.9621  0.0686  1.8330
32174SOL    HW2  979  10.400   1.379   8.390  1.6393 -0.0640 -1.2266
32175SOL     OW  980   6.717  10.035   5.299  0.3910  0.4633  0.1513
32175SOL    HW1  981   6.696  10.036   5.205 -0.6929 -0.6767  0.3580
32175SOL    HW2  982   6.799  10.085   5.305 -0.1169  1.5593 -1.2391
32176SOL     OW  983   4.425  10.256   5.035  0.1467  0.2260 -0.0587
32176SOL    HW1  984   4.353  10.273   4.974 -0.7615 -0.2375  0.8602
32176SOL    HW2  985   4.427  10.161   5.044  0.5295  0.2653  0.3225
32177SOL     OW  986   5.617   8.803   8.359 -0.0888 -0.1040  0.1403
32177SOL    HW1  987   5.578   8.748   8.427  0.9020 -1.2756 -0.2031
32177SOL    HW2  988   5.548   8.865   8.335 -1.2627 -1.2521  0.4714
32178SOL     OW  989   1.557   3.933   5.163 -0.1149  0.6558 -0.0021
32178SOL    HW1  990   1.591   3.909   5.077 -0.6966 -0.2478  0.0021
32178SOL    HW2  991   1.630   3.975   5.208  1.1340 -1.5005  0.1191
32179SOL     OW  992   7.373   1.420   3.575  0.6492  0.0408 -0.3504
32179SOL    HW1  993   7.420   1.470   3.642 -0.2301  0.5169 -0.0690
32179SOL    HW2  994   7.410   1.333   3.579 -0.5797 -0.4421  2.0165
32180SOL     OW  995   4.780  10.205   5.271  0.0693 -0.1930  0.2745
32180SOL    HW1  996   4.834  10.137   5.313  1.2718  0.3154 -0.3909
32180SOL    HW2  997   4.842  10.274   5.249 -1.0638  0.9334  0.5052
32181SOL     OW  998   9.759   0.750   3.337 -0.0189  0.5340 -0.1561
32181SOL    HW1  999   9.757   0.723   3.429  0.0275  1.8090  0.2388
32181SOL    HW2 1000   9.758   0.846   3.340 -0.5481  0.5961 -1.4994
32182SOL     OW 1001  10.464   2.731   3.904 -0.2708  0.2270  0.1109
32182SOL    HW1 1002  10.441   2.719   3.996 -0.3574 -0.4540  0.0037
32182SOL    HW2 1003  10.420   2.660   3.859  0.5496 -0.0130 -0.3320
32183SOL     OW 1004   3.830   9.033   0.399 -0.0916 -0.0611  0.5290
32183SOL    HW1 1005   3.821   8.938   0.400 -2.1305  0.0698 -0.1384
32183SOL    HW2 1006   3.906   9.050   0.343 -0.1307 -1.2769  0.0879
32184SOL     OW 1007   6.162   8.788   8.736  0.0102 -0.5853  0.1590
32184SOL    HW1 1008   6.093   8.847   8.704 -0.4374 -2.2268 -2.1084
32184SOL    HW2 1009   6.243   8.838   8.724 -0.5956  0.7161  1.2213
32185SOL     OW 1010   0.072  10.283   4.263 -0.2232  0.1771 -0.4091
32185SOL    HW1 1011   0.093  10.253   4.351 -1.0708  0.5107 -0.0923
32185SOL    HW2 1012   0.054  10.202   4.214 -0.8366  0.0639  0.0044
32186SOL     OW 1013   3.166   8.026   0.679 -1.1057 -0.0468 -0.2275
32186SOL    HW1 1014   3.103   7.956   0.664 -1.2840 -0.1236  0.8164
32186SOL    HW2 1015   3.159   8.046   0.772 -1.0077  1.3089 -0.4799
32187SOL     OW 1016   8.830   7.952   1.976 -0.5008 -0.4279  0.2211
32187SOL    HW1 1017   8.751   7.924   1.931 -1.8187 -1.2221  2.8066
32187SOL    HW2 1018   8.835   8.046   1.960 -2.1552 -0.3114  0.2545
32188SOL     OW 1019   9.909   8.920   2.415  0.4532 -0.2554 -0.0082
32188SOL    HW1 1020   9.927   8.990   2.478 -1.3620 -0.3611  0.6908
32188SOL    HW2 1021   9.834   8.873   2.452  0.9289 -1.9113 -1.0016
32189SOL     OW 1022  10.677   4.748   8.946 -0.0220 -0.5667  0.2721
32189SOL    HW1 1023  10.614   4.680   8.924 -1.1830  0.5513  0.0589
32189SOL    HW2 1024  10.649   4.781   9.032  1.2102 -1.1206  0.9166
32190SOL     OW 1025   5.075   2.937   4.700  0.3825 -0.3670  0.3371
32190SOL    HW1 1026   5.114   3.019   4.730 -3.6219  2.1686 -0.5103
32190SOL    HW2 1027   5.009   2.916   4.766 -1.0474 -0.8797 -1.1753
32191SOL     OW 1028   6.723   5.290   2.549 -0.2995  0.0987 -0.1340
32191SOL    HW1 1029   6.652   5.354   2.543  1.5119  2.5986  2.2019
32191SOL    HW2 1030   6.744   5.287   2.642  1.0187 -2.5262 -0.4248
32192SOL     OW 1031   5.626   7.132   5.980 -0.3796  0.8148 -0.1672
32192SOL    HW1 1032   5.623   7.039   5.959  1.3163  1.3159 -3.2129
32192SOL    HW2 1033   5.685   7.137   6.055  0.6196 -0.4867 -0.8185
32193SOL     OW 1034   6.743   0.366   8.781 -0.1500  0.1657  0.5588
32193SOL    HW1 1035   6.795   0.381   8.860  1.6625 -1.9359 -0.1317
32193SOL    HW2 1036   6.717   0.274   8.787 -1.0684  0.3160 -0.7033
32194SOL     OW 1037   4.219   9.652   9.310  0.2636 -0.4536 -0.4753
32194SOL    HW1 1038   4.130   9.625   9.292 -0.4970  0.0016  2.1269
32194SOL    HW2 1039   4.212   9.744   9.337  1.4502 -0.5272  0.1780
32195SOL     OW 1040   1.801  10.408   8.888 -0.6184 -0.2720  0.3447
32195SOL    HW1 1041   1.845  10.426   8.971  1.7502 -1.0499 -0.6481
32195SOL    HW2 1042   1.788  10.493   8.848  2.6724 -0.0799 -0.5611
32196SOL     OW 1043  10.131   1.144   4.320  0.2208  0.3498  0.4713
32196SOL    HW1 1044  10.155   1.163   4.229  0.0651 -1.8164 -0.0747
32196SOL    HW2 1045  10.170   1.216   4.371  1.6324  0.7934 -1.1393
32197SOL     OW 1046   4.982   0.228   1.441  0.3745  0.2332  0.1578
32197SOL    HW1 1047   4.920   0.157   1.462  0.0742  0.2586 -0.6394
32197SOL    HW2 1048   4.932   0.308   1.455  0.1934  0.2521 -0.5762
32198SOL     OW 1049   2.129   7.095   2.401 -0.3579 -0.6427 -0.3815
32198SOL    HW1 1050   2.112   7.011   2.443  0.5395 -1.0492 -0.8082
32198SOL    HW2 1051   2.201   7.078   2.340  0.3279  0.5840  0.0357
32199SOL     OW 1052   0.586   3.883   5.623 -0.1608  0.1436  0.0757
32199SOL    HW1 1053   0.611   3.870   5.715 -1.9457 -0.2075  0.5516
32199SOL    HW2 1054   0.525   3.957   5.625  0.3114  0.5795 -0.9349
32200SOL     OW 1055   4.214   8.326   1.375  0.0810  0.2072 -0.1591
32200SOL    HW1 1056   4.189   8.291   1.461  1.1855  3.0947  1.4821
32200SOL    HW2 1057   4.199   8.254   1.315 -1.6441 -1.6733  2.2950
32201SOL     OW 1058   6.528  11.001   7.958 -0.4800 -0.2970  0.2691
32201SOL    HW1 1059   6.581  11.070   7.918  0.2581 -0.1784  1.4030
32201SOL    HW2 1060   6.528  11.023   8.052 -2.6067 -0.2454  0.3030
32202SOL     OW 1061   0.107  10.621   2.397 -0.3945  0.4258 -0.3183
32202SOL    HW1 1062   0.142  10.631   2.308  2.0487 -0.1250  0.5122
32202SOL    HW2 1063   0.074  10.708   2.419 -3.1937  0.0623 -2.5277
32203SOL     OW 1064   3.866   9.276   3.887 -0.3177 -0.1436  0.1014
32203SOL    HW1 1065   3.934   9.216   3.856  1.4082  1.1493  1.2284
32203SOL    HW2 1066   3.810   9.221   3.941  0.1165 -1.1310 -0.4106
32204SOL     OW 1067   1.328   7.618   1.479  0.4752 -0.5866  0.1472
32204SOL    HW1 1068   1.279   7.690   1.439  0.1736  0.4107  2.1800
32204SOL    HW2 1069   1.298   7.540   1.433 -3.7615 -0.1772  1.7870
32205SOL     OW 1070   4.607  10.227   6.860 -0.1165 -0.5716 -0.0876
32205SOL    HW1 1071   4.537  10.281   6.897  0.0370 -0.1742 -0.3665
32205SOL    HW2 1072   4.618  10.260   6.771  1.1916  0.1308  0.3163
32206SOL     OW 1073   4.741   8.037   6.749  0.8731 -0.3965 -0.4286
32206SOL    HW1 1074   4.662   7.984   6.739 -0.6473  1.8557 -1.2171
32206SOL    HW2 1075   4.755   8.075   6.663  2.8330 -0.6999 -0.2816
32207SOL     OW 1076   1.658   3.913   2.885  0.7197  0.1932 -0.1864
32207SOL    HW1 1077   1.743   3.955   2.871  0.6423  0.1472 -0.8290
32207SOL    HW2 1078   1.664   3.830   2.838  0.3019  0.2176 -0.2876
32208SOL     OW 1079   4.682   1.438   6.714 -0.0574  0.6313 -0.1240
32208SOL    HW1 1080   4.742   1.386   6.661 -1.1175 -1.3061  0.4534
32208SOL    HW2 1081   4.637   1.495   6.652  0.9367  0.6507 -0.8328
32209SOL     OW 1082   2.978   8.365   5.202  0.0200  0.5880  0.5542
32209SOL    HW1 1083   3.015   8.291   5.155  0.4154 -0.0277  1.7892
32209SOL    HW2 1084   2.968   8.434   5.136 -0.0789 -0.4612 -0.5455
32210SOL     OW 1085   7.772   9.811   5.613  0.0691 -0.0621 -0.0031
32210SOL    HW1 1086   7.772   9.761   5.695  0.3931  0.5011  0.3481
32210SOL    HW2 1087   7.838   9.768   5.558  0.1004 -0.2272  0.1630
32211SOL     OW 1088  10.306   5.577   7.479  0.2196  0.2973 -0.4122
32211SOL    HW1 1089  10.379   5.638   7.472  0.3002  0.3008  0.3899
32211SOL    HW2 1090  10.297   5.540   7.391  0.0497  1.5880 -0.9528
32212SOL     OW 1091   8.982   4.041   2.447 -0.3657 -0.2330  0.6470
32212SOL    HW1 1092   8.996   3.970   2.385  0.8471  0.8261 -0.3576
32212SOL    HW2 1093   9.070   4.071   2.470 -0.8422  0.6406  1.3921
32213SOL     OW 1094   0.134   8.851   2.282  0.2746 -0.0699  0.3010
32213SOL    HW1 1095   0.206   8.793   2.307  0.2042  0.5644  2.1087
32213SOL    HW2 1096   0.062   8.827   2.340 -0.4594  0.3763 -0.4085
32214SOL     OW 1097   3.231   3.079   4.390  0.1001 -0.2757 -0.0585
32214SOL    HW1 1098   3.179   3.134   4.449  2.0200  1.5405  0.0636
32214SOL    HW2 1099   3.312   3.063   4.437  0.3106 -1.7245 -0.8542
32215SOL     OW 1100   3.839   4.424   7.137 -1.0912  0.6032 -0.3954
32215SOL    HW1 1101   3.850   4.403   7.044  1.3100  1.3905 -0.3648
32215SOL    HW2 1102   3.796   4.347   7.174  1.2211 -1.4092 -1.5452
32216SOL     OW 1103   3.423   0.084  10.339 -0.4920  0.3485 -0.1598
32216SOL    HW1 1104   3.413   0.094  10.244  0.3077 -1.1563 -0.4303
32216SOL    HW2 1105   3.513   0.114  10.356 -0.6022  0.5240  0.1177
32217SOL     OW 1106   9.542   6.131   1.607  0.0511  0.5440 -0.0946
32217SOL    HW1 1107   9.605   6.116   1.536 -0.0026 -2.2447  0.3530
32217SOL    HW2 1108   9.492   6.050   1.611 -2.3916  2.0151  0.7760
32218SOL     OW 1109   0.269   5.383   8.151  0.1731 -0.4091  0.5750
32218SOL    HW1 1110   0.228   5.370   8.237  0.2831  2.3837  1.1274
32218SOL    HW2 1111   0.355   5.420   8.171  0.2528  0.1457 -0.7304
32219SOL     OW 1112   7.533   4.204   8.938  0.3798 -0.0530 -0.0600
32219SOL    HW1 1113   7.521   4.123   8.987  0.0594  0.7396  1.2242
32219SOL    HW2 1114   7.524   4.179   8.847  0.3089 -1.4593  0.3162
32220SOL     OW 1115   2.957   6.779   4.993 -0.0373  0.4735 -0.4887
32220SOL    HW1 1116   2.944   6.851   5.055  0.0483 -0.8522  1.1376
32220SOL    HW2 1117   3.002   6.818   4.918 -0.4247  2.1832  0.1403
32221SOL     OW 1118   5.324   4.002   8.331  0.6335 -0.8011 -0.1811
32221SOL    HW1 1119   5.336   3.985   8.237  0.7274 -1.9063  0.0227
32221SOL    HW2 1120   5.229   3.997   8.344  0.6193 -0.6346 -0.2145
32222SOL     OW 1121   3.147   7.390   7.490 -0.1198  0.5595 -0.5110
32222SOL    HW1 1122   3.191   7.383   7.405 -0.0637  0.1262 -0.4472
32222SOL    HW2 1123   3.196   7.458   7.537  0.5118  0.0459 -0.4177
32223SOL     OW 1124   6.693   7.112   2.257 -0.0506 -0.1279  0.0972
32223SOL    HW1 1125   6.653   7.140   2.340  1.7469  2.7102  0.1450
32223SOL    HW2 1126   6.680   7.186   2.198  1.5364 -0.7712 -1.1207
32224SOL     OW 1127   4.468   3.704   3.050 -0.8053 -0.1695 -0.1139
32224SOL    HW1 1128   4.487   3.739   3.137  0.4739 -1.8823  0.3566
32224SOL    HW2 1129   4.554   3.695   3.009 -1.3125 -0.2955 -1.1741
32225SOL     OW 1130   7.558   4.790  10.603 -0.4356  0.4349 -0.0766
32225SOL    HW1 1131   7.514   4.874  10.618 -0.6751  0.5456 -1.2812
32225SOL    HW2 1132   7.544   4.772  10.509  1.0173 -0.1468 -0.2078
32226SOL     OW 1133   6.520   9.897   4.242  0.3347 -0.2138  0.3475
32226SOL    HW1 1134   6.573   9.820   4.261  1.7712  0.1977 -1.6439
32226SOL    HW2 1135   6.460   9.869   4.173 -1.5572 -0.4395  2.0031
32227SOL     OW 1136   4.727   9.149   9.411 -0.3407 -0.1986  0.3036
32227SOL    HW1 1137   4.660   9.192   9.358  1.6345  1.1947 -1.2095
32227SOL    HW2 1138   4.775   9.095   9.349  0.9624  0.1179  1.0132
32228SOL     OW 1139   7.533   9.909   1.052  0.5031 -0.0159  0.2888
32228SOL    HW1 1140   7.611   9.963   1.041  0.4155  0.2173  0.7676
32228SOL    HW2 1141   7.472   9.965   1.100  0.0333 -0.1878 -0.0947
32229SOL     OW 1142   0.550   5.213   9.320 -0.0166  0.0149  0.1513
32229SOL    HW1 1143   0.497   5.214   9.240  0.0791 -1.9257  0.0036
32229SOL    HW2 1144   0.637   5.239   9.292 -0.1291 -0.0499 -0.2695
32230SOL     OW 1145   2.360  10.226   6.562 -0.2695  0.0887 -0.7793
32230SOL    HW1 1146   2.419  10.245   6.489 -0.2011 -2.0808 -1.3760
32230SOL    HW2 1147   2.417  10.194   6.631 -0.3644  1.8939  0.1817
32231SOL     OW 1148   1.330   3.039   0.874 -0.1572 -0.1345  0.5389
32231SOL    HW1 1149   1.260   3.017   0.935 -0.9045  0.9810  0.1194
32231SOL    HW2 1150   1.320   2.978   0.802 -0.1707 -0.5122  0.8560
32232SOL     OW 1151   7.471   0.344   7.516 -0.4680  0.1142  0.3484
32232SOL    HW1 1152   7.440   0.419   7.466  0.6586  0.6801  0.4691
32232SOL    HW2 1153   7.433   0.355   7.603 -0.1337  0.6676  0.4272
32233SOL     OW 1154   0.447   8.423   3.911 -0.1875  0.4871 -0.4986
32233SOL    HW1 1155   0.480   8.424   3.822 -0.9818  0.0991 -0.8067
32233SOL    HW2 1156   0.523   8.401   3.965  0.8582  2.9326 -0.8160
32234SOL     OW 1157   6.919   8.276   1.073  0.3066  0.1044  0.3037
32234SOL    HW1 1158   6.969   8.235   1.002 -1.8248  0.2937 -1.4045
32234SOL    HW2 1159   6.889   8.202   1.126  0.4786 -0.1706  0.0257
32235SOL     OW 1160   0.555   6.442   9.530 -0.1974 -0.4632 -0.6892
32235SOL    HW1 1161   0.497   6.380   9.573 -1.3433  0.8537 -0.2773
32235SOL    HW2 1162   0.507   6.472   9.453  0.5141 -0.3911 -1.1211
32236SOL     OW 1163   3.841  10.142   1.286 -0.1965  0.2275 -0.0506
32236SOL    HW1 1164   3.880  10.159   1.372 -0.4253  0.8018 -0.0516
32236SOL    HW2 1165   3.884  10.205   1.228  0.3605 -0.5300 -0.4784
32237SOL     OW 1166   6.927   8.199   5.670  0.0337 -0.0268  0.0779
32237SOL    HW1 1167   6.851   8.257   5.670  0.3819  0.4378  0.0034
32237SOL    HW2 1168   6.933   8.167   5.761  0.6559  1.1538  0.4673
32238SOL     OW 1169  10.012   1.699   8.372 -0.3737 -0.1793 -0.1796
32238SOL    HW1 1170  10.094   1.674   8.331  0.9286  1.1381  1.4919
32238SOL    HW2 1171  10.006   1.646   8.451  0.0411  1.2894  0.8832
32239SOL     OW 1172   4.205   7.539   1.736  0.2925 -0.0955  0.2812
32239SOL    HW1 1173   4.272   7.525   1.670  1.3343  0.1414  1.2697
32239SOL    HW2 1174   4.235   7.615   1.786  0.2760 -1.1233  1.9382
32240SOL     OW 1175   0.885   0.423   6.443  0.2638 -0.1425 -0.4417
32240SOL    HW1 1176   0.902   0.515   6.462  0.4271 -0.4045  0.7298
32240SOL    HW2 1177   0.825   0.425   6.368 -2.1576  1.0095  1.4086
32241SOL     OW 1178   8.676   7.910   8.469  0.4340 -0.1382  0.4089
32241SOL    HW1 1179   8.678   7.914   8.565  0.7897  0.4262  0.3785
32241SOL    HW2 1180   8.762   7.940   8.442  0.6202 -1.0694 -0.0726
32242SOL     OW 1181   8.363  10.251   4.377 -0.0272 -0.1556  0.4762
32242SOL    HW1 1182   8.440  10.231   4.323  0.7201  1.0572  1.0479
32242SOL    HW2 1183   8.376  10.200   4.457  0.6691  0.7188  0.9451
32243SOL     OW 1184   2.182   0.552   4.624 -0.1946  0.4700 -0.0233
32243SOL    HW1 1185   2.167   0.638   4.663 -0.9189  0.3057  0.0672
32243SOL    HW2 1186   2.252   0.514   4.677 -0.5800  0.5919  0.5817
32244SOL     OW 1187   5.590   2.651   7.268 -0.3549 -0.1712  0.0309
32244SOL    HW1 1188   5.571   2.653   7.174  1.7170  0.8391 -0.4228
32244SOL    HW2 1189   5.516   2.696   7.308  0.0845  2.0203 -1.4393
32245SOL     OW 1190   2.595   7.729   0.346 -0.1494  0.1962 -0.6271
32245SOL    HW1 1191   2.516   7.681   0.320 -0.4294  0.2730  0.0679
32245SOL    HW2 1192   2.665   7.665   0.338 -0.6538 -0.6755  1.2538
32246SOL     OW 1193   2.642  10.266   0.645  0.5801  0.3628  0.0585
32246SOL    HW1 1194   2.729  10.253   0.683  0.1086  1.2584  1.5187
32246SOL    HW2 1195   2.630  10.361   0.645  0.3094  0.3606 -1.8251
32247SOL     OW 1196   9.999   1.773   9.726  0.5769 -0.4505  0.3101
32247SOL    HW1 1197   9.942   1.774   9.649  1.4312  0.1776 -0.3354
32247SOL    HW2 1198   9.954   1.715   9.788 -0.8446  0.1707 -0.0988
32248SOL     OW 1199   2.606  10.820   2.716  0.4141  0.7489 -0.1006
32248SOL    HW1 1200   2.654  10.867   2.648  1.2519  0.4262  0.2470
32248SOL    HW2 1201   2.566  10.888   2.770 -1.4893  0.9978 -1.7367
32249SOL     OW 1202   2.189   0.199   4.652 -0.6097 -0.0844  0.0477
32249SOL    HW1 1203   2.182   0.131   4.719 -0.2825 -0.5177 -0.3503
32249SOL    HW2 1204   2.255   0.258   4.685 -2.3103  1.1834  1.3654
32250SOL     OW 1205   9.107   4.156   2.848 -0.0541  0.2682  0.1807
32250SOL    HW1 1206   9.046   4.229   2.843  0.2849  0.7078  1.7775
32250SOL    HW2 1207   9.068   4.088   2.792 -1.9636  0.5600  1.0790
32251SOL     OW 1208   7.979   6.724   2.283 -0.0673  0.6342  0.3322
32251SOL    HW1 1209   7.912   6.678   2.334 -1.1852 -0.5800 -2.0632
32251SOL    HW2 1210   7.942   6.811   2.269  0.1040  0.8688  1.3043
32252SOL     OW 1211   3.318   4.093   6.354  0.1192  0.2625 -0.4400
32252SOL    HW1 1212   3.380   4.145   6.304 -0.5195  1.8936  0.3759
32252SOL    HW2 1213   3.244   4.079   6.295 -0.1603  1.2256 -0.3312
32253SOL     OW 1214   0.514  10.318  10.786  0.3855  0.1294  0.1491
32253SOL    HW1 1215   0.554  10.392  10.740  2.5724 -0.3770  1.1358
32253SOL    HW2 1216   0.510  10.346  10.877 -0.2676 -0.3764  0.2811
32254SOL     OW 1217   7.301   9.138   0.405  0.7214  0.1802  0.9402
32254SOL    HW1 1218   7.387   9.161   0.370  0.3492  0.4724  0.2010
32254SOL    HW2 1219   7.269   9.218   0.447  0.0572  0.6218 -0.3497
32255SOL     OW 1220   3.485   3.410   5.142 -0.1664  0.5489 -0.0899
32255SOL    HW1 1221   3.458   3.499   5.118 -0.7350  0.3452 -0.2231
32255SOL    HW2 1222   3.436   3.392   5.222 -0.3959  0.1884 -0.3106
32256SOL     OW 1223  10.539   7.851   1.062 -0.1932  0.2382  1.0025
32256SOL    HW1 1224  10.565   7.763   1.033 -2.3301 -0.1154 -0.1181
32256SOL    HW2 1225  10.554   7.907   0.985  0.2594  0.6526  1.3921
32257SOL     OW 1226  10.735   6.990   3.725 -0.0953  0.6823 -0.1203
32257SOL    HW1 1227  10.724   7.010   3.818  3.9348 -0.9518  0.9074
32257SOL    HW2 1228  10.701   6.901   3.715 -1.4122  1.2101 -0.4794
32258SOL     OW 1229   4.473   8.387  10.199  0.2580  0.3232 -0.2632
32258SOL    HW1 1230   4.456   8.297  10.172 -1.6435  0.7887 -0.7855
32258SOL    HW2 1231   4.461   8.386  10.294  1.3142 -0.1729 -0.1246
32259SOL     OW 1232   0.172   3.281  10.623  0.1170  0.0034  0.6358
32259SOL    HW1 1233   0.171   3.371  10.657  0.8809  0.0546  0.5440
32259SOL    HW2 1234   0.265   3.261  10.612  0.0812 -1.5525  2.6176
32260SOL     OW 1235   4.790  10.399   6.151  0.0424  0.0063  0.3722
32260SOL    HW1 1236   4.879  10.436   6.147  1.1871 -2.5160  0.6495
32260SOL    HW2 1237   4.745  10.451   6.218  0.8168  2.2240 -0.7213
32261SOL     OW 1238   8.109  10.947   3.377 -0.1127 -0.3127 -0.0342
32261SOL    HW1 1239   8.054  11.020   3.348  0.5951 -0.5046 -2.0609
32261SOL    HW2 1240   8.054  10.870   3.366  0.0006 -0.3363 -0.4681
32262SOL     OW 1241   4.080   3.483   6.771 -0.2371 -0.0930 -0.3540
32262SOL    HW1 1242   4.007   3.537   6.741  0.2013  0.2917 -0.7417
32262SOL    HW2 1243   4.137   3.475   6.695  0.1895 -0.2871 -0.0167
32263SOL     OW 1244   0.105   6.674   5.350  0.2379 -0.3188 -0.0357
32263SOL    HW1 1245   0.123   6.580   5.341  0.7300 -0.2867  0.5631
32263SOL    HW2 1246   0.105   6.690   5.444 -1.2236  0.0290 -0.0605
32264SOL     OW 1247   6.207   8.597   3.415  0.0879  0.9232 -0.4583
32264SOL    HW1 1248   6.204   8.680   3.367 -0.7735 -0.3127 -2.7007
32264SOL    HW2 1249   6.224   8.531   3.348  2.4110 -0.6320  1.4545
32265SOL     OW 1250   9.544   9.502   8.231 -0.0595  0.0070 -0.3499
32265SOL    HW1 1251   9.517   9.578   8.180 -0.4821  0.3258  0.3283
32265SOL    HW2 1252   9.619   9.532   8.281  1.9243 -0.9921 -2.5278
32266SOL     OW 1253   9.621   5.305   0.489 -0.2186  0.5675  0.0453
32266SOL    HW1 1254   9.676   5.320   0.566  2.8387  0.1365 -1.9255
32266SOL    HW2 1255   9.562   5.381   0.487  0.9049  1.5420  1.7447
32267SOL     OW 1256   5.617   4.429   4.436  0.1517 -0.0705 -0.2441
32267SOL    HW1 1257   5.645   4.455   4.524  2.0747 -1.8506 -0.2363
32267SOL    HW2 1258   5.523   4.412   4.445 -0.1355  1.8555  0.8903
32268SOL     OW 1259   3.238   5.289   6.641 -0.1973 -0.3424 -0.7999
32268SOL    HW1 1260   3.265   5.373   6.680  0.8739 -1.2631  0.5385
32268SOL    HW2 1261   3.143   5.290   6.646 -0.1494 -0.3487  1.8591
32269SOL     OW 1262   4.380   3.351   3.236  0.5692 -0.3027  0.2025
32269SOL    HW1 1263   4.404   3.258   3.235  0.2022 -0.3994 -0.8725
32269SOL    HW2 1264   4.385   3.378   3.144  2.4875  1.2413  0.6939
32270SOL     OW 1265   2.280   8.073   3.646  0.1318 -0.6695 -0.1146
32270SOL    HW1 1266   2.202   8.032   3.610  1.0793 -0.0169 -3.1895
32270SOL    HW2 1267   2.351   8.013   3.625  0.7004 -0.5246  1.2567
32271SOL     OW 1268  10.299   2.141  10.573  0.1120  0.2821 -0.4792
32271SOL    HW1 1269  10.360   2.215  10.566  0.7508 -0.0053  1.4847
32271SOL    HW2 1270  10.318   2.102  10.658 -1.9668 -0.5990 -0.3598
32272SOL     OW 1271   3.617   4.055   0.507 -0.4526 -0.6318 -0.3944
32272SOL    HW1 1272   3.666   3.976   0.483  0.2723 -0.4352  0.3846
32272SOL    HW2 1273   3.572   4.031   0.588  0.3143 -0.0416  0.2194
32273SOL     OW 1274   6.315   8.996   7.386  0.0060 -0.4702 -0.6881
32273SOL    HW1 1275   6.290   8.949   7.466  0.0176 -1.5110 -1.2847
32273SOL    HW2 1276   6.238   8.989   7.329 -0.4518  1.2914 -0.3448
32274SOL     OW 1277   2.364   4.691   1.450 -0.0326  0.2788 -0.2455
32274SOL    HW1 1278   2.405   4.607   1.471  1.3230  0.8313 -0.5687
32274SOL    HW2 1279   2.393   4.750   1.519  0.5454  0.9239 -1.0225
32275SOL     OW 1280   1.705   4.021   7.693 -0.3619  0.0409  0.3999
32275SOL    HW1 1281   1.724   4.095   7.751  0.8076  1.9631 -2.1840
32275SOL    HW2 1282   1.617   4.039   7.659  1.2620  2.6823 -3.1678
32276SOL     OW 1283   4.768   0.279   8.663  0.1736 -0.0700 -0.9133
32276SOL    HW1 1284   4.755   0.366   8.624 -1.7438 -0.5664 -1.4708
32276SOL    HW2 1285   4.681   0.250   8.687  0.6019 -2.3906 -1.9149
32277SOL     OW 1286   5.121   1.175   1.377 -0.0440 -0.1157  0.3631
32277SOL    HW1 1287   5.137   1.222   1.294  0.2402 -0.5798  0.1538
32277SOL    HW2 1288   5.034   1.135   1.365 -0.8763  1.3848  1.0291
32278SOL     OW 1289   2.496   0.286   3.231  0.2744  0.3396 -0.6979
32278SOL    HW1 1290   2.562   0.307   3.165 -0.2592 -0.5480 -1.5222
32278SOL    HW2 1291   2.523   0.201   3.265  0.6516  0.8665  0.3923
32279SOL     OW 1292   2.330   6.523   5.997 -0.0314  0.5689  0.0928
32279SOL    HW1 1293   2.398   6.478   5.946  0.6008  0.6260  0.8775
32279SOL    HW2 1294   2.298   6.592   5.938 -1.2819 -1.0723 -1.2888
32280SOL     OW 1295   3.653   0.432   6.325 -0.1227 -0.8641  0.1888
32280SOL    HW1 1296   3.590   0.453   6.394  1.2792  0.2635  1.1739
32280SOL    HW2 1297   3.622   0.482   6.249 -0.4999 -0.4308  0.6170
32281SOL     OW 1298   1.650   7.260   9.204  0.8230  0.2512 -0.3191
32281SOL    HW1 1299   1.668   7.166   9.194 -2.1218 -0.5268  0.7875
32281SOL    HW2 1300   1.593   7.282   9.130  0.3929  0.8296  0.1741
32282SOL     OW 1301   7.064   9.175   1.884  0.1125 -0.7181  0.1208
32282SOL    HW1 1302   7.017   9.257   1.897 -0.3951 -1.0694  0.5400
32282SOL    HW2 1303   7.010   9.109   1.928  0.4314 -1.3015 -0.3510
32283SOL     OW 1304   0.662   0.218   9.937  0.4666 -0.1488  0.1993
32283SOL    HW1 1305   0.745   0.221   9.890 -0.0145  0.9654 -0.6201
32283SOL    HW2 1306   0.624   0.306   9.925  0.5526  0.3891  3.0857
32284SOL     OW 1307   0.127  11.044  10.016 -0.2246  0.2908  0.0527
32284SOL    HW1 1308   0.141  11.019   9.925 -2.3116 -1.8712  0.2175
32284SOL    HW2 1309   0.047  11.096  10.015 -1.5495 -1.5885  0.7845
32285SOL     OW 1310   9.147   9.183   4.296  0.1756  0.0922  0.2114
32285SOL    HW1 1311   9.157   9.269   4.255  1.3045  0.0077  0.2765
32285SOL    HW2 1312   9.198   9.124   4.240 -0.5961 -0.5441  0.1582
32286SOL     OW 1313   2.779   7.745   9.430  0.2978  0.0289  0.1443
32286SOL    HW1 1314   2.864   7.789   9.438  0.5529 -0.1246 -1.3825
32286SOL    HW2 1315   2.721   7.811   9.394 -0.5115  0.4026  2.0087
32287SOL     OW 1316   2.019   5.630   1.211  0.3868  0.0049 -0.5374
32287SOL    HW1 1317   1.994   5.722   1.198  1.5126  0.3875 -0.1312
32287SOL    HW2 1318   2.082   5.633   1.283  1.2198 -0.9676 -1.2105
32288SOL     OW 1319   3.490   7.921  10.541  0.5070  0.4982 -0.7830
32288SOL    HW1 1320   3.410   7.892  10.584 -0.1112 -0.8691 -2.6868
32288SOL    HW2 1321   3.561   7.882  10.593 -0.1952 -0.8811 -0.8002
32289SOL     OW 1322   1.909   4.049   2.008  0.4348  0.1360 -0.0133
32289SOL    HW1 1323   1.934   4.003   2.088  2.1524  0.0341 -0.5559
32289SOL    HW2 1324   1.849   4.117   2.037  1.2824  0.3110  1.4152
32290SOL     OW 1325   0.089   3.298   5.087 -0.1801 -0.2236 -0.0749
32290SOL    HW1 1326   0.046   3.222   5.126  2.1589 -2.8157 -2.1003
32290SOL    HW2 1327   0.025   3.334   5.027 -0.8445 -1.6071 -0.2409
32291SOL     OW 1328   8.474   0.933   1.645  0.2128 -0.4028 -0.2696
32291SOL    HW1 1329   8.461   1.026   1.661 -3.9523 -0.5779 -1.5201
32291SOL    HW2 1330   8.502   0.927   1.554 -1.4756 -0.3551 -0.8293
32292SOL     OW 1331   3.729   8.133   7.815 -0.3726  0.0259  0.4274
32292SOL    HW1 1332   3.712   8.064   7.879 -0.3054  0.6978  1.1948
32292SOL    HW2 1333   3.787   8.193   7.861 -0.7146  0.7747 -0.1053
32293SOL     OW 1334   3.514   5.032   5.009 -0.4414  0.7357 -0.2868
32293SOL    HW1 1335   3.462   5.001   4.934 -1.0667 -0.1088  0.4732
32293SOL    HW2 1336   3.514   5.127   5.001 -2.7132  0.8224  0.0661
32294SOL     OW 1337   5.932  10.048   1.283 -0.6476 -0.2870 -0.2313
32294SOL    HW1 1338   5.901   9.962   1.254  1.1975 -1.2190  0.3439
32294SOL    HW2 1339   5.952  10.095   1.202 -1.9443 -0.2646 -0.5572
32295SOL     OW 1340   7.697   6.722   0.891 -0.4768 -0.2374  0.6506
32295SOL    HW1 1341   7.628   6.686   0.836  0.0103 -1.0291  0.5512
32295SOL    HW2 1342   7.667   6.707   0.980  0.0793 -1.6329  0.6253
32296SOL     OW 1343   8.074   6.990  10.848 -0.0339  0.5300 -0.2284
32296SOL    HW1 1344   8.011   6.966  10.916  1.2220 -1.6573  0.2766
32296SOL    HW2 1345   8.020   7.006  10.771 -1.2725 -1.5710  0.0997
32297SOL     OW 1346   7.482   2.430   9.745 -0.2913 -0.0455 -0.4232
32297SOL    HW1 1347   7.538   2.467   9.677  0.7541  2.6063  1.7077
32297SOL    HW2 1348   7.466   2.502   9.806 -2.3390 -1.8965  1.4419
32298SOL     OW 1349   5.509   2.879   1.951  0.0331  0.4095 -0.2123
32298SOL    HW1 1350   5.453   2.914   2.020 -0.6664 -1.0416 -0.0039
32298SOL    HW2 1351   5.583   2.840   1.997 -0.6522 -0.9508 -0.2196
32299SOL     OW 1352   2.769   6.683   3.006 -0.2021  0.0545 -0.7722
32299SOL    HW1 1353   2.708   6.718   3.072  0.7513  1.6562 -0.6848
32299SOL    HW2 1354   2.853   6.679   3.050  0.1229 -0.4533 -1.4204
32300SOL     OW 1355   0.556  10.778   6.026  0.0263 -0.3889 -0.3129
32300SOL    HW1 1356   0.614  10.726   6.081  0.6250 -0.0008 -0.5664
32300SOL    HW2 1357   0.615  10.828   5.970 -0.5596 -1.1964 -1.7126
32301SOL     OW 1358   9.338   1.432   9.788  0.1753 -0.1594 -0.3361
32301SOL    HW1 1359   9.316   1.353   9.739  1.0370  0.0551 -1.0949
32301SOL    HW2 1360   9.401   1.402   9.853  0.6208 -0.0788 -0.7243
32302SOL     OW 1361   7.814   6.420   9.361  0.0415 -0.4549  0.3143
32302SOL    HW1 1362   7.901   6.459   9.371  0.0539 -0.4596  0.2224
32302SOL    HW2 1363   7.762   6.458   9.432  0.1571 -0.5605  0.4574
32303SOL     OW 1364  10.145   0.794   9.335 -0.2424  0.4072  0.0833
32303SOL    HW1 1365  10.091   0.851   9.279 -0.8801 -0.6993 -0.4496
32303SOL    HW2 1366  10.145   0.838   9.420 -2.3133  0.2587  0.2114
32304SOL     OW 1367   0.932   3.507   4.209 -0.2844 -0.6514 -0.4922
32304SOL    HW1 1368   0.966   3.429   4.252 -2.0729  0.8421  4.2157
32304SOL    HW2 1369   0.839   3.490   4.196 -0.6028  0.4652  0.1555
32305SOL     OW 1370   9.122  10.869  10.115  0.2507  0.5840  0.5568
32305SOL    HW1 1371   9.208  10.835  10.141  0.2155 -0.4945 -0.6328
32305SOL    HW2 1372   9.073  10.791  10.090 -0.3988  1.3721 -0.7061
32306SOL     OW 1373   7.138   9.148   8.688 -0.3089  0.6260  0.4352
32306SOL    HW1 1374   7.209   9.093   8.653  0.4129  0.8911  1.4382
32306SOL    HW2 1375   7.095   9.093   8.753 -0.6871  0.6523  0.2086
32307SOL     OW 1376   8.594   4.876   7.770 -0.3337  0.2263  0.1089
32307SOL    HW1 1377   8.568   4.919   7.688  0.9847  0.0336 -0.4237
32307SOL    HW2 1378   8.566   4.937   7.838  0.5188  1.4318 -0.5889
32308SOL     OW 1379   1.446   3.674   3.892  0.4971  0.2954  0.0668
32308SOL    HW1 1380   1.361   3.633   3.910  0.8804 -0.6139 -0.1234
32308SOL    HW2 1381   1.440   3.703   3.801  0.1252  0.9327  0.2863
32309SOL     OW 1382   1.734   3.396   6.084  0.1863  0.2078  0.1885
32309SOL    HW1 1383   1.688   3.395   6.000 -0.6379  1.0747  0.6027
32309SOL    HW2 1384   1.703   3.476   6.127 -1.4804 -1.5253  2.4447
32310SOL     OW 1385   2.822   2.543   4.648 -0.3590  0.0531 -0.1872
32310SOL    HW1 1386   2.802   2.525   4.556 -2.8397  0.1503  0.2835
32310SOL    HW2 1387   2.833   2.457   4.688 -0.4786 -0.0275 -0.3260
32311SOL     OW 1388   3.978   0.404   2.823  0.5388  0.0376  0.3850
32311SOL    HW1 1389   4.068   0.431   2.841  0.8974  0.1588 -1.3816
32311SOL    HW2 1390   3.948   0.365   2.905  2.1428  0.1151  1.0570
32312SOL     OW 1391   6.472   9.385   7.054 -0.3980 -0.0819 -0.1548
32312SOL    HW1 1392   6.556   9.377   7.009  1.2413  0.6446  2.5460
32312SOL    HW2 1393   6.465   9.304   7.104 -0.9845  0.1443  0.1318
32313SOL     OW 1394   7.135   0.982   5.880  0.5000 -0.3917  0.1363
32313SOL    HW1 1395   7.162   1.042   5.811  1.7272 -1.5904 -0.4686
32313SOL    HW2 1396   7.039   0.987   5.880  0.4887 -0.1370 -1.4580
32314SOL     OW 1397   5.647   5.899   9.796  0.2744  0.0027  0.2468
32314SOL    HW1 1398   5.616   5.838   9.728  0.8583 -1.0617  0.9158
32314SOL    HW2 1399   5.741   5.903   9.782  0.4351 -0.4565  1.1854
32315SOL     OW 1400  11.023   3.216  10.995 -0.4454  0.0604  1.1531
32315SOL    HW1 1401  11.013   3.249  10.906  0.4495 -0.8069  0.7053
32315SOL    HW2 1402  10.961   3.267  11.047  0.4973  2.0429  0.4199
32316SOL     OW 1403   0.021   6.337   8.579  0.0381 -0.0661  0.3615
32316SOL    HW1 1404  -0.008   6.295   8.498  2.7653 -0.4927 -0.4893
32316SOL    HW2 1405   0.065   6.268   8.628  1.4040  0.9537  0.6194
32317SOL     OW 1406   4.722   3.512   6.895  0.0867  0.3275 -0.0077
32317SOL    HW1 1407   4.715   3.573   6.969 -1.1416  0.0804  0.0980
32317SOL    HW2 1408   4.660   3.442   6.915  0.3252 -0.1560 -0.8899
32318SOL     OW 1409   9.987   4.639  10.698  0.9202 -0.2950 -0.2695
32318SOL    HW1 1410   9.911   4.581  10.690 -0.7198  1.8062 -0.5349
32318SOL    HW2 1411  10.023   4.643  10.609 -0.3260  0.8035 -0.7598
32319SOL     OW 1412   5.251  11.014   7.203 -0.0210  0.0144 -0.0928
32319SOL    HW1 1413   5.251  11.103   7.238 -0.7754  0.8588 -2.0784
32319SOL    HW2 1414   5.242  11.026   7.108  0.6198 -2.1634 -0.4759
32320SOL     OW 1415   2.916   0.932   8.027 -0.7780  0.1081  0.3317
32320SOL    HW1 1416   2.956   0.917   7.942  0.1670  1.6855  0.4470
32320SOL    HW2 1417   2.825   0.903   8.017 -0.2039 -1.4675 -0.6169
32321SOL     OW 1418  10.523   4.928   9.551 -0.3304  0.5691  0.5910
32321SOL    HW1 1419  10.548   4.840   9.526  0.7952  0.6013  1.5079
32321SOL    HW2 1420  10.471   4.917   9.631 -0.1418  0.7432  0.7384
32322SOL     OW 1421   7.897   4.789   6.528  0.0433  0.2529  1.0543
32322SOL    HW1 1422   7.962   4.854   6.500  0.7914 -1.1737 -0.7209
32322SOL    HW2 1423   7.828   4.796   6.462  0.9913 -1.9323 -0.2821
32323SOL     OW 1424   4.359   9.346   1.321  0.3159 -0.3000  0.4919
32323SOL    HW1 1425   4.292   9.298   1.370  0.0943  0.8886  1.4193
32323SOL    HW2 1426   4.310   9.417   1.279  0.5878 -1.0057 -1.0744
32324SOL     OW 1427  10.869   4.976   5.570  0.3268  0.1508 -0.6323
32324SOL    HW1 1428  10.851   4.889   5.605 -2.7825  0.7507 -0.4462
32324SOL    HW2 1429  10.962   4.974   5.547  0.6638 -2.7560  0.5539
32325SOL     OW 1430   9.284  10.983   5.252  0.3163 -0.0293  0.0970
32325SOL    HW1 1431   9.330  10.934   5.184 -2.1053 -2.1444 -0.2017
32325SOL    HW2 1432   9.341  10.979   5.328  0.5073 -2.9421 -0.0978
32326SOL     OW 1433   8.096   5.064   9.022 -0.7256  0.0357 -0.2238
32326SOL    HW1 1434   8.167   5.008   9.054 -0.6764 -0.5450 -1.2826
32326SOL    HW2 1435   8.137   5.150   9.011 -0.3509 -0.1364 -0.2045
32327SOL     OW 1436   1.194   8.694   4.284 -0.2391  0.0466 -0.1780
32327SOL    HW1 1437   1.231   8.613   4.250  0.7569 -0.1779  1.2997
32327SOL    HW2 1438   1.187   8.752   4.208 -2.8216 -2.0107 -1.6471
32328SOL     OW 1439   8.916   3.968   9.034  0.1933  0.5565  0.2466
32328SOL    HW1 1440   8.878   4.056   9.038 -1.2813 -0.0525  0.6014
32328SOL    HW2 1441   8.843   3.913   9.004  0.5029 -0.8360  1.9094
32329SOL     OW 1442   7.106   6.821   7.647  0.4518 -0.1056  0.3210
32329SOL    HW1 1443   7.150   6.787   7.569  0.1545 -0.7723  0.4423
32329SOL    HW2 1444   7.141   6.770   7.719 -0.5757 -0.7208  0.4112
32330SOL     OW 1445  10.438   1.171  10.330  0.3172 -0.1678  0.3733
32330SOL    HW1 1446  10.452   1.158  10.236  1.2670 -0.2190  0.5085
32330SOL    HW2 1447  10.344   1.186  10.339  0.1535 -0.6006 -0.5338
32331SOL     OW 1448   3.477   9.835   0.432 -0.1248 -0.3584 -0.2115
32331SOL    HW1 1449   3.522   9.751   0.441 -0.0972 -0.6595 -2.5228
32331SOL    HW2 1450   3.545   9.896   0.405 -0.6121 -0.2549 -1.2778
32332SOL     OW 1451   6.607  10.587   9.560  0.0372 -0.0593 -0.0206
32332SOL    HW1 1452   6.607  10.504   9.513 -0.3579 -0.0746 -0.0015
32332SOL    HW2 1453   6.695  10.594   9.597  0.2332 -0.2225 -0.4504
32333SOL     OW 1454   4.886   1.509   5.833 -1.0190  0.1976 -0.3623
32333SOL    HW1 1455   4.845   1.580   5.882  1.1228  0.8279  0.6249
32333SOL    HW2 1456   4.837   1.431   5.859 -0.8798  0.7402  1.6874
32334SOL     OW 1457   9.197   7.826   7.169  0.5133  0.7015  0.1776
32334SOL    HW1 1458   9.132   7.761   7.143 -0.2205  0.9008  1.4525
32334SOL    HW2 1459   9.270   7.812   7.109 -0.8665  0.7692 -1.5749
32335SOL     OW 1460   3.696   1.797   6.105  0.3057 -0.4112  0.0998
32335SOL    HW1 1461   3.605   1.805   6.133  0.5044  1.7142  0.2741
32335SOL    HW2 1462   3.698   1.834   6.017  0.8143 -1.5082 -0.3694
32336SOL     OW 1463   3.061   4.428   6.928 -0.3944  0.3546  0.1841
32336SOL    HW1 1464   3.078   4.445   7.021 -0.6671 -0.2527  0.3540
32336SOL    HW2 1465   3.060   4.333   6.921 -0.3157  0.3969 -0.4588
32337SOL     OW 1466  10.929   3.257  10.699  0.9098 -0.2365  0.2595
32337SOL    HW1 1467  10.996   3.215  10.644  1.8549  0.4657  0.8546
32337SOL    HW2 1468  10.915   3.342  10.658 -1.3461 -1.2085 -1.2192
32338SOL     OW 1469   8.301   1.886   8.520 -0.4749  0.3042  0.0987
32338SOL    HW1 1470   8.214   1.852   8.497 -0.4321 -0.9082  1.5771
32338SOL    HW2 1471   8.362   1.822   8.484 -0.1628  1.1444 -0.9200
32339SOL     OW 1472   6.876   9.965   2.242  0.0440  0.4889  0.0063
32339SOL    HW1 1473   6.918  10.050   2.253 -1.3898  1.1069  1.2095
32339SOL    HW2 1474   6.827   9.952   2.323 -1.7121 -0.3643 -1.1182
32340SOL     OW 1475   5.216   7.123   2.739 -0.2856 -0.2425 -0.2058
32340SOL    HW1 1476   5.284   7.188   2.723 -0.5156 -0.0207 -0.2913
32340SOL    HW2 1477   5.244   7.077   2.818  0.2427 -0.5191 -0.5470
32341SOL     OW 1478   0.101   1.830   6.515  0.0637  0.4931  0.1083
32341SOL    HW1 1479   0.021   1.843   6.464  1.1880  0.8246 -1.6426
32341SOL    HW2 1480   0.160   1.781   6.458  0.1779 -2.2929  2.3758
32342SOL     OW 1481   7.801   3.372  10.723  0.1134  0.1156  0.1123
32342SOL    HW1 1482   7.772   3.391  10.813  0.3076 -1.2632  0.4928
32342SOL    HW2 1483   7.890   3.406  10.720  0.1642  0.0292  0.4964
32343SOL     OW 1484  10.715   7.164  10.866 -0.4759 -0.5000  0.3067
32343SOL    HW1 1485  10.677   7.147  10.780 -0.1333 -1.1893  0.2841
32343SOL    HW2 1486  10.786   7.101  10.874 -0.3880 -0.3242  1.0244
32344SOL     OW 1487  10.888   1.630   2.293  0.0142 -0.1443  0.2804
32344SOL    HW1 1488  10.963   1.609   2.237 -0.1476 -0.9788  0.3636
32344SOL    HW2 1489  10.917   1.606   2.381  0.0034  0.4782  0.4573
32345SOL     OW 1490   4.732   5.615   2.587 -0.0991 -0.1398 -0.5053
32345SOL    HW1 1491   4.729   5.587   2.679 -2.8999  0.4454 -0.3168
32345SOL    HW2 1492   4.790   5.553   2.544 -0.1050 -1.4912  1.3323
32346SOL     OW 1493   4.480   4.436   5.651  0.2042 -0.1187 -0.1513
32346SOL    HW1 1494   4.425   4.464   5.725 -0.7954 -0.4016 -0.7767
32346SOL    HW2 1495   4.561   4.404   5.692 -1.0091 -1.9261  0.9550
32347SOL     OW 1496   4.069   0.176   2.707  0.3062  0.3020 -0.3431
32347SOL    HW1 1497   4.021   0.125   2.772  1.1509  0.7680  0.6618
32347SOL    HW2 1498   4.042   0.266   2.721  1.4787  0.5802  0.2708
32348SOL     OW 1499   8.419   0.085   7.323 -0.0976  0.2138  0.4656
32348SOL    HW1 1500   8.408   0.165   7.374 -0.3795  0.7614 -0.4263
32348SOL    HW2 1501   8.466   0.113   7.244  0.1410 -0.5707  0.3130
32349SOL     OW 1502   6.452   8.298   0.504  0.2987  0.2395 -0.5212
32349SOL    HW1 1503   6.388   8.351   0.456 -0.4148  0.2147  0.3801
32349SOL    HW2 1504   6.402   8.259   0.576  0.9625 -1.1344 -0.7748
32350SOL     OW 1505   3.200   2.040   9.363 -0.2326 -0.1048 -0.1964
32350SOL    HW1 1506   3.130   2.047   9.298  0.0056  0.5786 -0.3855
32350SOL    HW2 1507   3.280   2.057   9.314  0.3415 -3.0633 -0.4574
32351SOL     OW 1508  10.595   0.071   1.640 -0.0955  0.4710  0.3200
32351SOL    HW1 1509  10.676   0.096   1.596  0.8891 -0.3301  1.6250
32351SOL    HW2 1510  10.605   0.104   1.729  0.1828 -2.2703  1.4056
32352SOL     OW 1511   3.390   3.809   4.060 -0.1816 -0.6060 -0.1359
32352SOL    HW1 1512   3.318   3.841   4.114 -0.8554 -1.0647 -0.7369
32352SOL    HW2 1513   3.386   3.713   4.069  0.6882 -0.6200  0.2342
32353SOL     OW 1514   6.575   2.810   9.597  0.1777 -0.3387 -0.1479
32353SOL    HW1 1515   6.644   2.780   9.656  0.6157  1.4804  0.3268
32353SOL    HW2 1516   6.620   2.864   9.532 -0.7982  1.3628  0.5052
32354SOL     OW 1517   5.794   1.884   5.414  0.1484 -0.1326  0.0870
32354SOL    HW1 1518   5.818   1.948   5.347 -0.1077 -0.3285 -0.1957
32354SOL    HW2 1519   5.713   1.917   5.451  0.0845 -0.2239  0.0294
32355SOL     OW 1520   4.878   3.312   6.146 -0.1527 -0.3038 -0.1437
32355SOL    HW1 1521   4.955   3.256   6.140 -1.1068 -1.9584  1.9248
32355SOL    HW2 1522   4.894   3.368   6.222 -0.0126  1.0025 -1.0981
32356SOL     OW 1523   3.986   5.658   5.036 -0.0775 -0.0016 -0.5041
32356SOL    HW1 1524   3.977   5.663   4.941 -1.1000  0.8028 -0.3819
32356SOL    HW2 1525   3.903   5.691   5.070  1.0367  1.7260  0.6985
32357SOL     OW 1526   0.001   0.911   1.467  0.4520  0.2789 -0.5612
32357SOL    HW1 1527  -0.029   0.831   1.423  0.4587  1.0737 -2.0905
32357SOL    HW2 1528   0.089   0.890   1.498  0.7817 -0.0716 -1.6694
32358SOL     OW 1529   5.506   1.562   8.980  0.1779 -0.3474  0.1770
32358SOL    HW1 1530   5.598   1.586   8.979  0.7970 -2.2140 -3.0953
32358SOL    HW2 1531   5.470   1.603   8.901 -1.1960 -1.6063  0.0957
32359SOL     OW 1532   7.736  10.002  10.199  0.0346  0.1721  0.2640
32359SOL    HW1 1533   7.656   9.957  10.172  0.4684 -1.4832  1.5962
32359SOL    HW2 1534   7.706  10.086  10.234 -0.9391  0.2840 -0.7831
32360SOL     OW 1535   7.377   6.796  10.571 -0.5037 -0.1458  0.2374
32360SOL    HW1 1536   7.391   6.710  10.532  0.0400  0.1297 -0.1797
32360SOL    HW2 1537   7.408   6.858  10.506 -1.1503  0.3860  0.4177
32361SOL     OW 1538   5.327   6.784   5.125 -0.0206 -0.6770 -0.3872
32361SOL    HW1 1539   5.342   6.856   5.063 -2.4664 -1.2427 -1.7530
32361SOL    HW2 1540   5.359   6.706   5.080 -0.8241 -0.9419 -0.5169
32362SOL     OW 1541   4.877  10.082   1.833  0.6391 -0.4014  0.4855
32362SOL    HW1 1542   4.912  10.100   1.746  0.7736  0.6736  0.7411
32362SOL    HW2 1543   4.924  10.143   1.890  0.9387 -1.4540  1.4033
32363SOL     OW 1544   3.589  11.013   5.505 -0.5611  0.8237 -0.0050
32363SOL    HW1 1545   3.582  11.044   5.595  0.2699 -1.7944  1.0560
32363SOL    HW2 1546   3.606  10.919   5.513  0.9023  0.7369 -2.8855
32364SOL     OW 1547   3.277   6.127   4.552 -0.3177  0.0908 -0.0531
32364SOL    HW1 1548   3.252   6.118   4.644  0.2040  1.4873  0.2522
32364SOL    HW2 1549   3.333   6.051   4.535 -0.8606 -0.4744  0.6166
32365SOL     OW 1550   1.328   0.154   1.437 -0.0194 -0.4049 -0.0083
32365SOL    HW1 1551   1.262   0.086   1.444 -0.6660  0.2403  0.2950
32365SOL    HW2 1552   1.299   0.222   1.498 -0.8413  1.3283 -2.1774
32366SOL     OW 1553   1.635   8.272   1.835 -0.3361  0.1037 -0.1010
32366SOL    HW1 1554   1.588   8.213   1.778  1.2416 -0.4017 -0.9339
32366SOL    HW2 1555   1.720   8.284   1.793  0.4773  0.5867  1.5733
32367SOL     OW 1556   1.411   9.306   4.200 -0.2118 -0.5128 -0.3095
32367SOL    HW1 1557   1.350   9.239   4.171 -0.6881  0.5154 -1.8389
32367SOL    HW2 1558   1.362   9.388   4.192  1.1305  0.2663 -0.9472
32368SOL     OW 1559   1.563   8.981   6.160  0.1157  1.0144  0.4246
32368SOL    HW1 1560   1.542   9.024   6.077  1.3251 -1.5357 -1.3270
32368SOL    HW2 1561   1.641   9.026   6.192  2.0639 -0.4079 -1.9691
32369SOL     OW 1562   2.303   8.091   5.288  0.6166 -0.4273  0.4022
32369SOL    HW1 1563   2.331   8.084   5.197 -1.1889 -0.2368 -0.2216
32369SOL    HW2 1564   2.370   8.145   5.330  0.1252  1.8443 -1.5006
32370SOL     OW 1565   6.166   3.235   5.363  0.1974  0.4971 -0.2261
32370SOL    HW1 1566   6.241   3.178   5.377 -0.1046  0.5362  1.8760
32370SOL    HW2 1567   6.195   3.298   5.297  1.2957 -0.7036 -0.9153
32371SOL     OW 1568  10.259   4.416   2.720 -0.4893 -0.2324  0.4443
32371SOL    HW1 1569  10.267   4.468   2.800 -1.7294 -1.2055  1.2443
32371SOL    HW2 1570  10.193   4.463   2.668  1.2299  1.0966 -0.6249
32372SOL     OW 1571   7.324   6.483  10.698 -0.6912  0.6823 -0.2291
32372SOL    HW1 1572   7.391   6.532  10.747 -1.0927  0.3563  0.6734
32372SOL    HW2 1573   7.284   6.427  10.764 -2.1389  1.1646 -0.6700
32373SOL     OW 1574   2.569   0.888  10.851  0.1082  0.0044  0.2453
32373SOL    HW1 1575   2.569   0.970  10.900  0.4697  1.3801 -1.9156
32373SOL    HW2 1576   2.657   0.853  10.860  0.0074 -0.0644  1.0124
32374SOL     OW 1577   3.054   4.662   2.214  0.1703 -0.1429  0.4120
32374SOL    HW1 1578   3.026   4.621   2.296  2.0171 -0.1723  1.0645
32374SOL    HW2 1579   2.984   4.724   2.194 -0.2512 -0.0317  2.0773
32375SOL     OW 1580   4.423   0.813   1.588 -0.5999  0.4010 -0.5227
32375SOL    HW1 1581   4.346   0.760   1.567  0.7117 -2.2787  0.8615
32375SOL    HW2 1582   4.449   0.784   1.675 -0.6356  4.5876  1.1021
32376SOL     OW 1583   9.927   7.886   6.509  0.1921  0.3943  0.0270
32376SOL    HW1 1584   9.950   7.979   6.519 -0.4799  0.3925  1.9883
32376SOL    HW2 1585   9.850   7.875   6.564 -0.7959 -0.9794 -1.5287
32377SOL     OW 1586   9.973   1.767   0.045  0.3171  0.5588  0.3316
32377SOL    HW1 1587   9.938   1.678   0.049 -0.4373  0.8968  2.1600
32377SOL    HW2 1588   9.895   1.823   0.037  0.7727  1.0948 -0.5523
32378SOL     OW 1589   1.671   5.058   9.297  0.1552  0.1580  0.1848
32378SOL    HW1 1590   1.696   4.967   9.308  1.8167  0.5666  0.0299
32378SOL    HW2 1591   1.578   5.055   9.273  0.4753 -1.5664 -1.0155
32379SOL     OW 1592   4.065   2.319   5.402  0.5529  0.1831 -0.2168
32379SOL    HW1 1593   4.149   2.362   5.385  0.3117  0.6392 -0.2775
32379SOL    HW2 1594   4.000   2.377   5.363 -0.0733  1.4272  2.4317
32380SOL     OW 1595   3.297   9.727   4.519 -0.0862  0.0150  0.1561
32380SOL    HW1 1596   3.277   9.724   4.425  0.0238 -0.4415  0.1445
32380SOL    HW2 1597   3.305   9.635   4.544 -1.1012  0.0893  0.8250
32381SOL     OW 1598   3.511   1.248  10.406 -0.0612 -0.6359  0.2955
32381SOL    HW1 1599   3.444   1.185  10.377 -1.2995  0.4479  0.7087
32381SOL    HW2 1600   3.486   1.330  10.364  1.5853 -0.4014 -0.2919
32382SOL     OW 1601   3.304   9.627   6.907 -0.4244 -0.1688  0.6270
32382SOL    HW1 1602   3.237   9.694   6.921 -0.1322  0.4689 -0.7868
32382SOL    HW2 1603   3.327   9.636   6.814  1.4866 -0.4877  1.0265
32383SOL     OW 1604   2.856  10.565   9.407 -0.1481  0.1131  0.0282
32383SOL    HW1 1605   2.885  10.478   9.378  0.9000  0.2477  0.6393
32383SOL    HW2 1606   2.902  10.626   9.350  1.0697  0.3408  1.2023
32384SOL     OW 1607   8.724   6.503   5.232 -0.8305 -0.4792 -0.9568
32384SOL    HW1 1608   8.639   6.518   5.273 -1.1749 -0.8323 -1.5477
32384SOL    HW2 1609   8.752   6.590   5.204  0.3226  0.1458  1.7361
32385SOL     OW 1610   1.658   5.664   9.363 -0.2114 -0.5669 -0.0234
32385SOL    HW1 1611   1.604   5.640   9.439 -0.3773 -0.8350 -0.2244
32385SOL    HW2 1612   1.607   5.636   9.287 -0.8073  1.2019 -0.3176
32386SOL     OW 1613   2.330   1.876   2.252 -0.2219 -0.2298 -0.4025
32386SOL    HW1 1614   2.302   1.915   2.169 -1.0488  0.3514  0.1217
32386SOL    HW2 1615   2.417   1.840   2.235 -0.2984  0.0678 -1.4576
32387SOL     OW 1616   7.408  10.584   2.719 -0.8847 -0.6653 -0.2238
32387SOL    HW1 1617   7.365  10.578   2.633  0.0849 -1.0852 -0.6963
32387SOL    HW2 1618   7.475  10.651   2.707  0.8753 -2.3948 -0.5403
32388SOL     OW 1619   7.412  10.057   8.811 -0.3968  0.4513  0.4041
32388SOL    HW1 1620   7.344  10.019   8.868  0.6288  1.4953  2.4458
32388SOL    HW2 1621   7.438  10.138   8.855  0.6619  1.1942 -1.4642
32389SOL     OW 1622   0.573   1.481   5.695 -0.0582  0.1606  0.2703
32389SOL    HW1 1623   0.505   1.466   5.629 -0.4135  0.7447  0.4962
32389SOL    HW2 1624   0.647   1.428   5.665 -0.8044 -0.9744  0.3329
32390SOL     OW 1625   1.224   0.377   7.043  0.1436 -0.1676 -0.3815
32390SOL    HW1 1626   1.310   0.336   7.037 -0.6999 -2.0241 -0.9340
32390SOL    HW2 1627   1.184   0.338   7.121  0.2385  1.6505  0.6310
32391SOL     OW 1628   4.799   6.009   6.131  0.1609 -0.2294  0.2917
32391SOL    HW1 1629   4.823   5.994   6.040  0.4688  0.5841  0.2314
32391SOL    HW2 1630   4.728   5.947   6.148 -0.8284  0.5270 -0.8918
32392SOL     OW 1631   0.273  10.647  10.634  0.4233 -0.0721  0.0207
32392SOL    HW1 1632   0.354  10.699  10.635 -0.0231  0.6309  0.9216
32392SOL    HW2 1633   0.298  10.567  10.589  1.3789  0.5243 -0.5690
32393SOL     OW 1634   0.137   0.788   0.506  0.2848  0.0331 -0.3345
32393SOL    HW1 1635   0.154   0.739   0.586 -0.2924 -3.0697 -1.9773
32393SOL    HW2 1636   0.224   0.809   0.472  0.5307  0.4992  0.5212
32394SOL     OW 1637   5.795   5.812   4.910 -0.1541  0.6826 -0.0700
32394SOL    HW1 1638   5.718   5.849   4.954 -1.7646  0.6587 -2.6538
32394SOL    HW2 1639   5.821   5.879   4.847  1.1995  0.1739 -0.0875
32395SOL     OW 1640   5.112   6.167   8.562  0.4394  0.5722 -0.2200
32395SOL    HW1 1641   5.133   6.225   8.636 -2.2757  0.9542  0.3593
32395SOL    HW2 1642   5.082   6.226   8.493  1.9692  0.1322 -1.3249
32396SOL     OW 1643   2.024   3.840   9.812  0.0305 -0.2784  0.1614
32396SOL    HW1 1644   2.057   3.927   9.789 -1.3127 -0.2648 -2.0024
32396SOL    HW2 1645   2.103   3.788   9.828  0.8744  1.0821  0.5562
32397SOL     OW 1646   0.545   0.460   4.657 -0.6118 -0.8683 -0.1921
32397SOL    HW1 1647   0.582   0.472   4.570  0.0162  0.6826  0.2573
32397SOL    HW2 1648   0.620   0.440   4.713  0.1340  4.1337  1.0908
32398SOL     OW 1649   2.204   0.860  10.718 -1.0056  0.1014 -0.2048
32398SOL    HW1 1650   2.143   0.904  10.659 -0.7173 -0.0435 -0.6122
32398SOL    HW2 1651   2.280   0.838  10.663 -0.4527  0.5504  0.3618
32399SOL     OW 1652  10.611   4.357   8.484  0.1044 -0.1087 -0.0522
32399SOL    HW1 1653  10.643   4.443   8.457 -0.9098  0.7687  1.4221
32399SOL    HW2 1654  10.553   4.331   8.412 -0.1481  0.7756 -0.1855
32400SOL     OW 1655   5.165   3.068   3.573 -0.3894  0.6276  0.3005
32400SOL    HW1 1656   5.155   3.013   3.495  2.8417 -0.3598  0.4627
32400SOL    HW2 1657   5.081   3.114   3.581 -0.3528  2.1642 -4.7756
32401SOL     OW 1658   0.658  10.944   3.452  0.2479 -0.2260  0.2350
32401SOL    HW1 1659   0.742  10.949   3.497 -0.2139  0.3895  1.0660
32401SOL    HW2 1660   0.651  10.854   3.422  1.2462 -0.2540  0.0628
32402SOL     OW 1661   0.538   0.215   0.744  0.0303  0.1203  0.6191
32402SOL    HW1 1662   0.512   0.176   0.661 -1.0377 -0.9582  1.4250
32402SOL    HW2 1663   0.543   0.141   0.805 -1.7321  1.1315  2.1163
32403SOL     OW 1664   0.695  10.191   9.330 -0.4728 -0.6184 -0.2335
32403SOL    HW1 1665   0.628  10.135   9.369  1.0583 -0.8951  2.2236
32403SOL    HW2 1666   0.690  10.273   9.380  1.3139 -0.8518  0.4164
32404SOL     OW 1667   5.012   9.024   9.676  0.4122  0.2072  0.4130
32404SOL    HW1 1668   4.957   9.100   9.692  2.1666  1.6002  0.1088
32404SOL    HW2 1669   4.955   8.963   9.630 -0.7456  1.8031 -0.3662
32405SOL     OW 1670   0.410   2.606  10.916  0.5077 -0.4515  0.0657
32405SOL    HW1 1671   0.441   2.641  10.999  0.5842 -0.1895 -0.0750
32405SOL    HW2 1672   0.370   2.681  10.871 -0.0099 -0.7033  0.0916
32406SOL     OW 1673   8.456   0.414   0.764  0.4155 -0.4440 -0.1131
32406SOL    HW1 1674   8.379   0.458   0.726  1.3164  0.9127 -0.4375
32406SOL    HW2 1675   8.529   0.440   0.708  1.3252 -0.6906  0.9225
32407SOL     OW 1676   7.189   5.631   3.032 -0.3788 -0.2414  0.5262
32407SOL    HW1 1677   7.158   5.718   3.057 -0.7888 -0.9214  2.6075
32407SOL    HW2 1678   7.269   5.618   3.082  1.3734  0.0526 -2.0401
32408SOL     OW 1679   9.785  10.769  10.536 -0.0600 -0.1568 -0.6729
32408SOL    HW1 1680   9.840  10.765  10.458  0.9257 -1.1615  0.0314
32408SOL    HW2 1681   9.742  10.854  10.531  0.0253 -0.1754 -2.2689
32409SOL     OW 1682   1.510   2.317  10.123  0.0678 -0.1720 -0.1502
32409SOL    HW1 1683   1.498   2.237  10.174 -3.9773 -0.1230 -0.7115
32409SOL    HW2 1684   1.438   2.374  10.150  1.4127  2.3195 -1.5160
32410SOL     OW 1685   1.489   2.975   3.466 -0.3570  0.1413 -0.1923
32410SOL    HW1 1686   1.398   2.981   3.494 -0.7106 -0.1599 -1.2258
32410SOL    HW2 1687   1.493   3.028   3.386  0.4108  0.2616 -0.0839
32411SOL     OW 1688   7.802   6.056   9.689 -0.1886 -0.3988  0.2557
32411SOL    HW1 1689   7.760   6.084   9.608 -1.3866 -1.4417  0.4847
32411SOL    HW2 1690   7.872   5.996   9.661 -0.6141 -0.7754 -0.0149
32412SOL     OW 1691   1.224   9.634   6.973  0.5455 -0.2410  0.3797
32412SOL    HW1 1692   1.186   9.579   6.905  0.9296 -0.9474  0.7172
32412SOL    HW2 1693   1.215   9.582   7.053  1.0166  0.1410  0.6838
32413SOL     OW 1694   8.960   6.807   7.379 -0.1853 -0.0550  0.3425
32413SOL    HW1 1695   8.966   6.764   7.465 -2.6010 -1.2696 -0.0169
32413SOL    HW2 1696   8.913   6.745   7.324 -0.1846  1.4022 -1.4069
32414SOL     OW 1697   3.830   1.633   1.090 -0.1067  0.1408 -0.0984
32414SOL    HW1 1698   3.843   1.665   1.001 -2.5995 -2.3776 -1.5266
32414SOL    HW2 1699   3.836   1.538   1.083 -2.2854 -0.2486  2.0049
32415SOL     OW 1700   3.232   7.110   4.770  0.6529 -0.2653 -0.5525
32415SOL    HW1 1701   3.316   7.154   4.784  0.4387  0.1597 -0.5624
32415SOL    HW2 1702   3.187   7.116   4.854  0.6924 -0.6294 -0.5037
32416SOL     OW 1703   2.613   0.561   5.196  0.0594  0.3689  0.0057
32416SOL    HW1 1704   2.553   0.535   5.266 -0.0163 -0.7517 -0.4671
32416SOL    HW2 1705   2.655   0.480   5.168  0.7973  0.9441 -0.6031
32417SOL     OW 1706   1.547   1.791   3.384  0.3457 -0.7228 -0.2827
32417SOL    HW1 1707   1.463   1.751   3.362  0.8240 -1.5764 -0.6045
32417SOL    HW2 1708   1.566   1.850   3.311  0.0543 -0.5717 -0.2360
32418SOL     OW 1709   3.505   8.185   6.999 -0.6890 -0.4654 -0.4718
32418SOL    HW1 1710   3.536   8.262   6.951  0.2060 -1.6813 -1.9734
32418SOL    HW2 1711   3.542   8.195   7.087 -0.0394  0.4944 -0.8344
32419SOL     OW 1712  10.854   2.194   9.915 -0.0034 -0.7468  0.0722
32419SOL    HW1 1713  10.782   2.226   9.860 -0.5079  0.5662  1.4303
32419SOL    HW2 1714  10.921   2.167   9.853 -2.0161 -3.0077 -1.2949
32420SOL     OW 1715   6.001   5.409   8.342  0.2806  0.3066 -0.3715
32420SOL    HW1 1716   6.089   5.444   8.325  0.1225  1.7414  1.4962
32420SOL    HW2 1717   5.942   5.480   8.316 -0.3457 -0.4765 -1.1733
32421SOL     OW 1718   3.781   5.657   4.430  0.4844 -0.2084 -0.4319
32421SOL    HW1 1719   3.798   5.751   4.423  1.1005 -0.2412  0.4838
32421SOL    HW2 1720   3.717   5.649   4.501  1.0887 -0.5387  0.0853
32422SOL     OW 1721  10.622   3.300   9.412 -0.0718 -0.5468 -0.3259
32422SOL    HW1 1722  10.573   3.381   9.401  0.4406 -0.1783  0.0676
32422SOL    HW2 1723  10.565   3.244   9.464 -0.1244 -0.1602  0.0362
32423SOL     OW 1724   7.099   2.227   9.167  0.4276 -0.2541  0.1724
32423SOL    HW1 1725   7.078   2.311   9.126  1.4222 -0.1282 -0.0974
32423SOL    HW2 1726   7.022   2.172   9.150 -0.1031  0.5061  0.0963
32424SOL     OW 1727   3.827   0.100   7.829  0.3687 -0.2183  0.7391
32424SOL    HW1 1728   3.909   0.096   7.879  0.7577  0.6799  0.1929
32424SOL    HW2 1729   3.827   0.187   7.789 -0.6321 -0.3836  0.3478
32425SOL     OW 1730  10.476   5.714   8.891 -0.2397 -0.3079  0.3043
32425SOL    HW1 1731  10.418   5.744   8.821  0.1445  1.0348  0.5373
32425SOL    HW2 1732  10.532   5.790   8.910  0.4836 -1.0482  1.2161
32426SOL     OW 1733  10.524   8.798  10.393  0.6058 -0.1133 -0.9836
32426SOL    HW1 1734  10.442   8.822  10.437  0.2730  1.0065 -2.1576
32426SOL    HW2 1735  10.590   8.803  10.462 -0.0338  0.7906 -0.4143
32427SOL     OW 1736  10.908   3.945   2.114  0.0146 -0.4663 -0.5126
32427SOL    HW1 1737  10.957   3.888   2.054 -0.8892 -0.3678 -1.3692
32427SOL    HW2 1738  10.910   4.031   2.072 -1.2255 -0.5487 -0.7628
32428SOL     OW 1739   9.096   6.453  10.938  0.9006  0.8838 -0.0157
32428SOL    HW1 1740   9.075   6.411  11.021 -0.0146 -0.0413 -0.6851
32428SOL    HW2 1741   9.129   6.382  10.883  1.3892  1.4613 -0.4761
32429SOL     OW 1742   3.675   7.228   3.100 -0.7560  0.6279  0.6375
32429SOL    HW1 1743   3.642   7.250   3.013  2.8114 -0.2502 -1.1393
32429SOL    HW2 1744   3.730   7.303   3.124 -0.3673  0.1314  1.3253
32430SOL     OW 1745   9.116   7.383   2.580  0.3790 -0.5762  0.4609
32430SOL    HW1 1746   9.113   7.417   2.491  0.3046  2.4886  1.5081
32430SOL    HW2 1747   9.137   7.290   2.570 -2.1268 -0.9450 -2.8041
32431SOL     OW 1748   1.584   7.644   1.525  0.5806  0.8684 -0.2284
32431SOL    HW1 1749   1.492   7.619   1.527  0.7858  0.0569 -0.1255
32431SOL    HW2 1750   1.611   7.629   1.435  0.9748 -0.3970  0.0682
32432SOL     OW 1751   4.377   8.409   5.020 -0.2563  0.4025  0.3849
32432SOL    HW1 1752   4.334   8.397   4.935 -1.7603 -1.5455  1.3174
32432SOL    HW2 1753   4.335   8.487   5.056 -0.3814  0.6281 -0.2278
32433SOL     OW 1754   2.086   8.547   5.602 -0.0942 -0.2169  0.2939
32433SOL    HW1 1755   2.112   8.639   5.599 -0.4228 -0.1193  0.4043
32433SOL    HW2 1756   2.116   8.511   5.519 -1.3077  0.3540 -0.4155
32434SOL     OW 1757   4.305   9.322   9.784 -0.2283  0.3984 -0.1083
32434SOL    HW1 1758   4.376   9.338   9.723 -1.3375  1.1296 -1.2623
32434SOL    HW2 1759   4.233   9.376   9.752 -0.8069  0.9673  1.9533
32435SOL     OW 1760   1.013   5.620   7.887  0.1606  0.1477  0.0695
32435SOL    HW1 1761   0.924   5.591   7.909  0.9047 -0.4814  2.6096
32435SOL    HW2 1762   1.020   5.708   7.924  0.6997  0.0625  0.1834
32436SOL     OW 1763   6.942   2.481   0.998 -0.8289 -0.5179 -0.2831
32436SOL    HW1 1764   6.980   2.557   0.954 -1.1232  0.3660  0.9361
32436SOL    HW2 1765   7.008   2.412   0.990  0.9934  0.8913  1.5352
32437SOL     OW 1766   1.245   8.255   4.727 -0.7276 -0.0886 -0.8331
32437SOL    HW1 1767   1.330   8.281   4.761 -1.3317 -0.7759  1.3306
32437SOL    HW2 1768   1.187   8.329   4.747 -1.3419 -0.9549  0.8278
32438SOL     OW 1769   2.939   7.247   2.057 -0.0363  0.2379 -0.1180
32438SOL    HW1 1770   2.872   7.276   2.118  0.5435  0.2224  0.5489
32438SOL    HW2 1771   3.013   7.306   2.074  0.9367 -1.1596  0.8078
32439SOL     OW 1772   3.960   5.228   6.831  0.1824  0.0937  0.0401
32439SOL    HW1 1773   3.868   5.247   6.810  0.7754  1.6689 -1.3773
32439SOL    HW2 1774   3.990   5.305   6.879  0.9637 -0.0704 -0.1821
32440SOL     OW 1775  10.100   2.283   6.813  0.0690 -0.0379 -0.1095
32440SOL    HW1 1776  10.054   2.203   6.789 -0.5442  0.4041 -0.4129
32440SOL    HW2 1777  10.081   2.294   6.906  0.1421 -0.2295 -0.0700
32441SOL     OW 1778   9.809   8.054   1.533 -0.4485 -0.2569  0.2429
32441SOL    HW1 1779   9.743   8.064   1.602  0.0185  0.3937  0.6013
32441SOL    HW2 1780   9.802   7.962   1.507 -0.8816 -0.4199  0.9015
32442SOL     OW 1781   3.214   3.248   7.400 -0.3366  0.2421  0.1013
32442SOL    HW1 1782   3.131   3.203   7.384 -0.6024 -0.4010  2.7952
32442SOL    HW2 1783   3.273   3.180   7.431  0.4482  1.0960  0.5371
32443SOL     OW 1784  10.542   6.505   0.409 -0.2762 -0.1378 -0.5581
32443SOL    HW1 1785  10.472   6.532   0.469 -0.3741 -3.1795  0.8481
32443SOL    HW2 1786  10.621   6.545   0.445 -0.4843 -1.1597  1.1199
32444SOL     OW 1787   7.055   7.207   6.820 -0.0931  0.0270 -0.2294
32444SOL    HW1 1788   6.965   7.221   6.789 -0.2146 -0.7956 -0.2964
32444SOL    HW2 1789   7.071   7.114   6.802  0.9888  0.3048 -0.7608
32445SOL     OW 1790   7.858   0.446   3.820 -0.4033  0.2113  0.9037
32445SOL    HW1 1791   7.838   0.504   3.893  2.0070  0.1623  1.6850
32445SOL    HW2 1792   7.940   0.403   3.845 -0.8332 -1.7165 -0.7247
32446SOL     OW 1793   0.538   9.599   9.961  0.2675  0.1483  0.0719
32446SOL    HW1 1794   0.524   9.535  10.031 -0.9950 -0.2306 -0.4976
32446SOL    HW2 1795   0.459   9.593   9.907  1.3695  0.1341 -1.6157
32447SOL     OW 1796   4.922   6.596   4.547  0.0564  0.1934  0.2277
32447SOL    HW1 1797   4.831   6.579   4.524  0.4511 -1.1206 -0.4155
32447SOL    HW2 1798   4.935   6.689   4.526 -0.3852 -0.2478 -2.2860
32448SOL     OW 1799   5.562   2.485  10.524  0.4762 -0.1498 -0.1872
32448SOL    HW1 1800   5.497   2.419  10.547  0.4270  0.0104  0.1371
32448SOL    HW2 1801   5.576   2.473  10.430  1.3331 -1.3973  0.0827
32449SOL     OW 1802   3.438   6.659   9.647  0.1050  0.1411 -0.0067
32449SOL    HW1 1803   3.409   6.735   9.597 -1.4236  0.2654  0.9804
32449SOL    HW2 1804   3.357   6.613   9.669  0.6388  0.2228  2.5006
32450SOL     OW 1805   6.069   4.744   0.620 -0.3573  0.0160  0.1677
32450SOL    HW1 1806   6.147   4.695   0.642 -0.3354 -0.3372 -0.6525
32450SOL    HW2 1807   6.101   4.829   0.591 -0.2941 -0.0544  0.0329
32451SOL     OW 1808  10.393   6.842   6.197 -0.0771 -0.5560 -0.3553
32451SOL    HW1 1809  10.375   6.813   6.286  1.9029  0.2021  0.3291
32451SOL    HW2 1810  10.358   6.772   6.141 -1.1575 -1.1335  0.9944
32452SOL     OW 1811   1.675   0.970   6.829 -0.7434  0.0506 -0.1463
32452SOL    HW1 1812   1.614   0.897   6.828  1.5260 -1.9752 -1.1394
32452SOL    HW2 1813   1.684   0.995   6.737  0.6677 -0.4031 -0.1570
32453SOL     OW 1814   0.094   8.813   5.477 -0.8899 -0.4825  0.5800
32453SOL    HW1 1815   0.140   8.811   5.561  0.1537 -1.3640  0.0062
32453SOL    HW2 1816   0.001   8.805   5.501 -0.9755  2.7709  1.8488
32454SOL     OW 1817   8.646   9.868   9.925  0.0519 -0.7508 -0.7401
32454SOL    HW1 1818   8.739   9.852   9.940  0.4566 -0.5052 -2.7290
32454SOL    HW2 1819   8.629   9.834   9.838 -0.9949  1.9130 -1.7007
32455SOL     OW 1820   7.829   8.777   4.475  0.6080 -0.1388  0.0585
32455SOL    HW1 1821   7.762   8.711   4.455 -0.3266  0.8560 -0.1848
32455SOL    HW2 1822   7.814   8.847   4.411  2.2002 -0.1009 -0.3078
32456SOL     OW 1823   9.679   0.876   2.851  0.4914  0.1571  0.0640
32456SOL    HW1 1824   9.620   0.938   2.894 -1.6814 -0.7434 -1.4194
32456SOL    HW2 1825   9.748   0.931   2.813  0.3122  1.3138  1.3297
32457SOL     OW 1826   4.617   7.333   8.646 -0.4171 -0.1495  0.3244
32457SOL    HW1 1827   4.656   7.374   8.723 -1.9944  2.1639  0.0090
32457SOL    HW2 1828   4.628   7.397   8.576  0.5685 -2.0008 -1.3104
32458SOL     OW 1829   7.580   5.231   2.595  0.1328  0.5621  0.9768
32458SOL    HW1 1830   7.504   5.227   2.536  0.9381 -0.8171 -0.0180
32458SOL    HW2 1831   7.650   5.266   2.541  0.3808  1.2401  1.7191
32459SOL     OW 1832   0.556   4.200   0.199  0.0184  0.7786 -0.2049
32459SOL    HW1 1833   0.538   4.249   0.280  0.3451 -0.0943  0.4127
32459SOL    HW2 1834   0.596   4.264   0.141 -0.3705  1.4635  0.2615
32460SOL     OW 1835  10.959   5.650   3.454  0.2747 -1.1764  0.5803
32460SOL    HW1 1836  10.902   5.655   3.377  2.0443  0.7220 -0.7074
32460SOL    HW2 1837  11.025   5.718   3.440  1.2479 -1.4170  3.3378
32461SOL     OW 1838   5.199   0.653  10.817  0.2619  0.0716  0.8945
32461SOL    HW1 1839   5.290   0.670  10.842  0.6172 -0.9987  0.3892
32461SOL    HW2 1840   5.160   0.740  10.808  1.6372  0.6013 -0.3109
32462SOL     OW 1841   4.700  11.071   8.860  0.3849 -0.1431 -0.0258
32462SOL    HW1 1842   4.724  11.018   8.936 -0.3461 -1.4525 -0.6865
32462SOL    HW2 1843   4.707  11.161   8.891  2.5030 -0.5514  0.8812
32463SOL     OW 1844   0.934  10.733   4.990  0.0286  0.8222  0.4221
32463SOL    HW1 1845   0.913  10.640   4.999  0.9258  0.6427  0.6763
32463SOL    HW2 1846   0.855  10.771   4.952 -0.5749  0.0647  0.8842
32464SOL     OW 1847   0.513   1.865   5.464  0.2315  0.7748  0.1757
32464SOL    HW1 1848   0.475   1.906   5.542  1.8830  1.0415  0.8940
32464SOL    HW2 1849   0.585   1.812   5.498 -0.0222 -0.3933 -1.0395
32465SOL     OW 1850   4.230   4.951   1.097  0.1430  0.1828 -0.0985
32465SOL    HW1 1851   4.176   4.894   1.042  0.6931 -0.5475  0.1115
32465SOL    HW2 1852   4.181   4.958   1.179  1.0417 -1.6837  0.6413
32466SOL     OW 1853   6.581   5.865   6.972 -0.1216 -0.1636 -0.2718
32466SOL    HW1 1854   6.618   5.918   7.042 -1.6671 -0.2794  0.6891
32466SOL    HW2 1855   6.599   5.914   6.892  1.4292  0.1076  0.2137
32467SOL     OW 1856   7.847   1.795   7.418 -0.4210 -0.0877 -0.0160
32467SOL    HW1 1857   7.910   1.833   7.479 -0.0790 -1.2704  0.3829
32467SOL    HW2 1858   7.900   1.765   7.345 -0.6419 -0.1827 -0.1387
32468SOL     OW 1859  10.852   7.474   5.784  0.3763 -0.0470 -0.1907
32468SOL    HW1 1860  10.883   7.542   5.844 -0.6905 -0.7069  1.1746
32468SOL    HW2 1861  10.891   7.393   5.816  1.5567 -0.1381 -1.7429
32469SOL     OW 1862   2.126   4.475   7.203  0.2151  0.3097  0.3343
32469SOL    HW1 1863   2.035   4.459   7.177  0.0333  1.2147  0.3896
32469SOL    HW2 1864   2.119   4.523   7.285  0.7319  0.9277  0.0236
32470SOL     OW 1865   9.075  10.051   9.917 -0.0537 -0.1378  0.1404
32470SOL    HW1 1866   9.169  10.062   9.924 -0.1930  1.9295 -0.3688
32470SOL    HW2 1867   9.062   9.996   9.840  0.7317 -1.4114  0.8896
32471SOL     OW 1868   0.713   6.542   9.719 -0.5199  0.3549 -0.1342
32471SOL    HW1 1869   0.664   6.497   9.650 -0.9874  0.5554  0.0559
32471SOL    HW2 1870   0.770   6.603   9.672 -1.1195  0.7707 -0.3346
32472SOL     OW 1871   7.550   1.618   6.220  0.6249 -0.1322 -0.2479
32472SOL    HW1 1872   7.628   1.578   6.181  0.7002 -0.9728  0.7235
32472SOL    HW2 1873   7.547   1.584   6.309  0.5326  1.8449  0.5624
32473SOL     OW 1874   0.727   1.167   4.306  0.0688 -0.1663  0.8580
32473SOL    HW1 1875   0.786   1.227   4.352 -2.6206  1.9023  1.9308
32473SOL    HW2 1876   0.775   1.140   4.228  2.2037  1.7303  1.4140
32474SOL     OW 1877   9.051   2.047   1.661  0.3194 -0.1618  0.3596
32474SOL    HW1 1878   9.068   2.110   1.590 -0.8256  1.0261  1.1101
32474SOL    HW2 1879   8.961   2.017   1.646  0.1909 -0.1685  1.1074
32475SOL     OW 1880   1.625   9.329   7.368 -0.2702 -0.0395  0.2137
32475SOL    HW1 1881   1.540   9.334   7.324 -1.8278  0.2242  3.0174
32475SOL    HW2 1882   1.642   9.418   7.398  0.2646 -0.3921  0.9774
32476SOL     OW 1883   9.071   5.702   7.265 -0.2147  0.3519  0.5508
32476SOL    HW1 1884   8.989   5.653   7.259 -0.9411  1.4208  1.3243
32476SOL    HW2 1885   9.136   5.637   7.290 -0.9299 -0.4140  0.4823
32477SOL     OW 1886   8.150   5.093   8.723 -0.0288  0.5198 -0.3286
32477SOL    HW1 1887   8.129   5.012   8.676 -1.0178 -0.1081  1.1489
32477SOL    HW2 1888   8.065   5.128   8.752  0.5852  0.3848  1.7794
32478SOL     OW 1889   3.848   4.434   7.632  0.2253 -0.5673 -0.3207
32478SOL    HW1 1890   3.836   4.366   7.566  0.2153 -0.8417 -0.0401
32478SOL    HW2 1891   3.917   4.399   7.689  0.7223 -0.0276 -0.5849
32479SOL     OW 1892   8.647   0.233   8.550 -0.1661 -0.5588 -0.2935
32479SOL    HW1 1893   8.674   0.296   8.617 -1.9797  1.1163 -1.0403
32479SOL    HW2 1894   8.554   0.219   8.566 -0.2876 -1.3111 -1.5115
32480SOL     OW 1895   0.621   3.914  10.129  0.5098 -0.5506 -0.5301
32480SOL    HW1 1896   0.587   3.996  10.164  1.2803 -0.8690  1.0603
32480SOL    HW2 1897   0.684   3.884  10.195 -0.0639 -2.6236 -0.8405
32481SOL     OW 1898   7.756   3.450   4.554 -0.5792  0.0954  0.4014
32481SOL    HW1 1899   7.725   3.378   4.499 -0.7831  0.2187  0.3560
32481SOL    HW2 1900   7.810   3.407   4.621  0.4922  0.0345 -0.4652
32482SOL     OW 1901   1.871   5.882   8.481 -0.1167  0.1086  0.0670
32482SOL    HW1 1902   1.899   5.933   8.405  0.6626 -0.6981 -0.2085
32482SOL    HW2 1903   1.950   5.874   8.535 -0.5145  0.1605  0.6680
32483SOL     OW 1904   3.607   6.704   0.505  0.5159  0.1086 -0.1929
32483SOL    HW1 1905   3.574   6.768   0.442 -0.5854  0.1899  0.4319
32483SOL    HW2 1906   3.593   6.745   0.590 -1.3905 -1.4124  0.3113
32484SOL     OW 1907   9.452   8.740   0.583 -0.0187 -0.2770  0.3847
32484SOL    HW1 1908   9.421   8.816   0.631 -0.0911  0.6141 -1.0125
32484SOL    HW2 1909   9.548   8.746   0.587 -0.0234  0.0964 -0.0321
32485SOL     OW 1910   3.458   5.401   7.945  0.1349 -0.0024  0.4260
32485SOL    HW1 1911   3.427   5.439   7.862 -0.4644 -1.7525 -0.1917
32485SOL    HW2 1912   3.543   5.443   7.960  0.4555  0.0365 -1.3069
32486SOL     OW 1913  10.380   7.820  10.205 -0.5059 -0.1679 -0.4422
32486SOL    HW1 1914  10.338   7.784  10.127 -0.2641 -1.2862 -0.0846
32486SOL    HW2 1915  10.383   7.746  10.266  1.7138 -0.0535 -0.3399
32487SOL     OW 1916   0.480   1.232   1.213  0.0203 -0.2176  0.3485
32487SOL    HW1 1917   0.511   1.207   1.300 -0.4974  0.1674  0.6477
32487SOL    HW2 1918   0.462   1.326   1.220  0.3235 -0.1074 -0.2803
32488SOL     OW 1919   5.168   1.786   2.313  0.3550 -0.3174 -0.2405
32488SOL    HW1 1920   5.201   1.787   2.403 -0.2108  1.5132 -0.0012
32488SOL    HW2 1921   5.247   1.778   2.259  0.9300  0.7467  0.3935
32489SOL     OW 1922   9.468   6.108   2.680  1.0398  0.6661 -0.5661
32489SOL    HW1 1923   9.402   6.120   2.748  0.1992  0.4059 -1.3167
32489SOL    HW2 1924   9.533   6.049   2.718  0.5222  0.4370 -0.0386
32490SOL     OW 1925   8.858   2.806   1.482 -0.3298  0.6192  0.6599
32490SOL    HW1 1926   8.791   2.847   1.427  0.0525 -0.1711 -0.4327
32490SOL    HW2 1927   8.809   2.754   1.545 -0.7549  0.2552  0.0398
32491SOL     OW 1928   2.854   9.198   9.870  0.2083  0.5972  0.1179
32491SOL    HW1 1929   2.806   9.212   9.789 -1.2472 -1.2810  0.5609
32491SOL    HW2 1930   2.880   9.285   9.899 -0.8344  1.4557 -1.4076
32492SOL     OW 1931   6.109   0.496   8.917 -0.3315 -0.0097 -0.1949
32492SOL    HW1 1932   6.203   0.506   8.934  0.4240 -0.6426 -3.3863
32492SOL    HW2 1933   6.068   0.509   9.002  2.7112 -0.8965  1.5591
32493SOL     OW 1934  10.791   5.113   6.226  0.1561 -0.3477 -0.1630
32493SOL    HW1 1935  10.725   5.178   6.248 -0.1594 -1.2418  1.7111
32493SOL    HW2 1936  10.867   5.135   6.279  0.8953 -0.1465 -1.2718
32494SOL     OW 1937   8.253   9.958   0.993 -0.7734 -0.0718 -0.0501
32494SOL    HW1 1938   8.232   9.970   1.085 -0.3412 -0.3957  0.0912
32494SOL    HW2 1939   8.346   9.934   0.992 -1.0182 -1.0299 -0.4974
32495SOL     OW 1940   8.783  10.055  10.412  0.2456 -0.3705  0.4373
32495SOL    HW1 1941   8.711  10.116  10.394  0.8176  0.1406 -0.1991
32495SOL    HW2 1942   8.823  10.040  10.326  1.9370  0.6820  0.9986
32496SOL     OW 1943  10.448   8.879   8.708 -0.5749  0.4974  0.0425
32496SOL    HW1 1944  10.395   8.953   8.739 -1.7361 -0.8568  1.4550
32496SOL    HW2 1945  10.538   8.906   8.725 -0.9428  1.7758  0.0979
32497SOL     OW 1946  10.311   8.828   1.155 -0.2060 -0.4648 -0.8320
32497SOL    HW1 1947  10.297   8.859   1.245 -0.8712 -2.0386 -0.3565
32497SOL    HW2 1948  10.256   8.884   1.101  1.6821  1.8196 -0.5594
32498SOL     OW 1949   1.007   7.142   5.943 -0.3166  0.0092  0.4166
32498SOL    HW1 1950   1.053   7.171   5.864  0.3789 -3.0160 -0.4088
32498SOL    HW2 1951   1.067   7.162   6.014  3.2232 -4.7856 -0.7059
32499SOL     OW 1952   3.727   2.370   0.275  0.4520  0.6934  0.4597
32499SOL    HW1 1953   3.703   2.447   0.222  2.0500  1.1449  0.3428
32499SOL    HW2 1954   3.768   2.310   0.213 -0.0208  0.0871  0.7198
32500SOL     OW 1955  10.788   7.527   1.169 -0.2341 -0.2297  0.3538
32500SOL    HW1 1956  10.774   7.588   1.097 -1.1708 -1.6015 -0.6908
32500SOL    HW2 1957  10.775   7.579   1.248 -3.6781  0.4338 -0.4790
32501SOL     OW 1958   2.262   9.893   2.111  0.0186 -0.1860  0.4174
32501SOL    HW1 1959   2.238   9.804   2.084  2.4824 -1.3354  1.7528
32501SOL    HW2 1960   2.356   9.889   2.126 -0.1980  1.9465  3.0797
32502SOL     OW 1961   8.491   3.448   4.899  0.4872 -0.5520 -0.4749
32502SOL    HW1 1962   8.494   3.424   4.807  0.2653  1.4756 -1.0488
32502SOL    HW2 1963   8.555   3.518   4.909  1.3240 -1.4725  1.1895
32503SOL     OW 1964  10.158   8.513   2.938  0.7272 -0.0243  0.0881
32503SOL    HW1 1965  10.248   8.519   2.905  1.2588 -2.2233  0.9075
32503SOL    HW2 1966  10.167   8.467   3.022 -1.0403  1.1141  0.9659
32504SOL     OW 1967   2.911   1.861   3.423  0.1274 -0.1797  0.1464
32504SOL    HW1 1968   2.835   1.820   3.381 -0.0512 -0.2171  0.5082
32504SOL    HW2 1969   2.966   1.889   3.349 -0.3194  0.0076 -0.1183
32505SOL     OW 1970   6.248  10.455   5.141  0.3580  0.5068  0.0432
32505SOL    HW1 1971   6.213  10.458   5.230 -2.9712  0.8810 -1.1281
32505SOL    HW2 1972   6.175  10.423   5.088  2.3501 -0.1123 -2.5245
32506SOL     OW 1973   7.087   0.820   5.647 -0.0081  0.1455 -0.5559
32506SOL    HW1 1974   7.023   0.833   5.577  0.1770 -0.4449 -0.8425
32506SOL    HW2 1975   7.041   0.770   5.714  0.8432 -2.6661 -1.9001
32507SOL     OW 1976   3.588  10.752   0.372 -0.3742  0.1154 -0.4113
32507SOL    HW1 1977   3.577  10.843   0.399 -1.0006  0.6426 -2.2804
32507SOL    HW2 1978   3.508  10.708   0.401 -0.9102  0.6026 -1.1123
32508SOL     OW 1979   4.394   7.260   2.472 -0.1743  0.1829 -0.0663
32508SOL    HW1 1980   4.384   7.329   2.538 -0.8003 -0.8764  0.9773
32508SOL    HW2 1981   4.315   7.267   2.419  0.0151  0.6033 -0.3013
32509SOL     OW 1982   9.751   2.471   0.754  0.3173  0.1784  0.0669
32509SOL    HW1 1983   9.676   2.525   0.727  0.0652 -0.4408 -0.4999
32509SOL    HW2 1984   9.828   2.522   0.728  0.1162  0.9570  0.9219
32510SOL     OW 1985   6.472   3.931   9.683 -0.2670 -0.2734  0.0960
32510SOL    HW1 1986   6.517   3.921   9.767 -0.3754  0.8722  0.3072
32510SOL    HW2 1987   6.380   3.916   9.703 -0.5129  1.5887  0.5383
32511SOL     OW 1988   2.229   7.929   9.457  0.0450 -0.7974 -0.3149
32511SOL    HW1 1989   2.208   7.986   9.532  2.5055  1.0519 -0.9091
32511SOL    HW2 1990   2.148   7.926   9.407 -0.8704  0.1780  1.0151
32512SOL     OW 1991   0.711   9.504   8.174 -0.7653  0.3394  0.1224
32512SOL    HW1 1992   0.778   9.525   8.239 -0.0357  0.0109 -0.5066
32512SOL    HW2 1993   0.701   9.585   8.123 -2.0710  0.9307  1.2425
32513SOL     OW 1994  10.169   8.526   8.149 -0.2203 -0.1676 -0.1318
32513SOL    HW1 1995  10.150   8.619   8.160 -0.5332 -0.2098 -0.3001
32513SOL    HW2 1996  10.208   8.499   8.232  1.1741  0.4278 -0.5548
32514SOL     OW 1997  10.932   5.179   9.006  0.1854 -0.3447  0.1155
32514SOL    HW1 1998  10.963   5.115   9.070 -0.2556 -0.8850 -0.2046
32514SOL    HW2 1999  10.962   5.264   9.040  2.4279 -0.8551 -0.4344
32515SOL     OW 2000   9.673   6.605   1.787  0.0321 -0.0352 -0.7495
32515SOL    HW1 2001   9.682   6.516   1.752  2.0343  0.4790 -1.7002
32515SOL    HW2 2002   9.730   6.606   1.864  0.7331  0.6326 -1.2540
32516SOL     OW 2003   6.126   1.335   7.433  0.1719 -0.1486  0.0268
32516SOL    HW1 2004   6.191   1.288   7.485 -0.2030 -0.5692  0.1149
32516SOL    HW2 2005   6.059   1.271   7.414  1.1063 -0.5285 -2.4283
32517SOL     OW 2006   3.228   4.922   6.907  0.2642  0.3069  0.0296
32517SOL    HW1 2007   3.226   4.963   6.821 -0.6154  1.7878  0.7084
32517SOL    HW2 2008   3.150   4.956   6.951 -0.8931 -2.6223  0.4530
32518SOL     OW 2009   2.020   0.368   7.592 -0.4157  0.4307 -0.7776
32518SOL    HW1 2010   2.094   0.428   7.581  0.3910 -0.5114 -0.6188
32518SOL    HW2 2011   2.052   0.284   7.559 -0.6181 -0.5606  1.3733
32519SOL     OW 2012   5.153   4.368   1.403  0.3311  0.0281  0.3011
32519SOL    HW1 2013   5.188   4.366   1.314  3.4761  2.3606  1.2992
32519SOL    HW2 2014   5.117   4.456   1.413 -0.2435 -0.2996  1.2578
32520SOL     OW 2015   2.274   6.132  10.535  0.2836 -0.2184 -0.4228
32520SOL    HW1 2016   2.330   6.081  10.594  1.0506  0.2532 -0.7215
32520SOL    HW2 2017   2.188   6.130  10.576  0.4764 -1.0912 -0.0255
32521SOL     OW 2018   7.743   1.414   0.420  0.4246  0.4216 -0.6547
32521SOL    HW1 2019   7.696   1.473   0.479  1.4131  2.8438 -2.1594
32521SOL    HW2 2020   7.698   1.422   0.337  1.9679  0.9071 -1.4861
32522SOL     OW 2021   4.374   4.173   6.718  0.5292  0.1712 -0.4945
32522SOL    HW1 2022   4.457   4.127   6.733  0.8420 -0.3959 -3.3681
32522SOL    HW2 2023   4.396   4.265   6.727  0.6044 -0.0382  2.2458
32523SOL     OW 2024   1.214   6.973   9.594  0.0194 -0.3097 -0.0078
32523SOL    HW1 2025   1.225   7.051   9.648 -0.8427  0.8997 -1.4814
32523SOL    HW2 2026   1.150   7.000   9.527  0.1428 -2.1060 -0.8927
32524SOL     OW 2027   7.657   0.589   4.599  0.4345 -0.5459  0.3108
32524SOL    HW1 2028   7.649   0.661   4.661 -0.0670 -1.9676  1.9977
32524SOL    HW2 2029   7.702   0.520   4.649  2.2095 -0.9240 -1.6837
32525SOL     OW 2030   7.214   6.356  10.479 -0.4261 -0.4029 -0.2219
32525SOL    HW1 2031   7.283   6.380  10.541 -0.6648 -1.4029  0.4493
32525SOL    HW2 2032   7.241   6.397  10.397  0.0527  0.6835  0.4597
32526SOL     OW 2033   4.435   8.085   7.493  0.3878  0.2226  0.5370
32526SOL    HW1 2034   4.400   8.006   7.452 -1.2522 -0.2245  2.5642
32526SOL    HW2 2035   4.452   8.059   7.584 -1.2758  2.3947  1.5767
32527SOL     OW 2036   7.651   1.252   4.433 -0.7232  0.2214  0.0366
32527SOL    HW1 2037   7.674   1.290   4.348  2.4251  0.2651  0.7839
32527SOL    HW2 2038   7.654   1.158   4.418  1.3251  0.2032  0.3869
32528SOL     OW 2039   1.648  10.187   1.256  0.1655  0.3884  0.1352
32528SOL    HW1 2040   1.676  10.104   1.217 -0.3992 -0.9203  2.3672
32528SOL    HW2 2041   1.555  10.193   1.236 -0.3996 -0.8685  2.1212
32529SOL     OW 2042   2.219   4.180   7.441 -0.0473 -0.0437 -0.4162
32529SOL    HW1 2043   2.147   4.218   7.491  0.9041  1.5984 -0.2345
32529SOL    HW2 2044   2.290   4.171   7.503 -0.1126 -1.8016 -0.5605
32530SOL     OW 2045   6.944   8.708   0.091 -0.3675  0.2602 -0.2043
32530SOL    HW1 2046   6.952   8.723   0.185  0.5172 -2.0385  0.1571
32530SOL    HW2 2047   6.862   8.750   0.067 -0.6221  0.8853  1.5830
32531SOL     OW 2048   5.108   2.744   7.895  0.0240  0.6163 -0.9837
32531SOL    HW1 2049   5.093   2.661   7.940 -2.5808  1.3395 -0.3821
32531SOL    HW2 2050   5.108   2.809   7.964 -3.4435  1.6865 -1.8236
32532SOL     OW 2051  10.987   5.084   4.270  0.6104  0.1922  0.3096
32532SOL    HW1 2052  11.071   5.084   4.316  0.8140 -1.7470  0.0252
32532SOL    HW2 2053  10.940   5.010   4.307 -0.3328  0.2746 -0.6728
32533SOL     OW 2054   4.802   2.506   7.892  0.4392  0.0719  0.0100
32533SOL    HW1 2055   4.818   2.589   7.847 -0.8761 -1.1232 -2.8945
32533SOL    HW2 2056   4.888   2.467   7.903  0.8203  0.3318 -1.7753
32534SOL     OW 2057   8.114  10.018   8.188  0.0233 -0.4346 -0.3369
32534SOL    HW1 2058   8.158  10.097   8.221  0.3688 -0.6700 -0.2234
32534SOL    HW2 2059   8.097   9.965   8.266 -1.4327  0.1238 -0.2539
32535SOL     OW 2060   9.765   6.367   4.075 -0.1214  0.1856 -0.1329
32535SOL    HW1 2061   9.829   6.338   4.140 -0.1644  2.5288  1.0515
32535SOL    HW2 2062   9.766   6.298   4.008  0.1341 -2.2093  2.1612
32536SOL     OW 2063  10.518   5.013   0.545 -0.2608  0.4359 -0.2368
32536SOL    HW1 2064  10.604   4.972   0.556 -0.6811 -0.1039  1.3335
32536SOL    HW2 2065  10.500   5.007   0.451  0.3443 -1.6771 -0.2687
32537SOL     OW 2066   1.131  10.554   8.162  0.3842 -0.2168  0.1219
32537SOL    HW1 2067   1.045  10.595   8.166  0.5714  0.1503  0.4558
32537SOL    HW2 2068   1.128  10.484   8.226 -0.1267 -1.1116 -0.8453
32538SOL     OW 2069   7.024   0.966   4.923  0.5225  0.6407 -0.7798
32538SOL    HW1 2070   6.997   0.982   5.013  1.3644 -2.3709  0.1285
32538SOL    HW2 2071   6.942   0.953   4.875  0.0867  1.6452 -0.3207
32539SOL     OW 2072   2.065   7.779   5.106 -0.7914 -0.2839 -0.6595
32539SOL    HW1 2073   2.066   7.776   5.202 -1.0209 -1.2840 -0.6810
32539SOL    HW2 2074   2.156   7.763   5.081 -0.6734  0.2768 -0.6127
32540SOL     OW 2075   2.698   1.233   7.683 -0.2107 -0.1470  0.1234
32540SOL    HW1 2076   2.623   1.231   7.623 -0.8127 -2.0092  0.8759
32540SOL    HW2 2077   2.721   1.141   7.695  0.7064  0.2641  1.7634
32541SOL     OW 2078  10.498   0.286   7.727 -0.2427  0.6100 -0.1773
32541SOL    HW1 2079  10.445   0.271   7.648 -0.6472 -0.6397  0.3083
32541SOL    HW2 2080  10.434   0.295   7.797  0.1213  1.6799  0.0239
32542SOL     OW 2081   9.015   0.815   5.848 -0.2559  0.6454  0.1989
32542SOL    HW1 2082   9.080   0.747   5.860  0.1289  1.1895  1.3382
32542SOL    HW2 2083   9.032   0.850   5.760  0.8974  0.6878  0.4320
32543SOL     OW 2084   8.512   3.059   5.706 -0.3860 -0.4940 -0.2564
32543SOL    HW1 2085   8.512   3.089   5.796 -0.6775  0.0110 -0.4186
32543SOL    HW2 2086   8.572   2.985   5.705 -1.8201 -1.7442  0.7493
32544SOL     OW 2087   0.788   6.502   5.479 -0.1647 -0.4435  0.1864
32544SOL    HW1 2088   0.717   6.566   5.487  0.3955  0.1575  0.4938
32544SOL    HW2 2089   0.771   6.458   5.396  0.2212  1.1108 -0.7767
32545SOL     OW 2090   9.661   9.975   2.295  0.4399  0.4734 -0.3174
32545SOL    HW1 2091   9.612   9.897   2.268 -0.6151 -0.3978  3.4387
32545SOL    HW2 2092   9.745   9.942   2.325 -0.2732  0.5346  1.9740
32546SOL     OW 2093   1.939   9.997   0.320  0.3550 -0.3642 -0.1078
32546SOL    HW1 2094   1.980  10.038   0.244  0.6889  1.8432  1.1811
32546SOL    HW2 2095   2.006   9.937   0.354  1.0626  0.3410 -0.2391
32547SOL     OW 2096   7.381   2.897  10.051  0.4955  0.4222 -0.1426
32547SOL    HW1 2097   7.302   2.922  10.098  0.5588  1.2374 -0.4631
32547SOL    HW2 2098   7.453   2.922  10.108  0.5328 -0.6607  0.3160
32548SOL     OW 2099   3.512   0.533   3.475  0.0261  0.8845 -0.4485
32548SOL    HW1 2100   3.587   0.581   3.512  1.2939  0.6230 -2.4962
32548SOL    HW2 2101   3.438   0.560   3.528  1.9655 -1.3138  3.8703
32549SOL     OW 2102   8.476   5.270   9.037 -0.2320  0.1922 -0.3724
32549SOL    HW1 2103   8.531   5.331   8.988 -0.5946 -0.4002 -1.5674
32549SOL    HW2 2104   8.387   5.288   9.006 -0.4529 -0.2955 -0.0319
32550SOL     OW 2105   2.198   2.562   3.993 -0.0975 -0.3835  0.6508
32550SOL    HW1 2106   2.194   2.467   3.987  1.5009 -0.4286 -0.2611
32550SOL    HW2 2107   2.258   2.588   3.923 -0.3177  1.2775  1.0366
32551SOL     OW 2108   6.869   9.769   3.305 -0.1205 -0.2370 -0.4165
32551SOL    HW1 2109   6.859   9.734   3.217  1.6335 -0.3165 -0.6192
32551SOL    HW2 2110   6.957   9.743   3.331 -0.0187  1.1570  0.7518
32552SOL     OW 2111   7.887   0.846  10.988 -0.1283  0.2248 -0.5200
32552SOL    HW1 2112   7.894   0.779  10.919  0.4324  1.0235 -1.2660
32552SOL    HW2 2113   7.931   0.923  10.951 -0.0677  0.7654  0.6290
32553SOL     OW 2114   4.301   9.581   3.248 -0.3572 -0.0823 -0.1042
32553SOL    HW1 2115   4.349   9.645   3.196 -0.1809  0.1857  0.3733
32553SOL    HW2 2116   4.237   9.544   3.189 -1.1313  1.2560 -0.1335
32554SOL     OW 2117   8.094   5.428   2.255 -0.2161 -0.1061 -0.0157
32554SOL    HW1 2118   8.189   5.438   2.264 -0.0182 -0.7611 -1.1525
32554SOL    HW2 2119   8.066   5.390   2.338  0.4507  0.4909  0.4939
32555SOL     OW 2120   7.716   5.199   2.089  0.7365 -0.5455  0.5097
32555SOL    HW1 2121   7.754   5.147   2.160  1.2860  1.6814  1.9272
32555SOL    HW2 2122   7.733   5.290   2.114 -0.2697  0.3501 -1.8236
32556SOL     OW 2123   7.976   2.164   8.343  0.0827 -0.0868  0.2130
32556SOL    HW1 2124   7.952   2.211   8.423  0.0029 -1.9634  1.3706
32556SOL    HW2 2125   8.071   2.173   8.338  0.3487 -1.5424  1.6668
32557SOL     OW 2126   1.103   5.798   4.536  0.3219 -0.4381  0.1388
32557SOL    HW1 2127   1.120   5.781   4.443 -0.6966 -0.5865 -0.0333
32557SOL    HW2 2128   1.069   5.887   4.538  0.3859 -0.4198  0.3731
32558SOL     OW 2129   0.717  10.810   6.697 -1.2442 -0.0486  0.3293
32558SOL    HW1 2130   0.630  10.844   6.717 -1.7796 -1.9493  1.4169
32558SOL    HW2 2131   0.742  10.760   6.774  1.5913  1.8202  0.7634
32559SOL     OW 2132   6.148   2.334   2.959 -0.3099  0.0930 -0.0226
32559SOL    HW1 2133   6.113   2.263   2.905  2.7631 -0.2005 -1.8056
32559SOL    HW2 2134   6.083   2.344   3.030 -2.5783 -2.0784 -1.6236
32560SOL     OW 2135   5.753   9.663   2.575 -0.3502 -0.0838 -0.7615
32560SOL    HW1 2136   5.673   9.672   2.628 -1.2537 -3.7128 -1.2561
32560SOL    HW2 2137   5.822   9.644   2.639 -0.7647 -1.1400 -0.6155
32561SOL     OW 2138   9.643   2.716   8.014  0.0938 -0.5498 -0.1851
32561SOL    HW1 2139   9.618   2.794   8.064  1.1850 -0.8394  0.8506
32561SOL    HW2 2140   9.723   2.685   8.056  2.0341  0.1155 -3.1268
32562SOL     OW 2141   1.208  10.762   8.015  0.4620 -0.7057  0.0392
32562SOL    HW1 2142   1.224  10.734   7.925  1.2119  0.5021 -0.2342
32562SOL    HW2 2143   1.187  10.681   8.062  0.8377 -1.4653 -1.0506
32563SOL     OW 2144   7.772   5.463   8.119  0.0904  0.1816  0.0862
32563SOL    HW1 2145   7.704   5.524   8.090 -0.7188 -1.1147 -0.8704
32563SOL    HW2 2146   7.726   5.380   8.132  1.3388 -0.4954  0.3283
32564SOL     OW 2147   6.199   3.983   4.990 -0.1193 -0.1667  0.6641
32564SOL    HW1 2148   6.110   3.975   4.956 -0.0824  3.0098 -0.5224
32564SOL    HW2 2149   6.255   3.958   4.916  0.0392 -1.5773  1.2221
32565SOL     OW 2150   3.111  10.471   8.708  0.4510  0.1871  0.0343
32565SOL    HW1 2151   3.119  10.471   8.804 -0.0522 -0.1555  0.0787
32565SOL    HW2 2152   3.023  10.504   8.691 -0.2935 -1.7645 -0.2172
32566SOL     OW 2153   8.589   5.078  10.324 -0.3495 -0.3606  0.1893
32566SOL    HW1 2154   8.573   5.125  10.406 -0.2161  1.0319 -0.5508
32566SOL    HW2 2155   8.668   5.119  10.288 -0.5659 -0.7581 -0.7718
32567SOL     OW 2156   7.214   8.146   5.565 -0.3167  0.0995  0.1338
32567SOL    HW1 2157   7.135   8.164   5.617 -0.5544 -0.7025  0.0528
32567SOL    HW2 2158   7.286   8.153   5.627 -0.4777  0.5123  0.2782
32568SOL     OW 2159   0.257   1.547   3.067 -0.1177 -0.5888  0.5940
32568SOL    HW1 2160   0.188   1.599   3.109 -0.0815  1.8229 -2.0401
32568SOL    HW2 2161   0.338   1.577   3.108 -0.1685  1.0052 -0.3942
32569SOL     OW 2162   7.680   3.266   0.701 -0.4027 -0.3356 -0.7003
32569SOL    HW1 2163   7.727   3.184   0.683 -0.1583 -0.2476 -0.4683
32569SOL    HW2 2164   7.610   3.268   0.636 -0.4020 -0.7243 -0.7182
32570SOL     OW 2165   8.071   5.773   3.125 -0.3504  0.0914 -0.1661
32570SOL    HW1 2166   8.143   5.758   3.186  1.4736 -1.3820 -2.5108
32570SOL    HW2 2167   8.102   5.842   3.067 -1.3707  0.3305 -0.4483
32571SOL     OW 2168  10.298   8.796  10.524 -0.3225 -0.5899 -0.2288
32571SOL    HW1 2169  10.239   8.862  10.560 -0.7888 -0.7052 -0.7763
32571SOL    HW2 2170  10.330   8.749  10.601 -0.1193  0.1541  0.1513
32572SOL     OW 2171   3.904   9.411   3.390 -0.5660  0.0342 -0.1752
32572SOL    HW1 2172   3.840   9.370   3.449 -0.0348 -1.0533 -0.3374
32572SOL    HW2 2173   3.988   9.373   3.416 -0.1722  0.4097 -0.8848
32573SOL     OW 2174   0.496   6.375  11.006 -0.4913 -0.2277  0.0586
32573SOL    HW1 2175   0.489   6.292  11.052 -1.5913 -0.7268 -0.9854
32573SOL    HW2 2176   0.434   6.369  10.934  0.6536  0.8199 -1.0780
32574SOL     OW 2177   0.025   2.605   9.312 -0.0918  0.1361  0.6580
32574SOL    HW1 2178   0.003   2.684   9.264  2.0336  0.6082  0.4062
32574SOL    HW2 2179   0.000   2.624   9.403 -0.2657  0.7942  0.4727
32575SOL     OW 2180   9.312   9.602   5.311 -0.5274  0.3280 -0.0452
32575SOL    HW1 2181   9.364   9.540   5.361 -0.9152  0.5512  0.6459
32575SOL    HW2 2182   9.376   9.660   5.270 -0.2269  0.8747  1.1534
32576SOL     OW 2183   6.307   0.220   9.227  0.4595 -0.1319  0.3357
32576SOL    HW1 2184   6.318   0.264   9.312 -1.0898 -1.6044  1.3574
32576SOL    HW2 2185   6.224   0.253   9.194 -0.1045 -1.3221  0.5304
32577SOL     OW 2186   7.893   1.898  10.806 -0.4233 -0.3713  0.7069
32577SOL    HW1 2187   7.962   1.898  10.740 -0.3467 -0.5248  0.7866
32577SOL    HW2 2188   7.917   1.827  10.866 -1.7817 -1.8463 -0.4314
32578SOL     OW 2189   7.803   2.648   8.097 -0.1569  0.3257 -0.1116
32578SOL    HW1 2190   7.801   2.624   8.005  1.7138  0.7436 -0.3147
32578SOL    HW2 2191   7.810   2.565   8.144 -0.5386  0.1435 -0.3793
32579SOL     OW 2192   1.641   0.706   1.546 -0.0536 -0.3127  1.2265
32579SOL    HW1 2193   1.653   0.796   1.514  1.3772 -0.7235  0.5666
32579SOL    HW2 2194   1.723   0.684   1.589 -0.6679 -1.0588  2.0686
32580SOL     OW 2195   3.339   7.738   1.699  0.4526  0.0547 -0.3118
32580SOL    HW1 2196   3.263   7.682   1.683  0.7631 -0.7542  0.8993
32580SOL    HW2 2197   3.305   7.827   1.694 -0.1817 -0.2301 -1.6318
32581SOL     OW 2198   8.743   5.319   2.397 -0.4615 -0.1466 -0.0461
32581SOL    HW1 2199   8.683   5.389   2.423 -0.6639 -0.3846  0.1303
32581SOL    HW2 2200   8.830   5.359   2.401 -0.4329 -0.3188  1.4849
32582SOL     OW 2201   3.972   5.255   0.234 -0.2342  0.2751  0.1610
32582SOL    HW1 2202   3.960   5.313   0.159 -1.0797 -1.0976 -0.8096
32582SOL    HW2 2203   3.909   5.286   0.299 -1.9152 -0.5212 -0.9947
32583SOL     OW 2204  10.325   7.003  10.893  0.1201 -0.2824  0.0392
32583SOL    HW1 2205  10.303   6.910  10.889 -0.2119 -0.1858 -0.6045
32583SOL    HW2 2206  10.240   7.047  10.882  0.0217  0.1101  1.9152
32584SOL     OW 2207   6.812   0.568   0.114 -0.1891  0.1276  0.0485
32584SOL    HW1 2208   6.826   0.505   0.185  1.4235  1.0065  0.5606
32584SOL    HW2 2209   6.767   0.518   0.046  1.8380 -1.8618  0.0590
32585SOL     OW 2210   8.224   6.349   6.924  0.3322  0.3644 -0.4135
32585SOL    HW1 2211   8.167   6.347   7.001  2.1511 -0.8914  0.9857
32585SOL    HW2 2212   8.190   6.280   6.867  1.4061 -1.6140  1.2120
32586SOL     OW 2213   7.827   1.726   4.534 -0.0135 -0.0938  0.9706
32586SOL    HW1 2214   7.900   1.668   4.513  0.6162  0.9877  0.0165
32586SOL    HW2 2215   7.754   1.691   4.483  0.2740 -0.2640  0.6688
32587SOL     OW 2216   4.149   3.568   7.034  0.2985  0.5003 -0.1027
32587SOL    HW1 2217   4.118   3.651   7.071 -0.8814  0.3209 -0.6348
32587SOL    HW2 2218   4.124   3.573   6.942 -0.4158 -0.7329  0.0082
32588SOL     OW 2219   2.780   4.676   7.179  0.6879 -0.2391 -1.0736
32588SOL    HW1 2220   2.695   4.715   7.158  0.6546 -0.2319 -0.9265
32588SOL    HW2 2221   2.767   4.582   7.167  0.3723 -0.3363 -0.0857
32589SOL     OW 2222   8.810  10.884   1.694  0.1589  0.4827  0.5287
32589SOL    HW1 2223   8.737  10.821   1.691 -0.0522  0.7252  0.5704
32589SOL    HW2 2224   8.855  10.872   1.610 -0.6112  1.1409 -0.0020
32590SOL     OW 2225   0.420  10.363   2.270 -0.3065  0.1708 -0.6027
32590SOL    HW1 2226   0.333  10.353   2.309 -0.9252  1.0481 -1.6766
32590SOL    HW2 2227   0.447  10.452   2.294 -0.5026  0.5561 -1.7297
32591SOL     OW 2228   0.663   4.319  11.036  0.4115 -0.3584  0.2646
32591SOL    HW1 2229   0.688   4.411  11.025  0.4598 -0.4539 -0.4513
32591SOL    HW2 2230   0.744   4.270  11.022  0.2668 -0.5420  0.0647
32592SOL     OW 2231   9.706   6.118   8.235 -0.1726  0.3564  0.3889
32592SOL    HW1 2232   9.653   6.197   8.240 -2.0786 -0.6714 -1.6655
32592SOL    HW2 2233   9.783   6.143   8.183  1.1080  1.6830  2.7911
32593SOL     OW 2234   0.635   1.756  10.398 -0.2980  0.3767 -0.0604
32593SOL    HW1 2235   0.557   1.700  10.393 -1.5102  1.7645  1.9161
32593SOL    HW2 2236   0.695   1.719  10.333 -1.6699 -2.1696 -0.0096
32594SOL     OW 2237  10.696   1.382   2.064  0.3969  0.2164  0.5359
32594SOL    HW1 2238  10.711   1.338   1.980 -0.1510 -1.5686  1.3104
32594SOL    HW2 2239  10.776   1.430   2.082 -0.0487  1.9388 -1.7282
32595SOL     OW 2240   2.921  10.699   4.801 -0.5374  0.3128  0.4013
32595SOL    HW1 2241   2.965  10.630   4.752  0.0869  0.1404  1.1703
32595SOL    HW2 2242   2.835  10.706   4.761 -0.1241  0.0378 -0.5689
32596SOL     OW 2243   8.229   9.080   8.048  0.3007  0.4662  0.2670
32596SOL    HW1 2244   8.298   9.017   8.028 -0.6402 -0.4487 -0.1650
32596SOL    HW2 2245   8.150   9.043   8.010 -1.2331 -0.3539  3.8644
32597SOL     OW 2246   8.221   7.047   5.918 -0.1306  0.0655  0.3803
32597SOL    HW1 2247   8.225   7.131   5.962  0.1767  0.3167 -0.1235
32597SOL    HW2 2248   8.204   6.984   5.988  1.2087  0.3484  0.9951
32598SOL     OW 2249   6.577   8.523   3.201  0.2559  0.6492  0.1179
32598SOL    HW1 2250   6.503   8.469   3.228  0.0215 -0.7719 -2.9547
32598SOL    HW2 2251   6.626   8.539   3.282 -0.9443 -2.2051  1.5433
32599SOL     OW 2252   7.152   8.485   4.751 -0.2537  0.2758  0.0814
32599SOL    HW1 2253   7.198   8.426   4.811  1.0260 -0.4208 -1.5172
32599SOL    HW2 2254   7.092   8.534   4.807 -0.9159 -2.0816  1.5510
32600SOL     OW 2255   2.381   4.022   6.801 -0.7545 -0.5142 -0.0975
32600SOL    HW1 2256   2.344   3.970   6.873  2.6909 -0.2433  2.0764
32600SOL    HW2 2257   2.409   3.957   6.737  0.4011 -1.1459  1.0104
32601SOL     OW 2258   9.387   4.565   8.970 -0.1654 -0.2011  0.0055
32601SOL    HW1 2259   9.372   4.557   8.875  0.7503  0.3039 -0.1933
32601SOL    HW2 2260   9.482   4.560   8.980 -0.2683 -0.5093  0.9339
32602SOL     OW 2261   4.188   1.829   3.674 -0.1412 -0.0859  0.0468
32602SOL    HW1 2262   4.177   1.924   3.683  0.9683  0.3290 -2.1756
32602SOL    HW2 2263   4.109   1.801   3.627  1.2417  0.4807 -2.8468
32603SOL     OW 2264   8.757   2.989   9.327  0.2257  0.0092  0.4148
32603SOL    HW1 2265   8.728   2.905   9.291  1.1165 -0.8111  1.5648
32603SOL    HW2 2266   8.852   2.983   9.329  0.4508  1.8007 -1.2102
32604SOL     OW 2267   5.247   9.923   8.123  0.1727 -0.6365  0.3586
32604SOL    HW1 2268   5.174   9.863   8.138 -0.9485  0.8034  1.0587
32604SOL    HW2 2269   5.237   9.989   8.192  0.3957  1.2036 -1.2720
32605SOL     OW 2270   6.834  10.189   1.558  0.2602  0.0728 -0.6581
32605SOL    HW1 2271   6.844  10.264   1.616  0.3729 -1.3704  1.3198
32605SOL    HW2 2272   6.908  10.195   1.498  2.1455 -0.0935  1.4970
32606SOL     OW 2273   9.249  10.583   4.523  0.6706 -0.1657  0.6939
32606SOL    HW1 2274   9.303  10.533   4.461  1.2063  0.1710  0.8790
32606SOL    HW2 2275   9.275  10.551   4.609 -1.0321 -1.5924  0.7230
32607SOL     OW 2276   2.094   1.456   6.150  0.1340  0.1774  0.0033
32607SOL    HW1 2277   2.060   1.424   6.066 -0.7870 -2.6591  1.3415
32607SOL    HW2 2278   2.016   1.479   6.200  0.6009  0.4784  0.6005
32608SOL     OW 2279   9.758   3.314   4.197 -0.1043  0.0114  0.6279
32608SOL    HW1 2280   9.809   3.234   4.208 -1.2399 -0.7686  0.4153
32608SOL    HW2 2281   9.750   3.325   4.102  0.5888  0.7561  0.6404
32609SOL     OW 2282   5.763   3.389   4.012 -0.5387 -0.6398  0.2451
32609SOL    HW1 2283   5.765   3.423   3.922 -0.1711 -0.4395  0.3273
32609SOL    HW2 2284   5.855   3.383   4.038 -0.4712  4.7473  2.6060
32610SOL     OW 2285   6.004   7.855   4.327 -0.2373  0.2318 -0.4353
32610SOL    HW1 2286   6.099   7.861   4.314 -0.3216  1.7570 -0.4765
32610SOL    HW2 2287   5.994   7.810   4.411  0.4666 -1.4499 -1.1912
32611SOL     OW 2288   3.532   7.167   4.013 -0.1602  0.4056  0.6461
32611SOL    HW1 2289   3.473   7.178   3.938  0.7248  1.9479  0.1553
32611SOL    HW2 2290   3.473   7.161   4.088 -1.0448 -0.8147 -0.0920
32612SOL     OW 2291   5.614   0.880   3.358 -0.2942  0.4650  0.4685
32612SOL    HW1 2292   5.615   0.812   3.290 -0.4526  0.6129  0.3174
32612SOL    HW2 2293   5.704   0.911   3.362 -0.1672  0.0698  0.7159
32613SOL     OW 2294  10.041   9.147   1.942 -0.5188  0.5089 -0.0148
32613SOL    HW1 2295   9.977   9.160   2.011 -0.2824  1.6836 -0.0012
32613SOL    HW2 2296  10.079   9.234   1.928 -1.2680  0.5335 -2.3116
32614SOL     OW 2297   5.046   7.841   4.969 -0.2724  0.5431  0.2812
32614SOL    HW1 2298   5.013   7.930   4.976 -0.7061  0.4652 -0.6125
32614SOL    HW2 2299   5.089   7.838   4.884  1.9243  0.5851  1.3261
32615SOL     OW 2300   2.644  10.065  10.744 -0.2217 -0.5265  0.1066
32615SOL    HW1 2301   2.560  10.101  10.715  0.0083 -0.7522 -0.8593
32615SOL    HW2 2302   2.636  10.061  10.840 -1.2838 -0.4903  0.0310
32616SOL     OW 2303   9.339   6.172   1.382  0.0943 -0.2545 -0.0932
32616SOL    HW1 2304   9.364   6.208   1.467 -1.7874  0.5803  0.1421
32616SOL    HW2 2305   9.269   6.110   1.401 -1.1090  0.7262 -1.0831
32617SOL     OW 2306   2.816   2.085   7.060  0.6334  0.0949  0.3191
32617SOL    HW1 2307   2.845   2.014   7.002 -0.2411 -0.1772  0.1954
32617SOL    HW2 2308   2.727   2.060   7.086  0.6518  0.6977  1.0083
32618SOL     OW 2309   3.859   1.847   3.793  0.2407 -0.4261  0.6569
32618SOL    HW1 2310   3.818   1.933   3.784 -0.0660 -0.4835  1.4474
32618SOL    HW2 2311   3.786   1.786   3.801  0.3542 -1.1265 -2.5034
32619SOL     OW 2312   3.825   6.376   0.276 -0.0305 -0.0074 -0.6050
32619SOL    HW1 2313   3.771   6.392   0.353 -0.2389  0.3628 -0.8250
32619SOL    HW2 2314   3.896   6.320   0.307 -1.3260 -1.7233 -0.6050
32620SOL     OW 2315   5.974   3.327   5.590 -0.5261 -0.2972 -0.0192
32620SOL    HW1 2316   6.006   3.375   5.513  0.0550  2.0130  1.5453
32620SOL    HW2 2317   5.886   3.363   5.605 -0.5194 -0.5145  0.5577
32621SOL     OW 2318   1.807   7.747   8.914  0.0154 -0.0056 -0.3143
32621SOL    HW1 2319   1.810   7.818   8.850 -0.1827  0.2585 -0.0360
32621SOL    HW2 2320   1.793   7.668   8.862 -1.1822  0.3259 -0.5294
32622SOL     OW 2321   5.275   4.701   6.959 -0.5031 -0.3451 -0.4513
32622SOL    HW1 2322   5.294   4.682   6.867  2.7626 -1.3015  0.2839
32622SOL    HW2 2323   5.257   4.616   6.998  2.1781 -0.5752  0.4949
32623SOL     OW 2324   1.350   5.823   7.156  0.6848  0.0709  0.0956
32623SOL    HW1 2325   1.351   5.740   7.109 -0.0912 -0.0781  0.3204
32623SOL    HW2 2326   1.365   5.799   7.247  2.7325  0.4098 -0.1036
32624SOL     OW 2327   8.294   5.863   7.402  0.0717 -0.4996  0.6263
32624SOL    HW1 2328   8.314   5.947   7.443  1.4888 -0.7261  0.4406
32624SOL    HW2 2329   8.208   5.876   7.362 -1.1602 -0.1147  3.1965
32625SOL     OW 2330   7.292  10.565  10.624 -0.6508  0.4391  0.4914
32625SOL    HW1 2331   7.315  10.517  10.544  0.2912 -0.8806  1.4999
32625SOL    HW2 2332   7.230  10.509  10.670  0.6468  0.0193  1.8097
32626SOL     OW 2333   3.199   4.774   4.964  0.1078  0.3066 -0.1679
32626SOL    HW1 2334   3.218   4.682   4.948 -0.1583  0.3816 -0.9565
32626SOL    HW2 2335   3.271   4.821   4.921 -0.8926  0.5287 -1.6785
32627SOL     OW 2336   3.574   2.738   9.805 -0.1178  0.2576  0.0614
32627SOL    HW1 2337   3.533   2.674   9.746 -1.0712  1.9494 -1.1898
32627SOL    HW2 2338   3.665   2.743   9.775  0.0600 -0.7300  0.3943
32628SOL     OW 2339   2.091   0.537   0.632  0.4987 -0.2768  0.3842
32628SOL    HW1 2340   2.100   0.599   0.706 -1.5819  2.0499 -1.1518
32628SOL    HW2 2341   1.997   0.534   0.615  0.8277 -1.7482 -1.3950
32629SOL     OW 2342   2.973   1.835   9.355  0.4351 -0.3196 -0.2087
32629SOL    HW1 2343   2.958   1.798   9.268 -1.0930 -0.7452  0.2007
32629SOL    HW2 2344   2.949   1.765   9.416  1.3031  0.0365  0.5681
32630SOL     OW 2345   5.839  10.792   0.104  0.0008 -0.0695 -0.1791
32630SOL    HW1 2346   5.904  10.829   0.165  0.0471 -0.1933 -0.1528
32630SOL    HW2 2347   5.892  10.750   0.036 -0.0499 -1.2056  0.4662
32631SOL     OW 2348   8.799   5.469   5.094 -0.6526 -0.3944  0.2271
32631SOL    HW1 2349   8.780   5.381   5.062 -0.4386 -0.8282  1.2384
32631SOL    HW2 2350   8.742   5.527   5.043  0.7437 -0.8537 -1.9930
32632SOL     OW 2351  10.315   8.202   2.396 -0.0157 -0.8108 -0.5804
32632SOL    HW1 2352  10.397   8.153   2.397  1.1909  1.1269 -0.9901
32632SOL    HW2 2353  10.323   8.263   2.323 -1.5727 -0.1349 -0.2371
32633SOL     OW 2354   1.198   0.142   3.035 -0.0660 -0.1918  0.0962
32633SOL    HW1 2355   1.193   0.056   3.077  0.0283  1.0297  2.7970
32633SOL    HW2 2356   1.292   0.160   3.028 -0.0172  1.0485  2.7454
32634SOL     OW 2357  10.693   1.249   0.693  0.3435 -0.1102 -0.1309
32634SOL    HW1 2358  10.760   1.238   0.625 -0.8455 -0.6248 -1.2589
32634SOL    HW2 2359  10.610   1.247   0.646 -0.4883  0.5559  1.2316
32635SOL     OW 2360   9.004   4.929   4.535  0.0763  0.1805 -0.7406
32635SOL    HW1 2361   9.048   4.984   4.469  1.4473 -0.9467 -0.8173
32635SOL    HW2 2362   9.034   4.964   4.619  0.8518 -0.3424 -0.7877
32636SOL     OW 2363   7.330   1.892   4.985  0.2676  0.3188 -0.4877
32636SOL    HW1 2364   7.262   1.917   5.047  0.2888  0.4149 -0.5038
32636SOL    HW2 2365   7.335   1.796   4.992  0.9246  0.4079  0.3397
32637SOL     OW 2366   3.851   3.242   2.085  0.2464  0.0466  0.0389
32637SOL    HW1 2367   3.835   3.196   2.003 -1.3136  3.3223 -1.7158
32637SOL    HW2 2368   3.775   3.222   2.139  0.5862 -0.9977  0.1482
32638SOL     OW 2369   6.310   2.587   3.472  0.6653 -0.1989 -0.2694
32638SOL    HW1 2370   6.363   2.512   3.498  0.6228 -0.0210  0.3428
32638SOL    HW2 2371   6.368   2.640   3.417  1.7923  0.9626  1.9089
32639SOL     OW 2372   1.813   8.910   3.497 -0.2753  0.3262  0.2273
32639SOL    HW1 2373   1.778   8.830   3.536  0.1277  0.3634  0.6685
32639SOL    HW2 2374   1.903   8.887   3.473 -0.3074  0.5079 -0.0749
32640SOL     OW 2375   7.300   3.288   0.854 -0.0928 -0.2831  0.2243
32640SOL    HW1 2376   7.315   3.288   0.759  1.2266 -0.9133  0.4156
32640SOL    HW2 2377   7.387   3.297   0.892 -0.6933  1.0429  1.3910
32641SOL     OW 2378   6.979   1.425  10.351  0.1395  0.5851  0.3047
32641SOL    HW1 2379   6.965   1.330  10.356 -1.7121  0.7258 -1.2839
32641SOL    HW2 2380   6.920   1.461  10.417 -1.0815  0.7329 -0.8289
32642SOL     OW 2381   0.594   9.910   4.140  0.6379 -0.2638 -0.4544
32642SOL    HW1 2382   0.514   9.875   4.100  0.0153  0.4892  0.0910
32642SOL    HW2 2383   0.597   9.870   4.227  1.4946 -1.1866 -0.8868
32643SOL     OW 2384   8.005   8.347   7.723 -0.2548  0.2223  0.0161
32643SOL    HW1 2385   8.087   8.387   7.694  0.8208 -1.8721 -0.0136
32643SOL    HW2 2386   7.937   8.397   7.678  0.9966  1.7143 -0.3173
32644SOL     OW 2387   6.046   4.975   4.828 -0.5695  0.1955  0.0540
32644SOL    HW1 2388   6.068   4.882   4.837  1.2019  0.7536  3.4015
32644SOL    HW2 2389   5.976   4.989   4.892 -1.1952  1.1015 -0.7982
32645SOL     OW 2390   4.903  10.372   5.879  0.0728  0.0774 -0.0083
32645SOL    HW1 2391   4.972  10.313   5.849  0.6337  1.5455 -1.8686
32645SOL    HW2 2392   4.865  10.329   5.955  3.0612 -0.7773  1.1313
32646SOL     OW 2393   0.475   4.961   4.734  0.2375 -0.0484 -0.3049
32646SOL    HW1 2394   0.535   5.027   4.768 -0.0979  0.5969 -0.9512
32646SOL    HW2 2395   0.391   5.005   4.728 -0.0982 -0.6729 -0.3083
32647SOL     OW 2396   0.038   7.340   8.305 -0.3914  0.0998  0.5124
32647SOL    HW1 2397   0.081   7.254   8.310 -0.4004  0.0948  0.5063
32647SOL    HW2 2398   0.055   7.370   8.215  1.0932  0.8841  1.0338
32648SOL     OW 2399   9.189   2.510   3.756 -0.2698  0.2021 -0.4744
32648SOL    HW1 2400   9.096   2.496   3.776 -0.5269  0.8312 -1.1696
32648SOL    HW2 2401   9.236   2.465   3.826 -1.1133  0.6024  0.3718
32649SOL     OW 2402   9.634   8.493   8.078 -0.3322  0.2479 -0.2293
32649SOL    HW1 2403   9.606   8.403   8.061  0.2416 -0.3325  1.6243
32649SOL    HW2 2404   9.717   8.483   8.125 -0.9262  1.7036  1.2089
32650SOL     OW 2405   5.196   5.701   3.998 -0.0026 -0.4051  0.3814
32650SOL    HW1 2406   5.215   5.782   4.046  1.3565 -0.0388 -0.6783
32650SOL    HW2 2407   5.273   5.689   3.941 -1.8565 -0.3281 -2.3300
32651SOL     OW 2408   4.821   0.377   2.647  0.0591 -0.2459 -0.4377
32651SOL    HW1 2409   4.783   0.297   2.682  1.0817  0.4849  2.6168
32651SOL    HW2 2410   4.884   0.347   2.581  0.9404 -2.0444  1.1307
32652SOL     OW 2411   6.598   7.214   2.520 -0.5114  0.2148  0.2927
32652SOL    HW1 2412   6.601   7.308   2.505 -0.0470  0.4103  1.4665
32652SOL    HW2 2413   6.644   7.202   2.604 -0.0339 -1.1114 -0.1316
32653SOL     OW 2414   4.604   4.800  10.071  0.2080  0.2762  0.3543
32653SOL    HW1 2415   4.677   4.797  10.132 -0.4523 -0.8770  1.1254
32653SOL    HW2 2416   4.624   4.733  10.006  0.5731  1.0245 -0.3147
32654SOL     OW 2417   2.239   5.941   3.630  0.9319 -0.1341 -0.6107
32654SOL    HW1 2418   2.303   5.871   3.627  0.7226 -0.4073  0.5449
32654SOL    HW2 2419   2.191   5.934   3.548 -0.4342 -2.6736  0.3022
32655SOL     OW 2420   2.199   2.852   5.019 -0.1136 -0.0500 -0.0879
32655SOL    HW1 2421   2.225   2.849   5.111 -0.0080 -2.0856 -0.1360
32655SOL    HW2 2422   2.104   2.863   5.021  0.0180  1.1237  0.2190
32656SOL     OW 2423   8.253   6.471   9.697  0.2571  0.4400 -0.4164
32656SOL    HW1 2424   8.326   6.527   9.723 -0.0466  0.2468  0.9325
32656SOL    HW2 2425   8.180   6.531   9.682  0.3212  0.5244 -0.3864
32657SOL     OW 2426   1.488   6.059   6.098  0.0501  0.6982  0.4680
32657SOL    HW1 2427   1.396   6.074   6.119  0.0021  0.2125  0.6010
32657SOL    HW2 2428   1.521   6.146   6.073 -0.7649  0.6443 -0.9030
32658SOL     OW 2429   1.736   2.535   7.861 -0.1271 -0.3057  0.5499
32658SOL    HW1 2430   1.737   2.464   7.797 -0.4052 -0.0065  0.2110
32658SOL    HW2 2431   1.643   2.558   7.870 -0.0010  0.3048  0.3285
32659SOL     OW 2432   9.682   2.000   9.485  0.6423 -0.0679 -0.3678
32659SOL    HW1 2433   9.757   1.965   9.437  0.4504 -1.1226  0.0743
32659SOL    HW2 2434   9.655   1.929   9.543 -1.0780  0.0425 -0.9517
32660SOL     OW 2435   4.253   3.176   0.225 -0.1956  0.4616 -0.4918
32660SOL    HW1 2436   4.188   3.184   0.155  0.5488 -1.1058 -1.4217
32660SOL    HW2 2437   4.336   3.165   0.179  0.3291 -0.4810  0.6204
32661SOL     OW 2438   1.201   4.027   3.827  0.3655 -0.0815  0.1680
32661SOL    HW1 2439   1.129   3.985   3.779  0.6647  0.5372 -0.8396
32661SOL    HW2 2440   1.204   4.117   3.793  0.6083  0.3661  1.3276
32662SOL     OW 2441   8.655   7.501   9.279 -0.0122  0.3825 -0.3757
32662SOL    HW1 2442   8.674   7.418   9.322 -0.7543 -0.0330 -0.8325
32662SOL    HW2 2443   8.592   7.544   9.337  1.4667  1.3175  0.6280
32663SOL     OW 2444  10.838   6.514   4.966 -0.3714  0.2129  0.3159
32663SOL    HW1 2445  10.907   6.572   5.000 -0.6745  0.0650  1.2145
32663SOL    HW2 2446  10.823   6.545   4.877 -0.6954  1.7012  0.8552
32664SOL     OW 2447   3.848   8.052   5.898 -0.2355 -0.0892  0.3623
32664SOL    HW1 2448   3.789   7.977   5.909 -0.8932  0.5947  1.8472
32664SOL    HW2 2449   3.898   8.032   5.819 -1.5950 -1.2764 -0.2485
32665SOL     OW 2450   5.129   9.159   9.433  0.1439  0.2045 -0.1237
32665SOL    HW1 2451   5.101   9.149   9.342  1.6835  1.1413 -0.7543
32665SOL    HW2 2452   5.064   9.217   9.472 -2.6390 -3.0205  0.5114
32666SOL     OW 2453   3.250  10.207   4.067  0.0393  0.3619 -0.3099
32666SOL    HW1 2454   3.221  10.214   3.976  0.2144  0.5057 -0.3558
32666SOL    HW2 2455   3.345  10.192   4.061  0.0831  0.5693 -0.1458
32667SOL     OW 2456   4.544   6.084   9.206 -0.8661 -0.0301 -0.7203
32667SOL    HW1 2457   4.539   5.988   9.209  0.4009 -0.0993 -0.0433
32667SOL    HW2 2458   4.499   6.113   9.285  0.0306 -0.1433 -0.1606
32668SOL     OW 2459   2.139   8.311  10.965  0.4005  0.1062  0.3022
32668SOL    HW1 2460   2.197   8.358  10.906 -1.1481  0.6825 -0.8197
32668SOL    HW2 2461   2.159   8.218  10.952 -0.5276  0.1618 -1.8529
32669SOL     OW 2462   2.428   7.724   8.935 -0.4698  0.4965 -0.5234
32669SOL    HW1 2463   2.390   7.796   8.986 -0.0094  1.2472 -1.2230
32669SOL    HW2 2464   2.474   7.767   8.864 -0.7811 -0.5273 -1.3655
32670SOL     OW 2465   1.064  10.547   9.059 -0.2374 -0.2114  0.0662
32670SOL    HW1 2466   0.975  10.535   9.091 -0.8610 -0.3034 -1.5935
32670SOL    HW2 2467   1.090  10.460   9.027  0.2371 -0.0704  0.0564
32671SOL     OW 2468   1.665  10.526   5.934  0.8469  0.3896  0.3070
32671SOL    HW1 2469   1.600  10.548   5.868  0.8176 -0.9479 -0.1452
32671SOL    HW2 2470   1.616  10.477   6.000  1.4144 -0.9014 -0.1913
32672SOL     OW 2471   8.324   6.350   5.777  0.3482 -0.2890  0.0187
32672SOL    HW1 2472   8.282   6.286   5.835 -0.6717  0.9672  0.7191
32672SOL    HW2 2473   8.354   6.419   5.836  1.5015 -0.1372 -0.7168
32673SOL     OW 2474   9.943  10.258  10.535 -0.0965 -0.2745  0.3678
32673SOL    HW1 2475   9.941  10.289  10.445  2.3738  2.2372  1.0427
32673SOL    HW2 2476   9.929  10.164  10.528  1.7740 -0.4646 -2.8444
32674SOL     OW 2477   4.963   8.668   1.376 -0.0867 -0.3509  0.1150
32674SOL    HW1 2478   4.877   8.692   1.411  0.3334 -0.3771  1.2032
32674SOL    HW2 2479   4.984   8.738   1.313 -0.7423 -0.1540  0.1139
32675SOL     OW 2480   5.346   5.139   2.688  0.1149  0.5461 -0.3047
32675SOL    HW1 2481   5.384   5.124   2.602 -0.0971 -0.8249 -0.1864
32675SOL    HW2 2482   5.402   5.089   2.748 -0.4761  0.4662  0.1892
32676SOL     OW 2483   9.208   4.814  10.125 -0.0789 -0.3971 -0.3334
32676SOL    HW1 2484   9.209   4.721  10.150  0.5151 -0.0118  1.2506
32676SOL    HW2 2485   9.119   4.843  10.144 -0.0717 -0.4907 -0.1426
32677SOL     OW 2486  10.401   3.515   8.274 -0.1624  0.1250 -0.3968
32677SOL    HW1 2487  10.338   3.586   8.283 -0.7674 -0.3135 -1.0955
32677SOL    HW2 2488  10.470   3.551   8.218  0.4852  0.7762  0.7858
32678SOL     OW 2489   5.409   1.926   1.397  0.5212  0.4165  0.1132
32678SOL    HW1 2490   5.499   1.897   1.410 -0.0219 -1.8844 -0.7602
32678SOL    HW2 2491   5.368   1.920   1.483  1.0900  1.1366  0.4429
32679SOL     OW 2492   8.962   8.761   2.985 -0.0601  0.4376 -1.2889
32679SOL    HW1 2493   9.046   8.761   3.030 -1.0663  0.9504  0.6829
32679SOL    HW2 2494   8.965   8.839   2.929  0.7591  0.4759 -1.1973
32680SOL     OW 2495   6.034   3.875   8.004 -0.3944 -0.3862 -0.4295
32680SOL    HW1 2496   6.001   3.823   8.077 -2.2299  1.4035  0.1198
32680SOL    HW2 2497   6.060   3.959   8.044  1.0127 -0.2829 -1.4840
32681SOL     OW 2498   0.383   9.910   7.188 -0.0383  0.3632  0.0521
32681SOL    HW1 2499   0.301   9.958   7.187 -0.7971 -0.8706  0.8951
32681SOL    HW2 2500   0.440   9.959   7.129 -0.6981  2.3907  1.0178
32682SOL     OW 2501   6.694   6.644   8.492 -0.0718 -0.3890 -0.1438
32682SOL    HW1 2502   6.681   6.655   8.398  2.8482 -3.1001 -1.0616
32682SOL    HW2 2503   6.773   6.694   8.512 -0.1850 -0.5272  0.7052
32683SOL     OW 2504   5.921   0.669   6.642 -0.0337 -0.3302 -0.4736
32683SOL    HW1 2505   5.982   0.743   6.632 -1.3979  1.1036  1.1488
32683SOL    HW2 2506   5.914   0.657   6.737 -1.9521 -0.7205 -0.6282
32684SOL     OW 2507   6.652   5.065  10.315  0.3365  0.6114 -0.1233
32684SOL    HW1 2508   6.744   5.085  10.331  0.8660 -1.2522 -0.5294
32684SOL    HW2 2509   6.612   5.062  10.401  0.7316  1.1238  0.0787
32685SOL     OW 2510   9.477   8.507   2.361  0.0482  0.2831  0.5878
32685SOL    HW1 2511   9.543   8.442   2.336 -0.1701  0.7464 -1.3321
32685SOL    HW2 2512   9.513   8.590   2.330 -1.0024  0.6720  0.3793
32686SOL     OW 2513   0.901   7.840   1.218 -0.0431  0.0709 -0.3615
32686SOL    HW1 2514   0.854   7.790   1.285  1.1418 -1.9701 -0.9958
32686SOL    HW2 2515   0.927   7.776   1.152  1.1548  1.5933 -1.4675
32687SOL     OW 2516  11.071  10.187   9.085 -0.5452  0.0990 -0.0541
32687SOL    HW1 2517  11.116  10.219   9.163 -2.0562  2.0572  0.0914
32687SOL    HW2 2518  11.095  10.249   9.016  0.0631 -1.0960 -0.9537
32688SOL     OW 2519   3.839   5.368   0.712  0.3763  0.3840 -0.1478
32688SOL    HW1 2520   3.875   5.370   0.801  0.1415 -0.2340 -0.0303
32688SOL    HW2 2521   3.832   5.275   0.691 -1.0539  0.4785 -0.2003
32689SOL     OW 2522   2.072   7.448   1.789  0.1787  0.0257  0.7317
32689SOL    HW1 2523   2.103   7.528   1.747  0.7212 -0.8215 -0.5358
32689SOL    HW2 2524   1.987   7.431   1.749  0.1742 -0.1589  0.8197
32690SOL     OW 2525   3.192   7.378   8.174 -0.4118  0.0220 -0.1529
32690SOL    HW1 2526   3.129   7.426   8.228 -0.8708  1.4279 -1.8431
32690SOL    HW2 2527   3.183   7.287   8.202 -0.4373  0.7037  2.2712
32691SOL     OW 2528   0.123  10.875   2.492  0.3351  0.0128  0.3195
32691SOL    HW1 2529   0.174  10.857   2.571 -0.2092 -0.5782  0.5379
32691SOL    HW2 2530   0.171  10.946   2.449 -1.3915  3.1937  3.1170
32692SOL     OW 2531   6.835  10.716   1.012  0.3032  0.6884  0.5700
32692SOL    HW1 2532   6.756  10.732   1.063 -0.3497  2.8397 -0.9585
32692SOL    HW2 2533   6.858  10.625   1.030 -1.1083  0.7243  2.9330
32693SOL     OW 2534   8.474   2.349   1.542 -0.3021  0.2937  0.8770
32693SOL    HW1 2535   8.416   2.274   1.558 -0.0737 -0.0598  0.0949
32693SOL    HW2 2536   8.545   2.313   1.488 -0.3943  1.1531  0.1622
32694SOL     OW 2537   0.753   2.096   0.781  0.6579  0.1697  0.0810
32694SOL    HW1 2538   0.688   2.144   0.833 -0.0511  0.6644 -1.2381
32694SOL    HW2 2539   0.768   2.150   0.704  0.5102 -1.2951 -1.0234
32695SOL     OW 2540   6.681   9.569   1.134  0.1180 -0.0624 -0.3046
32695SOL    HW1 2541   6.658   9.661   1.124 -0.5663 -0.2338 -0.3231
32695SOL    HW2 2542   6.603   9.521   1.107 -0.0867 -0.6156  1.1839
32696SOL     OW 2543   4.643   4.077   0.446 -0.7215  0.1681  0.3525
32696SOL    HW1 2544   4.642   4.057   0.352 -1.3739 -0.0231  0.3952
32696SOL    HW2 2545   4.726   4.043   0.477 -1.9203 -2.9372  0.5154
32697SOL     OW 2546   0.545   0.473   9.897  0.3947  0.5079 -0.6068
32697SOL    HW1 2547   0.576   0.484   9.808 -0.3990 -1.2826 -1.1466
32697SOL    HW2 2548   0.460   0.429   9.888 -0.0913  1.0378  0.9913
32698SOL     OW 2549   3.607   3.064   0.652  0.2005  0.0257 -0.3777
32698SOL    HW1 2550   3.599   3.023   0.566  1.8275  1.6355 -1.3877
32698SOL    HW2 2551   3.605   2.991   0.714  2.9636 -1.6556 -2.0482
32699SOL     OW 2552  10.734  10.711   0.771 -0.2191  0.0241  0.4334
32699SOL    HW1 2553  10.653  10.688   0.727 -1.0146 -0.6145  2.1490
32699SOL    HW2 2554  10.707  10.744   0.857  1.3497 -1.6994  1.6936
32700SOL     OW 2555   5.360   7.062   0.427  0.7221  0.0998 -0.3807
32700SOL    HW1 2556   5.387   6.981   0.472  1.4126 -0.5430 -1.8764
32700SOL    HW2 2557   5.275   7.040   0.388  0.7102  0.2452 -0.4356
32701SOL     OW 2558   4.618   7.611   8.461  0.5705  0.0414 -0.0129
32701SOL    HW1 2559   4.613   7.669   8.386 -2.3983 -0.9972 -0.7417
32701SOL    HW2 2560   4.549   7.642   8.520  0.4359 -1.3935  0.6152
32702SOL     OW 2561   8.471   0.920   9.384  0.5487 -0.0922  0.4286
32702SOL    HW1 2562   8.454   0.851   9.320  2.0107  1.4126 -1.7048
32702SOL    HW2 2563   8.433   0.999   9.345 -0.7443  0.4716  2.6286
32703SOL     OW 2564   0.807   7.197   3.207  0.1508  0.4190  0.1820
32703SOL    HW1 2565   0.748   7.133   3.247 -2.1070  2.6556  0.6630
32703SOL    HW2 2566   0.788   7.279   3.252  0.5590  2.1402 -2.5520
32704SOL     OW 2567   1.535   4.863   6.319 -0.4051  0.4293  0.1475
32704SOL    HW1 2568   1.565   4.935   6.264  0.5732 -1.2901 -1.7099
32704SOL    HW2 2569   1.543   4.785   6.263  0.3828 -1.4016  2.6165
32705SOL     OW 2570  10.076   7.030   8.032  0.3099 -0.0801 -0.4270
32705SOL    HW1 2571  10.080   6.995   8.121 -1.3031  0.6941 -0.0174
32705SOL    HW2 2572  10.166   7.059   8.014  1.1769 -2.2390  0.0806
32706SOL     OW 2573   0.682   1.810   6.866  0.3500 -0.0705  0.6524
32706SOL    HW1 2574   0.603   1.838   6.912  0.5426  2.1053 -0.2351
32706SOL    HW2 2575   0.660   1.724   6.830 -1.3774  0.2192  0.9566
32707SOL     OW 2576   9.775  11.001   6.177  0.7224  0.7161  0.2061
32707SOL    HW1 2577   9.749  11.083   6.135  1.2919  0.1083 -1.3667
32707SOL    HW2 2578   9.866  10.988   6.151  0.7242 -0.2771  0.6756
32708SOL     OW 2579   9.530   1.522   6.058  0.3380  0.5442 -0.5582
32708SOL    HW1 2580   9.560   1.432   6.044 -1.7479 -0.1271 -0.9606
32708SOL    HW2 2581   9.601   1.563   6.107  0.6832 -1.7590  1.0216
32709SOL     OW 2582   5.511   6.956   4.447 -0.1173 -0.1190  0.2924
32709SOL    HW1 2583   5.444   6.950   4.380 -0.7187 -0.4734  0.9151
32709SOL    HW2 2584   5.520   6.867   4.481  0.5223 -0.0365  0.3542
32710SOL     OW 2585   1.857   3.732   4.195  0.1009 -0.1570 -0.2196
32710SOL    HW1 2586   1.866   3.689   4.110  1.0590  0.5663 -0.5049
32710SOL    HW2 2587   1.883   3.665   4.259  0.1788 -0.4532 -0.5594
32711SOL     OW 2588   9.225   2.630   7.531 -0.5908  0.7447  0.2592
32711SOL    HW1 2589   9.149   2.668   7.487 -1.4130  0.8693  1.7138
32711SOL    HW2 2590   9.249   2.695   7.597 -0.3539 -0.0820  1.0026
32712SOL     OW 2591   6.074   5.072   4.355 -0.1347 -0.1719 -0.0148
32712SOL    HW1 2592   6.150   5.117   4.320  2.3234 -2.6943  1.6475
32712SOL    HW2 2593   6.072   4.987   4.310 -1.6410 -0.4019  0.3988
32713SOL     OW 2594   5.205   3.019   2.532 -0.7443 -0.1167 -0.4384
32713SOL    HW1 2595   5.207   3.009   2.627 -0.3665 -0.8153 -0.5102
32713SOL    HW2 2596   5.157   3.101   2.517  0.1955  0.6095  0.3933
32714SOL     OW 2597   0.713   6.756   4.101 -0.6416  0.5296  0.8222
32714SOL    HW1 2598   0.705   6.840   4.146  0.5662  1.3755 -0.4873
32714SOL    HW2 2599   0.633   6.749   4.049  0.6115  2.4127 -1.5184
32715SOL     OW 2600   5.832   3.700   3.491 -0.0988 -0.2904 -0.2124
32715SOL    HW1 2601   5.781   3.759   3.547  0.4932 -0.9732  1.1050
32715SOL    HW2 2602   5.775   3.624   3.480 -0.6386  0.2772 -1.4452
32716SOL     OW 2603   7.519   7.022   4.953  0.7581  0.5077 -1.1326
32716SOL    HW1 2604   7.431   7.058   4.946  0.7830  1.7574  2.7003
32716SOL    HW2 2605   7.517   6.966   5.030  2.9545 -0.8411 -1.9288
32717SOL     OW 2606   8.487   1.545   0.017 -1.1794 -0.2699  0.4700
32717SOL    HW1 2607   8.553   1.612  -0.003 -2.2501  0.9397  0.8152
32717SOL    HW2 2608   8.497   1.480  -0.053  1.6994 -1.2202  1.6020
32718SOL     OW 2609   7.661  10.017   3.270  0.2670 -0.5323 -0.1795
32718SOL    HW1 2610   7.643   9.994   3.178 -1.1535  1.1279 -0.3519
32718SOL    HW2 2611   7.589  10.074   3.295  1.0839 -0.2886  1.7386
32719SOL     OW 2612   3.105  10.859   3.434 -0.3826  0.1012  0.1810
32719SOL    HW1 2613   3.080  10.777   3.478  0.2307  0.2691  0.8663
32719SOL    HW2 2614   3.022  10.900   3.410 -0.8086  0.5589  2.2342
32720SOL     OW 2615   4.327   3.479   9.745 -0.0544  0.1998 -0.6402
32720SOL    HW1 2616   4.259   3.535   9.708  0.0721  1.1109  0.4662
32720SOL    HW2 2617   4.282   3.425   9.810  0.4207  1.5874  0.9082
32721SOL     OW 2618   7.653   2.988   8.833  0.1315  0.0058  0.2947
32721SOL    HW1 2619   7.665   2.911   8.889 -0.9518 -0.3399  0.0744
32721SOL    HW2 2620   7.604   2.956   8.758 -0.8094  1.0101  0.4493
32722SOL     OW 2621   2.235   2.206   4.462  0.1601  0.2521 -0.0420
32722SOL    HW1 2622   2.163   2.227   4.403  0.7214 -0.3087 -0.9584
32722SOL    HW2 2623   2.311   2.196   4.404  1.0582  1.1913  0.9347
32723SOL     OW 2624   8.106   4.477   9.478  0.2040  0.8754  0.2365
32723SOL    HW1 2625   8.057   4.539   9.424  1.5972  2.5568  0.8284
32723SOL    HW2 2626   8.188   4.464   9.432  0.3299  0.2393  0.6320
32724SOL     OW 2627   1.136   9.603   0.533  0.0376  0.0854 -0.4968
32724SOL    HW1 2628   1.190   9.618   0.611  2.4244  2.3692 -2.4335
32724SOL    HW2 2629   1.174   9.526   0.491  1.4755  1.2949 -1.5021
32725SOL     OW 2630   0.440   3.021   8.926 -0.3468 -0.0060 -0.1970
32725SOL    HW1 2631   0.460   2.987   8.839 -0.7091 -0.1329 -0.2326
32725SOL    HW2 2632   0.401   3.107   8.910  0.6681  0.4973 -0.1027
32726SOL     OW 2633   0.373   5.136   5.322  0.1907  0.0943  0.3864
32726SOL    HW1 2634   0.363   5.056   5.269  1.5284 -1.4654  2.3561
32726SOL    HW2 2635   0.285   5.172   5.328 -0.4402 -1.2156 -0.5433
32727SOL     OW 2636   4.623  10.039   7.554 -0.4867  0.4441  0.3342
32727SOL    HW1 2637   4.625   9.946   7.577  0.8784  0.6457  1.1330
32727SOL    HW2 2638   4.657  10.043   7.465  0.0909  0.2339  0.5412
32728SOL     OW 2639   6.060   1.454   2.172  0.0050  0.6303  0.5556
32728SOL    HW1 2640   6.058   1.541   2.214 -1.6040  0.4967  0.8205
32728SOL    HW2 2641   6.040   1.471   2.080 -1.1866  0.4823  0.7705
32729SOL     OW 2642   2.153   3.278   8.132 -0.1458 -0.0374 -0.0246
32729SOL    HW1 2643   2.203   3.253   8.210 -0.3115  0.1434  0.1403
32729SOL    HW2 2644   2.073   3.318   8.166 -0.2849 -0.0888 -0.2882
32730SOL     OW 2645   3.535  10.234   3.317 -0.3610  0.3123 -0.5483
32730SOL    HW1 2646   3.517  10.296   3.246 -0.8327  1.3543  0.4531
32730SOL    HW2 2647   3.630  10.235   3.327 -0.4221  1.6137  0.0847
32731SOL     OW 2648   1.372   6.998   5.502 -0.6549 -0.6884 -0.4641
32731SOL    HW1 2649   1.353   6.999   5.408 -2.8242  0.5192 -0.0881
32731SOL    HW2 2650   1.302   6.946   5.540 -0.2594 -0.4958  0.5574
32732SOL     OW 2651   6.338   1.187   9.555 -0.1016 -0.2131 -0.0177
32732SOL    HW1 2652   6.432   1.182   9.570 -0.2489 -0.7037  0.8341
32732SOL    HW2 2653   6.311   1.096   9.540 -0.6182 -0.2460  0.9904
32733SOL     OW 2654   1.308   9.977   3.345  0.2952  0.7550  0.2110
32733SOL    HW1 2655   1.223   9.971   3.302  0.5073  0.0403 -0.1186
32733SOL    HW2 2656   1.371   9.979   3.272  0.5199  2.2494  0.4152
32734SOL     OW 2657   9.130   0.524   1.881 -0.4603  0.7892 -0.1271
32734SOL    HW1 2658   9.161   0.545   1.969  0.0569 -1.6081  0.3349
32734SOL    HW2 2659   9.200   0.471   1.843 -1.9543 -0.8017 -0.8106
32735SOL     OW 2660   2.219   1.708   4.176  0.0045  0.0316 -0.2130
32735SOL    HW1 2661   2.156   1.681   4.243  0.8211  0.8614  0.9291
32735SOL    HW2 2662   2.272   1.774   4.219  3.1081 -2.1584 -0.3715
32736SOL     OW 2663   4.822   7.776   7.998 -0.2778 -0.2296 -0.0991
32736SOL    HW1 2664   4.773   7.774   8.080 -1.4245 -0.7535 -0.7817
32736SOL    HW2 2665   4.853   7.686   7.986  0.7891  0.0649  0.2589
32737SOL     OW 2666   7.924   4.557   2.440  0.6410 -0.0473 -0.1989
32737SOL    HW1 2667   7.839   4.523   2.411  1.0213 -0.7781 -0.4798
32737SOL    HW2 2668   7.903   4.609   2.518 -0.1830  0.5942 -0.8272
32738SOL     OW 2669   8.799   1.558  10.707  0.5279  0.1851  0.4026
32738SOL    HW1 2670   8.838   1.472  10.691  1.7251  0.5874  0.9920
32738SOL    HW2 2671   8.784   1.594  10.620 -1.0513 -1.0555  0.1237
32739SOL     OW 2672   4.442   7.151   3.748  0.2560  0.4130  0.0011
32739SOL    HW1 2673   4.459   7.126   3.657  1.1196 -1.9981  0.7426
32739SOL    HW2 2674   4.516   7.206   3.772  1.0204 -0.4910 -0.2285
32740SOL     OW 2675   0.773   5.176   5.911 -0.4427 -0.0674 -0.3429
32740SOL    HW1 2676   0.866   5.153   5.904  0.0437  0.7778  2.3109
32740SOL    HW2 2677   0.761   5.249   5.851  0.9587  0.6558  0.2227
32741SOL     OW 2678   7.329   5.553   0.842 -0.2067  0.0855  0.1019
32741SOL    HW1 2679   7.286   5.598   0.769 -0.0844  0.4916  0.2806
32741SOL    HW2 2680   7.420   5.545   0.815 -0.0597  0.6791  0.4237
32742SOL     OW 2681   6.582   9.781   6.960  0.1094 -0.0891  0.5671
32742SOL    HW1 2682   6.629   9.710   7.004 -0.3290 -1.3349 -0.9049
32742SOL    HW2 2683   6.534   9.825   7.030  2.1741  0.2240  1.8680
32743SOL     OW 2684   9.371   9.061   0.461 -0.1554 -0.6544 -0.2220
32743SOL    HW1 2685   9.278   9.074   0.445  0.4011  3.5363 -1.0589
32743SOL    HW2 2686   9.379   9.059   0.557 -1.0759 -1.7250 -0.1354
32744SOL     OW 2687   9.700   8.443   4.039  0.7189  0.3263  0.0775
32744SOL    HW1 2688   9.781   8.422   3.994  0.6276 -3.0242  1.2191
32744SOL    HW2 2689   9.660   8.359   4.058 -1.0629  1.6720  3.1016
32745SOL     OW 2690   8.219   5.482   0.881 -0.4910  0.2465 -0.2971
32745SOL    HW1 2691   8.253   5.553   0.937  0.0784  0.1046 -0.4519
32745SOL    HW2 2692   8.288   5.416   0.883 -1.3388 -0.6278  0.4313
32746SOL     OW 2693   5.455   6.044  10.205 -0.3111  0.6557 -0.8310
32746SOL    HW1 2694   5.411   5.965  10.174 -2.7268  1.7760 -0.4801
32746SOL    HW2 2695   5.483   6.089  10.125  3.7340 -1.7684 -1.0587
32747SOL     OW 2696   5.314   0.246   4.071 -0.0487 -0.2502 -0.5331
32747SOL    HW1 2697   5.303   0.255   4.165 -0.0603  0.5441 -0.6046
32747SOL    HW2 2698   5.396   0.292   4.051 -0.1200 -0.2873 -0.9313
32748SOL     OW 2699   3.227  10.971   9.575  0.1260  0.1777  0.5378
32748SOL    HW1 2700   3.321  10.973   9.556  0.0836 -0.3151  0.2702
32748SOL    HW2 2701   3.213  11.046   9.633  0.4296  1.1209 -0.5629
32749SOL     OW 2702   8.437   9.876   7.155 -0.3586 -0.2379  0.7541
32749SOL    HW1 2703   8.351   9.836   7.143 -1.1575  1.7761 -0.8143
32749SOL    HW2 2704   8.418   9.968   7.172  1.4947  0.8756 -2.4367
32750SOL     OW 2705   6.972   7.707   6.680  0.3597  0.1431 -0.0314
32750SOL    HW1 2706   6.999   7.790   6.721 -0.4197 -0.7254  2.4408
32750SOL    HW2 2707   7.025   7.641   6.725  0.8034 -0.7558 -1.8116
32751SOL     OW 2708   9.861   1.607   1.051  0.3247  0.4166  0.2296
32751SOL    HW1 2709   9.800   1.588   0.980  1.7990 -2.1210 -0.5125
32751SOL    HW2 2710   9.836   1.694   1.082 -1.5652  0.8280 -2.1299
32752SOL     OW 2711   0.835   5.950   0.147  0.4751 -0.2022 -0.1308
32752SOL    HW1 2712   0.750   5.922   0.114  0.4017  0.3976 -0.4698
32752SOL    HW2 2713   0.854   5.890   0.219 -0.8347  0.4299  0.7812
32753SOL     OW 2714   5.419   3.858   4.095  1.0272 -0.0354  0.0087
32753SOL    HW1 2715   5.395   3.950   4.110  0.4858  0.2250 -2.2132
32753SOL    HW2 2716   5.340   3.809   4.114  0.2268  0.3267 -2.1701
32754SOL     OW 2717  10.868   0.176   8.764  0.2475 -0.5310 -0.0282
32754SOL    HW1 2718  10.848   0.110   8.830  1.0708 -0.7179  0.0402
32754SOL    HW2 2719  10.840   0.259   8.803 -1.3949 -0.8904 -0.3692
32755SOL     OW 2720   3.542  10.539   3.914  0.7182  0.3418  0.5044
32755SOL    HW1 2721   3.542  10.454   3.870  0.8533  0.5967  0.0031
32755SOL    HW2 2722   3.463  10.538   3.969 -0.4618  0.6905 -1.0972
32756SOL     OW 2723  10.804   5.439   3.044  0.1553  0.1192 -0.3132
32756SOL    HW1 2724  10.881   5.417   2.992  0.5159  2.8041 -1.0339
32756SOL    HW2 2725  10.803   5.373   3.114  1.6180 -1.4944 -1.7328
32757SOL     OW 2726  10.136   6.391   3.967 -0.1922 -0.1016  0.5253
32757SOL    HW1 2727  10.227   6.377   3.993  0.2370  0.4568 -0.6301
32757SOL    HW2 2728  10.085   6.348   4.036  0.9131  0.2998  1.6397
32758SOL     OW 2729   9.791   6.564  10.980 -0.0660 -0.6048 -0.8597
32758SOL    HW1 2730   9.816   6.519  10.899  0.1747 -1.7346 -0.1900
32758SOL    HW2 2731   9.695   6.555  10.983  0.0404 -1.8139 -0.3490
32759SOL     OW 2732   7.138   5.380   5.634  0.2405  0.2191  0.0636
32759SOL    HW1 2733   7.093   5.305   5.594 -2.7517  2.2014 -0.6465
32759SOL    HW2 2734   7.136   5.362   5.728 -0.9424 -0.3452 -0.0515
32760SOL     OW 2735   5.904   0.180   4.252 -0.2197 -0.4391  0.7338
32760SOL    HW1 2736   5.997   0.160   4.255  0.1234 -0.1622 -2.9031
32760SOL    HW2 2737   5.861   0.095   4.252  0.1583 -0.6300  0.8347
32761SOL     OW 2738   1.398  10.862   4.537 -0.5411 -0.0614  0.0516
32761SOL    HW1 2739   1.460  10.792   4.560  1.7429  1.8007 -0.0692
32761SOL    HW2 2740   1.436  10.904   4.460 -1.5180  1.6854  0.4671
32762SOL     OW 2741  10.700   1.815   3.644  0.4253 -0.1039 -0.2659
32762SOL    HW1 2742  10.629   1.844   3.587  0.1112  0.1537  0.2565
32762SOL    HW2 2743  10.720   1.726   3.614 -0.5151 -0.4068 -0.0335
32763SOL     OW 2744   3.476   5.505   2.987 -0.0171 -0.4299 -0.0328
32763SOL    HW1 2745   3.524   5.556   3.053 -1.6549 -0.7700  1.5200
32763SOL    HW2 2746   3.540   5.442   2.954  0.6802 -0.8092  1.8772
32764SOL     OW 2747   6.271   3.739   4.279 -0.4295  0.3547 -0.2177
32764SOL    HW1 2748   6.256   3.806   4.345 -0.4693  2.1936 -1.9690
32764SOL    HW2 2749   6.283   3.788   4.197 -1.5014 -1.8238 -1.7968
32765SOL     OW 2750   1.865   7.155   2.867 -0.5351 -0.4272  0.1930
32765SOL    HW1 2751   1.813   7.232   2.842 -0.4634  0.8082  3.2578
32765SOL    HW2 2752   1.823   7.081   2.824 -3.0124  0.9063  0.1571
32766SOL     OW 2753   3.480  10.071   8.073  0.3201  0.0043 -0.1176
32766SOL    HW1 2754   3.548  10.083   8.007 -0.4341  1.2715 -0.6913
32766SOL    HW2 2755   3.435  10.155   8.079 -0.5046 -0.4732  1.0455
32767SOL     OW 2756   5.320   3.572  10.518  0.2966  0.3458  0.4940
32767SOL    HW1 2757   5.406   3.588  10.481 -0.2356  0.9395 -0.5526
32767SOL    HW2 2758   5.262   3.563  10.441 -0.2781 -1.8850  1.1074
32768SOL     OW 2759   0.732   3.754   2.407  0.0042 -0.2696  0.0515
32768SOL    HW1 2760   0.696   3.709   2.484  0.1679 -2.5861 -1.1380
32768SOL    HW2 2761   0.655   3.778   2.356 -0.0324 -2.5453 -1.0527
32769SOL     OW 2762   6.177   3.494   7.365 -0.5916  0.1904 -0.0860
32769SOL    HW1 2763   6.185   3.530   7.453 -0.3748 -0.9865  0.4077
32769SOL    HW2 2764   6.092   3.523   7.334 -0.3304  1.2894  0.1804
32770SOL     OW 2765   7.008   9.566   3.888 -0.1678 -0.3756 -0.0772
32770SOL    HW1 2766   7.026   9.483   3.932  0.2707 -0.0542  0.3761
32770SOL    HW2 2767   7.076   9.625   3.921  1.0739 -0.4716 -2.2688
32771SOL     OW 2768   7.810   2.922   3.363  0.0206  0.3517 -0.4566
32771SOL    HW1 2769   7.889   2.943   3.412  1.1249 -0.6299 -1.7499
32771SOL    HW2 2770   7.768   3.006   3.347  1.3687  1.0046 -0.6584
32772SOL     OW 2771   9.233   3.560  10.274 -0.1285 -0.3468  0.9195
32772SOL    HW1 2772   9.205   3.641  10.315 -1.2192  0.5904 -1.4976
32772SOL    HW2 2773   9.328   3.559  10.284  0.2389  2.5736 -1.1257
32773SOL     OW 2774   6.068   0.882   0.120  0.0681  0.6008 -0.4718
32773SOL    HW1 2775   6.147   0.828   0.110  0.2447  0.9909 -1.2891
32773SOL    HW2 2776   6.053   0.886   0.214  0.8195  0.2248 -0.3283
32774SOL     OW 2777   5.117   6.031   0.180 -0.0988  0.3836  0.6345
32774SOL    HW1 2778   5.194   6.087   0.192  0.2854  0.1033 -0.3925
32774SOL    HW2 2779   5.152   5.950   0.144 -0.9873  0.7496 -1.1717
32775SOL     OW 2780   9.949   7.183   7.669  0.6313 -0.1720 -0.0113
32775SOL    HW1 2781   9.889   7.134   7.613  0.2939 -2.2308  1.9846
32775SOL    HW2 2782   9.910   7.270   7.675 -0.8700 -0.7557 -0.6953
32776SOL     OW 2783   9.323   6.897   6.571 -0.7932 -0.1236  0.1628
32776SOL    HW1 2784   9.290   6.878   6.659  1.8597 -1.3233  0.9814
32776SOL    HW2 2785   9.373   6.978   6.580  2.0654 -1.8007  0.5799
32777SOL     OW 2786   7.643   8.509   6.196 -0.0340  0.1118  0.1491
32777SOL    HW1 2787   7.551   8.529   6.215  0.5872  2.6994  0.8287
32777SOL    HW2 2788   7.674   8.464   6.275 -0.3291  0.7281  0.6325
32778SOL     OW 2789   3.196  10.757   6.354 -0.1842 -0.0773  0.1294
32778SOL    HW1 2790   3.218  10.687   6.416  1.0332  0.6307  0.5177
32778SOL    HW2 2791   3.272  10.763   6.296 -1.1839 -0.5395 -1.3097
32779SOL     OW 2792   0.458  10.541   5.139 -0.2081  0.0854 -0.3828
32779SOL    HW1 2793   0.491  10.561   5.051 -2.0704  0.0116 -1.1452
32779SOL    HW2 2794   0.457  10.445   5.143  0.6167  0.0825  0.0423
32780SOL     OW 2795   0.452   7.901   3.594 -0.0558 -0.1021 -0.1921
32780SOL    HW1 2796   0.496   7.883   3.511  0.9021  2.7671 -0.4113
32780SOL    HW2 2797   0.477   7.991   3.615 -4.3157  1.1201  0.6438
32781SOL     OW 2798   9.942   7.889   5.972  0.7524 -0.1887 -0.0895
32781SOL    HW1 2799  10.018   7.922   5.923  0.2916 -1.7328 -1.9667
32781SOL    HW2 2800   9.978   7.817   6.024  1.0313  0.7578  1.0733
32782SOL     OW 2801   8.153   2.980   6.242 -0.0344  0.6565  0.4251
32782SOL    HW1 2802   8.192   2.994   6.156  0.1319  0.7089  0.5092
32782SOL    HW2 2803   8.219   3.010   6.304 -0.5218  1.5141  0.5474
32783SOL     OW 2804   9.164   2.413   2.262 -0.3134  0.2324 -0.0098
32783SOL    HW1 2805   9.070   2.406   2.282  0.1146 -0.4582  1.9746
32783SOL    HW2 2806   9.207   2.374   2.337  1.6092  1.1602 -0.5738
32784SOL     OW 2807   4.601   4.125  10.705 -0.3516 -0.6818  0.0641
32784SOL    HW1 2808   4.517   4.136  10.749  0.6378  1.4112  1.5885
32784SOL    HW2 2809   4.632   4.040  10.733 -0.9779 -0.5371  1.2673
32785SOL     OW 2810   3.923   3.207  10.168 -0.3599  0.3028  0.1315
32785SOL    HW1 2811   3.894   3.290  10.129 -0.5387  0.0408 -0.2991
32785SOL    HW2 2812   4.016   3.202  10.147 -0.3496  0.3918  0.1543
32786SOL     OW 2813   6.985   3.692   0.040  0.3951 -0.2349 -1.0702
32786SOL    HW1 2814   6.945   3.734  -0.036 -1.3704  1.1365  0.4931
32786SOL    HW2 2815   6.911   3.670   0.097  1.7048  1.9088  1.7442
32787SOL     OW 2816   6.955   9.285   5.481  0.2173 -0.4941 -0.4844
32787SOL    HW1 2817   6.862   9.269   5.494  0.3838 -0.2413  1.2743
32787SOL    HW2 2818   6.974   9.249   5.394 -1.6107 -0.0464 -1.1132
32788SOL     OW 2819   5.105   3.183   9.321  0.2824  0.1473 -0.1389
32788SOL    HW1 2820   5.171   3.202   9.254  1.4052 -1.5181  0.4385
32788SOL    HW2 2821   5.063   3.103   9.292 -0.0335  0.0534  0.5506
32789SOL     OW 2822   6.777   5.257   7.806  0.4007  0.5322 -0.3535
32789SOL    HW1 2823   6.724   5.315   7.859 -2.4085 -1.1816 -1.0626
32789SOL    HW2 2824   6.736   5.260   7.719  1.2672 -1.0930 -0.8633
32790SOL     OW 2825   4.146  10.255   4.930  0.3825 -0.1264  0.5133
32790SOL    HW1 2826   4.136  10.226   4.840  0.4463 -0.5004  0.6238
32790SOL    HW2 2827   4.124  10.348   4.928  1.6657  0.1726 -0.1167
32791SOL     OW 2828   6.715   1.691   6.034 -0.1793 -0.1063  0.1124
32791SOL    HW1 2829   6.647   1.755   6.012 -1.5049 -1.4777  0.0394
32791SOL    HW2 2830   6.687   1.655   6.118 -0.0066 -1.2796 -0.3168
32792SOL     OW 2831   1.052   7.626   2.285  0.5708  0.2162 -0.3388
32792SOL    HW1 2832   1.052   7.532   2.265 -1.6071  0.1436 -0.2347
32792SOL    HW2 2833   0.977   7.638   2.344  1.1607  1.9373  0.1176
32793SOL     OW 2834   2.712   7.289   2.202 -0.4552 -0.2413  0.1640
32793SOL    HW1 2835   2.630   7.338   2.194 -0.3284 -0.1295 -0.5128
32793SOL    HW2 2836   2.685   7.197   2.208 -0.5951 -0.3949 -1.9365
32794SOL     OW 2837   0.036   7.567   7.450  0.7724  0.0885 -0.8114
32794SOL    HW1 2838   0.011   7.478   7.426 -0.6032 -0.3095  1.6466
32794SOL    HW2 2839   0.108   7.556   7.511  0.7447  0.6575 -0.6679
32795SOL     OW 2840  10.670   0.093   7.757  0.9340  0.6243  1.2832
32795SOL    HW1 2841  10.622   0.170   7.727  2.4204  0.3374 -2.3916
32795SOL    HW2 2842  10.609   0.021   7.748  0.8457  0.7985  0.3822
32796SOL     OW 2843   2.651   3.590   2.007  0.4685  0.1856  0.7230
32796SOL    HW1 2844   2.578   3.555   1.955  0.9018 -0.0666  0.2803
32796SOL    HW2 2845   2.615   3.600   2.095 -0.2640  0.5782  0.3863
32797SOL     OW 2846   2.048  10.363   8.742 -0.1771  0.6995 -0.4266
32797SOL    HW1 2847   1.968  10.387   8.789 -0.6212 -0.1016 -0.7510
32797SOL    HW2 2848   2.091  10.446   8.724 -0.4752  1.0860  0.5602
32798SOL     OW 2849   3.854   2.435   4.513 -0.1359 -0.2288  0.0111
32798SOL    HW1 2850   3.921   2.490   4.552  0.0978 -0.8763  0.5286
32798SOL    HW2 2851   3.830   2.480   4.432 -1.1593  1.5317  1.2245
32799SOL     OW 2852   8.650   0.972   4.542  0.8681 -0.7311 -0.0475
32799SOL    HW1 2853   8.644   0.902   4.607  1.0499 -0.3858  0.3516
32799SOL    HW2 2854   8.576   1.029   4.561  0.7556 -0.7833 -0.3315
32800SOL     OW 2855   8.938   2.998   7.128  0.0432  0.1413 -0.5062
32800SOL    HW1 2856   9.032   2.994   7.146 -0.2447 -0.6550  0.9758
32800SOL    HW2 2857   8.922   3.090   7.107  1.3429  0.0616 -2.0536
32801SOL     OW 2858   6.799   4.152   2.555 -0.0981  0.1893  0.0943
32801SOL    HW1 2859   6.765   4.220   2.496 -1.7956 -0.0034  0.7838
32801SOL    HW2 2860   6.869   4.195   2.603  0.1771  0.8555 -0.8653
32802SOL     OW 2861  10.751   7.106   4.236  0.2977 -0.3051  0.3020
32802SOL    HW1 2862  10.772   7.046   4.308  1.5058  0.9485  1.0373
32802SOL    HW2 2863  10.817   7.175   4.243  0.0200  0.1889 -1.6176
32803SOL     OW 2864   8.405  10.435   4.855 -0.1879  0.9388 -0.3573
32803SOL    HW1 2865   8.360  10.357   4.886  2.4509 -0.4382  0.2728
32803SOL    HW2 2866   8.419  10.488   4.933  1.3025  0.2180 -0.0926
32804SOL     OW 2867   2.550   3.135   4.799 -0.2587  0.1236  0.2509
32804SOL    HW1 2868   2.588   3.086   4.726  0.3749  1.1376 -0.1146
32804SOL    HW2 2869   2.456   3.136   4.781 -0.2315 -0.5441  0.0264
32805SOL     OW 2870   6.064   1.106  10.236  0.3716  0.3493  0.3313
32805SOL    HW1 2871   6.065   1.191  10.190 -2.1347  0.5823  0.5452
32805SOL    HW2 2872   5.983   1.064  10.206  1.0153 -1.5235  1.0715
32806SOL     OW 2873   7.057   5.729   1.120 -0.2771  0.2884 -0.6109
32806SOL    HW1 2874   7.028   5.786   1.048  0.8755  0.7087 -0.7502
32806SOL    HW2 2875   7.043   5.640   1.086  0.6090  0.4820 -1.5139
32807SOL     OW 2876   5.785   3.318   7.363  0.0113 -0.1287  0.1011
32807SOL    HW1 2877   5.732   3.398   7.357  1.0780  0.5396 -0.7169
32807SOL    HW2 2878   5.786   3.282   7.275 -0.3001 -0.9690  0.4232
32808SOL     OW 2879   6.236   3.570   3.226 -0.1944  0.5739  0.9859
32808SOL    HW1 2880   6.229   3.659   3.192 -0.8681 -0.7487 -2.8325
32808SOL    HW2 2881   6.145   3.541   3.236 -0.1844 -1.0442 -2.2985
32809SOL     OW 2882   2.746   8.803   8.370  0.3919 -0.4958  0.4030
32809SOL    HW1 2883   2.674   8.772   8.424 -1.7263  3.2731  0.0633
32809SOL    HW2 2884   2.818   8.816   8.432 -0.6429 -0.2234  1.5946
32810SOL     OW 2885  10.379  10.389   6.951  0.0360  0.0741  0.0852
32810SOL    HW1 2886  10.315  10.447   6.992 -0.2818 -0.9914  1.1751
32810SOL    HW2 2887  10.392  10.319   7.016  0.1981 -1.2110 -1.2958
32811SOL     OW 2888   9.629  10.469   4.968 -0.6927 -0.0933  0.4185
32811SOL    HW1 2889   9.687  10.441   5.039 -0.9623  1.1709  1.1553
32811SOL    HW2 2890   9.616  10.562   4.982 -2.1165 -0.1502 -0.3079
32812SOL     OW 2891   3.553  10.481   7.795 -0.2136 -0.2460  0.0452
32812SOL    HW1 2892   3.492  10.528   7.738 -1.4162 -1.6502  0.1281
32812SOL    HW2 2893   3.498  10.423   7.847  1.1872 -1.6235  0.0734
32813SOL     OW 2894   4.044   1.199   4.430  0.1549 -0.0113  0.5153
32813SOL    HW1 2895   4.111   1.211   4.497  0.4220 -0.9951  0.4419
32813SOL    HW2 2896   4.038   1.284   4.386  2.1074 -0.1854 -0.1708
32814SOL     OW 2897   7.307   0.397   4.649 -0.3496  0.7401 -0.1740
32814SOL    HW1 2898   7.293   0.444   4.567  0.3120  1.8391  0.3144
32814SOL    HW2 2899   7.239   0.430   4.708 -0.0363  0.8975  0.1009
32815SOL     OW 2900   1.748  10.464   7.437 -0.1394 -0.2823  0.1919
32815SOL    HW1 2901   1.744  10.420   7.522  1.1709 -2.0543 -0.6050
32815SOL    HW2 2902   1.832  10.439   7.401 -0.1672  1.3886 -1.1726
32816SOL     OW 2903   4.137   7.979  10.549 -0.2574 -0.1564  0.3767
32816SOL    HW1 2904   4.101   7.947  10.467  2.1985  1.5295 -1.5042
32816SOL    HW2 2905   4.098   8.066  10.560  0.5858  0.2624  0.1365
32817SOL     OW 2906   3.618   7.585   5.698  0.4199  0.1484  0.2939
32817SOL    HW1 2907   3.534   7.540   5.690  0.2737  0.3143  0.8827
32817SOL    HW2 2908   3.684   7.515   5.693  0.2500  0.0248 -0.2127
32818SOL     OW 2909   6.023   3.942   1.715 -0.5271  0.3896  0.1831
32818SOL    HW1 2910   5.966   3.867   1.705  0.7035 -0.7160  1.1103
32818SOL    HW2 2911   6.082   3.937   1.640 -0.3264  0.3077  0.3435
32819SOL     OW 2912  10.649   7.225   5.490 -0.1896 -0.0037  0.8360
32819SOL    HW1 2913  10.724   7.283   5.474 -1.0418  1.3328  1.4269
32819SOL    HW2 2914  10.573   7.284   5.488 -0.9992 -0.9007  2.6387
32820SOL     OW 2915   9.513   0.994   8.162  0.3751 -0.4512 -0.0392
32820SOL    HW1 2916   9.553   0.909   8.176  0.7869  0.0229  2.0745
32820SOL    HW2 2917   9.586   1.056   8.161  0.1823 -0.1599 -2.5835
32821SOL     OW 2918   7.059   5.554   6.071 -0.2135  0.6525 -0.0873
32821SOL    HW1 2919   7.022   5.546   5.983 -0.8284 -0.7395  0.2697
32821SOL    HW2 2920   7.093   5.643   6.074  0.2436  0.5962 -1.8910
32822SOL     OW 2921   4.620   7.443   9.373 -0.6588 -0.7143 -0.3893
32822SOL    HW1 2922   4.625   7.476   9.284 -0.0265  1.3324  0.3344
32822SOL    HW2 2923   4.533   7.471   9.404 -1.7513 -3.2010 -0.9443
32823SOL     OW 2924   0.275   5.592   7.952  0.7970  0.8828 -0.6779
32823SOL    HW1 2925   0.242   5.529   8.017 -0.5758 -0.2525 -2.3680
32823SOL    HW2 2926   0.244   5.677   7.982 -2.1172  0.0765 -1.1533
32824SOL     OW 2927   0.228   9.666   0.923  0.1653  0.4138 -0.2104
32824SOL    HW1 2928   0.302   9.708   0.879  0.2749 -0.7655 -1.2068
32824SOL    HW2 2929   0.252   9.665   1.016 -0.2185  3.2773  0.0172
32825SOL     OW 2930   5.745   5.603  10.551 -0.1103  0.6472  0.1689
32825SOL    HW1 2931   5.789   5.569  10.629 -1.1564 -2.6810 -0.5145
32825SOL    HW2 2932   5.656   5.623  10.581 -0.1243  0.6980  0.0945
32826SOL     OW 2933   5.206   4.116   7.101 -0.5608  0.0119 -0.2517
32826SOL    HW1 2934   5.277   4.109   7.037 -1.0880 -1.3340 -0.7216
32826SOL    HW2 2935   5.246   4.158   7.177  0.3921  0.4940 -0.9990
32827SOL     OW 2936   8.832   3.930  10.485 -0.3330  0.6575  0.7221
32827SOL    HW1 2937   8.919   3.930  10.525 -0.0687  1.5059  0.1700
32827SOL    HW2 2938   8.809   4.022  10.477 -1.3044  0.4420  0.8795
32828SOL     OW 2939   0.718   1.446   1.704 -0.0475  0.9984 -0.3506
32828SOL    HW1 2940   0.653   1.475   1.640  0.1138  0.3675 -0.8174
32828SOL    HW2 2941   0.789   1.510   1.698  0.5836  0.2228 -1.8109
32829SOL     OW 2942   1.939   1.165   3.480  0.6710 -0.0606  0.1530
32829SOL    HW1 2943   2.004   1.233   3.462  2.2649 -1.3981  0.6144
32829SOL    HW2 2944   1.944   1.152   3.574  0.1457 -0.5900  0.1117
32830SOL     OW 2945   7.079   9.948   3.508  0.1833  0.1193 -0.3313
32830SOL    HW1 2946   7.122   9.909   3.584 -0.0101 -0.6717 -0.6094
32830SOL    HW2 2947   7.149   9.958   3.443  0.5242  1.6001  0.2298
32831SOL     OW 2948   8.226   2.874   0.570 -0.1437  0.1414 -0.2849
32831SOL    HW1 2949   8.239   2.801   0.509 -1.2198 -0.3285  0.0271
32831SOL    HW2 2950   8.205   2.832   0.653  2.3850  0.7394  0.7466
32832SOL     OW 2951   3.293   9.811  10.710  0.0817  0.3206 -0.3312
32832SOL    HW1 2952   3.217   9.809  10.651  0.1386 -0.0134 -0.3913
32832SOL    HW2 2953   3.368   9.818  10.651  0.1893 -0.8023 -0.3325
32833SOL     OW 2954   3.335   0.637   8.444 -0.0288 -0.6026 -0.1571
32833SOL    HW1 2955   3.306   0.637   8.353  2.8413 -1.8604 -1.2102
32833SOL    HW2 2956   3.390   0.715   8.452 -0.0257 -0.6566  0.4089
32834SOL     OW 2957   2.024   4.422   8.811 -0.0538 -0.4260 -0.4191
32834SOL    HW1 2958   2.038   4.433   8.717 -0.0325 -0.3028 -0.4013
32834SOL    HW2 2959   1.993   4.331   8.820  0.5063 -0.6250 -0.4795
32835SOL     OW 2960   4.442   4.225   7.246  0.4906  0.5039 -0.0704
32835SOL    HW1 2961   4.394   4.151   7.282 -0.4836  1.1291 -0.0386
32835SOL    HW2 2962   4.469   4.276   7.322  0.0690  0.8350 -0.1396
32836SOL     OW 2963   5.651  10.817   2.110 -0.0895 -0.1992 -0.3175
32836SOL    HW1 2964   5.727  10.763   2.132 -0.3936 -0.1758  0.8807
32836SOL    HW2 2965   5.630  10.862   2.191 -1.3818 -0.2016 -0.6367
32837SOL     OW 2966  10.806   9.486   3.542  0.2876 -0.7611 -0.2490
32837SOL    HW1 2967  10.716   9.502   3.571  0.0172  0.7403 -1.7355
32837SOL    HW2 2968  10.796   9.442   3.457  1.0072 -2.4513  0.5116
32838SOL     OW 2969   7.091   3.086   0.868  0.5567 -0.0822 -0.6216
32838SOL    HW1 2970   7.000   3.088   0.838  0.0724  2.0135  0.8079
32838SOL    HW2 2971   7.120   3.177   0.866  2.5660 -0.6722 -0.7705
32839SOL     OW 2972   8.731  10.468  10.698  0.4881  0.2150 -0.1404
32839SOL    HW1 2973   8.739  10.501  10.787  0.3629 -0.0895 -0.0166
32839SOL    HW2 2974   8.644  10.427  10.695  0.7419 -0.3288 -0.2169
32840SOL     OW 2975   1.878   1.445   9.742 -0.1211  0.1216  0.0571
32840SOL    HW1 2976   1.784   1.455   9.726 -0.4392  0.1475  1.7372
32840SOL    HW2 2977   1.890   1.352   9.758  0.3691 -0.0745 -1.3697
32841SOL     OW 2978   1.724   1.207   3.867 -0.7876  0.4652  0.3757
32841SOL    HW1 2979   1.641   1.233   3.826 -0.0867  0.7836 -0.8780
32841SOL    HW2 2980   1.780   1.284   3.859 -0.9090  0.9087  2.8641
32842SOL     OW 2981   3.181   7.745  10.473  0.7286 -0.5091 -0.4133
32842SOL    HW1 2982   3.101   7.794  10.452 -0.7450 -2.4571  0.2945
32842SOL    HW2 2983   3.215   7.717  10.387 -1.1297 -2.2212 -0.6722
32843SOL     OW 2984   3.770   6.179   6.843 -0.4140 -0.2942 -0.3564
32843SOL    HW1 2985   3.759   6.202   6.935  0.5401  0.2702 -0.3746
32843SOL    HW2 2986   3.855   6.214   6.819 -1.1051  0.5174 -1.7556
32844SOL     OW 2987   4.508   3.222   3.812  0.0870  0.0333 -0.3827
32844SOL    HW1 2988   4.499   3.147   3.753 -1.0693 -0.1464 -0.0098
32844SOL    HW2 2989   4.476   3.296   3.762 -0.3429 -0.0178 -0.1883
32845SOL     OW 2990   9.640   3.935   3.038  0.4521  0.3252 -0.1067
32845SOL    HW1 2991   9.620   3.877   3.112 -1.4405  1.2182  0.1221
32845SOL    HW2 2992   9.726   3.972   3.060  0.9882 -1.1702  0.4891
32846SOL     OW 2993   3.041   7.840   9.778 -0.9579  0.2415 -0.1783
32846SOL    HW1 2994   2.973   7.893   9.735 -0.3535  0.3748 -0.9825
32846SOL    HW2 2995   3.031   7.753   9.739 -0.7771  0.2163 -0.1660
32847SOL     OW 2996   3.433   1.339   0.536 -0.2816  0.0639  0.0337
32847SOL    HW1 2997   3.397   1.278   0.472 -1.9852  1.4072 -0.3804
32847SOL    HW2 2998   3.356   1.374   0.581  0.8452 -0.7998  2.8468
32848SOL     OW 2999   6.688   8.523   8.736 -0.0339 -0.1349 -0.1252
32848SOL    HW1 3000   6.641   8.466   8.675  0.4424 -0.8424  0.1575
32848SOL    HW2 3001   6.764   8.553   8.687 -0.3048  0.3011 -0.2876
32849SOL     OW 3002   7.525   8.227   9.688  0.3151 -0.3029 -0.2501
32849SOL    HW1 3003   7.495   8.248   9.600  0.6026  0.6356 -0.1372
32849SOL    HW2 3004   7.596   8.165   9.674 -0.5315 -1.2154 -0.6005
32850SOL     OW 3005   3.860   6.076   1.844  0.4228  0.2825 -0.2253
32850SOL    HW1 3006   3.899   6.131   1.912  0.2125  1.3737 -0.9762
32850SOL    HW2 3007   3.933   6.027   1.807  0.4607 -0.8241  1.2039
32851SOL     OW 3008   4.227   9.065   3.527  0.4995 -0.6475  0.3566
32851SOL    HW1 3009   4.272   9.071   3.611  0.9246 -0.8555  0.1450
32851SOL    HW2 3010   4.295   9.040   3.464  0.7584  1.9294 -0.5276
32852SOL     OW 3011   4.195   8.041   6.138 -0.0519 -0.4426  0.0803
32852SOL    HW1 3012   4.269   8.087   6.177 -0.8820  0.2287  0.9444
32852SOL    HW2 3013   4.196   7.954   6.178  1.1748 -1.0004 -1.1058
32853SOL     OW 3014   4.519   6.116   2.862  0.1974 -1.2673 -0.5641
32853SOL    HW1 3015   4.453   6.166   2.815  0.2270 -0.8420 -0.1625
32853SOL    HW2 3016   4.506   6.026   2.834 -1.5777 -1.4443  0.6830
32854SOL     OW 3017   7.508   1.101   6.636  0.4801 -0.0931 -0.2402
32854SOL    HW1 3018   7.477   1.119   6.724  1.0106 -0.7944  0.1005
32854SOL    HW2 3019   7.447   1.149   6.579 -0.6443 -0.6765  0.4350
32855SOL     OW 3020   6.760   5.817   6.120  0.3219 -0.1679 -0.1318
32855SOL    HW1 3021   6.777   5.742   6.177  0.1260  0.5690  0.9334
32855SOL    HW2 3022   6.760   5.893   6.179 -0.9976  0.5038 -0.9344
32856SOL     OW 3023   7.137  10.907   5.029  1.1059  0.4254  0.1199
32856SOL    HW1 3024   7.043  10.890   5.023  1.4621 -1.8633 -0.1555
32856SOL    HW2 3025   7.173  10.828   5.068  3.0523  0.7399 -0.8919
32857SOL     OW 3026   9.905   9.884   0.389 -0.2585  0.2156  0.3841
32857SOL    HW1 3027   9.842   9.812   0.387 -0.7431  0.6276 -2.5741
32857SOL    HW2 3028   9.860   9.958   0.347  0.9141  1.6840  1.5831
32858SOL     OW 3029   8.339  10.892   4.501  0.1884  0.5659 -0.0018
32858SOL    HW1 3030   8.432  10.873   4.486 -0.0005  0.8029 -1.7462
32858SOL    HW2 3031   8.296  10.808   4.486 -0.0811  0.9712 -1.6871
32859SOL     OW 3032   8.984   4.267   6.805  0.0792  0.2780  0.3078
32859SOL    HW1 3033   8.898   4.308   6.792  0.1907  0.0939 -1.1951
32859SOL    HW2 3034   8.972   4.209   6.880 -1.2425 -0.0445 -0.1190
32860SOL     OW 3035   8.188   6.201   3.882 -0.4139 -0.0473  0.0818
32860SOL    HW1 3036   8.113   6.225   3.937 -1.8058 -1.0110 -1.2966
32860SOL    HW2 3037   8.177   6.253   3.802  0.3858 -0.2167 -0.1455
32861SOL     OW 3038   7.793   3.178   8.117 -0.7919  0.0583 -0.6707
32861SOL    HW1 3039   7.739   3.236   8.064 -1.8947  0.4045  0.7662
32861SOL    HW2 3040   7.795   3.219   8.203  1.0855 -0.3948 -0.4573
32862SOL     OW 3041   8.258   1.550   5.403 -0.0093  0.3426 -0.3469
32862SOL    HW1 3042   8.222   1.526   5.318  0.6878 -0.1044 -0.5307
32862SOL    HW2 3043   8.271   1.644   5.399  1.1126  0.1710 -1.1856
32863SOL     OW 3044   9.222   3.970   1.095 -0.3406 -0.4484 -0.1628
32863SOL    HW1 3045   9.270   3.888   1.104 -0.8199 -0.6118  1.1749
32863SOL    HW2 3046   9.289   4.036   1.080  0.4300 -0.5705  2.3067
32864SOL     OW 3047   2.661   9.238   9.690 -0.0219 -0.2540 -0.3859
32864SOL    HW1 3048   2.590   9.290   9.728 -0.6087  0.3336 -2.1901
32864SOL    HW2 3049   2.619   9.158   9.659  0.4663 -0.7814  0.2970
32865SOL     OW 3050   9.636   8.192   8.940  0.0647 -0.5594 -0.5618
32865SOL    HW1 3051   9.653   8.272   8.990 -0.5517 -0.1562 -0.9897
32865SOL    HW2 3052   9.545   8.170   8.960  0.4145 -1.5357  0.0675
32866SOL     OW 3053   0.301   9.742  10.226  0.3402 -0.0680 -0.6601
32866SOL    HW1 3054   0.265   9.653  10.220  0.1936  0.0352 -1.4848
32866SOL    HW2 3055   0.278   9.782  10.142  1.0909  0.4922 -0.6033
32867SOL     OW 3056   6.950   8.854   8.374  0.3376  0.0197 -0.1776
32867SOL    HW1 3057   6.876   8.795   8.391 -0.6673  0.9600 -1.0828
32867SOL    HW2 3058   6.984   8.825   8.289  0.8875 -0.2835  0.1451
32868SOL     OW 3059   7.971   1.001   3.705  0.1237 -0.6055  0.1320
32868SOL    HW1 3060   8.027   1.054   3.650 -0.6242 -0.9521 -1.0107
32868SOL    HW2 3061   7.951   0.924   3.652 -1.0343 -0.7128  0.6804
32869SOL     OW 3062   8.858   2.616   8.395  0.1423 -0.2321  0.2916
32869SOL    HW1 3063   8.765   2.591   8.391 -0.0966  0.0576  2.7360
32869SOL    HW2 3064   8.904   2.540   8.359 -0.8376 -2.3791  3.1514
32870SOL     OW 3065   2.838   7.983   2.101 -0.2383 -0.2643 -0.4518
32870SOL    HW1 3066   2.928   8.017   2.099 -1.0725  2.1125 -0.4036
32870SOL    HW2 3067   2.790   8.038   2.040 -1.8502 -0.9867  0.1131
32871SOL     OW 3068  11.070   1.346   6.021 -0.1273 -0.5817  0.0937
32871SOL    HW1 3069  11.079   1.265   6.072  1.4207  0.9328  2.4362
32871SOL    HW2 3070  11.081   1.318   5.930 -0.6522 -3.1247  0.7213
32872SOL     OW 3071  10.126  10.948   6.901  0.3153  0.3167 -0.2226
32872SOL    HW1 3072  10.106  10.947   6.994 -0.5778 -2.1167 -0.3740
32872SOL    HW2 3073  10.045  10.921   6.858  1.2751 -0.6417 -1.5327
32873SOL     OW 3074   2.192   2.806  10.197 -0.3015  0.2139  0.3554
32873SOL    HW1 3075   2.125   2.863  10.235 -1.3709 -0.8676  0.1500
32873SOL    HW2 3076   2.234   2.765  10.272  0.7134  1.4729  0.5248
32874SOL     OW 3077   6.509   4.526   8.067 -0.2109 -0.3066  0.3684
32874SOL    HW1 3078   6.572   4.564   8.128 -0.5330  0.9025 -0.0257
32874SOL    HW2 3079   6.562   4.483   8.000  0.2484  1.4485 -0.4399
32875SOL     OW 3080   8.375   7.292   1.163 -0.2355  0.3590  0.4581
32875SOL    HW1 3081   8.447   7.230   1.177 -0.8437 -0.4403  0.0963
32875SOL    HW2 3082   8.418   7.378   1.162  1.0259 -0.2081 -1.6801
32876SOL     OW 3083   8.910   1.883  10.138  1.1299 -0.0870 -0.2708
32876SOL    HW1 3084   8.914   1.819  10.209  1.5472  0.7298  0.4729
32876SOL    HW2 3085   8.928   1.967  10.181 -2.8551  1.1320 -0.4863
32877SOL     OW 3086   2.676   9.665   5.442 -0.7900 -0.0812 -0.5378
32877SOL    HW1 3087   2.603   9.674   5.381 -1.0138  0.8651 -0.1549
32877SOL    HW2 3088   2.681   9.751   5.486  1.5913  0.4721 -1.7174
32878SOL     OW 3089   3.899   9.586   3.193 -0.2018  0.0588 -0.2463
32878SOL    HW1 3090   3.914   9.522   3.263 -0.9034 -0.6529 -0.7327
32878SOL    HW2 3091   3.804   9.595   3.189 -0.1447  0.4225 -0.8293
32879SOL     OW 3092   7.804   3.324   6.473  0.2962  0.1381  0.4595
32879SOL    HW1 3093   7.889   3.279   6.473  0.0487 -0.4046 -1.1096
32879SOL    HW2 3094   7.756   3.284   6.546  0.7180 -0.9176  0.1800
32880SOL     OW 3095   6.900   7.019   6.030 -0.8404  0.1265 -0.2197
32880SOL    HW1 3096   6.954   7.055   5.959 -0.6912 -1.4225 -0.9232
32880SOL    HW2 3097   6.961   6.977   6.089 -1.2320 -1.9869 -1.2273
32881SOL     OW 3098   8.747   8.377   0.511  0.2587  0.0102  0.1371
32881SOL    HW1 3099   8.776   8.318   0.581  0.9946 -0.1865 -0.3206
32881SOL    HW2 3100   8.658   8.401   0.536 -0.3828 -1.9474 -0.0596
32882SOL     OW 3101  10.932   3.458   4.194  0.4027 -0.3279 -0.2668
32882SOL    HW1 3102  10.988   3.382   4.176 -0.1449 -0.6904 -0.4689
32882SOL    HW2 3103  10.992   3.532   4.199  1.0062 -0.8531  0.4267
32883SOL     OW 3104   1.944   9.755   4.712 -0.2547  0.6452  0.5394
32883SOL    HW1 3105   2.027   9.758   4.664  0.0504  1.2323  1.0858
32883SOL    HW2 3106   1.880   9.726   4.647  0.6275 -1.3368  0.4711
32884SOL     OW 3107   3.818   4.555   2.352  0.3216  0.3729 -0.9620
32884SOL    HW1 3108   3.753   4.562   2.421  0.4323  1.4266 -0.9425
32884SOL    HW2 3109   3.768   4.568   2.271  0.3459  0.1726 -1.0079
32885SOL     OW 3110   2.243   9.574   4.088 -0.6086 -0.0903  0.4966
32885SOL    HW1 3111   2.203   9.513   4.026  0.4342 -1.1873  0.8624
32885SOL    HW2 3112   2.170   9.625   4.122 -1.6163 -1.5789  0.6524
32886SOL     OW 3113   5.649  10.739   5.467  0.2105  0.1013  0.4108
32886SOL    HW1 3114   5.628  10.656   5.424 -0.8798  1.1231 -1.1404
32886SOL    HW2 3115   5.744  10.740   5.472  0.3899 -0.0796 -2.0158
32887SOL     OW 3116   7.648   9.446   9.877 -0.6209 -0.3552 -0.1621
32887SOL    HW1 3117   7.572   9.417   9.827 -0.7265 -2.4971  1.1174
32887SOL    HW2 3118   7.719   9.388   9.850  0.1834  0.6110 -0.1974
32888SOL     OW 3119   7.863  10.208   9.618 -0.0673  0.4980 -0.1126
32888SOL    HW1 3120   7.829  10.288   9.577 -0.2951 -0.5871 -2.1492
32888SOL    HW2 3121   7.785  10.159   9.645  0.0709  0.8758  1.0467
32889SOL     OW 3122   7.370  10.058   0.342 -0.5094  0.0791 -0.0885
32889SOL    HW1 3123   7.363  10.054   0.437 -1.3519 -3.9057 -0.1715
32889SOL    HW2 3124   7.449  10.010   0.320 -0.2836  0.9893 -1.4526
32890SOL     OW 3125   9.613   1.430   1.268 -0.1604  0.2130 -0.1794
32890SOL    HW1 3126   9.620   1.361   1.202 -3.1566  0.2929 -0.7294
32890SOL    HW2 3127   9.687   1.488   1.250  0.7777 -1.3237 -1.5566
32891SOL     OW 3128  10.384   5.753   3.171 -0.1563  0.0588 -0.0672
32891SOL    HW1 3129  10.428   5.763   3.086  0.5333 -0.5588  0.2093
32891SOL    HW2 3130  10.312   5.816   3.168  1.1849  1.6625 -0.2223
32892SOL     OW 3131   7.240   7.799   1.066  0.1688  0.1147  0.3830
32892SOL    HW1 3132   7.252   7.887   1.101 -2.5842 -0.1444  2.2846
32892SOL    HW2 3133   7.321   7.753   1.087  0.4783  1.3682  2.1052
32893SOL     OW 3134   7.273   0.140   9.047 -0.2725  0.4330 -0.1447
32893SOL    HW1 3135   7.308   0.201   9.111  1.0763  0.6196 -1.0205
32893SOL    HW2 3136   7.330   0.150   8.970 -1.5846 -0.0732 -1.2306
32894SOL     OW 3137   5.759   2.468   2.892 -0.2494  0.4041  0.3437
32894SOL    HW1 3138   5.758   2.425   2.977  0.7305 -1.9997 -0.7510
32894SOL    HW2 3139   5.829   2.532   2.898  2.2783 -2.1882  0.3454
32895SOL     OW 3140   7.792   3.123   3.610  0.0289 -0.1339  0.1457
32895SOL    HW1 3141   7.823   3.099   3.697 -0.9513  2.3115  1.2656
32895SOL    HW2 3142   7.708   3.080   3.601  0.0153 -0.1959  0.5409
32896SOL     OW 3143   4.257   9.325   2.321 -0.6618 -0.1167  0.1707
32896SOL    HW1 3144   4.302   9.300   2.240 -0.5790  0.1925  0.1216
32896SOL    HW2 3145   4.268   9.249   2.379 -1.4015 -0.6677 -0.3787
32897SOL     OW 3146   0.448   5.812   9.044 -0.6980  0.0891 -0.1732
32897SOL    HW1 3147   0.453   5.860   9.127  0.3199 -2.3129  1.2552
32897SOL    HW2 3148   0.357   5.821   9.016 -0.8574  1.6332  0.7298
32898SOL     OW 3149   4.853   6.991   0.060 -0.0954  0.7073 -0.4473
32898SOL    HW1 3150   4.846   6.977   0.154  0.3236 -1.0307 -0.6410
32898SOL    HW2 3151   4.904   7.071   0.051 -2.1485  2.2497  0.7878
32899SOL     OW 3152   4.603   6.701   5.401  0.5105 -0.5737 -0.6412
32899SOL    HW1 3153   4.689   6.739   5.382  0.6945 -1.1733 -1.0262
32899SOL    HW2 3154   4.595   6.705   5.496  0.8023 -0.1803 -0.6289
32900SOL     OW 3155   3.503   0.148   7.750  0.1523 -0.4376  0.2189
32900SOL    HW1 3156   3.442   0.194   7.693  1.0114  1.6999  0.8944
32900SOL    HW2 3157   3.560   0.100   7.691 -1.5840 -1.7590 -0.4576
32901SOL     OW 3158   7.673   5.907   8.878 -0.4848  0.1904  0.8127
32901SOL    HW1 3159   7.698   5.815   8.869  0.7731  0.3086  2.7856
32901SOL    HW2 3160   7.579   5.908   8.856 -0.5772 -1.5855  1.0048
32902SOL     OW 3161   0.876  10.250   9.119  0.4506 -0.0866  0.4068
32902SOL    HW1 3162   0.840  10.197   9.191 -1.8004 -0.5866 -0.9980
32902SOL    HW2 3163   0.800  10.292   9.080  1.6619  0.4721 -1.4577
32903SOL     OW 3164   6.066   8.927   1.709 -0.3064  0.1160 -0.4734
32903SOL    HW1 3165   6.137   8.894   1.764 -0.4679 -0.9188 -0.8468
32903SOL    HW2 3166   6.109   8.985   1.646 -0.0973  1.1658  0.6076
32904SOL     OW 3167   7.603   3.744   8.657  0.2379 -0.4164  0.1140
32904SOL    HW1 3168   7.692   3.718   8.636 -0.7332 -3.3283 -0.8118
32904SOL    HW2 3169   7.557   3.747   8.573 -0.5058  1.4525  0.5212
32905SOL     OW 3170   5.695   1.006   6.205 -0.4462  0.2854 -0.1811
32905SOL    HW1 3171   5.709   0.930   6.149 -0.7122  0.1716 -0.0940
32905SOL    HW2 3172   5.732   0.982   6.289 -1.4159 -0.1243  0.1326
32906SOL     OW 3173   7.225   0.657   1.616 -0.3725 -0.2545  0.4190
32906SOL    HW1 3174   7.220   0.752   1.615 -1.6801 -0.3096 -0.8962
32906SOL    HW2 3175   7.275   0.636   1.696 -1.0209  1.4625  1.3083
32907SOL     OW 3176   2.088   4.645   4.534 -0.1486 -0.0841  0.7320
32907SOL    HW1 3177   2.150   4.609   4.598  0.8193 -0.4899 -0.3826
32907SOL    HW2 3178   2.071   4.734   4.563  0.7098 -0.0816  1.2469
32908SOL     OW 3179   0.564   8.196   3.404  0.1121  0.4543  0.2953
32908SOL    HW1 3180   0.530   8.136   3.338 -0.3994  0.5622  0.4554
32908SOL    HW2 3181   0.622   8.255   3.356  1.5084 -0.8446  0.3102
32909SOL     OW 3182   4.489   0.497  10.262 -0.4340  0.1313  0.0604
32909SOL    HW1 3183   4.436   0.435  10.211 -2.0539  2.0829 -0.7847
32909SOL    HW2 3184   4.443   0.581  10.252  1.6343  1.4746  1.1698
32910SOL     OW 3185   0.209   9.314   6.684 -0.6077 -0.5512  0.5938
32910SOL    HW1 3186   0.140   9.288   6.623 -1.7102 -0.5927  1.8193
32910SOL    HW2 3187   0.290   9.303   6.634 -1.4898 -0.1562 -1.0014
32911SOL     OW 3188   7.852   6.760   2.002  0.7645 -0.0698 -0.0246
32911SOL    HW1 3189   7.930   6.756   1.946  0.5984  1.6346 -0.4542
32911SOL    HW2 3190   7.880   6.722   2.085  1.4643 -1.2750 -0.7859
32912SOL     OW 3191  10.328   8.524   7.268 -0.5883  0.4212 -0.0132
32912SOL    HW1 3192  10.406   8.526   7.323 -0.5543  0.4862 -0.0641
32912SOL    HW2 3193  10.351   8.576   7.192  0.6866 -2.6673 -1.9101
32913SOL     OW 3194   1.136   6.962   6.195 -0.4419  0.0531 -0.4233
32913SOL    HW1 3195   1.181   7.041   6.166  2.1488 -0.2020  2.3892
32913SOL    HW2 3196   1.204   6.896   6.200 -1.7922 -1.3225  0.8689
32914SOL     OW 3197   0.245   1.366   7.875 -0.5763 -0.4431  0.2425
32914SOL    HW1 3198   0.283   1.326   7.797 -0.4529 -1.7713  0.9526
32914SOL    HW2 3199   0.151   1.369   7.857 -0.4330  0.2930 -0.4024
32915SOL     OW 3200   7.865   1.614   9.571  0.2403 -0.2003  0.0549
32915SOL    HW1 3201   7.770   1.626   9.569  0.3909  1.5624  1.1613
32915SOL    HW2 3202   7.899   1.697   9.604  2.1197 -1.0738  0.4576
32916SOL     OW 3203   1.947   2.242   5.023  0.6110 -0.4628 -0.2383
32916SOL    HW1 3204   2.014   2.310   5.009  2.0673 -1.5847  1.0288
32916SOL    HW2 3205   1.894   2.245   4.943 -0.4974  3.2991  0.4223
32917SOL     OW 3206   1.641   1.731   5.662  0.4022 -0.1148  0.0745
32917SOL    HW1 3207   1.682   1.767   5.584  0.0159 -1.1304 -0.6247
32917SOL    HW2 3208   1.684   1.645   5.673 -2.4363 -1.9097 -1.5522
32918SOL     OW 3209   2.657   5.325   0.322 -0.1003  0.1024 -0.0511
32918SOL    HW1 3210   2.642   5.247   0.376  0.6309 -1.6852 -2.2303
32918SOL    HW2 3211   2.684   5.289   0.237 -0.6781  2.7499 -1.4439
32919SOL     OW 3212   3.680   2.769   4.369  0.1329 -0.5739 -0.2464
32919SOL    HW1 3213   3.710   2.808   4.451 -1.0912 -0.1530  0.0150
32919SOL    HW2 3214   3.749   2.706   4.346  0.1900 -1.1727  1.4288
32920SOL     OW 3215   9.542   1.939   2.135  0.0981  0.4806 -0.0121
32920SOL    HW1 3216   9.538   1.931   2.231  0.9167 -1.9618 -0.1260
32920SOL    HW2 3217   9.469   1.886   2.103  1.1136 -0.5122 -0.7602
32921SOL     OW 3218   0.251   0.260   0.787 -0.2190  0.4073  0.2199
32921SOL    HW1 3219   0.291   0.261   0.874 -0.1471 -1.4979  0.2546
32921SOL    HW2 3220   0.294   0.187   0.742  0.6556  2.1272 -1.8857
32922SOL     OW 3221   4.193   7.063   4.937  0.1252  0.2615  0.2169
32922SOL    HW1 3222   4.163   7.023   5.019 -0.5829  0.5894  0.1309
32922SOL    HW2 3223   4.264   7.007   4.908  0.5185  0.2499  1.1549
32923SOL     OW 3224   8.627   6.694   1.447 -0.2350 -0.4187  0.1313
32923SOL    HW1 3225   8.550   6.643   1.474 -1.4982  0.6414 -1.3164
32923SOL    HW2 3226   8.700   6.634   1.460 -1.4743 -2.0115  0.0834
32924SOL     OW 3227   9.447   1.128   9.226 -0.1384  0.4782  0.8128
32924SOL    HW1 3228   9.448   1.032   9.224  0.7266  0.4843 -0.4075
32924SOL    HW2 3229   9.361   1.151   9.261 -2.4250 -0.7481 -3.3814
32925SOL     OW 3230   1.006   8.767   4.790 -0.0901  0.1254 -0.2062
32925SOL    HW1 3231   0.921   8.812   4.794  0.0309  0.3954 -0.6209
32925SOL    HW2 3232   1.042   8.791   4.705  0.9620  1.0208  0.4627
32926SOL     OW 3233   4.967   0.829   3.697  0.5621  0.1744 -0.0691
32926SOL    HW1 3234   4.916   0.772   3.639  0.2661  1.0851 -0.7166
32926SOL    HW2 3235   5.032   0.770   3.736  1.6419 -0.2390 -2.3290
32927SOL     OW 3236   9.217   9.796   6.100  0.3138 -0.4024  0.0570
32927SOL    HW1 3237   9.227   9.721   6.041  1.2564 -0.2762  0.0440
32927SOL    HW2 3238   9.296   9.848   6.087 -0.6781  1.0351 -0.5347
32928SOL     OW 3239   0.140   0.257   8.430  0.4028  0.0744  0.0988
32928SOL    HW1 3240   0.216   0.225   8.382  0.0935 -0.0890 -0.2940
32928SOL    HW2 3241   0.075   0.274   8.362  0.0678  0.1488  0.4342
32929SOL     OW 3242   5.986   6.560   3.087 -0.5998 -0.6355  0.0617
32929SOL    HW1 3243   5.952   6.648   3.105  1.4894  0.6197 -1.6993
32929SOL    HW2 3244   5.923   6.522   3.026 -0.9746  0.0412  0.0202
32930SOL     OW 3245   6.853  10.127   0.007 -0.0136 -0.1633 -0.0268
32930SOL    HW1 3246   6.883  10.101   0.094 -0.6047 -3.3988 -0.6462
32930SOL    HW2 3247   6.932  10.125  -0.047  0.3731  1.9507  0.3608
32931SOL     OW 3248   3.669  10.748   4.439  0.2559  0.1877 -0.4037
32931SOL    HW1 3249   3.761  10.721   4.448 -0.2098 -1.1369  0.6358
32931SOL    HW2 3250   3.637  10.753   4.529 -0.5602  1.1544 -0.7352
32932SOL     OW 3251   1.714   8.352   7.713 -0.2250  0.1064  0.1558
32932SOL    HW1 3252   1.678   8.429   7.668 -1.2909  1.7176  3.4416
32932SOL    HW2 3253   1.638   8.297   7.731  0.1143 -0.2879  0.4018
32933SOL     OW 3254   4.826   2.012   7.919  0.1005  0.0564 -0.0600
32933SOL    HW1 3255   4.896   2.044   7.976 -1.3261  0.0199  1.8392
32933SOL    HW2 3256   4.799   1.929   7.960 -1.5120  0.4326 -0.2955
32934SOL     OW 3257   9.201   7.793   2.322 -0.6810 -0.2051 -0.5955
32934SOL    HW1 3258   9.172   7.720   2.377 -1.3041  1.4109  1.3556
32934SOL    HW2 3259   9.296   7.786   2.320 -0.7725 -1.5757 -1.2352
32935SOL     OW 3260   0.536   5.535   9.809 -0.5677  0.2906  0.8475
32935SOL    HW1 3261   0.597   5.561   9.739 -0.2275  0.0804  1.0608
32935SOL    HW2 3262   0.450   5.558   9.776 -0.4080  0.1807  0.3545
32936SOL     OW 3263   1.885   4.920   8.928 -0.3675 -0.1179  0.0446
32936SOL    HW1 3264   1.939   4.847   8.958 -0.0201 -0.5186 -1.4889
32936SOL    HW2 3265   1.802   4.880   8.904 -0.4662  0.1213 -0.0153
32937SOL     OW 3266   8.398   2.457   8.239  0.3433  0.4389 -0.4573
32937SOL    HW1 3267   8.401   2.472   8.145 -1.5058  0.0019 -0.6247
32937SOL    HW2 3268   8.316   2.498   8.267 -0.9505 -2.4505  0.3478
32938SOL     OW 3269   1.377   8.014   8.509 -0.6819 -0.0447  0.0316
32938SOL    HW1 3270   1.297   7.997   8.558 -0.8812  3.5349  1.2154
32938SOL    HW2 3271   1.348   8.066   8.434  0.2836 -0.8833 -0.9611
32939SOL     OW 3272   4.299   8.427   8.531 -0.4819 -0.6221  0.2515
32939SOL    HW1 3273   4.338   8.467   8.608 -0.2288 -0.4016  0.0113
32939SOL    HW2 3274   4.340   8.341   8.524  0.4723 -0.1380 -0.3789
32940SOL     OW 3275   9.806   0.153   0.040  0.0624 -0.3929  0.4234
32940SOL    HW1 3276   9.811   0.203   0.121  0.1623 -0.3229  0.3730
32940SOL    HW2 3277   9.745   0.081   0.061  0.1356 -0.4113  0.5779
32941SOL     OW 3278  10.552   0.644   6.281 -0.0367 -0.4405 -0.3875
32941SOL    HW1 3279  10.525   0.671   6.369 -0.8044 -2.1627 -0.0720
32941SOL    HW2 3280  10.617   0.710   6.256 -0.8686  0.9235  0.8560
32942SOL     OW 3281   1.628   1.841   3.041 -0.4340  0.5595 -0.0605
32942SOL    HW1 3282   1.597   1.928   3.066  0.1638 -0.0379  3.1899
32942SOL    HW2 3283   1.548   1.792   3.021 -0.7977  1.6846 -1.5309
32943SOL     OW 3284   3.557   3.174   6.893 -0.1952 -0.2324 -0.0399
32943SOL    HW1 3285   3.542   3.107   6.960 -1.2885  1.0427  1.0581
32943SOL    HW2 3286   3.639   3.148   6.852  0.0109 -1.6027  1.1377
32944SOL     OW 3287   7.311   0.944   2.513  0.1843 -0.0100 -0.2355
32944SOL    HW1 3288   7.226   0.977   2.482  1.1210  1.5523 -1.2706
32944SOL    HW2 3289   7.347   0.898   2.437  0.0380 -1.2135  0.3939
32945SOL     OW 3290   2.515   5.452   2.832  0.0614  0.0968 -0.6086
32945SOL    HW1 3291   2.577   5.465   2.904 -0.2383  0.0093 -0.3333
32945SOL    HW2 3292   2.500   5.358   2.830  2.1900 -0.2805 -2.5635
32946SOL     OW 3293   4.724   7.895   0.185  0.0503  0.3418  0.2470
32946SOL    HW1 3294   4.634   7.874   0.158  0.0002  2.6565 -1.7690
32946SOL    HW2 3295   4.779   7.852   0.120  0.2879  0.4700  0.3625
32947SOL     OW 3296   9.318   9.036   7.072 -0.5687 -0.3025  0.0921
32947SOL    HW1 3297   9.301   9.039   7.166 -0.4052 -1.6848  0.1780
32947SOL    HW2 3298   9.239   8.997   7.034 -2.0712  3.1205 -0.7842
32948SOL     OW 3299   1.818   2.780   8.155 -0.1751  0.3639 -0.4481
32948SOL    HW1 3300   1.872   2.760   8.079 -0.0354 -1.4374  0.0747
32948SOL    HW2 3301   1.872   2.752   8.230 -0.6487  1.3128  0.2689
32949SOL     OW 3302   5.122   0.147   9.438 -0.3147  0.0531  0.1544
32949SOL    HW1 3303   5.119   0.202   9.516  0.3021  0.7233 -0.2765
32949SOL    HW2 3304   5.118   0.209   9.365 -0.8904 -0.5637 -0.3510
32950SOL     OW 3305   8.246  10.818   1.677  0.4438 -0.2832 -0.0918
32950SOL    HW1 3306   8.334  10.813   1.714  0.6231 -0.8352 -0.5707
32950SOL    HW2 3307   8.259  10.854   1.589 -0.0099  1.3174  0.4587
32951SOL     OW 3308   8.421   0.776   6.132 -0.2551 -0.6151 -0.4801
32951SOL    HW1 3309   8.449   0.867   6.136 -1.0055 -0.3337 -1.1614
32951SOL    HW2 3310   8.430   0.743   6.221 -1.8152  0.7156  0.2279
32952SOL     OW 3311   9.332   6.752   9.025 -0.8011  0.1844  0.0982
32952SOL    HW1 3312   9.379   6.704   8.957 -0.6026 -0.1255  0.4516
32952SOL    HW2 3313   9.352   6.844   9.008 -2.8612  0.3493 -1.8398
32953SOL     OW 3314   6.913   3.559   2.934  0.1585  0.3053  0.2444
32953SOL    HW1 3315   6.956   3.579   2.850  1.5286  3.2370  1.4851
32953SOL    HW2 3316   6.834   3.614   2.933  0.5287  0.8615  1.1202
32954SOL     OW 3317   8.956   1.589   3.449 -0.5774 -0.5268 -0.0309
32954SOL    HW1 3318   9.048   1.610   3.435 -0.5919 -0.1618  0.4294
32954SOL    HW2 3319   8.952   1.493   3.441 -0.2454 -0.5070 -0.5174
32955SOL     OW 3320   9.277   4.181   0.587 -0.7003  0.3158  0.7717
32955SOL    HW1 3321   9.187   4.214   0.599 -1.5892 -1.7946  0.3319
32955SOL    HW2 3322   9.276   4.138   0.502  0.8445  0.5033  0.6301
32956SOL     OW 3323   2.628   4.899   4.824  0.2773  0.1171  0.1062
32956SOL    HW1 3324   2.592   4.827   4.772 -0.6722  1.0816 -0.6081
32956SOL    HW2 3325   2.688   4.944   4.764  0.2260  0.4234  0.2834
32957SOL     OW 3326   4.347   5.815   2.196  0.0012 -0.5075 -0.0167
32957SOL    HW1 3327   4.394   5.896   2.215 -2.6042  0.7666  1.5292
32957SOL    HW2 3328   4.305   5.831   2.111 -0.1431 -0.4276  0.0702
32958SOL     OW 3329   5.284   5.900   5.291 -0.0391  0.1713 -0.0860
32958SOL    HW1 3330   5.263   5.859   5.207  0.0359 -2.5798  1.1354
32958SOL    HW2 3331   5.218   5.865   5.352  2.1557 -1.0013  1.7831
32959SOL     OW 3332   1.832   4.701   5.332 -0.1727  0.3546  0.5068
32959SOL    HW1 3333   1.760   4.651   5.369  1.1702 -1.1176  1.2160
32959SOL    HW2 3334   1.852   4.768   5.398 -0.9870  0.8992  0.2190
32960SOL     OW 3335   0.494   2.200   2.477  0.1673 -0.5632 -0.3289
32960SOL    HW1 3336   0.531   2.113   2.493  1.1326  0.0681  1.0496
32960SOL    HW2 3337   0.441   2.189   2.398 -0.6623 -2.6652  0.4493
32961SOL     OW 3338   8.008   1.379   4.156  0.5218 -0.4325  0.5094
32961SOL    HW1 3339   8.100   1.361   4.135  0.6856  0.1729  0.6987
32961SOL    HW2 3340   7.981   1.306   4.211  1.1364 -0.1748  1.1584
32962SOL     OW 3341   8.649   1.396   8.594  0.1709 -0.5920 -0.2962
32962SOL    HW1 3342   8.640   1.361   8.683  0.0864 -0.5958 -0.3061
32962SOL    HW2 3343   8.685   1.484   8.608 -2.2080  0.4245 -0.0803
32963SOL     OW 3344  10.646   3.566  10.134  0.0277  0.5058 -0.3234
32963SOL    HW1 3345  10.646   3.516  10.052  0.4704 -1.4556  0.8161
32963SOL    HW2 3346  10.723   3.535  10.181 -1.1232  0.3670  1.5507
32964SOL     OW 3347   5.182   4.351   0.816  0.8258 -0.4996  0.1069
32964SOL    HW1 3348   5.156   4.399   0.894  0.8666  1.5052 -1.0386
32964SOL    HW2 3349   5.125   4.275   0.814  0.7070 -0.5119  1.9707
32965SOL     OW 3350   5.045   1.514   1.727  0.0106  0.5827  0.1633
32965SOL    HW1 3351   4.954   1.530   1.705 -0.0279 -1.8978 -1.9939
32965SOL    HW2 3352   5.054   1.419   1.721  1.8117  0.2748  4.3541
32966SOL     OW 3353   5.463  10.757   9.186 -0.2019  0.3272 -0.1466
32966SOL    HW1 3354   5.481  10.712   9.103  0.7426 -0.6606  0.5607
32966SOL    HW2 3355   5.427  10.688   9.243  2.5193  0.0221  1.4025
32967SOL     OW 3356   2.515   8.872   9.789  0.4398  0.1670 -0.5257
32967SOL    HW1 3357   2.568   8.883   9.868 -0.4606  1.0458 -0.0183
32967SOL    HW2 3358   2.578   8.855   9.719  1.3503  0.7167  0.1485
32968SOL     OW 3359  10.705   6.109   3.794  0.5019  0.4465  0.2350
32968SOL    HW1 3360  10.742   6.066   3.871  0.3115 -0.5604 -0.2074
32968SOL    HW2 3361  10.614   6.079   3.792  0.6609 -0.0291 -0.6962
32969SOL     OW 3362   8.805   7.719  10.670 -0.1527  0.0304  0.9931
32969SOL    HW1 3363   8.742   7.773  10.622 -0.4107 -0.0651  1.2198
32969SOL    HW2 3364   8.753   7.646  10.704  0.2781 -0.6244  0.2918
32970SOL     OW 3365   2.687  10.313   1.603  0.0692 -0.1728 -0.6236
32970SOL    HW1 3366   2.776  10.346   1.592  0.7056 -1.9996 -1.3179
32970SOL    HW2 3367   2.698  10.219   1.618 -1.7887 -0.6322 -1.8563
32971SOL     OW 3368   0.282  10.768   5.025  0.0048 -0.2889  0.4184
32971SOL    HW1 3369   0.345  10.728   5.085  1.7533  1.8519  0.1556
32971SOL    HW2 3370   0.199  10.764   5.071  0.6586 -1.6485  1.5440
32972SOL     OW 3371   2.389   5.990   0.617  0.0468 -0.3091  0.1752
32972SOL    HW1 3372   2.481   5.981   0.594  0.1094 -0.0201  0.3036
32972SOL    HW2 3373   2.342   5.977   0.535  0.2681  0.7346 -0.1307
32973SOL     OW 3374   1.788   2.182   9.549  0.0912  0.1389  0.5189
32973SOL    HW1 3375   1.714   2.200   9.492 -0.5023  0.6760  1.4300
32973SOL    HW2 3376   1.857   2.151   9.490 -0.4932  0.6899 -0.4806
32974SOL     OW 3377   5.976   9.018   3.159 -0.2266 -0.2454  0.0361
32974SOL    HW1 3378   6.059   9.013   3.112 -0.2323 -0.3232  0.0339
32974SOL    HW2 3379   5.993   9.076   3.233 -0.5623  0.9546 -0.7853
32975SOL     OW 3380   6.526   5.703   3.663 -0.2698  0.2001 -0.1982
32975SOL    HW1 3381   6.522   5.626   3.719 -3.6979  0.3024 -0.0535
32975SOL    HW2 3382   6.466   5.683   3.590  1.1044  1.5729 -1.7910
32976SOL     OW 3383   0.068   6.494   0.948  0.1626  0.1040 -0.1243
32976SOL    HW1 3384   0.046   6.528   1.035 -1.4350  0.3798 -0.6098
32976SOL    HW2 3385   0.160   6.468   0.955  0.2207  0.6481  1.4767
32977SOL     OW 3386   6.695  10.987   9.248 -0.4819 -0.1473  0.1329
32977SOL    HW1 3387   6.697  11.055   9.315  2.1567 -0.1115  0.0921
32977SOL    HW2 3388   6.643  11.026   9.177 -1.1351  0.8080  1.0922
32978SOL     OW 3389   9.241  10.102   9.176  0.3692  0.7407  0.2102
32978SOL    HW1 3390   9.245  10.112   9.080  2.4792 -0.7687  0.0743
32978SOL    HW2 3391   9.331  10.112   9.205 -0.4168  2.6206  2.2916
32979SOL     OW 3392   5.044   3.975   8.886 -0.0206 -0.6986  0.6683
32979SOL    HW1 3393   5.117   4.027   8.854  0.1276 -0.9515  0.5992
32979SOL    HW2 3394   4.968   4.007   8.836 -0.0020 -0.2745  0.9084
32980SOL     OW 3395   7.759   4.974   7.387 -0.9226 -0.1195  0.1000
32980SOL    HW1 3396   7.697   5.042   7.364  0.0043  0.6586 -0.1845
32980SOL    HW2 3397   7.770   4.923   7.307 -0.4025  0.4008 -0.1710
32981SOL     OW 3398   0.851   0.843   7.828  0.1819 -0.0540 -0.7877
32981SOL    HW1 3399   0.808   0.910   7.775 -0.3530 -0.4931 -0.9211
32981SOL    HW2 3400   0.944   0.863   7.822  0.0618  0.3823 -1.2297
32982SOL     OW 3401   2.851  10.822   1.406 -0.8399 -0.4486  0.1717
32982SOL    HW1 3402   2.776  10.850   1.459 -0.0188  0.9661  0.6345
32982SOL    HW2 3403   2.924  10.874   1.440  0.5009 -2.2573  0.1783
32983SOL     OW 3404   0.780   6.662   6.282  0.4016 -0.2461  0.4995
32983SOL    HW1 3405   0.810   6.633   6.368  0.4253 -2.7009 -0.2690
32983SOL    HW2 3406   0.717   6.731   6.301  0.8245 -0.3505  2.4612
32984SOL     OW 3407   1.834   4.726   8.160  0.4052  0.6752  0.6171
32984SOL    HW1 3408   1.888   4.796   8.199 -0.1110  2.3455 -1.4697
32984SOL    HW2 3409   1.887   4.693   8.088 -0.8661  1.6110 -0.7963
32985SOL     OW 3410   1.974   1.822   0.420  0.0189  0.2768 -0.1445
32985SOL    HW1 3411   2.025   1.845   0.342  0.2984  1.1801  0.2896
32985SOL    HW2 3412   2.018   1.869   0.491 -1.4377  1.1270  0.2379
32986SOL     OW 3413   7.778   1.208   3.010  0.1280 -0.1239  0.4295
32986SOL    HW1 3414   7.699   1.260   3.027 -0.6745 -0.2961 -2.3198
32986SOL    HW2 3415   7.748   1.118   3.008  0.2776 -0.1637 -1.0297
32987SOL     OW 3416  10.941   9.402   8.530  0.6515 -0.2956 -0.2813
32987SOL    HW1 3417  10.967   9.471   8.590  0.7493  0.3640 -1.0608
32987SOL    HW2 3418  11.014   9.396   8.468  0.3216 -0.6007 -0.6463
32988SOL     OW 3419   7.294   4.704   3.341 -0.0896 -0.6974  0.2833
32988SOL    HW1 3420   7.340   4.690   3.423  0.0317 -0.5689  0.2366
32988SOL    HW2 3421   7.326   4.788   3.308 -0.3899 -0.5862  0.2725
32989SOL     OW 3422   8.678   9.147   5.453 -0.1147 -0.2705 -0.4805
32989SOL    HW1 3423   8.686   9.228   5.404 -1.6085  0.3450  0.2132
32989SOL    HW2 3424   8.594   9.110   5.424 -0.8186 -0.1166  1.2220
32990SOL     OW 3425   5.966   0.984   5.726  0.2147 -0.2155  0.7306
32990SOL    HW1 3426   5.871   0.974   5.720  0.1597 -0.0006  1.1565
32990SOL    HW2 3427   5.990   0.933   5.804  0.4247 -0.1340  0.7191
32991SOL     OW 3428   8.917   7.501   5.739  0.2672 -0.1721 -0.3940
32991SOL    HW1 3429   8.946   7.416   5.770  1.3319  0.3572  0.1182
32991SOL    HW2 3430   8.849   7.528   5.800  1.3416  0.2199  0.6698
32992SOL     OW 3431   4.060   4.978   6.750 -0.1499 -0.1035  0.1184
32992SOL    HW1 3432   4.028   4.916   6.815 -1.0949 -0.1589 -0.3930
32992SOL    HW2 3433   4.037   5.064   6.785  0.7479 -0.0439  0.6021
32993SOL     OW 3434   7.161   9.492   7.347 -0.5419 -0.2368 -0.8461
32993SOL    HW1 3435   7.138   9.565   7.290 -0.3036 -0.4783 -1.2536
32993SOL    HW2 3436   7.222   9.439   7.295 -2.5723 -2.0514 -1.5035
32994SOL     OW 3437   5.902   9.164   5.854 -0.9761 -0.4215  0.2718
32994SOL    HW1 3438   5.822   9.214   5.872 -2.1989 -0.5578 -3.8224
32994SOL    HW2 3439   5.959   9.226   5.808  0.5637 -0.8621  1.5109
32995SOL     OW 3440   9.098   2.216   6.850 -0.6819  0.3668  0.1880
32995SOL    HW1 3441   9.013   2.257   6.837 -0.4514  0.9586  0.5146
32995SOL    HW2 3442   9.089   2.129   6.811 -0.9652  0.9533 -1.1079
32996SOL     OW 3443   6.338   9.998   3.056  0.6587  0.5083 -0.2706
32996SOL    HW1 3444   6.302   9.944   3.127 -1.9421  3.3341  0.8139
32996SOL    HW2 3445   6.421  10.030   3.090 -0.2494  1.3024  1.2983
32997SOL     OW 3446   3.462   2.149   5.663 -0.0376  0.3634  0.0204
32997SOL    HW1 3447   3.513   2.101   5.598  0.5955  0.2599  0.5810
32997SOL    HW2 3448   3.508   2.135   5.746 -0.9834  0.2597  0.5504
32998SOL     OW 3449   8.777  10.329   2.637  0.1963  0.2039 -0.5065
32998SOL    HW1 3450   8.816  10.346   2.552 -0.4867  1.9113 -0.5023
32998SOL    HW2 3451   8.691  10.291   2.618 -0.2695  1.2823 -0.6141
32999SOL     OW 3452  10.711   3.815  10.265  0.1029  0.1632  0.0149
32999SOL    HW1 3453  10.695   3.737  10.212 -0.7082  0.5406 -0.2996
32999SOL    HW2 3454  10.799   3.843  10.241  0.2682 -0.4601 -0.1185
33000SOL     OW 3455   0.839   3.405   4.641 -0.2549 -0.1194 -0.0561
33000SOL    HW1 3456   0.768   3.347   4.612 -0.0088 -0.6314  0.3498
33000SOL    HW2 3457   0.844   3.389   4.736 -0.2175  0.6047  0.0665
33001SOL     OW 3458   9.775   9.950   2.838  0.1974  0.1689 -0.3739
33001SOL    HW1 3459   9.742   9.864   2.812  0.6015  0.2595 -1.2392
33001SOL    HW2 3460   9.802   9.940   2.929  1.9159 -1.1422 -0.9802
33002SOL     OW 3461   0.555   9.231  10.730 -0.3984 -0.5065 -0.2451
33002SOL    HW1 3462   0.535   9.288  10.655 -2.0547 -0.6860  0.0152
33002SOL    HW2 3463   0.544   9.143  10.696 -0.5112 -0.6029  0.0413
33003SOL     OW 3464   4.315   7.479   0.361  0.1261 -0.1131 -0.0085
33003SOL    HW1 3465   4.324   7.574   0.349 -0.8390  0.0733  0.6581
33003SOL    HW2 3466   4.221   7.465   0.373  0.0477 -1.3373 -1.6002
33004SOL     OW 3467   4.914   9.774   6.863  0.5647  0.9206  0.3271
33004SOL    HW1 3468   4.888   9.859   6.899  1.5467  0.2367  2.8419
33004SOL    HW2 3469   4.961   9.796   6.782 -0.8362  2.6099 -0.0925
33005SOL     OW 3470   8.106   0.699   1.191  0.3230  0.0047 -0.0122
33005SOL    HW1 3471   8.185   0.724   1.240  0.7754 -1.3509 -0.0197
33005SOL    HW2 3472   8.117   0.741   1.105  0.4345  0.8298  0.3963
33006SOL     OW 3473   6.383   8.754   7.031 -0.5493  0.0808  0.1378
33006SOL    HW1 3474   6.445   8.682   7.018 -1.6701 -0.9585  0.3241
33006SOL    HW2 3475   6.429   8.832   6.999  1.7419 -0.2059  2.4056
33007SOL     OW 3476   6.521   5.073   6.971 -0.0126  0.0122 -0.1421
33007SOL    HW1 3477   6.570   5.155   6.961 -0.1961  0.1770  0.2517
33007SOL    HW2 3478   6.588   5.005   6.972  0.0911  0.0882 -1.1941
33008SOL     OW 3479  10.077   2.329   7.093  0.5333 -0.6803  0.1609
33008SOL    HW1 3480  10.120   2.323   7.178  0.5955  0.2592  0.2106
33008SOL    HW2 3481   9.989   2.360   7.112  1.1115  1.3522 -0.2156
33009SOL     OW 3482   3.386   4.352   5.040  0.0762  0.2714 -0.4895
33009SOL    HW1 3483   3.329   4.419   5.003  2.3830  2.1291 -0.9911
33009SOL    HW2 3484   3.369   4.274   4.988 -2.3269  0.5579 -0.2373
33010SOL     OW 3485   9.285   7.022   2.281 -0.1962 -0.1736  0.1315
33010SOL    HW1 3486   9.317   6.962   2.215 -0.3154 -2.0749  1.7173
33010SOL    HW2 3487   9.197   7.047   2.251 -0.2309 -0.9684 -0.4487
33011SOL     OW 3488   4.574   4.438   6.454  0.8050  0.0812  0.1229
33011SOL    HW1 3489   4.603   4.529   6.452  1.6452 -0.1938 -1.1160
33011SOL    HW2 3490   4.643   4.392   6.502  2.3330 -0.5043 -2.4779
33012SOL     OW 3491   0.713   5.573   8.392  0.2547  0.2607 -0.2744
33012SOL    HW1 3492   0.797   5.612   8.368  0.1850  0.7262  0.2020
33012SOL    HW2 3493   0.709   5.584   8.487  0.2722 -0.9997 -0.1140
33013SOL     OW 3494   4.398   6.233   5.730 -0.8052  0.0772  0.0972
33013SOL    HW1 3495   4.399   6.206   5.822 -0.5383 -1.0316 -0.2129
33013SOL    HW2 3496   4.490   6.233   5.704 -0.9544 -0.7652 -0.4777
33014SOL     OW 3497   3.670   9.076   9.487 -0.3445 -0.6773  0.0886
33014SOL    HW1 3498   3.706   9.141   9.426  1.1243 -1.1539  0.4092
33014SOL    HW2 3499   3.729   9.001   9.479  0.4375 -0.4345  2.7295
33015SOL     OW 3500   3.089   7.798   0.900  0.3991 -0.0040 -0.1808
33015SOL    HW1 3501   3.011   7.833   0.944  0.2395 -1.7681  1.0830
33015SOL    HW2 3502   3.162   7.842   0.943  0.1431  0.8867 -0.6381
33016SOL     OW 3503   4.285   2.935   6.308  0.3498 -0.5377 -0.1344
33016SOL    HW1 3504   4.336   2.887   6.243  0.4341 -0.4077 -0.1634
33016SOL    HW2 3505   4.317   3.025   6.303 -0.0584 -0.3983 -0.3347
33017SOL     OW 3506   3.377   4.508   2.062  0.0999  0.0305 -0.1801
33017SOL    HW1 3507   3.332   4.488   2.144 -0.4618  0.3718 -0.3958
33017SOL    HW2 3508   3.312   4.555   2.010  0.7148  0.5648 -0.4914
33018SOL     OW 3509   3.797   2.516   8.218  0.2221  0.5219  0.1148
33018SOL    HW1 3510   3.807   2.595   8.165  0.0683 -0.2835 -1.1669
33018SOL    HW2 3511   3.823   2.445   8.160 -0.3140 -0.4359  1.0096
33019SOL     OW 3512   1.144   9.295   7.349  0.0064  0.0215  0.0814
33019SOL    HW1 3513   1.107   9.207   7.339 -0.5842  0.3525 -0.6958
33019SOL    HW2 3514   1.150   9.308   7.443  0.3031 -0.9356  0.2094
33020SOL     OW 3515   2.548   3.984   8.154 -0.0232 -0.1372 -0.3719
33020SOL    HW1 3516   2.595   4.066   8.169 -0.4896 -0.0016  0.4199
33020SOL    HW2 3517   2.610   3.916   8.180  0.3315 -0.0342 -0.9410
33021SOL     OW 3518   3.853   7.648   6.948  0.5271  0.5939 -0.0184
33021SOL    HW1 3519   3.863   7.557   6.921  1.8888  1.3217 -2.2113
33021SOL    HW2 3520   3.861   7.646   7.044  0.2714 -1.5836 -0.0023
33022SOL     OW 3521   5.234   9.572   4.177  0.4183  0.3617 -0.4140
33022SOL    HW1 3522   5.306   9.620   4.218  0.7233 -0.2990 -0.1782
33022SOL    HW2 3523   5.155   9.611   4.215  0.6807  0.2084  0.3063
33023SOL     OW 3524   3.390   0.470   0.661 -0.0552  0.4403  0.2612
33023SOL    HW1 3525   3.345   0.461   0.577 -0.5060 -1.1265  0.6516
33023SOL    HW2 3526   3.419   0.562   0.662  0.1880  0.4324 -1.6992
33024SOL     OW 3527   4.292   2.846   8.691 -0.7787 -0.4093  0.0841
33024SOL    HW1 3528   4.322   2.760   8.662  0.0145 -0.3129  0.5809
33024SOL    HW2 3529   4.282   2.896   8.610  3.4282  0.5226 -0.0916
33025SOL     OW 3530   0.147   9.246   3.366  0.2112 -0.4786 -0.2516
33025SOL    HW1 3531   0.143   9.342   3.375  0.2208 -0.3524 -1.3934
33025SOL    HW2 3532   0.212   9.231   3.298  0.7765 -1.3474  0.4693
33026SOL     OW 3533   3.650   1.759  10.873  0.0171  0.0253 -0.4755
33026SOL    HW1 3534   3.656   1.741  10.780 -1.4451  0.5997 -0.7029
33026SOL    HW2 3535   3.602   1.685  10.909 -0.7498  0.5355 -0.4346
33027SOL     OW 3536   6.314   8.416   7.375  0.1955 -0.0467 -0.1089
33027SOL    HW1 3537   6.336   8.391   7.285  1.1932 -2.7193  0.7699
33027SOL    HW2 3538   6.221   8.397   7.384  0.1908 -0.2014 -0.4702
33028SOL     OW 3539   0.001   3.058   6.846  0.0771 -0.4643  0.6196
33028SOL    HW1 3540   0.093   3.070   6.870  0.2191 -1.0338  0.3827
33028SOL    HW2 3541  -0.025   2.978   6.892 -0.0636 -0.7653  0.0268
33029SOL     OW 3542  10.004   6.687   9.525  0.7250  0.0099  0.2793
33029SOL    HW1 3543   9.956   6.604   9.525 -0.8109  0.8576 -0.5997
33029SOL    HW2 3544   9.945   6.749   9.482  3.2868  0.7069 -2.6175
33030SOL     OW 3545  10.519   7.944   6.965  0.4587  0.3159 -0.0048
33030SOL    HW1 3546  10.554   7.993   6.891  0.7606  1.1152  0.6516
33030SOL    HW2 3547  10.424   7.957   6.959  0.5285  0.9125  0.1057
33031SOL     OW 3548   7.534   3.924   2.729  0.1767 -0.7923 -0.4371
33031SOL    HW1 3549   7.614   3.936   2.679 -0.0825 -1.1990 -0.9556
33031SOL    HW2 3550   7.547   3.841   2.776  1.1784  0.4653  1.6371
33032SOL     OW 3551   2.597  10.174   6.753 -0.3797  0.1180 -0.2971
33032SOL    HW1 3552   2.688  10.200   6.770 -0.6393  0.5886  0.4235
33032SOL    HW2 3553   2.598  10.078   6.760 -0.1976  0.1967  1.0898
33033SOL     OW 3554   0.077   7.395  10.344  0.1931  0.2344  0.3407
33033SOL    HW1 3555   0.081   7.343  10.263  3.1806 -1.2649  1.2808
33033SOL    HW2 3556   0.103   7.483  10.317  2.4142 -0.5334 -0.2315
33034SOL     OW 3557   9.361   1.219   6.168 -0.2978  0.5206 -0.1325
33034SOL    HW1 3558   9.348   1.132   6.131 -0.8234  0.3770  0.3552
33034SOL    HW2 3559   9.452   1.241   6.150 -0.5303  0.4473 -1.4519
33035SOL     OW 3560   1.239  10.728   0.673 -0.0409 -0.2778  0.1121
33035SOL    HW1 3561   1.267  10.665   0.740  0.7523  0.1138  0.1671
33035SOL    HW2 3562   1.152  10.755   0.700  0.1605 -0.3402  0.8382
33036SOL     OW 3563   7.509   5.324   3.321  0.5180  0.4074  0.8178
33036SOL    HW1 3564   7.499   5.316   3.227 -2.5325  1.1941  0.9754
33036SOL    HW2 3565   7.481   5.239   3.356 -1.0838  1.0022  1.0744
33037SOL     OW 3566   2.498   1.452   6.279 -0.0752 -0.1336 -0.5025
33037SOL    HW1 3567   2.457   1.400   6.349 -2.0689  1.2919 -0.5126
33037SOL    HW2 3568   2.552   1.515   6.326  2.4639 -2.1487 -0.4933
33038SOL     OW 3569   1.468   5.816   1.356  0.5271 -0.1050 -0.0856
33038SOL    HW1 3570   1.376   5.806   1.330 -0.6307  0.9728  3.0930
33038SOL    HW2 3571   1.485   5.740   1.412  1.7395 -0.4908 -0.9341
33039SOL     OW 3572   1.470   6.464   8.524 -0.3459 -0.3190 -0.6489
33039SOL    HW1 3573   1.530   6.531   8.557  0.6059 -0.8183 -1.3273
33039SOL    HW2 3574   1.511   6.381   8.546  0.4769 -0.6891 -3.2378
33040SOL     OW 3575   1.250   0.603   3.275 -0.1666  0.5405 -0.1854
33040SOL    HW1 3576   1.286   0.514   3.268 -3.0132 -0.9940  2.1591
33040SOL    HW2 3577   1.196   0.613   3.197 -0.7964 -0.3202  0.1269
33041SOL     OW 3578   2.472   5.132   4.870  0.1030  0.3220 -0.4432
33041SOL    HW1 3579   2.465   5.143   4.964  1.2698  0.2376 -0.3324
33041SOL    HW2 3580   2.525   5.054   4.858  0.7041  0.8246 -1.1630
33042SOL     OW 3581   6.240   2.906   6.970  0.2047  0.1478  0.1541
33042SOL    HW1 3582   6.206   2.938   6.887  2.0523  0.5449 -0.5095
33042SOL    HW2 3583   6.275   2.819   6.950  1.0352  0.4120  0.3923
33043SOL     OW 3584   3.937   8.170   3.802 -0.4001  0.1444  0.3607
33043SOL    HW1 3585   3.875   8.154   3.873  1.4254 -0.1327  1.9575
33043SOL    HW2 3586   4.022   8.144   3.837  0.4131 -1.5186 -2.4488
33044SOL     OW 3587   9.838   1.832   1.563 -0.5373 -0.2708 -0.1225
33044SOL    HW1 3588   9.791   1.767   1.615 -0.1568  0.2163  0.8662
33044SOL    HW2 3589   9.775   1.861   1.498 -0.6881 -1.6820 -0.6465
33045SOL     OW 3590   9.961   5.476   7.444 -0.6728  0.1664  0.1979
33045SOL    HW1 3591   9.873   5.512   7.431  0.0491  1.5717 -1.1403
33045SOL    HW2 3592  10.006   5.543   7.495 -0.3138 -0.4808  0.7404
33046SOL     OW 3593   5.573   8.156   1.581  0.1783  0.1814  0.5125
33046SOL    HW1 3594   5.528   8.183   1.501  0.8323  3.5019  1.1553
33046SOL    HW2 3595   5.504   8.117   1.635 -1.5099  2.8765  0.4574
33047SOL     OW 3596   2.411   9.626   7.162 -0.0981  0.1040 -0.4503
33047SOL    HW1 3597   2.357   9.647   7.237 -1.2098  1.2980 -1.5326
33047SOL    HW2 3598   2.374   9.678   7.090  1.3722 -0.4252 -1.6515
33048SOL     OW 3599  10.957   0.764   2.422 -0.1769 -0.2415  0.0334
33048SOL    HW1 3600  11.038   0.714   2.433  0.5090  0.8855  0.3283
33048SOL    HW2 3601  10.978   0.850   2.458 -1.3702  0.2048 -0.3136
33049SOL     OW 3602   4.238   1.172   0.121  0.2934 -0.4959  0.0952
33049SOL    HW1 3603   4.283   1.184   0.038  1.6833 -1.1038  0.7201
33049SOL    HW2 3604   4.308   1.160   0.185 -0.7385 -0.2112  1.3363
33050SOL     OW 3605   0.280   2.752   4.656  0.1335  0.6790  0.3021
33050SOL    HW1 3606   0.271   2.847   4.644 -1.2314  0.8841  2.4303
33050SOL    HW2 3607   0.267   2.739   4.750  1.7668 -1.4931  0.3057
33051SOL     OW 3608   4.421  10.114   3.301 -0.2223  0.1652  0.4696
33051SOL    HW1 3609   4.393  10.169   3.374 -0.6165  3.2845 -1.8150
33051SOL    HW2 3610   4.342  10.103   3.248  0.8663  1.6733 -1.6013
33052SOL     OW 3611   3.533   9.566   0.438 -0.2074  0.0380  0.0806
33052SOL    HW1 3612   3.441   9.543   0.426 -0.2831  0.6032 -0.4978
33052SOL    HW2 3613   3.562   9.594   0.351 -0.1170  1.9976  0.6790
33053SOL     OW 3614  10.167   9.452   7.504  0.3302  0.4549  0.2655
33053SOL    HW1 3615  10.100   9.404   7.551 -0.8120  0.3454 -1.3894
33053SOL    HW2 3616  10.155   9.427   7.412  1.3016  2.0083 -0.3284
33054SOL     OW 3617   4.290   2.562   2.960  0.2494 -0.9122  0.2271
33054SOL    HW1 3618   4.234   2.624   3.007  0.6229 -0.9087  0.6741
33054SOL    HW2 3619   4.351   2.530   3.026  1.9720  0.4625 -0.5875
33055SOL     OW 3620   4.932   8.726   3.098 -0.5401 -0.0234  0.1314
33055SOL    HW1 3621   4.987   8.791   3.141  2.8439 -1.7977 -1.1087
33055SOL    HW2 3622   4.979   8.703   3.018 -3.8575 -0.7627 -1.8027
33056SOL     OW 3623   6.406   1.408   3.875  0.5019  0.2398 -0.6806
33056SOL    HW1 3624   6.403   1.338   3.941 -0.8016  1.0303  0.1327
33056SOL    HW2 3625   6.499   1.415   3.853  0.5422 -2.9349 -2.1356
33057SOL     OW 3626   9.816   7.512   2.646  0.7485  0.2261  0.7233
33057SOL    HW1 3627   9.861   7.438   2.604 -1.0598 -0.4818 -0.0912
33057SOL    HW2 3628   9.869   7.588   2.623  2.3181 -0.7118  1.0574
33058SOL     OW 3629   4.532   4.873   0.311  0.0537 -0.0512  0.3551
33058SOL    HW1 3630   4.438   4.852   0.309 -0.1050  0.3473 -3.2800
33058SOL    HW2 3631   4.575   4.789   0.294  0.1651  0.2014 -0.6722
33059SOL     OW 3632   8.391   4.228   7.486  0.7697  0.0293  0.0651
33059SOL    HW1 3633   8.379   4.314   7.525  1.9432 -0.0899  0.7431
33059SOL    HW2 3634   8.421   4.246   7.396 -1.7455  0.3020 -0.8057
33060SOL     OW 3635   7.651   4.315   5.908 -0.0047  0.1104  0.1661
33060SOL    HW1 3636   7.743   4.334   5.887  0.1421  0.0062  0.6893
33060SOL    HW2 3637   7.656   4.251   5.979 -0.4916 -0.7132 -0.5266
33061SOL     OW 3638   1.886   3.694   3.890 -0.1733  0.1172 -0.3546
33061SOL    HW1 3639   1.826   3.620   3.881  1.1788 -0.9803 -0.7448
33061SOL    HW2 3640   1.874   3.745   3.810 -0.6312 -0.0456 -0.3934
33062SOL     OW 3641   9.469   9.770   1.356  0.8041 -0.1703 -0.6213
33062SOL    HW1 3642   9.516   9.687   1.361 -0.5660 -0.9262  0.1958
33062SOL    HW2 3643   9.529   9.834   1.393  1.9317 -0.7628 -1.3769
33063SOL     OW 3644   1.505   5.949   2.287  0.3019  0.2657 -0.3338
33063SOL    HW1 3645   1.586   5.974   2.242  0.5963  1.5207  0.8353
33063SOL    HW2 3646   1.437   5.998   2.241  0.5110  0.9947  0.1191
33064SOL     OW 3647   5.298   7.202   0.161 -0.0530  0.4218  0.3307
33064SOL    HW1 3648   5.370   7.264   0.169 -0.4047  0.9667 -0.5446
33064SOL    HW2 3649   5.340   7.119   0.138  0.4257  0.2911  1.5986
33065SOL     OW 3650   1.031   3.636   2.567  0.5730  0.5621  0.2238
33065SOL    HW1 3651   1.081   3.679   2.497 -0.3329  1.3652  0.0576
33065SOL    HW2 3652   0.940   3.648   2.542  0.2504  0.4382  1.3082
33066SOL     OW 3653   6.966   4.353   3.196 -0.1185  0.0750 -0.5315
33066SOL    HW1 3654   7.019   4.275   3.181 -0.6992  0.1035 -3.2581
33066SOL    HW2 3655   7.025   4.414   3.240  1.7813 -0.3809 -2.2818
33067SOL     OW 3656   0.917   4.603   5.489 -0.2890  0.2096  0.0389
33067SOL    HW1 3657   0.964   4.524   5.513  0.0032  0.6712  1.0240
33067SOL    HW2 3658   0.867   4.627   5.567 -0.8532  0.6662 -0.4402
33068SOL     OW 3659   6.924   1.386   2.582  0.3623 -0.3636 -0.7538
33068SOL    HW1 3660   6.853   1.355   2.639  0.4196  0.0540 -0.4502
33068SOL    HW2 3661   6.993   1.322   2.593  1.1417  0.7104  1.1839
33069SOL     OW 3662   5.791   6.614  10.596 -0.6597  0.6630 -0.7733
33069SOL    HW1 3663   5.770   6.566  10.516 -0.5497  0.4885 -0.6977
33069SOL    HW2 3664   5.857   6.560  10.640  0.3482  1.4539 -1.2702
33070SOL     OW 3665  10.521  10.100   4.776  0.2463 -0.3033  1.1074
33070SOL    HW1 3666  10.500  10.146   4.695  0.7433  0.4255  1.3799
33070SOL    HW2 3667  10.488  10.011   4.762 -0.9778  0.2001  0.6786
33071SOL     OW 3668   1.871   8.986   6.428 -0.0899 -0.4324 -0.8549
33071SOL    HW1 3669   1.825   8.927   6.488 -1.9259 -2.1110 -3.7025
33071SOL    HW2 3670   1.828   9.071   6.440  0.3361 -0.4214  0.8958
33072SOL     OW 3671   9.342   2.992   7.469  0.2906 -0.6750  0.0589
33072SOL    HW1 3672   9.320   2.977   7.377  0.5373 -1.1490  0.0717
33072SOL    HW2 3673   9.350   3.087   7.477  1.3350 -0.6869 -0.6742
33073SOL     OW 3674   5.582   3.823   3.888 -0.4407  0.3420  0.0492
33073SOL    HW1 3675   5.565   3.897   3.829 -1.4418  0.0374 -0.0572
33073SOL    HW2 3676   5.508   3.823   3.949 -0.3231 -0.4296  0.2019
33074SOL     OW 3677   5.261   5.216   6.251  0.7705 -0.0046  0.7041
33074SOL    HW1 3678   5.297   5.301   6.277 -0.6925  0.5982  0.8646
33074SOL    HW2 3679   5.166   5.229   6.253  0.5227 -0.8115 -2.0026
33075SOL     OW 3680   1.531   3.124   1.118 -0.0263  0.6746  0.7673
33075SOL    HW1 3681   1.535   3.028   1.113  1.7710  0.7854 -1.9319
33075SOL    HW2 3682   1.456   3.142   1.175 -0.0277 -2.3200  1.8704
33076SOL     OW 3683   7.309   7.655   2.900  0.3773 -0.2176  0.4815
33076SOL    HW1 3684   7.286   7.747   2.914  0.5058  0.2546 -1.9022
33076SOL    HW2 3685   7.227   7.607   2.915  0.0790  0.3984  0.8492
33077SOL     OW 3686   8.177   2.758  10.776 -0.0422 -0.2543  0.6424
33077SOL    HW1 3687   8.153   2.850  10.776 -1.9783 -0.7108  0.9755
33077SOL    HW2 3688   8.108   2.715  10.829  0.4828 -1.9490  0.0223
33078SOL     OW 3689   9.147   8.235   6.627  0.1837 -0.6509 -0.5192
33078SOL    HW1 3690   9.069   8.211   6.677 -0.1801  1.0240 -0.2443
33078SOL    HW2 3691   9.217   8.239   6.692  0.6815 -2.7169 -0.8485
33079SOL     OW 3692   5.166  10.431   4.548 -0.4232  0.2261  0.2558
33079SOL    HW1 3693   5.183  10.488   4.473  0.6234  0.1907  0.4499
33079SOL    HW2 3694   5.145  10.491   4.620  0.8137  0.4158  0.4973
33080SOL     OW 3695   0.965   2.601   1.164 -0.6163  0.3657 -0.1113
33080SOL    HW1 3696   0.946   2.667   1.098  0.2661  2.1478  1.3438
33080SOL    HW2 3697   0.899   2.614   1.232  0.8434  1.2585  1.2008
33081SOL     OW 3698   9.862  10.943   2.846 -0.4502  0.1743  0.9960
33081SOL    HW1 3699   9.820  10.860   2.825 -0.4182  0.1799  0.9090
33081SOL    HW2 3700   9.919  10.923   2.921 -1.0225  0.2917  1.4650
33082SOL     OW 3701   2.978   7.553  10.948 -0.4837  0.3235  0.5711
33082SOL    HW1 3702   2.934   7.479  10.987  0.0450 -0.0347  0.4975
33082SOL    HW2 3703   2.932   7.568  10.865  0.5460 -1.1011 -0.3136
33083SOL     OW 3704   0.872   8.232   8.014  0.4148 -0.8406  0.7038
33083SOL    HW1 3705   0.904   8.273   7.934 -0.2266  0.2938  1.0018
33083SOL    HW2 3706   0.776   8.236   8.006  0.3375 -1.8364  0.9776
33084SOL     OW 3707   8.308   5.138   5.965  0.1412  0.0525 -0.1370
33084SOL    HW1 3708   8.390   5.153   5.918 -0.1416  0.5557 -0.4773
33084SOL    HW2 3709   8.271   5.060   5.924 -1.2063  1.7302 -2.3454
33085SOL     OW 3710   8.177   1.757   1.701  0.0049  0.4045  0.2463
33085SOL    HW1 3711   8.094   1.712   1.716  1.6277 -2.4777  1.4369
33085SOL    HW2 3712   8.196   1.741   1.608  0.6114 -1.6085  0.6788
33086SOL     OW 3713   7.587   1.219   3.629  0.4799 -0.1695 -0.0271
33086SOL    HW1 3714   7.651   1.190   3.694 -1.2329 -0.2200  1.7065
33086SOL    HW2 3715   7.524   1.148   3.624 -0.3980  0.6121 -0.3773
33087SOL     OW 3716   8.191   8.294   1.930  0.2463 -0.2077 -0.2121
33087SOL    HW1 3717   8.208   8.300   2.024 -2.8729  0.8682  0.4143
33087SOL    HW2 3718   8.274   8.267   1.892  1.7420 -0.2373  2.7909
33088SOL     OW 3719   6.717  10.858   0.459 -0.0247 -0.7657 -0.1806
33088SOL    HW1 3720   6.681  10.796   0.396 -0.3780 -1.0648  0.3136
33088SOL    HW2 3721   6.812  10.856   0.442 -0.1255 -0.7301 -0.7943
33089SOL     OW 3722   2.418   8.582   9.339 -0.1819 -0.2788 -0.5508
33089SOL    HW1 3723   2.329   8.590   9.305  0.3248  0.1345 -1.8305
33089SOL    HW2 3724   2.456   8.670   9.327  0.0328 -0.1198  1.0840
33090SOL     OW 3725   5.344   1.031   2.420 -0.1113  0.5099  0.0340
33090SOL    HW1 3726   5.317   1.123   2.411  0.4542  0.7352  0.5590
33090SOL    HW2 3727   5.280   0.982   2.368 -1.6862  1.0019  1.4379
33091SOL     OW 3728   2.490   2.409   4.231  0.6743  0.6755 -0.5003
33091SOL    HW1 3729   2.541   2.470   4.283  0.4810  1.6275 -1.3877
33091SOL    HW2 3730   2.419   2.462   4.194  0.7645  0.0290 -1.6611
33092SOL     OW 3731   9.727   8.846   2.613  0.3437  0.5319 -0.2315
33092SOL    HW1 3732   9.650   8.865   2.667  0.6396 -1.3578  0.9400
33092SOL    HW2 3733   9.692   8.802   2.536  0.2049  0.0306  0.1133
33093SOL     OW 3734   6.288   0.473   6.881  0.1322  0.5440 -0.3068
33093SOL    HW1 3735   6.291   0.566   6.904 -1.3232  0.2453  1.2741
33093SOL    HW2 3736   6.370   0.437   6.915 -0.4476  0.7870  1.4256
33094SOL     OW 3737  10.366   2.259   4.129 -0.3534 -0.8373  0.1190
33094SOL    HW1 3738  10.442   2.308   4.161  0.2159 -0.8726 -1.1280
33094SOL    HW2 3739  10.338   2.206   4.204  0.8724 -0.8486  0.5891
33095SOL     OW 3740   8.455  10.933   1.145 -0.2518 -0.3496 -0.0275
33095SOL    HW1 3741   8.496  11.009   1.186 -1.1852 -0.3809  1.0153
33095SOL    HW2 3742   8.517  10.861   1.161  1.1244  0.3395 -1.9021
33096SOL     OW 3743   6.811  10.683   5.390  0.3819  0.3579  0.4825
33096SOL    HW1 3744   6.904  10.689   5.411  0.5172 -1.2689  0.4284
33096SOL    HW2 3745   6.802  10.603   5.339 -1.2594 -0.2497  1.6337
33097SOL     OW 3746   9.044   9.905   7.043 -0.1445  0.2341  0.0965
33097SOL    HW1 3747   9.123   9.880   7.092 -0.1816 -1.0418 -0.4391
33097SOL    HW2 3748   9.000   9.822   7.026 -0.3842  0.6871 -1.6639
33098SOL     OW 3749   8.058   3.970   6.450 -0.5264 -0.0154 -0.3045
33098SOL    HW1 3750   8.084   3.928   6.532 -0.1336  0.8231  0.0049
33098SOL    HW2 3751   8.139   3.974   6.399 -0.1824  1.8177  0.3157
33099SOL     OW 3752  10.537   5.717   7.450 -0.1591 -0.0430 -0.2551
33099SOL    HW1 3753  10.595   5.687   7.380 -0.6224 -0.1683 -0.5979
33099SOL    HW2 3754  10.585   5.786   7.495  0.0518  0.2015 -0.8524
33100SOL     OW 3755   0.381   4.090   4.542 -0.4080 -0.6480 -0.3094
33100SOL    HW1 3756   0.470   4.059   4.561 -0.6902 -1.0062  0.5225
33100SOL    HW2 3757   0.332   4.010   4.522 -0.6571 -0.5095 -0.2559
33101SOL     OW 3758   1.098   3.598   9.385  0.0789 -0.2312  0.2213
33101SOL    HW1 3759   1.124   3.656   9.456 -1.8044 -0.0128  0.7957
33101SOL    HW2 3760   1.080   3.657   9.311 -0.9969 -0.1483  0.5400
33102SOL     OW 3761   1.968   5.297  10.663 -0.2283 -0.2778 -0.1424
33102SOL    HW1 3762   2.019   5.256  10.732  1.6525  1.4482 -0.4113
33102SOL    HW2 3763   1.921   5.225  10.621  0.5118 -1.6694  1.3568
33103SOL     OW 3764   2.351   2.837   4.684 -0.2851 -0.2078  0.3924
33103SOL    HW1 3765   2.336   2.898   4.756  1.9953  1.6657 -0.5756
33103SOL    HW2 3766   2.291   2.865   4.615 -1.9777 -1.5775  1.2107
33104SOL     OW 3767   6.825   3.683  10.861 -0.1334 -0.2857 -0.1401
33104SOL    HW1 3768   6.819   3.777  10.847 -1.2929 -0.0707  1.4999
33104SOL    HW2 3769   6.859   3.648  10.779  1.9360  1.7087 -0.2246
33105SOL     OW 3770   0.376  10.659  10.101  0.4161 -0.3278  0.5178
33105SOL    HW1 3771   0.311  10.674  10.169 -0.4743  2.7691 -0.8665
33105SOL    HW2 3772   0.326  10.647  10.021  1.4837  1.1387 -0.4150
33106SOL     OW 3773   2.630   7.483   9.316  0.3915 -0.0474  0.1651
33106SOL    HW1 3774   2.659   7.574   9.305  0.1480 -0.1795 -2.1891
33106SOL    HW2 3775   2.676   7.435   9.247 -0.7568 -1.3859  0.2861
33107SOL     OW 3776   5.199   4.812   7.682  0.2814 -0.0728  0.1686
33107SOL    HW1 3777   5.207   4.876   7.752 -1.9564  0.8654 -0.3495
33107SOL    HW2 3778   5.156   4.736   7.724 -1.0757  0.4960 -0.1283
33108SOL     OW 3779   2.206   4.231   4.253  0.4706 -0.1980  0.0898
33108SOL    HW1 3780   2.127   4.249   4.202 -0.6383  0.6400  1.9967
33108SOL    HW2 3781   2.246   4.317   4.266 -0.1783 -0.1521  1.9970
33109SOL     OW 3782  10.768   1.551   3.565 -0.3570  0.0137  0.6266
33109SOL    HW1 3783  10.767   1.496   3.487  0.2149 -1.0370  1.3432
33109SOL    HW2 3784  10.858   1.546   3.597 -0.5161  0.6620  1.2001
33110SOL     OW 3785   6.176  10.898   7.185  0.3131  0.5522  0.0080
33110SOL    HW1 3786   6.269  10.918   7.172  1.5340 -1.9761  3.3262
33110SOL    HW2 3787   6.152  10.947   7.263 -1.0848  0.8131 -0.5529
33111SOL     OW 3788   2.000  10.783   7.803 -0.2592 -0.3432  0.1436
33111SOL    HW1 3789   1.953  10.783   7.719  1.1808  1.9793 -0.7506
33111SOL    HW2 3790   2.068  10.717   7.792  0.1890  0.2422 -0.7197
33112SOL     OW 3791  10.121   6.055   4.360  0.1666  0.1691 -0.4119
33112SOL    HW1 3792  10.092   6.142   4.390 -0.9697 -1.4615  4.1440
33112SOL    HW2 3793  10.211   6.048   4.390  0.0379 -0.3989 -0.1286
33113SOL     OW 3794   4.783   9.002   8.582  0.1030  0.0095 -0.4638
33113SOL    HW1 3795   4.715   9.039   8.526  1.5196  1.2903 -1.4207
33113SOL    HW2 3796   4.788   8.910   8.557 -1.1010 -0.0573 -0.5232
33114SOL     OW 3797   4.467   8.447   1.359 -0.1088  0.0606 -0.0325
33114SOL    HW1 3798   4.380   8.415   1.385  0.1007 -0.1410  0.4330
33114SOL    HW2 3799   4.507   8.476   1.440  0.8948 -1.3775  0.0330
33115SOL     OW 3800   2.913   4.379   5.871 -0.7664  0.3461 -0.1164
33115SOL    HW1 3801   2.940   4.347   5.785 -1.5039 -0.6956  0.0173
33115SOL    HW2 3802   2.983   4.352   5.930 -1.6070 -1.5741  0.0816
33116SOL     OW 3803   5.952   1.537   7.607  0.1416  0.3385 -0.6071
33116SOL    HW1 3804   5.919   1.606   7.665  0.3110  0.2733 -0.4315
33116SOL    HW2 3805   5.920   1.456   7.647  0.2950  0.2909 -0.5833
33117SOL     OW 3806   9.866  10.614   2.484 -0.0856  0.3484  0.2177
33117SOL    HW1 3807   9.829  10.695   2.448 -0.4235  0.2712  0.3803
33117SOL    HW2 3808   9.926  10.583   2.417  0.3123  0.9167  0.3015
33118SOL     OW 3809   0.909   2.205   7.265  0.4611  0.3141 -0.3546
33118SOL    HW1 3810   0.989   2.246   7.296 -0.8773  1.3996  1.9392
33118SOL    HW2 3811   0.912   2.215   7.170  1.8579  2.5981 -0.1353
33119SOL     OW 3812   5.948  10.502   8.841  0.4753  0.0872  0.2288
33119SOL    HW1 3813   5.864  10.528   8.802 -0.0859 -1.2457  0.4660
33119SOL    HW2 3814   5.928  10.419   8.884  1.6431  0.3677  1.3432
33120SOL     OW 3815   1.266   8.887   6.848  0.0121 -0.6477 -0.4406
33120SOL    HW1 3816   1.225   8.968   6.877 -1.1974  0.1093 -3.8089
33120SOL    HW2 3817   1.193   8.826   6.837 -0.2570  0.1279 -4.6678
33121SOL     OW 3818   0.016   0.851   6.811  0.5615  0.3557  0.8174
33121SOL    HW1 3819   0.034   0.760   6.833  2.0441  0.3175 -0.4070
33121SOL    HW2 3820   0.045   0.900   6.889  0.9906 -0.1347  0.9713
33122SOL     OW 3821   9.711   3.623   0.021 -0.0293 -0.4219  0.2993
33122SOL    HW1 3822   9.803   3.613  -0.002  0.0988  0.3805  0.4270
33122SOL    HW2 3823   9.692   3.716   0.006 -0.9412 -0.6709 -0.1726
33123SOL     OW 3824   9.021  10.014   4.838  0.2899 -0.3213 -0.2492
33123SOL    HW1 3825   9.099  10.010   4.783 -1.5828  2.0995 -3.4658
33123SOL    HW2 3826   9.030  10.096   4.886  0.2646 -0.6638  0.3493
33124SOL     OW 3827   9.951   8.020   9.150 -0.5979  0.1392 -0.3852
33124SOL    HW1 3828  10.000   7.951   9.195 -1.3256  0.7034  1.3716
33124SOL    HW2 3829   9.988   8.022   9.062  0.9717 -0.9674  0.1947
33125SOL     OW 3830   2.995   7.734   1.427 -0.0185 -0.5807  0.3438
33125SOL    HW1 3831   3.000   7.751   1.521 -1.2861  1.5774  0.0761
33125SOL    HW2 3832   3.082   7.757   1.394 -0.1914  0.6641  0.7170
33126SOL     OW 3833   8.866   8.247   1.979 -0.1885  0.3181  0.0787
33126SOL    HW1 3834   8.891   8.290   2.060  0.3248  2.0039 -0.9101
33126SOL    HW2 3835   8.925   8.284   1.913  0.3453 -1.9855 -0.8694
33127SOL     OW 3836   4.123   4.155   6.970  0.2086  0.2092  0.1047
33127SOL    HW1 3837   4.121   4.081   6.909  1.3135  0.2109  0.0457
33127SOL    HW2 3838   4.207   4.197   6.954 -0.1892  1.1873  0.4975
33128SOL     OW 3839   8.842   8.831   1.024  0.1579 -0.2437  0.3403
33128SOL    HW1 3840   8.813   8.869   1.107 -1.1450  0.0108 -0.2114
33128SOL    HW2 3841   8.908   8.766   1.049  0.1758  0.2085  1.5221
33129SOL     OW 3842   3.547   7.695   9.832 -0.1422 -0.9578 -0.5989
33129SOL    HW1 3843   3.459   7.716   9.863 -0.5929 -0.4158 -2.1414
33129SOL    HW2 3844   3.593   7.779   9.835  0.3211 -1.2242  0.1234
33130SOL     OW 3845   9.894  10.371   8.008  0.0618  0.5242  0.1847
33130SOL    HW1 3846   9.839  10.359   7.931 -1.4267  0.3592  1.2462
33130SOL    HW2 3847   9.950  10.293   8.009 -0.9655 -0.2314  0.1242
33131SOL     OW 3848   6.730  10.172   1.877 -0.5235  0.3705 -0.4938
33131SOL    HW1 3849   6.745  10.243   1.815  1.3589 -0.9330 -1.6342
33131SOL    HW2 3850   6.813  10.163   1.924 -0.7207 -1.0346 -0.3678
33132SOL     OW 3851   8.419   9.430  10.138 -0.0574  0.2236 -0.7021
33132SOL    HW1 3852   8.502   9.387  10.116 -0.1161 -0.7442  0.7859
33132SOL    HW2 3853   8.352   9.367  10.113 -0.5229  1.6632 -3.4517
33133SOL     OW 3854  10.887   8.824   5.522 -1.1038  0.1907  0.1472
33133SOL    HW1 3855  10.840   8.833   5.605 -1.1971 -0.6932  0.1941
33133SOL    HW2 3856  10.851   8.745   5.482  1.5729 -1.6051  1.0217
33134SOL     OW 3857   6.502   5.513   2.913 -0.4080  0.1778 -0.2059
33134SOL    HW1 3858   6.562   5.583   2.887  0.4504 -0.7381 -0.7965
33134SOL    HW2 3859   6.450   5.551   2.983  1.0507  0.9409  0.5250
33135SOL     OW 3860   1.429   9.829   8.538 -0.0268  0.3416 -0.1771
33135SOL    HW1 3861   1.522   9.850   8.524  0.1496  0.2783  0.8731
33135SOL    HW2 3862   1.398   9.897   8.597 -0.5229  0.0546 -0.1068
33136SOL     OW 3863   9.439   4.600   1.062 -0.6361 -0.6741  0.9537
33136SOL    HW1 3864   9.447   4.682   1.111 -0.9974 -0.5022  0.7294
33136SOL    HW2 3865   9.437   4.628   0.970  1.1432 -1.0608  0.7688
33137SOL     OW 3866   0.582   2.357   3.111 -0.1339 -0.1239 -0.0045
33137SOL    HW1 3867   0.575   2.272   3.067 -1.3664 -0.7779  1.4082
33137SOL    HW2 3868   0.521   2.413   3.064  0.3726 -0.1107 -0.6714
33138SOL     OW 3869   3.599   8.655   5.307  0.0415  0.2092  0.8475
33138SOL    HW1 3870   3.572   8.621   5.392 -1.0016 -0.9728  0.0886
33138SOL    HW2 3871   3.518   8.689   5.268  0.4310  0.3978  0.1912
33139SOL     OW 3872   8.617   2.439   4.979  0.1211  0.7313  0.8135
33139SOL    HW1 3873   8.709   2.418   4.994  0.4274  0.5257 -1.0475
33139SOL    HW2 3874   8.568   2.382   5.038  1.1265 -1.2128 -0.1584
33140SOL     OW 3875   7.435   8.237   6.925 -0.1923 -0.1621  0.4007
33140SOL    HW1 3876   7.470   8.160   6.880  1.2796  2.0179 -2.4280
33140SOL    HW2 3877   7.510   8.274   6.970 -0.3009  1.0089 -0.3623
33141SOL     OW 3878   0.157   9.783   8.544  0.0099  0.4115  0.1240
33141SOL    HW1 3879   0.231   9.766   8.602  0.2257  0.9371  0.0031
33141SOL    HW2 3880   0.103   9.846   8.591 -0.3103  0.1144  0.1629
33142SOL     OW 3881   0.894   7.078   4.246 -0.3469  0.1374  0.7343
33142SOL    HW1 3882   0.929   7.106   4.330 -0.5757 -0.8138  1.1565
33142SOL    HW2 3883   0.971   7.046   4.198 -0.1495  1.0836  0.4076
33143SOL     OW 3884   2.444   4.883   1.608 -0.0287  0.0858  0.1722
33143SOL    HW1 3885   2.409   4.926   1.686  0.6835  1.1705 -0.0751
33143SOL    HW2 3886   2.476   4.955   1.554 -1.3734 -0.5501 -1.5783
33144SOL     OW 3887   6.857   7.280   4.417  0.1029 -0.4923 -0.0342
33144SOL    HW1 3888   6.775   7.328   4.429  0.4819  0.2174 -0.2218
33144SOL    HW2 3889   6.885   7.257   4.505 -0.4229 -0.9685  0.0173
33145SOL     OW 3890   8.002   7.726   4.374 -0.1512 -0.1961  0.0283
33145SOL    HW1 3891   8.048   7.754   4.294 -1.0722 -0.2519 -0.5330
33145SOL    HW2 3892   8.033   7.787   4.441  0.7858 -0.2689 -0.3173
33146SOL     OW 3893   8.993   8.313   2.229 -0.2254  0.2555 -0.0385
33146SOL    HW1 3894   9.055   8.364   2.282  0.0979  0.9482 -1.0560
33146SOL    HW2 3895   9.028   8.224   2.230 -0.9959 -0.0965  2.0773
33147SOL     OW 3896   5.382  10.119   1.326 -0.4233  0.4015  0.7945
33147SOL    HW1 3897   5.458  10.129   1.384  2.5593 -3.7689 -1.8507
33147SOL    HW2 3898   5.397  10.182   1.256  0.4176 -0.1318  0.4869
33148SOL     OW 3899   4.418   5.320   5.034 -0.4187  0.0365 -0.1443
33148SOL    HW1 3900   4.371   5.277   5.106 -0.3306  1.5052  0.8110
33148SOL    HW2 3901   4.385   5.275   4.955 -1.8027 -0.4434  0.6637
33149SOL     OW 3902   6.849   3.967   0.293 -0.8324 -0.0034  0.5914
33149SOL    HW1 3903   6.904   4.027   0.243 -1.3559 -0.7692 -0.9492
33149SOL    HW2 3904   6.811   4.021   0.362  0.6767  0.8556  0.7846
33150SOL     OW 3905   8.195   6.476   2.766  0.0447  0.1217 -0.2337
33150SOL    HW1 3906   8.200   6.438   2.853 -1.8220  1.7714  0.6772
33150SOL    HW2 3907   8.130   6.546   2.774 -0.6978 -0.1017 -3.1206
33151SOL     OW 3908   4.894   9.244   1.096  0.2369  0.1871 -0.5784
33151SOL    HW1 3909   4.828   9.263   1.164  1.7149  2.7450  0.2758
33151SOL    HW2 3910   4.850   9.266   1.014  0.1686  2.7243  0.0404
33152SOL     OW 3911   4.898   6.311   4.414 -0.0250 -0.2777 -0.4049
33152SOL    HW1 3912   4.953   6.321   4.491 -1.0013 -0.3400  0.3106
33152SOL    HW2 3913   4.812   6.288   4.448 -1.8695  4.4538 -1.1132
33153SOL     OW 3914   1.479   1.646   9.684  0.1346 -0.2539 -0.2799
33153SOL    HW1 3915   1.413   1.712   9.704 -0.0111 -0.2990 -0.6062
33153SOL    HW2 3916   1.561   1.694   9.680  0.0592 -0.1279 -0.3051
33154SOL     OW 3917   3.777   4.293   5.100  0.2200  0.0993 -0.4334
33154SOL    HW1 3918   3.871   4.276   5.104  0.0761 -0.5067  1.9066
33154SOL    HW2 3919   3.744   4.232   5.033  1.1172 -1.9389  0.8826
33155SOL     OW 3920   2.803   7.102   3.430 -0.1211  0.3544  0.2012
33155SOL    HW1 3921   2.894   7.119   3.452  0.0856  1.3392 -1.2187
33155SOL    HW2 3922   2.805   7.078   3.337 -1.1371 -1.4171  0.5836
33156SOL     OW 3923  10.519   5.431   9.474 -0.3667 -0.2633  0.2485
33156SOL    HW1 3924  10.490   5.340   9.466 -0.5218 -0.1344 -0.7114
33156SOL    HW2 3925  10.444   5.483   9.445  0.0837  0.1368 -0.2180
33157SOL     OW 3926   8.089   0.269   1.856  0.1918 -0.1874  0.0748
33157SOL    HW1 3927   8.182   0.276   1.878  0.3646  0.9817 -0.9399
33157SOL    HW2 3928   8.046   0.331   1.915  0.3861  1.1940 -1.1669
33158SOL     OW 3929   2.417   5.543   7.489  0.0721  0.2649  0.0177
33158SOL    HW1 3930   2.322   5.552   7.480 -0.4004 -2.8202  0.6773
33158SOL    HW2 3931   2.436   5.577   7.577 -0.2060  1.8024 -0.4814
33159SOL     OW 3932   7.486   8.310   4.482 -0.6729  0.3983 -0.6321
33159SOL    HW1 3933   7.488   8.243   4.414  0.8110  0.8816 -1.1050
33159SOL    HW2 3934   7.420   8.373   4.452 -0.4341  0.3165 -1.3290
33160SOL     OW 3935   6.469  10.829   8.692 -0.1365  0.3768  0.2012
33160SOL    HW1 3936   6.507  10.843   8.779 -0.6783 -3.1203  1.1376
33160SOL    HW2 3937   6.376  10.843   8.704 -0.4185 -1.6048  0.6539
33161SOL     OW 3938   4.161   1.467   1.914  0.1453 -0.1815  0.3005
33161SOL    HW1 3939   4.240   1.489   1.864  0.4446 -0.3840  0.6738
33161SOL    HW2 3940   4.189   1.397   1.973 -0.4153 -0.5259  0.1660
33162SOL     OW 3941   4.574   6.731  11.029 -0.0926 -0.1586  0.1630
33162SOL    HW1 3942   4.643   6.714  11.093  0.8811  0.0378 -0.8204
33162SOL    HW2 3943   4.591   6.670  10.958  0.9600  1.9577 -1.5094
33163SOL     OW 3944   2.631   8.003   0.981 -0.4136 -0.0950  0.0013
33163SOL    HW1 3945   2.606   7.970   0.895 -0.2633 -0.4451  0.0884
33163SOL    HW2 3946   2.562   7.973   1.040 -0.4463  0.0280  0.0266
33164SOL     OW 3947  10.245   8.809   1.632 -0.1230 -0.3313 -0.0687
33164SOL    HW1 3948  10.217   8.817   1.723 -0.5871 -0.9966 -0.1388
33164SOL    HW2 3949  10.289   8.891   1.612  2.0691 -1.0393  1.4579
33165SOL     OW 3950   2.732   7.301   5.965 -0.1474 -0.1762  0.1235
33165SOL    HW1 3951   2.659   7.364   5.963 -1.3604 -1.5627 -0.9587
33165SOL    HW2 3952   2.785   7.324   5.889 -0.6970 -0.5734 -0.3851
33166SOL     OW 3953   0.302   9.738   5.712 -0.3854 -0.5499 -0.2253
33166SOL    HW1 3954   0.277   9.824   5.745 -2.5259 -1.2408  0.1118
33166SOL    HW2 3955   0.228   9.710   5.658  1.4379 -1.0366 -2.6436
33167SOL     OW 3956   1.520   6.643  10.214  0.0114 -0.0793 -0.3730
33167SOL    HW1 3957   1.492   6.733  10.232 -1.3059 -0.5970  0.2741
33167SOL    HW2 3958   1.513   6.598  10.298  0.6409 -0.8094 -0.6969
33168SOL     OW 3959   0.573  10.555   2.129  0.4442 -0.3621 -0.0193
33168SOL    HW1 3960   0.654  10.542   2.178  0.5925  1.2468  0.2030
33168SOL    HW2 3961   0.588  10.633   2.076 -1.4428  0.9451  1.2018
33169SOL     OW 3962   6.364  10.982   9.454  0.0725 -0.3822 -0.0295
33169SOL    HW1 3963   6.322  11.046   9.511 -1.7017 -1.6383  0.1359
33169SOL    HW2 3964   6.356  11.020   9.366 -0.5782 -0.1725  0.1167
33170SOL     OW 3965   3.467   1.223   9.025  0.0260 -0.5740 -0.0641
33170SOL    HW1 3966   3.398   1.181   8.975  1.2425 -1.1522 -1.3387
33170SOL    HW2 3967   3.507   1.152   9.075 -0.3551 -0.2260  0.7462
33171SOL     OW 3968   9.395  10.826   7.453 -0.1750 -0.5022  0.4873
33171SOL    HW1 3969   9.436  10.749   7.491  1.9892  0.1390 -0.3267
33171SOL    HW2 3970   9.467  10.870   7.407 -1.6890  1.1217 -0.4521
33172SOL     OW 3971  11.054   4.197   7.275  0.4199 -0.0177 -0.7694
33172SOL    HW1 3972  11.030   4.289   7.284 -0.4045 -0.4210  2.1896
33172SOL    HW2 3973  11.094   4.191   7.189 -0.3038  2.9178 -1.4142
33173SOL     OW 3974   6.922   7.063   2.962 -0.0932  0.2940 -0.0772
33173SOL    HW1 3975   6.865   7.112   2.904  1.2011  0.8693 -0.9189
33173SOL    HW2 3976   6.927   6.976   2.924 -0.8793  0.0490  0.3530
33174SOL     OW 3977   5.363   5.997   9.827 -0.5634  0.6773 -0.1320
33174SOL    HW1 3978   5.389   5.918   9.781 -1.0863  0.9307 -0.8839
33174SOL    HW2 3979   5.445   6.036   9.857 -0.3800 -1.2385  2.1408
33175SOL     OW 3980  10.436  11.028   8.580  0.9892 -0.2048 -0.1756
33175SOL    HW1 3981  10.465  11.058   8.494  0.9023  1.0713  0.2138
33175SOL    HW2 3982  10.363  11.086   8.602 -0.2220 -1.7244 -0.0384
33176SOL     OW 3983   0.004   6.600   2.198  0.2335 -0.3100 -0.4996
33176SOL    HW1 3984   0.057   6.671   2.163  0.8834  1.4252  3.4976
33176SOL    HW2 3985   0.062   6.554   2.259 -1.8274 -0.4760  1.4726
33177SOL     OW 3986   5.250   6.830   4.681 -0.5666 -0.6565  0.0007
33177SOL    HW1 3987   5.308   6.868   4.747 -0.1314  1.3450 -1.4494
33177SOL    HW2 3988   5.178   6.894   4.673 -2.0312 -2.1855  0.4324
33178SOL     OW 3989   5.789   1.777   2.994  0.1681 -0.3725  0.6297
33178SOL    HW1 3990   5.729   1.722   3.045  1.3400 -2.4336 -0.0761
33178SOL    HW2 3991   5.806   1.726   2.915 -0.7399  2.2532 -1.3899
33179SOL     OW 3992   2.860   0.870   0.446  0.2749 -0.3035 -0.1180
33179SOL    HW1 3993   2.765   0.856   0.446  0.3213 -0.6401 -0.3545
33179SOL    HW2 3994   2.870   0.965   0.440 -0.0514 -0.3044 -0.8906
33180SOL     OW 3995   0.621   2.857   1.661  0.3623 -0.7654 -0.5737
33180SOL    HW1 3996   0.559   2.902   1.604  1.7340 -0.6015 -1.9940
33180SOL    HW2 3997   0.609   2.764   1.641  1.2912 -0.6695 -1.6362
33181SOL     OW 3998   6.726   7.856   5.630 -0.1695 -0.6626 -0.2767
33181SOL    HW1 3999   6.717   7.896   5.716  0.8835  0.6213 -0.7366
33181SOL    HW2 4000   6.701   7.764   5.644 -1.5421 -0.1210  1.0368
33182SOL     OW 4001   8.644  10.919   4.670  0.0711 -0.2262 -0.1506
33182SOL    HW1 4002   8.627  10.877   4.585 -0.7485 -0.5724  0.1767
33182SOL    HW2 4003   8.571  10.892   4.725  0.6323 -0.0623  0.6957
33183SOL     OW 4004   0.292   2.314   7.702  0.7025  0.4425 -0.0240
33183SOL    HW1 4005   0.309   2.232   7.749  0.3010  1.3409  1.7649
33183SOL    HW2 4006   0.275   2.378   7.771 -3.8060  1.0205 -1.3455
33184SOL     OW 4007   4.998  11.021   0.689  0.1209  0.3410  0.0740
33184SOL    HW1 4008   4.931  11.089   0.679  0.6050  0.6284 -1.4578
33184SOL    HW2 4009   4.962  10.961   0.754 -1.0882  1.1251  0.1529
33185SOL     OW 4010   4.858   7.484   3.407  0.2386  0.5412  0.4510
33185SOL    HW1 4011   4.851   7.427   3.330 -0.9798  0.1131  0.8492
33185SOL    HW2 4012   4.850   7.572   3.372 -1.6218  0.3154  0.1593
33186SOL     OW 4013   9.833  11.058   0.931  0.1969  0.4057  0.8453
33186SOL    HW1 4014   9.868  10.970   0.945 -0.1144  0.5089  2.3491
33186SOL    HW2 4015   9.897  11.117   0.972  0.4493  0.9090 -0.2265
33187SOL     OW 4016   7.929   1.135   0.728  0.3326  0.4554  0.4025
33187SOL    HW1 4017   7.870   1.198   0.770  1.4486  0.6955  1.6537
33187SOL    HW2 4018   7.961   1.182   0.650 -2.4851 -0.3417 -1.4032
33188SOL     OW 4019   1.192   8.623   5.133  0.8866  0.9679  0.0564
33188SOL    HW1 4020   1.126   8.692   5.121 -0.6359 -0.4674 -0.1372
33188SOL    HW2 4021   1.207   8.621   5.227 -0.5844  0.2599  0.3144
33189SOL     OW 4022   6.237   1.448   2.963 -0.3398  0.0640  0.2186
33189SOL    HW1 4023   6.230   1.360   2.925  0.0815 -0.1045  0.5261
33189SOL    HW2 4024   6.186   1.443   3.044 -0.0398  0.0038  0.4055
33190SOL     OW 4025  10.105   0.008   5.045 -0.5733  0.3728  0.4485
33190SOL    HW1 4026  10.168   0.007   4.973 -0.5683  1.3702  0.4285
33190SOL    HW2 4027  10.129   0.085   5.097 -1.8959  0.8905  0.3252
33191SOL     OW 4028   4.344   6.345   7.800  0.1015 -0.1561 -0.2389
33191SOL    HW1 4029   4.259   6.319   7.765  0.3048 -0.5690 -0.4278
33191SOL    HW2 4030   4.408   6.307   7.740  0.4246  0.1175 -0.0766
33192SOL     OW 4031   2.054   3.056   5.199 -0.0716 -0.1143 -0.3364
33192SOL    HW1 4032   2.141   3.093   5.183 -0.6636  1.8987  0.7290
33192SOL    HW2 4033   2.013   3.051   5.112  0.7164 -0.0853 -0.7158
33193SOL     OW 4034   3.153   1.075   3.726 -0.2682 -0.4253  0.2253
33193SOL    HW1 4035   3.081   1.042   3.779 -1.5657 -0.3939 -1.4117
33193SOL    HW2 4036   3.149   1.170   3.736  0.7464 -0.4879  1.5564
33194SOL     OW 4037  10.275  10.833   1.856  0.4950 -0.4352 -0.1905
33194SOL    HW1 4038  10.299  10.830   1.949  2.9233 -2.9325 -0.7791
33194SOL    HW2 4039  10.351  10.871   1.813 -0.3909  0.1800 -1.2627
33195SOL     OW 4040   3.042   7.712   1.688  0.1989  0.0366 -0.1838
33195SOL    HW1 4041   2.983   7.752   1.753 -0.2582 -0.1597 -0.4682
33195SOL    HW2 4042   3.039   7.619   1.708  2.0281  0.1950  1.1058
33196SOL     OW 4043   7.176  10.756   4.406  0.2508  0.5976 -0.4677
33196SOL    HW1 4044   7.179  10.793   4.494 -0.7339 -0.6962  0.1481
33196SOL    HW2 4045   7.088  10.774   4.375 -1.0865 -2.9508  0.7399
33197SOL     OW 4046  10.755   6.790  11.021  0.0910 -0.0374  0.3595
33197SOL    HW1 4047  10.795   6.706  11.003  0.6720 -1.1586  5.3404
33197SOL    HW2 4048  10.828   6.852  11.025  0.0738  0.0091  0.0083
33198SOL     OW 4049   4.573   5.212   1.282  0.5936 -0.1955 -0.1736
33198SOL    HW1 4050   4.603   5.140   1.337  2.3965  1.0681  0.6303
33198SOL    HW2 4051   4.608   5.192   1.195 -1.4208 -1.7055 -0.6847
33199SOL     OW 4052   1.096   9.737   8.554 -0.1524 -0.2243 -0.3979
33199SOL    HW1 4053   1.082   9.683   8.476  0.8406 -0.3471 -0.5048
33199SOL    HW2 4054   1.186   9.770   8.544 -0.5225  0.9187 -0.0048
33200SOL     OW 4055   6.420  10.328   3.520 -0.6607 -0.2136 -0.0988
33200SOL    HW1 4056   6.392  10.341   3.610  1.0192  0.2636  0.4066
33200SOL    HW2 4057   6.506  10.286   3.528  0.0693  0.9294 -1.4058
33201SOL     OW 4058   8.888   3.077   2.789 -0.4301 -0.2376 -0.1860
33201SOL    HW1 4059   8.863   3.147   2.727 -3.3078  0.2455  1.3458
33201SOL    HW2 4060   8.848   2.998   2.753  0.3784 -0.5630 -0.4025
33202SOL     OW 4061   0.503   7.320   2.984 -0.4766  0.0252 -0.4467
33202SOL    HW1 4062   0.537   7.234   3.009 -2.1848 -0.7734 -0.7189
33202SOL    HW2 4063   0.502   7.370   3.066 -0.9059 -0.7371  0.0262
33203SOL     OW 4064   7.204   8.997   0.628 -0.3055 -0.0512 -0.7236
33203SOL    HW1 4065   7.121   8.955   0.606 -0.8147  0.9841 -0.8451
33203SOL    HW2 4066   7.254   8.997   0.547 -0.2134 -0.5993 -0.6710
33204SOL     OW 4067   7.862   7.196   4.337 -0.0855 -0.1705  0.1183
33204SOL    HW1 4068   7.861   7.128   4.404 -0.3130 -0.0990  0.1886
33204SOL    HW2 4069   7.773   7.232   4.337  0.3776  1.0628  1.0311
33205SOL     OW 4070   3.192   2.800   7.568  0.0802 -0.2890 -0.3078
33205SOL    HW1 4071   3.110   2.831   7.528 -0.4833  0.0149  1.0245
33205SOL    HW2 4072   3.164   2.751   7.645  1.1795  0.5004  0.6226
33206SOL     OW 4073  10.694   1.684   6.953  0.2601 -0.0068 -0.6133
33206SOL    HW1 4074  10.727   1.754   6.897 -1.6219  0.6918 -0.9236
33206SOL    HW2 4075  10.660   1.618   6.892  1.3156 -0.8688 -0.3095
33207SOL     OW 4076   4.790   4.162   9.358 -0.1298  0.2353 -0.5125
33207SOL    HW1 4077   4.798   4.145   9.451  1.0079  0.4818 -0.5469
33207SOL    HW2 4078   4.879   4.150   9.323 -0.5175  0.2220 -1.5481
33208SOL     OW 4079   5.421   1.011   6.310  0.0595 -0.3963 -0.0912
33208SOL    HW1 4080   5.398   0.925   6.276  0.8301 -0.9314  0.6848
33208SOL    HW2 4081   5.515   1.019   6.293  0.2163 -0.1813  0.8369
33209SOL     OW 4082   3.007   2.619   7.081 -0.4068  0.1887 -0.0430
33209SOL    HW1 4083   3.083   2.574   7.044 -1.6834 -1.4916 -0.8047
33209SOL    HW2 4084   3.031   2.711   7.082  1.8925 -0.3491  0.4120
33210SOL     OW 4085   6.317   4.528   7.693  0.3910  0.4105 -0.6583
33210SOL    HW1 4086   6.338   4.605   7.745  1.9314 -0.8608  0.6969
33210SOL    HW2 4087   6.222   4.520   7.700  0.2143  2.0515 -0.6803
33211SOL     OW 4088   1.175   1.684   8.807 -0.1341  0.3085  0.3389
33211SOL    HW1 4089   1.267   1.692   8.831  0.5534 -0.7025 -1.6865
33211SOL    HW2 4090   1.129   1.669   8.890  2.0032 -2.7208  1.1278
33212SOL     OW 4091   7.402   0.224   0.428 -0.3721  0.0048  0.5954
33212SOL    HW1 4092   7.322   0.191   0.472  0.2037 -0.7821  1.0890
33212SOL    HW2 4093   7.451   0.145   0.407 -0.3256  0.4175 -0.9026
33213SOL     OW 4094   5.098   3.291   6.355 -0.9184  0.2524 -0.0066
33213SOL    HW1 4095   5.151   3.370   6.353  1.0925 -1.0098 -2.5687
33213SOL    HW2 4096   5.138   3.238   6.424 -2.0931  1.2687  1.5185
33214SOL     OW 4097   7.696   9.452   6.373 -0.1488  0.1095  1.1909
33214SOL    HW1 4098   7.606   9.473   6.400 -0.0480  2.3973 -0.0546
33214SOL    HW2 4099   7.750   9.478   6.448 -0.3846  0.3977  1.2636
33215SOL     OW 4100   7.242   4.678   5.002 -0.2736  0.0611 -0.1516
33215SOL    HW1 4101   7.337   4.662   5.000 -0.4492 -1.0945  0.0279
33215SOL    HW2 4102   7.228   4.746   4.936  0.8740  1.3965  0.9168
33216SOL     OW 4103   1.088   3.744   8.895  0.3975 -0.5256 -0.2977
33216SOL    HW1 4104   1.063   3.771   8.984 -0.4760  0.4219 -0.8014
33216SOL    HW2 4105   1.176   3.781   8.883  0.4115 -0.4304  0.0737
33217SOL     OW 4106   0.001   0.977   4.321  0.1673  0.3469  0.2277
33217SOL    HW1 4107  -0.030   1.056   4.277 -1.0134  0.7648  1.7084
33217SOL    HW2 4108   0.048   0.928   4.253  1.4154  2.5528 -0.6015
33218SOL     OW 4109   3.234  10.199   5.827  0.3807 -0.5032  0.0620
33218SOL    HW1 4110   3.152  10.200   5.778 -0.1242 -0.6179  0.8744
33218SOL    HW2 4111   3.248  10.289   5.855  0.7725 -0.3998 -0.4531
33219SOL     OW 4112   3.539   0.786   9.918 -0.1486  0.6930  0.4584
33219SOL    HW1 4113   3.532   0.725   9.992  0.7191 -0.5478 -0.4276
33219SOL    HW2 4114   3.610   0.845   9.942  1.1802 -0.6565  0.0251
33220SOL     OW 4115   1.242  10.654   7.765 -0.1990  0.0548 -0.5445
33220SOL    HW1 4116   1.306  10.586   7.742  0.3781  0.6352 -0.7079
33220SOL    HW2 4117   1.292  10.736   7.759 -0.4639  0.3737  1.1658
33221SOL     OW 4118   6.881   9.204   5.099 -0.5334  0.1708 -0.2683
33221SOL    HW1 4119   6.916   9.166   5.180 -1.6395  1.2065  0.7352
33221SOL    HW2 4120   6.951   9.262   5.067 -0.2228  0.0211  0.1307
33222SOL     OW 4121   8.255   5.633   7.544 -0.0314 -0.2662  0.5563
33222SOL    HW1 4122   8.277   5.714   7.499 -1.8605  0.0556  0.1443
33222SOL    HW2 4123   8.222   5.575   7.475  0.2236 -0.9698  1.0059
33223SOL     OW 4124   6.667   0.243  10.794  0.2562 -0.1771  1.0091
33223SOL    HW1 4125   6.575   0.249  10.821 -0.0043  0.2815  0.0824
33223SOL    HW2 4126   6.669   0.171  10.730  0.3010  0.5317  0.1835
33224SOL     OW 4127   5.128   0.458  10.566 -0.0441  0.7339  0.0889
33224SOL    HW1 4128   5.133   0.410  10.484  1.2802  1.5133 -0.3151
33224SOL    HW2 4129   5.047   0.509  10.559 -0.5804 -0.1364 -0.1885
33225SOL     OW 4130   8.503   4.037   7.634 -0.2203  0.7683 -0.3895
33225SOL    HW1 4131   8.471   4.098   7.568 -1.3065  2.7793  1.8288
33225SOL    HW2 4132   8.572   4.084   7.679  2.2634 -1.4972 -1.5511
33226SOL     OW 4133   0.898   4.564   3.614  0.3818  0.1029 -0.0262
33226SOL    HW1 4134   0.975   4.524   3.655 -0.4571 -1.0959  0.4654
33226SOL    HW2 4135   0.930   4.601   3.532  1.8786  1.5096  1.1239
33227SOL     OW 4136   8.374   4.656   5.299 -0.0705 -0.6243  0.5207
33227SOL    HW1 4137   8.318   4.733   5.315 -1.3355 -1.4608  0.2740
33227SOL    HW2 4138   8.425   4.680   5.221 -0.5229 -0.0724  0.3828
33228SOL     OW 4139   1.375   8.465   9.673 -0.1996  0.0253  0.1567
33228SOL    HW1 4140   1.431   8.530   9.715  1.4441 -0.2152 -1.5426
33228SOL    HW2 4141   1.429   8.386   9.667 -1.1416 -0.5969 -0.4609
33229SOL     OW 4142   0.470   8.869   5.018 -0.6408 -0.5521 -0.2977
33229SOL    HW1 4143   0.408   8.858   5.090 -0.9567 -0.7419 -0.5917
33229SOL    HW2 4144   0.473   8.963   5.002  1.0056 -0.2776  1.3113
33230SOL     OW 4145  10.636   2.014  10.304  0.2665 -0.6747  0.2029
33230SOL    HW1 4146  10.630   1.942  10.367  0.8608 -0.9012  0.0076
33230SOL    HW2 4147  10.656   2.091  10.357 -1.9223 -0.3266  0.6038
33231SOL     OW 4148   7.005   4.757   4.599  0.5436 -0.0780 -0.2392
33231SOL    HW1 4149   6.930   4.748   4.658 -0.1738  1.3317 -0.8941
33231SOL    HW2 4150   7.081   4.761   4.658  0.0804 -1.0473  0.4502
33232SOL     OW 4151   7.169   1.583   2.399 -0.1771  0.1667 -0.2259
33232SOL    HW1 4152   7.106   1.634   2.450 -1.0121  0.3669 -1.4080
33232SOL    HW2 4153   7.116   1.511   2.363  0.5538 -0.3794 -0.2195
33233SOL     OW 4154  10.882   2.852   5.130 -0.7641 -0.0361 -0.0033
33233SOL    HW1 4155  10.937   2.796   5.186 -0.0519  0.6368 -0.0170
33233SOL    HW2 4156  10.876   2.804   5.047 -1.5938 -0.9076  0.5380
33234SOL     OW 4157   5.348   5.258  10.539  0.3137 -0.2864  0.0597
33234SOL    HW1 4158   5.296   5.178  10.550  0.6918 -0.5017  0.2893
33234SOL    HW2 4159   5.288   5.320  10.498 -0.0541 -0.6119  0.1013
33235SOL     OW 4160   3.538   4.674   9.967  0.3423  0.1631  0.1532
33235SOL    HW1 4161   3.464   4.634   9.922  0.2233  0.2728  0.2535
33235SOL    HW2 4162   3.539   4.765   9.936  1.8064 -0.3725 -1.6436
33236SOL     OW 4163   4.303   5.742   3.022 -0.6839  0.5362 -0.5318
33236SOL    HW1 4164   4.282   5.746   3.116 -2.5039  1.0948 -0.9203
33236SOL    HW2 4165   4.228   5.784   2.979  0.9720  2.0398 -2.1281
33237SOL     OW 4166   1.709   2.530   8.710 -0.0736  0.2230  0.0123
33237SOL    HW1 4167   1.654   2.511   8.787  0.9925 -1.3190  0.4391
33237SOL    HW2 4168   1.672   2.476   8.641 -0.5144  0.9740 -0.3481
33238SOL     OW 4169   9.595   8.478   7.786 -0.0141  0.1927 -0.0015
33238SOL    HW1 4170   9.649   8.415   7.833 -2.3585 -2.2303 -0.3351
33238SOL    HW2 4171   9.584   8.550   7.848  0.4557 -0.9811  1.5114
33239SOL     OW 4172   7.473   2.578   7.889  0.2750  0.2659 -0.1541
33239SOL    HW1 4173   7.550   2.523   7.901  0.3903  0.6694  1.1013
33239SOL    HW2 4174   7.506   2.656   7.846  0.1899 -0.4225 -1.5165
33240SOL     OW 4175  10.412  10.189   7.134 -0.1488 -0.5668 -0.2652
33240SOL    HW1 4176  10.475  10.117   7.137  0.7527  0.1364 -1.4900
33240SOL    HW2 4177  10.330  10.149   7.162  0.8603 -1.4459  1.6142
33241SOL     OW 4178   1.339   7.143   6.477  0.6163  0.1608 -0.2990
33241SOL    HW1 4179   1.363   7.187   6.559  0.5980  0.1848 -0.3062
33241SOL    HW2 4180   1.244   7.155   6.471  0.6098  0.1098 -0.2951
33242SOL     OW 4181   3.498   9.015   1.856 -0.1997  0.2211  0.2852
33242SOL    HW1 4182   3.411   8.976   1.865 -0.7987  1.0625 -1.3592
33242SOL    HW2 4183   3.485   9.088   1.795  1.5992  0.5668  0.2646
33243SOL     OW 4184  10.862   6.535   5.247  0.0179 -0.1938 -0.1137
33243SOL    HW1 4185  10.894   6.530   5.337 -1.5634 -0.1743  0.4864
33243SOL    HW2 4186  10.886   6.450   5.208 -3.6200 -2.4120  1.9164
33244SOL     OW 4187   8.751   4.665   2.162  0.3929  0.3711  0.1893
33244SOL    HW1 4188   8.827   4.716   2.135  0.9717 -0.1843  0.7463
33244SOL    HW2 4189   8.786   4.599   2.222 -0.2582 -1.0153 -0.8979
33245SOL     OW 4190   8.763   0.215   2.393 -0.4587 -0.0847 -0.0776
33245SOL    HW1 4191   8.725   0.142   2.441  1.0151 -0.1612  1.0561
33245SOL    HW2 4192   8.705   0.227   2.317 -1.7613 -1.2119  0.6908
33246SOL     OW 4193   2.253   8.272   6.301  0.0945 -0.3260 -0.1081
33246SOL    HW1 4194   2.173   8.223   6.283  0.9990 -1.6286 -0.6877
33246SOL    HW2 4195   2.225   8.364   6.300 -0.8858 -0.5399 -3.2651
33247SOL     OW 4196   0.892   5.019   5.624 -0.0165 -0.0646  0.3935
33247SOL    HW1 4197   0.950   5.088   5.656  0.4455 -0.1757 -0.1878
33247SOL    HW2 4198   0.927   4.995   5.538 -0.5095 -0.6243  0.3363
33248SOL     OW 4199   7.042   0.627  10.469 -0.6155 -0.0738 -0.3921
33248SOL    HW1 4200   7.025   0.695  10.534  0.9198 -0.1340  0.1167
33248SOL    HW2 4201   7.039   0.673  10.385  0.2167  0.6026 -0.0644
33249SOL     OW 4202   9.811   5.745   2.513  0.7553  0.3864 -0.4942
33249SOL    HW1 4203   9.838   5.735   2.422  0.6277 -0.0820 -0.4819
33249SOL    HW2 4204   9.751   5.672   2.529  1.4288 -0.0302  0.2051
33250SOL     OW 4205   4.426   8.056   2.666 -0.2362 -0.0632  0.0679
33250SOL    HW1 4206   4.503   8.032   2.718 -1.2777 -1.5026  1.0302
33250SOL    HW2 4207   4.366   8.097   2.729 -1.2287 -1.1858 -0.1036
33251SOL     OW 4208   3.346   0.872   1.549  0.1424  0.1369  0.7127
33251SOL    HW1 4209   3.388   0.938   1.494 -1.2852  1.8934  1.6565
33251SOL    HW2 4210   3.412   0.852   1.616  0.8256  0.0885  0.0413
33252SOL     OW 4211   4.440   8.833   1.795  0.3638 -0.4014  0.2913
33252SOL    HW1 4212   4.417   8.865   1.882  1.7344  0.5661  0.3239
33252SOL    HW2 4213   4.371   8.867   1.738  1.1357  1.6911  0.5210
33253SOL     OW 4214  10.396   1.236   6.796  0.0923  0.4493 -0.4621
33253SOL    HW1 4215  10.385   1.319   6.842 -0.1772  1.0274 -1.5257
33253SOL    HW2 4216  10.366   1.254   6.707 -0.0778 -0.8255 -0.6822
33254SOL     OW 4217   7.555   8.872   4.647 -0.5498 -0.0081  0.1505
33254SOL    HW1 4218   7.622   8.886   4.714 -1.5332 -1.8060  1.5934
33254SOL    HW2 4219   7.562   8.780   4.624 -0.5902  0.4573 -1.8959
33255SOL     OW 4220  10.714   8.169   2.781 -0.2808  0.2485  0.6343
33255SOL    HW1 4221  10.708   8.234   2.712  0.9477 -0.5928 -0.3037
33255SOL    HW2 4222  10.627   8.168   2.821 -1.0835  0.5894 -1.0435
33256SOL     OW 4223   3.923   4.852   2.968 -0.0101  0.4372 -0.2462
33256SOL    HW1 4224   3.858   4.898   3.020  0.0012  1.3400 -0.9911
33256SOL    HW2 4225   3.939   4.770   3.015 -0.6413  0.8302  0.6786
33257SOL     OW 4226   4.959   2.397   3.824  0.2188  0.5022 -0.2292
33257SOL    HW1 4227   4.938   2.448   3.902  1.3562  0.4105  0.1574
33257SOL    HW2 4228   4.888   2.333   3.817  0.1842  0.4188  0.8163
33258SOL     OW 4229   4.951   9.319   1.463 -0.1607  0.6048 -0.1221
33258SOL    HW1 4230   4.941   9.230   1.431 -2.9521  1.2050 -1.1764
33258SOL    HW2 4231   4.953   9.311   1.558  1.2814 -0.6464 -0.2146
33259SOL     OW 4232   8.327  10.395   8.948 -0.2334  0.1655 -0.1481
33259SOL    HW1 4233   8.289  10.426   8.866  0.7393  1.8606  0.0095
33259SOL    HW2 4234   8.401  10.453   8.964  2.4614 -2.9240 -0.3938
33260SOL     OW 4235   9.188  10.919   1.165 -0.4578 -0.6320  1.0531
33260SOL    HW1 4236   9.272  10.876   1.180  0.5631  0.4987 -0.8769
33260SOL    HW2 4237   9.189  10.994   1.224  1.2840  1.0102 -0.8660
33261SOL     OW 4238   0.437   3.746   8.163 -0.2845 -0.2357  0.0571
33261SOL    HW1 4239   0.458   3.653   8.174  3.0933  0.4428  0.6404
33261SOL    HW2 4240   0.518   3.784   8.128 -0.8075  2.8347  1.8601
33262SOL     OW 4241   4.476   1.703  10.743  0.0128 -0.5236  0.2158
33262SOL    HW1 4242   4.398   1.747  10.709 -1.1593 -1.7490  1.1946
33262SOL    HW2 4243   4.535   1.699  10.668 -1.5829 -1.1351 -1.0836
33263SOL     OW 4244   1.592  10.876   5.987 -0.0909  0.2100  0.0359
33263SOL    HW1 4245   1.595  10.942   6.057 -1.4459  1.7857 -1.3246
33263SOL    HW2 4246   1.675  10.829   5.996  1.0314  2.2102  0.9502
33264SOL     OW 4247   5.116   3.163   4.009 -0.0669  0.2111  0.0485
33264SOL    HW1 4248   5.090   3.176   3.918  1.2252  0.4412 -0.3095
33264SOL    HW2 4249   5.084   3.075   4.030  1.4257 -0.7296 -1.3222
33265SOL     OW 4250   0.391   6.657  10.333 -0.5947  0.2096 -0.3476
33265SOL    HW1 4251   0.449   6.668  10.257 -1.1406 -0.0619 -0.8144
33265SOL    HW2 4252   0.360   6.745  10.353 -0.5787  0.2607 -0.5452
33266SOL     OW 4253   0.856   7.839   4.646  0.2182  0.4534  0.2155
33266SOL    HW1 4254   0.762   7.844   4.663  0.3515  0.7444  0.9146
33266SOL    HW2 4255   0.869   7.753   4.605 -0.4277  0.6567 -0.4242
33267SOL     OW 4256   5.210   5.376   5.442 -0.5405 -0.6370  0.2054
33267SOL    HW1 4257   5.280   5.391   5.505  0.5831  1.1493 -1.3438
33267SOL    HW2 4258   5.248   5.315   5.378 -0.6450 -0.2872 -0.2021
33268SOL     OW 4259   9.094   4.676   4.466  0.0501  0.4468  0.0918
33268SOL    HW1 4260   9.051   4.751   4.507 -0.3643  0.5140 -0.4387
33268SOL    HW2 4261   9.067   4.681   4.374  0.5627  0.0292 -0.0867
33269SOL     OW 4262   0.043   3.195   0.520  0.6677 -0.4799  0.3086
33269SOL    HW1 4263   0.079   3.282   0.542  0.1217 -0.5162  1.4378
33269SOL    HW2 4264   0.118   3.137   0.524  0.9091 -0.1754  0.2766
33270SOL     OW 4265   9.597   2.166   1.034 -0.1298  0.2007  0.0275
33270SOL    HW1 4266   9.517   2.217   1.028  1.0850  2.1770 -0.2347
33270SOL    HW2 4267   9.668   2.231   1.029  1.5044 -1.5203 -0.5359
33271SOL     OW 4268   8.118   4.472   3.120  0.1255  0.2232 -0.0736
33271SOL    HW1 4269   8.163   4.398   3.079  1.6557  0.9198  0.2724
33271SOL    HW2 4270   8.029   4.468   3.086  0.8905 -0.1906 -2.1527
33272SOL     OW 4271   8.840   1.788   2.729  0.2627 -0.0586  0.4800
33272SOL    HW1 4272   8.789   1.795   2.810  0.6045  0.1211  0.6781
33272SOL    HW2 4273   8.799   1.852   2.670 -1.6594 -1.9906 -0.3958
33273SOL     OW 4274   5.963   6.292   2.274  1.2733  0.1326  0.3505
33273SOL    HW1 4275   5.918   6.312   2.356  1.0169 -1.5655  0.6737
33273SOL    HW2 4276   6.053   6.273   2.301  1.6366  1.3097 -0.0029
33274SOL     OW 4277   9.280   0.341   6.277  0.2996  0.0345  0.4250
33274SOL    HW1 4278   9.358   0.382   6.314 -0.1299 -0.4195  1.9179
33274SOL    HW2 4279   9.223   0.414   6.253  0.0054  0.3705  2.0327
33275SOL     OW 4280   3.694   0.531   1.066 -0.2224  0.1802  0.6912
33275SOL    HW1 4281   3.742   0.573   0.994  1.0836 -2.3335 -0.0282
33275SOL    HW2 4282   3.602   0.541   1.042  0.1884 -1.1504 -1.7572
33276SOL     OW 4283  10.059   3.673  10.862 -0.1145 -0.2009  0.2885
33276SOL    HW1 4284   9.973   3.713  10.850  0.3032  0.5665 -0.2973
33276SOL    HW2 4285  10.120   3.747  10.861  0.7837 -0.8812 -1.7528
33277SOL     OW 4286   9.647   5.061   0.120 -0.5119  0.1738  0.0169
33277SOL    HW1 4287   9.663   4.978   0.074 -0.1248 -0.3609  1.1026
33277SOL    HW2 4288   9.552   5.069   0.120 -0.5475 -0.1847 -0.2424
33278SOL     OW 4289   2.572   0.977   9.913  0.0379  0.1294 -0.4080
33278SOL    HW1 4290   2.543   0.909   9.975 -0.6099  0.6574 -0.1173
33278SOL    HW2 4291   2.631   0.931   9.853 -0.4431 -0.7086 -0.2605
33279SOL     OW 4292  10.893   7.773   3.325  0.2336 -0.1431  0.0463
33279SOL    HW1 4293  10.929   7.822   3.251 -0.4218 -0.5039 -0.5207
33279SOL    HW2 4294  10.941   7.807   3.401  1.1226  0.0258 -0.5698
33280SOL     OW 4295   5.822   7.279   9.374  0.2762 -0.6331  0.0980
33280SOL    HW1 4296   5.763   7.339   9.420 -0.1597 -0.0328 -1.1840
33280SOL    HW2 4297   5.766   7.209   9.342  0.5491 -0.9767  0.3686
33281SOL     OW 4298   5.381   9.837   0.920 -0.7862  0.0388 -0.1236
33281SOL    HW1 4299   5.317   9.771   0.892 -2.0857  0.3089  2.0367
33281SOL    HW2 4300   5.339   9.921   0.902  0.8779  0.4453 -2.9042
33282SOL     OW 4301   6.982   6.067   1.287 -0.3650 -0.1808 -0.1389
33282SOL    HW1 4302   7.019   6.127   1.222 -1.5074 -0.4948 -1.0928
33282SOL    HW2 4303   6.892   6.054   1.260 -0.1361 -2.3866  0.0142
33283SOL     OW 4304   5.965  10.801  10.181  0.3533  0.3937 -0.0219
33283SOL    HW1 4305   5.890  10.795  10.240  0.5443 -2.0043  0.0996
33283SOL    HW2 4306   6.032  10.848  10.232 -0.2811  0.4647  0.7634
33284SOL     OW 4307   5.671   6.307   6.600 -0.0981  0.2296 -0.6365
33284SOL    HW1 4308   5.763   6.304   6.626 -0.2764  0.1100  0.0004
33284SOL    HW2 4309   5.627   6.247   6.660 -0.6508  0.5498 -0.7117
33285SOL     OW 4310   0.117   8.751   0.408  0.7636  0.2495  0.2787
33285SOL    HW1 4311   0.159   8.735   0.324  2.0071 -2.5004  1.2778
33285SOL    HW2 4312   0.024   8.734   0.393  0.7471  1.1863 -0.8028
33286SOL     OW 4313   8.074   0.497   7.743 -0.1098  0.3927 -0.1993
33286SOL    HW1 4314   8.151   0.441   7.750  0.6810  1.4840  0.1406
33286SOL    HW2 4315   8.055   0.502   7.650 -0.1248 -0.3334 -0.2401
33287SOL     OW 4316  10.406  11.040   7.418 -0.3553  0.0445  0.8677
33287SOL    HW1 4317  10.420  11.127   7.455  1.4601  0.4296 -0.5748
33287SOL    HW2 4318  10.486  10.992   7.440 -0.7222 -0.7898  0.4230
33288SOL     OW 4319   2.952   2.484   0.899  0.4257 -0.1628  1.0301
33288SOL    HW1 4320   3.035   2.444   0.872  0.1787 -0.0418  0.0154
33288SOL    HW2 4321   2.976   2.566   0.941  0.8100  2.3405 -3.4277
33289SOL     OW 4322  10.796   2.305   5.616 -0.0707 -0.1340 -0.1515
33289SOL    HW1 4323  10.757   2.219   5.628 -0.9915 -0.1368 -2.5351
33289SOL    HW2 4324  10.725   2.359   5.582  0.8716  1.1634 -0.1478
33290SOL     OW 4325   7.461   4.975   4.749 -0.1699 -0.1967  0.2780
33290SOL    HW1 4326   7.528   4.976   4.817  1.2569  0.0350 -1.0554
33290SOL    HW2 4327   7.476   5.056   4.700 -1.9570  0.2458  0.3937
33291SOL     OW 4328   8.405   3.000   1.500  0.6670  0.4637 -0.1207
33291SOL    HW1 4329   8.421   2.993   1.595  1.7215  2.1647 -0.1479
33291SOL    HW2 4330   8.323   3.049   1.494  1.5071  1.9087 -0.0822
33292SOL     OW 4331   0.385   4.251  10.736  0.2693  0.8158 -0.2513
33292SOL    HW1 4332   0.388   4.242  10.831 -0.2106  1.2855 -0.1816
33292SOL    HW2 4333   0.336   4.175  10.705 -1.2279  1.5971  0.0605
33293SOL     OW 4334   3.366  10.800   1.317 -0.1572  0.9857  0.1696
33293SOL    HW1 4335   3.280  10.787   1.276 -0.7328  0.1733  1.5899
33293SOL    HW2 4336   3.428  10.775   1.248 -1.1097 -1.2832  0.0298
33294SOL     OW 4337   7.289   3.727   0.844 -0.1498  0.5133 -0.3317
33294SOL    HW1 4338   7.252   3.694   0.926  0.6117  0.6324  0.0746
33294SOL    HW2 4339   7.274   3.657   0.780 -1.1119  0.5891 -0.1945
33295SOL     OW 4340   7.721   8.613   5.098 -0.5221 -0.0842 -0.2299
33295SOL    HW1 4341   7.783   8.607   5.026  0.2687 -0.7645  0.4898
33295SOL    HW2 4342   7.760   8.675   5.159 -0.2489 -0.9434  0.4929
33296SOL     OW 4343   1.040   8.588   5.386  0.1119  0.0272  0.6424
33296SOL    HW1 4344   0.998   8.670   5.360  0.5986 -0.9249 -4.1012
33296SOL    HW2 4345   1.133   8.608   5.392  0.3817 -0.1996 -1.6178
33297SOL     OW 4346   0.578   1.451   6.018  0.5408 -0.0177 -0.2118
33297SOL    HW1 4347   0.609   1.370   5.979  0.8634 -0.5792  1.1677
33297SOL    HW2 4348   0.536   1.425   6.100 -3.1376  0.7316 -1.6184
33298SOL     OW 4349   1.850   1.590   9.338 -0.0857 -0.1726  0.1629
33298SOL    HW1 4350   1.886   1.633   9.415  0.1999 -0.1674  0.0274
33298SOL    HW2 4351   1.861   1.496   9.355 -1.2825 -0.2307  0.7414
33299SOL     OW 4352   5.032   1.548   5.595  0.4697  0.3616 -0.3621
33299SOL    HW1 4353   4.947   1.580   5.565  1.0166 -0.0795 -2.5838
33299SOL    HW2 4354   5.019   1.527   5.687 -1.2819  2.0994 -0.1393
33300SOL     OW 4355  10.453   0.599   8.528  0.2098  0.6464 -0.1571
33300SOL    HW1 4356  10.478   0.690   8.514 -0.9130  0.7745 -1.4911
33300SOL    HW2 4357  10.361   0.594   8.501  0.4195 -1.0110 -0.6876
33301SOL     OW 4358   6.122   1.970   8.386 -0.2288  0.2451 -0.6301
33301SOL    HW1 4359   6.057   2.024   8.343 -1.0099 -1.3951 -1.6100
33301SOL    HW2 4360   6.204   1.990   8.341 -0.2128  1.5992 -0.0461
33302SOL     OW 4361   3.771  10.906   9.766 -0.5624 -0.6415 -0.6296
33302SOL    HW1 4362   3.726  10.913   9.851 -1.2639 -0.3987 -1.0163
33302SOL    HW2 4363   3.820  10.824   9.773  0.2332 -0.1117  0.4016
33303SOL     OW 4364   4.583   4.643   5.079 -0.1938  0.1927  0.5194
33303SOL    HW1 4365   4.506   4.689   5.044  0.4218 -0.1341 -1.4171
33303SOL    HW2 4366   4.582   4.559   5.034  0.2647 -0.5667  1.9001
33304SOL     OW 4367   6.650  10.868   5.701  0.1273  0.0773 -0.2737
33304SOL    HW1 4368   6.715  10.805   5.732 -0.0081 -0.8606 -1.7722
33304SOL    HW2 4369   6.578  10.814   5.669 -1.0177  1.0834  0.5523
33305SOL     OW 4370   0.372   4.425   0.594 -0.0411  0.3422 -0.3795
33305SOL    HW1 4371   0.359   4.517   0.574  2.2933  0.4787 -1.6263
33305SOL    HW2 4372   0.307   4.405   0.662 -0.4651  2.9267  0.0581
33306SOL     OW 4373   5.571   3.478   4.979 -0.1982 -0.4585 -0.1699
33306SOL    HW1 4374   5.491   3.432   4.950 -2.0642  1.2843  1.8540
33306SOL    HW2 4375   5.640   3.412   4.973 -2.3471 -2.9538  0.6473
33307SOL     OW 4376   5.123   8.648   8.986 -0.4265  0.4517  0.8014
33307SOL    HW1 4377   5.072   8.605   9.054 -0.1296 -1.3163 -0.0251
33307SOL    HW2 4378   5.066   8.649   8.909  0.3114 -0.4483  0.2121
33308SOL     OW 4379   0.765   7.217  10.313  0.3249 -0.3071 -0.0081
33308SOL    HW1 4380   0.712   7.286  10.272 -0.4521 -0.6500  0.3883
33308SOL    HW2 4381   0.744   7.138  10.263  1.6288 -0.1771 -0.8129
33309SOL     OW 4382   1.981   9.187   7.411  0.1363  0.1406  0.4322
33309SOL    HW1 4383   1.965   9.094   7.431  0.6021  0.0230  0.2629
33309SOL    HW2 4384   1.930   9.234   7.476 -0.2777 -0.2338  0.3888
33310SOL     OW 4385   1.009   8.603  10.029  0.0838  0.3482 -0.3580
33310SOL    HW1 4386   1.011   8.697  10.048 -0.2278  0.1495  0.7587
33310SOL    HW2 4387   1.062   8.564  10.099  0.8969 -0.2488 -1.2779
33311SOL     OW 4388   4.583   8.708   6.368 -0.0117 -0.0983 -0.0383
33311SOL    HW1 4389   4.625   8.660   6.297  0.6171  0.7037 -0.2293
33311SOL    HW2 4390   4.648   8.710   6.438  0.0099  0.5350 -0.0674
33312SOL     OW 4391  10.239   6.346   9.386  0.1037  0.0827 -0.3147
33312SOL    HW1 4392  10.187   6.362   9.464 -0.5636  1.8708 -1.0651
33312SOL    HW2 4393  10.229   6.253   9.368  0.8969 -0.5408  2.1253
33313SOL     OW 4394   3.520   1.035  11.017 -0.0635  0.4027  0.2674
33313SOL    HW1 4395   3.535   1.110  10.960  0.0202  0.8913  0.9272
33313SOL    HW2 4396   3.602   1.024  11.065 -0.5258  0.7453  1.1638
33314SOL     OW 4397   8.446   9.396   3.378  0.5124 -0.1267  0.3903
33314SOL    HW1 4398   8.373   9.403   3.439 -0.3062  1.0047 -0.6590
33314SOL    HW2 4399   8.520   9.433   3.425  0.1087 -0.0962  1.0112
33315SOL     OW 4400   3.858   6.236   8.108 -0.1392  0.1970  0.6636
33315SOL    HW1 4401   3.907   6.179   8.049 -1.2865 -0.2834  0.1398
33315SOL    HW2 4402   3.924   6.292   8.149  0.9393 -1.0469  0.6850
33316SOL     OW 4403   7.842  10.758  10.653  0.0331 -0.9426 -0.3243
33316SOL    HW1 4404   7.775  10.827  10.654 -0.1891 -1.0984  2.2305
33316SOL    HW2 4405   7.900  10.782  10.581  0.6215  2.5862  1.1417
33317SOL     OW 4406   3.127   3.842   7.430  0.2048 -0.6601 -0.1221
33317SOL    HW1 4407   3.136   3.766   7.372 -3.3126 -0.4285 -1.2318
33317SOL    HW2 4408   3.061   3.816   7.494  0.1930  0.8796  0.5357
33318SOL     OW 4409   6.748  10.331   2.222 -0.2815  0.1731  0.5008
33318SOL    HW1 4410   6.725  10.276   2.147 -0.3436  1.2858 -0.3206
33318SOL    HW2 4411   6.836  10.301   2.247  0.7693  1.3322 -1.5400
33319SOL     OW 4412   2.995   6.742   3.996 -0.0812  0.1426  0.1775
33319SOL    HW1 4413   2.904   6.754   3.967 -0.1249 -0.0889  0.2204
33319SOL    HW2 4414   3.027   6.667   3.946  0.0584  0.1644  0.2325
33320SOL     OW 4415   5.261   2.585   9.838  0.4311 -0.2683  0.4592
33320SOL    HW1 4416   5.233   2.673   9.861  0.3170  0.0020 -0.6289
33320SOL    HW2 4417   5.207   2.527   9.891 -0.7429  0.2850 -0.0905
33321SOL     OW 4418   9.159   9.331   4.984  0.1797 -0.0821 -0.4147
33321SOL    HW1 4419   9.200   9.310   4.900 -0.4570 -3.3487 -0.0310
33321SOL    HW2 4420   9.077   9.282   4.983  0.4031 -0.6386  2.3383
33322SOL     OW 4421   6.637  10.786   3.308 -0.3028 -0.3745 -0.0209
33322SOL    HW1 4422   6.698  10.855   3.338  1.3430 -1.0337 -1.6377
33322SOL    HW2 4423   6.600  10.751   3.389  1.2536  0.2732  1.0498
33323SOL     OW 4424   5.913   9.592  10.493 -0.0106  0.4868  0.8602
33323SOL    HW1 4425   5.956   9.665  10.537 -1.4252  2.2166 -0.4764
33323SOL    HW2 4426   5.848   9.560  10.555  1.1960 -0.2593  1.7854
33324SOL     OW 4427  10.611   2.670   2.428 -0.7917  0.5028  0.3926
33324SOL    HW1 4428  10.674   2.604   2.400 -0.9367  0.4200  0.2652
33324SOL    HW2 4429  10.627   2.680   2.522 -1.3826 -0.3724  0.5966
33325SOL     OW 4430   1.442   4.829   9.440 -0.3995  0.3377  0.6716
33325SOL    HW1 4431   1.484   4.826   9.525 -0.3274  0.5774  0.6448
33325SOL    HW2 4432   1.440   4.922   9.417  0.0370  0.2299  0.1851
33326SOL     OW 4433   0.849   0.859   9.891  0.1354 -0.4926  0.1996
33326SOL    HW1 4434   0.823   0.856   9.799  1.3780 -0.7918 -0.1600
33326SOL    HW2 4435   0.794   0.793   9.934  0.3871 -1.2057 -0.5613
33327SOL     OW 4436   2.486   5.155   5.739 -0.0644  0.3252 -0.4230
33327SOL    HW1 4437   2.488   5.174   5.645  1.4505 -2.5103 -1.0795
33327SOL    HW2 4438   2.559   5.095   5.753 -0.7519  0.0099  2.4299
33328SOL     OW 4439   0.844   4.996  10.280  0.3557 -0.0058  0.3770
33328SOL    HW1 4440   0.791   4.954  10.348  1.1061 -1.4632  0.1031
33328SOL    HW2 4441   0.854   4.929  10.212  2.3690  0.2506  0.3406
33329SOL     OW 4442   9.204   8.192  10.922  0.0827  0.2756 -0.6263
33329SOL    HW1 4443   9.267   8.236  10.866 -0.5048  2.1969  0.1401
33329SOL    HW2 4444   9.224   8.224  11.010  0.5740 -2.1700  0.2222
33330SOL     OW 4445   6.028   5.046   1.338 -0.0004 -0.1208 -0.3926
33330SOL    HW1 4446   6.103   5.104   1.325  1.1520 -1.2928  0.7195
33330SOL    HW2 4447   6.060   4.960   1.313 -1.1559 -0.5605 -0.4120
33331SOL     OW 4448   1.193   1.181  10.153 -0.1661  0.4771  0.3086
33331SOL    HW1 4449   1.196   1.144  10.241  1.2620 -0.3883 -0.0758
33331SOL    HW2 4450   1.284   1.204  10.133  0.2980 -2.7982 -2.3139
33332SOL     OW 4451   1.314   7.422   9.554  0.1944  0.7144 -0.7294
33332SOL    HW1 4452   1.319   7.484   9.626 -0.0118 -0.0147 -0.0641
33332SOL    HW2 4453   1.287   7.340   9.595 -0.4990  0.4212 -1.7223
33333SOL     OW 4454   2.795   2.204   9.683 -0.0171 -0.4010 -0.2548
33333SOL    HW1 4455   2.851   2.137   9.721 -0.5325 -0.7176 -0.0391
33333SOL    HW2 4456   2.708   2.188   9.721  0.0760  1.0950  0.6847
33334SOL     OW 4457   5.418   1.745   1.623 -0.0662  0.0765 -0.3784
33334SOL    HW1 4458   5.466   1.663   1.634 -1.7595 -0.9482 -0.1745
33334SOL    HW2 4459   5.425   1.788   1.708  0.0768 -0.3024 -0.1941
33335SOL     OW 4460   7.314   5.696   7.226 -0.1528 -0.6033  0.1707
33335SOL    HW1 4461   7.289   5.757   7.295  0.5367 -0.4594  0.3021
33335SOL    HW2 4462   7.347   5.619   7.273 -1.0058 -1.0718  0.0071
33336SOL     OW 4463   7.760   3.418   5.138 -0.2553 -0.0596 -0.3192
33336SOL    HW1 4464   7.829   3.465   5.185 -0.2712 -0.3143 -0.0300
33336SOL    HW2 4465   7.730   3.352   5.201 -0.4429 -0.2525 -0.6070
33337SOL     OW 4466   9.139  10.264   5.324  0.4918  0.6934  0.1411
33337SOL    HW1 4467   9.081  10.329   5.285 -0.5244 -0.4375 -0.2872
33337SOL    HW2 4468   9.080  10.205   5.372  1.4461  0.4317  1.0382
33338SOL     OW 4469   6.445   5.411   6.614  0.0172 -0.4088 -0.2039
33338SOL    HW1 4470   6.398   5.366   6.684  1.4646  1.3566  2.0793
33338SOL    HW2 4471   6.378   5.433   6.549 -1.1646 -3.2557 -0.0856
33339SOL     OW 4472   0.289   7.850   5.644  0.7599 -0.4477 -0.0554
33339SOL    HW1 4473   0.252   7.844   5.556 -0.8869 -1.6795  0.6691
33339SOL    HW2 4474   0.316   7.942   5.652  0.4344 -0.1824 -1.6338
33340SOL     OW 4475   4.737   6.665   5.067  0.2434 -0.1957  0.1294
33340SOL    HW1 4476   4.650   6.639   5.097  0.3996  1.5219  2.2889
33340SOL    HW2 4477   4.782   6.693   5.146  2.0616  0.9451 -1.2387
33341SOL     OW 4478   4.910  10.269   9.501  0.3720 -0.2487 -0.0440
33341SOL    HW1 4479   4.878  10.183   9.529  2.4914 -0.5623  1.7040
33341SOL    HW2 4480   4.926  10.317   9.582 -0.1898  1.5994 -0.9726
33342SOL     OW 4481   2.275   6.589   8.373  0.0066 -0.2933  0.4149
33342SOL    HW1 4482   2.308   6.641   8.299 -0.3563 -0.6390  0.0057
33342SOL    HW2 4483   2.347   6.532   8.397  0.8889  1.2883  1.7270
33343SOL     OW 4484   5.859  10.909   6.171 -0.1338 -0.1059 -0.2436
33343SOL    HW1 4485   5.900  10.901   6.085 -0.4805  0.8109 -0.5056
33343SOL    HW2 4486   5.765  10.901   6.155 -0.1457 -1.2265  0.2318
33344SOL     OW 4487   4.908   9.591   8.559  0.1739  0.0828 -0.3050
33344SOL    HW1 4488   4.878   9.539   8.634  0.1885  0.5643  0.0385
33344SOL    HW2 4489   4.829   9.632   8.524  0.3107  0.7294  0.1237
33345SOL     OW 4490   5.358   9.054   9.062 -0.1271 -0.6737 -0.7265
33345SOL    HW1 4491   5.274   9.012   9.040  0.9642 -2.1184 -2.3356
33345SOL    HW2 4492   5.359   9.055   9.158 -2.0761 -0.3730 -0.6600
33346SOL     OW 4493   9.849   4.421   6.484  0.2445 -0.5532 -0.5390
33346SOL    HW1 4494   9.875   4.494   6.541  0.0910  0.2684 -1.5077
33346SOL    HW2 4495   9.880   4.343   6.531 -0.4419  0.0487  0.9829
33347SOL     OW 4496   3.982   6.325   8.855 -0.0555 -0.8109  0.1984
33347SOL    HW1 4497   3.926   6.250   8.836  1.1692 -1.3197 -1.7233
33347SOL    HW2 4498   3.956   6.392   8.792  0.5490 -0.5619  0.2000
33348SOL     OW 4499   5.847   1.795   9.384  0.1295 -0.0626 -0.3525
33348SOL    HW1 4500   5.832   1.709   9.344  1.3881  1.1226 -3.6732
33348SOL    HW2 4501   5.780   1.800   9.453 -0.7785 -3.1845 -0.8217
33349SOL     OW 4502  10.756   8.477   8.070  0.1989 -0.2893  0.2315
33349SOL    HW1 4503  10.726   8.415   8.004 -4.1658  0.9599  0.7820
33349SOL    HW2 4504  10.762   8.561   8.025  2.1320 -0.2686  0.4144
33350SOL     OW 4505   8.925   7.883   2.635  0.0415  0.4666  0.2459
33350SOL    HW1 4506   8.975   7.930   2.568 -0.7845  1.5451  0.3526
33350SOL    HW2 4507   8.951   7.923   2.717  3.2073 -2.7190  1.0299
33351SOL     OW 4508   4.269   8.168   2.442 -0.8486  0.6794 -0.1128
33351SOL    HW1 4509   4.316   8.122   2.512 -0.7978 -0.2706 -0.7513
33351SOL    HW2 4510   4.219   8.100   2.397  2.8737  0.1076 -4.1403
33352SOL     OW 4511   3.504  10.528   1.887 -0.4332 -0.1278  0.1240
33352SOL    HW1 4512   3.584  10.558   1.931  0.0602 -0.3738 -0.5920
33352SOL    HW2 4513   3.436  10.587   1.918  0.3396  1.1435 -0.5291
33353SOL     OW 4514  10.402   7.386   1.502  0.2102  0.2785  0.6926
33353SOL    HW1 4515  10.332   7.416   1.443  0.6340 -0.0773 -0.0059
33353SOL    HW2 4516  10.420   7.296   1.474  0.5600  0.1745  1.2380
33354SOL     OW 4517   5.549   6.332   2.086  0.3369 -0.2638 -0.3230
33354SOL    HW1 4518   5.486   6.261   2.094  1.2630 -1.1533 -0.7166
33354SOL    HW2 4519   5.504   6.409   2.122 -0.8710 -0.9239 -0.3851
33355SOL     OW 4520   3.142   7.994   9.975  0.4379  0.5225  0.3006
33355SOL    HW1 4521   3.101   7.928   9.919  1.5261  0.4417 -0.4378
33355SOL    HW2 4522   3.129   7.962  10.064  2.6495 -1.7928 -0.0819
33356SOL     OW 4523   6.943  10.711   0.733 -0.1075  0.2116  0.0416
33356SOL    HW1 4524   6.892  10.659   0.794  2.2725 -1.4859  0.7446
33356SOL    HW2 4525   6.949  10.797   0.774  0.0878 -0.4310  1.4223
33357SOL     OW 4526   9.764   5.515   8.275 -0.0700 -0.1846  0.2351
33357SOL    HW1 4527   9.697   5.522   8.208 -0.5296  1.4995  0.8225
33357SOL    HW2 4528   9.845   5.545   8.233  0.2674 -1.7700 -0.3337
33358SOL     OW 4529   1.491   9.722   6.170 -0.1305 -0.8715  0.2267
33358SOL    HW1 4530   1.556   9.764   6.114 -1.2815  0.1591 -0.3598
33358SOL    HW2 4531   1.494   9.772   6.252  1.7403 -2.5380  1.2789
33359SOL     OW 4532  10.124  10.971   8.857  0.0099 -0.0102  0.2320
33359SOL    HW1 4533  10.145  10.973   8.950  1.3301 -1.8582  0.0071
33359SOL    HW2 4534  10.091  10.883   8.841  0.7127 -0.0349 -1.2302
33360SOL     OW 4535   3.715   9.280   0.270  0.4158  0.1292  0.1202
33360SOL    HW1 4536   3.804   9.309   0.286  0.5181  0.7979 -1.4841
33360SOL    HW2 4537   3.725   9.193   0.232  0.3698  0.1355  0.0935
33361SOL     OW 4538   0.893   6.772   0.386  0.7228  0.4228 -0.3126
33361SOL    HW1 4539   0.803   6.749   0.362  0.4435  2.6033 -1.5880
33361SOL    HW2 4540   0.885   6.857   0.429  2.0653  0.0695  0.6757
33362SOL     OW 4541   8.212   8.665   4.426  0.0397 -0.1179 -0.4789
33362SOL    HW1 4542   8.190   8.620   4.507 -0.4331  1.0666  0.0718
33362SOL    HW2 4543   8.135   8.719   4.407  0.5888  0.4639 -1.1083
33363SOL     OW 4544   0.824   1.781   8.942  0.2963  0.0739  0.0103
33363SOL    HW1 4545   0.876   1.831   9.005  0.7370 -0.3503 -0.0058
33363SOL    HW2 4546   0.733   1.793   8.969  0.5633 -2.4061  2.5065
33364SOL     OW 4547   8.045   9.946   8.881 -0.1426 -0.4141  0.0192
33364SOL    HW1 4548   8.030   9.900   8.964 -0.1035 -0.9974 -0.2930
33364SOL    HW2 4549   8.107  10.015   8.904 -0.8503  0.0266  0.6636
33365SOL     OW 4550   9.243   0.808   5.637  0.2152  0.3710  0.1912
33365SOL    HW1 4551   9.326   0.829   5.593  0.8832  2.5474  2.3174
33365SOL    HW2 4552   9.236   0.713   5.629  1.5925  0.3896 -2.2590
33366SOL     OW 4553   9.347   3.704   3.053  0.0497  0.4334  0.3204
33366SOL    HW1 4554   9.424   3.650   3.070  0.3499  1.0652  1.0438
33366SOL    HW2 4555   9.371   3.759   2.979  1.0225  1.9440  1.6874
33367SOL     OW 4556   5.416   9.062  10.961  0.0317  0.2609  0.5741
33367SOL    HW1 4557   5.371   9.131  10.912 -1.0040 -0.4311  0.5206
33367SOL    HW2 4558   5.504   9.097  10.978  0.0114  0.9849 -0.7392
33368SOL     OW 4559   3.834   7.783   4.639 -0.2536  0.4065 -0.2706
33368SOL    HW1 4560   3.821   7.786   4.544 -1.4579 -1.9200 -0.2477
33368SOL    HW2 4561   3.928   7.789   4.651  0.0442 -0.7839 -1.7366
33369SOL     OW 4562   6.191   4.392   9.676 -0.2553  0.0500 -0.2650
33369SOL    HW1 4563   6.101   4.359   9.679 -0.6044  0.7711 -1.7132
33369SOL    HW2 4564   6.244   4.317   9.653 -0.3897 -0.4985  1.0978
33370SOL     OW 4565   8.371   5.552   1.581 -0.1487 -0.0092  0.0636
33370SOL    HW1 4566   8.284   5.534   1.544 -0.9048  2.7235  0.2815
33370SOL    HW2 4567   8.411   5.612   1.518  0.5228  0.8079  1.2404
33371SOL     OW 4568   7.881   7.173  10.652 -0.4065 -0.1562  0.2155
33371SOL    HW1 4569   7.915   7.087  10.626  0.7423  0.2741  0.2345
33371SOL    HW2 4570   7.860   7.217  10.570 -3.1012 -1.2186  0.2285
33372SOL     OW 4571   7.724   1.945   2.420 -0.5839  0.0004  0.5977
33372SOL    HW1 4572   7.745   1.994   2.340  0.0603  0.4723  1.0486
33372SOL    HW2 4573   7.669   2.005   2.471  1.2968  0.8411  1.7574
33373SOL     OW 4574   0.177   3.012   4.260  0.1127 -0.0981  0.7732
33373SOL    HW1 4575   0.148   3.020   4.351 -2.4682  0.6441 -0.0230
33373SOL    HW2 4576   0.214   2.924   4.255 -2.6837 -1.4728  1.8591
33374SOL     OW 4577   2.639   0.047   1.226  0.0330 -0.0252 -0.3504
33374SOL    HW1 4578   2.627  -0.039   1.185 -2.2744  0.3821 -0.6713
33374SOL    HW2 4579   2.704   0.091   1.171  2.7527 -2.1595  0.9209
33375SOL     OW 4580   5.495   5.715   6.286 -0.0881 -0.1215 -0.6633
33375SOL    HW1 4581   5.431   5.646   6.303 -0.4653 -0.0046 -1.5656
33375SOL    HW2 4582   5.449   5.796   6.310 -1.4197  0.2754 -4.0047
33376SOL     OW 4583   3.431   8.729   2.843  0.2629  0.1402  0.1011
33376SOL    HW1 4584   3.376   8.803   2.870 -0.5775 -0.8750  1.3509
33376SOL    HW2 4585   3.392   8.699   2.761 -0.4913  0.0043  0.5007
33377SOL     OW 4586   8.361   7.606   2.169 -0.0408  0.5127  0.3302
33377SOL    HW1 4587   8.309   7.666   2.223  0.9582  1.4891  0.2345
33377SOL    HW2 4588   8.311   7.524   2.170 -1.6038  1.4254  0.1857
33378SOL     OW 4589   8.030   4.179  10.500 -0.2936  0.4519 -0.2295
33378SOL    HW1 4590   8.087   4.103  10.502 -0.4440  0.3147 -0.9214
33378SOL    HW2 4591   7.982   4.171  10.417 -1.0106  0.7823  0.1427
33379SOL     OW 4592   5.751   2.040   3.412  0.5127 -0.6743 -0.1840
33379SOL    HW1 4593   5.793   2.125   3.398  0.7604 -0.7758 -0.0561
33379SOL    HW2 4594   5.680   2.058   3.473  0.5422 -0.5542 -0.1849
33380SOL     OW 4595   3.106   9.012   8.527 -0.1131  0.0628  0.4186
33380SOL    HW1 4596   3.045   8.942   8.549 -0.2631  0.0846  0.0767
33380SOL    HW2 4597   3.052   9.081   8.489  0.4445 -1.3077 -3.2513
33381SOL     OW 4598   8.766   0.054   5.268  0.5669 -0.0144 -0.5162
33381SOL    HW1 4599   8.799   0.142   5.285 -0.0009  0.0676  0.2454
33381SOL    HW2 4600   8.836   0.010   5.220  0.2797  1.3088 -2.2556
33382SOL     OW 4601   9.407   9.759   4.317 -0.1323  0.2397 -0.1012
33382SOL    HW1 4602   9.328   9.812   4.300  0.2790  0.7139 -0.5640
33382SOL    HW2 4603   9.446   9.746   4.231  1.4340  1.8151  0.3047
33383SOL     OW 4604   3.569   7.984   6.839  0.0696 -0.1732  0.2645
33383SOL    HW1 4605   3.662   8.000   6.824  0.7572 -2.8139  1.1296
33383SOL    HW2 4606   3.541   8.056   6.897  1.9073 -0.0498  1.0640
33384SOL     OW 4607   0.660   0.468   5.588  0.1184 -0.3130  0.0893
33384SOL    HW1 4608   0.582   0.447   5.639 -0.7294  1.9153 -0.1741
33384SOL    HW2 4609   0.715   0.519   5.647  1.0920 -1.2470  0.0378
33385SOL     OW 4610  10.680   8.373   0.095 -0.0881  0.4439  0.7069
33385SOL    HW1 4611  10.699   8.369   0.189  0.9601 -0.3963  0.4838
33385SOL    HW2 4612  10.592   8.410   0.090 -0.2584  0.2796  2.0316
33386SOL     OW 4613   1.864   5.009   6.307  0.3148  0.1733  0.5431
33386SOL    HW1 4614   1.954   4.995   6.280  0.1348  0.3526 -0.1651
33386SOL    HW2 4615   1.812   4.956   6.248 -0.0269 -0.2174  1.1843
33387SOL     OW 4616   6.652   5.209   0.366  0.5474  0.1422 -0.0688
33387SOL    HW1 4617   6.675   5.136   0.422  3.2145  1.1281  0.2835
33387SOL    HW2 4618   6.714   5.204   0.293  0.0205  1.3820 -0.6437
33388SOL     OW 4619  10.539   0.105   8.951  0.1868 -0.3279  0.3353
33388SOL    HW1 4620  10.536   0.079   8.859 -3.1726  2.1132 -0.4133
33388SOL    HW2 4621  10.518   0.024   8.999 -0.8620 -1.0388 -1.2415
33389SOL     OW 4622  10.958   6.435   3.403  0.1087  0.4277  0.3785
33389SOL    HW1 4623  10.979   6.402   3.491  2.2622 -0.6213 -0.4602
33389SOL    HW2 4624  10.949   6.530   3.415 -2.4663  0.0707  2.1683
33390SOL     OW 4625   7.858   8.105   5.784  0.0369 -0.2900  0.0787
33390SOL    HW1 4626   7.928   8.162   5.754  1.7271 -1.7204  1.0746
33390SOL    HW2 4627   7.778   8.157   5.776  1.4122  1.9816  0.4367
33391SOL     OW 4628   2.642   8.546   7.851  0.1203 -0.4056  0.0404
33391SOL    HW1 4629   2.706   8.580   7.790 -0.9693  1.5532 -0.0792
33391SOL    HW2 4630   2.668   8.580   7.937  0.2670 -1.1369  0.2993
33392SOL     OW 4631   8.820   1.880   5.010 -0.4396 -0.0324 -0.4281
33392SOL    HW1 4632   8.802   1.948   5.075 -0.3654 -0.2898 -0.1380
33392SOL    HW2 4633   8.812   1.925   4.926  1.3199  0.7643 -0.2096
33393SOL     OW 4634   6.024  10.612   3.023  0.3438 -0.0383  0.1239
33393SOL    HW1 4635   6.050  10.704   3.032 -1.4125  0.7212 -1.8367
33393SOL    HW2 4636   6.026  10.578   3.112  0.1905  2.1449  1.0216
33394SOL     OW 4637   7.331   5.605   1.951  0.3539 -0.4549  0.5237
33394SOL    HW1 4638   7.379   5.526   1.973 -0.2262 -1.3818 -1.3343
33394SOL    HW2 4639   7.275   5.622   2.027  2.4078 -0.2340  2.0838
33395SOL     OW 4640   4.344   4.486   7.789 -0.9192 -0.1442  0.3524
33395SOL    HW1 4641   4.350   4.390   7.791 -1.2815 -0.1525  1.1629
33395SOL    HW2 4642   4.266   4.507   7.840 -1.2081  0.5595 -0.3513
33396SOL     OW 4643   3.466   7.749   3.623  0.3674  0.0213  0.4152
33396SOL    HW1 4644   3.508   7.834   3.609  0.1790  0.0513  0.0019
33396SOL    HW2 4645   3.373   7.771   3.635  0.1893 -0.1744 -0.4768
33397SOL     OW 4646   2.041   3.363   2.573 -0.3293 -0.5716 -0.0701
33397SOL    HW1 4647   2.011   3.435   2.628 -1.3440 -0.2519 -1.0115
33397SOL    HW2 4648   2.104   3.316   2.627  1.6775  1.9946 -0.0350
33398SOL     OW 4649   5.952  10.495   9.314 -0.0101  0.5148  0.0802
33398SOL    HW1 4650   5.868  10.541   9.327 -0.6653 -0.4579 -0.5500
33398SOL    HW2 4651   6.009  10.530   9.382 -0.4522  2.3108 -0.3935
33399SOL     OW 4652   7.559   1.149   5.254 -0.0016  0.0108 -0.2738
33399SOL    HW1 4653   7.572   1.084   5.324  1.8418 -0.4843 -1.0166
33399SOL    HW2 4654   7.565   1.234   5.298 -1.2542 -0.2852  0.5193
33400SOL     OW 4655   1.774   9.938   2.186  0.2737  0.3341 -0.4642
33400SOL    HW1 4656   1.804  10.004   2.249  0.0311 -0.1262  0.1424
33400SOL    HW2 4657   1.684   9.965   2.164  0.3230  0.4369 -0.5450
33401SOL     OW 4658   2.099   0.017   6.390 -0.2011 -0.2382  0.0620
33401SOL    HW1 4659   2.190   0.036   6.414 -0.5254  0.6017  0.6632
33401SOL    HW2 4660   2.069   0.096   6.346 -1.0873  0.0505  1.1598
33402SOL     OW 4661   8.313   7.310  10.842  0.0479  0.1724 -0.5964
33402SOL    HW1 4662   8.356   7.241  10.894  2.1623  1.0972 -1.0103
33402SOL    HW2 4663   8.296   7.269  10.757 -0.5086 -0.3974 -0.2192
33403SOL     OW 4664   7.380   3.313   4.640  0.6814 -0.0415  0.0877
33403SOL    HW1 4665   7.393   3.408   4.643 -1.1728  0.7590 -5.6441
33403SOL    HW2 4666   7.448   3.282   4.580 -0.6117 -1.8361 -0.5175
33404SOL     OW 4667   5.712   1.578   0.541  0.3186 -0.3942 -0.0112
33404SOL    HW1 4668   5.759   1.539   0.615 -0.2253  1.9829  1.7490
33404SOL    HW2 4669   5.768   1.562   0.465  2.8656  0.3116  1.5781
33405SOL     OW 4670   8.157   9.122   7.141 -0.2815 -0.4406 -0.1130
33405SOL    HW1 4671   8.222   9.169   7.191 -1.5197 -0.1439  1.2928
33405SOL    HW2 4672   8.079   9.177   7.144 -1.1318 -1.5950 -0.2300
33406SOL     OW 4673  10.920   7.972   9.077 -0.6644  0.3244 -0.4663
33406SOL    HW1 4674  10.888   7.953   8.988 -0.3005 -0.3808 -0.4522
33406SOL    HW2 4675  10.845   7.952   9.133 -0.9047  0.7993 -0.6181
33407SOL     OW 4676   8.666   4.398   4.701 -0.5240  0.0732 -0.0626
33407SOL    HW1 4677   8.584   4.447   4.707 -0.0456  0.7372  1.5375
33407SOL    HW2 4678   8.640   4.306   4.706 -1.0848  0.2864  3.0025
33408SOL     OW 4679  10.541   8.752   0.354 -0.2032 -0.5248  0.1489
33408SOL    HW1 4680  10.501   8.815   0.414  2.0093  1.4232 -0.3069
33408SOL    HW2 4681  10.592   8.694   0.411 -1.6718 -1.5535  0.4945
33409SOL     OW 4682   8.440   8.547   4.435 -0.1087 -0.2093 -0.2086
33409SOL    HW1 4683   8.476   8.615   4.493  1.1527  0.2989 -1.5278
33409SOL    HW2 4684   8.347   8.570   4.428  0.0525  0.6860  0.3059
33410SOL     OW 4685   0.689   6.097   5.190 -0.1041 -0.2172  0.3394
33410SOL    HW1 4686   0.780   6.075   5.166 -0.1036  0.9958 -0.8694
33410SOL    HW2 4687   0.679   6.063   5.279  1.7386  0.1572  0.7315
33411SOL     OW 4688  10.789   7.778  10.237 -0.3481 -0.0007 -0.2253
33411SOL    HW1 4689  10.807   7.686  10.257 -0.7566  0.4791  2.8611
33411SOL    HW2 4690  10.856   7.826  10.285 -1.4698  1.3440  0.0639
33412SOL     OW 4691   2.311   0.973   0.181 -0.0690 -0.1699  0.3491
33412SOL    HW1 4692   2.274   0.912   0.244 -1.6977 -0.0623 -0.4591
33412SOL    HW2 4693   2.265   0.954   0.099  0.2299  1.3430 -0.2008
33413SOL     OW 4694   7.227   4.276   3.549 -0.0237  0.4130  0.3850
33413SOL    HW1 4695   7.159   4.210   3.558 -1.4065  1.3645 -2.1444
33413SOL    HW2 4696   7.295   4.234   3.496 -0.3599  0.6334 -0.2250
33414SOL     OW 4697   7.204   1.875   1.128  0.3945  0.0559  0.5201
33414SOL    HW1 4698   7.291   1.906   1.100  1.5426 -2.7337  0.6897
33414SOL    HW2 4699   7.191   1.916   1.214  0.7961  1.7230 -0.1617
33415SOL     OW 4700   4.450   0.898   0.085 -0.1899  0.4208  0.2287
33415SOL    HW1 4701   4.385   0.901   0.015  0.5378  0.2388 -0.4681
33415SOL    HW2 4702   4.474   0.806   0.092 -0.2553  0.4355  0.7240
33416SOL     OW 4703   2.198   2.605   3.501  0.7082  0.3238  0.0313
33416SOL    HW1 4704   2.107   2.586   3.478  0.5597  0.2660  0.6477
33416SOL    HW2 4705   2.206   2.700   3.492  0.7496  0.2661 -0.5798
33417SOL     OW 4706   6.357   9.411   2.046 -0.2984  0.0370 -0.2860
33417SOL    HW1 4707   6.402   9.495   2.042 -0.1063 -0.1041 -1.4855
33417SOL    HW2 4708   6.421   9.348   2.013 -1.0967 -0.2759 -1.3051
33418SOL     OW 4709   4.171   0.635   7.809  0.3762 -0.8950 -1.4345
33418SOL    HW1 4710   4.237   0.578   7.849 -0.3814 -0.8950 -0.1068
33418SOL    HW2 4711   4.202   0.724   7.827 -0.4943 -0.8793  0.1795
33419SOL     OW 4712   7.349   3.492   4.012  0.0526 -0.0291  0.1224
33419SOL    HW1 4713   7.441   3.519   4.016  0.1628 -0.4876  0.9242
33419SOL    HW2 4714   7.328   3.466   4.101 -0.4924 -1.1088 -0.3023
33420SOL     OW 4715  10.411   0.224   0.496  0.2049 -0.1492 -0.1084
33420SOL    HW1 4716  10.456   0.197   0.576 -1.6087 -0.5765  0.8126
33420SOL    HW2 4717  10.393   0.142   0.450 -0.7719 -0.1144  0.1856
33421SOL     OW 4718   5.293   3.425   1.555 -0.5691  0.4079  0.1469
33421SOL    HW1 4719   5.287   3.520   1.540  0.2397  0.0719 -3.2791
33421SOL    HW2 4720   5.203   3.397   1.568 -0.7034  1.7499  2.6625
33422SOL     OW 4721   1.366   4.742   3.053 -0.0381  0.0392  0.3746
33422SOL    HW1 4722   1.434   4.687   3.014  0.3833  0.0430  1.0850
33422SOL    HW2 4723   1.294   4.738   2.991  0.8117  0.4798 -0.6815
33423SOL     OW 4724   7.582   3.014   1.810  0.2334  0.2602  0.2971
33423SOL    HW1 4725   7.621   2.997   1.896 -0.6993  1.0599  0.9022
33423SOL    HW2 4726   7.488   3.019   1.827 -0.2055 -1.7280 -1.1290
33424SOL     OW 4727  10.013  10.718   8.504 -0.5624  0.0201  0.2273
33424SOL    HW1 4728  10.086  10.656   8.506 -0.0658  0.5280 -0.9618
33424SOL    HW2 4729  10.054  10.804   8.517 -0.5949  0.5396 -2.4997
33425SOL     OW 4730   2.907   2.761   0.906 -0.6366  0.1323  0.0511
33425SOL    HW1 4731   2.867   2.847   0.888 -1.2114  0.1953  1.5600
33425SOL    HW2 4732   2.835   2.707   0.938 -0.1095 -0.6840 -0.1159
33426SOL     OW 4733   0.320   3.307   1.938  0.1046 -0.2201 -0.5264
33426SOL    HW1 4734   0.361   3.220   1.928  0.0139 -0.4423  0.8625
33426SOL    HW2 4735   0.390   3.362   1.972 -0.5588 -0.4697  1.3462
33427SOL     OW 4736   0.128   3.764   7.644 -0.3330  0.0560 -0.3860
33427SOL    HW1 4737   0.138   3.740   7.552 -1.8015  0.8418 -0.7845
33427SOL    HW2 4738   0.046   3.721   7.670  1.2667 -2.1838  1.2852
33428SOL     OW 4739   7.119   9.314   5.067  0.0673  0.4118 -0.2685
33428SOL    HW1 4740   7.135   9.383   5.132  1.2892  0.6508 -0.7811
33428SOL    HW2 4741   7.159   9.236   5.106 -0.4444  0.2244 -0.1196
33429SOL     OW 4742   2.760   0.087   9.372 -0.1382  0.6021  0.5473
33429SOL    HW1 4743   2.683   0.143   9.380 -0.4247  0.1019  1.3957
33429SOL    HW2 4744   2.758   0.032   9.450  0.3785 -0.3004 -0.0584
33430SOL     OW 4745   6.461   5.348   1.322  0.3077  0.0323  0.1414
33430SOL    HW1 4746   6.462   5.443   1.311 -0.5554 -0.0639 -0.9907
33430SOL    HW2 4747   6.532   5.317   1.266  0.1552 -0.0352 -0.0139
33431SOL     OW 4748   6.014   7.464   6.317 -0.3012 -0.5750 -0.1919
33431SOL    HW1 4749   5.979   7.530   6.258  0.0362 -0.7911 -0.6433
33431SOL    HW2 4750   6.013   7.383   6.266 -0.2409 -0.8186  0.1846
33432SOL     OW 4751   6.587   7.105   3.333 -0.5740  0.4138  0.1576
33432SOL    HW1 4752   6.669   7.071   3.297 -1.4320  0.4545 -1.9385
33432SOL    HW2 4753   6.612   7.187   3.376  0.7845 -0.5831  1.3779
33433SOL     OW 4754   8.516   5.867   8.321  0.5681  0.2544  0.6827
33433SOL    HW1 4755   8.579   5.795   8.321  0.2843  0.0036  0.1049
33433SOL    HW2 4756   8.565   5.941   8.357  1.5835  0.3865 -0.9020
33434SOL     OW 4757   7.761   9.422   6.066 -0.0291 -0.6593  0.9050
33434SOL    HW1 4758   7.836   9.480   6.048 -0.6310 -0.2669 -0.4298
33434SOL    HW2 4759   7.749   9.428   6.161  0.1784  1.1101  0.8526
33435SOL     OW 4760   2.074  10.263   4.429  0.1117 -0.1968  1.1692
33435SOL    HW1 4761   1.982  10.244   4.410  0.7465 -1.5012 -0.9681
33435SOL    HW2 4762   2.107  10.300   4.347  1.5744 -0.0855  1.7942
33436SOL     OW 4763   6.647   3.822   0.635 -0.4334  0.5774  0.1149
33436SOL    HW1 4764   6.569   3.873   0.612  0.6996  2.3638  0.0760
33436SOL    HW2 4765   6.686   3.871   0.708 -0.1930 -1.1841  1.2358
33437SOL     OW 4766   6.208   4.579   3.191  0.1718  0.2598  0.1996
33437SOL    HW1 4767   6.235   4.668   3.212  0.6617  0.4583 -1.1964
33437SOL    HW2 4768   6.165   4.585   3.106 -0.7215 -0.6907  0.5542
33438SOL     OW 4769   2.727   9.139   3.483 -0.3081  0.4821 -0.0666
33438SOL    HW1 4770   2.685   9.208   3.535 -1.0509  0.0657 -0.1056
33438SOL    HW2 4771   2.820   9.144   3.508 -0.5353  0.7600  0.7726
33439SOL     OW 4772   2.676   6.669   6.644 -0.4405 -0.0860 -0.0936
33439SOL    HW1 4773   2.749   6.616   6.675  0.9050  1.2778 -0.7863
33439SOL    HW2 4774   2.600   6.638   6.693  0.7191 -1.1383  1.0813
33440SOL     OW 4775   0.451   3.677   5.206  0.6279  0.3007 -0.1265
33440SOL    HW1 4776   0.367   3.657   5.164  0.8375  1.0483 -0.9359
33440SOL    HW2 4777   0.508   3.603   5.182 -0.0915 -0.7511  1.3319
33441SOL     OW 4778   2.021   9.310   4.961 -0.0736 -0.6240  0.0381
33441SOL    HW1 4779   1.943   9.273   5.002 -0.6458  0.3973 -0.1144
33441SOL    HW2 4780   1.990   9.390   4.919  0.9926 -0.3897 -0.3122
33442SOL     OW 4781   5.748   5.013   1.265 -0.4572  0.1777  0.2750
33442SOL    HW1 4782   5.824   4.973   1.307 -0.9970 -0.0065  1.0960
33442SOL    HW2 4783   5.733   4.959   1.187  0.9088  0.8826 -0.5011
33443SOL     OW 4784   2.725   2.129   3.241  0.7435 -0.0918 -0.0573
33443SOL    HW1 4785   2.652   2.130   3.178 -0.3821 -0.8966  1.1780
33443SOL    HW2 4786   2.803   2.139   3.187 -0.2284  0.0238 -1.5107
33444SOL     OW 4787   6.254   6.755   4.967  0.2320 -0.4618 -0.1346
33444SOL    HW1 4788   6.204   6.777   4.889 -1.4811 -3.2923 -0.0038
33444SOL    HW2 4789   6.251   6.833   5.022 -0.1832  0.9221 -2.0528
33445SOL     OW 4790   4.778   8.444   9.925  0.4735  0.2516 -0.5027
33445SOL    HW1 4791   4.853   8.403   9.881  1.1005  0.7435  0.0727
33445SOL    HW2 4792   4.701   8.403   9.885  1.0232  0.4078 -1.7677
33446SOL     OW 4793   9.028   9.547   2.440 -0.5805  0.2623  0.1247
33446SOL    HW1 4794   9.097   9.591   2.489 -1.3104  0.1857  1.2715
33446SOL    HW2 4795   8.963   9.523   2.507 -0.8460 -1.3145 -0.6545
33447SOL     OW 4796   3.421   2.824   4.321 -0.6150  0.5400 -0.2544
33447SOL    HW1 4797   3.505   2.781   4.342 -1.4491 -1.5312 -0.8755
33447SOL    HW2 4798   3.381   2.841   4.406 -0.6599 -0.8427  0.0296
33448SOL     OW 4799   4.196   2.101   3.692  0.8505  0.5304 -0.2045
33448SOL    HW1 4800   4.197   2.154   3.771 -0.4958 -0.1817  0.3164
33448SOL    HW2 4801   4.164   2.159   3.623  1.1350  0.8936 -0.0310
33449SOL     OW 4802   0.848   1.144   7.983  0.2050 -0.5657 -0.3326
33449SOL    HW1 4803   0.894   1.153   7.900  1.2541 -2.2844  0.0249
33449SOL    HW2 4804   0.762   1.110   7.959 -0.4930  1.4203 -0.8867
33450SOL     OW 4805   5.047  10.663   3.519 -0.1372 -0.2336 -0.6242
33450SOL    HW1 4806   5.023  10.574   3.495 -1.2195 -0.0592 -0.2624
33450SOL    HW2 4807   5.101  10.654   3.597 -2.5136 -0.4893  1.1030
33451SOL     OW 4808   4.161   2.738   3.157 -0.1354 -0.0679 -0.0000
33451SOL    HW1 4809   4.104   2.808   3.123 -0.3248  0.3192  1.0933
33451SOL    HW2 4810   4.130   2.722   3.245  1.0139 -0.3364  0.3732
33452SOL     OW 4811   1.762   7.451   4.356 -0.2855 -0.5020  0.2187
33452SOL    HW1 4812   1.823   7.378   4.367 -1.6276 -1.6555  0.3064
33452SOL    HW2 4813   1.733   7.445   4.265 -1.9449 -1.3920  0.7546
33453SOL     OW 4814   0.862  11.045   5.053 -0.0676  0.5219  0.3203
33453SOL    HW1 4815   0.939  11.055   4.998  1.0487 -1.0796  1.4860
33453SOL    HW2 4816   0.802  10.991   5.001  0.1931  0.5793 -0.0420
33454SOL     OW 4817   1.347   3.955   7.427 -0.0915  0.1737  0.3126
33454SOL    HW1 4818   1.330   3.874   7.475  0.3721  0.2325  0.5757
33454SOL    HW2 4819   1.261   3.979   7.391 -0.3223 -0.1939  0.6039
33455SOL     OW 4820   8.373   7.413   0.490  0.7568 -0.2895  0.3112
33455SOL    HW1 4821   8.298   7.467   0.465  0.5274 -0.1171  1.3232
33455SOL    HW2 4822   8.438   7.475   0.522  2.7794 -0.0359 -3.7054
33456SOL     OW 4823   0.792   8.424   3.263  0.1024  0.2382  0.3074
33456SOL    HW1 4824   0.850   8.390   3.194 -0.3056  0.1765 -0.0070
33456SOL    HW2 4825   0.819   8.515   3.274  0.6147  0.0612  0.5343
33457SOL     OW 4826  10.712   3.361   7.543 -0.0098  0.7758  0.3162
33457SOL    HW1 4827  10.794   3.372   7.592 -0.2426  1.7596  0.5294
33457SOL    HW2 4828  10.670   3.447   7.550 -0.5409  0.6095 -0.7366
33458SOL     OW 4829   4.390   3.411   1.661 -0.0458  0.1602  0.4074
33458SOL    HW1 4830   4.318   3.438   1.604 -0.1597  0.5305  0.7214
33458SOL    HW2 4831   4.457   3.377   1.602  0.0397  1.0031  0.0104
33459SOL     OW 4832   9.165   9.044   8.066  0.1854 -0.3067  0.4480
33459SOL    HW1 4833   9.217   9.034   8.146  0.2839 -0.3658  0.3781
33459SOL    HW2 4834   9.226   9.022   7.996  0.9013  2.3574  0.1339
33460SOL     OW 4835   0.808   6.310   2.793 -0.2713  0.5480  0.2092
33460SOL    HW1 4836   0.800   6.395   2.836  2.0014  0.6994  0.4444
33460SOL    HW2 4837   0.900   6.303   2.769 -0.7295 -1.1500 -1.3223
33461SOL     OW 4838   4.397  10.650   5.185 -0.5153  0.1048  0.0094
33461SOL    HW1 4839   4.316  10.609   5.214 -1.5157  2.3961  0.6725
33461SOL    HW2 4840   4.438  10.682   5.266  0.6807 -0.3149 -0.3972
33462SOL     OW 4841   2.180   0.529   2.803 -0.4151 -0.5349 -0.3725
33462SOL    HW1 4842   2.151   0.444   2.837 -0.7562 -0.3026 -0.0715
33462SOL    HW2 4843   2.197   0.581   2.881 -0.5784 -0.2032 -0.5568
33463SOL     OW 4844   4.740   6.059   1.205  0.4538 -0.4420  0.4111
33463SOL    HW1 4845   4.780   6.053   1.292 -0.6352  0.2388  0.9841
33463SOL    HW2 4846   4.653   6.022   1.216 -0.5696  1.7567  0.2225
33464SOL     OW 4847   5.343   3.107   7.709  0.2099 -0.1070 -0.6148
33464SOL    HW1 4848   5.321   3.117   7.616  0.3316  1.2174 -0.5108
33464SOL    HW2 4849   5.380   3.191   7.735  0.5252 -0.5806  0.5541
33465SOL     OW 4850   6.918  10.817   3.628  0.0549  0.5343 -0.2622
33465SOL    HW1 4851   7.004  10.860   3.624  0.2987  0.0340 -0.4314
33465SOL    HW2 4852   6.919  10.770   3.711  0.3877 -0.3939 -0.7839
33466SOL     OW 4853  10.984   6.699   7.644  0.6218  0.3794  0.2153
33466SOL    HW1 4854  11.013   6.662   7.560  1.3923  3.4944 -1.0487
33466SOL    HW2 4855  10.889   6.704   7.637  0.7402  1.5091 -0.9460
33467SOL     OW 4856   0.560   0.113   3.425 -0.5617 -0.4802 -0.0958
33467SOL    HW1 4857   0.466   0.096   3.412 -0.5830 -0.4289 -0.0111
33467SOL    HW2 4858   0.592   0.033   3.468 -1.0545  0.4269  2.0977
33468SOL     OW 4859   4.866   2.362   9.790 -0.8513  0.2124  0.3308
33468SOL    HW1 4860   4.824   2.332   9.710 -0.4309  0.6063 -0.0399
33468SOL    HW2 4861   4.796   2.362   9.855 -0.7846 -2.0030  0.4782
33469SOL     OW 4862   2.168   2.413   2.132  0.4271 -0.2301 -0.3453
33469SOL    HW1 4863   2.238   2.348   2.137  1.7666  1.0369 -1.6026
33469SOL    HW2 4864   2.156   2.430   2.038 -1.3964 -0.2014 -0.1588
33470SOL     OW 4865   0.139   5.725   0.042 -0.0977  0.1143 -0.2700
33470SOL    HW1 4866   0.104   5.774  -0.033 -0.0011 -1.6310 -1.5152
33470SOL    HW2 4867   0.061   5.697   0.091 -0.1646  1.1918  0.2656
33471SOL     OW 4868   1.452   0.727   1.774 -0.3607  0.4202 -0.4795
33471SOL    HW1 4869   1.393   0.779   1.719  0.8851  3.3718  0.7504
33471SOL    HW2 4870   1.520   0.697   1.714 -0.5691  1.1136 -1.0854
33472SOL     OW 4871   6.179   3.350   8.253 -0.0737 -0.3252 -0.4573
33472SOL    HW1 4872   6.085   3.351   8.270 -0.0694 -0.1484 -0.4496
33472SOL    HW2 4873   6.200   3.438   8.223  0.7298  0.8058  2.9518
33473SOL     OW 4874   2.109   5.722   3.822 -0.3822 -0.3616 -0.3047
33473SOL    HW1 4875   2.032   5.729   3.765  1.0673  1.8951 -2.1271
33473SOL    HW2 4876   2.183   5.720   3.763  1.0896 -0.8039  1.4677
33474SOL     OW 4877   9.975   6.232  11.071 -0.5732 -0.5557  0.1534
33474SOL    HW1 4878   9.922   6.212  11.149 -0.2282  4.0286  1.8456
33474SOL    HW2 4879   9.933   6.309  11.033  2.9059  1.2631 -0.3623
33475SOL     OW 4880   1.903   4.441   9.526 -0.4984  0.4614  0.7666
33475SOL    HW1 4881   1.813   4.448   9.556 -0.3795 -1.1841  1.5947
33475SOL    HW2 4882   1.955   4.460   9.605 -0.1734 -2.1089  1.2471
33476SOL     OW 4883  10.145   5.077   8.618 -0.3962 -0.3751 -0.0193
33476SOL    HW1 4884  10.119   5.015   8.686  1.5306  0.0443  1.1711
33476SOL    HW2 4885  10.238   5.058   8.602 -0.4666  0.4200 -1.5882
33477SOL     OW 4886   7.434   7.287   1.998 -0.2924 -0.2805  0.0205
33477SOL    HW1 4887   7.406   7.374   2.024 -2.3126 -0.8056 -0.2098
33477SOL    HW2 4888   7.394   7.273   1.912  1.6273 -0.7075 -0.8603
33478SOL     OW 4889   8.325   8.681   3.753  0.0567 -0.1179  0.1236
33478SOL    HW1 4890   8.315   8.685   3.848  1.9980 -0.2687  0.3752
33478SOL    HW2 4891   8.252   8.626   3.723 -0.9830  0.4998  1.4222
33479SOL     OW 4892   4.018   5.196   6.554  0.1719  0.0890  0.7888
33479SOL    HW1 4893   4.051   5.110   6.579 -0.2215 -0.3750 -0.2034
33479SOL    HW2 4894   3.978   5.231   6.634  0.6766 -0.4823  1.2993
33480SOL     OW 4895   9.132   9.868   5.751 -0.0826 -0.0016 -0.1909
33480SOL    HW1 4896   9.160   9.850   5.661  0.8524  0.9714 -0.1196
33480SOL    HW2 4897   9.080   9.792   5.776  1.2625 -1.1971 -0.8922
33481SOL     OW 4898   2.669   3.379   3.160 -0.0090 -0.2520  0.0133
33481SOL    HW1 4899   2.753   3.344   3.190  0.1465  0.5885  0.6084
33481SOL    HW2 4900   2.604   3.318   3.193  0.4204 -1.6466 -1.5763
33482SOL     OW 4901   4.720   0.937   0.080 -0.4910 -0.7205 -0.1577
33482SOL    HW1 4902   4.702   0.865   0.140  1.5639 -0.7633  0.4916
33482SOL    HW2 4903   4.754   0.895   0.001 -0.9889 -0.5477 -0.4655
33483SOL     OW 4904   6.734   6.607   1.598  0.2052 -0.1771  0.4780
33483SOL    HW1 4905   6.789   6.614   1.676  3.7966  0.1487 -1.8793
33483SOL    HW2 4906   6.745   6.517   1.569  0.0935  0.1069 -0.4587
33484SOL     OW 4907   6.168   3.459   9.375  0.4999  0.7768 -0.1943
33484SOL    HW1 4908   6.108   3.533   9.386 -0.5952  0.3857 -2.7836
33484SOL    HW2 4909   6.250   3.490   9.413  0.0503  3.2962 -1.0520
33485SOL     OW 4910   9.843   0.471   8.813 -0.5188  0.3031 -0.1918
33485SOL    HW1 4911   9.906   0.535   8.783 -0.0788  1.3756  2.7170
33485SOL    HW2 4912   9.878   0.387   8.784  2.2294  0.8729  1.1941
33486SOL     OW 4913  10.375   3.921   9.849 -0.1815  0.1630  0.6858
33486SOL    HW1 4914  10.397   4.002   9.801 -1.6725 -0.5443 -1.3559
33486SOL    HW2 4915  10.365   3.855   9.780 -1.4295 -1.1705  2.0747
33487SOL     OW 4916   9.191   0.685   3.133  0.4816  0.1327 -0.1470
33487SOL    HW1 4917   9.178   0.615   3.069  1.5726  1.4838 -1.9249
33487SOL    HW2 4918   9.118   0.675   3.194  0.7165 -2.6565 -0.2008
33488SOL     OW 4919   8.425   1.863   7.412 -0.5120 -0.0318  0.0909
33488SOL    HW1 4920   8.423   1.767   7.410 -1.7288 -0.0227  0.1636
33488SOL    HW2 4921   8.491   1.887   7.347  0.8479 -0.9343  1.0719
33489SOL     OW 4922   7.312   7.563   1.597 -0.0924 -0.2647 -0.4930
33489SOL    HW1 4923   7.225   7.596   1.618 -1.2974 -3.3908 -0.1108
33489SOL    HW2 4924   7.371   7.636   1.618 -2.4690  1.5376  0.3528
33490SOL     OW 4925   6.268   7.951   0.148  0.0344 -0.1554  0.0868
33490SOL    HW1 4926   6.307   8.005   0.079 -0.9783 -0.3570 -0.6776
33490SOL    HW2 4927   6.272   8.005   0.226 -0.2364  0.7136 -0.4875
33491SOL     OW 4928   3.294   3.433  10.302 -0.2517  0.7558  0.6067
33491SOL    HW1 4929   3.314   3.430  10.208 -2.5849  3.2369 -0.0950
33491SOL    HW2 4930   3.379   3.431  10.345  0.8713 -0.7896 -1.5013
33492SOL     OW 4931   7.997   8.883  10.776 -0.2835 -0.4029 -0.5301
33492SOL    HW1 4932   8.003   8.877  10.872  0.9386  1.9942 -0.3685
33492SOL    HW2 4933   7.909   8.917  10.760 -0.7993 -1.5965 -0.3524
33493SOL     OW 4934   1.949   6.491   8.022 -0.4007  0.7492  0.1330
33493SOL    HW1 4935   1.967   6.485   8.115  0.1669  0.9023  0.0372
33493SOL    HW2 4936   2.004   6.563   7.991  0.0245  0.1900 -0.4612
33494SOL     OW 4937   7.952  10.931  10.405  0.2865 -0.5532  0.1060
33494SOL    HW1 4938   7.888  11.000  10.388 -0.0866 -0.7219  0.7805
33494SOL    HW2 4939   8.037  10.972  10.385  0.0177 -0.1324 -0.1904
33495SOL     OW 4940   0.954   3.852   2.804  0.0711 -0.2196  0.1220
33495SOL    HW1 4941   0.861   3.862   2.827  0.2742 -1.8096  1.8388
33495SOL    HW2 4942   0.986   3.941   2.796 -1.4444  0.3644  0.1659
33496SOL     OW 4943   7.460   3.028   8.645  0.6892 -0.1722 -0.2432
33496SOL    HW1 4944   7.445   3.003   8.555  0.2064  0.4816 -0.3552
33496SOL    HW2 4945   7.509   3.110   8.639 -0.0091  0.2783  0.0710
33497SOL     OW 4946   2.811   8.339   2.243 -0.7472 -0.3045 -0.2817
33497SOL    HW1 4947   2.893   8.318   2.198  0.6331  1.0822  1.3974
33497SOL    HW2 4948   2.792   8.261   2.295  0.7318  0.0622  0.9100
33498SOL     OW 4949   6.147   6.049   0.803 -0.2758  0.5824 -0.0219
33498SOL    HW1 4950   6.178   6.109   0.736  0.9433 -0.6499 -0.6006
33498SOL    HW2 4951   6.120   5.971   0.755 -0.3630  0.0754  0.8274
33499SOL     OW 4952   5.914   0.251   3.470 -0.3048  0.1718 -0.0975
33499SOL    HW1 4953   5.909   0.158   3.452  1.7751 -0.3758  1.6463
33499SOL    HW2 4954   5.824   0.282   3.466 -1.2737 -2.2906  1.0058
33500SOL     OW 4955   1.513   3.883  10.173 -0.5547 -0.4047 -0.4852
33500SOL    HW1 4956   1.510   3.952  10.107 -0.0328 -0.6459 -0.7654
33500SOL    HW2 4957   1.583   3.825  10.144  1.3796  0.7635  1.5230
33501SOL     OW 4958   6.864   9.467   6.191 -0.4234  0.2829 -0.4120
33501SOL    HW1 4959   6.799   9.405   6.158 -0.9506  0.4883  0.2336
33501SOL    HW2 4960   6.871   9.533   6.122  1.1749 -1.1751 -1.7606
33502SOL     OW 4961  11.022   9.258   7.609 -0.1448 -0.0299 -0.8058
33502SOL    HW1 4962  11.099   9.222   7.566 -0.1441  0.9162 -1.6285
33502SOL    HW2 4963  10.956   9.264   7.540 -0.2671  1.1366 -0.6100
33503SOL     OW 4964   5.270   5.404   6.780  0.2010  0.2595  0.3907
33503SOL    HW1 4965   5.335   5.333   6.781 -0.7130 -0.6072  0.2057
33503SOL    HW2 4966   5.296   5.462   6.852  0.8670 -0.3631  0.6623
33504SOL     OW 4967   7.508   2.150   2.475  0.0715  0.6561 -0.0663
33504SOL    HW1 4968   7.573   2.208   2.514  0.7676 -0.1716  0.0379
33504SOL    HW2 4969   7.433   2.154   2.534 -0.0318  1.7151 -0.2521
33505SOL     OW 4970   6.442   4.737   7.852 -0.0889 -0.5827  0.0237
33505SOL    HW1 4971   6.455   4.649   7.888 -0.5563 -0.6078  0.1445
33505SOL    HW2 4972   6.490   4.795   7.910  0.2241 -0.7592 -0.0567
33506SOL     OW 4973   9.301   7.914   1.629 -0.0369  0.3831  0.1440
33506SOL    HW1 4974   9.271   7.906   1.539  2.7386 -0.3390 -0.8158
33506SOL    HW2 4975   9.308   8.008   1.645 -1.9770  0.5547  0.1870
33507SOL     OW 4976   0.378   1.838   9.258 -0.4609  0.3524 -0.7283
33507SOL    HW1 4977   0.389   1.792   9.341  0.8902 -0.0184 -1.0958
33507SOL    HW2 4978   0.415   1.925   9.274 -1.0405  0.5932 -0.6768
33508SOL     OW 4979   1.007  11.063   5.375  0.3042 -0.4050  0.4179
33508SOL    HW1 4980   0.994  11.107   5.291 -2.7777  0.1958  1.0831
33508SOL    HW2 4981   0.966  10.977   5.363  2.0250 -1.2779  0.5977
33509SOL     OW 4982   5.491  10.763  10.576 -0.2779 -0.3036 -0.4006
33509SOL    HW1 4983   5.478  10.853  10.546  1.8308  0.1972 -0.0417
33509SOL    HW2 4984   5.577  10.739  10.542 -0.3060 -1.7735  0.4603
33510SOL     OW 4985   6.021   0.486   8.008 -0.4828  0.4013  0.2946
33510SOL    HW1 4986   6.103   0.497   7.960 -1.9657  1.1110 -2.2596
33510SOL    HW2 4987   5.982   0.408   7.971 -1.4377  0.6329  0.7793
33511SOL     OW 4988   0.892   1.529   9.705  0.2938 -0.5896  0.0804
33511SOL    HW1 4989   0.831   1.547   9.633 -0.5648 -1.4387  0.5846
33511SOL    HW2 4990   0.930   1.444   9.684  0.2768 -0.6932  0.4609
33512SOL     OW 4991   3.524   3.065   1.070 -0.4882 -0.0483 -0.2691
33512SOL    HW1 4992   3.489   3.032   0.988 -0.8068  0.8715 -0.5083
33512SOL    HW2 4993   3.577   2.992   1.104 -0.2879 -0.4061 -1.3167
33513SOL     OW 4994   2.594   9.849   4.642 -0.6578 -0.0089  0.0923
33513SOL    HW1 4995   2.532   9.807   4.583  1.5518 -0.3986 -2.1173
33513SOL    HW2 4996   2.547   9.857   4.725 -3.4934 -0.5555 -1.3452
33514SOL     OW 4997   3.201   3.835   5.615 -0.1366  0.0063 -0.2742
33514SOL    HW1 4998   3.167   3.754   5.578  1.2297  0.4434 -2.7001
33514SOL    HW2 4999   3.145   3.904   5.578 -0.2803  0.2885  0.4612
33515SOL     OW 5000   7.740   6.714   5.475 -0.0930  0.0619 -0.5252
33515SOL    HW1 5001   7.737   6.670   5.561 -0.1703  1.1502  0.0506
33515SOL    HW2 5002   7.829   6.750   5.470 -0.8044  2.0673  0.2056
33516SOL     OW 5003   4.549   2.358   8.631 -0.1147  0.2785  0.1926
33516SOL    HW1 5004   4.551   2.371   8.536 -0.0347  0.8138  0.2596
33516SOL    HW2 5005   4.553   2.264   8.643  1.0466  0.2491 -0.3101
33517SOL     OW 5006   0.618   4.953   3.888 -0.3755 -0.3956 -0.0091
33517SOL    HW1 5007   0.660   5.013   3.950  0.1081 -0.5242 -0.2055
33517SOL    HW2 5008   0.531   4.938   3.924 -0.4009  0.1994  0.1926
33518SOL     OW 5009   0.327   5.142   7.969 -0.3308 -0.0018  0.4444
33518SOL    HW1 5010   0.254   5.081   7.976  0.9250 -1.4621  1.2994
33518SOL    HW2 5011   0.315   5.203   8.042 -0.3746 -0.6196  0.9620
33519SOL     OW 5012   0.543   3.411   2.056 -0.3520  0.4835  0.5575
33519SOL    HW1 5013   0.507   3.400   2.144 -0.3775  0.4694  0.5454
33519SOL    HW2 5014   0.589   3.494   2.059 -0.8165  0.7499  0.4287
33520SOL     OW 5015   8.326   1.885   6.858 -0.2539  0.4203  0.0254
33520SOL    HW1 5016   8.401   1.864   6.914  0.2431 -0.9971 -1.1104
33520SOL    HW2 5017   8.250   1.866   6.914  0.2178  0.7619  0.8067
33521SOL     OW 5018   8.005   0.214   6.538 -0.3067  0.4713  0.1307
33521SOL    HW1 5019   7.936   0.225   6.604  1.0805 -0.6558  1.8945
33521SOL    HW2 5020   7.959   0.216   6.454 -2.3997  0.3205  1.2031
33522SOL     OW 5021   2.132   4.310   3.248  0.2473  0.3111  0.3760
33522SOL    HW1 5022   2.163   4.245   3.185 -2.3608 -0.1196 -0.5579
33522SOL    HW2 5023   2.159   4.276   3.334  0.0368 -1.3421 -0.1956
33523SOL     OW 5024   2.790   1.681   7.182 -0.1310  0.0477  0.2231
33523SOL    HW1 5025   2.751   1.755   7.228  0.2445 -0.3177  1.1536
33523SOL    HW2 5026   2.846   1.639   7.247 -0.2369 -0.9782 -0.3214
33524SOL     OW 5027   5.355   6.667   6.069  0.0564 -0.0961 -0.6152
33524SOL    HW1 5028   5.411   6.739   6.040 -0.2742  1.8851  3.0753
33524SOL    HW2 5029   5.407   6.621   6.135 -0.6562 -1.7728 -1.1555
33525SOL     OW 5030   0.852   4.633   3.129 -0.6804 -0.5174  0.0806
33525SOL    HW1 5031   0.778   4.572   3.138 -0.5467 -0.6575  0.2575
33525SOL    HW2 5032   0.821   4.714   3.169 -0.7599 -0.5583  0.1034
33526SOL     OW 5033   3.151   2.801   5.966  0.4494 -0.1002  0.0352
33526SOL    HW1 5034   3.131   2.765   5.880  1.5769 -1.7702  0.4109
33526SOL    HW2 5035   3.104   2.744   6.027  0.7475  0.2364  0.5874
33527SOL     OW 5036   4.902   6.241   5.194  0.0769  0.2691  0.3126
33527SOL    HW1 5037   4.941   6.312   5.144  1.0071 -0.2612  0.2660
33527SOL    HW2 5038   4.837   6.284   5.250  0.4842  1.1262  0.1424
33528SOL     OW 5039   0.106   7.658   0.585 -0.4499 -0.4802 -0.1972
33528SOL    HW1 5040   0.112   7.729   0.521 -0.3883 -0.2861  0.0244
33528SOL    HW2 5041   0.040   7.599   0.549 -2.2742  0.8773  0.7473
33529SOL     OW 5042   2.766   9.143   5.534 -0.1619  0.3288  0.3080
33529SOL    HW1 5043   2.753   9.215   5.473  2.8588  0.3035 -0.5061
33529SOL    HW2 5044   2.727   9.067   5.490  2.1724  0.2540 -1.8245
33530SOL     OW 5045   5.059   2.086   8.057  0.5511 -0.3439  0.0451
33530SOL    HW1 5046   5.106   2.078   8.141  0.8702  0.1758 -0.0802
33530SOL    HW2 5047   5.117   2.139   8.002 -0.7571  1.5008  0.3359
33531SOL     OW 5048   0.742  10.596   5.718  0.5339  0.3868 -0.0510
33531SOL    HW1 5049   0.780  10.682   5.735  0.8853  0.4330 -1.0019
33531SOL    HW2 5050   0.751  10.549   5.800 -0.1469  1.4332  0.6408
33532SOL     OW 5051   6.916   0.905   1.423  0.4675 -0.7041 -0.0063
33532SOL    HW1 5052   6.879   0.868   1.343 -0.0166 -1.5525  0.6074
33532SOL    HW2 5053   6.854   0.972   1.450 -0.1430 -1.4620  0.4898
33533SOL     OW 5054   4.766   3.715   8.920 -0.3627  0.0817  0.1652
33533SOL    HW1 5055   4.854   3.699   8.954 -0.0629 -0.3977 -0.8026
33533SOL    HW2 5056   4.712   3.648   8.960 -0.6150  1.2697  1.9247
33534SOL     OW 5057   4.230  10.352  10.735 -0.2284 -0.2749  0.2003
33534SOL    HW1 5058   4.162  10.378  10.798 -0.2323  0.4043 -0.0709
33534SOL    HW2 5059   4.308  10.401  10.763 -0.4379  0.6502 -0.7791
33535SOL     OW 5060   7.081   3.806   7.242  0.3157 -0.2727  0.1868
33535SOL    HW1 5061   7.163   3.762   7.266 -1.0801 -1.9218  2.4430
33535SOL    HW2 5062   7.068   3.785   7.150  2.9600  1.0685 -0.5909
33536SOL     OW 5063   4.731   3.088   0.873  0.0262  0.7873  0.6218
33536SOL    HW1 5064   4.804   3.026   0.874  0.0162  0.7752  1.8802
33536SOL    HW2 5065   4.700   3.086   0.782  0.9203  0.0181  0.3074
33537SOL     OW 5066   0.155   0.902   3.384 -0.2100  0.7197  0.2753
33537SOL    HW1 5067   0.204   0.832   3.427 -0.8417  0.3644  0.4166
33537SOL    HW2 5068   0.212   0.931   3.313  1.1211  1.7080  1.6679
33538SOL     OW 5069   2.902   5.460   7.641 -0.0843 -0.1954  0.1688
33538SOL    HW1 5070   2.817   5.437   7.603 -0.8321  1.2141  0.9045
33538SOL    HW2 5071   2.898   5.426   7.730 -0.2862  0.7329  0.5220
33539SOL     OW 5072   9.869   9.085   4.983 -0.1643  0.6799 -0.7728
33539SOL    HW1 5073   9.945   9.090   4.925  1.0230 -0.4318  0.6082
33539SOL    HW2 5074   9.855   8.991   4.995  0.8128  0.7988  2.1555
33540SOL     OW 5075  10.426   7.473   4.382 -0.0978 -0.2206 -0.2860
33540SOL    HW1 5076  10.369   7.423   4.324 -0.2489 -0.6537  0.2309
33540SOL    HW2 5077  10.380   7.556   4.396 -0.6467 -0.6016  0.1968
33541SOL     OW 5078   7.413  10.925   4.989  0.0637 -1.2320  0.1612
33541SOL    HW1 5079   7.318  10.922   4.978  0.0375  1.4995 -1.2735
33541SOL    HW2 5080   7.427  10.921   5.083 -1.7739  1.4992  0.6608
33542SOL     OW 5081   1.929   6.046   9.447 -0.8075  0.1273  0.4666
33542SOL    HW1 5082   1.841   6.069   9.476 -1.6966 -1.9991 -0.3602
33542SOL    HW2 5083   1.929   5.950   9.442  1.4833  0.0761  0.2129
33543SOL     OW 5084   3.568   0.115   1.896  0.4910  0.1954 -0.1740
33543SOL    HW1 5085   3.590   0.050   1.963  0.9992  0.5748  0.0314
33543SOL    HW2 5086   3.477   0.139   1.915 -0.0294 -1.1431 -0.8244
33544SOL     OW 5087   4.002   0.266   7.045 -0.1120 -0.0239 -0.3849
33544SOL    HW1 5088   4.044   0.255   7.130  1.4023 -1.1404 -1.2165
33544SOL    HW2 5089   3.914   0.232   7.057  0.7353 -2.1732  0.2467
33545SOL     OW 5090   6.921   9.924   1.665  0.2080  0.3724 -0.8809
33545SOL    HW1 5091   6.919   9.933   1.761  1.6788  0.0208 -0.8051
33545SOL    HW2 5092   6.895  10.010   1.633 -1.1145  0.2702 -0.1927
33546SOL     OW 5093   9.500  10.685   7.724 -0.7836  0.6923  0.3919
33546SOL    HW1 5094   9.549  10.699   7.806  1.5872 -0.2841 -0.7637
33546SOL    HW2 5095   9.487  10.591   7.719  0.1750  0.6025 -0.9026
33547SOL     OW 5096   9.424   5.912   4.826  0.5140 -0.0318  0.1664
33547SOL    HW1 5097   9.443   5.865   4.745  0.9346  0.5542 -0.0834
33547SOL    HW2 5098   9.348   5.867   4.863  0.2761 -0.2581 -0.5905
33548SOL     OW 5099   6.589   7.657   4.158  0.1093 -0.2280 -0.2161
33548SOL    HW1 5100   6.533   7.673   4.234  0.5734 -2.0395  0.5610
33548SOL    HW2 5101   6.545   7.703   4.086 -0.6592  1.0339  1.0026
33549SOL     OW 5102  11.029   2.248   5.505 -0.1129 -0.1273 -0.3644
33549SOL    HW1 5103  11.019   2.268   5.412  0.7790 -0.4263 -0.5310
33549SOL    HW2 5104  10.962   2.301   5.548  0.3172  1.0276 -1.0594
33550SOL     OW 5105  11.038   5.801   8.166 -0.0540  0.2756 -0.5110
33550SOL    HW1 5106  11.073   5.791   8.255  1.1303 -2.5254 -1.1750
33550SOL    HW2 5107  11.113   5.832   8.114 -0.4534  0.8629 -0.7513
33551SOL     OW 5108   6.638   8.731   4.579 -0.0607 -0.1079 -0.9175
33551SOL    HW1 5109   6.723   8.692   4.560  0.1195 -0.7653  1.0530
33551SOL    HW2 5110   6.658   8.808   4.632 -0.6815 -0.0313 -0.7821
33552SOL     OW 5111   1.821   8.436   3.918  0.2690  0.3083 -0.7214
33552SOL    HW1 5112   1.888   8.470   3.977  0.2818  0.7571 -0.9955
33552SOL    HW2 5113   1.830   8.341   3.925 -0.2399  0.3381  0.5742
33553SOL     OW 5114   5.794   3.515   8.664  0.1291  0.3002  0.4252
33553SOL    HW1 5115   5.880   3.502   8.624  0.9554  1.3376  1.7913
33553SOL    HW2 5116   5.792   3.454   8.737 -1.1296 -1.1417 -0.7387
33554SOL     OW 5117   6.646   3.531   9.275  0.0799  0.3342  0.3348
33554SOL    HW1 5118   6.605   3.459   9.324 -1.6825  1.9630  1.4096
33554SOL    HW2 5119   6.630   3.609   9.329 -0.2646  1.9468 -1.9510
33555SOL     OW 5120  10.107   4.673   6.546 -0.1255 -0.1921 -0.3023
33555SOL    HW1 5121  10.145   4.604   6.600  0.4474  0.3433  0.0020
33555SOL    HW2 5122  10.073   4.736   6.610  1.3051  0.8599 -0.5223
33556SOL     OW 5123   7.645   9.471   8.201  0.8733  0.5433 -0.1110
33556SOL    HW1 5124   7.717   9.493   8.143  1.1394  0.5273  0.2059
33556SOL    HW2 5125   7.688   9.442   8.282  0.5773 -1.5715 -0.6453
33557SOL     OW 5126   9.949   7.737  10.781 -0.0722  0.5817 -0.3343
33557SOL    HW1 5127   9.967   7.707  10.692 -0.2062  0.0454 -0.1802
33557SOL    HW2 5128  10.005   7.684  10.836 -1.6007 -0.6622  0.0980
33558SOL     OW 5129   1.069   6.992   7.832  0.0230  0.2423  0.3060
33558SOL    HW1 5130   1.136   6.966   7.769  1.7652  0.0208  2.1768
33558SOL    HW2 5131   1.050   6.911   7.880 -1.7504  0.2634 -0.2780
33559SOL     OW 5132   3.178   1.121   0.996 -0.9556 -0.1224 -0.1894
33559SOL    HW1 5133   3.239   1.175   1.045 -0.5310 -0.1974 -0.6359
33559SOL    HW2 5134   3.208   1.125   0.906 -3.4917  2.5510 -1.0774
33560SOL     OW 5135   3.564  11.045   7.065  1.1854  0.4181 -0.2699
33560SOL    HW1 5136   3.636  11.086   7.019  0.5523  1.7971 -0.0879
33560SOL    HW2 5137   3.485  11.079   7.023  0.6244 -0.0265  0.3849
33561SOL     OW 5138  10.841   5.084   3.163 -0.1027 -0.4046 -0.0448
33561SOL    HW1 5139  10.797   5.083   3.078 -0.6741  1.9247  0.1399
33561SOL    HW2 5140  10.921   5.134   3.148 -0.2980  0.1895  0.7796
33562SOL     OW 5141   8.467   6.413   0.135 -0.9304  0.0317  0.6223
33562SOL    HW1 5142   8.434   6.323   0.140 -0.2109 -0.2713  0.0988
33562SOL    HW2 5143   8.389   6.468   0.144 -1.4835 -0.6562  0.1377
33563SOL     OW 5144   2.077   7.297   0.779 -0.2110  0.3127  0.1956
33563SOL    HW1 5145   2.041   7.250   0.854 -1.3143  1.2025  0.2402
33563SOL    HW2 5146   2.009   7.360   0.755 -0.3640 -0.7039 -2.2664
33564SOL     OW 5147   7.792   9.025   5.089  0.0789  0.8214  0.5637
33564SOL    HW1 5148   7.829   9.034   5.177 -0.0304 -0.0971  0.7147
33564SOL    HW2 5149   7.697   9.032   5.102  0.1134  1.8806  0.3483
33565SOL     OW 5150   7.814   6.158   2.377  0.2059 -0.0753  0.0044
33565SOL    HW1 5151   7.820   6.225   2.446  1.3143  0.1052 -0.2396
33565SOL    HW2 5152   7.737   6.182   2.327  0.7683  1.2342 -0.2729
33566SOL     OW 5153   7.798   5.032   6.082  0.1996 -0.6701  0.6580
33566SOL    HW1 5154   7.720   5.080   6.107  0.0784 -0.7263  0.3884
33566SOL    HW2 5155   7.768   4.968   6.018  0.3870 -0.9965  0.8930
33567SOL     OW 5156   6.601   2.076   8.959 -0.3915  0.0329  0.2019
33567SOL    HW1 5157   6.557   2.133   9.023 -1.4615  1.1135 -1.4271
33567SOL    HW2 5158   6.530   2.046   8.902  0.6441 -0.2849 -0.9467
33568SOL     OW 5159   6.185   4.682   2.274 -0.9149 -0.9086 -0.2707
33568SOL    HW1 5160   6.120   4.746   2.304  0.3675  0.2305  0.1729
33568SOL    HW2 5161   6.170   4.605   2.329 -2.7643 -1.1883 -1.0985
33569SOL     OW 5162   9.945  10.086   4.687  0.3714 -0.5315  0.2713
33569SOL    HW1 5163   9.946  10.001   4.643  0.4575 -0.6664  0.5346
33569SOL    HW2 5164   9.883  10.139   4.635 -1.6716 -1.5276  1.5555
33570SOL     OW 5165   6.995   4.576   9.216 -0.1642  0.0737  0.7971
33570SOL    HW1 5166   7.012   4.503   9.157 -0.6592  0.3242  0.3293
33570SOL    HW2 5167   7.042   4.650   9.178 -1.7746  0.6391 -0.2159
33571SOL     OW 5168   8.992   1.635   1.904 -0.8247  0.3391  0.1518
33571SOL    HW1 5169   8.945   1.644   1.821 -2.2403 -1.3818  0.6963
33571SOL    HW2 5170   9.083   1.653   1.882 -1.0307 -0.8972 -1.9925
33572SOL     OW 5171   8.325   8.017   5.564 -0.2976 -0.1906  0.5592
33572SOL    HW1 5172   8.361   7.930   5.584 -0.5748 -0.4998 -0.2426
33572SOL    HW2 5173   8.401   8.074   5.557 -0.1867  0.0470  2.8559
33573SOL     OW 5174   5.234   7.628   9.178  0.0148 -0.0022 -0.0618
33573SOL    HW1 5175   5.227   7.543   9.222 -1.0841 -0.2767 -0.7236
33573SOL    HW2 5176   5.182   7.687   9.233  3.5654  1.1748  2.3981
33574SOL     OW 5177   8.316   3.355   3.344 -0.5273 -0.4644  0.2406
33574SOL    HW1 5178   8.357   3.311   3.270  1.2596  2.3736 -0.6082
33574SOL    HW2 5179   8.349   3.307   3.421  0.9008 -0.9495 -0.6312
33575SOL     OW 5180   0.553   9.936   7.422  0.3942 -0.1267  0.4732
33575SOL    HW1 5181   0.507  10.017   7.440  1.7028  0.1744  2.8509
33575SOL    HW2 5182   0.492   9.885   7.369 -0.4768  2.3280 -1.0690
33576SOL     OW 5183   8.652   2.851   5.983  0.2063  0.1645  0.0230
33576SOL    HW1 5184   8.692   2.766   6.002 -0.7008 -0.4027 -0.5095
33576SOL    HW2 5185   8.678   2.870   5.893  0.7731  0.6694  0.2909
33577SOL     OW 5186   6.591   1.281   5.652 -0.1118  0.7303 -0.7087
33577SOL    HW1 5187   6.539   1.362   5.658  1.7780  1.9924 -0.4533
33577SOL    HW2 5188   6.619   1.264   5.742  1.4114  1.1503 -1.0692
33578SOL     OW 5189   8.565   0.312  10.457  0.0957 -0.2466  0.2520
33578SOL    HW1 5190   8.591   0.327  10.548  0.9704  0.2556 -0.0728
33578SOL    HW2 5191   8.485   0.259  10.463  0.2281 -0.3371  1.3063
33579SOL     OW 5192   7.081   1.982   6.393 -0.0258  0.1693  0.3245
33579SOL    HW1 5193   7.049   1.933   6.469  1.3657 -0.2430  0.6738
33579SOL    HW2 5194   7.104   1.915   6.329 -1.3687  0.5253 -0.5527
33580SOL     OW 5195  10.896   3.068   2.667  0.2021  0.2934  0.2481
33580SOL    HW1 5196  10.908   2.991   2.722  2.7529  1.2230  1.1123
33580SOL    HW2 5197  10.923   3.142   2.721 -0.0045  1.5588 -1.2897
33581SOL     OW 5198   2.092   1.455   7.663  0.4135  0.6898  0.1032
33581SOL    HW1 5199   2.076   1.524   7.728  1.4015  0.8695  0.1632
33581SOL    HW2 5200   2.005   1.437   7.626 -0.4288 -0.3287  2.3582
33582SOL     OW 5201  10.094   7.234  10.621 -0.1406  0.3916  0.1729
33582SOL    HW1 5202  10.042   7.166  10.578  0.6857 -0.2650  0.1913
33582SOL    HW2 5203  10.179   7.231  10.577  0.1347  0.9305  0.6527
33583SOL     OW 5204   9.140   8.126   1.754 -0.1078  0.2032  0.5197
33583SOL    HW1 5205   9.067   8.187   1.745 -0.5921 -0.2003  1.4692
33583SOL    HW2 5206   9.100   8.039   1.744  0.5523  0.0180 -0.7186
33584SOL     OW 5207   2.931   8.064   3.429 -0.3102 -0.0764 -0.0348
33584SOL    HW1 5208   2.952   8.056   3.336  0.2720  0.1443  0.0779
33584SOL    HW2 5209   2.836   8.052   3.433 -0.0382 -3.1848 -0.3165
33585SOL     OW 5210   6.504   7.612   8.746  0.4930 -0.2973  0.2107
33585SOL    HW1 5211   6.598   7.628   8.732  0.2937  0.5441 -0.2432
33585SOL    HW2 5212   6.470   7.696   8.777 -0.2332 -0.3896 -0.3131
33586SOL     OW 5213   8.973   5.656   2.465 -0.2285  0.3423 -0.1178
33586SOL    HW1 5214   8.892   5.703   2.446  0.4217  1.2719 -0.7010
33586SOL    HW2 5215   9.004   5.693   2.547 -0.4661 -0.1237  0.1863
33587SOL     OW 5216   5.957   0.453   4.187  0.1763  0.4960  0.8529
33587SOL    HW1 5217   5.892   0.518   4.216 -0.5319  0.4758 -0.5805
33587SOL    HW2 5218   5.940   0.376   4.241 -0.8713  0.5676  0.6555
33588SOL     OW 5219   4.937   6.807   9.037 -0.3259 -0.4613  0.0415
33588SOL    HW1 5220   5.025   6.843   9.043  0.2819 -1.6643 -1.2776
33588SOL    HW2 5221   4.897   6.853   8.963  0.2859 -2.0692 -1.3372
33589SOL     OW 5222  10.982   9.329  10.243  0.2154  0.5540  0.3446
33589SOL    HW1 5223  10.993   9.280  10.325  0.2311  1.1275  0.6887
33589SOL    HW2 5224  10.964   9.261  10.177 -1.9086  0.2117  1.1789
33590SOL     OW 5225   8.809   7.617   2.606  0.2444 -0.5637  0.9298
33590SOL    HW1 5226   8.861   7.691   2.638 -0.9739  0.7783 -0.0616
33590SOL    HW2 5227   8.857   7.587   2.528  0.0446  0.0390  0.5742
33591SOL     OW 5228   2.145   1.094  10.377  0.5359  0.1701  0.3844
33591SOL    HW1 5229   2.208   1.165  10.370  0.1068  0.4250 -1.4314
33591SOL    HW2 5230   2.119   1.076  10.287 -1.1168 -0.7118  0.9944
33592SOL     OW 5231   0.441   3.252  10.554  0.6718 -0.3882  0.1489
33592SOL    HW1 5232   0.452   3.345  10.535  0.3312 -0.0608  1.5105
33592SOL    HW2 5233   0.505   3.209  10.497 -0.0917  0.5561 -1.5167
33593SOL     OW 5234  10.109   5.179   7.356  0.4101  0.6610  0.6920
33593SOL    HW1 5235  10.139   5.100   7.400  1.6636  0.9978  0.4820
33593SOL    HW2 5236  10.178   5.243   7.372  0.5051  1.0433 -1.0247
33594SOL     OW 5237   8.386   1.166   1.902  0.2149 -0.0658  0.1200
33594SOL    HW1 5238   8.410   1.180   1.994 -0.4459  0.6094  0.1976
33594SOL    HW2 5239   8.312   1.105   1.906 -0.8545  1.2004  0.1449
33595SOL     OW 5240   9.375   0.181   3.269 -0.4557  0.1232 -0.0780
33595SOL    HW1 5241   9.408   0.268   3.245 -0.9471  1.0554  2.3048
33595SOL    HW2 5242   9.316   0.157   3.198 -0.4242  1.8029 -0.7211
33596SOL     OW 5243   0.398   3.482   7.104 -0.0448  0.1983  0.0942
33596SOL    HW1 5244   0.458   3.553   7.081 -1.8302  1.9085  0.4434
33596SOL    HW2 5245   0.403   3.476   7.199  0.2192 -0.2861  0.0546
33597SOL     OW 5246   9.466   7.727   0.281 -0.0488  0.1948 -0.2105
33597SOL    HW1 5247   9.516   7.807   0.296 -0.0165 -0.0687  1.3259
33597SOL    HW2 5248   9.440   7.699   0.369  0.5133 -1.8445 -0.6512
33598SOL     OW 5249   2.434   2.148   6.910  0.1636 -0.0453  0.6446
33598SOL    HW1 5250   2.339   2.152   6.903  0.2004  1.0706  0.6683
33598SOL    HW2 5251   2.452   2.145   7.004  0.1500 -0.4323  0.6362
33599SOL     OW 5252   2.463   8.247   1.041  0.1599 -0.1758  0.0431
33599SOL    HW1 5253   2.423   8.260   0.955 -0.5625  0.0296  0.4077
33599SOL    HW2 5254   2.532   8.182   1.025 -1.1518 -1.5212 -0.3671
33600SOL     OW 5255   5.367   8.698   1.196  0.5238 -0.4017  0.0571
33600SOL    HW1 5256   5.401   8.652   1.272  1.6767  0.1823 -0.0843
33600SOL    HW2 5257   5.299   8.640   1.161  0.9640 -1.3187  0.7021
33601SOL     OW 5258   9.905   7.278   0.451  0.4277 -0.4444 -0.2194
33601SOL    HW1 5259   9.846   7.298   0.378  1.3192  0.4269 -0.7364
33601SOL    HW2 5260   9.990   7.264   0.409  0.8477 -0.4151  0.6140
33602SOL     OW 5261   7.897   2.815   2.378  0.0864  0.5334  0.1967
33602SOL    HW1 5262   7.958   2.875   2.421  0.4846  0.6528 -0.5252
33602SOL    HW2 5263   7.889   2.741   2.438  0.3261  0.8735  0.6545
33603SOL     OW 5264   9.975   8.889   3.066  0.3089  0.0972 -0.0148
33603SOL    HW1 5265  10.008   8.801   3.044 -0.7185 -0.6655  1.3048
33603SOL    HW2 5266   9.883   8.887   3.040  0.1670  0.6247  0.4411
33604SOL     OW 5267   5.462   2.682   9.072  0.0049  0.2778 -0.1416
33604SOL    HW1 5268   5.415   2.609   9.111 -0.4576  0.3389 -0.5876
33604SOL    HW2 5269   5.504   2.646   8.994  2.2438 -0.2425  1.2083
33605SOL     OW 5270   5.737   1.263   1.340  0.0484  0.0896  0.0601
33605SOL    HW1 5271   5.822   1.307   1.348 -0.2337  0.6423  0.0122
33605SOL    HW2 5272   5.696   1.302   1.263 -0.6544  0.5161  0.6345
33606SOL     OW 5273   7.171   6.705   2.367  0.3186  0.1074  0.4997
33606SOL    HW1 5274   7.149   6.795   2.341  0.3494 -0.0033  0.0740
33606SOL    HW2 5275   7.266   6.699   2.355  0.1292 -0.4503 -1.0344
33607SOL     OW 5276   1.856  10.752   7.600  0.1681  0.1353  0.5201
33607SOL    HW1 5277   1.777  10.794   7.566  0.2202 -0.7974 -0.8272
33607SOL    HW2 5278   1.847  10.660   7.577  0.8061 -0.3322  2.0084
33608SOL     OW 5279   8.787  10.733   3.743  0.3537 -0.0541 -0.8381
33608SOL    HW1 5280   8.877  10.707   3.720  1.1393  1.3652  0.4499
33608SOL    HW2 5281   8.762  10.792   3.672  1.5002  1.6568  0.0998
33609SOL     OW 5282   6.826   0.777   6.646 -0.0500 -0.0917 -0.0185
33609SOL    HW1 5283   6.895   0.728   6.599 -0.3167  1.2797 -1.9499
33609SOL    HW2 5284   6.749   0.767   6.591 -1.1812 -0.7664  1.6201
33610SOL     OW 5285   1.316   6.889   0.479 -0.1812  0.5241 -0.2149
33610SOL    HW1 5286   1.264   6.962   0.446 -0.8057  0.2798  0.2090
33610SOL    HW2 5287   1.257   6.814   0.474  0.1575  0.2295  0.1914
33611SOL     OW 5288   1.977   8.306  10.368 -0.2924 -0.0081  0.2052
33611SOL    HW1 5289   1.885   8.296  10.394 -0.1266 -0.4173  0.6432
33611SOL    HW2 5290   1.973   8.337  10.277 -0.8584 -1.1876 -0.1847
33612SOL     OW 5291   9.276   3.924   7.654  0.5583 -0.1308  0.3574
33612SOL    HW1 5292   9.344   3.867   7.617  0.7256 -0.6046  1.3654
33612SOL    HW2 5293   9.259   3.888   7.741 -0.5112  0.3881  0.3810
33613SOL     OW 5294   7.989   0.106   6.165 -0.0548 -0.8434  0.4519
33613SOL    HW1 5295   7.975   0.140   6.076  0.8047 -1.5596  0.0300
33613SOL    HW2 5296   7.900   0.095   6.200 -0.4723 -1.8691 -0.8359
33614SOL     OW 5297   2.740   9.052   0.005  0.2817 -0.3804  0.1558
33614SOL    HW1 5298   2.722   9.049  -0.089  0.9411  0.8999 -0.0400
33614SOL    HW2 5299   2.688   8.981   0.042 -0.8169 -0.2400 -1.0492
33615SOL     OW 5300   7.456   5.637  10.351 -0.2850 -0.0512  0.1282
33615SOL    HW1 5301   7.466   5.543  10.337  0.2831 -0.0205  0.2940
33615SOL    HW2 5302   7.513   5.678  10.287 -0.6998  0.1921 -0.0927
33616SOL     OW 5303   8.005   2.952   9.084 -0.4276 -0.1399  0.2957
33616SOL    HW1 5304   8.072   2.906   9.134 -0.4635 -1.0669 -0.4912
33616SOL    HW2 5305   8.053   3.002   9.018 -0.5019 -0.9190 -0.3623
33617SOL     OW 5306   9.732   8.428   3.359  0.7876  0.5628 -0.7887
33617SOL    HW1 5307   9.755   8.487   3.287  0.1566  0.3289 -1.1914
33617SOL    HW2 5308   9.726   8.341   3.318 -1.0828  0.6421 -0.7946
33618SOL     OW 5309  10.036  10.980  10.508  0.2965  0.5021  0.6449
33618SOL    HW1 5310  10.104  11.042  10.532  0.0710  0.5334  1.2188
33618SOL    HW2 5311  10.012  10.937  10.590  0.7794 -0.6849  0.1884
33619SOL     OW 5312   5.718   1.824   7.983  0.2003  0.2271 -0.4361
33619SOL    HW1 5313   5.650   1.839   8.048  2.0067 -1.8488  2.1620
33619SOL    HW2 5314   5.781   1.895   7.997 -0.2125  0.7584 -1.1729
33620SOL     OW 5315   2.859   3.133   5.198 -0.1658 -0.2314 -0.5488
33620SOL    HW1 5316   2.944   3.139   5.243 -0.6798 -0.7209  0.5285
33620SOL    HW2 5317   2.872   3.180   5.116  1.0209  0.0829 -0.2032
33621SOL     OW 5318   5.083   2.969  10.739 -0.1439  0.3283 -0.1221
33621SOL    HW1 5319   5.086   2.910  10.664 -0.8453 -0.0966  0.1681
33621SOL    HW2 5320   5.034   2.920  10.806  0.5731  0.6517  0.6537
33622SOL     OW 5321   3.671  10.901   1.716  0.0447  0.5763 -0.4510
33622SOL    HW1 5322   3.582  10.892   1.682  0.3954 -0.1572 -1.2236
33622SOL    HW2 5323   3.690  10.816   1.756 -0.1662  1.2478  1.1754
33623SOL     OW 5324  10.540   1.114   5.977  0.2142  0.2200  0.1620
33623SOL    HW1 5325  10.482   1.062   5.922  0.0773  2.1883 -1.6995
33623SOL    HW2 5326  10.484   1.147   6.047 -0.6937  1.1049 -0.9309
33624SOL     OW 5327   5.514   9.650   2.190  0.3102  0.2760 -0.3382
33624SOL    HW1 5328   5.571   9.622   2.118 -0.3695 -1.2929 -0.3173
33624SOL    HW2 5329   5.565   9.630   2.269  0.7371  1.2586 -0.3545
33625SOL     OW 5330  10.065   7.429   3.074 -0.5118  0.4981 -0.1554
33625SOL    HW1 5331  10.105   7.355   3.120  0.1797  0.7927 -0.2720
33625SOL    HW2 5332  10.122   7.444   2.998 -1.6127  0.0525 -1.0874
33626SOL     OW 5333  10.437   6.123   4.514 -0.2964  0.3546 -0.5318
33626SOL    HW1 5334  10.428   6.030   4.534  2.2765 -0.2244 -1.6441
33626SOL    HW2 5335  10.448   6.166   4.599  3.3920 -1.0973 -0.0993
33627SOL     OW 5336   1.501   7.648   3.848 -0.4517 -0.2936 -0.0386
33627SOL    HW1 5337   1.487   7.730   3.895  1.5215 -0.9720  1.9369
33627SOL    HW2 5338   1.428   7.643   3.786 -0.5074  3.0251 -0.4221
33628SOL     OW 5339  10.689   5.160   1.072 -0.3481  0.7171  0.0172
33628SOL    HW1 5340  10.729   5.247   1.080 -1.3882  1.0970  1.5851
33628SOL    HW2 5341  10.666   5.136   1.162 -3.5197  0.4980 -0.7443
33629SOL     OW 5342   9.935   1.296   1.538 -0.1944  0.1092  0.2394
33629SOL    HW1 5343   9.849   1.309   1.577 -1.5031  0.0313 -2.3895
33629SOL    HW2 5344   9.926   1.330   1.449  2.8798  1.2048  0.2306
33630SOL     OW 5345   2.332   2.203   4.897 -0.5395  0.7524  0.2180
33630SOL    HW1 5346   2.421   2.167   4.896 -0.3727  0.8680  3.2539
33630SOL    HW2 5347   2.338   2.282   4.843  0.6982 -0.2234 -1.1481
33631SOL     OW 5348   9.708   3.049  10.916  0.0537 -0.3524 -0.2175
33631SOL    HW1 5349   9.722   3.040  10.822  0.2805 -1.8001 -0.0797
33631SOL    HW2 5350   9.793   3.076  10.951  0.8762 -2.8070 -0.1181
33632SOL     OW 5351   9.061   7.319  10.910 -0.0555  0.3612 -0.1326
33632SOL    HW1 5352   8.973   7.346  10.937 -0.6791 -1.4508 -0.2449
33632SOL    HW2 5353   9.085   7.382  10.841  0.5614  3.5375  2.7142
33633SOL     OW 5354   1.971   7.016   7.539  0.2039 -0.0852  0.6423
33633SOL    HW1 5355   1.928   7.101   7.543 -0.9294 -0.6626  1.1335
33633SOL    HW2 5356   2.063   7.036   7.522  0.4676  1.3729  3.2860
33634SOL     OW 5357   6.799   2.951  10.894  0.4281 -0.1417  0.3298
33634SOL    HW1 5358   6.867   2.925  10.831  0.5189 -1.3561  0.9064
33634SOL    HW2 5359   6.844   3.008  10.956  0.7810 -0.4442  0.3557
33635SOL     OW 5360   7.466   5.623   2.236 -0.4142  0.5007  0.9288
33635SOL    HW1 5361   7.406   5.688   2.198  1.7976  1.4302 -1.2789
33635SOL    HW2 5362   7.542   5.674   2.264  1.4457 -1.0595 -0.9522
33636SOL     OW 5363   4.321   3.468  10.747  0.4944 -0.2529  0.6544
33636SOL    HW1 5364   4.347   3.382  10.780  1.9718  0.6811  2.0383
33636SOL    HW2 5365   4.225   3.465  10.747  0.4230 -2.6893 -1.6157
33637SOL     OW 5366   9.591   5.148   9.912  0.0765 -0.1330 -0.0923
33637SOL    HW1 5367   9.618   5.193   9.992  0.6373  0.0057 -0.3560
33637SOL    HW2 5368   9.535   5.077   9.943 -0.7185  0.6588  0.3345
33638SOL     OW 5369   9.426   7.825   1.858  0.4428 -0.2602  0.1157
33638SOL    HW1 5370   9.350   7.769   1.840 -0.0433  0.8093 -1.4236
33638SOL    HW2 5371   9.429   7.884   1.783  1.3507  1.3079  1.3406
33639SOL     OW 5372   7.616   2.630   5.623  0.2838 -0.6759 -0.8409
33639SOL    HW1 5373   7.537   2.576   5.621  1.3042 -2.5190  1.6952
33639SOL    HW2 5374   7.596   2.700   5.684  0.2479 -0.4955 -1.0598
33640SOL     OW 5375   9.498   9.348  11.059 -0.5817 -0.2332 -0.1946
33640SOL    HW1 5376   9.543   9.275  11.102  0.4606  0.3424 -0.2782
33640SOL    HW2 5377   9.542   9.356  10.974 -0.2682  0.8723  0.0573
33641SOL     OW 5378   1.541   6.076   4.737  0.3823  0.2504 -0.5492
33641SOL    HW1 5379   1.491   6.032   4.807 -0.3327  1.9827  0.1022
33641SOL    HW2 5380   1.621   6.106   4.780  1.0073 -0.6358 -1.0634
33642SOL     OW 5381   4.878   5.652   6.884 -0.2682 -0.5441  0.0601
33642SOL    HW1 5382   4.907   5.579   6.829 -0.9051 -2.2864  1.9054
33642SOL    HW2 5383   4.947   5.660   6.950 -1.4162 -1.2836  1.4165
33643SOL     OW 5384   9.155  10.344   4.681  0.4573  0.2312  0.7139
33643SOL    HW1 5385   9.095  10.418   4.674 -0.8684 -0.8377  0.3268
33643SOL    HW2 5386   9.160  10.309   4.592 -0.4585 -1.2839  1.2224
33644SOL     OW 5387   1.730   5.071   5.814 -0.0936  0.1606  0.1835
33644SOL    HW1 5388   1.685   5.128   5.751  1.8984  1.4318 -0.1645
33644SOL    HW2 5389   1.695   4.984   5.796 -0.6271  0.7156 -1.7130
33645SOL     OW 5390   7.140   2.252   0.904  0.8128  0.5152  0.5353
33645SOL    HW1 5391   7.212   2.246   0.967  2.1684 -0.0328 -0.9658
33645SOL    HW2 5392   7.094   2.169   0.912 -0.3998  1.3219  2.3077
33646SOL     OW 5393   4.238   5.183   5.275 -0.5928  0.0322  0.3512
33646SOL    HW1 5394   4.168   5.123   5.250 -1.1937  0.4662  0.9877
33646SOL    HW2 5395   4.212   5.218   5.360  0.0566  0.7242  0.2779
33647SOL     OW 5396   9.412   9.447   0.746 -0.2258  0.1380  0.2214
33647SOL    HW1 5397   9.468   9.413   0.676  0.1155  0.6437  0.2439
33647SOL    HW2 5398   9.435   9.395   0.823 -1.3389 -1.1338 -0.2629
33648SOL     OW 5399   6.955   9.258  10.868 -0.4202 -0.0621 -0.0059
33648SOL    HW1 5400   6.933   9.303  10.950  1.2185  1.3734 -0.2978
33648SOL    HW2 5401   6.872   9.219  10.839 -1.2443  0.2227  1.8111
33649SOL     OW 5402  10.221   3.563   6.248 -0.2854 -0.3118 -0.1157
33649SOL    HW1 5403  10.271   3.504   6.304 -1.4326 -1.6623 -0.4847
33649SOL    HW2 5404  10.212   3.643   6.300  0.4767 -0.7867  0.7680
33650SOL     OW 5405   1.455   5.868   1.860 -0.1402  0.5676  0.1153
33650SOL    HW1 5406   1.516   5.813   1.909  1.2192  1.0242 -1.0148
33650SOL    HW2 5407   1.475   5.851   1.768 -2.1139  0.3104 -0.3154
33651SOL     OW 5408   3.271   3.248   5.930  0.0844  0.0991 -0.5915
33651SOL    HW1 5409   3.311   3.162   5.921  1.1009  0.6825 -1.9079
33651SOL    HW2 5410   3.326   3.294   5.992 -0.1865 -0.0281 -0.2518
33652SOL     OW 5411  10.295  10.420   9.915  0.7415 -0.2538  0.1066
33652SOL    HW1 5412  10.375  10.461   9.882  0.4288 -0.4890 -0.9831
33652SOL    HW2 5413  10.244  10.399   9.836 -0.8790  0.8477  0.8032
33653SOL     OW 5414  10.439   1.789   5.253  0.4680 -0.5030 -1.2497
33653SOL    HW1 5415  10.504   1.731   5.293  0.8297  0.4968 -0.3468
33653SOL    HW2 5416  10.472   1.805   5.164  0.7950 -0.9958 -1.2205
33654SOL     OW 5417   1.022   9.566   5.334 -0.2369 -0.2175  0.2597
33654SOL    HW1 5418   1.014   9.600   5.245 -1.5393  1.5368  0.9728
33654SOL    HW2 5419   0.989   9.477   5.329  0.3401 -0.3675 -1.1364
33655SOL     OW 5420  10.353   1.083   8.519  0.7228  0.4319 -0.0335
33655SOL    HW1 5421  10.383   1.164   8.559  2.3637 -0.5603  0.8456
33655SOL    HW2 5422  10.307   1.037   8.590 -0.5551  0.7274 -0.6322
33656SOL     OW 5423   8.525   5.753   2.639 -0.2021  0.2309 -0.0975
33656SOL    HW1 5424   8.436   5.752   2.674 -0.2305  0.3398 -0.1645
33656SOL    HW2 5425   8.577   5.705   2.704 -0.0016  1.5760  0.7747
33657SOL     OW 5426   3.958   2.393   8.583 -0.9775  0.0755 -0.7257
33657SOL    HW1 5427   3.883   2.335   8.570 -2.3441  1.8171 -1.0217
33657SOL    HW2 5428   4.017   2.373   8.510  0.0437 -2.9187  0.7207
33658SOL     OW 5429   3.489   3.603   0.598 -0.9108  0.3148 -0.3824
33658SOL    HW1 5430   3.501   3.545   0.522  0.7302  1.5395 -1.1283
33658SOL    HW2 5431   3.470   3.689   0.559  0.9668  1.1872  0.5115
33659SOL     OW 5432  10.622   0.263   3.382 -0.5447  0.4748 -0.2597
33659SOL    HW1 5433  10.693   0.293   3.438  0.1284 -0.0776 -0.7979
33659SOL    HW2 5434  10.663   0.198   3.324 -1.6486 -0.4573 -0.0331
33660SOL     OW 5435   9.069   2.514   4.233  0.1740  0.1622  0.3538
33660SOL    HW1 5436   8.989   2.555   4.268 -2.0827 -3.3658 -0.1623
33660SOL    HW2 5437   9.107   2.581   4.176 -2.4569  2.0359  0.6132
33661SOL     OW 5438   2.145   5.526   1.832  0.3065  0.1574 -0.7351
33661SOL    HW1 5439   2.092   5.536   1.753  1.1534  1.8800 -1.1319
33661SOL    HW2 5440   2.091   5.562   1.902  0.5190  0.8858 -0.9466
33662SOL     OW 5441   9.380   1.443   6.716 -0.2337  0.0838 -0.1530
33662SOL    HW1 5442   9.293   1.471   6.742 -0.2182  0.3493 -0.3763
33662SOL    HW2 5443   9.439   1.509   6.752 -0.0409 -0.5640  0.7489
33663SOL     OW 5444   4.373   3.490   2.340  0.0366 -0.0735 -0.2680
33663SOL    HW1 5445   4.396   3.552   2.271  0.5504  1.1001  0.9324
33663SOL    HW2 5446   4.277   3.485   2.336 -0.1077  1.6751  0.3396
33664SOL     OW 5447   4.546   0.161   0.447 -0.3363 -0.6375 -0.2251
33664SOL    HW1 5448   4.534   0.221   0.521  1.3159  0.2039 -0.5868
33664SOL    HW2 5449   4.475   0.183   0.387 -0.3248  0.3151  0.0831
33665SOL     OW 5450   4.932   3.839   2.170  0.1012 -0.0147  0.1553
33665SOL    HW1 5451   4.919   3.863   2.262  0.7050  0.7708  0.0413
33665SOL    HW2 5452   5.000   3.772   2.173  1.8604  1.6885  0.1292
33666SOL     OW 5453   2.737   0.595   6.616  0.2873 -0.0642  0.0758
33666SOL    HW1 5454   2.664   0.634   6.568 -0.9517 -2.7953 -0.4641
33666SOL    HW2 5455   2.695   0.539   6.681  1.8662 -1.8830 -0.3800
33667SOL     OW 5456   2.433   7.178   1.258  0.0887 -0.0732  0.3767
33667SOL    HW1 5457   2.413   7.084   1.252  1.6309 -0.3609 -0.8777
33667SOL    HW2 5458   2.372   7.211   1.324 -1.9196 -1.5518 -0.6097
33668SOL     OW 5459   3.771   8.426  10.710  0.7827 -0.0546 -0.4132
33668SOL    HW1 5460   3.750   8.431  10.616  1.5659 -1.7923 -0.7175
33668SOL    HW2 5461   3.829   8.501  10.725 -1.1395  1.5950 -0.7626
33669SOL     OW 5462   9.444   9.506   1.835  0.3351 -0.1998 -0.6941
33669SOL    HW1 5463   9.414   9.553   1.757 -0.1152 -1.6808 -1.4481
33669SOL    HW2 5464   9.395   9.424   1.833  0.3884 -0.3020  1.1083
33670SOL     OW 5465   0.266   9.084  10.461 -0.6956 -0.3843 -0.6466
33670SOL    HW1 5466   0.233   9.014  10.405 -2.8690 -0.0275  0.0882
33670SOL    HW2 5467   0.191   9.108  10.516  0.7532  0.6931  0.9696
33671SOL     OW 5468   4.145   1.126   5.879 -0.7293 -0.0414  0.1785
33671SOL    HW1 5469   4.068   1.183   5.871  0.0328  0.8979 -0.8752
33671SOL    HW2 5470   4.219   1.187   5.879 -0.0173 -0.7548  3.3462
33672SOL     OW 5471   7.428   0.136   8.802 -0.9169 -0.0965  0.6031
33672SOL    HW1 5472   7.511   0.088   8.798 -0.3691  0.6231  2.4906
33672SOL    HW2 5473   7.451   0.227   8.785 -1.7008 -0.1841 -1.1800
33673SOL     OW 5474   2.788   7.797   5.464  0.1952 -0.1167  0.3740
33673SOL    HW1 5475   2.804   7.878   5.416  1.0655 -0.5123 -0.0297
33673SOL    HW2 5476   2.710   7.815   5.516 -1.4363  0.0181 -1.9554
33674SOL     OW 5477   4.781   3.128   7.239  0.0464  0.6489  0.0898
33674SOL    HW1 5478   4.746   3.113   7.327 -0.8128  0.1196 -0.3204
33674SOL    HW2 5479   4.818   3.216   7.242  0.9601  0.2561  1.2629
33675SOL     OW 5480   0.628   8.357   1.907  0.0934  0.1321  0.8239
33675SOL    HW1 5481   0.602   8.440   1.948 -1.2056  0.0638  0.1625
33675SOL    HW2 5482   0.569   8.347   1.832  1.4579 -0.4865 -0.2042
33676SOL     OW 5483   3.582   8.091   1.961 -0.3321  0.0084 -0.7207
33676SOL    HW1 5484   3.618   8.134   1.883 -0.0895  0.5898 -0.2977
33676SOL    HW2 5485   3.503   8.048   1.931 -0.3349  0.3782 -1.2572
33677SOL     OW 5486   0.982   6.610   5.894  0.1318  0.4703 -0.6180
33677SOL    HW1 5487   0.971   6.671   5.967 -0.8205 -0.3752 -0.0129
33677SOL    HW2 5488   0.893   6.576   5.877  0.8029 -1.9428  0.1884
33678SOL     OW 5489   6.859   5.636   9.912 -0.0429 -0.1407 -0.8673
33678SOL    HW1 5490   6.766   5.643   9.889 -0.2180 -0.8306 -0.3820
33678SOL    HW2 5491   6.870   5.693   9.988 -0.4166 -1.2533  0.0451
33679SOL     OW 5492   9.451   8.128   2.351  0.3330  0.2266 -0.3642
33679SOL    HW1 5493   9.439   8.087   2.437 -0.7691 -1.9098 -1.4560
33679SOL    HW2 5494   9.490   8.060   2.298  1.8166  1.8040 -1.3721
33680SOL     OW 5495   8.325   0.857   4.535  0.1766  0.3640 -0.8196
33680SOL    HW1 5496   8.324   0.951   4.523  1.6818  0.3936 -0.8958
33680SOL    HW2 5497   8.297   0.821   4.451  0.8567  0.7317 -1.2116
33681SOL     OW 5498   9.593   6.318   5.866 -0.1475 -0.2138  0.1889
33681SOL    HW1 5499   9.524   6.299   5.929 -0.2338  0.8146  0.4202
33681SOL    HW2 5500   9.556   6.386   5.809 -0.4387 -1.7747 -1.6074
33682SOL     OW 5501   6.423   5.969   3.776 -0.2799 -0.0950 -0.0408
33682SOL    HW1 5502   6.435   5.883   3.734 -1.1052  0.5757 -1.7523
33682SOL    HW2 5503   6.492   5.973   3.843 -1.3997 -2.8748  1.4589
33683SOL     OW 5504   3.724   6.763   4.832  0.0224  0.5567  0.1852
33683SOL    HW1 5505   3.752   6.854   4.825  1.5346  0.3029  2.1752
33683SOL    HW2 5506   3.658   6.762   4.901  0.1501  0.1122  0.3055
33684SOL     OW 5507   5.670   1.768   0.994  0.2744  0.6156  0.2930
33684SOL    HW1 5508   5.763   1.743   0.990  0.8629  2.6400  0.1834
33684SOL    HW2 5509   5.639   1.734   1.078  0.8299 -0.9147 -0.0867
33685SOL     OW 5510   5.078   8.026   1.979  0.4819 -0.3296 -0.3841
33685SOL    HW1 5511   4.994   8.055   2.016  0.6077  1.1321 -1.1924
33685SOL    HW2 5512   5.124   8.107   1.956  1.2716 -1.1455 -1.8210
33686SOL     OW 5513   0.205   4.683   3.510  0.6078  0.4914  0.8870
33686SOL    HW1 5514   0.132   4.736   3.478  1.1829  0.2800 -0.8990
33686SOL    HW2 5515   0.243   4.645   3.431  0.8946 -1.7122  2.0117
33687SOL     OW 5516   5.846   0.260   6.163 -0.1739 -0.0220 -0.0692
33687SOL    HW1 5517   5.871   0.229   6.076  1.2377  0.4507  0.1507
33687SOL    HW2 5518   5.772   0.204   6.188  0.9451 -1.7858 -0.5567
33688SOL     OW 5519   6.926   1.446   2.307 -0.6997 -0.1730  0.2408
33688SOL    HW1 5520   6.880   1.524   2.278 -0.8028 -0.0253  0.7889
33688SOL    HW2 5521   6.905   1.438   2.400  1.6806  0.8374  0.9543
33689SOL     OW 5522   4.796   5.524   9.668  0.0671 -0.4058  0.3680
33689SOL    HW1 5523   4.701   5.539   9.660  0.0551 -0.9942 -0.8527
33689SOL    HW2 5524   4.834   5.575   9.597  0.4568 -1.9313 -0.5640
33690SOL     OW 5525   7.883   3.665   7.390 -0.1713 -0.3836  0.4956
33690SOL    HW1 5526   7.875   3.571   7.371 -2.5096  0.2065 -2.0452
33690SOL    HW2 5527   7.944   3.697   7.324 -0.4133  0.0996  0.5062
33691SOL     OW 5528   6.614   8.449   3.835 -0.0766  0.0466  0.1430
33691SOL    HW1 5529   6.671   8.403   3.774  1.2382 -0.3069  1.5826
33691SOL    HW2 5530   6.530   8.404   3.828  0.0723 -0.0544 -1.2974
33692SOL     OW 5531   1.287   4.093   1.785 -0.0809  0.0949 -0.1888
33692SOL    HW1 5532   1.202   4.124   1.754  0.3839  1.5515 -0.0724
33692SOL    HW2 5533   1.267   4.032   1.856 -1.0389 -0.0922 -0.6156
33693SOL     OW 5534   7.810   4.290   8.928 -0.2221  0.7415  0.3113
33693SOL    HW1 5535   7.820   4.331   8.842  1.0703 -0.7322 -0.2988
33693SOL    HW2 5536   7.730   4.238   8.922 -0.6657  1.4147  0.3432
33694SOL     OW 5537   4.581  10.010   7.267  0.7838 -0.0087 -0.3368
33694SOL    HW1 5538   4.582  10.098   7.230 -0.1607 -0.7026 -2.1406
33694SOL    HW2 5539   4.489   9.983   7.261  0.4453 -0.0138  3.0664
33695SOL     OW 5540   2.535  10.245   0.926 -0.0126  0.8119 -0.6459
33695SOL    HW1 5541   2.561  10.210   0.840  1.5417  0.0175  0.1019
33695SOL    HW2 5542   2.458  10.194   0.951 -0.5306  1.1087 -1.5866
33696SOL     OW 5543   6.727   1.642  10.284 -0.2051 -0.2518  0.2194
33696SOL    HW1 5544   6.810   1.690  10.277  0.3720 -1.3880 -0.9561
33696SOL    HW2 5545   6.718   1.625  10.378  1.4427 -1.0366  0.2629
33697SOL     OW 5546   9.253   6.205   9.639  0.0895  0.4057  0.3296
33697SOL    HW1 5547   9.338   6.212   9.596 -0.6610  0.7190 -1.1718
33697SOL    HW2 5548   9.239   6.111   9.651  0.3323  0.3195 -0.0578
33698SOL     OW 5549   1.320   7.786   2.333  0.2912 -0.2906 -0.0000
33698SOL    HW1 5550   1.292   7.803   2.423 -1.0979 -2.3148  0.0214
33698SOL    HW2 5551   1.271   7.707   2.307  2.8167 -1.4886 -1.5162
33699SOL     OW 5552   5.440  10.088  10.440  0.5397 -0.3567 -0.1463
33699SOL    HW1 5553   5.505  10.136  10.389  0.6359  0.0311  0.3299
33699SOL    HW2 5554   5.357  10.104  10.396  0.5893  0.1579 -0.0537
33700SOL     OW 5555   8.179   8.627   9.572 -0.1298 -0.5797  0.0369
33700SOL    HW1 5556   8.266   8.653   9.604  0.3772 -0.4806 -1.3294
33700SOL    HW2 5557   8.191   8.536   9.545 -0.2932 -0.4042 -0.6452
33701SOL     OW 5558   7.611   8.510   3.565  0.1655 -0.1190 -0.0119
33701SOL    HW1 5559   7.516   8.495   3.563  0.0450  0.6150 -0.0699
33701SOL    HW2 5560   7.632   8.511   3.658 -0.3729  2.5134  0.1549
33702SOL     OW 5561   5.797   3.903   7.691  0.1805  0.6799  0.1048
33702SOL    HW1 5562   5.727   3.852   7.733  1.4417 -0.8885  0.4212
33702SOL    HW2 5563   5.751   3.963   7.633 -1.4297 -0.5928 -0.0234
33703SOL     OW 5564   1.984   2.665   6.679 -0.1726  0.1912 -0.2420
33703SOL    HW1 5565   1.975   2.606   6.604  1.0136 -0.6051  0.2127
33703SOL    HW2 5566   2.030   2.741   6.645 -0.8813  0.4554 -0.6255
33704SOL     OW 5567   2.571   5.423   6.870 -0.0478 -0.2416 -0.2280
33704SOL    HW1 5568   2.504   5.369   6.912  0.0810  0.0813  0.4042
33704SOL    HW2 5569   2.551   5.418   6.777 -1.6451  0.7745  0.0346
33705SOL     OW 5570   8.504   6.256   3.573 -0.1275 -0.0872  0.4340
33705SOL    HW1 5571   8.547   6.258   3.487 -0.8900 -1.4940 -0.0101
33705SOL    HW2 5572   8.411   6.270   3.554 -0.4975 -1.7807  0.8481
33706SOL     OW 5573   1.170   9.343   8.257  0.1658  0.4045  0.0485
33706SOL    HW1 5574   1.152   9.427   8.297  0.8499  0.7142 -0.2576
33706SOL    HW2 5575   1.090   9.292   8.267 -0.0372  0.8711  0.7911
33707SOL     OW 5576  10.008   6.695   8.896  0.1398  0.0506 -0.0753
33707SOL    HW1 5577  10.049   6.742   8.823  2.0971  0.6586  1.3405
33707SOL    HW2 5578   9.953   6.761   8.939 -1.4256 -0.4389 -1.2319
33708SOL     OW 5579   0.968   1.297  10.545 -0.5703 -0.1166 -0.1905
33708SOL    HW1 5580   1.046   1.268  10.498  0.4401  1.1201  0.6413
33708SOL    HW2 5581   0.996   1.378  10.590 -1.4338 -1.2364  2.5849
33709SOL     OW 5582  10.239   7.178   3.643  0.6375 -0.1029  0.6662
33709SOL    HW1 5583  10.321   7.130   3.627 -0.4876 -2.3963  1.3460
33709SOL    HW2 5584  10.230   7.177   3.739  0.0035  0.5295  0.6218
33710SOL     OW 5585   6.339   1.386   0.696 -0.4010  0.8595  0.2363
33710SOL    HW1 5586   6.433   1.365   0.688  0.1702  3.0105  0.6744
33710SOL    HW2 5587   6.307   1.384   0.606  0.3597  1.2122 -0.0609
33711SOL     OW 5588   8.950   9.890   2.170 -0.1160  0.2458  0.0323
33711SOL    HW1 5589   8.966   9.799   2.143 -0.5372 -0.0323  0.7034
33711SOL    HW2 5590   9.018   9.909   2.234 -1.1486 -0.2471  1.3247
33712SOL     OW 5591   3.578  10.852   6.856  0.0633  0.0390 -0.3339
33712SOL    HW1 5592   3.550  10.919   6.793 -0.3722  0.3431  0.1732
33712SOL    HW2 5593   3.614  10.902   6.930 -1.1641 -0.2293  0.4806
33713SOL     OW 5594   9.941   3.226  10.624 -0.3720  0.6291 -0.1111
33713SOL    HW1 5595   9.946   3.203  10.532  0.3416  1.7266 -0.3720
33713SOL    HW2 5596   9.997   3.303  10.633 -0.4572  0.5739  1.2302
33714SOL     OW 5597   1.453   3.029   8.750 -0.1015  0.1481  0.5791
33714SOL    HW1 5598   1.434   2.974   8.827 -0.5553 -0.5128  0.0070
33714SOL    HW2 5599   1.381   3.092   8.748  0.3382  0.6743  1.1514
33715SOL     OW 5600   6.441   1.084   8.922 -0.2757 -0.0688  0.4453
33715SOL    HW1 5601   6.346   1.100   8.926 -0.4149 -0.8274  0.2563
33715SOL    HW2 5602   6.472   1.145   8.855 -1.1126 -1.9892 -1.8078
33716SOL     OW 5603   7.710   8.839   4.142 -0.0629  0.5175 -0.8847
33716SOL    HW1 5604   7.618   8.842   4.170  0.6525  0.5059  1.6969
33716SOL    HW2 5605   7.732   8.746   4.141  0.4738  0.6138  0.5726
33717SOL     OW 5606   7.841   5.351   4.589 -0.2581 -0.5085  0.4544
33717SOL    HW1 5607   7.882   5.363   4.674  1.2062  0.6446 -0.3696
33717SOL    HW2 5608   7.895   5.285   4.545 -0.2322 -0.1667 -0.0400
33718SOL     OW 5609   3.595   7.204   2.836  0.0508  0.0830 -0.2625
33718SOL    HW1 5610   3.648   7.229   2.760  1.6116  1.1656  1.1114
33718SOL    HW2 5611   3.533   7.276   2.847 -0.9375 -0.6026 -1.1329
33719SOL     OW 5612   8.845   0.364   9.203  0.7083  0.1865 -0.2125
33719SOL    HW1 5613   8.830   0.277   9.167  0.4432  0.4601 -0.7764
33719SOL    HW2 5614   8.902   0.350   9.278 -1.5639 -0.8044  1.4641
33720SOL     OW 5615   8.758  10.228  10.147  0.1676 -0.1072  0.4631
33720SOL    HW1 5616   8.834  10.207  10.201  0.7761 -0.3719 -0.4727
33720SOL    HW2 5617   8.781  10.311  10.103  0.4399 -0.7990 -0.7474
33721SOL     OW 5618   4.508   2.304   1.055 -0.2676 -0.1523  0.3761
33721SOL    HW1 5619   4.450   2.229   1.069  0.2653 -0.4260  1.1975
33721SOL    HW2 5620   4.539   2.327   1.142 -0.8879  1.4256  0.2305
33722SOL     OW 5621   5.558   8.104   9.207 -0.2193  0.3252 -0.2708
33722SOL    HW1 5622   5.528   8.084   9.295  3.2944 -0.0024  1.0348
33722SOL    HW2 5623   5.545   8.022   9.159 -1.8881  0.4132 -0.0246
33723SOL     OW 5624   0.073   3.446   1.285  0.1437 -0.4960  0.3093
33723SOL    HW1 5625   0.055   3.414   1.197  1.5887  0.7913 -0.5058
33723SOL    HW2 5626   0.134   3.382   1.322 -1.8274 -2.0139  1.1119
33724SOL     OW 5627   7.194   0.257   3.867  0.1847  0.2317 -0.6167
33724SOL    HW1 5628   7.148   0.197   3.926  0.6660  1.6719  1.3521
33724SOL    HW2 5629   7.141   0.336   3.867  1.1583  0.9025 -0.6188
33725SOL     OW 5630   7.355   0.157   5.233  0.1255 -0.0297 -0.5378
33725SOL    HW1 5631   7.281   0.156   5.172 -1.1379  3.2825  0.6757
33725SOL    HW2 5632   7.326   0.101   5.305 -0.7968  0.4188 -0.5400
33726SOL     OW 5633   0.579   6.008   2.250  0.9550  0.5287 -0.5385
33726SOL    HW1 5634   0.657   6.048   2.213  0.1372  1.0983 -1.7183
33726SOL    HW2 5635   0.612   5.935   2.302  2.2103  0.0940 -1.8793
33727SOL     OW 5636   1.893   4.562  10.264  1.0428  0.7081  0.1989
33727SOL    HW1 5637   1.970   4.572  10.320 -0.0901  3.4117  1.4821
33727SOL    HW2 5638   1.850   4.648  10.267 -0.4541  0.2289 -2.8631
33728SOL     OW 5639  11.015   9.745   9.504  0.3727  0.2316  0.4457
33728SOL    HW1 5640  11.104   9.711   9.515  1.1991  2.3000  0.6582
33728SOL    HW2 5641  11.021   9.803   9.429 -0.5119  1.2455  1.1267
33729SOL     OW 5642   5.247   5.283   4.290 -0.4788 -0.1915  0.1688
33729SOL    HW1 5643   5.199   5.365   4.275 -0.5045  0.1093  1.7424
33729SOL    HW2 5644   5.237   5.266   4.384  1.7427 -0.6141  0.3694
33730SOL     OW 5645   0.878  10.759   8.249  0.2114 -0.6235  0.5940
33730SOL    HW1 5646   0.800  10.814   8.248 -0.4743 -1.5505  1.3912
33730SOL    HW2 5647   0.855  10.685   8.305  0.8657 -2.0536 -0.9254
33731SOL     OW 5648   1.322   5.473   3.298  0.4037  0.0944 -0.6179
33731SOL    HW1 5649   1.293   5.563   3.283 -0.7241 -0.0307  0.6460
33731SOL    HW2 5650   1.415   5.481   3.318  0.1200  1.0833  0.3577
33732SOL     OW 5651   7.503   2.649  10.914  0.0453  0.1826  0.4859
33732SOL    HW1 5652   7.456   2.579  10.867 -0.2163  0.7671 -0.1290
33732SOL    HW2 5653   7.458   2.656  10.998  0.3830 -0.7227  0.7593
33733SOL     OW 5654   9.941   2.279   1.003  0.4096  0.3227  0.1493
33733SOL    HW1 5655   9.900   2.282   1.090  0.4203  1.8367  0.1358
33733SOL    HW2 5656   9.960   2.187   0.988 -2.1319 -0.3344  0.5612
33734SOL     OW 5657   9.161   2.432   5.130  0.2800  0.0187 -0.4882
33734SOL    HW1 5658   9.253   2.410   5.145 -0.1487 -1.7423 -0.1747
33734SOL    HW2 5659   9.133   2.474   5.211 -0.3256 -3.6178  1.4059
33735SOL     OW 5660   3.128   1.694   4.478  0.2512 -0.7684  0.6804
33735SOL    HW1 5661   3.053   1.664   4.427  1.2783 -1.7977 -0.2687
33735SOL    HW2 5662   3.159   1.772   4.432 -0.3159 -0.2118  1.1948
33736SOL     OW 5663   7.431   9.397   3.998  0.2480 -0.4204  0.0917
33736SOL    HW1 5664   7.413   9.487   3.972 -0.4637 -0.7964 -0.7438
33736SOL    HW2 5665   7.425   9.398   4.094 -2.4602 -0.1224 -0.0172
33737SOL     OW 5666  11.034   7.777   7.744 -0.5083 -0.1633 -0.5088
33737SOL    HW1 5667  11.072   7.831   7.675  0.1174  1.7866  1.2551
33737SOL    HW2 5668  10.972   7.720   7.699  0.2462  0.6617 -2.7122
33738SOL     OW 5669   8.292   3.808   7.398  0.3923 -0.2676  0.6076
33738SOL    HW1 5670   8.386   3.795   7.415  0.2724 -0.6366  0.9874
33738SOL    HW2 5671   8.249   3.736   7.444  0.1480 -2.5621 -2.8660
33739SOL     OW 5672   1.509   5.884  10.488  0.2992  0.3164  0.2466
33739SOL    HW1 5673   1.429   5.834  10.504 -0.9853  1.8147 -1.1313
33739SOL    HW2 5674   1.562   5.870  10.567 -1.6231 -0.1509  1.5375
33740SOL     OW 5675   3.292   6.206   8.002  0.3538  0.4137 -0.3707
33740SOL    HW1 5676   3.239   6.144   8.052  0.6140  0.6767  0.2441
33740SOL    HW2 5677   3.382   6.190   8.032  0.4854  0.7296 -0.5910
33741SOL     OW 5678   5.485   2.420   8.060  0.0564 -0.3027 -0.5142
33741SOL    HW1 5679   5.484   2.510   8.027 -0.1140  0.4893  1.4994
33741SOL    HW2 5680   5.578   2.399   8.068  0.0959 -0.1477 -0.5615
33742SOL     OW 5681   5.008   8.530   7.894 -0.0884  0.1368  0.4776
33742SOL    HW1 5682   5.008   8.623   7.913  0.2178 -0.1096  1.7716
33742SOL    HW2 5683   5.033   8.524   7.802  0.8083  1.2766  0.6313
33743SOL     OW 5684   4.474   9.093   2.925 -0.0202 -0.6217  0.0696
33743SOL    HW1 5685   4.390   9.053   2.947 -1.2218  0.9569 -1.3783
33743SOL    HW2 5686   4.493   9.151   2.998  0.2193 -1.5851  0.7766
33744SOL     OW 5687   1.669   5.809   5.461 -0.1250 -0.0826  0.2384
33744SOL    HW1 5688   1.674   5.792   5.367 -0.3760  0.7264  0.0746
33744SOL    HW2 5689   1.686   5.903   5.470 -1.5529  0.1359  0.8699
33745SOL     OW 5690   8.645   5.806   8.773 -0.7710  0.0837  0.3714
33745SOL    HW1 5691   8.562   5.767   8.744 -0.8669  0.7677 -0.3136
33745SOL    HW2 5692   8.712   5.764   8.720 -0.6659 -0.4780  0.9337
33746SOL     OW 5693   9.768   3.495   4.970 -0.5523  0.3748  0.4314
33746SOL    HW1 5694   9.701   3.474   5.035 -0.0271 -0.4955  0.7058
33746SOL    HW2 5695   9.766   3.422   4.909  0.0216  0.4298  0.3413
33747SOL     OW 5696   5.308   2.856   4.217  0.2148  0.0621  0.4808
33747SOL    HW1 5697   5.308   2.897   4.303  0.2884  0.2987  0.3669
33747SOL    HW2 5698   5.344   2.922   4.158 -2.5208  1.0316 -0.2639
33748SOL     OW 5699   6.444   6.093   5.985  0.3490  0.7365 -0.2166
33748SOL    HW1 5700   6.524   6.127   5.945 -0.4371  2.5399 -0.3268
33748SOL    HW2 5701   6.378   6.160   5.969 -0.6724  0.2939  1.7576
33749SOL     OW 5702   1.979   2.304   5.352  0.3182 -0.1716  0.3059
33749SOL    HW1 5703   1.954   2.223   5.308  0.8350 -0.5031  0.6215
33749SOL    HW2 5704   2.065   2.326   5.315  0.0783  0.3692  0.0434
33750SOL     OW 5705   1.047   5.017   9.483  0.3630  1.1341  0.4762
33750SOL    HW1 5706   1.072   4.931   9.518 -0.5607  0.9967  0.8159
33750SOL    HW2 5707   1.106   5.031   9.409  0.1337 -0.0684  0.0471
33751SOL     OW 5708   6.415   8.871   3.369 -0.0501  0.3162 -0.1420
33751SOL    HW1 5709   6.321   8.887   3.367 -0.2639 -0.7515  0.2553
33751SOL    HW2 5710   6.436   8.863   3.462  0.3437  0.1266 -0.2430
33752SOL     OW 5711   8.128   9.442   0.030  0.0008  0.3080 -0.0280
33752SOL    HW1 5712   8.157   9.410   0.116  0.0819 -0.1790 -0.2352
33752SOL    HW2 5713   8.047   9.490   0.048  0.5150  1.0302  0.4550
33753SOL     OW 5714   3.500   4.003   1.578  0.5954 -0.3139  0.0672
33753SOL    HW1 5715   3.464   4.074   1.526 -0.1581 -0.8360 -0.1334
33753SOL    HW2 5716   3.583   3.981   1.535  0.8881  0.5183  0.2029
33754SOL     OW 5717   7.214   3.058   9.716  0.0706 -0.0804  1.1718
33754SOL    HW1 5718   7.258   3.077   9.634  1.5929 -0.1751  1.9253
33754SOL    HW2 5719   7.125   3.090   9.704  0.3709  0.2534 -0.3616
33755SOL     OW 5720   2.327  10.238   0.178 -0.5558  1.1693  0.4349
33755SOL    HW1 5721   2.409  10.194   0.200 -1.1681 -1.1283 -1.4755
33755SOL    HW2 5722   2.280  10.244   0.261  0.8153  0.9807  1.2505
33756SOL     OW 5723   2.609   9.969   8.485  0.6241  0.6857  0.3099
33756SOL    HW1 5724   2.553   9.960   8.408  0.3049  0.4298  0.5667
33756SOL    HW2 5725   2.571   9.908   8.548  0.9093  0.8666  0.6534
33757SOL     OW 5726  10.068   6.713  11.039  0.2925  0.0882 -0.4134
33757SOL    HW1 5727  10.075   6.629  11.083 -2.5000 -0.1661 -0.2493
33757SOL    HW2 5728  10.142   6.715  10.978  1.5525 -1.5820  0.9709
33758SOL     OW 5729   4.011   6.755   4.772  0.0327  0.0433 -0.1160
33758SOL    HW1 5730   3.945   6.813   4.808  0.0337  1.4306 -2.1945
33758SOL    HW2 5731   3.979   6.732   4.684  1.4290 -0.7432 -0.4591
33759SOL     OW 5732   2.885   2.834   3.077 -0.0736  0.1264 -0.7557
33759SOL    HW1 5733   2.793   2.855   3.060 -0.0085  0.7089 -0.4326
33759SOL    HW2 5734   2.931   2.917   3.063  0.2730  0.0701  0.0039
33760SOL     OW 5735   8.178   8.408   5.948 -0.3876 -0.6192 -0.4242
33760SOL    HW1 5736   8.247   8.472   5.929 -0.0245 -1.4942 -2.3174
33760SOL    HW2 5737   8.188   8.342   5.880 -1.0197 -2.4970  1.2381
33761SOL     OW 5738   8.060   7.239   6.048 -0.2576 -0.0428  0.3946
33761SOL    HW1 5739   8.048   7.253   6.142  0.3150  0.4377  0.4039
33761SOL    HW2 5740   7.981   7.276   6.008 -0.2919  0.1717  0.6579
33762SOL     OW 5741   3.014   1.664   5.705  0.1722 -0.1472  0.0690
33762SOL    HW1 5742   2.966   1.733   5.658  0.2988  0.5276  0.9054
33762SOL    HW2 5743   3.020   1.696   5.795  0.5053 -1.1213  0.4045
33763SOL     OW 5744   8.498   4.974   9.375  0.8598 -0.0407 -0.1183
33763SOL    HW1 5745   8.457   4.887   9.370  0.0922  0.2822  0.3766
33763SOL    HW2 5746   8.498   4.995   9.468  0.7959  0.6056 -0.2573
33764SOL     OW 5747   1.593   5.559   4.407  0.1595 -0.2847 -0.2985
33764SOL    HW1 5748   1.588   5.647   4.446  1.4348 -1.0908  1.8346
33764SOL    HW2 5749   1.507   5.521   4.425  1.0246 -1.0044  2.8550
33765SOL     OW 5750   2.663   8.856  10.024  0.3099  0.3023  0.5015
33765SOL    HW1 5751   2.754   8.875  10.049  1.0234 -0.7091 -1.0954
33765SOL    HW2 5752   2.663   8.761  10.010 -0.9579  0.3294  0.2835
33766SOL     OW 5753   5.396   7.943   2.934  0.1375 -0.4069 -0.1717
33766SOL    HW1 5754   5.453   7.974   2.865  0.8301  0.5416  0.7915
33766SOL    HW2 5755   5.365   7.858   2.903  0.0786  0.1800 -1.8188
33767SOL     OW 5756   8.526   9.923   4.110  0.6968  0.8809  0.0470
33767SOL    HW1 5757   8.595   9.858   4.121  2.0779  2.2682 -0.0348
33767SOL    HW2 5758   8.528   9.944   4.016 -0.2893  0.4774 -0.0747
33768SOL     OW 5759   4.075   8.412   7.820 -0.0702 -0.0494  0.5202
33768SOL    HW1 5760   4.120   8.352   7.760 -1.9381 -0.0141 -1.0157
33768SOL    HW2 5761   4.017   8.356   7.871  0.7980  0.0497  1.6486
33769SOL     OW 5762   8.678   9.095   9.654 -0.1415  0.2464  0.4654
33769SOL    HW1 5763   8.744   9.131   9.596  0.1108  1.4296  1.4466
33769SOL    HW2 5764   8.726   9.073   9.734 -0.6079 -0.6875  0.5066
33770SOL     OW 5765   5.461   3.343   1.318 -0.2728  0.2761  0.4451
33770SOL    HW1 5766   5.409   3.373   1.391  0.4496  0.2291  0.9893
33770SOL    HW2 5767   5.428   3.392   1.243  0.9374  2.5256  1.3025
33771SOL     OW 5768   4.612   3.437   0.771  0.1218  0.1664  0.2492
33771SOL    HW1 5769   4.597   3.427   0.865 -0.7865  0.4442  0.1488
33771SOL    HW2 5770   4.633   3.530   0.760 -2.8539  0.8929 -0.1527
33772SOL     OW 5771   7.366   6.405   0.086  0.0521  0.5223 -0.7111
33772SOL    HW1 5772   7.397   6.341   0.022 -0.2011 -0.5299  0.1793
33772SOL    HW2 5773   7.341   6.481   0.034 -1.9454 -0.9836 -2.1022
33773SOL     OW 5774   5.978   3.709   8.478  0.7991  0.1861 -0.0345
33773SOL    HW1 5775   6.010   3.621   8.501  1.6275 -0.1671 -2.3238
33773SOL    HW2 5776   5.997   3.762   8.556 -0.4294 -1.7830  1.7170
33774SOL     OW 5777   7.302   3.422   2.533 -1.1501 -0.1029  0.5160
33774SOL    HW1 5778   7.250   3.391   2.459 -1.0260 -0.0232  0.3960
33774SOL    HW2 5779   7.302   3.517   2.524 -3.1421  0.1158  1.9303
33775SOL     OW 5780   7.144   3.330   5.573  0.1059 -0.1819  0.1255
33775SOL    HW1 5781   7.172   3.269   5.642  0.5881 -1.4185 -1.1156
33775SOL    HW2 5782   7.049   3.329   5.578  0.0483 -1.9899 -0.6225
33776SOL     OW 5783   8.339   7.763   8.741 -0.3454 -0.7671 -0.2319
33776SOL    HW1 5784   8.316   7.692   8.801  0.7671 -0.2970  0.7906
33776SOL    HW2 5785   8.261   7.774   8.686 -0.7439 -2.3847 -0.0384
33777SOL     OW 5786   2.400   2.024   0.935  0.2361 -0.4294  0.0192
33777SOL    HW1 5787   2.422   2.078   0.859  0.4660 -0.9153 -0.2658
33777SOL    HW2 5788   2.484   2.010   0.979  0.1037 -0.1476  0.3722
33778SOL     OW 5789   1.855   8.701   0.846 -0.7615  1.3775 -0.0442
33778SOL    HW1 5790   1.939   8.737   0.815 -0.6641  0.1497 -1.3180
33778SOL    HW2 5791   1.868   8.690   0.940  1.3434 -0.7505 -0.4784
33779SOL     OW 5792   9.372   4.513   8.689  0.2192 -0.2759 -0.7761
33779SOL    HW1 5793   9.360   4.560   8.606 -0.6090 -0.3132 -0.6857
33779SOL    HW2 5794   9.465   4.493   8.692  0.2605 -0.2500 -1.6920
33780SOL     OW 5795   6.302   6.240   8.242  0.0484  0.2967 -0.2368
33780SOL    HW1 5796   6.378   6.268   8.191  0.3995 -0.5642 -0.2113
33780SOL    HW2 5797   6.231   6.231   8.178 -0.1357  1.4203 -0.2103
33781SOL     OW 5798  10.186   1.653  10.215  0.8305 -0.3478 -0.0834
33781SOL    HW1 5799  10.164   1.563  10.192  0.5292 -0.1895 -0.4441
33781SOL    HW2 5800  10.148   1.666  10.301 -0.7234 -0.0165 -0.7797
33782SOL     OW 5801   7.552  10.623  10.629 -0.2840  0.0102 -0.1063
33782SOL    HW1 5802   7.456  10.630  10.624 -0.2827 -0.6299 -1.5378
33782SOL    HW2 5803   7.583  10.711  10.609 -0.5611 -0.2090 -1.6191
33783SOL     OW 5804   5.986  10.249  10.321  0.0145  0.0021  0.7502
33783SOL    HW1 5805   5.929  10.324  10.307 -1.6420 -1.1009  1.3437
33783SOL    HW2 5806   5.994  10.208  10.235  0.1568  0.3105  0.6143
33784SOL     OW 5807  10.521   0.860   8.521 -0.1328  0.5164 -0.2309
33784SOL    HW1 5808  10.481   0.944   8.500 -1.7570 -0.1892 -0.1411
33784SOL    HW2 5809  10.614   0.879   8.530 -0.5250  2.3979  0.3025
33785SOL     OW 5810   4.152   2.691   4.051 -0.0687 -0.0694  0.4247
33785SOL    HW1 5811   4.154   2.671   4.144 -4.0541 -1.0773  0.4847
33785SOL    HW2 5812   4.146   2.786   4.047 -0.0968 -0.0328  1.2193
33786SOL     OW 5813   2.766   1.193  10.573 -0.5571 -0.0671 -0.2035
33786SOL    HW1 5814   2.782   1.242  10.493 -3.3323 -0.6967 -1.2690
33786SOL    HW2 5815   2.703   1.125  10.547 -1.0051 -0.7401  2.3689
33787SOL     OW 5816   4.049   6.909   9.759 -0.2507  0.2638 -0.2155
33787SOL    HW1 5817   4.069   6.831   9.707 -1.5413 -0.2315 -0.0247
33787SOL    HW2 5818   4.118   6.912   9.825  1.9158  1.3732 -2.3785
33788SOL     OW 5819   5.825   4.041   0.012  0.3478 -0.6512 -0.0934
33788SOL    HW1 5820   5.818   3.951   0.043  0.0119 -0.1786  1.2596
33788SOL    HW2 5821   5.918   4.061   0.016  0.2894 -0.5126  0.9343
33789SOL     OW 5822   1.893   3.138   9.568  0.7745 -0.3045 -0.4991
33789SOL    HW1 5823   1.833   3.210   9.587  1.4918  0.5651 -1.4416
33789SOL    HW2 5824   1.933   3.117   9.652 -0.5855 -0.6985  0.0929
33790SOL     OW 5825   1.156   2.579   7.487  0.2846 -0.6500 -0.6045
33790SOL    HW1 5826   1.181   2.603   7.577  0.0537  1.6058 -1.0734
33790SOL    HW2 5827   1.148   2.484   7.489  2.9529 -0.9353  1.0726
33791SOL     OW 5828   3.933   0.679   6.017  0.0752 -0.3180  0.6384
33791SOL    HW1 5829   4.022   0.658   5.990 -0.6523 -1.3695 -1.1047
33791SOL    HW2 5830   3.877   0.640   5.949 -1.7893 -0.9575  2.4301
33792SOL     OW 5831   7.359   0.541   7.328 -0.2123 -0.4369 -0.0394
33792SOL    HW1 5832   7.412   0.536   7.248 -1.0567 -0.0097 -0.6437
33792SOL    HW2 5833   7.269   0.552   7.296 -0.5658 -0.3109  0.9742
33793SOL     OW 5834  10.761   4.861   0.592 -0.3777  0.3851  0.0054
33793SOL    HW1 5835  10.809   4.930   0.637  1.1968 -0.1513 -0.7789
33793SOL    HW2 5836  10.741   4.796   0.659  0.6162  0.3017  0.2323
33794SOL     OW 5837   5.671   7.261   8.853 -0.1401 -0.4631 -0.0621
33794SOL    HW1 5838   5.679   7.167   8.839 -0.6472 -0.3814 -1.0757
33794SOL    HW2 5839   5.735   7.300   8.793  2.7096 -0.1978  2.9073
33795SOL     OW 5840   4.467  10.452  10.851  0.2029  0.0316 -0.5486
33795SOL    HW1 5841   4.518  10.439  10.931  0.2002 -0.9215 -0.6918
33795SOL    HW2 5842   4.502  10.532  10.812  0.0502  0.6331  0.5181
33796SOL     OW 5843   8.631   0.478   7.629  0.1903  0.5863  0.2804
33796SOL    HW1 5844   8.718   0.516   7.627  1.3706 -1.9084 -1.0000
33796SOL    HW2 5845   8.621   0.447   7.720  0.7735  0.6309  0.3637
33797SOL     OW 5846   3.226   3.625   1.254  0.4175 -0.2766  0.2275
33797SOL    HW1 5847   3.248   3.690   1.321 -1.2117  1.0011 -0.4143
33797SOL    HW2 5848   3.189   3.551   1.303 -1.5109  0.9670  0.7441
33798SOL     OW 5849   5.460   6.340  11.071 -0.0454  0.1621 -0.2536
33798SOL    HW1 5850   5.378   6.323  11.025  0.1960  0.7847 -0.9313
33798SOL    HW2 5851   5.500   6.254  11.082 -0.0856  0.0049 -1.2558
33799SOL     OW 5852   5.254   1.446   3.078  0.1840 -0.0474 -0.0985
33799SOL    HW1 5853   5.287   1.357   3.065  0.4179 -0.8741  4.4368
33799SOL    HW2 5854   5.330   1.502   3.063  1.2115 -1.0735  1.0761
33800SOL     OW 5855   6.737   5.839   1.036 -0.2715  0.1024  0.2114
33800SOL    HW1 5856   6.818   5.860   0.990  0.0979  1.6501  1.4924
33800SOL    HW2 5857   6.743   5.887   1.119 -2.1025 -0.4583  0.7141
33801SOL     OW 5858   5.994   9.260   2.200  0.2105 -0.3195  0.2150
33801SOL    HW1 5859   6.080   9.219   2.209 -0.5570 -1.9834  0.4099
33801SOL    HW2 5860   6.012   9.347   2.164  2.0171 -0.3490  0.9385
33802SOL     OW 5861   3.747   8.722  10.540  0.2062  0.6700 -0.1066
33802SOL    HW1 5862   3.704   8.650  10.494 -0.9378  2.5029 -2.1381
33802SOL    HW2 5863   3.826   8.739  10.489  0.1999  1.1498  0.0346
33803SOL     OW 5864   4.917   2.449   6.059 -0.0330 -0.3436 -0.0481
33803SOL    HW1 5865   4.992   2.504   6.082 -1.1763  0.7555  1.2030
33803SOL    HW2 5866   4.886   2.485   5.976 -0.5461  0.7092  0.5781
33804SOL     OW 5867  10.616   9.787   9.797  0.6600 -0.7890  0.2582
33804SOL    HW1 5868  10.585   9.697   9.783 -0.4845 -0.2017 -1.3492
33804SOL    HW2 5869  10.711   9.780   9.797  0.6977 -1.7008 -2.6986
33805SOL     OW 5870   8.916  10.633   7.532 -0.0158 -0.4670 -0.0080
33805SOL    HW1 5871   8.930  10.657   7.623  2.8729 -0.0012 -0.4804
33805SOL    HW2 5872   8.826  10.599   7.529 -0.3118 -0.1417  2.8879
33806SOL     OW 5873   9.923   6.347   9.441  0.1922  0.3593 -0.0599
33806SOL    HW1 5874   9.897   6.362   9.350 -0.9178 -0.2201  0.1342
33806SOL    HW2 5875   9.942   6.253   9.446 -1.5700 -0.0155  0.6824
33807SOL     OW 5876   5.400   4.928   3.661  0.5702  0.4274 -0.3606
33807SOL    HW1 5877   5.488   4.892   3.675  1.5214  3.0618  1.0723
33807SOL    HW2 5878   5.342   4.852   3.666  2.6237 -1.2019  0.0790
33808SOL     OW 5879  10.462   2.769   2.051  0.3334  0.0336  0.0098
33808SOL    HW1 5880  10.406   2.705   2.006  0.3682 -1.0631  1.4834
33808SOL    HW2 5881  10.446   2.754   2.144  1.4626  1.1885  0.4146
33809SOL     OW 5882   0.188   0.901   4.812 -0.0214 -0.0011 -0.3119
33809SOL    HW1 5883   0.270   0.908   4.764 -0.4253  0.9232 -0.8894
33809SOL    HW2 5884   0.214   0.902   4.904  0.8550 -2.8926 -0.4324
33810SOL     OW 5885   4.852   0.075   2.118 -0.4401  0.6001  0.2417
33810SOL    HW1 5886   4.757   0.089   2.127 -0.7755  0.1905 -1.9264
33810SOL    HW2 5887   4.885   0.073   2.207 -2.8685 -1.9039  1.2404
33811SOL     OW 5888   4.308   3.686   7.809 -0.0526  0.2775  0.2262
33811SOL    HW1 5889   4.260   3.603   7.804 -1.3889  0.9231  1.4776
33811SOL    HW2 5890   4.400   3.661   7.815 -0.4047 -1.0926  0.1441
33812SOL     OW 5891   3.087   7.934   8.611 -0.3210 -0.2037  0.1595
33812SOL    HW1 5892   3.105   7.843   8.636  0.7266 -0.5490 -1.6509
33812SOL    HW2 5893   3.061   7.929   8.519 -1.5187  1.2217  0.3836
33813SOL     OW 5894   8.964   0.570   7.130  0.2886 -0.5176  0.0964
33813SOL    HW1 5895   8.989   0.485   7.095 -0.5700 -1.0522  0.7313
33813SOL    HW2 5896   8.902   0.606   7.067 -2.3737 -2.1077  1.6402
33814SOL     OW 5897   2.564   0.210   8.783 -0.3585 -0.1914  0.1654
33814SOL    HW1 5898   2.622   0.260   8.726 -0.9399  0.5300  0.2000
33814SOL    HW2 5899   2.501   0.274   8.816 -1.6172 -1.0787 -0.4263
33815SOL     OW 5900   2.493   1.207   1.194  0.0371 -0.2277  0.1892
33815SOL    HW1 5901   2.526   1.280   1.247 -0.6240  0.5341 -0.4208
33815SOL    HW2 5902   2.567   1.146   1.188  0.3748  0.0534  1.2917
33816SOL     OW 5903  11.024   1.617   3.692 -0.4582 -0.6462  0.0893
33816SOL    HW1 5904  11.093   1.669   3.652 -0.9923  1.0104  1.2136
33816SOL    HW2 5905  11.068   1.540   3.726  0.9132  0.5062  1.0322
33817SOL     OW 5906   3.250   4.014   5.296 -0.1239  0.2964 -0.2878
33817SOL    HW1 5907   3.334   4.036   5.337 -1.1603 -0.2727  2.3283
33817SOL    HW2 5908   3.189   4.007   5.369 -2.1051 -0.9764 -1.9608
33818SOL     OW 5909   7.708   5.317  10.054 -0.2732 -0.4933 -0.2503
33818SOL    HW1 5910   7.768   5.281   9.988 -0.5859 -0.8966 -0.3245
33818SOL    HW2 5911   7.754   5.393  10.090 -0.7646  0.7371 -2.0851
33819SOL     OW 5912   3.559   9.460  10.505 -0.4250  0.6837  0.4684
33819SOL    HW1 5913   3.569   9.490  10.414 -0.1171  1.2409  0.6799
33819SOL    HW2 5914   3.611   9.380  10.510  0.0810  1.0017  0.3213
33820SOL     OW 5915   1.822   7.091   9.414 -0.4700  0.3455 -0.2885
33820SOL    HW1 5916   1.819   7.044   9.330  6.1355 -1.5429  0.0159
33820SOL    HW2 5917   1.848   7.180   9.391 -0.3168  0.2928 -0.3195
33821SOL     OW 5918   3.203   2.621   9.587 -0.1944 -0.1266  0.4345
33821SOL    HW1 5919   3.294   2.602   9.611  0.3334  1.1827 -0.4210
33821SOL    HW2 5920   3.164   2.655   9.668 -0.5999 -2.7289  1.4242
33822SOL     OW 5921   7.140   2.136   5.824  0.4730  0.1487 -0.0744
33822SOL    HW1 5922   7.174   2.067   5.881  0.0497 -0.0504 -0.0506
33822SOL    HW2 5923   7.084   2.189   5.881  1.7465  1.2599  0.1998
33823SOL     OW 5924  11.053  10.406   8.896 -1.1603  0.2880 -0.1841
33823SOL    HW1 5925  11.036  10.494   8.862 -0.1210  0.6330  0.1474
33823SOL    HW2 5926  11.144  10.388   8.871 -1.2303 -0.5217  0.1202
33824SOL     OW 5927   1.200   3.731   2.973 -0.0024  0.0371 -0.0181
33824SOL    HW1 5928   1.260   3.694   3.038 -1.0092  1.9035  2.0934
33824SOL    HW2 5929   1.215   3.825   2.976 -1.3152  0.3295 -1.2557
33825SOL     OW 5930   0.275   1.632   8.901 -0.0642 -0.0596 -0.0898
33825SOL    HW1 5931   0.356   1.657   8.857 -1.0332  0.0602 -1.8877
33825SOL    HW2 5932   0.228   1.715   8.913 -1.3312 -0.4354 -2.0473
33826SOL     OW 5933   6.074   5.322   0.835 -0.1488 -0.3831  0.3156
33826SOL    HW1 5934   6.075   5.277   0.919  1.0645 -0.4560  0.2834
33826SOL    HW2 5935   6.041   5.409   0.854  0.6099 -0.2257  0.9735
33827SOL     OW 5936   7.766   1.666   6.457 -0.2761  0.0366 -0.6025
33827SOL    HW1 5937   7.687   1.613   6.472 -0.1406  0.2846  1.1386
33827SOL    HW2 5938   7.736   1.757   6.468 -0.3851  0.3637 -3.0197
33828SOL     OW 5939   7.422   8.265   0.637 -0.5192 -0.1591 -0.2488
33828SOL    HW1 5940   7.388   8.332   0.696  0.1585  0.8767 -0.9987
33828SOL    HW2 5941   7.466   8.202   0.694 -0.0150  0.7359  0.3688
33829SOL     OW 5942   2.794   3.544   5.834 -0.6163 -0.1308  0.2473
33829SOL    HW1 5943   2.818   3.598   5.759 -2.3427 -0.7624 -0.8073
33829SOL    HW2 5944   2.833   3.590   5.909  0.7072  0.7954 -0.9349
33830SOL     OW 5945   1.448  10.472   9.061 -0.4108 -0.1362  0.2048
33830SOL    HW1 5946   1.440  10.562   9.093  3.3803  0.5003 -0.0862
33830SOL    HW2 5947   1.387  10.467   8.987 -1.5149  1.8121  0.9211
33831SOL     OW 5948  11.018  10.562   3.954 -0.6475 -0.4903 -0.0114
33831SOL    HW1 5949  10.980  10.477   3.929  0.7894 -0.3295 -3.1819
33831SOL    HW2 5950  11.103  10.540   3.992 -0.3666 -0.5033 -0.6366
33832SOL     OW 5951   0.198   3.994   0.284 -0.6381 -0.2052  0.1469
33832SOL    HW1 5952   0.292   3.999   0.272 -0.7094  1.6357  0.0190
33832SOL    HW2 5953   0.162   3.984   0.196 -0.5905 -0.2890  0.1371
33833SOL     OW 5954   4.572   3.797  10.472  0.1206  0.5416  0.3679
33833SOL    HW1 5955   4.600   3.772  10.384 -1.5864 -1.4168  0.2921
33833SOL    HW2 5956   4.477   3.784  10.472 -0.2344  2.5466  1.9035
33834SOL     OW 5957   4.688   5.028   0.765 -0.0404 -0.1984  0.1659
33834SOL    HW1 5958   4.715   5.106   0.718  0.9239 -0.6271 -0.0138
33834SOL    HW2 5959   4.604   5.003   0.725  0.3550 -0.0769 -0.7574
33835SOL     OW 5960   4.957   4.767   9.533  0.4948 -0.1015 -0.4977
33835SOL    HW1 5961   4.909   4.801   9.608  1.3634  0.0575  0.0003
33835SOL    HW2 5962   5.029   4.829   9.520  1.4561 -1.1449 -0.2697
33836SOL     OW 5963   6.343   1.787   4.898  0.5687  0.1301  0.0740
33836SOL    HW1 5964   6.272   1.848   4.875 -0.0051  0.4880  2.5298
33836SOL    HW2 5965   6.319   1.705   4.855  0.4905  1.1306 -1.9284
33837SOL     OW 5966  10.560   9.632   9.037 -0.8867 -0.0484 -0.0996
33837SOL    HW1 5967  10.495   9.623   8.967 -0.5323 -0.6713 -0.3534
33837SOL    HW2 5968  10.583   9.724   9.036 -0.7642 -0.0774 -0.9165
33838SOL     OW 5969   4.456   2.046   6.617 -0.0729  0.6208  0.1317
33838SOL    HW1 5970   4.508   2.121   6.644  0.7780  0.4885 -1.0718
33838SOL    HW2 5971   4.396   2.079   6.551 -0.4730  0.4560  0.4024
33839SOL     OW 5972   4.121   3.303   8.081  0.1941  0.2308 -0.7615
33839SOL    HW1 5973   4.063   3.296   8.157  0.0969  0.8189 -0.7769
33839SOL    HW2 5974   4.065   3.340   8.012  0.2501 -0.4000 -1.1535
33840SOL     OW 5975   0.808   3.979   1.469 -0.7775  0.3719 -0.0265
33840SOL    HW1 5976   0.730   3.948   1.423 -0.9069 -0.6485  0.8531
33840SOL    HW2 5977   0.820   3.917   1.540  0.2050  1.1572  0.5122
33841SOL     OW 5978   5.986   3.137   1.110  0.2625  0.1410 -0.6887
33841SOL    HW1 5979   6.039   3.069   1.069 -0.6514 -0.8082 -0.3437
33841SOL    HW2 5980   5.920   3.089   1.159 -1.4277  1.2797 -1.7525
33842SOL     OW 5981   8.306   3.695   5.297  0.0638 -0.3079 -0.0318
33842SOL    HW1 5982   8.335   3.760   5.232  1.1023 -1.6864 -1.0204
33842SOL    HW2 5983   8.349   3.614   5.270 -0.6009 -1.2519  1.5986
33843SOL     OW 5984   3.287   4.891   8.015 -0.3935 -1.0607  0.0745
33843SOL    HW1 5985   3.345   4.896   7.939 -0.2431 -2.2285  0.0926
33843SOL    HW2 5986   3.327   4.949   8.079 -0.8447  0.4117 -0.9236
33844SOL     OW 5987   5.162   2.457   1.562  0.0782 -0.3212  0.0064
33844SOL    HW1 5988   5.096   2.389   1.548  0.2075 -0.4311 -0.0796
33844SOL    HW2 5989   5.116   2.526   1.609  0.1984 -0.9024  1.0053
33845SOL     OW 5990   6.225  10.502   3.469  0.3311 -0.0650 -0.2840
33845SOL    HW1 5991   6.300  10.444   3.456 -0.7773 -1.2935 -1.6728
33845SOL    HW2 5992   6.253  10.587   3.436  1.2938 -0.3559 -0.2282
33846SOL     OW 5993   0.637   5.814   4.328  0.2980  0.5210  0.0763
33846SOL    HW1 5994   0.674   5.865   4.256 -1.2076  1.2064 -0.2318
33846SOL    HW2 5995   0.594   5.878   4.384 -0.1646 -0.2283  0.5955
33847SOL     OW 5996   1.279   9.684   1.158  0.4215 -0.0792  0.1541
33847SOL    HW1 5997   1.205   9.658   1.104 -0.0730  3.7666 -1.3591
33847SOL    HW2 5998   1.354   9.639   1.118 -0.5762 -1.1543 -0.5894
33848SOL     OW 5999   2.549   5.582   8.885  0.1444 -0.1500  1.0184
33848SOL    HW1 6000   2.520   5.491   8.890 -1.0900  0.2524  1.3841
33848SOL    HW2 6001   2.469   5.633   8.876  0.8821  0.8225 -0.7077
33849SOL     OW 6002   4.918   0.603   6.191 -0.0223  0.9279  0.1499
33849SOL    HW1 6003   5.000   0.644   6.164  0.3475  0.0982 -0.0389
33849SOL    HW2 6004   4.850   0.651   6.145  0.5248  0.1643 -1.5288
33850SOL     OW 6005   0.069   8.343  10.041  0.8841  0.2441 -0.6845
33850SOL    HW1 6006   0.048   8.437  10.049  1.2614  0.3712 -1.1532
33850SOL    HW2 6007  -0.016   8.300  10.046  0.8245  0.4952  1.0435
33851SOL     OW 6008   3.541   3.116   6.380 -0.0276  0.6297  0.1156
33851SOL    HW1 6009   3.567   3.065   6.303  1.6866  0.5351  0.7112
33851SOL    HW2 6010   3.590   3.198   6.372 -0.7092  1.0804  0.5246
33852SOL     OW 6011   0.436   4.416   0.968  0.6205  0.5607  0.6552
33852SOL    HW1 6012   0.349   4.404   0.928  1.0141 -0.6694  0.1090
33852SOL    HW2 6013   0.427   4.376   1.054  1.2811 -1.8912 -0.3114
33853SOL     OW 6014   9.828   6.492   2.779  0.7009 -0.2021 -0.2606
33853SOL    HW1 6015   9.735   6.479   2.760  0.2929 -1.2215  2.1119
33853SOL    HW2 6016   9.865   6.404   2.777  1.1172 -0.0698  1.1174
33854SOL     OW 6017   0.476   5.400   7.747 -0.1021 -0.4296 -1.2133
33854SOL    HW1 6018   0.408   5.346   7.788 -2.6064  2.5343 -1.0852
33854SOL    HW2 6019   0.498   5.353   7.667 -1.6866 -1.9752 -0.8100
33855SOL     OW 6020   9.695   0.065   2.744 -0.2235 -0.2112 -0.3594
33855SOL    HW1 6021   9.730  -0.014   2.785 -0.3298 -0.2929 -0.4273
33855SOL    HW2 6022   9.759   0.133   2.764  0.2147 -0.4655 -0.9036
33856SOL     OW 6023   8.851   8.378   5.427 -0.3290  0.2036  0.2760
33856SOL    HW1 6024   8.832   8.344   5.515  2.6884 -0.0376  0.9331
33856SOL    HW2 6025   8.828   8.470   5.431 -0.5004  0.1281  1.2277
33857SOL     OW 6026   0.318   2.782   8.358 -0.4624 -0.2869  0.8237
33857SOL    HW1 6027   0.327   2.791   8.453 -0.7608  1.2029  0.7331
33857SOL    HW2 6028   0.230   2.816   8.339 -0.0111  0.4115 -0.0893
33858SOL     OW 6029   0.216   5.814   1.942 -0.2048  0.2026  0.0570
33858SOL    HW1 6030   0.247   5.802   1.853  2.2225 -1.5042  1.0195
33858SOL    HW2 6031   0.288   5.858   1.987 -1.7001  1.8082  1.0589
33859SOL     OW 6032   2.727   3.060   2.002  0.4803  0.4396 -0.1502
33859SOL    HW1 6033   2.775   2.993   2.051  1.3829  0.1102 -1.4578
33859SOL    HW2 6034   2.669   3.100   2.068  0.9820 -0.6137  0.9730
33860SOL     OW 6035   7.342   1.504   4.218 -0.3335 -0.2567  0.4836
33860SOL    HW1 6036   7.273   1.488   4.282 -1.4586  1.0685 -0.3598
33860SOL    HW2 6037   7.371   1.417   4.191 -3.4435 -0.9306 -1.0253
33861SOL     OW 6038   1.388   5.095   9.593  0.4216 -0.0941  0.2155
33861SOL    HW1 6039   1.359   5.062   9.679 -0.6598 -1.7652 -0.7270
33861SOL    HW2 6040   1.331   5.170   9.577 -1.5009 -1.5873 -0.3105
33862SOL     OW 6041   3.318   3.412   2.837  0.2232  0.4801 -0.1822
33862SOL    HW1 6042   3.401   3.444   2.873  0.6809 -1.0295  0.1843
33862SOL    HW2 6043   3.287   3.483   2.781  2.8899  0.2364 -2.1590
33863SOL     OW 6044   7.371   4.504   1.981 -0.5290 -0.9057 -0.7551
33863SOL    HW1 6045   7.287   4.463   1.961 -0.2808 -0.7196 -2.2917
33863SOL    HW2 6046   7.378   4.576   1.919  0.2945 -0.2503  0.0679
33864SOL     OW 6047   3.281   0.726   3.301 -0.4783 -0.1321 -0.4468
33864SOL    HW1 6048   3.250   0.641   3.333 -2.3432  0.9209  0.7491
33864SOL    HW2 6049   3.297   0.777   3.381  0.0629  0.8310 -1.1529
33865SOL     OW 6050   5.153   7.451  10.480  0.4570  0.7822  0.2135
33865SOL    HW1 6051   5.110   7.376  10.439 -0.8621  0.5064  1.9872
33865SOL    HW2 6052   5.171   7.423  10.570  0.5362  2.3537  0.7212
33866SOL     OW 6053   9.054   5.642   9.952  0.8509  0.1386 -0.3874
33866SOL    HW1 6054   9.051   5.557   9.906  0.3829  0.5088 -1.0605
33866SOL    HW2 6055   8.962   5.665   9.965  0.9814  0.4125  0.0419
33867SOL     OW 6056   2.413   6.047   8.036 -0.3325 -1.1931  0.5419
33867SOL    HW1 6057   2.352   5.982   8.001 -0.5824  0.1535 -1.7754
33867SOL    HW2 6058   2.432   6.104   7.961  2.0606 -0.2585  1.7655
33868SOL     OW 6059   3.175   7.032   2.377 -0.6774 -0.1215  0.0149
33868SOL    HW1 6060   3.259   7.030   2.422  0.3825  0.1474 -1.8237
33868SOL    HW2 6061   3.118   7.086   2.432  0.2505 -0.5344  1.4235
33869SOL     OW 6062   0.464   9.933   6.619  0.0774  0.0714 -0.0611
33869SOL    HW1 6063   0.389   9.912   6.675 -0.2668 -2.1713 -1.2412
33869SOL    HW2 6064   0.533   9.875   6.650  0.3531 -0.0861 -0.9492
33870SOL     OW 6065   9.068   6.439   1.454  0.5037 -0.1848  0.4833
33870SOL    HW1 6066   9.058   6.471   1.544 -0.6942  1.0826 -0.0610
33870SOL    HW2 6067   9.069   6.519   1.401  0.2757 -0.9580 -0.7010
33871SOL     OW 6068   8.990   3.965   0.130  0.4238  0.2288 -0.4746
33871SOL    HW1 6069   8.941   3.887   0.103  0.7201 -0.7852  1.6967
33871SOL    HW2 6070   8.923   4.024   0.166  0.2519  0.8246 -1.7356
33872SOL     OW 6071   7.821   7.774   3.794 -0.5955  0.2514 -0.3958
33872SOL    HW1 6072   7.915   7.789   3.805 -0.3652  2.4948 -4.1716
33872SOL    HW2 6073   7.784   7.860   3.776 -2.7747 -0.9956 -2.4429
33873SOL     OW 6074   5.449   0.835   0.084  0.2364  0.0476 -0.1393
33873SOL    HW1 6075   5.447   0.899   0.155 -0.1727 -0.3108  0.1783
33873SOL    HW2 6076   5.385   0.768   0.110  0.2648 -0.2134 -0.7251
33874SOL     OW 6077  10.472   2.717   5.421 -0.0083 -0.0504  0.4550
33874SOL    HW1 6078  10.392   2.668   5.438 -1.1138  1.7623  0.7688
33874SOL    HW2 6079  10.541   2.666   5.462 -1.4007 -0.2448  2.7568
33875SOL     OW 6080   5.911   1.422   3.132  0.7080 -0.1249 -0.0100
33875SOL    HW1 6081   5.995   1.424   3.178  0.1846 -0.3518  0.9863
33875SOL    HW2 6082   5.857   1.486   3.179 -0.7187 -2.3089  1.5012
33876SOL     OW 6083  10.238   8.041  10.254  0.1280  0.1622 -0.2716
33876SOL    HW1 6084  10.274   7.956  10.231  0.2825  0.6119 -1.7666
33876SOL    HW2 6085  10.210   8.080  10.171  1.1568  2.0566  0.2026
33877SOL     OW 6086   8.301   8.790   1.142  0.5631  0.9706 -0.4954
33877SOL    HW1 6087   8.386   8.822   1.112  0.5016  1.3462 -0.2755
33877SOL    HW2 6088   8.300   8.808   1.236  0.8660 -0.4497 -0.2012
33878SOL     OW 6089  10.117   4.001   3.552 -0.2168  0.0210 -0.5240
33878SOL    HW1 6090  10.123   4.096   3.565 -2.6062  0.0833  0.7793
33878SOL    HW2 6091  10.123   3.990   3.457 -0.1976  1.5106 -0.7276
33879SOL     OW 6092   2.871   4.999   1.371  0.3528 -0.1392  0.0020
33879SOL    HW1 6093   2.934   4.927   1.372 -0.5234 -0.9957 -2.0958
33879SOL    HW2 6094   2.814   4.982   1.446  1.6222 -0.2152  0.9933
33880SOL     OW 6095   3.462  10.831   9.007 -0.0788 -0.0980 -0.5738
33880SOL    HW1 6096   3.481  10.846   9.100 -1.8245 -0.9444 -0.0487
33880SOL    HW2 6097   3.388  10.888   8.988  0.3177  0.1317 -1.4921
33881SOL     OW 6098   9.373   6.060   4.332 -0.1067 -0.4044  0.6131
33881SOL    HW1 6099   9.463   6.059   4.298  0.2914  0.0724  1.6110
33881SOL    HW2 6100   9.338   5.974   4.310 -0.1612  0.1468 -1.7212
33882SOL     OW 6101   1.053   6.442   9.599 -0.8714 -0.5595 -0.5297
33882SOL    HW1 6102   0.979   6.393   9.635 -1.3878  0.4551 -0.1708
33882SOL    HW2 6103   1.130   6.396   9.632 -1.3370 -1.2217 -0.3384
33883SOL     OW 6104   0.999   1.626   1.814  0.1631 -0.9575 -0.5567
33883SOL    HW1 6105   1.033   1.660   1.896  0.3086 -0.5269 -0.7868
33883SOL    HW2 6106   1.019   1.695   1.750 -1.1290 -0.6791 -0.7026
33884SOL     OW 6107   8.608   2.876   1.347 -0.4939 -0.1580 -0.5746
33884SOL    HW1 6108   8.545   2.941   1.379 -0.6775 -0.3276 -0.5881
33884SOL    HW2 6109   8.582   2.794   1.390 -1.0372 -0.4971 -1.5008
33885SOL     OW 6110   1.200   9.204   8.689  0.4057 -0.0385  0.3565
33885SOL    HW1 6111   1.288   9.242   8.694  0.1429  0.6309  0.0091
33885SOL    HW2 6112   1.156   9.235   8.769 -0.5061  2.2329 -0.9262
33886SOL     OW 6113   7.101   4.139   0.225 -0.7253  0.9181  0.1829
33886SOL    HW1 6114   7.141   4.225   0.215 -1.9470  1.4168 -0.7910
33886SOL    HW2 6115   7.076   4.114   0.136 -0.7346 -0.2663  0.5053
33887SOL     OW 6116   3.929   1.153   2.718  0.5386 -0.3169  0.0087
33887SOL    HW1 6117   3.943   1.058   2.717  0.7353 -0.3559  2.0477
33887SOL    HW2 6118   3.861   1.167   2.784  0.1858  0.9461 -0.5790
33888SOL     OW 6119   1.072   8.813   0.688  0.4087 -0.4934  0.1864
33888SOL    HW1 6120   1.008   8.865   0.736  1.9575  1.2096  0.4898
33888SOL    HW2 6121   1.144   8.873   0.670  1.0450 -1.7783 -1.9860
33889SOL     OW 6122   4.570   0.855   4.342 -0.2805 -0.7070  0.3743
33889SOL    HW1 6123   4.483   0.894   4.352 -0.4343 -1.1794  0.9367
33889SOL    HW2 6124   4.609   0.902   4.268  0.1829  1.6518  2.0307
33890SOL     OW 6125   2.614   2.764   5.844  0.0983  0.3465 -0.8153
33890SOL    HW1 6126   2.669   2.690   5.869 -0.9926 -1.3615 -3.0621
33890SOL    HW2 6127   2.674   2.825   5.802  1.0105  0.7738  1.0256
33891SOL     OW 6128   6.911  10.857   9.176  0.4250  0.3422  0.2406
33891SOL    HW1 6129   6.823  10.894   9.169  0.2267 -0.3721 -1.8679
33891SOL    HW2 6130   6.969  10.928   9.149  0.1460 -0.3111 -2.3630
33892SOL     OW 6131   2.892  10.566   0.842 -0.4374  0.6277  0.0849
33892SOL    HW1 6132   2.839  10.547   0.919 -2.8388 -0.0187 -1.6069
33892SOL    HW2 6133   2.908  10.660   0.846 -2.6595  1.0617  0.1873
33893SOL     OW 6134   7.154   4.646   7.952  0.3745  0.0079 -0.1654
33893SOL    HW1 6135   7.075   4.616   7.907  1.3903 -1.0732 -1.3075
33893SOL    HW2 6136   7.220   4.580   7.931  2.0650  1.7939 -0.7549
33894SOL     OW 6137   3.380   0.519   4.245  0.1436  0.0847  0.4156
33894SOL    HW1 6138   3.294   0.505   4.284 -0.3158  0.7730 -0.3255
33894SOL    HW2 6139   3.371   0.601   4.196  1.6063  0.9113  1.4488
33895SOL     OW 6140   1.473   0.186   5.807  0.7521 -0.0408 -0.1928
33895SOL    HW1 6141   1.487   0.162   5.899 -0.6031 -0.8930 -0.1742
33895SOL    HW2 6142   1.478   0.103   5.760  2.3222  0.4971 -1.0432
33896SOL     OW 6143   9.170   8.184   2.577  0.0445  0.1446  0.2659
33896SOL    HW1 6144   9.101   8.122   2.552 -1.1675  0.8358  1.7489
33896SOL    HW2 6145   9.194   8.228   2.495 -0.2125 -1.1263 -0.5225
33897SOL     OW 6146   7.844   3.388  10.079  0.1586 -0.0486  0.1527
33897SOL    HW1 6147   7.917   3.434  10.039 -0.2888  0.8948  0.3779
33897SOL    HW2 6148   7.790   3.358  10.005  0.2914  0.0670  0.0094
33898SOL     OW 6149   9.233   5.157   6.909  0.5234 -0.5094  0.4382
33898SOL    HW1 6150   9.295   5.194   6.971  0.3809 -0.8910  0.8168
33898SOL    HW2 6151   9.255   5.198   6.825  1.0198 -0.3388  0.6476
33899SOL     OW 6152   7.620   8.584   2.516 -0.2508  0.2879  0.0860
33899SOL    HW1 6153   7.690   8.646   2.497  0.0939  0.7748  2.6435
33899SOL    HW2 6154   7.663   8.498   2.511 -0.0136  0.4319 -0.4841
33900SOL     OW 6155   6.910   9.497   3.292  0.3290 -0.2949  0.2427
33900SOL    HW1 6156   6.930   9.413   3.334  0.3875  0.1570  1.1490
33900SOL    HW2 6157   6.974   9.558   3.330  1.2250 -0.1121 -1.4549
33901SOL     OW 6158   0.386   2.602   1.723 -0.0765  0.0523  0.1505
33901SOL    HW1 6159   0.375   2.535   1.790 -2.3819  0.6191  0.4448
33901SOL    HW2 6160   0.460   2.573   1.670 -0.7712 -2.5425  0.4880
33902SOL     OW 6161  10.466   1.155   9.731  0.3755 -0.2821 -0.1472
33902SOL    HW1 6162  10.439   1.211   9.658 -0.3099 -0.5784 -0.1350
33902SOL    HW2 6163  10.407   1.180   9.803  2.0505  1.1193  0.8239
33903SOL     OW 6164   4.413   8.066   0.354 -0.6245  0.9872  0.1895
33903SOL    HW1 6165   4.378   8.108   0.276 -1.9025  2.4153  1.4595
33903SOL    HW2 6166   4.463   8.135   0.398 -1.0358  0.6327  1.2667
33904SOL     OW 6167   3.392   0.820   6.716 -0.5782 -0.7886 -0.2964
33904SOL    HW1 6168   3.465   0.759   6.701 -0.1596 -0.7691  1.4627
33904SOL    HW2 6169   3.396   0.839   6.810 -2.6099 -0.4545 -0.2481
33905SOL     OW 6170   8.646   9.561   7.043 -0.2463  0.3605  0.3122
33905SOL    HW1 6171   8.721   9.619   7.051  1.0617 -1.2756  0.3746
33905SOL    HW2 6172   8.677   9.488   6.990 -1.4419 -0.9041  1.2679
33906SOL     OW 6173   5.684   6.178   9.179 -0.0457 -0.3526 -0.1190
33906SOL    HW1 6174   5.629   6.215   9.248  3.3081  1.6298  1.7433
33906SOL    HW2 6175   5.666   6.231   9.101 -0.8463  0.1768  0.4205
33907SOL     OW 6176   8.157   1.745   2.822 -0.1939 -0.3465  0.3612
33907SOL    HW1 6177   8.211   1.797   2.762 -0.7849 -1.1028 -0.8718
33907SOL    HW2 6178   8.067   1.763   2.794 -0.5157 -0.2819  1.4041
33908SOL     OW 6179   4.648   4.949   1.603  0.3566 -0.7114  0.4371
33908SOL    HW1 6180   4.636   4.939   1.509 -0.7737  1.5373  0.2781
33908SOL    HW2 6181   4.740   4.974   1.613 -0.0012  1.0712 -0.3291
33909SOL     OW 6182   2.373   2.651   0.829 -0.1851  0.0638 -0.4007
33909SOL    HW1 6183   2.339   2.704   0.757  0.7435 -0.8479 -1.5265
33909SOL    HW2 6184   2.308   2.581   0.839 -0.7493  0.6577  0.2384
33910SOL     OW 6185   3.398   2.313   6.732  0.3657 -0.2977 -0.9011
33910SOL    HW1 6186   3.395   2.397   6.686 -1.8614 -0.5999 -1.4448
33910SOL    HW2 6187   3.486   2.279   6.716  1.4337  2.0496 -0.3929
33911SOL     OW 6188   6.759   6.125   7.039 -0.3063  0.1047  0.5629
33911SOL    HW1 6189   6.808   6.189   6.989 -0.7426  1.1138  1.3765
33911SOL    HW2 6190   6.787   6.040   7.005 -0.1517  0.7308 -0.9427
33912SOL     OW 6191   5.255   2.295   6.015  0.7051 -0.4109 -0.4427
33912SOL    HW1 6192   5.348   2.277   6.024  0.6950  0.0010  0.6545
33912SOL    HW2 6193   5.213   2.209   6.012  1.2248 -0.6262 -2.4459
33913SOL     OW 6194   0.324   4.630   9.833  0.0354  0.1322  0.3027
33913SOL    HW1 6195   0.328   4.723   9.813 -0.4414  0.4779  1.6882
33913SOL    HW2 6196   0.404   4.612   9.883 -0.8683  0.3210  1.9056
33914SOL     OW 6197   7.157   7.851   8.319 -0.2564 -0.3079  0.1505
33914SOL    HW1 6198   7.206   7.922   8.361  0.2115 -0.7089  0.2950
33914SOL    HW2 6199   7.218   7.777   8.318 -1.1365 -1.0958  1.1515
33915SOL     OW 6200   6.643   8.738   5.150  0.3778  0.1867  0.2635
33915SOL    HW1 6201   6.687   8.737   5.065  0.4555  0.1766  0.3039
33915SOL    HW2 6202   6.699   8.685   5.207 -0.1032 -0.5217  0.1007
33916SOL     OW 6203   0.641   7.444   6.770  0.6793 -0.5933 -0.1620
33916SOL    HW1 6204   0.705   7.378   6.794  0.3691 -0.4353  1.1748
33916SOL    HW2 6205   0.591   7.460   6.850 -1.0577 -0.7375 -1.1610
33917SOL     OW 6206   9.586   3.025   2.460  0.3352  0.0440  0.2508
33917SOL    HW1 6207   9.501   3.006   2.420 -0.1803 -0.2359  1.4304
33917SOL    HW2 6208   9.632   2.941   2.459  0.0641 -0.1157  0.8267
33918SOL     OW 6209   7.939   1.863   6.863 -0.0798 -0.2090 -0.4662
33918SOL    HW1 6210   8.000   1.892   6.931 -0.1533  0.4909 -0.6939
33918SOL    HW2 6211   7.978   1.893   6.781 -0.9147  0.6129 -0.5824
33919SOL     OW 6212   1.094   3.234  10.217  0.0688 -0.5439  0.2919
33919SOL    HW1 6213   1.163   3.189  10.267  0.9336 -0.3788 -0.7302
33919SOL    HW2 6214   1.056   3.296  10.279  2.6796  1.3108  0.1625
33920SOL     OW 6215   9.055   4.267  10.089  0.2127 -0.4767  0.0523
33920SOL    HW1 6216   9.014   4.301  10.168 -0.9472  1.5454 -1.3095
33920SOL    HW2 6217   9.019   4.179  10.078 -1.7590  0.2453  0.3471
33921SOL     OW 6218   6.956   6.724  10.849  0.1088  0.0681 -0.1049
33921SOL    HW1 6219   6.997   6.735  10.935  0.4076  0.4823 -0.2960
33921SOL    HW2 6220   7.029   6.726  10.787 -0.2405  1.3792 -0.4956
33922SOL     OW 6221   4.111   4.275   6.681 -0.6513 -0.8159 -0.7723
33922SOL    HW1 6222   4.081   4.277   6.771 -2.2215 -1.7565 -1.2383
33922SOL    HW2 6223   4.206   4.286   6.687 -0.5032 -2.5416  1.1088
33923SOL     OW 6224   3.555  10.308   8.335 -0.2414 -0.1559  0.0213
33923SOL    HW1 6225   3.536  10.388   8.384  0.0100  0.1049 -0.3029
33923SOL    HW2 6226   3.625  10.333   8.275  1.0296 -1.0447  1.0788
33924SOL     OW 6227   8.600   5.329   4.291 -0.2173  0.0805 -0.1250
33924SOL    HW1 6228   8.537   5.257   4.295 -0.8700  0.6847  0.8421
33924SOL    HW2 6229   8.643   5.328   4.377  0.2231  0.4520 -0.3354
33925SOL     OW 6230  10.932   3.559  10.263 -0.0605  0.3600  0.2866
33925SOL    HW1 6231  10.951   3.541  10.171 -0.5529 -0.7499  0.3925
33925SOL    HW2 6232  10.990   3.501  10.312  1.1765  1.9008  0.7256
33926SOL     OW 6233  10.306   1.636   4.771  0.5653  0.7929  0.3135
33926SOL    HW1 6234  10.321   1.632   4.676  2.8049  0.0978  0.6442
33926SOL    HW2 6235  10.314   1.729   4.792 -2.0812  1.2635 -0.4259
33927SOL     OW 6236   4.145   7.969   2.334 -0.3374  0.6574  0.1003
33927SOL    HW1 6237   4.173   7.877   2.337 -0.2872  0.6948  0.9704
33927SOL    HW2 6238   4.141   7.989   2.240  2.6192  0.6820 -0.1092
33928SOL     OW 6239   3.266   0.937  11.069  0.1457  0.5311  0.6597
33928SOL    HW1 6240   3.340   0.990  11.038  1.3678 -1.0876  0.6467
33928SOL    HW2 6241   3.301   0.890  11.145 -1.3155  0.7324  1.5042
33929SOL     OW 6242   7.416   2.876   2.197 -0.0448  0.4252  0.3959
33929SOL    HW1 6243   7.486   2.843   2.141  0.2337  3.1610 -1.0984
33929SOL    HW2 6244   7.339   2.825   2.172  0.6853 -0.2812 -0.4859
33930SOL     OW 6245  10.295   5.447   5.046  0.4322 -0.0051  0.3602
33930SOL    HW1 6246  10.244   5.468   4.967  1.9360  0.3873 -0.5563
33930SOL    HW2 6247  10.265   5.509   5.112  0.3891  0.8516 -0.4462
33931SOL     OW 6248   5.495   7.072   8.494 -0.2377 -0.0045 -0.4389
33931SOL    HW1 6249   5.494   7.002   8.559  1.7595  1.3811  1.2108
33931SOL    HW2 6250   5.502   7.027   8.410 -3.4271 -1.8871  0.1480
33932SOL     OW 6251   2.641   6.059   0.495  0.0488  0.1566 -0.0133
33932SOL    HW1 6252   2.613   6.137   0.544 -0.4794 -1.0203  1.6762
33932SOL    HW2 6253   2.716   6.026   0.544  1.0683  0.2826 -1.4467
33933SOL     OW 6254  10.263   1.369   7.437  0.5885 -0.6547  0.0065
33933SOL    HW1 6255  10.189   1.404   7.387  1.3178  0.0180 -0.6382
33933SOL    HW2 6256  10.226   1.346   7.522  0.0082  1.6359  0.4646
33934SOL     OW 6257   7.322   7.571   9.736 -0.3496  0.3448  0.4383
33934SOL    HW1 6258   7.290   7.621   9.811  2.1248 -0.6148  2.2873
33934SOL    HW2 6259   7.294   7.481   9.753 -1.7893  0.4683 -1.0678
33935SOL     OW 6260   1.273   6.085   2.210  0.2228 -0.3065  0.0432
33935SOL    HW1 6261   1.234   6.028   2.144 -3.9046  2.0998  0.0753
33935SOL    HW2 6262   1.222   6.070   2.289  2.0358  0.2119  1.3915
33936SOL     OW 6263   7.805   9.494   2.921  0.0510  0.6964  0.0648
33936SOL    HW1 6264   7.735   9.443   2.881  0.5171 -0.6895  0.9357
33936SOL    HW2 6265   7.854   9.531   2.848 -1.9010  2.1778 -0.5599
33937SOL     OW 6266   9.326   9.050   7.354  0.1113  0.5339 -0.4262
33937SOL    HW1 6267   9.278   9.109   7.412  0.2432  1.6196 -1.3880
33937SOL    HW2 6268   9.314   8.963   7.392 -1.8056  0.9100 -0.1112
33938SOL     OW 6269   5.373   0.506   3.112 -0.0565  0.4317  0.2894
33938SOL    HW1 6270   5.425   0.452   3.053  0.8943  0.5973  0.9578
33938SOL    HW2 6271   5.284   0.472   3.104  0.6159 -1.6518  1.1725
33939SOL     OW 6272   1.675   9.889   6.052  0.5369 -0.0019  0.1821
33939SOL    HW1 6273   1.637   9.975   6.033 -2.0533 -1.0854  0.1550
33939SOL    HW2 6274   1.745   9.880   5.987 -0.5653  1.2158 -1.2584
33940SOL     OW 6275   8.447   5.192   6.219 -0.1680 -0.3476 -0.0732
33940SOL    HW1 6276   8.532   5.196   6.176  0.1708 -0.2401  0.5908
33940SOL    HW2 6277   8.385   5.173   6.149  0.4900 -1.0895 -0.4642
33941SOL     OW 6278   6.806  10.404   1.187  0.3644 -0.5258  0.2062
33941SOL    HW1 6279   6.720  10.430   1.220  0.1490  0.3104 -0.9351
33941SOL    HW2 6280   6.800  10.310   1.173  0.6268 -1.0251  2.9234
33942SOL     OW 6281   0.042   2.879   4.861  0.3849  0.1169  0.7425
33942SOL    HW1 6282   0.061   2.863   4.953  0.0097 -1.4655  0.5650
33942SOL    HW2 6283  -0.054   2.881   4.856  0.4068  0.6411  0.4510
33943SOL     OW 6284   5.686   4.440   0.922  0.1256  0.3410  0.1293
33943SOL    HW1 6285   5.613   4.434   0.860  0.3135  1.9066 -0.2799
33943SOL    HW2 6286   5.764   4.442   0.866  0.3998  0.1701  0.5044
33944SOL     OW 6287   2.256   0.312   0.268 -0.1304 -0.0818 -0.3554
33944SOL    HW1 6288   2.238   0.308   0.175 -1.3450 -0.9790 -0.0952
33944SOL    HW2 6289   2.220   0.397   0.296 -2.4529 -1.0517 -0.1933
33945SOL     OW 6290   1.067   7.390   6.713  0.3930  0.2437  0.0674
33945SOL    HW1 6291   1.146   7.380   6.766  0.1578  3.4330  1.2166
33945SOL    HW2 6292   1.002   7.334   6.756  1.1650  0.1077  1.0866
33946SOL     OW 6293   0.313   2.907   0.193  0.0904 -0.9176 -0.2584
33946SOL    HW1 6294   0.346   2.897   0.282  1.6351 -2.0262 -0.9016
33946SOL    HW2 6295   0.277   2.995   0.190  3.3334  0.5776  0.4618
33947SOL     OW 6296   4.783   9.105   1.846 -0.1445 -0.0070 -0.2546
33947SOL    HW1 6297   4.871   9.135   1.870 -0.5417  1.9504 -1.0346
33947SOL    HW2 6298   4.757   9.047   1.918  0.9932  1.0082  1.0450
33948SOL     OW 6299   9.657   8.914   6.730 -0.3253  0.2598 -0.0264
33948SOL    HW1 6300   9.630   8.936   6.819 -0.6527 -1.7343  0.4187
33948SOL    HW2 6301   9.648   8.996   6.681 -0.4192  1.3281  1.6912
33949SOL     OW 6302   7.299   9.781   0.045 -0.2740 -0.3087  0.1388
33949SOL    HW1 6303   7.293   9.753   0.136 -3.9967  1.6948  0.7213
33949SOL    HW2 6304   7.225   9.736   0.002 -1.0358  1.8041 -0.8662
33950SOL     OW 6305   0.782   4.318   1.523  0.3033 -0.0543  0.2657
33950SOL    HW1 6306   0.690   4.316   1.497  0.2786  1.9012  0.0434
33950SOL    HW2 6307   0.822   4.243   1.478 -0.9207 -0.1678 -0.6701
33951SOL     OW 6308   5.694   8.370   4.866  0.5941 -0.3316 -0.4706
33951SOL    HW1 6309   5.629   8.301   4.882 -0.6884  0.7434 -0.8512
33951SOL    HW2 6310   5.644   8.441   4.825  2.5604 -0.5812 -3.5715
33952SOL     OW 6311   0.950   5.254   1.558 -0.0174  0.6252  0.0012
33952SOL    HW1 6312   0.882   5.205   1.512 -0.8670  2.5801 -0.9446
33952SOL    HW2 6313   0.917   5.265   1.647 -0.8012  1.2708 -0.3602
33953SOL     OW 6314  10.754   0.740   1.091 -0.9296  0.4371 -0.5839
33953SOL    HW1 6315  10.692   0.743   1.164  0.8380  0.4617  0.9600
33953SOL    HW2 6316  10.818   0.808   1.111  1.0107 -1.2541 -0.8282
33954SOL     OW 6317   3.786   5.116  10.058 -0.1751 -0.7726 -0.4144
33954SOL    HW1 6318   3.823   5.133  10.145  0.7384  0.8934 -1.0899
33954SOL    HW2 6319   3.843   5.049  10.021 -0.6448 -1.5881  0.2928
33955SOL     OW 6320   8.770   6.154   8.903 -0.3038  0.5321 -0.6239
33955SOL    HW1 6321   8.828   6.206   8.960  0.3319 -0.6638 -0.1462
33955SOL    HW2 6322   8.708   6.218   8.869  0.2043  1.5474  0.2584
33956SOL     OW 6323   7.105   6.667  10.632 -0.0197  0.0680 -0.5999
33956SOL    HW1 6324   7.160   6.605  10.680 -0.9296  1.7606  2.9245
33956SOL    HW2 6325   7.167   6.715  10.576  1.8764  0.5961  1.7829
33957SOL     OW 6326   9.740   5.856   4.081 -0.4804 -0.0367 -0.1574
33957SOL    HW1 6327   9.682   5.914   4.131 -2.5526 -0.2972 -2.0976
33957SOL    HW2 6328   9.683   5.787   4.048  1.3324 -1.4044 -0.5894
33958SOL     OW 6329   6.822   3.856   8.140  0.1650  0.5624 -0.6756
33958SOL    HW1 6330   6.757   3.830   8.074  0.2535  0.0854 -0.5807
33958SOL    HW2 6331   6.773   3.911   8.201  0.3747  2.1008 -1.8405
33959SOL     OW 6332   1.935   9.550   4.873  0.7108  0.3724  0.4410
33959SOL    HW1 6333   1.938   9.616   4.804 -2.3565 -0.0443 -0.2171
33959SOL    HW2 6334   1.843   9.543   4.896  1.2181 -2.0508  2.1284
33960SOL     OW 6335   6.526   0.968  10.648  0.0268  0.4787 -0.6954
33960SOL    HW1 6336   6.515   1.037  10.582 -1.3756  0.5603 -0.4227
33960SOL    HW2 6337   6.438   0.930  10.657  0.5524 -0.6342 -0.0667
33961SOL     OW 6338   5.092   8.360   3.683 -0.3698 -0.1688  0.1868
33961SOL    HW1 6339   5.030   8.328   3.618 -2.0380  0.2173  1.5217
33961SOL    HW2 6340   5.048   8.433   3.726  1.7373  1.3162 -0.0139
33962SOL     OW 6341   8.049   9.934  10.914  0.2539  0.0257  0.1389
33962SOL    HW1 6342   8.107   9.860  10.936  0.0652  0.3212  1.7314
33962SOL    HW2 6343   7.988   9.939  10.987 -0.7402  0.7875 -0.7186
33963SOL     OW 6344   2.214   5.308   1.987 -0.1419  0.1054 -0.0004
33963SOL    HW1 6345   2.175   5.234   1.942  0.6333 -0.2731 -0.0712
33963SOL    HW2 6346   2.203   5.382   1.926  1.3475 -0.5043 -1.0734
33964SOL     OW 6347  10.014   6.631   2.628 -0.0526 -0.3161 -0.3394
33964SOL    HW1 6348   9.933   6.592   2.661 -1.1638  0.0427 -2.4590
33964SOL    HW2 6349  10.061   6.658   2.706 -2.0600 -0.3628  0.9639
33965SOL     OW 6350  10.271   8.936   4.344 -0.5419 -0.0105  0.3844
33965SOL    HW1 6351  10.265   8.948   4.249  0.4272 -0.1721  0.2946
33965SOL    HW2 6352  10.357   8.896   4.358 -1.1262 -1.0227  1.2299
33966SOL     OW 6353   5.785  11.073   0.293  0.5929  0.1013 -0.0253
33966SOL    HW1 6354   5.848  11.003   0.275  0.4566 -0.2533  0.8197
33966SOL    HW2 6355   5.834  11.136   0.346 -0.1938 -1.0224  2.1809
33967SOL     OW 6356   1.088   2.132   3.762 -0.3279  0.1759 -0.0491
33967SOL    HW1 6357   1.004   2.178   3.760 -0.9849 -1.0049 -0.9963
33967SOL    HW2 6358   1.090   2.083   3.680  0.7220 -0.8062  0.5365
33968SOL     OW 6359   1.059   9.364   1.569 -0.3699 -0.3665  0.5163
33968SOL    HW1 6360   1.135   9.365   1.627  1.0801 -0.0305 -1.2815
33968SOL    HW2 6361   1.075   9.437   1.508 -1.1122 -1.5168 -1.1222
33969SOL     OW 6362   7.791   0.978   1.174  0.6961 -0.2044  0.5978
33969SOL    HW1 6363   7.876   0.996   1.133  0.3697  1.9618  0.7548
33969SOL    HW2 6364   7.727   1.003   1.107  0.1780  1.4465  1.6455
33970SOL     OW 6365   1.106   7.916   8.456 -0.0867 -0.1994  0.7336
33970SOL    HW1 6366   1.024   7.933   8.410  0.1494 -0.8057  0.0613
33970SOL    HW2 6367   1.085   7.931   8.549 -0.3618  1.8323  0.3941
33971SOL     OW 6368   7.924   7.091   7.288 -0.2368  0.0938  0.3811
33971SOL    HW1 6369   7.965   7.102   7.374 -1.4478 -2.2814  1.3461
33971SOL    HW2 6370   7.988   7.042   7.237  0.3059  1.1309  0.0441
33972SOL     OW 6371   8.468  10.411   7.231 -0.1275  0.5466 -0.0411
33972SOL    HW1 6372   8.510  10.346   7.287 -1.6622 -0.5036 -0.0596
33972SOL    HW2 6373   8.527  10.419   7.155  0.5417 -0.1170  0.4030
33973SOL     OW 6374   0.736   7.521   7.217 -0.1985  0.0231 -0.1091
33973SOL    HW1 6375   0.766   7.561   7.299 -0.4897  0.8805 -0.4088
33973SOL    HW2 6376   0.797   7.555   7.151 -1.5532  1.5110 -0.6703
33974SOL     OW 6377   2.396  10.523   3.027  0.3032 -0.0546  0.3767
33974SOL    HW1 6378   2.466  10.497   3.087  0.7424  1.4941  0.5689
33974SOL    HW2 6379   2.439  10.530   2.942 -0.0683 -1.0754  0.0871
33975SOL     OW 6380   1.232   2.118   5.928  0.2700  0.0273 -0.0224
33975SOL    HW1 6381   1.252   2.031   5.963 -2.3677 -1.0326 -0.9764
33975SOL    HW2 6382   1.246   2.111   5.834  0.4231  0.7854 -0.0674
33976SOL     OW 6383   5.918   5.630   0.784  0.4576  0.7965 -0.0687
33976SOL    HW1 6384   5.842   5.644   0.727  0.6113 -1.6079 -1.0189
33976SOL    HW2 6385   5.886   5.648   0.872 -0.7363  1.4620 -0.6193
33977SOL     OW 6386   8.426   2.031   5.874  0.3984  0.4036 -0.0596
33977SOL    HW1 6387   8.333   2.011   5.887  0.7038 -0.0750  1.5832
33977SOL    HW2 6388   8.462   1.952   5.833  0.5670 -0.4992  1.7110
33978SOL     OW 6389   3.507   5.151   2.218  0.5854  0.2725  0.2791
33978SOL    HW1 6390   3.587   5.170   2.169  1.1878 -0.0185  1.1401
33978SOL    HW2 6391   3.523   5.066   2.258 -0.6522 -0.3900 -0.5542
33979SOL     OW 6392   0.378   5.660   0.169 -0.0658  0.0237 -0.5818
33979SOL    HW1 6393   0.293   5.683   0.133 -0.5764  0.2116  0.6972
33979SOL    HW2 6394   0.426   5.743   0.172 -0.7044  0.3687  0.8959
33980SOL     OW 6395   6.223  10.227   9.577  0.1243  0.4705  0.0288
33980SOL    HW1 6396   6.207  10.218   9.483  1.1846 -0.3818 -0.0995
33980SOL    HW2 6397   6.205  10.319   9.596  1.0190  0.9396 -1.2544
33981SOL     OW 6398   9.027   8.118   9.406  0.1738 -0.5250  0.7072
33981SOL    HW1 6399   9.013   8.054   9.476 -0.5810 -1.6435 -0.4224
33981SOL    HW2 6400   9.092   8.078   9.349  0.0030 -0.1060  0.2078
33982SOL     OW 6401   4.155  10.884   6.356 -0.2324 -0.0241  0.0821
33982SOL    HW1 6402   4.115  10.869   6.270 -0.8567  1.4593  0.0849
33982SOL    HW2 6403   4.228  10.943   6.337 -1.4539  1.7828  0.7518
33983SOL     OW 6404   2.732   6.104   9.941 -0.0871 -0.1113  0.2101
33983SOL    HW1 6405   2.731   6.137  10.031 -1.0840 -1.7746  0.8578
33983SOL    HW2 6406   2.641   6.078   9.924  0.3036 -0.8483 -0.8873
33984SOL     OW 6407   8.811   7.428   1.243  0.0177 -0.0749  0.1743
33984SOL    HW1 6408   8.828   7.506   1.295  0.6599  0.6207 -1.0246
33984SOL    HW2 6409   8.869   7.361   1.280  1.3456  0.7353 -0.3454
33985SOL     OW 6410   0.229  10.711   2.122  0.0239  0.4099  0.5867
33985SOL    HW1 6411   0.191  10.740   2.039  0.2042 -1.7026 -0.2972
33985SOL    HW2 6412   0.281  10.785   2.152  0.3721  1.0488 -1.4641
33986SOL     OW 6413   4.820   4.465   5.442 -1.0499  0.4794 -0.1500
33986SOL    HW1 6414   4.800   4.537   5.383  1.2218  0.8711 -0.5474
33986SOL    HW2 6415   4.876   4.504   5.510 -0.2494 -0.7561 -0.0573
33987SOL     OW 6416  10.593   6.280   5.515 -0.3739 -0.6186 -0.3108
33987SOL    HW1 6417  10.518   6.299   5.572 -2.2129 -1.0676 -2.4410
33987SOL    HW2 6418  10.635   6.365   5.502 -1.4543 -0.0682 -0.3175
33988SOL     OW 6419   7.506   5.721   1.740  0.0688  0.0472  0.3806
33988SOL    HW1 6420   7.558   5.796   1.771  2.0838 -1.3945  0.7116
33988SOL    HW2 6421   7.441   5.707   1.809 -0.7086  1.7725  0.0622
33989SOL     OW 6422   7.642   8.287   5.771  0.5768 -0.5357  0.3098
33989SOL    HW1 6423   7.641   8.322   5.682  2.2717  0.6226  0.7092
33989SOL    HW2 6424   7.557   8.243   5.780 -0.1097  0.3235 -1.4695
33990SOL     OW 6425   8.422   6.370   7.677  0.0013 -0.0610  0.3511
33990SOL    HW1 6426   8.463   6.447   7.715  0.2313 -1.1880  2.5755
33990SOL    HW2 6427   8.328   6.387   7.684  0.0077 -0.4822  2.1642
33991SOL     OW 6428  10.088   9.041   2.651  0.0792 -0.6078  0.0027
33991SOL    HW1 6429  10.012   9.095   2.670 -0.5923 -1.3284 -0.6100
33991SOL    HW2 6430  10.159   9.081   2.702 -0.3739  0.8922 -0.4939
33992SOL     OW 6431  10.712   5.852   4.847  0.2834 -0.2637  0.3088
33992SOL    HW1 6432  10.769   5.775   4.848  0.0717 -0.4330 -0.2666
33992SOL    HW2 6433  10.772   5.926   4.855  0.5060 -0.4818  0.6637
33993SOL     OW 6434   2.774   1.823   5.012  0.2467  0.2525 -0.4675
33993SOL    HW1 6435   2.850   1.817   5.071 -1.0924 -1.7883  1.1996
33993SOL    HW2 6436   2.721   1.746   5.033 -2.5632  1.8396 -1.1685
33994SOL     OW 6437   3.240   3.023   2.117 -0.1832 -0.1545  0.3024
33994SOL    HW1 6438   3.213   2.976   2.196 -0.2405 -2.7892 -1.2050
33994SOL    HW2 6439   3.162   3.024   2.062  0.4676 -0.3265 -0.6338
33995SOL     OW 6440   2.686   9.116   8.519 -0.3372  0.7785  0.3775
33995SOL    HW1 6441   2.738   9.167   8.458  1.2690 -0.7546  0.3751
33995SOL    HW2 6442   2.690   9.026   8.485  1.8019 -0.4360  3.3848
33996SOL     OW 6443   1.559   3.000   2.258 -0.0813 -0.3364  0.4184
33996SOL    HW1 6444   1.630   3.063   2.273 -0.0445 -0.6790  1.9153
33996SOL    HW2 6445   1.604   2.916   2.246 -0.2020 -0.5496  1.3481
33997SOL     OW 6446   5.869   9.526   6.185 -0.1802  0.5854  0.8444
33997SOL    HW1 6447   5.948   9.503   6.137 -2.8809 -2.8491 -2.5356
33997SOL    HW2 6448   5.884   9.492   6.273  1.3201 -2.0439 -0.3326
33998SOL     OW 6449   4.547   6.088   3.195 -0.5860 -0.1776  0.1461
33998SOL    HW1 6450   4.636   6.071   3.166 -0.5347  0.4376 -0.0839
33998SOL    HW2 6451   4.544   6.183   3.208 -1.3070 -0.1455 -0.2008
33999SOL     OW 6452   3.342   9.224   2.019  0.5139  0.0881  0.5064
33999SOL    HW1 6453   3.258   9.232   1.974 -0.4412 -0.8930  2.0461
33999SOL    HW2 6454   3.392   9.162   1.965  1.2005  2.3319 -1.6559
34000SOL     OW 6455   3.536   1.930   8.216 -0.2077 -0.5679  0.3563
34000SOL    HW1 6456   3.530   2.019   8.251  2.4147  0.9368 -2.5353
34000SOL    HW2 6457   3.611   1.891   8.262 -1.2209 -1.2757  1.4644
34001SOL     OW 6458   3.466   2.854   6.471 -0.0528 -0.1841 -0.6029
34001SOL    HW1 6459   3.401   2.861   6.540  0.4456 -1.5095  0.0423
34001SOL    HW2 6460   3.490   2.944   6.451  0.0779  0.2331  1.2372
34002SOL     OW 6461   6.199  10.748   6.038  0.0104  0.4436  0.1191
34002SOL    HW1 6462   6.212  10.674   6.097 -1.0295  0.0042 -0.1789
34002SOL    HW2 6463   6.265  10.813   6.065  0.4146 -0.2726  0.8859
34003SOL     OW 6464   2.990   5.726   4.197  0.2442 -0.4712  0.6719
34003SOL    HW1 6465   3.003   5.813   4.235  0.4895  0.9729 -2.4085
34003SOL    HW2 6466   2.945   5.676   4.266 -0.1673  2.1482  2.4453
34004SOL     OW 6467   0.819   4.029   3.101 -0.1393  0.3487  0.2421
34004SOL    HW1 6468   0.752   4.059   3.163 -0.1180  0.1527  0.3622
34004SOL    HW2 6469   0.770   3.978   3.036 -0.0687 -0.0815  0.5172
34005SOL     OW 6470  10.356   6.171   9.653 -0.5718  0.3680 -0.0307
34005SOL    HW1 6471  10.411   6.204   9.582  0.5490  1.4229  1.2781
34005SOL    HW2 6472  10.302   6.103   9.612  0.3120  0.6730 -1.7853
34006SOL     OW 6473  10.379   3.335   2.946 -0.4859 -0.5824 -0.4231
34006SOL    HW1 6474  10.427   3.326   2.863  1.1389 -1.3654  0.5361
34006SOL    HW2 6475  10.377   3.429   2.963 -0.7398 -0.4215 -1.2895
34007SOL     OW 6476   5.807   2.364   4.177 -0.2628 -0.0050 -0.0272
34007SOL    HW1 6477   5.819   2.274   4.208 -1.2318  0.4845  1.9333
34007SOL    HW2 6478   5.833   2.419   4.251 -1.0819  1.3039 -0.6662
34008SOL     OW 6479   4.595   7.846   0.906 -0.1476  0.6285  0.3734
34008SOL    HW1 6480   4.656   7.904   0.860 -0.2293  0.8042  0.4812
34008SOL    HW2 6481   4.509   7.888   0.894 -0.3826 -0.0931 -0.5414
34009SOL     OW 6482   5.367   2.479   2.159 -0.2939  0.2044  0.2958
34009SOL    HW1 6483   5.293   2.518   2.113  0.7961 -0.2268 -1.9596
34009SOL    HW2 6484   5.403   2.415   2.097  4.4422  3.1507 -0.5633
34010SOL     OW 6485   4.559   4.933   9.741  0.1420 -0.0667 -0.3523
34010SOL    HW1 6486   4.577   5.027   9.734 -0.6135  0.3133  1.9716
34010SOL    HW2 6487   4.478   4.929   9.792  1.1526 -2.0052  1.2334
34011SOL     OW 6488   6.399   5.952   1.879  0.2178  0.2862  0.0502
34011SOL    HW1 6489   6.456   6.026   1.858 -0.4475  0.6436 -0.5277
34011SOL    HW2 6490   6.348   5.937   1.799 -1.6314  1.0040  1.0342
34012SOL     OW 6491   3.757   3.653   4.870  0.6973  0.2659 -0.4458
34012SOL    HW1 6492   3.814   3.594   4.821  0.7104  2.3846 -3.2748
34012SOL    HW2 6493   3.668   3.623   4.850  0.7423 -0.0703 -0.1366
34013SOL     OW 6494  10.318   8.585   1.028  0.0917 -0.2453  0.9079
34013SOL    HW1 6495  10.334   8.533   1.106  1.3770  1.5786  1.9351
34013SOL    HW2 6496  10.311   8.675   1.060 -2.9704  0.2283 -0.6716
34014SOL     OW 6497  10.729   5.608   8.987 -0.0785  0.3303 -0.7429
34014SOL    HW1 6498  10.701   5.551   8.915 -2.0033  1.9890 -1.4100
34014SOL    HW2 6499  10.663   5.594   9.055  0.4818  0.4290 -0.1699
34015SOL     OW 6500   0.587   0.197   6.692  0.5872 -0.4210  0.1485
34015SOL    HW1 6501   0.530   0.192   6.769 -1.5250  1.4116 -1.1897
34015SOL    HW2 6502   0.613   0.289   6.688 -1.2059  0.0725 -2.5186
34016SOL     OW 6503  10.853  10.781   8.206  0.2290 -0.2370 -0.1235
34016SOL    HW1 6504  10.911  10.773   8.281  0.8022 -2.0116 -0.6913
34016SOL    HW2 6505  10.792  10.708   8.216 -1.1864  0.9063 -0.1583
34017SOL     OW 6506   0.428   2.353   0.398 -0.4088  0.3113 -0.2621
34017SOL    HW1 6507   0.399   2.386   0.483  0.2000  1.1954 -0.3766
34017SOL    HW2 6508   0.347   2.334   0.350 -0.7835  1.3289 -0.0542
34018SOL     OW 6509   0.099   6.202   4.744 -1.0770 -0.1762  0.1272
34018SOL    HW1 6510   0.003   6.206   4.748 -1.0613  2.1992 -0.2532
34018SOL    HW2 6511   0.126   6.291   4.722  1.3366 -0.2488  2.2026
34019SOL     OW 6512   2.993   5.932   7.761  0.2260  0.6830 -0.2803
34019SOL    HW1 6513   3.070   5.882   7.736 -0.1487  0.4588 -1.0126
34019SOL    HW2 6514   2.952   5.880   7.830 -0.4132 -0.2812 -1.3538
34020SOL     OW 6515   0.725   4.631   2.428 -0.1542  0.4055  0.3230
34020SOL    HW1 6516   0.715   4.667   2.516 -0.1566  0.2829  0.3739
34020SOL    HW2 6517   0.759   4.703   2.375 -2.6121  1.2757 -0.1922
34021SOL     OW 6518   0.822   5.352   5.654 -0.3269 -0.3400 -0.8942
34021SOL    HW1 6519   0.886   5.396   5.711 -1.8266  2.2604 -1.0268
34021SOL    HW2 6520   0.871   5.331   5.574  0.1543  3.1925 -1.7129
34022SOL     OW 6521   6.206   3.412  10.931  0.2772  0.7713  0.6457
34022SOL    HW1 6522   6.282   3.439  10.880  0.5826  0.0148  0.6874
34022SOL    HW2 6523   6.194   3.320  10.909 -1.5504  1.2387 -0.5135
34023SOL     OW 6524   1.103  10.217   6.267  0.0829  0.2268 -0.2422
34023SOL    HW1 6525   1.159  10.250   6.337  0.0717  2.1649 -1.0713
34023SOL    HW2 6526   1.013  10.234   6.297  0.0190 -0.5926  0.0340
34024SOL     OW 6527   6.011   7.856   9.613 -0.4959 -0.3145 -0.2598
34024SOL    HW1 6528   6.041   7.819   9.696 -1.6912  0.0103  0.3311
34024SOL    HW2 6529   6.015   7.782   9.552  0.3409 -0.5690  0.0747
34025SOL     OW 6530   1.514   8.557   7.176 -0.8166  0.1759 -0.2004
34025SOL    HW1 6531   1.479   8.646   7.175 -1.3122 -0.0121  0.1607
34025SOL    HW2 6532   1.559   8.549   7.260 -0.9789  0.0063 -0.1291
34026SOL     OW 6533   6.224   4.544   4.209 -0.6000 -0.2701  0.3855
34026SOL    HW1 6534   6.197   4.457   4.238 -0.3293 -0.8201 -0.9363
34026SOL    HW2 6535   6.317   4.536   4.191 -0.2915  0.6443  1.4358
34027SOL     OW 6536   0.405   8.727   1.736 -0.0895 -0.0539  1.2227
34027SOL    HW1 6537   0.412   8.784   1.813  1.6481  1.1622  0.2252
34027SOL    HW2 6538   0.493   8.693   1.723 -0.2808  0.0010 -0.4019
34028SOL     OW 6539   6.602   4.498   3.716  0.6909 -0.2223  0.0230
34028SOL    HW1 6540   6.630   4.513   3.806  0.3610 -0.5858  0.1858
34028SOL    HW2 6541   6.677   4.455   3.675 -0.1096 -2.5076  0.8332
34029SOL     OW 6542   6.072   7.078   8.127  0.0048 -0.3648  0.2840
34029SOL    HW1 6543   6.008   7.015   8.093 -0.7094  0.3230  0.3194
34029SOL    HW2 6544   6.153   7.058   8.080 -0.3844 -0.8836 -0.1815
34030SOL     OW 6545   0.523   3.753   7.581  0.0250  0.3919 -0.1755
34030SOL    HW1 6546   0.595   3.789   7.529  1.2154  0.4383  1.4142
34030SOL    HW2 6547   0.447   3.754   7.522  1.1654  0.9509 -1.6950
34031SOL     OW 6548   9.964   3.742   1.054  0.5365  0.1769 -0.1195
34031SOL    HW1 6549   9.987   3.728   1.146  1.0386  1.2567 -0.0682
34031SOL    HW2 6550   9.877   3.782   1.058  0.2104 -0.5043 -0.1633
34032SOL     OW 6551   8.449   0.114   8.293 -0.2847  0.1544  0.3606
34032SOL    HW1 6552   8.507   0.039   8.284 -0.4554  0.1190 -0.5711
34032SOL    HW2 6553   8.507   0.190   8.282 -0.6055  0.1170 -2.3097
34033SOL     OW 6554   1.008   6.040   9.228 -0.0441  0.0054  0.9703
34033SOL    HW1 6555   1.064   6.113   9.253 -0.0514  1.1587 -1.9670
34033SOL    HW2 6556   0.924   6.080   9.206  0.8880 -0.1225 -4.0144
34034SOL     OW 6557   3.302   4.352   1.615  0.1571 -0.1987  0.1496
34034SOL    HW1 6558   3.265   4.270   1.648 -1.0400 -0.5959 -1.9721
34034SOL    HW2 6559   3.232   4.416   1.627  0.4466  0.1031  0.2210
34035SOL     OW 6560   3.624   4.166   4.021  0.2227  0.1356  0.0728
34035SOL    HW1 6561   3.606   4.073   4.031  1.2127  0.0769  1.5616
34035SOL    HW2 6562   3.708   4.169   3.976  0.4244  0.2987  0.4569
34036SOL     OW 6563   1.878   3.301   3.300  0.0559 -0.1337 -0.0892
34036SOL    HW1 6564   1.927   3.382   3.311 -0.6921  0.3138  0.0309
34036SOL    HW2 6565   1.786   3.329   3.296 -0.3251 -1.0975  1.3397
34037SOL     OW 6566   2.980   3.519   6.109  0.3389 -0.4789  0.2025
34037SOL    HW1 6567   2.886   3.533   6.118  0.5553  0.2955  1.4343
34037SOL    HW2 6568   2.988   3.435   6.063 -0.9435 -0.3473 -0.2899
34038SOL     OW 6569   3.144   1.713  10.049 -0.0405  0.1078 -0.2459
34038SOL    HW1 6570   3.195   1.770   9.992  0.7866 -0.1936  0.1830
34038SOL    HW2 6571   3.056   1.713  10.010  0.3199  0.4992 -1.0847
34039SOL     OW 6572   3.762   3.223   1.608 -0.2224  0.6267  0.7854
34039SOL    HW1 6573   3.792   3.303   1.566 -0.6604  0.7471  0.6886
34039SOL    HW2 6574   3.687   3.195   1.555  0.7019 -0.5497  0.0513
34040SOL     OW 6575   5.866   2.382   2.442  0.1416 -0.1816 -0.2168
34040SOL    HW1 6576   5.896   2.438   2.514  2.2383  1.0153 -1.9341
34040SOL    HW2 6577   5.776   2.411   2.426  0.0793  0.4136  1.0468
34041SOL     OW 6578   7.509   5.420   7.526  0.0404 -0.2495  0.3143
34041SOL    HW1 6579   7.585   5.464   7.489  0.1710  1.1959  2.1672
34041SOL    HW2 6580   7.512   5.441   7.620 -3.2543  0.8915  0.2948
34042SOL     OW 6581   6.628   9.173   1.161 -0.1675 -0.1007  0.4544
34042SOL    HW1 6582   6.657   9.246   1.216  1.4335  0.0573 -0.5190
34042SOL    HW2 6583   6.592   9.109   1.223  0.4006  0.5996  1.5519
34043SOL     OW 6584   0.047   2.689   0.251 -0.0821 -0.0475  0.4921
34043SOL    HW1 6585   0.019   2.724   0.336  3.7999  0.4285  1.7577
34043SOL    HW2 6586   0.070   2.765   0.199 -0.6770 -0.4324 -0.3792
34044SOL     OW 6587   7.696   0.732   5.738  0.4503 -0.3334 -0.4020
34044SOL    HW1 6588   7.709   0.799   5.671  0.8513 -0.8558 -0.8657
34044SOL    HW2 6589   7.659   0.658   5.690  1.3005 -0.9297 -0.1634
34045SOL     OW 6590   1.920   2.708   7.162  0.2406 -0.0111  0.2079
34045SOL    HW1 6591   1.871   2.720   7.080  0.2218 -0.9373  0.0712
34045SOL    HW2 6592   1.879   2.769   7.224 -0.6964 -0.3460 -0.0644
34046SOL     OW 6593   0.572  10.351   6.201  0.0296 -0.3760  0.0964
34046SOL    HW1 6594   0.507  10.315   6.260 -1.3094 -2.2935 -2.3302
34046SOL    HW2 6595   0.523  10.410   6.144  0.6106 -0.8949 -0.9869
34047SOL     OW 6596   0.044   4.461   5.716  0.2034  0.7846 -0.1123
34047SOL    HW1 6597   0.034   4.486   5.624 -0.5901 -1.1229 -0.5851
34047SOL    HW2 6598   0.012   4.371   5.720  0.8551  0.6003  1.9138
34048SOL     OW 6599   5.254   8.274   5.225  0.1057  0.0470  0.6446
34048SOL    HW1 6600   5.348   8.281   5.207 -0.3042  2.1927 -1.2075
34048SOL    HW2 6601   5.219   8.360   5.201 -2.5156 -1.0798  0.0447
34049SOL     OW 6602   2.523   3.290   5.022 -0.0531 -0.5830  0.1757
34049SOL    HW1 6603   2.440   3.328   4.993  1.1040  0.9616 -1.2846
34049SOL    HW2 6604   2.553   3.237   4.948  0.9408  0.0275  0.1227
34050SOL     OW 6605   2.875  11.039   1.939 -0.0744  0.0038 -0.1741
34050SOL    HW1 6606   2.866  11.113   1.999 -0.8957 -0.4272  0.2632
34050SOL    HW2 6607   2.969  11.031   1.924 -0.0515  1.9707 -1.3101
34051SOL     OW 6608   5.200   2.092   0.063 -0.6494 -0.1262  0.8231
34051SOL    HW1 6609   5.275   2.085   0.121 -0.6353  1.4563  1.0387
34051SOL    HW2 6610   5.129   2.047   0.110  0.2537 -2.2174  0.3316
34052SOL     OW 6611   3.714   9.920   5.513 -0.1694 -0.0740  0.0839
34052SOL    HW1 6612   3.667   9.838   5.526 -0.4774  0.0705 -0.1003
34052SOL    HW2 6613   3.672   9.960   5.436  0.5369 -0.1408 -0.3467
34053SOL     OW 6614   1.387   8.284   6.240  0.0076 -0.1544 -0.2325
34053SOL    HW1 6615   1.452   8.267   6.172  1.1809 -0.3102  0.8719
34053SOL    HW2 6616   1.413   8.369   6.277 -0.3638 -0.2611  0.2844
34054SOL     OW 6617   9.659   2.018   3.255 -0.5189  0.6840  0.1049
34054SOL    HW1 6618   9.601   2.011   3.179  1.3267  1.5943 -1.4802
34054SOL    HW2 6619   9.628   2.097   3.301 -2.0547 -0.2354  0.7176
34055SOL     OW 6620  10.505   6.700   1.147  0.3639 -0.0276 -0.2539
34055SOL    HW1 6621  10.583   6.664   1.189  0.7500 -0.2766 -1.1619
34055SOL    HW2 6622  10.443   6.627   1.148 -0.2414  0.4691  1.3750
34056SOL     OW 6623   6.977   0.822  10.641 -0.3842 -0.6891 -0.4045
34056SOL    HW1 6624   7.015   0.909  10.652  0.0727 -0.9282 -0.0329
34056SOL    HW2 6625   6.899   0.823  10.696 -0.6855 -0.3364 -0.8307
34057SOL     OW 6626   2.180   0.844   4.655  0.1368 -0.3015 -0.0386
34057SOL    HW1 6627   2.231   0.852   4.574  0.7604 -0.4569  0.3327
34057SOL    HW2 6628   2.090   0.860   4.628  0.6241  2.4450 -0.3143
34058SOL     OW 6629   0.661   6.988   9.204  0.4142  0.0226 -0.1722
34058SOL    HW1 6630   0.725   6.935   9.157  0.1013  0.2170 -0.8284
34058SOL    HW2 6631   0.617   7.039   9.136 -0.5405 -0.2138  0.2443
34059SOL     OW 6632   8.931   9.139   7.401  0.1571 -0.1355  0.2581
34059SOL    HW1 6633   9.003   9.189   7.362  0.6860 -1.4419 -0.4948
34059SOL    HW2 6634   8.954   9.131   7.493 -0.3559  1.6796  0.6010
34060SOL     OW 6635   2.897   2.535   9.119 -0.0246 -0.0323  0.0313
34060SOL    HW1 6636   2.867   2.605   9.176 -0.3580 -1.2196  1.3879
34060SOL    HW2 6637   2.850   2.457   9.150 -0.0787 -0.7646 -1.7673
34061SOL     OW 6638   9.232   4.406   6.866  0.0896  0.3068  0.3170
34061SOL    HW1 6639   9.181   4.388   6.945 -0.0313 -2.2989 -0.2769
34061SOL    HW2 6640   9.321   4.419   6.897  0.5015 -2.9181  0.8201
34062SOL     OW 6641   2.227   3.148   5.910  0.0642 -0.3628  0.0251
34062SOL    HW1 6642   2.169   3.101   5.850 -1.7691  0.9135  0.6890
34062SOL    HW2 6643   2.171   3.215   5.949  1.5360 -0.2776  2.1527
34063SOL     OW 6644   8.402   5.092   8.616  0.1618  0.1377  0.2242
34063SOL    HW1 6645   8.332   5.153   8.640 -0.2326 -0.4026  0.4498
34063SOL    HW2 6646   8.430   5.052   8.698 -0.6893 -1.1716 -0.0997
34064SOL     OW 6647   8.227   7.388   7.213 -0.2550  0.0909  0.0516
34064SOL    HW1 6648   8.140   7.397   7.253  0.3030 -2.2682  2.0570
34064SOL    HW2 6649   8.216   7.318   7.148 -0.0129  0.3936 -0.3236
34065SOL     OW 6650   1.740   9.707   8.214  0.2579  0.2350  0.3585
34065SOL    HW1 6651   1.737   9.680   8.306 -1.1474  1.8943  0.8348
34065SOL    HW2 6652   1.833   9.709   8.193  0.5809 -0.6868  1.5750
34066SOL     OW 6653   2.717   2.186   5.337 -0.3544 -0.2289  0.0620
34066SOL    HW1 6654   2.649   2.171   5.402  0.7576 -0.0484  1.2990
34066SOL    HW2 6655   2.672   2.232   5.265 -2.0068 -2.1288 -0.1875
34067SOL     OW 6656   6.706   4.796   1.169  0.1147 -0.1556 -0.1218
34067SOL    HW1 6657   6.651   4.835   1.101 -0.5995 -0.2044  0.4204
34067SOL    HW2 6658   6.669   4.709   1.183 -1.4064  0.7808  2.1509
34068SOL     OW 6659   3.316   9.875   1.158  0.2147  0.1424 -0.4706
34068SOL    HW1 6660   3.335   9.891   1.251 -0.6388 -0.9673 -0.0736
34068SOL    HW2 6661   3.263   9.950   1.131  0.0405  0.2288  0.0897
34069SOL     OW 6662   2.996  10.294   5.659 -0.0600  0.1889  0.7565
34069SOL    HW1 6663   2.945  10.365   5.699 -0.8746 -0.3963  0.7750
34069SOL    HW2 6664   2.947  10.271   5.580  1.1315  0.8222 -0.2143
34070SOL     OW 6665   8.579   3.075   2.169  0.2623  0.4003  0.8830
34070SOL    HW1 6666   8.593   3.106   2.079  1.6039  0.1221  0.9798
34070SOL    HW2 6667   8.578   2.980   2.161  2.3973  0.2846  1.3867
34071SOL     OW 6668   0.031   7.094   0.890 -0.1891 -0.3763  0.1331
34071SOL    HW1 6669  -0.046   7.060   0.846 -0.9164 -0.4212  1.3882
34071SOL    HW2 6670   0.064   7.021   0.941  0.4001 -0.2131 -0.0024
34072SOL     OW 6671   6.936   1.002   3.196  0.3834  0.6278  0.4127
34072SOL    HW1 6672   7.027   0.984   3.173 -0.1059 -0.3285 -0.9321
34072SOL    HW2 6673   6.941   1.050   3.278  2.1052  0.7554  0.2761
34073SOL     OW 6674   5.752   1.004   3.686 -0.1044 -0.0251 -0.6095
34073SOL    HW1 6675   5.806   0.941   3.734  1.5496 -0.3860 -2.8065
34073SOL    HW2 6676   5.761   1.085   3.736  2.0109 -0.2429 -0.5429
34074SOL     OW 6677   2.702   0.860   3.427  0.5977  0.0263 -0.3510
34074SOL    HW1 6678   2.669   0.812   3.351  1.4506 -1.8738  0.3972
34074SOL    HW2 6679   2.625   0.876   3.482  0.2726 -0.4053 -0.6767
34075SOL     OW 6680   3.300   5.546   6.805 -0.3289  0.0995  0.0626
34075SOL    HW1 6681   3.288   5.621   6.863  3.7624  0.3986  0.8203
34075SOL    HW2 6682   3.313   5.583   6.718  0.6591  0.2326  0.2572
34076SOL     OW 6683   0.675   3.523   8.981  0.7446 -0.8568  0.1381
34076SOL    HW1 6684   0.703   3.514   9.072 -0.5321 -0.7466  0.5693
34076SOL    HW2 6685   0.668   3.618   8.968 -2.5051 -0.8391  1.1069
34077SOL     OW 6686   4.447   8.918   0.704 -0.3839 -0.7449  0.0211
34077SOL    HW1 6687   4.497   8.901   0.783  2.3342  2.4822 -0.7785
34077SOL    HW2 6688   4.490   8.866   0.636 -0.9553 -1.3515  0.1107
34078SOL     OW 6689   3.746   2.909   6.378 -0.0633 -0.1926  0.7827
34078SOL    HW1 6690   3.807   2.842   6.346  0.0407  0.1196  0.3223
34078SOL    HW2 6691   3.698   2.866   6.448  1.2740 -0.1896  1.7419
34079SOL     OW 6692   6.007   8.736   6.904 -0.7438 -0.4376  0.2800
34079SOL    HW1 6693   5.991   8.727   6.998  1.6127 -0.6368  0.7314
34079SOL    HW2 6694   5.981   8.826   6.884  1.0706  0.4760  1.7217
34080SOL     OW 6695   7.870   2.651   6.816 -0.1432  0.1208 -0.2553
34080SOL    HW1 6696   7.931   2.615   6.880 -1.0844 -1.5523 -0.2316
34080SOL    HW2 6697   7.916   2.643   6.732 -0.0899 -0.5925 -0.1671
34081SOL     OW 6698   3.174  10.420   1.193 -0.0798  0.1514  0.5426
34081SOL    HW1 6699   3.183  10.486   1.124  1.3764 -0.3746  0.1833
34081SOL    HW2 6700   3.202  10.465   1.273 -0.9058  0.4968  0.6537
34082SOL     OW 6701   2.205   3.330   8.648  0.4037  0.0647  0.2213
34082SOL    HW1 6702   2.148   3.279   8.705  0.4585  0.2311  0.4242
34082SOL    HW2 6703   2.279   3.273   8.631 -0.5036 -0.7372 -1.2507
34083SOL     OW 6704   9.991   2.182   6.064 -0.0259 -0.3506 -0.0286
34083SOL    HW1 6705   9.932   2.133   6.007  1.4917 -1.8350 -0.3863
34083SOL    HW2 6706  10.004   2.266   6.019 -0.2183 -0.8246 -0.9824
34084SOL     OW 6707   6.776   1.154   9.408  0.4764 -0.0508  0.2531
34084SOL    HW1 6708   6.783   1.059   9.394  4.3729 -0.0495  0.8896
34084SOL    HW2 6709   6.823   1.192   9.334  1.6097  1.1521  1.5328
34085SOL     OW 6710   6.096   3.838   1.202 -0.1190 -0.5189  1.0203
34085SOL    HW1 6711   6.187   3.820   1.222  0.2811  0.5970  0.2696
34085SOL    HW2 6712   6.063   3.885   1.279  0.0072 -0.6578  1.1606
34086SOL     OW 6713   5.249   3.518   6.355 -0.2439  0.0859 -0.3968
34086SOL    HW1 6714   5.210   3.595   6.315 -0.3762  0.2894  0.1064
34086SOL    HW2 6715   5.322   3.495   6.298 -0.2437  0.5484 -0.5865
34087SOL     OW 6716   9.873   6.439   9.191  1.1511 -0.0711  0.5211
34087SOL    HW1 6717   9.875   6.533   9.212  1.4056  0.0400  0.0134
34087SOL    HW2 6718   9.781   6.421   9.172  1.0758  0.0420  0.7727
34088SOL     OW 6719   2.247  11.008   1.373  0.2541 -0.8183 -0.2804
34088SOL    HW1 6720   2.279  11.065   1.443 -5.0256  1.0358  1.1580
34088SOL    HW2 6721   2.288  11.042   1.293  2.1526  0.7641  1.2699
34089SOL     OW 6722   7.631   9.667   4.672  0.1891  0.0271 -0.2756
34089SOL    HW1 6723   7.627   9.669   4.768 -1.5066  0.2545 -0.3217
34089SOL    HW2 6724   7.540   9.674   4.644  0.7227  0.9789 -1.9271
34090SOL     OW 6725   1.550   3.610   4.265 -0.2624  0.2401 -0.5914
34090SOL    HW1 6726   1.529   3.695   4.305  0.6058 -0.3124  1.1693
34090SOL    HW2 6727   1.480   3.552   4.294  0.3374 -0.1494  0.1145
34091SOL     OW 6728  10.796   2.578   7.898 -0.4246  0.0934 -1.2450
34091SOL    HW1 6729  10.816   2.576   7.992  1.1057 -0.8512 -1.5527
34091SOL    HW2 6730  10.737   2.653   7.888  1.6966  2.0949  0.0693
34092SOL     OW 6731   0.657  10.553   0.586 -0.4556 -0.3435  0.2759
34092SOL    HW1 6732   0.586  10.501   0.623 -0.1825 -1.1669 -0.3199
34092SOL    HW2 6733   0.733  10.494   0.586  0.9197  1.2237  3.0742
34093SOL     OW 6734   0.371   3.682   5.816 -0.0113 -0.1870  0.7051
34093SOL    HW1 6735   0.368   3.700   5.722  1.3764  2.4174  1.0545
34093SOL    HW2 6736   0.280   3.668   5.841 -0.4486 -0.4288 -0.9370
34094SOL     OW 6737   7.563   5.791   5.591 -0.3651  0.0328 -0.0458
34094SOL    HW1 6738   7.596   5.709   5.553 -0.3311 -0.2694  0.6204
34094SOL    HW2 6739   7.468   5.780   5.592 -0.3545 -0.0466  0.1444
34095SOL     OW 6740   6.796   5.788  10.134 -0.5335  0.5114 -0.0489
34095SOL    HW1 6741   6.847   5.850  10.186 -0.6731 -0.1436  0.8974
34095SOL    HW2 6742   6.791   5.709  10.189  0.3868 -0.6660 -1.5697
34096SOL     OW 6743   9.514   6.814   1.722 -0.4445 -0.2124 -0.3663
34096SOL    HW1 6744   9.567   6.744   1.760  0.1097 -0.0334 -0.7981
34096SOL    HW2 6745   9.572   6.857   1.660 -0.7395  0.7139 -0.0130
34097SOL     OW 6746   9.606   9.659  10.102 -0.1225 -0.6640 -0.6844
34097SOL    HW1 6747   9.547   9.617  10.164 -0.3212  0.4004 -0.1355
34097SOL    HW2 6748   9.693   9.648  10.140 -0.3602  1.1636  0.5386
34098SOL     OW 6749   7.873   6.405   5.018  0.1653  0.0063  0.0746
34098SOL    HW1 6750   7.837   6.343   4.954 -0.0298 -0.8236  0.9576
34098SOL    HW2 6751   7.837   6.376   5.102  2.9189 -0.9726  1.0597
34099SOL     OW 6752  10.321   1.808   2.750  0.3615 -0.1571  0.3547
34099SOL    HW1 6753  10.322   1.897   2.714  1.4216 -0.4186 -0.3055
34099SOL    HW2 6754  10.406   1.799   2.794  0.7940 -1.2654 -0.6779
34100SOL     OW 6755   5.769   8.343   4.115  0.7187  0.2021 -0.0314
34100SOL    HW1 6756   5.742   8.433   4.101  0.6134  0.0492 -0.8812
34100SOL    HW2 6757   5.862   8.348   4.136  0.6479  0.5233  0.2069
34101SOL     OW 6758   6.119   0.833   7.783 -0.2797  0.1728 -0.0658
34101SOL    HW1 6759   6.090   0.923   7.802  0.4378  0.2480  0.7361
34101SOL    HW2 6760   6.201   0.823   7.832  0.0899 -0.6453 -0.8275
34102SOL     OW 6761   3.084   1.292   3.201  0.4647  0.1431 -0.2242
34102SOL    HW1 6762   3.079   1.308   3.107 -1.3075  0.0929 -0.1607
34102SOL    HW2 6763   3.011   1.341   3.238  0.6282 -0.5246  1.0369
34103SOL     OW 6764   3.799   1.430   5.403 -0.0029 -0.0852 -0.6049
34103SOL    HW1 6765   3.744   1.402   5.476 -1.1976 -0.3764 -1.5764
34103SOL    HW2 6766   3.737   1.451   5.333  1.1194 -2.0811 -2.3366
34104SOL     OW 6767   9.528  10.700   4.392 -0.0807 -0.0441 -0.5669
34104SOL    HW1 6768   9.458  10.652   4.347 -1.0839  0.6639  0.2019
34104SOL    HW2 6769   9.484  10.771   4.437  1.3655  1.5807 -1.5940
34105SOL     OW 6770   4.423   7.049   5.494 -0.5779  0.1074  0.3435
34105SOL    HW1 6771   4.383   6.991   5.430 -0.8285 -1.7040  2.0602
34105SOL    HW2 6772   4.359   7.055   5.565 -1.0487  3.4102 -0.1835
34106SOL     OW 6773   2.376   7.092   8.631  0.0067  0.5822 -0.4253
34106SOL    HW1 6774   2.400   7.035   8.704 -0.7080  1.7349  0.7605
34106SOL    HW2 6775   2.294   7.056   8.598 -0.4226  0.8624  0.2958
34107SOL     OW 6776   4.107   2.155   1.634  0.0990  0.2776 -0.1486
34107SOL    HW1 6777   4.109   2.244   1.668 -4.5048 -0.0234  1.5254
34107SOL    HW2 6778   4.136   2.100   1.707 -1.5657  0.1989  0.4999
34108SOL     OW 6779   9.016   6.838   9.944 -0.1642 -0.1384 -0.8505
34108SOL    HW1 6780   8.931   6.847   9.901 -0.3496  0.8174 -0.3083
34108SOL    HW2 6781   9.079   6.833   9.872 -0.0660  4.9000 -1.4577
34109SOL     OW 6782   8.433   0.585   4.965  0.0902 -0.0264 -0.1090
34109SOL    HW1 6783   8.485   0.510   4.935 -0.1694  0.5345 -2.0475
34109SOL    HW2 6784   8.497   0.654   4.982  0.1466  0.0349 -0.5623
34110SOL     OW 6785   4.228   8.435   4.444 -0.7436  0.0821 -0.3101
34110SOL    HW1 6786   4.225   8.518   4.397 -0.4658  1.0679  1.3381
34110SOL    HW2 6787   4.136   8.414   4.461 -0.8280 -0.1096 -0.9647
34111SOL     OW 6788   9.793   6.149   7.368 -0.5175  0.6161 -0.2420
34111SOL    HW1 6789   9.792   6.064   7.324  1.6696 -0.7157  2.0069
34111SOL    HW2 6790   9.807   6.213   7.298  1.2940 -1.2264 -1.6677
34112SOL     OW 6791   0.553   8.655   6.586  0.0664  0.6385  0.3010
34112SOL    HW1 6792   0.521   8.601   6.513 -0.1249  1.3724 -0.1737
34112SOL    HW2 6793   0.625   8.604   6.624  2.3915  1.5951 -2.4179
34113SOL     OW 6794   3.665  10.552   2.316  0.3117  0.2249  0.0554
34113SOL    HW1 6795   3.604  10.622   2.294  2.2484  1.9960  0.1213
34113SOL    HW2 6796   3.660  10.492   2.241 -2.7221 -0.6755  0.8099
34114SOL     OW 6797   5.046   4.795   7.039 -0.1416 -0.8890 -0.0497
34114SOL    HW1 6798   5.140   4.783   7.023  0.1007 -0.1776  0.7640
34114SOL    HW2 6799   5.026   4.880   7.000  0.3040  0.5391  2.5947
34115SOL     OW 6800   1.941   6.605   1.802 -0.6332  0.2506 -0.4354
34115SOL    HW1 6801   1.935   6.517   1.839 -0.9187  0.3081 -0.3415
34115SOL    HW2 6802   1.956   6.590   1.709 -1.2812  0.0889 -0.5249
34116SOL     OW 6803   7.225   2.274   8.065  0.0702  0.0321  0.2939
34116SOL    HW1 6804   7.169   2.248   8.138  0.4237 -0.0975  0.5243
34116SOL    HW2 6805   7.255   2.362   8.088  0.4964 -0.1630  0.4993
34117SOL     OW 6806   7.834   9.863   3.766  0.1256  0.2283  0.2227
34117SOL    HW1 6807   7.916   9.816   3.749  0.5023  0.8706  0.2214
34117SOL    HW2 6808   7.862   9.946   3.806 -0.6208 -0.2828  1.8764
34118SOL     OW 6809   3.895   7.892   9.967 -0.5725  0.0780 -0.1924
34118SOL    HW1 6810   3.896   7.803  10.002  0.2637  1.2278  3.0678
34118SOL    HW2 6811   3.807   7.923   9.985 -0.1621  0.6560  0.8605
34119SOL     OW 6812   9.475   6.695   6.064  0.1576 -0.2299 -0.2414
34119SOL    HW1 6813   9.475   6.610   6.108 -0.7966 -0.1521 -0.0534
34119SOL    HW2 6814   9.413   6.748   6.114 -0.5077  0.0533 -1.3152
34120SOL     OW 6815   1.586   4.853  10.740 -0.5540  0.1541 -0.5820
34120SOL    HW1 6816   1.533   4.881  10.665 -2.4730 -0.0441  0.6059
34120SOL    HW2 6817   1.523   4.808  10.797  1.4211 -2.2323 -0.1455
34121SOL     OW 6818   2.666   8.833   0.141  0.2573  0.0540 -0.0645
34121SOL    HW1 6819   2.745   8.780   0.155  0.2650  0.2780  0.8392
34121SOL    HW2 6820   2.634   8.850   0.230 -0.5403  0.3686 -0.4099
34122SOL     OW 6821  10.500   5.617   2.332 -0.0459  0.4646 -0.3028
34122SOL    HW1 6822  10.564   5.682   2.361 -0.7407  1.5607 -1.1021
34122SOL    HW2 6823  10.428   5.670   2.297 -0.6419 -0.7527 -0.9576
34123SOL     OW 6824   0.467   8.527   4.907 -0.0332 -0.1595 -0.3480
34123SOL    HW1 6825   0.501   8.438   4.914 -0.0183 -0.0139  2.7349
34123SOL    HW2 6826   0.388   8.527   4.961  0.5466  1.9274  0.5878
34124SOL     OW 6827   9.300   3.972  10.026 -0.6516  0.2766  0.2722
34124SOL    HW1 6828   9.347   4.021   9.959 -0.8373 -1.2575 -1.0307
34124SOL    HW2 6829   9.297   4.031  10.101  1.6487  1.1508 -0.2451
34125SOL     OW 6830   0.414  11.047   1.645  0.1037  0.0159 -0.5083
34125SOL    HW1 6831   0.506  11.028   1.665  0.4577  1.2575 -0.8662
34125SOL    HW2 6832   0.411  11.051   1.549 -0.4995 -0.7848 -0.5346
34126SOL     OW 6833   4.411  10.053  10.360  0.0488 -0.5919  0.4436
34126SOL    HW1 6834   4.353  10.126  10.337  1.4227  0.5636  0.5615
34126SOL    HW2 6835   4.487  10.094  10.400  0.0204 -2.2226  2.3091
34127SOL     OW 6836   8.620   9.310   6.493 -0.0971 -0.1157 -0.0652
34127SOL    HW1 6837   8.693   9.261   6.457  1.0795  1.5700 -0.0968
34127SOL    HW2 6838   8.629   9.398   6.456 -0.2036  1.0443  2.4163
34128SOL     OW 6839   5.598   5.467   2.755 -0.4472 -0.1889 -0.2439
34128SOL    HW1 6840   5.521   5.448   2.807  0.1403 -1.1654  0.3017
34128SOL    HW2 6841   5.564   5.510   2.677 -1.3709  1.0117  0.7846
34129SOL     OW 6842   8.342   9.164  10.070 -0.1101 -0.1103  0.9416
34129SOL    HW1 6843   8.261   9.156  10.019  0.0802  1.0341  0.4266
34129SOL    HW2 6844   8.412   9.155  10.005  0.1592 -0.2368  1.2501
34130SOL     OW 6845   0.755   6.183   9.967 -0.0207 -0.5765 -0.0379
34130SOL    HW1 6846   0.712   6.109  10.010 -0.5794  0.8561  2.0267
34130SOL    HW2 6847   0.721   6.182   9.878 -0.4721 -2.4290  0.1213
34131SOL     OW 6848   7.865   7.035  11.012  0.1393  0.1816  0.3755
34131SOL    HW1 6849   7.805   6.967  11.045 -1.1890  1.5437  0.8807
34131SOL    HW2 6850   7.855   7.107  11.074  2.6018  0.3540  0.6690
34132SOL     OW 6851   2.363   6.748   3.821 -0.2997 -0.1211 -0.1961
34132SOL    HW1 6852   2.299   6.806   3.781  2.0002  0.6252 -3.1548
34132SOL    HW2 6853   2.382   6.788   3.906 -2.2475  0.6663 -0.0757
34133SOL     OW 6854   7.620   0.943   6.421 -0.0720  0.4029  0.4537
34133SOL    HW1 6855   7.677   0.943   6.344  0.1849  0.8803  0.6349
34133SOL    HW2 6856   7.533   0.966   6.386  0.1287  1.0468  0.3547
34134SOL     OW 6857   5.474   5.558   9.788  0.5727 -0.0466  0.2180
34134SOL    HW1 6858   5.534   5.614   9.739  1.1199  0.0162  0.9541
34134SOL    HW2 6859   5.393   5.609   9.794 -0.2904 -0.9239 -2.5225
34135SOL     OW 6860   5.837  11.000   4.206  0.3279  0.3290 -0.7035
34135SOL    HW1 6861   5.831  10.918   4.255  0.4162  1.5514  1.4795
34135SOL    HW2 6862   5.926  10.999   4.170  0.7018 -0.0805  0.1812
34136SOL     OW 6863   2.553   1.567   3.143  0.3219  0.4635  0.1039
34136SOL    HW1 6864   2.498   1.563   3.222  0.8699 -1.7024  0.4314
34136SOL    HW2 6865   2.498   1.612   3.079 -0.9888  0.3395  1.0847
34137SOL     OW 6866   5.073   8.212  10.204  0.4509  0.6693  0.1286
34137SOL    HW1 6867   4.980   8.213  10.224  0.2186 -0.8175 -0.7246
34137SOL    HW2 6868   5.103   8.300  10.223 -0.9316  0.9057  1.3326
34138SOL     OW 6869   2.672   2.846   9.882  0.4077  0.1841 -0.1597
34138SOL    HW1 6870   2.617   2.916   9.847 -0.5181 -1.1534 -1.5084
34138SOL    HW2 6871   2.761   2.876   9.868  0.0852  2.1538  1.5665
34139SOL     OW 6872   4.292   9.387   4.950  0.3303 -0.0265  0.0645
34139SOL    HW1 6873   4.370   9.340   4.980 -0.5854 -1.5507  0.1746
34139SOL    HW2 6874   4.220   9.350   5.003 -0.6668  0.3461 -0.9775
34140SOL     OW 6875   8.757   6.534   4.488  0.2076 -0.5884  0.1336
34140SOL    HW1 6876   8.751   6.558   4.581 -0.2177  0.7030 -0.2068
34140SOL    HW2 6877   8.722   6.610   4.442  0.4415 -1.2111 -1.0927
34141SOL     OW 6878   3.539  10.261   3.830  0.1916  0.1404 -0.3441
34141SOL    HW1 6879   3.535  10.195   3.900  1.1685 -0.3127 -0.6937
34141SOL    HW2 6880   3.448  10.276   3.806 -0.0695 -0.7809  0.0320
34142SOL     OW 6881   3.655   9.937   8.310  0.5108  0.0213  0.8398
34142SOL    HW1 6882   3.636   9.959   8.401 -1.0086 -0.5110  0.6802
34142SOL    HW2 6883   3.600   9.995   8.259 -0.4665 -1.2958  0.3381
34143SOL     OW 6884   7.286   1.637  10.740 -0.4530 -0.2284 -0.4198
34143SOL    HW1 6885   7.375   1.611  10.761  0.2491  2.0355 -0.3354
34143SOL    HW2 6886   7.270   1.713  10.795 -2.8683 -1.2081  0.3757
34144SOL     OW 6887   5.819   3.078   6.065  0.8938  0.1171 -0.2941
34144SOL    HW1 6888   5.734   3.040   6.041 -0.0667  1.4662  0.8056
34144SOL    HW2 6889   5.824   3.160   6.015  0.3866  1.2737  1.4454
34145SOL     OW 6890   6.770   0.616   7.615  0.1032 -0.5725 -0.6448
34145SOL    HW1 6891   6.679   0.596   7.637  1.0677 -2.9874  1.6620
34145SOL    HW2 6892   6.787   0.700   7.657 -1.1062  0.0576 -1.3582
34146SOL     OW 6893   4.350   8.003   7.999  0.4006 -0.4282 -0.6338
34146SOL    HW1 6894   4.263   8.009   7.960 -1.1774  1.7170  2.6908
34146SOL    HW2 6895   4.338   7.947   8.076  2.6475 -2.2152 -1.4918
34147SOL     OW 6896   3.770   5.925   4.335  0.7646 -0.0936  0.7189
34147SOL    HW1 6897   3.798   5.916   4.244  1.2083 -0.2002  0.8625
34147SOL    HW2 6898   3.688   5.974   4.331  0.4579 -0.6408  0.2161
34148SOL     OW 6899   7.409   4.906   1.630 -0.5995  0.4136  0.0868
34148SOL    HW1 6900   7.475   4.912   1.561  0.1721 -2.2811  0.4907
34148SOL    HW2 6901   7.334   4.954   1.595  0.9396  2.1180 -1.0885
34149SOL     OW 6902   5.210   4.920   9.688  0.1052 -0.5563  0.5494
34149SOL    HW1 6903   5.207   5.002   9.639 -4.0516 -0.0939  1.2004
34149SOL    HW2 6904   5.263   4.940   9.765 -0.9355  1.6250  0.7750
34150SOL     OW 6905   3.058   9.289   8.738 -0.3333 -1.0243  0.0175
34150SOL    HW1 6906   3.137   9.245   8.769  1.9056  0.3180 -3.2343
34150SOL    HW2 6907   3.062   9.377   8.774 -0.7127 -1.1384  0.3515
34151SOL     OW 6908   4.428   9.996   6.632  0.1008  0.3620 -0.5242
34151SOL    HW1 6909   4.490   9.926   6.656 -1.1898 -1.0522 -1.1581
34151SOL    HW2 6910   4.422   9.991   6.537  0.2817  1.6373 -0.6209
34152SOL     OW 6911   7.399   0.338  11.004 -0.0384 -0.1245 -0.2067
34152SOL    HW1 6912   7.482   0.356  11.048 -0.7645 -0.3808  1.3268
34152SOL    HW2 6913   7.344   0.299  11.071 -0.6428 -2.2024 -1.7884
34153SOL     OW 6914   0.812   0.955   0.269 -0.0280 -0.2726 -0.4422
34153SOL    HW1 6915   0.758   1.000   0.334 -0.5957 -1.0182 -0.3831
34153SOL    HW2 6916   0.749   0.907   0.215  0.4908 -0.2085 -1.1092
34154SOL     OW 6917   3.100   0.683   0.888 -0.2742 -0.0694 -0.1812
34154SOL    HW1 6918   3.058   0.637   0.815 -1.9043  0.0493  0.6342
34154SOL    HW2 6919   3.193   0.684   0.865 -0.3342 -2.5981 -0.8610
34155SOL     OW 6920   1.736   3.635   8.859 -0.3330 -0.0888 -0.5039
34155SOL    HW1 6921   1.661   3.674   8.906  1.4264  0.9741  1.6399
34155SOL    HW2 6922   1.699   3.601   8.778 -3.0464  0.8064  0.2530
34156SOL     OW 6923   9.134   2.292  10.892 -0.0762  0.3631  0.2463
34156SOL    HW1 6924   9.079   2.254  10.961  0.4075 -3.6467 -1.2967
34156SOL    HW2 6925   9.078   2.289  10.814  0.4589  1.7347 -0.2062
34157SOL     OW 6926  10.439  11.002   7.705  0.3532 -0.5349  0.0991
34157SOL    HW1 6927  10.413  10.920   7.663 -0.1371  0.9649 -2.7778
34157SOL    HW2 6928  10.357  11.050   7.718  0.2563 -1.4823  4.4370
34158SOL     OW 6929   8.093   8.544   7.389 -0.5209  0.0666  0.1023
34158SOL    HW1 6930   8.157   8.615   7.379 -0.8419  0.1983 -1.2005
34158SOL    HW2 6931   8.084   8.508   7.301 -1.6859 -0.4361  0.4125
34159SOL     OW 6932   4.780   3.939   9.759  0.5926 -0.0929  0.0139
34159SOL    HW1 6933   4.832   3.899   9.828  1.1567  1.5421  0.5682
34159SOL    HW2 6934   4.843   3.970   9.695  0.3595  1.7242  0.5937
34160SOL     OW 6935   9.240   3.841   2.500 -0.1732 -0.0767  1.0927
34160SOL    HW1 6936   9.303   3.910   2.483 -0.6378  0.4870  1.5756
34160SOL    HW2 6937   9.265   3.770   2.442  1.7895 -0.4419  2.2922
34161SOL     OW 6938   1.395   5.869   0.423 -0.3367  0.7688  0.2591
34161SOL    HW1 6939   1.418   5.956   0.456 -1.4597  1.3853 -0.5366
34161SOL    HW2 6940   1.423   5.809   0.493  1.5936  1.6255  0.2863
34162SOL     OW 6941   4.112   3.454   0.345  0.1616  0.7793  0.3744
34162SOL    HW1 6942   4.134   3.374   0.296  0.0800  0.6335  0.5769
34162SOL    HW2 6943   4.197   3.497   0.359  0.1828  0.8384  0.0781
34163SOL     OW 6944   4.592   1.787   5.307 -0.1527 -0.2498 -0.5940
34163SOL    HW1 6945   4.652   1.719   5.277 -1.4324 -1.5757 -0.2631
34163SOL    HW2 6946   4.518   1.783   5.246 -0.3568  0.6738 -0.4246
34164SOL     OW 6947   9.259   0.637  10.447 -0.2099  0.1173  0.1613
34164SOL    HW1 6948   9.317   0.713  10.446  0.4365 -0.3588 -0.7612
34164SOL    HW2 6949   9.172   0.672  10.427 -0.0468  0.7005  0.4789
34165SOL     OW 6950   5.235   1.742   7.528 -0.3096 -0.4364  0.5874
34165SOL    HW1 6951   5.222   1.796   7.606  0.9374  1.9091 -0.7211
34165SOL    HW2 6952   5.303   1.788   7.478 -1.4414 -1.5133 -2.1617
34166SOL     OW 6953   7.989   3.906   8.713  0.5719 -0.0888 -0.2509
34166SOL    HW1 6954   8.082   3.920   8.695  0.6350  0.4004  0.4399
34166SOL    HW2 6955   7.943   3.963   8.652  0.7398  0.2222 -0.0841
34167SOL     OW 6956  10.256   3.963   2.371  0.5173 -0.0694  0.0614
34167SOL    HW1 6957  10.246   4.011   2.453  3.4411 -0.8477  1.0328
34167SOL    HW2 6958  10.277   4.030   2.306  0.7426  0.3379  0.5440
34168SOL     OW 6959   7.817   5.610   3.428 -0.2615  0.2102 -0.2850
34168SOL    HW1 6960   7.838   5.628   3.520 -0.2591 -0.3549 -0.1755
34168SOL    HW2 6961   7.796   5.517   3.426 -0.6825  0.3139 -0.7814
34169SOL     OW 6962   1.635   5.181   3.550 -0.3277  0.2892  0.0189
34169SOL    HW1 6963   1.558   5.194   3.606 -0.3353 -1.1468  0.3816
34169SOL    HW2 6964   1.599   5.176   3.461 -0.6137  0.0918  0.1412
34170SOL     OW 6965   6.231   5.678   1.673 -0.3104  0.3285  0.2682
34170SOL    HW1 6966   6.271   5.756   1.635 -0.8165 -0.0195 -1.0336
34170SOL    HW2 6967   6.221   5.618   1.599  0.8190 -1.3150  1.3679
34171SOL     OW 6968   8.257  10.754   0.317  0.0176 -0.2867 -0.0955
34171SOL    HW1 6969   8.169  10.758   0.354  0.5808  0.5965  1.2345
34171SOL    HW2 6970   8.254  10.811   0.240 -0.5300 -0.1305  0.0359
34172SOL     OW 6971   0.212   0.988   6.698  0.7086  0.1007  0.5774
34172SOL    HW1 6972   0.145   0.930   6.735  0.7242 -0.4941 -0.2786
34172SOL    HW2 6973   0.288   0.931   6.685  0.6541  0.2483 -0.4786
34173SOL     OW 6974   8.883   2.255   7.899  0.3746  0.0013 -0.3709
34173SOL    HW1 6975   8.889   2.164   7.872 -1.5230 -0.3361  0.2049
34173SOL    HW2 6976   8.858   2.302   7.820  1.4289  0.0681 -0.6863
34174SOL     OW 6977   1.958   8.456   8.775 -0.0465 -0.5136  0.1384
34174SOL    HW1 6978   2.045   8.440   8.813  0.1510 -1.4912 -0.6834
34174SOL    HW2 6979   1.901   8.392   8.816  0.0572 -1.2235 -0.8031
34175SOL     OW 6980   0.275  10.109   8.668 -0.2916  0.1019  0.6536
34175SOL    HW1 6981   0.211  10.096   8.597 -0.4688  1.2717  0.5868
34175SOL    HW2 6982   0.227  10.086   8.748  0.1577 -2.0445  0.3657
34176SOL     OW 6983   5.931   2.843   1.573  0.3673  0.1947 -0.2894
34176SOL    HW1 6984   6.008   2.900   1.575  0.0424  0.7013 -1.4298
34176SOL    HW2 6985   5.925   2.814   1.482  0.2653 -1.3208  0.1814
34177SOL     OW 6986   5.283   4.303   2.578  0.1283  0.0324 -0.2893
34177SOL    HW1 6987   5.308   4.356   2.503 -1.1662  0.6696 -0.2805
34177SOL    HW2 6988   5.312   4.354   2.654 -0.2468  0.2687 -0.3056
34178SOL     OW 6989   9.032   8.953   2.803 -0.4417 -0.0261 -0.4426
34178SOL    HW1 6990   9.094   8.896   2.759  0.7252  0.7774  0.0963
34178SOL    HW2 6991   9.027   9.032   2.748  0.0351  0.4504  0.1816
34179SOL     OW 6992   7.329   8.513   5.691 -0.2453  0.2325  0.5330
34179SOL    HW1 6993   7.365   8.487   5.776  0.3309 -1.0432 -0.0718
34179SOL    HW2 6994   7.250   8.460   5.681 -1.7156  2.2007  1.3521
34180SOL     OW 6995   5.513  10.919   7.109 -0.3748  0.4525 -0.5223
34180SOL    HW1 6996   5.487  10.877   7.027  0.2708  0.4916 -0.7530
34180SOL    HW2 6997   5.431  10.952   7.146 -0.9048 -0.9179 -0.3876
34181SOL     OW 6998   1.916   6.747   3.336  0.3907  0.3857  0.1518
34181SOL    HW1 6999   1.987   6.796   3.294 -0.8776  1.8251 -0.4472
34181SOL    HW2 7000   1.866   6.710   3.262  0.0362  0.1141  0.5231
34182SOL     OW 7001   9.879   7.026   6.737  0.2631  0.3283  0.0466
34182SOL    HW1 7002   9.878   6.940   6.695  0.9882  1.2552 -2.0121
34182SOL    HW2 7003   9.883   7.088   6.664  2.0706  2.0537  1.5119
34183SOL     OW 7004  10.322   7.098   5.723  0.8434  0.1337 -0.0111
34183SOL    HW1 7005  10.373   7.120   5.645  0.0719  1.1608 -0.2521
34183SOL    HW2 7006  10.231   7.116   5.698  0.5553  0.1869  1.0174
34184SOL     OW 7007   0.743   5.430   2.961 -0.1199  0.2439 -0.3938
34184SOL    HW1 7008   0.695   5.352   2.936 -0.7467  0.4793  0.0371
34184SOL    HW2 7009   0.714   5.497   2.899  1.0762 -0.0626 -1.3234
34185SOL     OW 7010  11.049   1.032   0.385  1.1108 -0.1403 -0.5968
34185SOL    HW1 7011  11.023   0.941   0.377 -1.1078  0.2400  1.1649
34185SOL    HW2 7012  11.135   1.030   0.428  1.0786 -1.3876 -0.5786
34186SOL     OW 7013   7.406   7.599   3.408 -0.2926 -0.5047 -0.5720
34186SOL    HW1 7014   7.443   7.644   3.483 -1.7558  0.7116 -0.5290
34186SOL    HW2 7015   7.479   7.588   3.347  0.0392  2.5545 -0.8678
34187SOL     OW 7016   5.079   3.020   1.554  0.2714  0.0919 -0.0484
34187SOL    HW1 7017   5.118   2.990   1.472  0.5683  0.3887 -0.0168
34187SOL    HW2 7018   5.118   2.965   1.622  1.5025  1.1299  0.1162
34188SOL     OW 7019   0.630   0.068   5.442  0.6085 -0.2921 -0.1691
34188SOL    HW1 7020   0.627   0.034   5.532 -3.4991  0.8324  0.3169
34188SOL    HW2 7021   0.604   0.160   5.450  0.0129 -0.1901 -2.5257
34189SOL     OW 7022   8.728   8.353   5.162  0.1826  0.0269 -0.4684
34189SOL    HW1 7023   8.759   8.324   5.247  1.9409 -0.7305 -1.3309
34189SOL    HW2 7024   8.749   8.282   5.102 -1.9291  0.0971 -1.4155
34190SOL     OW 7025  10.566   0.961  10.770  0.2879 -0.9243 -0.3893
34190SOL    HW1 7026  10.563   0.977  10.676  2.8344  1.6890 -0.1554
34190SOL    HW2 7027  10.652   0.920  10.785  2.6811  3.8855  1.1808
34191SOL     OW 7028   8.302   3.207   8.255  0.1906 -0.0951  0.3019
34191SOL    HW1 7029   8.214   3.207   8.217  0.5853  1.3838 -0.6959
34191SOL    HW2 7030   8.287   3.198   8.349 -0.9856 -0.4140  0.1079
34192SOL     OW 7031   4.834   7.059   0.997 -0.1164 -0.8554  0.6235
34192SOL    HW1 7032   4.909   7.103   0.958 -1.2061  0.7548  0.2343
34192SOL    HW2 7033   4.844   7.071   1.091  0.5904 -1.4922  0.6370
34193SOL     OW 7034   2.446   3.590   3.526 -0.6880 -0.2059  0.1226
34193SOL    HW1 7035   2.353   3.568   3.522  0.0317 -3.8168 -3.6378
34193SOL    HW2 7036   2.461   3.642   3.447  0.9897 -3.2750 -1.7726
34194SOL     OW 7037   9.044   6.627  10.126  0.1294  0.4400  0.5616
34194SOL    HW1 7038   9.066   6.698  10.066 -0.9398  0.8198  0.6090
34194SOL    HW2 7039   8.950   6.612  10.113  0.6094 -2.1219 -0.7088
34195SOL     OW 7040   5.067   4.749   4.312  0.1952 -0.3062  0.6890
34195SOL    HW1 7041   5.028   4.836   4.301 -0.8029 -0.8920 -0.7355
34195SOL    HW2 7042   5.148   4.753   4.261  1.2196  0.3782  2.2756
34196SOL     OW 7043   3.029   8.736   2.897 -0.1996  0.1930 -0.4037
34196SOL    HW1 7044   2.979   8.792   2.839  0.8021  2.0092  0.4067
34196SOL    HW2 7045   3.114   8.779   2.905 -0.6118  0.6370  3.2095
34197SOL     OW 7046   0.818  10.533   1.805  0.4330  0.3820  0.2699
34197SOL    HW1 7047   0.796  10.598   1.872 -2.0181  0.5853 -0.6169
34197SOL    HW2 7048   0.786  10.571   1.724 -0.0045 -1.4268 -0.4492
34198SOL     OW 7049   0.005   8.699   4.200  0.2134 -0.6963  0.4474
34198SOL    HW1 7050   0.012   8.761   4.273 -0.8705  0.9007 -0.7382
34198SOL    HW2 7051   0.089   8.707   4.154  0.6034 -1.1414  1.0746
34199SOL     OW 7052   8.891   4.500   2.608 -0.3910 -0.4553  0.3446
34199SOL    HW1 7053   8.830   4.427   2.610 -0.4285 -0.4507  2.4723
34199SOL    HW2 7054   8.849   4.568   2.662 -0.4989  1.3006 -1.8175
34200SOL     OW 7055   5.271   9.548   2.130  0.2117 -0.3918  0.2423
34200SOL    HW1 7056   5.357   9.577   2.157 -0.7634  3.0323  0.1115
34200SOL    HW2 7057   5.270   9.558   2.035  0.5511 -3.3746 -0.1918
34201SOL     OW 7058   1.414   0.640   5.203  0.0287  0.0941  0.1423
34201SOL    HW1 7059   1.455   0.563   5.166 -1.0005 -0.2223 -0.3657
34201SOL    HW2 7060   1.351   0.606   5.266  0.2423  0.5600  0.6208
34202SOL     OW 7061   2.419   9.360   6.294 -0.3757 -0.6678  0.0455
34202SOL    HW1 7062   2.507   9.357   6.257 -0.2757 -0.3260  0.2548
34202SOL    HW2 7063   2.378   9.436   6.252  0.6649  1.4657  2.6699
34203SOL     OW 7064   1.153   8.375   2.315 -0.1252  0.3029 -0.2421
34203SOL    HW1 7065   1.094   8.380   2.239  0.4620  1.4767 -0.6463
34203SOL    HW2 7066   1.192   8.463   2.321 -0.1674  0.2350  1.4370
34204SOL     OW 7067   2.532   5.024   6.920 -0.2022  0.6546  0.5371
34204SOL    HW1 7068   2.512   4.956   6.984  0.3075  1.3528  1.4582
34204SOL    HW2 7069   2.454   5.080   6.919 -1.3022 -0.7702 -1.3965
34205SOL     OW 7070   6.810   0.518   0.503 -0.5686 -0.0506 -0.3598
34205SOL    HW1 7071   6.828   0.608   0.477 -1.5806 -0.1566 -1.5077
34205SOL    HW2 7072   6.715   0.510   0.499 -0.5628 -0.9356  0.5886
34206SOL     OW 7073   0.978   1.633   3.933 -0.5451 -0.4214  0.1885
34206SOL    HW1 7074   0.909   1.695   3.909  0.2847 -0.0869 -1.5342
34206SOL    HW2 7075   1.056   1.688   3.943 -0.1157 -1.0191  0.1400
34207SOL     OW 7076   5.305  10.485   1.856 -0.0104  0.6238  0.5139
34207SOL    HW1 7077   5.375  10.535   1.813 -0.0003  1.4776  1.4810
34207SOL    HW2 7078   5.335  10.476   1.947  0.4678 -2.0715  0.1600
34208SOL     OW 7079   5.589   2.179   7.397 -0.1058  0.6362  0.2030
34208SOL    HW1 7080   5.574   2.153   7.488 -0.1179 -0.3485 -0.0665
34208SOL    HW2 7081   5.630   2.265   7.402  0.9681  0.0846  1.1826
34209SOL     OW 7082  10.861   8.426   6.145  0.0634  0.1838 -0.0402
34209SOL    HW1 7083  10.945   8.384   6.127 -0.3685 -0.2213 -1.2413
34209SOL    HW2 7084  10.814   8.363   6.200  0.3754  0.2302  0.2867
34210SOL     OW 7085   0.900  10.109   4.406  0.3028 -0.4850 -0.7128
34210SOL    HW1 7086   0.996  10.106   4.414  0.3337 -2.2308 -1.2997
34210SOL    HW2 7087   0.869  10.113   4.496  0.9175 -1.6983 -0.4240
34211SOL     OW 7088   6.732   0.519   6.333  0.3337 -0.0127 -0.2817
34211SOL    HW1 7089   6.814   0.545   6.375  0.1250 -0.5213  0.4770
34211SOL    HW2 7090   6.706   0.595   6.281  0.2212  0.9571  1.1252
34212SOL     OW 7091   8.837   0.323   8.353 -0.0518 -0.2025  0.1268
34212SOL    HW1 7092   8.797   0.280   8.277 -0.5606 -0.2524  0.4179
34212SOL    HW2 7093   8.775   0.307   8.424 -0.0906  0.7430  0.3151
34213SOL     OW 7094   6.282   1.781   9.774 -0.7459 -0.6633 -0.5997
34213SOL    HW1 7095   6.267   1.857   9.831 -0.5465  0.3822 -1.8977
34213SOL    HW2 7096   6.233   1.801   9.694 -0.1263 -1.5895 -1.2225
34214SOL     OW 7097   7.005   7.107  10.292 -0.1876  0.1703  1.6013
34214SOL    HW1 7098   7.092   7.108  10.333  0.5363  0.8168  0.1098
34214SOL    HW2 7099   6.996   7.194  10.253 -1.7075  0.2688  2.1055
34215SOL     OW 7100   5.985   2.628   5.650  0.1587 -0.0292 -0.2294
34215SOL    HW1 7101   5.976   2.537   5.678  0.6493 -0.2199 -0.6735
34215SOL    HW2 7102   5.992   2.623   5.555  0.6216  0.4390 -0.2215
34216SOL     OW 7103   6.399   4.451   0.614 -0.2736 -0.1807 -0.7521
34216SOL    HW1 7104   6.393   4.543   0.586  1.5744  0.0906 -0.3802
34216SOL    HW2 7105   6.412   4.456   0.709  2.5311 -0.6652 -1.0507
34217SOL     OW 7106   6.270   8.874   6.788 -0.6063  0.4092 -0.0552
34217SOL    HW1 7107   6.281   8.842   6.878  0.0219  0.2056 -0.1977
34217SOL    HW2 7108   6.176   8.870   6.772 -0.6680 -0.0579  0.4131
34218SOL     OW 7109   6.478   2.146   8.032  0.2923  0.1472 -0.2974
34218SOL    HW1 7110   6.527   2.224   8.059  1.2243 -0.7499  0.7153
34218SOL    HW2 7111   6.496   2.137   7.938  2.0646 -0.1198  0.0372
34219SOL     OW 7112   0.785   9.195   6.787 -0.4713  0.0083 -0.0442
34219SOL    HW1 7113   0.690   9.190   6.796 -0.5268  1.0463  0.0309
34219SOL    HW2 7114   0.813   9.249   6.861  0.0796  0.4287 -0.5512
34220SOL     OW 7115   8.308   7.112   4.417 -0.1836  0.1979 -0.1958
34220SOL    HW1 7116   8.317   7.192   4.366  1.0149  0.7301  0.7802
34220SOL    HW2 7117   8.219   7.116   4.452  0.0172  1.3698  0.2356
34221SOL     OW 7118   0.973   8.868   9.983 -0.1340 -0.6129 -0.5182
34221SOL    HW1 7119   0.955   8.873  10.077  0.5954 -0.9958 -0.3506
34221SOL    HW2 7120   0.889   8.887   9.941 -0.0116  1.8318  0.1664
34222SOL     OW 7121   6.226   6.130   4.518  0.2911  0.2601 -0.0992
34222SOL    HW1 7122   6.320   6.116   4.530  0.2472  1.5372  2.1752
34222SOL    HW2 7123   6.184   6.069   4.578 -0.4678 -1.3285 -2.1125
34223SOL     OW 7124   0.884   3.454   3.603  0.8039 -0.3971  0.4243
34223SOL    HW1 7125   0.914   3.486   3.519  0.0804  0.2546  0.4035
34223SOL    HW2 7126   0.812   3.395   3.582 -0.8907  1.4901  0.6493
34224SOL     OW 7127   6.739   6.449   2.242  0.2986  0.1189  0.4148
34224SOL    HW1 7128   6.814   6.506   2.226  0.9623 -0.5772  1.0090
34224SOL    HW2 7129   6.776   6.361   2.246 -0.6374 -0.3038  0.0799
34225SOL     OW 7130   5.054   3.823   3.367 -0.4466 -0.2988  0.3582
34225SOL    HW1 7131   5.142   3.789   3.385 -0.1916 -0.0891 -0.4262
34225SOL    HW2 7132   5.042   3.893   3.431  0.1263 -0.0544  0.2041
34226SOL     OW 7133   5.367   7.346   2.642  0.0495 -0.5125 -0.7661
34226SOL    HW1 7134   5.445   7.302   2.675 -0.3664 -0.2543  0.6648
34226SOL    HW2 7135   5.379   7.349   2.547  1.7513 -0.4962 -0.5832
34227SOL     OW 7136   2.721   9.069   8.794 -0.1067  0.1835 -0.0244
34227SOL    HW1 7137   2.704   9.085   8.701  1.2617 -0.3602 -0.3922
34227SOL    HW2 7138   2.650   9.115   8.839 -0.9582  0.2290 -1.3348
34228SOL     OW 7139  10.899   1.743   8.998  0.0165  0.2121  0.1793
34228SOL    HW1 7140  10.994   1.746   9.009  0.3364  1.1009 -2.2232
34228SOL    HW2 7141  10.876   1.651   9.014  1.0900  0.1600  1.7297
34229SOL     OW 7142   9.390   5.725   1.468 -0.1316 -0.8757  0.5759
34229SOL    HW1 7143   9.473   5.736   1.422 -0.1781  0.2684  0.7302
34229SOL    HW2 7144   9.385   5.799   1.528 -1.3159 -0.8492  0.4830
34230SOL     OW 7145   7.784  10.251   4.978 -0.2742 -0.6265 -0.2263
34230SOL    HW1 7146   7.779  10.158   4.952  0.3783 -0.5071 -0.8137
34230SOL    HW2 7147   7.733  10.297   4.911 -0.7007 -0.5691  0.1352
34231SOL     OW 7148   3.158   2.260   8.800 -1.2251  0.3550  0.1643
34231SOL    HW1 7149   3.236   2.281   8.852 -0.0637 -0.6779 -1.0752
34231SOL    HW2 7150   3.145   2.337   8.744  0.5493 -0.4567 -1.4829
34232SOL     OW 7151   1.709   7.881   9.138 -1.0423 -0.7877 -0.3593
34232SOL    HW1 7152   1.746   7.818   9.077  1.1734 -0.3946  0.4971
34232SOL    HW2 7153   1.695   7.832   9.218  1.3007 -0.1733  0.5231
34233SOL     OW 7154  10.185   9.972   7.597 -0.3965 -0.2850  0.3397
34233SOL    HW1 7155  10.125   9.902   7.621  0.6728 -0.5696  2.4381
34233SOL    HW2 7156  10.152  10.049   7.642 -1.0641  0.4031 -1.2471
34234SOL     OW 7157   6.717   8.667   8.449  0.1781  0.2489 -0.6936
34234SOL    HW1 7158   6.673   8.624   8.376 -0.3053 -1.3321  0.4839
34234SOL    HW2 7159   6.646   8.706   8.501  0.1351 -1.7551  0.8601
34235SOL     OW 7160   5.333   3.367   5.558  0.3202 -0.8578  0.6913
34235SOL    HW1 7161   5.308   3.458   5.547  1.9307 -0.4044  0.5014
34235SOL    HW2 7162   5.250   3.320   5.568 -0.5798  0.4672 -0.2629
34236SOL     OW 7163   7.713   1.921   6.567 -0.1657 -0.0962  0.4132
34236SOL    HW1 7164   7.768   1.995   6.542 -0.5257  0.1365  0.3142
34236SOL    HW2 7165   7.736   1.904   6.659 -0.8875  0.8581  0.7858
34237SOL     OW 7166   8.359   4.372   0.592  0.2295 -0.2113  0.1512
34237SOL    HW1 7167   8.284   4.332   0.636  0.6235 -1.7766 -0.5324
34237SOL    HW2 7168   8.321   4.429   0.526 -0.3473 -0.2867  0.4113
34238SOL     OW 7169  10.725   5.312   3.752 -0.0265 -0.0245 -0.1745
34238SOL    HW1 7170  10.651   5.372   3.758 -1.0554 -1.1631 -1.1523
34238SOL    HW2 7171  10.802   5.368   3.766 -1.0927  0.7631  3.8180
34239SOL     OW 7172   3.828   0.883   3.787  0.5503 -0.8549  0.6086
34239SOL    HW1 7173   3.856   0.964   3.829 -1.6536 -0.2716  1.0873
34239SOL    HW2 7174   3.907   0.848   3.747  1.7149  1.1273  1.0484
34240SOL     OW 7175   2.424   5.817   5.190 -0.1769  0.3397 -0.2345
34240SOL    HW1 7176   2.438   5.728   5.223 -1.4460 -0.3120 -1.3874
34240SOL    HW2 7177   2.512   5.854   5.184  0.3480 -0.7040  0.5871
34241SOL     OW 7178   3.376  10.568   0.326 -0.0902 -0.4781 -0.0275
34241SOL    HW1 7179   3.370  10.529   0.240  0.6539  0.4025 -0.4960
34241SOL    HW2 7180   3.312  10.640   0.324  0.4966  0.0474 -0.1319
34242SOL     OW 7181   7.583   4.900   9.688  0.3864  0.3462 -0.7721
34242SOL    HW1 7182   7.589   4.994   9.669  0.4551  0.2268 -1.3806
34242SOL    HW2 7183   7.489   4.884   9.699  0.3058  0.3513 -1.4217
34243SOL     OW 7184   2.388   0.966   2.059 -0.3573  0.5251 -0.1714
34243SOL    HW1 7185   2.357   1.027   2.126  0.4300  0.9410 -0.1682
34243SOL    HW2 7186   2.315   0.959   1.997 -1.6373 -0.9064  1.3709
34244SOL     OW 7187   1.475   2.662   2.505 -0.0817  0.0907  0.0465
34244SOL    HW1 7188   1.385   2.691   2.488 -0.2233 -0.1206  0.4240
34244SOL    HW2 7189   1.492   2.598   2.435 -0.6561 -0.7553  0.6625
34245SOL     OW 7190   8.252   4.054   8.809  0.0321 -0.2625  0.5661
34245SOL    HW1 7191   8.341   4.025   8.828  0.4270  0.8114  0.4016
34245SOL    HW2 7192   8.206   4.046   8.893  0.8907  1.2975  1.2284
34246SOL     OW 7193  10.296   9.107   5.947  0.4111  0.5340 -0.1974
34246SOL    HW1 7194  10.328   9.197   5.957  1.6521  0.2016 -0.9958
34246SOL    HW2 7195  10.277   9.099   5.854  2.0284 -0.5507 -0.4823
34247SOL     OW 7196   2.671   3.735   9.950 -0.3449  0.2910  0.8228
34247SOL    HW1 7197   2.714   3.717   9.866 -1.5667  1.0584 -0.0075
34247SOL    HW2 7198   2.722   3.686  10.014  0.6015 -0.3496 -0.3706
34248SOL     OW 7199   3.287  10.171  10.067  0.0333 -0.0370 -0.3970
34248SOL    HW1 7200   3.311  10.110   9.998  0.8227 -0.5983  0.3599
34248SOL    HW2 7201   3.301  10.123  10.149 -1.5080  0.3852  0.1640
34249SOL     OW 7202   0.861   9.445   1.250 -0.3973  0.0442 -0.1542
34249SOL    HW1 7203   0.953   9.471   1.243 -0.4228  0.1631 -0.0367
34249SOL    HW2 7204   0.843   9.398   1.168  0.5165 -2.2981  0.8915
34250SOL     OW 7205  10.952   1.000   9.064  0.3985  0.0767  0.1607
34250SOL    HW1 7206  10.902   1.072   9.102 -0.8250 -0.6478 -0.0210
34250SOL    HW2 7207  10.942   1.010   8.970 -0.4011 -0.7358  0.1475
34251SOL     OW 7208   9.074   5.040   3.615 -0.6678  0.1798 -0.0489
34251SOL    HW1 7209   9.024   4.961   3.596 -0.6785 -0.0457  0.8506
34251SOL    HW2 7210   9.010   5.111   3.613 -1.2444 -0.2052  1.9152
34252SOL     OW 7211   7.993   6.610   0.788 -0.6499 -0.5766  0.3246
34252SOL    HW1 7212   7.903   6.579   0.776 -0.9252  0.7782 -1.5595
34252SOL    HW2 7213   7.989   6.666   0.866 -0.9920 -1.9927  1.3662
34253SOL     OW 7214   4.303   1.121   7.537 -0.1680  0.0290 -0.5964
34253SOL    HW1 7215   4.303   1.055   7.606 -1.6336 -0.5862 -1.1406
34253SOL    HW2 7216   4.337   1.200   7.579 -3.7892  0.5703  1.7896
34254SOL     OW 7217  10.707  10.100   8.362 -0.5403 -0.6864 -0.3525
34254SOL    HW1 7218  10.707  10.022   8.306  0.4551 -0.3938 -0.7757
34254SOL    HW2 7219  10.799  10.117   8.380 -0.7978 -0.1419  0.5050
34255SOL     OW 7220   2.009   3.535   4.344  0.3098  0.1543 -0.0863
34255SOL    HW1 7221   2.081   3.511   4.286  0.1629 -0.5805  0.0222
34255SOL    HW2 7222   1.974   3.451   4.374 -1.5711  0.4272 -1.3311
34256SOL     OW 7223   5.939   0.563  10.706  0.0152 -0.0480  0.1495
34256SOL    HW1 7224   5.981   0.570  10.792 -1.3488 -1.2822  0.9541
34256SOL    HW2 7225   5.988   0.623  10.651  0.8785  0.8466  1.8127
34257SOL     OW 7226   0.407   1.068   9.573 -0.5366 -0.3765  0.1180
34257SOL    HW1 7227   0.428   1.117   9.494 -1.5623  0.9466  0.6241
34257SOL    HW2 7228   0.469   1.100   9.639 -0.5911 -0.4689  0.2152
34258SOL     OW 7229   7.385   7.017   4.590 -0.2621  0.0488 -0.3957
34258SOL    HW1 7230   7.332   6.985   4.517  1.0452  0.2069 -1.4533
34258SOL    HW2 7231   7.343   6.980   4.668 -1.1245 -0.9381 -1.2903
34259SOL     OW 7232   1.434   8.432   7.782  0.6617  0.3812 -0.3511
34259SOL    HW1 7233   1.351   8.477   7.765 -0.3306 -1.4371 -0.6008
34259SOL    HW2 7234   1.437   8.363   7.716  2.1893  0.1616 -0.0697
34260SOL     OW 7235   1.273   8.612   8.123 -0.5106 -0.1894 -0.0044
34260SOL    HW1 7236   1.307   8.524   8.138 -0.1253 -0.6162 -2.8793
34260SOL    HW2 7237   1.266   8.650   8.211  1.0929 -2.4000  1.1808
34261SOL     OW 7238   3.802   4.096   9.896  0.7419  0.2268  0.0231
34261SOL    HW1 7239   3.776   4.102   9.988 -2.1311 -0.8821 -0.6104
34261SOL    HW2 7240   3.757   4.169   9.854  0.5029 -0.3747 -0.7866
34262SOL     OW 7241   9.954   6.587  10.124 -0.2706  0.2757 -0.2572
34262SOL    HW1 7242  10.028   6.526  10.121 -0.7644 -0.5221  1.7847
34262SOL    HW2 7243   9.995   6.674  10.129  0.5171 -0.0985  0.0112
34263SOL     OW 7244   3.208   2.288   1.423 -0.3274 -0.0701 -0.0044
34263SOL    HW1 7245   3.129   2.291   1.476 -0.3359 -0.3591 -0.0002
34263SOL    HW2 7246   3.176   2.279   1.333 -0.2935 -0.8171  0.0489
34264SOL     OW 7247   7.453   1.938   6.243 -0.3480 -0.0091  0.3042
34264SOL    HW1 7248   7.545   1.959   6.231 -0.2466 -0.8195 -0.5281
34264SOL    HW2 7249   7.451   1.842   6.247 -1.4591 -0.3366 -3.4869
34265SOL     OW 7250   6.414   4.186   6.844 -0.1887  0.0607 -0.0711
34265SOL    HW1 7251   6.352   4.114   6.833 -2.0863  1.4844  0.6726
34265SOL    HW2 7252   6.407   4.209   6.937  0.7483  0.8677 -0.1889
34266SOL     OW 7253   8.362   9.361   4.501 -0.3936  0.1641 -0.2210
34266SOL    HW1 7254   8.268   9.368   4.482 -0.2401  0.7386 -0.7781
34266SOL    HW2 7255   8.391   9.286   4.450 -1.0898 -1.8673  2.1288
34267SOL     OW 7256   6.314   2.572   5.284  0.5899  0.0112 -0.1019
34267SOL    HW1 7257   6.340   2.561   5.192  1.1386  0.8096 -0.0458
34267SOL    HW2 7258   6.250   2.502   5.299  1.7199 -1.1633 -0.6193
34268SOL     OW 7259   2.942  10.338   9.249 -0.5475 -0.2475  0.0980
34268SOL    HW1 7260   3.012  10.293   9.203  0.6248  1.0235  0.5704
34268SOL    HW2 7261   2.875  10.353   9.183  0.9384  1.2003 -1.1682
34269SOL     OW 7262   7.176   2.598   5.177 -0.1214 -0.6436  0.4426
34269SOL    HW1 7263   7.225   2.530   5.130 -0.7357 -0.1168 -1.0242
34269SOL    HW2 7264   7.085   2.572   5.167 -0.2837 -0.3084  1.0361
34270SOL     OW 7265   3.512   7.299   8.128  0.3814 -0.3962  0.6778
34270SOL    HW1 7266   3.472   7.267   8.209 -0.1796  0.3752  0.7146
34270SOL    HW2 7267   3.465   7.253   8.058  0.9149 -1.1172  0.7813
34271SOL     OW 7268   2.501   2.536   5.033  0.1213 -0.2493 -0.8034
34271SOL    HW1 7269   2.424   2.561   4.982 -0.9789 -1.1834  0.3338
34271SOL    HW2 7270   2.501   2.597   5.106 -0.5689 -1.3114  0.1172
34272SOL     OW 7271   9.658   5.825   0.969 -0.3685  0.8660 -0.1977
34272SOL    HW1 7272   9.742   5.871   0.964  0.7826 -1.1677 -0.3263
34272SOL    HW2 7273   9.633   5.810   0.878 -0.1599  0.2359 -0.1543
34273SOL     OW 7274   7.272   3.366   3.701  0.0190  0.1983  0.0869
34273SOL    HW1 7275   7.206   3.365   3.631  1.2666 -0.7793 -1.1444
34273SOL    HW2 7276   7.225   3.398   3.778 -1.1651  2.3418 -1.4204
34274SOL     OW 7277   4.079   7.486   3.253  0.2388  0.7984 -0.7423
34274SOL    HW1 7278   4.151   7.491   3.190 -0.3466 -0.9505 -1.5849
34274SOL    HW2 7279   4.005   7.528   3.208  0.3576  1.4055 -0.3879
34275SOL     OW 7280  10.979   0.877   5.859 -0.1798 -0.4837 -0.4497
34275SOL    HW1 7281  11.071   0.901   5.870 -0.6338  0.6919  1.2723
34275SOL    HW2 7282  10.975   0.784   5.883  0.6090 -0.6544 -0.9586
34276SOL     OW 7283   5.229   3.499   5.201  0.0498 -0.0545 -0.3022
34276SOL    HW1 7284   5.310   3.548   5.217 -0.3171  1.2481 -2.1442
34276SOL    HW2 7285   5.159   3.556   5.233 -0.1895 -1.4536  1.9036
34277SOL     OW 7286   3.510   5.772   1.339 -0.1544  0.0585 -0.1556
34277SOL    HW1 7287   3.420   5.774   1.373 -0.2805  0.2464 -0.5011
34277SOL    HW2 7288   3.512   5.839   1.271  0.0765 -0.3803 -0.5907
34278SOL     OW 7289   8.739   6.839   0.573 -0.6472  0.2257 -0.2259
34278SOL    HW1 7290   8.680   6.880   0.636 -0.8216 -0.5329  0.1142
34278SOL    HW2 7291   8.793   6.911   0.540 -2.0444  0.9962 -0.8770
34279SOL     OW 7292   1.071   1.591   0.804 -0.1444  0.1837  0.0202
34279SOL    HW1 7293   0.985   1.553   0.825 -0.9146  1.6427 -0.3930
34279SOL    HW2 7294   1.102   1.538   0.731 -1.0641  0.1397 -0.3619
34280SOL     OW 7295  10.150  10.952   9.138  0.1701 -0.2207 -0.3304
34280SOL    HW1 7296  10.229  10.976   9.186  0.1653 -1.7610  0.4948
34280SOL    HW2 7297  10.127  10.865   9.170 -1.1958 -0.3039 -1.4193
34281SOL     OW 7298   0.471   3.144   0.095  0.0423 -0.1489 -0.7865
34281SOL    HW1 7299   0.505   3.055   0.088  1.2001  0.2295 -0.1939
34281SOL    HW2 7300   0.548   3.199   0.106 -0.6459  0.9539 -1.2400
34282SOL     OW 7301   4.180   0.718   3.448  0.2376  0.8253 -0.2886
34282SOL    HW1 7302   4.109   0.656   3.463  0.6437  0.5457  0.5668
34282SOL    HW2 7303   4.257   0.663   3.431  0.4811  1.0989 -0.0858
34283SOL     OW 7304   6.121   0.695   5.544 -0.7743  0.1867 -0.4137
34283SOL    HW1 7305   6.194   0.663   5.491 -0.6388  0.0857 -0.1682
34283SOL    HW2 7306   6.163   0.739   5.618 -0.9618  0.7421 -0.6360
34284SOL     OW 7307   8.607  10.156   6.046  0.2659  0.3275 -0.2446
34284SOL    HW1 7308   8.665  10.160   5.970  0.0610  1.6975 -0.3465
34284SOL    HW2 7309   8.628  10.234   6.097 -1.4442  0.8452 -0.2603
34285SOL     OW 7310   6.011   3.982   1.410 -0.5960 -0.2333  0.2214
34285SOL    HW1 7311   5.951   3.972   1.484 -1.1143  2.1933  0.2209
34285SOL    HW2 7312   5.981   4.062   1.366  1.1630 -0.3004 -1.2243
34286SOL     OW 7313   9.058   4.066   3.515 -0.7939 -0.4676 -0.1779
34286SOL    HW1 7314   8.982   4.112   3.551 -0.7008  1.1720 -1.9569
34286SOL    HW2 7315   9.131   4.093   3.571 -1.4995 -2.3657  1.7954
34287SOL     OW 7316   6.296   1.759  10.188  0.1831  0.1095 -0.3302
34287SOL    HW1 7317   6.217   1.801  10.155  0.4130 -0.0992 -1.1663
34287SOL    HW2 7318   6.322   1.812  10.264 -0.6234  0.3105 -0.1870
34288SOL     OW 7319   6.670   8.599   2.481 -0.3286  0.0850 -0.1857
34288SOL    HW1 7320   6.643   8.520   2.527 -1.6189  0.4963 -0.2184
34288SOL    HW2 7321   6.743   8.634   2.533  0.8321 -1.5614 -0.6339
34289SOL     OW 7322   6.883   1.917   2.391  0.5607  0.4147  0.2076
34289SOL    HW1 7323   6.842   1.856   2.329  2.2060 -0.1898 -0.3143
34289SOL    HW2 7324   6.843   1.895   2.475 -2.0257  1.5135 -0.6086
34290SOL     OW 7325   4.016   4.646   7.137 -0.1215  0.0739 -0.3895
34290SOL    HW1 7326   3.948   4.582   7.154 -0.9208  0.8522 -0.5784
34290SOL    HW2 7327   4.081   4.599   7.085 -1.0110 -0.4007 -1.0974
34291SOL     OW 7328   0.462   2.036   5.759 -0.2217 -0.0684  0.6861
34291SOL    HW1 7329   0.501   2.118   5.792 -0.2320 -0.5822  2.0334
34291SOL    HW2 7330   0.374   2.061   5.731 -1.0209  0.0327  3.0639
34292SOL     OW 7331   2.009   4.060   5.125 -0.3951 -0.1402  0.1016
34292SOL    HW1 7332   1.935   4.038   5.182 -0.6855  0.6741  0.0498
34292SOL    HW2 7333   1.982   4.141   5.082  0.3841 -0.0324 -0.1855
34293SOL     OW 7334   5.913   1.341   8.146 -0.3797 -0.2640 -0.2942
34293SOL    HW1 7335   5.961   1.424   8.150 -1.7285  0.4985  2.0402
34293SOL    HW2 7336   5.843   1.356   8.083  1.5196 -0.9408 -2.7032
34294SOL     OW 7337   5.005   8.027   9.953  0.0563  0.2827  0.4637
34294SOL    HW1 7338   4.914   8.049   9.971 -0.2444 -0.5690 -0.0178
34294SOL    HW2 7339   5.042   8.009  10.039  0.4396  2.9886  0.9734
34295SOL     OW 7340   9.885   7.185   8.754 -0.7633 -0.0595  0.1186
34295SOL    HW1 7341   9.896   7.127   8.830  1.5325 -2.7320 -2.0066
34295SOL    HW2 7342   9.933   7.264   8.777  2.4153 -1.9342  0.5136
34296SOL     OW 7343   1.356   3.547   6.641 -0.4509  0.0298 -0.1507
34296SOL    HW1 7344   1.366   3.457   6.609  0.6096 -0.5001  1.5821
34296SOL    HW2 7345   1.261   3.559   6.647 -0.6026 -1.1459  0.0862
34297SOL     OW 7346  10.361   7.661  11.008 -1.0117  0.1731  0.0409
34297SOL    HW1 7347  10.359   7.624  10.919 -2.9991 -1.7840  0.8035
34297SOL    HW2 7348  10.269   7.676  11.030 -0.5244  1.1490  1.5917
34298SOL     OW 7349   1.593   0.855   3.521  0.1717  0.2187  0.1205
34298SOL    HW1 7350   1.583   0.948   3.542  0.7400  0.2492  0.2643
34298SOL    HW2 7351   1.617   0.854   3.428 -3.4288  0.0374 -0.9612
34299SOL     OW 7352   6.225   7.259   3.045 -0.1771 -0.2072  0.2267
34299SOL    HW1 7353   6.171   7.208   3.104 -0.1576  0.9842  1.3166
34299SOL    HW2 7354   6.249   7.337   3.095  1.1444  0.0973 -0.8152
34300SOL     OW 7355   3.579   3.915   4.243  0.3921  0.6401 -0.4020
34300SOL    HW1 7356   3.491   3.913   4.205  0.3615  0.8449 -0.3458
34300SOL    HW2 7357   3.612   3.826   4.233 -0.4236  0.1392  0.9983
34301SOL     OW 7358   4.150   2.280   8.763  0.6718 -0.3413  0.7023
34301SOL    HW1 7359   4.187   2.364   8.736 -0.9876 -0.5825 -2.9663
34301SOL    HW2 7360   4.068   2.304   8.807  0.7710 -0.0054  0.7106
34302SOL     OW 7361   1.386   6.963   3.271 -0.3914 -0.1067 -0.1403
34302SOL    HW1 7362   1.330   7.036   3.300  2.1635  1.7119  0.5606
34302SOL    HW2 7363   1.416   6.923   3.353  1.8509  1.0446 -0.3275
34303SOL     OW 7364  10.260   5.802   5.085 -0.1617  0.1364 -0.3037
34303SOL    HW1 7365  10.322   5.758   5.027 -1.2737 -2.1295  0.1346
34303SOL    HW2 7366  10.246   5.740   5.156 -0.9672  1.6972  0.9693
34304SOL     OW 7367   0.331   9.191   7.961  0.4828 -0.4946  0.6959
34304SOL    HW1 7368   0.336   9.237   8.045 -1.6538 -0.1673  0.6977
34304SOL    HW2 7369   0.325   9.260   7.896  1.5090 -0.7607  0.2868
34305SOL     OW 7370   9.549   1.342   9.540 -0.5904 -0.0317  0.7721
34305SOL    HW1 7371   9.456   1.336   9.565 -0.6175  2.3497  1.4846
34305SOL    HW2 7372   9.553   1.416   9.479  0.6216 -1.2115 -0.6642
34306SOL     OW 7373   0.779   8.203   9.647  0.3153 -0.3564  0.0380
34306SOL    HW1 7374   0.796   8.296   9.662  0.0453 -0.0900 -1.1688
34306SOL    HW2 7375   0.695   8.186   9.690  0.3863 -0.0580  0.2942
34307SOL     OW 7376   3.907   2.476   4.011 -0.6775  0.4976 -0.1065
34307SOL    HW1 7377   3.948   2.555   3.975  0.8957  1.0610  2.6352
34307SOL    HW2 7378   3.941   2.405   3.958  1.0931  1.3175 -0.1244
34308SOL     OW 7379   7.434   0.230  10.772  0.7550 -0.2914  0.1078
34308SOL    HW1 7380   7.441   0.273  10.857  1.0160 -0.8884  0.3947
34308SOL    HW2 7381   7.438   0.137  10.792 -2.8916 -0.6573 -0.1783
34309SOL     OW 7382  10.562   2.574   9.246  0.2613  0.1131 -0.1150
34309SOL    HW1 7383  10.478   2.536   9.219  0.6618 -0.5358 -0.4773
34309SOL    HW2 7384  10.628   2.510   9.218  0.9360  0.9343 -0.4599
34310SOL     OW 7385   3.157  10.339   5.243  0.7015 -0.0342 -0.5028
34310SOL    HW1 7386   3.217  10.356   5.317  0.0641 -0.3419  0.0974
34310SOL    HW2 7387   3.166  10.416   5.187  0.5049  0.6438  0.3663
34311SOL     OW 7388   7.543   5.132   5.031  0.3967 -0.1127 -0.3360
34311SOL    HW1 7389   7.582   5.207   4.985 -2.4193  1.5763 -0.2038
34311SOL    HW2 7390   7.590   5.127   5.114  1.4211  0.7596 -0.8478
34312SOL     OW 7391   8.367   7.550   7.053 -0.3025  0.0643 -0.3641
34312SOL    HW1 7392   8.323   7.492   7.115 -2.6513  0.0544 -1.8875
34312SOL    HW2 7393   8.316   7.631   7.055  1.0095  0.9275 -0.5831
34313SOL     OW 7394   0.110   7.617   4.007  0.3702 -0.3044 -0.0387
34313SOL    HW1 7395   0.024   7.610   4.048  0.0844  2.2184 -0.0357
34313SOL    HW2 7396   0.102   7.571   3.924 -0.9260 -0.2499  0.0453
34314SOL     OW 7397   6.875   1.661  10.957  0.2704  0.0751  0.1724
34314SOL    HW1 7398   6.953   1.606  10.961  0.4711  0.2901 -0.7259
34314SOL    HW2 7399   6.871   1.703  11.043  0.0168 -1.4486  0.9396
34315SOL     OW 7400  10.247   0.093  10.534  0.2872 -0.6529  0.3787
34315SOL    HW1 7401  10.301   0.015  10.519 -0.6681 -1.2917  0.1569
34315SOL    HW2 7402  10.285   0.134  10.611  0.2803 -1.8352  1.0414
34316SOL     OW 7403   8.638   5.135   5.931  0.8211  0.4388 -0.2909
34316SOL    HW1 7404   8.611   5.062   5.987 -0.3054  0.9722 -0.1064
34316SOL    HW2 7405   8.732   5.123   5.918  0.5189 -1.5189 -0.9538
34317SOL     OW 7406   7.434  10.558   1.116  0.3070 -0.7730 -0.2331
34317SOL    HW1 7407   7.409  10.466   1.127  0.5536 -0.5927  2.7761
34317SOL    HW2 7408   7.359  10.607   1.148 -0.7613  0.2909 -3.8919
34318SOL     OW 7409   0.606   2.040   6.654 -0.5418  0.5273 -0.1533
34318SOL    HW1 7410   0.672   2.041   6.723 -0.3737  1.3867 -0.3173
34318SOL    HW2 7411   0.590   1.947   6.637  2.1318  0.2429 -1.5470
34319SOL     OW 7412   3.462   8.380   5.272  0.2851  0.2937  0.0263
34319SOL    HW1 7413   3.412   8.382   5.354  0.1722  1.9112 -0.0406
34319SOL    HW2 7414   3.395   8.376   5.204  0.2684  1.2396 -0.0292
34320SOL     OW 7415  10.072   0.344   3.770  0.0386 -0.4666 -0.1759
34320SOL    HW1 7416   9.996   0.399   3.787 -0.9162 -1.0437 -2.2311
34320SOL    HW2 7417  10.109   0.379   3.689  1.0128 -1.2054 -0.0698
34321SOL     OW 7418   2.329  10.682   1.813  0.2228 -0.0292 -0.0348
34321SOL    HW1 7419   2.268  10.737   1.764 -1.8329  0.9417  3.3118
34321SOL    HW2 7420   2.410  10.732   1.815 -0.6694  1.4571  0.3377
34322SOL     OW 7421   0.058   8.483   1.610  0.0605 -0.1112  0.1644
34322SOL    HW1 7422   0.006   8.453   1.685 -1.8942  0.9640 -0.6655
34322SOL    HW2 7423   0.048   8.414   1.545 -0.9057  0.3708 -0.2193
34323SOL     OW 7424   8.643   2.351   0.264  0.0229 -0.7399  0.1074
34323SOL    HW1 7425   8.720   2.379   0.313 -0.6813 -0.0223  0.8586
34323SOL    HW2 7426   8.634   2.415   0.194  0.3150 -1.0343 -0.1992
34324SOL     OW 7427   8.312   0.803   1.344 -0.1465 -0.1147  0.1329
34324SOL    HW1 7428   8.406   0.814   1.360 -0.5986  1.0629  2.2448
34324SOL    HW2 7429   8.281   0.753   1.419 -1.2369 -0.4896 -0.5468
34325SOL     OW 7430   7.651   1.502   1.578 -0.5089 -0.4422 -0.1676
34325SOL    HW1 7431   7.721   1.487   1.642  0.4343  0.6223 -0.9100
34325SOL    HW2 7432   7.697   1.520   1.496 -1.6778 -2.9606 -1.4991
34326SOL     OW 7433   6.126   0.254  10.308  0.2262  0.6295  0.1601
34326SOL    HW1 7434   6.189   0.323  10.327 -0.0278  0.6817  0.8189
34326SOL    HW2 7435   6.123   0.200  10.387 -1.0440  1.0139  0.4033
34327SOL     OW 7436  11.042   2.749   2.642  0.1839 -0.2561  0.3274
34327SOL    HW1 7437  11.028   2.751   2.547  2.4521 -0.1833 -0.0408
34327SOL    HW2 7438  11.096   2.671   2.656  1.5236  0.8147  1.2994
34328SOL     OW 7439   6.694   9.124   0.061 -0.5791 -0.4339  0.0495
34328SOL    HW1 7440   6.750   9.098   0.134 -0.3754  0.9625  0.4041
34328SOL    HW2 7441   6.656   9.041   0.030  1.5958 -1.4071 -0.1747
34329SOL     OW 7442   0.415   0.366   6.366 -0.3729  0.3424  0.6964
34329SOL    HW1 7443   0.398   0.408   6.281  2.6594  0.4285  0.0138
34329SOL    HW2 7444   0.416   0.272   6.346  0.0134  0.3444  0.7081
34330SOL     OW 7445   3.890   5.973   5.729  0.8661  0.4282 -0.4864
34330SOL    HW1 7446   3.967   6.029   5.719  1.1684  0.0959 -0.0487
34330SOL    HW2 7447   3.907   5.922   5.808 -1.2479  2.7218  1.6192
34331SOL     OW 7448   8.212   9.625   2.748 -0.5393  0.1722 -0.2467
34331SOL    HW1 7449   8.295   9.591   2.714 -0.7511  0.5769 -1.1870
34331SOL    HW2 7450   8.229   9.718   2.763  0.1655 -0.3154  2.7023
34332SOL     OW 7451   5.871   1.246   3.352  0.0203 -0.1900 -0.2056
34332SOL    HW1 7452   5.845   1.269   3.441  0.3375 -1.7521  0.3257
34332SOL    HW2 7453   5.812   1.296   3.296 -1.6731 -0.8412  0.9109
34333SOL     OW 7454   9.534   5.880  10.353 -0.6774 -0.7011  0.1134
34333SOL    HW1 7455   9.552   5.845  10.266 -1.4059  0.2325 -0.4328
34333SOL    HW2 7456   9.443   5.856  10.370  0.1359 -3.0607  1.7185
34334SOL     OW 7457   0.831   0.472   0.439  0.3241 -0.1297  0.7499
34334SOL    HW1 7458   0.739   0.496   0.431  0.7285  0.9507 -1.3610
34334SOL    HW2 7459   0.834   0.380   0.413 -0.1294 -0.1186  0.6419
34335SOL     OW 7460   2.499   9.757   7.390 -0.3523  0.3728  0.4300
34335SOL    HW1 7461   2.496   9.835   7.335  0.9789  0.3449  0.3019
34335SOL    HW2 7462   2.523   9.686   7.331  0.3261  0.2054  0.8983
34336SOL     OW 7463   6.077   0.271   0.095  0.3425  0.1861 -0.2348
34336SOL    HW1 7464   6.039   0.228   0.171  0.7068  1.3026  0.5981
34336SOL    HW2 7465   6.006   0.272   0.030 -0.5050  0.6702  0.6738
34337SOL     OW 7466   1.471   4.469   0.610  0.1366 -0.0356  0.1291
34337SOL    HW1 7467   1.387   4.485   0.568 -0.1796  0.3558  0.8911
34337SOL    HW2 7468   1.496   4.381   0.581  0.7685  0.8418 -2.2247
34338SOL     OW 7469   1.583   6.562   4.382  0.4825 -0.3632 -0.2903
34338SOL    HW1 7470   1.544   6.494   4.327  0.1981  0.2700 -0.8856
34338SOL    HW2 7471   1.646   6.515   4.436 -1.0750 -1.4305  0.7088
34339SOL     OW 7472  10.848  11.013  10.993 -0.7189  0.6017 -0.0141
34339SOL    HW1 7473  10.754  11.025  10.980 -0.7370 -1.8837 -3.2700
34339SOL    HW2 7474  10.889  11.072  10.929 -0.0108  1.3565  1.0926
34340SOL     OW 7475   4.658   2.546   9.902 -0.1890  0.1529  0.4250
34340SOL    HW1 7476   4.735   2.597   9.876  0.5926 -0.6587  1.0880
34340SOL    HW2 7477   4.623   2.513   9.819 -0.2286  1.0651  0.0591
34341SOL     OW 7478   0.744   5.584  11.029 -0.1326  0.3742 -0.0909
34341SOL    HW1 7479   0.745   5.648  10.958  0.2478 -0.7612 -1.1474
34341SOL    HW2 7480   0.830   5.592  11.070  0.0021  0.3832 -0.3705
34342SOL     OW 7481   6.450   1.446   8.429  0.3168 -0.7413 -0.5671
34342SOL    HW1 7482   6.528   1.450   8.373  0.0657  0.6634 -0.8506
34342SOL    HW2 7483   6.449   1.531   8.474 -0.4483 -1.1801  0.2666
34343SOL     OW 7484  11.026   5.719   1.531 -0.3190  0.5381  0.7030
34343SOL    HW1 7485  11.057   5.810   1.534 -2.8789  1.5052  0.4406
34343SOL    HW2 7486  11.003   5.699   1.622 -0.9788  0.6415  0.5636
34344SOL     OW 7487   9.197   3.149   5.824  0.2359 -0.1603  0.3298
34344SOL    HW1 7488   9.276   3.141   5.877  0.4527 -0.2861 -0.0074
34344SOL    HW2 7489   9.180   3.243   5.820  2.2159  0.1985 -2.2375
34345SOL     OW 7490   1.676   8.648   9.519 -0.1536  0.0392  0.5139
34345SOL    HW1 7491   1.679   8.565   9.472 -0.2934  0.4922 -0.3151
34345SOL    HW2 7492   1.594   8.688   9.493  1.3586  1.9441 -1.7873
34346SOL     OW 7493  10.585   3.398   9.926  0.0641 -0.1498 -0.1186
34346SOL    HW1 7494  10.504   3.415   9.878  1.4453  3.0630 -1.6329
34346SOL    HW2 7495  10.654   3.405   9.860  1.8491  1.5603  1.7817
34347SOL     OW 7496   9.002   7.576   2.359 -0.2497  0.3103 -0.1625
34347SOL    HW1 7497   8.986   7.493   2.314  1.0546  1.2622 -2.5375
34347SOL    HW2 7498   8.952   7.640   2.309  2.5445  1.6706 -1.4168
34348SOL     OW 7499   0.513   5.734   7.835 -0.1240  0.0340  0.2261
34348SOL    HW1 7500   0.525   5.756   7.927 -0.5360  0.2395  0.2344
34348SOL    HW2 7501   0.533   5.815   7.788 -0.6621  0.1543  0.1908
34349SOL     OW 7502   5.160   1.778   3.709 -0.3494  0.0557  0.3906
34349SOL    HW1 7503   5.089   1.815   3.762  0.2394  0.8056  0.6640
34349SOL    HW2 7504   5.220   1.851   3.695  0.1484 -0.4616 -0.2242
34350SOL     OW 7505   0.504   5.945   8.624 -0.2433  0.3035 -0.1375
34350SOL    HW1 7506   0.411   5.926   8.634 -0.4974  0.3435 -2.0821
34350SOL    HW2 7507   0.517   6.027   8.673 -1.5013  0.9534 -0.8494
34351SOL     OW 7508   0.720   5.871   1.924  0.3612  0.6386  0.1459
34351SOL    HW1 7509   0.786   5.915   1.871  0.8867  1.1596  1.2131
34351SOL    HW2 7510   0.765   5.846   2.004 -0.4633  0.0146  0.4356
34352SOL     OW 7511   4.395   7.214   8.497  0.3977 -0.1486 -0.0612
34352SOL    HW1 7512   4.489   7.211   8.510  0.0407  1.3859  5.0784
34352SOL    HW2 7513   4.381   7.286   8.434  2.5757  0.3858  0.0023
34353SOL     OW 7514   7.062   6.771   0.277  0.0986 -0.0287  0.1687
34353SOL    HW1 7515   7.051   6.773   0.372 -0.4871 -0.9371  0.1328
34353SOL    HW2 7516   7.064   6.863   0.251  0.1088  0.2241  1.0402
34354SOL     OW 7517   5.577  10.657   3.124  0.1507 -0.1859 -0.2602
34354SOL    HW1 7518   5.643  10.706   3.172 -0.8761  1.1840 -0.1858
34354SOL    HW2 7519   5.591  10.566   3.150  0.7265  0.3142  1.2768
34355SOL     OW 7520   5.072   1.468   2.755  0.2436  0.1487  0.2095
34355SOL    HW1 7521   5.066   1.393   2.814  0.0286  0.1262  0.1615
34355SOL    HW2 7522   5.142   1.522   2.791 -1.1212  1.0871  1.5987
34356SOL     OW 7523   4.301   3.972   3.760 -0.2509  0.3811  0.4000
34356SOL    HW1 7524   4.303   3.897   3.819  0.3152 -0.4827 -0.6953
34356SOL    HW2 7525   4.275   3.936   3.675 -0.5569  1.5209 -0.0111
34357SOL     OW 7526   8.625   3.302   7.151 -0.1600  0.6064 -0.9316
34357SOL    HW1 7527   8.701   3.355   7.127  0.1251  0.7917  0.3035
34357SOL    HW2 7528   8.555   3.367   7.166  0.3924  0.7845  1.3471
34358SOL     OW 7529   1.812   1.353   7.602  0.1746 -0.0335  0.2230
34358SOL    HW1 7530   1.787   1.337   7.693  0.1958  1.0426  0.4257
34358SOL    HW2 7531   1.794   1.446   7.588  1.6068  0.1649 -0.4191
34359SOL     OW 7532   2.649   4.008   2.322 -0.3048 -0.1821  0.4386
34359SOL    HW1 7533   2.706   4.059   2.265 -0.8720  0.8437  0.7663
34359SOL    HW2 7534   2.564   4.006   2.277  0.6232 -4.2924 -1.5881
34360SOL     OW 7535   7.523   9.920  10.698 -0.0693  0.5981 -0.0837
34360SOL    HW1 7536   7.597   9.971  10.730 -0.9684  1.2775  1.0080
34360SOL    HW2 7537   7.549   9.829  10.711  1.1865  0.7554 -1.2045
34361SOL     OW 7538   0.332   8.426   1.786 -0.0148 -0.0996  0.3579
34361SOL    HW1 7539   0.325   8.516   1.818  0.3445  0.8162 -1.9850
34361SOL    HW2 7540   0.247   8.387   1.806 -1.1905  1.6280 -0.9979
34362SOL     OW 7541   4.862  10.252   1.174 -0.1906 -0.4763  0.0467
34362SOL    HW1 7542   4.945  10.269   1.218 -1.1183  0.2424  1.5913
34362SOL    HW2 7543   4.817  10.190   1.232 -1.5844  0.7443  0.3028
34363SOL     OW 7544   3.603   6.444   7.539  0.3898 -0.2135  0.0237
34363SOL    HW1 7545   3.518   6.404   7.558  0.1307  0.8917  1.3056
34363SOL    HW2 7546   3.627   6.490   7.619  0.6206  2.2947 -1.3711
34364SOL     OW 7547   8.498   1.623   9.810  0.3618 -0.4463 -0.1580
34364SOL    HW1 7548   8.536   1.621   9.723  1.5873 -1.7636  0.3658
34364SOL    HW2 7549   8.527   1.706   9.848  1.3296 -0.6759 -0.3781
34365SOL     OW 7550   4.104   9.260   5.491 -0.3344 -0.9148 -0.2860
34365SOL    HW1 7551   4.012   9.278   5.471 -0.8784  0.6381  3.0088
34365SOL    HW2 7552   4.103   9.221   5.578  2.1926  1.1604  0.8131
34366SOL     OW 7553   6.490   0.148  10.232  0.1418 -0.2317  0.5164
34366SOL    HW1 7554   6.584   0.158  10.216  0.3498  1.4338  2.3184
34366SOL    HW2 7555   6.448   0.196  10.161  0.7759  1.2683  1.1108
34367SOL     OW 7556   5.122   3.135   4.913  0.2316  0.2667 -0.3706
34367SOL    HW1 7557   5.037   3.091   4.910  1.1358 -1.6377  0.6278
34367SOL    HW2 7558   5.114   3.205   4.847 -0.6127 -2.6213 -3.6242
34368SOL     OW 7559   0.674   9.780   1.987  0.1443  0.0783 -0.1734
34368SOL    HW1 7560   0.606   9.774   2.054 -0.1491  3.3618 -0.0114
34368SOL    HW2 7561   0.628   9.766   1.904 -0.1997 -0.3654  0.0896
34369SOL     OW 7562   7.884  10.930   4.502  0.0598 -0.0669 -0.0678
34369SOL    HW1 7563   7.946  10.861   4.478  0.3741 -0.0980  0.8089
34369SOL    HW2 7564   7.831  10.942   4.423  0.3283 -0.9560 -0.4035
34370SOL     OW 7565   4.957   0.622   8.020  0.3708 -0.1181  0.3341
34370SOL    HW1 7566   4.960   0.605   8.114 -1.8235  0.5692  0.5879
34370SOL    HW2 7567   5.012   0.699   8.008  0.3764  0.0096  1.1310
34371SOL     OW 7568   9.331   0.011   4.817 -0.0487 -0.0869  0.4434
34371SOL    HW1 7569   9.279  -0.037   4.753 -0.2878  1.0295 -0.2088
34371SOL    HW2 7570   9.282   0.001   4.899 -1.1419  0.6875 -0.0989
34372SOL     OW 7571   0.857   2.465   4.347 -0.0018 -0.2073 -0.3381
34372SOL    HW1 7572   0.892   2.378   4.365  0.6115 -0.2275 -1.5982
34372SOL    HW2 7573   0.786   2.475   4.412  0.3743 -1.3422  0.2846
34373SOL     OW 7574   9.909   9.993   9.670  0.4537  0.0146  0.1859
34373SOL    HW1 7575   9.866  10.018   9.752 -1.1060 -0.2135 -0.5381
34373SOL    HW2 7576   9.923   9.899   9.678  0.0332 -0.0584  0.0732
34374SOL     OW 7577   3.376   0.097   2.186 -0.4942 -0.0273 -0.3152
34374SOL    HW1 7578   3.356   0.117   2.277  0.5823 -1.4014  0.2600
34374SOL    HW2 7579   3.409   0.180   2.150 -0.2401  0.3493  0.7522
34375SOL     OW 7580   4.605   9.263   7.635 -0.3161 -0.1035  0.1849
34375SOL    HW1 7581   4.690   9.221   7.621  0.4689  1.4633  0.0707
34375SOL    HW2 7582   4.570   9.222   7.715  0.0562 -1.4845 -0.3364
34376SOL     OW 7583   4.274   4.552   8.696 -0.5136 -0.2425 -0.0615
34376SOL    HW1 7584   4.362   4.566   8.730 -0.3176 -2.3698  0.4746
34376SOL    HW2 7585   4.244   4.472   8.740 -1.8692 -0.7846 -1.8410
34377SOL     OW 7586   6.368   4.527   9.475  0.1010  0.4996 -0.1363
34377SOL    HW1 7587   6.319   4.491   9.548  0.9487 -0.0524  0.1690
34377SOL    HW2 7588   6.304   4.535   9.404  0.0863 -2.7006 -0.6129
34378SOL     OW 7589   6.587   2.436   7.177  0.0676  0.6699 -0.1525
34378SOL    HW1 7590   6.553   2.472   7.259 -1.0625  3.6161 -1.7669
34378SOL    HW2 7591   6.682   2.433   7.191 -0.1622  0.1357  1.5803
34379SOL     OW 7592   4.400   6.362  10.734 -0.3736  0.2406 -0.3077
34379SOL    HW1 7593   4.432   6.322  10.653 -2.3434 -0.4907 -0.7662
34379SOL    HW2 7594   4.412   6.294  10.801  1.8904  1.0760  0.2404
34380SOL     OW 7595  10.516  10.541   7.272  0.5885  0.3759 -0.9130
34380SOL    HW1 7596  10.533  10.456   7.230  1.8833 -0.2875  0.8310
34380SOL    HW2 7597  10.592  10.555   7.329 -0.7687  1.5306  0.7106
34381SOL     OW 7598   2.460   2.581   1.902  0.5279  0.2854  0.1481
34381SOL    HW1 7599   2.481   2.514   1.967 -1.6332 -1.6180 -0.9728
34381SOL    HW2 7600   2.531   2.574   1.838  1.3656  0.4663  1.0389
34382SOL     OW 7601   7.190   2.150   3.209  0.5337 -0.7604  0.4520
34382SOL    HW1 7602   7.147   2.106   3.282  0.1195 -0.5495  0.3375
34382SOL    HW2 7603   7.131   2.221   3.185  2.6243  1.9280  2.6604
34383SOL     OW 7604   5.351   8.269   0.207  0.0738  0.0931 -0.0499
34383SOL    HW1 7605   5.361   8.337   0.140 -0.0132 -0.2074 -0.3722
34383SOL    HW2 7606   5.268   8.288   0.249  0.8206  1.1709  0.9949
34384SOL     OW 7607   6.453  10.132   8.650  0.1074  0.1442  0.0361
34384SOL    HW1 7608   6.548  10.143   8.660 -0.0970  2.9872 -0.4363
34384SOL    HW2 7609   6.443  10.091   8.564  0.8981  1.2412 -0.6108
34385SOL     OW 7610   9.085  10.437   7.968  0.6418 -0.1097 -0.4599
34385SOL    HW1 7611   9.013  10.379   7.942  0.2894  0.8725 -1.8094
34385SOL    HW2 7612   9.096  10.421   8.062 -0.9466 -0.7153 -0.3453
34386SOL     OW 7613   3.552   2.241   3.831  0.1151  0.1592 -0.4686
34386SOL    HW1 7614   3.563   2.319   3.777 -0.2771  1.0082  0.6482
34386SOL    HW2 7615   3.515   2.273   3.913 -2.1128 -1.4440 -0.7504
34387SOL     OW 7616   1.798   7.951   0.335 -0.3973  0.0251  0.5978
34387SOL    HW1 7617   1.752   8.014   0.279 -0.1358 -0.5056 -0.2200
34387SOL    HW2 7618   1.733   7.883   0.352 -0.1662 -0.3114  0.1251
34388SOL     OW 7619   2.488  10.582   4.527  0.6654  0.4423  0.2192
34388SOL    HW1 7620   2.432  10.506   4.539  2.1445 -0.6611  0.4658
34388SOL    HW2 7621   2.529  10.596   4.612  0.2134  1.7204  0.2551
34389SOL     OW 7622   2.316   1.812   9.460  0.0210 -0.1063  0.2295
34389SOL    HW1 7623   2.397   1.863   9.451  1.0102 -1.4565  1.1030
34389SOL    HW2 7624   2.266   1.831   9.380  1.9572 -0.5673 -1.1573
34390SOL     OW 7625   7.271   8.037   7.148 -0.1658  0.4056  0.5073
34390SOL    HW1 7626   7.315   8.007   7.228  0.8255 -1.7705 -0.7786
34390SOL    HW2 7627   7.211   7.966   7.126 -0.2537  0.8715 -0.8289
34391SOL     OW 7628   2.695   7.779   2.719 -0.6225  0.0002  0.1018
34391SOL    HW1 7629   2.690   7.746   2.809 -3.1775 -0.6228 -0.2035
34391SOL    HW2 7630   2.604   7.794   2.694  0.1361  1.7799 -1.8228
34392SOL     OW 7631   6.718   2.941   8.115 -0.2820 -0.1924 -0.1617
34392SOL    HW1 7632   6.708   2.989   8.198 -2.0080 -0.2574 -0.3045
34392SOL    HW2 7633   6.631   2.944   8.075 -0.0201 -2.0304 -0.9585
34393SOL     OW 7634   1.971   7.931   2.147  0.1906  0.1005  0.1047
34393SOL    HW1 7635   1.964   7.891   2.234 -1.7029  0.2403  0.0659
34393SOL    HW2 7636   2.015   7.865   2.093 -0.0452 -0.6308  0.7854
34394SOL     OW 7637   3.136   0.932   2.676 -0.0618 -0.0579  0.1945
34394SOL    HW1 7638   3.097   0.884   2.603  0.3626  0.4252 -0.3544
34394SOL    HW2 7639   3.084   1.013   2.682  1.6619  1.2664 -1.4561
34395SOL     OW 7640   1.446   2.932   9.323 -0.1723  0.4649  0.3806
34395SOL    HW1 7641   1.540   2.944   9.322  0.2715 -2.3104 -0.2206
34395SOL    HW2 7642   1.430   2.877   9.400 -1.1840  0.2065  0.0034
34396SOL     OW 7643   1.401   0.724   4.148  0.1612 -0.0824  0.2084
34396SOL    HW1 7644   1.486   0.751   4.184 -0.4507  1.4502  0.5777
34396SOL    HW2 7645   1.338   0.752   4.214 -0.6422 -1.1974 -0.0751
34397SOL     OW 7646   5.226   6.835   9.787 -0.6705  0.2137 -0.5142
34397SOL    HW1 7647   5.311   6.857   9.826 -0.4353 -0.2307 -0.7694
34397SOL    HW2 7648   5.213   6.902   9.720 -0.7412  0.5560 -0.1646
34398SOL     OW 7649   1.247   3.519   0.010  0.2618  0.0362 -0.1160
34398SOL    HW1 7650   1.199   3.459   0.066  1.8405 -0.8496  0.3398
34398SOL    HW2 7651   1.193   3.525  -0.069  0.3399 -2.5148 -0.4585
34399SOL     OW 7652   7.641   9.250   5.272  0.2503 -0.1873 -0.3422
34399SOL    HW1 7653   7.727   9.219   5.300 -0.6459 -0.3430  2.5451
34399SOL    HW2 7654   7.623   9.325   5.328  0.1410  2.5224 -3.6801
34400SOL     OW 7655   3.825   2.857   4.590  0.2551  0.0988 -0.0266
34400SOL    HW1 7656   3.840   2.923   4.658 -2.2144 -0.7086  1.4254
34400SOL    HW2 7657   3.787   2.783   4.636 -0.9203 -0.7432 -2.1868
34401SOL     OW 7658   7.192   2.726   1.871 -0.1671  0.0031 -0.0852
34401SOL    HW1 7659   7.282   2.700   1.891  0.6124  1.2567 -1.7608
34401SOL    HW2 7660   7.170   2.674   1.794 -1.8104 -2.0750  1.6594
34402SOL     OW 7661   8.414   3.907   3.786 -0.1947  0.0197  0.5814
34402SOL    HW1 7662   8.344   3.967   3.762 -1.0965 -1.2120  0.0314
34402SOL    HW2 7663   8.447   3.873   3.703  1.0848  0.5907  0.8284
34403SOL     OW 7664   8.846   6.679   1.871 -0.0086  0.1846 -0.2707
34403SOL    HW1 7665   8.765   6.629   1.858  1.3519 -2.1775 -0.1905
34403SOL    HW2 7666   8.876   6.698   1.782  0.8721 -1.6086 -0.3877
34404SOL     OW 7667   0.408   4.392   1.834  0.3130 -0.0108  0.3143
34404SOL    HW1 7668   0.400   4.389   1.929  1.4846 -0.4213  0.4174
34404SOL    HW2 7669   0.454   4.474   1.817 -1.0079  0.6971 -0.0126
34405SOL     OW 7670   3.166   0.643   8.192 -0.4391  0.3198  0.2202
34405SOL    HW1 7671   3.232   0.684   8.136  0.7590  0.1434  1.4378
34405SOL    HW2 7672   3.113   0.591   8.133 -0.1672  1.3166 -0.9497
34406SOL     OW 7673   1.414  10.392   2.785 -0.0255  0.7321  0.2193
34406SOL    HW1 7674   1.468  10.444   2.726  0.8450 -0.3632  0.0267
34406SOL    HW2 7675   1.381  10.456   2.849  2.3091  1.2922  0.9556
34407SOL     OW 7676  10.318  10.736   7.691 -0.2659  0.6286 -0.2217
34407SOL    HW1 7677  10.341  10.747   7.783 -1.0369 -0.6761  0.1520
34407SOL    HW2 7678  10.399  10.707   7.649 -0.1462  0.3074  0.2270
34408SOL     OW 7679   3.924   3.350   8.542  0.3599  0.2082 -0.0270
34408SOL    HW1 7680   3.908   3.445   8.535 -2.1370 -0.1420  0.0988
34408SOL    HW2 7681   3.877   3.324   8.621 -2.3753 -1.7164 -2.0982
34409SOL     OW 7682   5.682   3.305   9.210  0.6321 -0.2314  0.2658
34409SOL    HW1 7683   5.759   3.362   9.201  0.7422 -0.4616 -0.2766
34409SOL    HW2 7684   5.664   3.304   9.304  1.0695  0.1187  0.3563
34410SOL     OW 7685  10.672   9.902   4.948  0.0409 -0.1792  0.4032
34410SOL    HW1 7686  10.749   9.867   4.993 -0.6374 -0.1374  1.6548
34410SOL    HW2 7687  10.678   9.867   4.859  1.3974 -0.3237  0.5333
34411SOL     OW 7688   8.798   5.477   0.556  0.1495 -0.5239 -0.1711
34411SOL    HW1 7689   8.742   5.552   0.575 -1.6073 -2.0717  1.0825
34411SOL    HW2 7690   8.812   5.480   0.461  0.8996  1.8521 -0.0504
34412SOL     OW 7691   0.481  10.562   6.473 -0.4423 -0.6390  0.1132
34412SOL    HW1 7692   0.536  10.530   6.544 -0.0605 -1.7840 -0.6627
34412SOL    HW2 7693   0.458  10.483   6.423  1.1953  0.2905 -2.3380
34413SOL     OW 7694   9.587   1.734   0.680  0.0429  0.0641 -0.7015
34413SOL    HW1 7695   9.545   1.783   0.609 -1.2113  0.0399 -0.0087
34413SOL    HW2 7696   9.644   1.798   0.722 -0.8773  0.7073 -0.3861
34414SOL     OW 7697   5.901   4.563   4.293  0.0031  0.3797  0.2946
34414SOL    HW1 7698   5.900   4.548   4.387  1.6977  0.1106  0.2921
34414SOL    HW2 7699   5.952   4.643   4.282 -2.7779  2.2500 -0.2314
34415SOL     OW 7700   2.515   6.205   1.878  0.6850 -0.3092 -0.3628
34415SOL    HW1 7701   2.468   6.189   1.796  1.4062  0.4962 -0.9467
34415SOL    HW2 7702   2.505   6.124   1.928 -1.2689 -0.1915 -0.4812
34416SOL     OW 7703   2.722   9.312   1.827 -0.2741 -0.2288 -0.1111
34416SOL    HW1 7704   2.726   9.273   1.914 -2.7491  0.6026  0.4633
34416SOL    HW2 7705   2.651   9.266   1.782 -0.3531  0.6678 -0.9582
34417SOL     OW 7706   2.362   4.602   3.717 -0.2296  0.3057 -0.0604
34417SOL    HW1 7707   2.266   4.605   3.715 -0.2471 -0.2251 -1.5524
34417SOL    HW2 7708   2.385   4.532   3.655  1.1195  0.1231  0.6025
34418SOL     OW 7709   8.520   1.331   4.851  0.1855 -0.4204  0.1124
34418SOL    HW1 7710   8.507   1.426   4.846 -0.9195 -0.5992 -1.3730
34418SOL    HW2 7711   8.591   1.314   4.789  0.0507 -0.6163  0.0130
34419SOL     OW 7712   5.890   9.899  10.062 -0.7094 -0.3512  0.6920
34419SOL    HW1 7713   5.871   9.843  10.138 -1.4225 -2.5119 -0.9572
34419SOL    HW2 7714   5.980   9.927  10.075 -0.8537 -0.5796  2.3900
34420SOL     OW 7715   7.403   0.371   9.771  0.5506 -0.2975  0.2963
34420SOL    HW1 7716   7.464   0.395   9.701  0.1021 -2.7049 -1.0451
34420SOL    HW2 7717   7.458   0.346   9.844  1.0422  1.7826  0.6740
34421SOL     OW 7718   4.227   2.198   3.059 -0.4527  0.1720  0.3154
34421SOL    HW1 7719   4.313   2.176   3.024 -0.6449 -1.3655  0.7527
34421SOL    HW2 7720   4.244   2.244   3.141  0.0734 -3.8889  2.7557
34422SOL     OW 7721  10.378   7.894   0.063 -0.3703  0.5192  0.3445
34422SOL    HW1 7722  10.304   7.951   0.042 -0.4761  0.3065  0.1355
34422SOL    HW2 7723  10.361   7.813   0.015  0.5413  0.8478 -0.5934
34423SOL     OW 7724  10.732   5.355   6.702 -0.1939 -0.9600 -0.5924
34423SOL    HW1 7725  10.758   5.271   6.740 -0.2403 -1.0281 -0.7110
34423SOL    HW2 7726  10.811   5.408   6.704 -0.3094 -0.8009  0.0352
34424SOL     OW 7727   8.394   4.762   0.050  0.1503  0.6019  0.0458
34424SOL    HW1 7728   8.486   4.749   0.026 -0.2235  0.9596 -1.7780
34424SOL    HW2 7729   8.353   4.677   0.033 -0.1698  0.9310 -0.9178
34425SOL     OW 7730   2.270   1.362   7.936  0.1904 -0.0395 -0.4815
34425SOL    HW1 7731   2.186   1.330   7.969  1.1488 -0.9341  1.2506
34425SOL    HW2 7732   2.251   1.450   7.903 -1.0127  0.7472  2.0560
34426SOL     OW 7733   6.427   9.793   5.959  0.0736 -0.0826 -0.2070
34426SOL    HW1 7734   6.484   9.869   5.972  0.9191 -0.6305 -0.6662
34426SOL    HW2 7735   6.485   9.724   5.927 -0.6073 -1.0731  0.6538
34427SOL     OW 7736   0.352   6.281   4.532  0.0370  0.0789  0.5883
34427SOL    HW1 7737   0.329   6.373   4.544 -1.2124  0.0688 -1.2746
34427SOL    HW2 7738   0.396   6.256   4.613 -3.0042  1.2838  2.7996
34428SOL     OW 7739   1.740   1.711   5.020  0.0573 -0.4227 -0.2912
34428SOL    HW1 7740   1.805   1.759   4.969 -0.5172  1.3183  0.5171
34428SOL    HW2 7741   1.777   1.708   5.108 -0.1970 -0.9353 -0.1988
34429SOL     OW 7742  10.367   4.260   4.797  0.3139 -0.4328 -0.2291
34429SOL    HW1 7743  10.348   4.308   4.716  1.7735  0.9995  0.2102
34429SOL    HW2 7744  10.376   4.328   4.864  1.0311 -1.4255  0.7349
34430SOL     OW 7745   9.318   9.084   4.094  0.0706  0.1212 -0.1055
34430SOL    HW1 7746   9.366   9.078   4.176 -0.6561 -0.6032  0.2742
34430SOL    HW2 7747   9.384   9.070   4.026  0.9607  2.1313  0.2610
34431SOL     OW 7748   5.813   9.739   0.484  0.0718 -0.1139  0.1763
34431SOL    HW1 7749   5.778   9.652   0.505  0.7539 -0.4237  0.0569
34431SOL    HW2 7750   5.907   9.724   0.470  0.1668  0.6195  0.0115
34432SOL     OW 7751   5.454   8.536  10.141  0.0649 -0.6587  0.2111
34432SOL    HW1 7752   5.459   8.487  10.222 -0.2955  0.4202  0.9029
34432SOL    HW2 7753   5.438   8.626  10.168 -1.2520 -0.4634 -1.0959
34433SOL     OW 7754  10.126   3.036   6.613 -0.2045  0.4332 -0.0518
34433SOL    HW1 7755  10.207   2.989   6.590 -0.4302  0.7178 -1.5451
34433SOL    HW2 7756  10.134   3.120   6.568 -2.8152 -0.8128 -3.2523
34434SOL     OW 7757   2.789   5.199   6.947 -0.1469 -0.3088  0.1860
34434SOL    HW1 7758   2.757   5.287   6.963 -2.1600 -0.9880  0.1510
34434SOL    HW2 7759   2.713   5.151   6.914  1.1105 -1.8409 -0.6566
34435SOL     OW 7760   9.182   6.490   3.257 -0.5198  0.1098 -0.0665
34435SOL    HW1 7761   9.141   6.490   3.343 -0.4518  2.3484  0.0184
34435SOL    HW2 7762   9.207   6.581   3.242  1.5953 -0.6202 -1.4599
34436SOL     OW 7763  10.912   7.015   8.279  0.7028 -0.4118  0.1780
34436SOL    HW1 7764  10.999   7.011   8.237 -0.3979 -2.9518 -2.1041
34436SOL    HW2 7765  10.881   7.104   8.259  0.8340 -1.0376 -3.3594
34437SOL     OW 7766   3.363   3.118   0.118 -0.6985  0.4095 -0.2588
34437SOL    HW1 7767   3.377   3.045   0.058 -1.4130  1.3580 -1.6293
34437SOL    HW2 7768   3.285   3.161   0.086  0.0812  2.1879  0.1099
34438SOL     OW 7769   1.553   1.100   0.077 -0.2457 -0.6957 -0.4275
34438SOL    HW1 7770   1.498   1.092   0.155  1.0522 -0.4401  0.5440
34438SOL    HW2 7771   1.576   1.193   0.073 -1.4280 -0.4356 -1.9342
34439SOL     OW 7772   7.013   5.553   5.043  0.7699 -0.4050 -0.0779
34439SOL    HW1 7773   6.990   5.598   4.962 -0.0348 -0.4077  0.1388
34439SOL    HW2 7774   7.062   5.618   5.094  1.2172 -0.3837 -0.5347
34440SOL     OW 7775   0.664   8.764   5.366 -0.0778  0.1689  0.1334
34440SOL    HW1 7776   0.687   8.675   5.393 -0.2611  0.2783  0.6519
34440SOL    HW2 7777   0.692   8.769   5.275 -0.7596 -0.6669 -0.1335
34441SOL     OW 7778   7.918   9.009  11.019  0.1372 -0.0891 -0.1034
34441SOL    HW1 7779   7.997   8.990  11.069  0.4585  0.4919 -0.3762
34441SOL    HW2 7780   7.849   9.017  11.085  0.1321 -1.4209  0.0729
34442SOL     OW 7781  10.561   9.724   6.300 -0.1123  0.6550  1.0171
34442SOL    HW1 7782  10.626   9.789   6.329 -0.0532 -0.1173  2.7309
34442SOL    HW2 7783  10.597   9.640   6.329  0.0466 -0.2560 -1.5662
34443SOL     OW 7784   6.176   3.892   9.307  0.0318 -0.6332  0.4883
34443SOL    HW1 7785   6.237   3.965   9.319  1.6519 -1.2641 -2.8616
34443SOL    HW2 7786   6.094   3.923   9.344  1.6069  1.3758  2.5603
34444SOL     OW 7787   6.402   6.703   6.301 -0.2745  0.3247  0.1905
34444SOL    HW1 7788   6.316   6.660   6.299 -0.1958  0.1292  0.7291
34444SOL    HW2 7789   6.457   6.643   6.351 -0.0625  0.8823  0.6330
34445SOL     OW 7790   5.741   7.417   2.545 -0.3777 -0.1759  0.4275
34445SOL    HW1 7791   5.699   7.463   2.471 -1.5106 -1.3573  0.3092
34445SOL    HW2 7792   5.833   7.409   2.519 -0.3528  1.1148  0.0137
34446SOL     OW 7793   8.894   0.619   0.708 -0.1240  0.1793 -0.1155
34446SOL    HW1 7794   8.928   0.685   0.768  1.0757 -0.3669 -0.1769
34446SOL    HW2 7795   8.943   0.540   0.728 -0.9866 -0.4886 -0.5911
34447SOL     OW 7796   1.410  10.850   6.913 -0.1162  0.1844  0.1762
34447SOL    HW1 7797   1.365  10.815   6.836  1.2039  1.0413 -1.0435
34447SOL    HW2 7798   1.350  10.914   6.950 -1.2972 -1.1336  0.6568
34448SOL     OW 7799   4.525   3.887   8.168  0.2560  0.0749 -0.3356
34448SOL    HW1 7800   4.552   3.937   8.091 -1.8488  0.7584 -0.6771
34448SOL    HW2 7801   4.607   3.863   8.210  1.3825  2.1488 -1.2221
34449SOL     OW 7802   8.888   1.046   9.122  0.4062 -0.2388  0.4300
34449SOL    HW1 7803   8.930   1.129   9.146 -0.3869  0.0809  0.7613
34449SOL    HW2 7804   8.953   1.000   9.070  0.2075  1.3996 -1.3830
34450SOL     OW 7805   0.318  10.284   7.225  0.1762 -0.0300  0.1994
34450SOL    HW1 7806   0.235  10.249   7.193 -1.2570  1.6687  1.7731
34450SOL    HW2 7807   0.314  10.271   7.320  0.2226  2.8503  0.6795
34451SOL     OW 7808   5.059   1.613   4.716 -0.3114  0.5691  0.5739
34451SOL    HW1 7809   5.105   1.535   4.749  3.5536  1.4641 -1.9770
34451SOL    HW2 7810   5.090   1.684   4.772  1.1334  1.0798 -0.7769
34452SOL     OW 7811   1.293   9.637   0.754  0.5784 -0.1318 -0.2806
34452SOL    HW1 7812   1.270   9.702   0.821 -0.5267 -0.1805 -0.5887
34452SOL    HW2 7813   1.331   9.564   0.803  0.3533  0.0880  0.2304
34453SOL     OW 7814   9.895   7.837   4.876  0.4931 -0.4472  0.6200
34453SOL    HW1 7815   9.968   7.876   4.827  0.2115  1.8271  1.8524
34453SOL    HW2 7816   9.856   7.775   4.814  1.3675  0.8210 -1.3417
34454SOL     OW 7817   1.955   3.489   6.966 -0.3141 -0.3615  0.2014
34454SOL    HW1 7818   1.886   3.550   6.942  0.5790 -0.4874 -3.3648
34454SOL    HW2 7819   2.030   3.515   6.911  0.7866 -3.2789  0.1374
34455SOL     OW 7820   3.135   7.827   3.359  0.1777 -0.0863  0.0059
34455SOL    HW1 7821   3.073   7.897   3.338  0.0448 -0.6855 -1.7619
34455SOL    HW2 7822   3.082   7.747   3.356  0.7512 -0.4666 -0.1189
34456SOL     OW 7823   3.750   1.068   0.078  0.1482  0.0788  0.0174
34456SOL    HW1 7824   3.780   0.979   0.059  0.2073  0.0371  0.2931
34456SOL    HW2 7825   3.827   1.112   0.115 -0.0283  0.0816  0.3844
34457SOL     OW 7826   4.795   9.357   2.934  0.2647 -0.0304 -0.1395
34457SOL    HW1 7827   4.775   9.265   2.916  0.1472 -0.3716  1.5715
34457SOL    HW2 7828   4.825   9.358   3.025  1.1264  1.5091 -0.3950
34458SOL     OW 7829   3.303  11.024   3.095  0.3188  0.1298 -0.4409
34458SOL    HW1 7830   3.377  11.084   3.088  0.4389 -0.0285 -0.5536
34458SOL    HW2 7831   3.227  11.077   3.070  0.3610  0.3574 -0.0917
34459SOL     OW 7832  10.280   5.985   8.472 -0.3714  0.0013  0.4601
34459SOL    HW1 7833  10.218   6.058   8.469 -1.0589 -0.5871 -0.6789
34459SOL    HW2 7834  10.366   6.026   8.466 -0.7670  0.7172 -0.7979
34460SOL     OW 7835   4.871   0.909   6.120 -0.5565  0.2028  0.1324
34460SOL    HW1 7836   4.799   0.886   6.063  0.1403  0.2321 -0.7780
34460SOL    HW2 7837   4.948   0.912   6.063 -0.0643  1.5470  0.8111
34461SOL     OW 7838   0.241   2.398   5.708 -0.3439 -0.6450  0.2471
34461SOL    HW1 7839   0.299   2.458   5.756  0.8739  0.1119 -2.0388
34461SOL    HW2 7840   0.157   2.444   5.704  0.7742  1.3792 -2.1328
34462SOL     OW 7841   4.468   8.575   9.946 -0.0682  0.8386  0.0934
34462SOL    HW1 7842   4.460   8.655   9.895  0.4996  0.6160 -0.3641
34462SOL    HW2 7843   4.562   8.565   9.962 -0.2637  1.1280  1.5715
34463SOL     OW 7844   8.197   7.902   8.938 -0.1749  0.2064 -0.4223
34463SOL    HW1 7845   8.243   7.891   8.855 -1.7470 -1.0423 -1.1859
34463SOL    HW2 7846   8.259   7.872   9.004  0.5529 -0.2728 -1.3019
34464SOL     OW 7847   8.037   7.213   2.989 -0.3687  0.4156  0.7001
34464SOL    HW1 7848   7.941   7.214   2.985 -0.4058 -0.2259  1.1261
34464SOL    HW2 7849   8.058   7.125   3.021  0.5030 -0.5946 -2.3246
34465SOL     OW 7850   1.256   4.108   2.564 -0.0413  0.1196 -0.6479
34465SOL    HW1 7851   1.338   4.158   2.564  0.8369 -1.2838 -0.5510
34465SOL    HW2 7852   1.202   4.152   2.498  1.6192 -0.2277 -2.3065
34466SOL     OW 7853   3.504   0.607   2.610 -0.3266 -0.0947 -0.0858
34466SOL    HW1 7854   3.551   0.524   2.608  0.9324  0.6101 -1.8625
34466SOL    HW2 7855   3.553   0.662   2.671 -0.8140 -0.4297  0.6252
34467SOL     OW 7856   2.530   9.342  10.397  0.0707  0.1878  0.5988
34467SOL    HW1 7857   2.509   9.342  10.304  1.7245 -0.1373  0.2074
34467SOL    HW2 7858   2.556   9.432  10.416 -0.8471  0.4038  0.9116
34468SOL     OW 7859  10.891   8.676   1.567  0.7066 -0.0895 -0.0103
34468SOL    HW1 7860  10.963   8.617   1.591  0.3241 -0.7010 -0.3312
34468SOL    HW2 7861  10.915   8.709   1.481  0.0525 -1.2370 -0.6671
34469SOL     OW 7862   2.215   9.274   5.139  0.8008  0.0709  0.6682
34469SOL    HW1 7863   2.138   9.306   5.093  1.2972  1.3756  0.7019
34469SOL    HW2 7864   2.269   9.352   5.152  1.8244 -0.7090  1.2206
34470SOL     OW 7865   6.621   1.762   4.826  0.2766 -0.0878 -0.0222
34470SOL    HW1 7866   6.619   1.680   4.777  0.0784  0.2228 -0.5395
34470SOL    HW2 7867   6.534   1.768   4.866  0.7968 -0.8933  1.3131
34471SOL     OW 7868   8.668   9.737   6.287 -0.0836  0.4624 -0.2683
34471SOL    HW1 7869   8.696   9.718   6.376 -0.7318  1.0446  0.0727
34471SOL    HW2 7870   8.716   9.817   6.263 -0.2073  0.5299 -0.2935
34472SOL     OW 7871   0.304  10.117   2.896  0.0091  0.1180 -0.3889
34472SOL    HW1 7872   0.217  10.078   2.885  0.4893 -1.7067  1.7233
34472SOL    HW2 7873   0.287  10.202   2.935 -0.8198 -0.7719  1.2749
34473SOL     OW 7874   6.420   8.332   9.454 -0.3347  0.2295 -0.1163
34473SOL    HW1 7875   6.425   8.241   9.426 -0.3618 -0.2372  1.3034
34473SOL    HW2 7876   6.479   8.379   9.395  0.7623 -0.9392  0.0162
34474SOL     OW 7877   8.873   9.574   3.674 -0.1306  0.1610  0.2952
34474SOL    HW1 7878   8.812   9.646   3.694  0.6129  1.0355 -0.5199
34474SOL    HW2 7879   8.939   9.579   3.743  0.7520  1.2399 -0.5995
34475SOL     OW 7880   9.098   8.386   2.767  0.0253 -0.3186 -0.0991
34475SOL    HW1 7881   9.129   8.322   2.702  0.0935 -0.6274  0.2359
34475SOL    HW2 7882   9.163   8.382   2.837 -0.1042 -0.0561  0.0361
34476SOL     OW 7883   2.417   3.945   2.881  0.1791 -0.1526 -0.1042
34476SOL    HW1 7884   2.499   3.931   2.927  0.0485 -1.8116 -0.3058
34476SOL    HW2 7885   2.355   3.887   2.925 -0.2170 -0.9274 -1.6276
34477SOL     OW 7886   0.614   6.863   6.383  0.0935 -0.5597  0.2899
34477SOL    HW1 7887   0.521   6.866   6.362  0.6501 -1.7139 -2.8876
34477SOL    HW2 7888   0.640   6.955   6.391 -0.7823 -0.0708 -1.8316
34478SOL     OW 7889   0.029   3.411   9.469  0.2497 -0.5246 -0.2580
34478SOL    HW1 7890   0.122   3.388   9.465  0.7972  1.2794  0.8060
34478SOL    HW2 7891  -0.002   3.401   9.379  1.1721 -2.2291 -0.4336
34479SOL     OW 7892   3.362   1.478   9.213 -0.4614 -0.1095 -0.3280
34479SOL    HW1 7893   3.333   1.558   9.257 -1.1983 -0.7121  0.3139
34479SOL    HW2 7894   3.416   1.433   9.277 -0.3343 -0.2995 -0.5649
34480SOL     OW 7895   4.711   7.023   4.780  0.4084  0.6145  0.1633
34480SOL    HW1 7896   4.680   6.936   4.754 -1.1074  1.4076 -0.7636
34480SOL    HW2 7897   4.780   7.005   4.844  0.1188 -1.2690 -0.0051
34481SOL     OW 7898   4.708   3.014   3.217 -0.6431  0.1552 -0.5938
34481SOL    HW1 7899   4.626   3.059   3.237 -0.1487  1.0237 -0.4493
34481SOL    HW2 7900   4.774   3.083   3.220  0.3816 -0.8267  1.1698
34482SOL     OW 7901  10.623   9.554  10.337 -0.2272  0.1588  1.3540
34482SOL    HW1 7902  10.707   9.581  10.375  0.0815  2.2556 -0.5948
34482SOL    HW2 7903  10.561   9.562  10.410  1.3223 -2.4752  3.1341
34483SOL     OW 7904   7.629   9.478   5.425  0.4509  0.4320  0.2148
34483SOL    HW1 7905   7.564   9.534   5.468  0.0277  0.0145  0.1210
34483SOL    HW2 7906   7.663   9.423   5.496 -1.4891 -1.4694 -0.2493
34484SOL     OW 7907   9.350   6.180   7.309 -0.1899  0.0499 -0.2274
34484SOL    HW1 7908   9.362   6.179   7.404  1.0370  1.4331 -0.3203
34484SOL    HW2 7909   9.286   6.250   7.295 -1.8837 -1.4636 -0.3259
34485SOL     OW 7910   2.385   2.944   3.724  0.1167  0.0288 -0.0462
34485SOL    HW1 7911   2.440   2.867   3.711  0.2005  0.0001  0.4629
34485SOL    HW2 7912   2.388   2.961   3.818 -0.0509  0.5436 -0.1259
34486SOL     OW 7913  10.520   7.019  10.679 -0.1224  0.3708  0.3023
34486SOL    HW1 7914  10.457   7.014  10.752  0.3398 -0.4950  0.6618
34486SOL    HW2 7915  10.579   6.945  10.694 -0.2969 -0.1085 -1.2169
34487SOL     OW 7916   3.759   3.743   0.142  0.1048 -0.7505  0.6010
34487SOL    HW1 7917   3.785   3.835   0.147  1.9041 -1.1678 -0.2587
34487SOL    HW2 7918   3.842   3.694   0.141 -0.7203 -2.2554 -1.0561
34488SOL     OW 7919   5.634  10.122   6.585 -0.5300 -0.2727 -0.3376
34488SOL    HW1 7920   5.608  10.030   6.595 -0.4057 -0.1260  1.9950
34488SOL    HW2 7921   5.671  10.127   6.497 -1.5764 -2.1887 -0.9460
34489SOL     OW 7922   4.395   7.818   3.168 -0.1075  0.3489 -0.2968
34489SOL    HW1 7923   4.486   7.793   3.182 -0.1216  0.6716  0.3920
34489SOL    HW2 7924   4.364   7.847   3.253 -1.0443 -0.3353 -0.3826
34490SOL     OW 7925   8.144   6.894   8.190 -0.4687 -0.3191 -0.7869
34490SOL    HW1 7926   8.054   6.924   8.200 -1.0105 -2.0561 -0.1576
34490SOL    HW2 7927   8.189   6.931   8.266 -0.3539  1.4412 -1.6595
34491SOL     OW 7928   8.812   6.728   0.307 -0.2987  0.4251 -0.3903
34491SOL    HW1 7929   8.893   6.713   0.355 -0.7908  0.1601  0.3780
34491SOL    HW2 7930   8.800   6.823   0.309  0.2215  0.5064 -0.9061
34492SOL     OW 7931   7.869   9.100   5.343 -0.1935  0.4859 -0.0697
34492SOL    HW1 7932   7.956   9.137   5.360 -0.3225  0.5678  0.4586
34492SOL    HW2 7933   7.832   9.086   5.431 -1.2939  1.8412 -0.2761
34493SOL     OW 7934   6.876   3.452  10.210 -0.3361  0.0540 -0.6116
34493SOL    HW1 7935   6.879   3.547  10.196  1.4487  0.5533  2.2873
34493SOL    HW2 7936   6.946   3.435  10.273 -1.7836 -2.9496  0.3672
34494SOL     OW 7937   0.614   2.420   0.152  0.1824  0.5819  0.3887
34494SOL    HW1 7938   0.585   2.374   0.230 -0.0895  1.3337  0.7436
34494SOL    HW2 7939   0.533   2.444   0.107  0.2784  1.4154  0.6325
34495SOL     OW 7940   9.326   5.581   7.286  0.3341  0.2904 -0.2241
34495SOL    HW1 7941   9.388   5.509   7.273  0.4678  0.5461 -1.0505
34495SOL    HW2 7942   9.338   5.637   7.210 -4.1043 -1.9554 -3.0128
34496SOL     OW 7943   5.959   9.280   1.619  0.6717 -0.4631  1.2402
34496SOL    HW1 7944   5.879   9.232   1.597  2.1006 -2.5435  0.2277
34496SOL    HW2 7945   6.029   9.216   1.606  2.3813  0.7152  3.9081
34497SOL     OW 7946   2.589  10.253   1.312  0.5447 -0.1988 -0.2350
34497SOL    HW1 7947   2.626  10.341   1.309  2.3788 -0.9127 -0.0205
34497SOL    HW2 7948   2.571  10.238   1.404 -2.2600  0.8576 -0.5142
34498SOL     OW 7949   7.571   1.559   9.165 -0.2301 -0.2018  0.0532
34498SOL    HW1 7950   7.625   1.580   9.088 -0.8741 -0.3359 -0.4400
34498SOL    HW2 7951   7.495   1.617   9.158 -1.3321 -1.6611 -0.5643
34499SOL     OW 7952   2.122   9.419   6.512  0.6534 -0.1598  0.3989
34499SOL    HW1 7953   2.169   9.412   6.596  1.3631 -2.1015 -0.1204
34499SOL    HW2 7954   2.149   9.342   6.463  1.0382  1.4449 -2.0533
34500SOL     OW 7955   1.018   5.660  10.409 -0.0407 -0.3422 -0.3256
34500SOL    HW1 7956   1.022   5.566  10.391  2.6337 -0.1896 -1.0414
34500SOL    HW2 7957   0.990   5.666  10.500  0.3997 -1.8938 -0.0548
34501SOL     OW 7958   6.370   8.070   2.331 -0.0214  0.2270 -0.2640
34501SOL    HW1 7959   6.451   8.054   2.379 -0.6042  1.1270  1.0852
34501SOL    HW2 7960   6.399   8.093   2.243  1.1913  0.4036  0.1595
34502SOL     OW 7961   4.492   7.889   6.551 -0.0422 -0.0698  0.2325
34502SOL    HW1 7962   4.410   7.938   6.545  1.2035  2.2857  1.2063
34502SOL    HW2 7963   4.529   7.895   6.463  0.5170  1.6062  0.5494
34503SOL     OW 7964   9.859   7.240   6.123 -0.2488  0.0838  0.2821
34503SOL    HW1 7965   9.790   7.282   6.071  0.3638 -0.3283 -0.8953
34503SOL    HW2 7966   9.813   7.171   6.172 -1.0482  1.2994  1.2879
34504SOL     OW 7967   7.144  10.420   5.980  0.4912  0.1148  0.1085
34504SOL    HW1 7968   7.100  10.346   6.022  0.4129  0.6809  1.0445
34504SOL    HW2 7969   7.223  10.381   5.941  0.8637 -0.3471  1.2758
34505SOL     OW 7970   2.182   8.625   9.857 -0.4400 -0.0858 -0.0507
34505SOL    HW1 7971   2.208   8.580   9.937 -0.0347 -0.5671 -0.4516
34505SOL    HW2 7972   2.126   8.563   9.810 -1.5660  0.5873  0.3518
34506SOL     OW 7973  11.042   5.826   4.439  0.4912 -0.1578  0.5525
34506SOL    HW1 7974  11.117   5.882   4.461 -0.0543  0.9884 -0.3973
34506SOL    HW2 7975  11.082   5.743   4.412  1.3078 -0.3233  2.1430
34507SOL     OW 7976   7.476   8.225   6.564 -0.3378 -0.0745  0.3969
34507SOL    HW1 7977   7.449   8.244   6.474  0.8901  0.6382  0.1628
34507SOL    HW2 7978   7.409   8.164   6.596 -0.7349 -0.4303 -1.0224
34508SOL     OW 7979   6.531   8.302   8.623 -0.1466 -0.3473 -0.5170
34508SOL    HW1 7980   6.509   8.311   8.530 -0.0441  0.1833 -0.4943
34508SOL    HW2 7981   6.624   8.279   8.623 -0.3224 -1.0977 -0.5635
34509SOL     OW 7982   2.019   1.353   5.909  0.1049 -0.3036 -0.0802
34509SOL    HW1 7983   1.951   1.383   5.849  1.6571  1.1389 -1.1982
34509SOL    HW2 7984   2.065   1.284   5.860  0.8531  0.2996 -0.2393
34510SOL     OW 7985   0.098   5.649   3.834  0.2944  0.1261 -0.2019
34510SOL    HW1 7986   0.108   5.562   3.873 -0.6339  0.1675  0.1522
34510SOL    HW2 7987   0.012   5.648   3.793  0.9523  0.3347 -1.6646
34511SOL     OW 7988   1.190   7.374   0.400 -0.3937 -0.9554  0.3381
34511SOL    HW1 7989   1.149   7.447   0.447 -0.7374 -1.4721  0.8597
34511SOL    HW2 7990   1.251   7.416   0.339  0.2998 -0.2729  1.4680
34512SOL     OW 7991   0.333   7.728   4.524  0.6727 -0.1019  0.5746
34512SOL    HW1 7992   0.282   7.650   4.502  0.9312 -1.3460  3.7878
34512SOL    HW2 7993   0.363   7.762   4.440 -0.7226 -2.5832 -1.0513
34513SOL     OW 7994   7.728   6.644   9.846  0.2542 -0.2511  0.0398
34513SOL    HW1 7995   7.656   6.581   9.855 -0.1033 -0.1515 -1.7951
34513SOL    HW2 7996   7.783   6.607   9.777  1.4172  0.2085  0.6935
34514SOL     OW 7997   1.823   2.814   5.283 -0.3760  0.2707 -0.5355
34514SOL    HW1 7998   1.833   2.852   5.196 -2.4344  0.3354 -0.8146
34514SOL    HW2 7999   1.812   2.889   5.341  1.7101  0.2597 -0.0502
34515SOL     OW 8000   1.729   1.589   2.696 -0.0956 -0.8690 -0.1802
34515SOL    HW1 8001   1.718   1.498   2.670  0.5677 -0.9147 -0.3337
34515SOL    HW2 8002   1.790   1.625   2.631  0.7953 -0.7118  0.7200
34516SOL     OW 8003   5.752   3.137   8.651  0.1264 -0.7123 -0.2512
34516SOL    HW1 8004   5.764   3.044   8.670 -2.0341 -0.8601  0.7291
34516SOL    HW2 8005   5.721   3.175   8.734 -1.6697  0.2941 -1.2984
34517SOL     OW 8006   6.094   7.293   0.077 -0.0143 -0.7636  0.9995
34517SOL    HW1 8007   6.026   7.230   0.100 -0.7979 -0.9626 -1.5150
34517SOL    HW2 8008   6.054   7.379   0.094  0.0158 -0.9043  1.8024
34518SOL     OW 8009   9.822   0.255   6.260 -0.0341 -0.2909  1.0870
34518SOL    HW1 8010   9.727   0.253   6.267 -0.1007 -2.2966  0.2329
34518SOL    HW2 8011   9.841   0.333   6.207 -1.2530 -0.3146  0.5958
34519SOL     OW 8012   4.164   7.330  11.016  0.1701  0.3162 -0.3003
34519SOL    HW1 8013   4.168   7.317  11.111  0.3522 -1.2398 -0.5024
34519SOL    HW2 8014   4.253   7.312  10.985  0.5712  2.5499 -0.6000
34520SOL     OW 8015   9.150   8.036   5.946 -0.2197  0.6617  0.4163
34520SOL    HW1 8016   9.111   8.121   5.926  1.0766  0.9712 -1.0172
34520SOL    HW2 8017   9.215   8.054   6.014 -0.5975  0.6405  0.7859
34521SOL     OW 8018  10.584   5.480  10.227 -0.4850  0.2032 -0.4344
34521SOL    HW1 8019  10.640   5.542  10.273 -2.3735  1.3054  0.4892
34521SOL    HW2 8020  10.622   5.473  10.140  0.5322  1.6350 -0.1340
34522SOL     OW 8021   1.904   9.468   1.634  0.0291 -0.7976  0.5043
34522SOL    HW1 8022   1.940   9.394   1.682  0.7397 -0.9194 -0.1862
34522SOL    HW2 8023   1.829   9.496   1.685 -0.4978 -2.2537  0.5785
34523SOL     OW 8024   0.666   1.752   5.902 -0.5621  0.1395  0.7493
34523SOL    HW1 8025   0.703   1.829   5.945  0.4520  0.9719 -1.4669
34523SOL    HW2 8026   0.739   1.692   5.893 -1.1047 -0.6459  1.4942
34524SOL     OW 8027   5.473   4.797   7.620 -0.4791  0.0191  0.2190
34524SOL    HW1 8028   5.494   4.875   7.569 -0.7776  0.4173  0.6984
34524SOL    HW2 8029   5.378   4.787   7.613 -0.3829 -0.6124 -0.2798
34525SOL     OW 8030  10.912   4.463   8.463  0.4314  0.1905 -0.0740
34525SOL    HW1 8031  10.921   4.553   8.494  0.5381  0.2175 -0.1829
34525SOL    HW2 8032  10.954   4.463   8.377  1.4325 -0.2200  0.4035
34526SOL     OW 8033   0.899   5.719  10.665  0.2255 -0.0172  0.5584
34526SOL    HW1 8034   0.852   5.769  10.733  0.6863  1.2750 -0.0355
34526SOL    HW2 8035   0.984   5.762  10.660 -0.1707  0.6134 -1.5755
34527SOL     OW 8036   8.539   1.785   7.745  0.0368  0.0047  0.1047
34527SOL    HW1 8037   8.526   1.879   7.749 -0.1000  0.2545 -3.3857
34527SOL    HW2 8038   8.626   1.774   7.706  1.0324 -1.4363  2.4490
34528SOL     OW 8039   4.642   9.786   5.639  0.4185  0.4959 -0.3301
34528SOL    HW1 8040   4.688   9.870   5.635 -0.5165  1.0547  0.2356
34528SOL    HW2 8041   4.553   9.809   5.664  0.5878 -0.8218  1.6958
34529SOL     OW 8042   8.729  10.751  10.912  0.2402 -0.6203  0.2516
34529SOL    HW1 8043   8.786  10.674  10.918  0.6392 -0.4314 -0.8565
34529SOL    HW2 8044   8.643  10.719  10.938  0.7522 -1.0066  1.5535
34530SOL     OW 8045   2.832   0.994   3.222 -0.2640  0.5110 -0.1233
34530SOL    HW1 8046   2.923   0.972   3.240 -0.2544  0.4231 -0.2744
34530SOL    HW2 8047   2.782   0.953   3.293 -0.4188 -1.5017 -1.3273
34531SOL     OW 8048   3.749   5.229   2.110  0.4282  0.0258  1.0395
34531SOL    HW1 8049   3.732   5.213   2.018  2.1738 -0.4315  0.7617
34531SOL    HW2 8050   3.844   5.237   2.116  0.2982  0.7417  2.6921
34532SOL     OW 8051   7.748   8.755   6.814  0.0365  0.6686  0.2289
34532SOL    HW1 8052   7.691   8.775   6.740 -0.1094  0.4872  0.2934
34532SOL    HW2 8053   7.698   8.693   6.867  0.5391  0.0204 -0.0404
34533SOL     OW 8054  10.515   1.669   6.292  0.1665  0.3349 -0.0024
34533SOL    HW1 8055  10.452   1.698   6.358  0.0349  2.8346 -1.1146
34533SOL    HW2 8056  10.463   1.620   6.228 -0.3220  0.7478  0.0742
34534SOL     OW 8057   7.446   7.435   3.077 -0.2696 -0.0134  0.0574
34534SOL    HW1 8058   7.397   7.494   3.019 -1.6348 -0.7044  0.4893
34534SOL    HW2 8059   7.501   7.494   3.129  0.2824  0.6873 -1.2490
34535SOL     OW 8060  10.581  10.753  10.780 -0.0176  0.2254 -0.0242
34535SOL    HW1 8061  10.505  10.734  10.726 -1.5464  1.6011  1.5241
34535SOL    HW2 8062  10.582  10.683  10.845 -0.4555  0.6329  0.4302
34536SOL     OW 8063   7.589   0.307   3.911  0.7330  0.1150  0.3389
34536SOL    HW1 8064   7.598   0.359   3.991  0.9752  1.3973 -0.4911
34536SOL    HW2 8065   7.665   0.332   3.858 -0.0075  0.1199 -0.7430
34537SOL     OW 8066   2.545   7.771   6.773 -0.0389  0.1501 -0.2614
34537SOL    HW1 8067   2.449   7.769   6.776  0.0004 -0.6137  1.8722
34537SOL    HW2 8068   2.565   7.800   6.684 -2.2265 -0.8103 -1.1383
34538SOL     OW 8069   8.422   6.161  10.014  0.5098  0.1346  0.0421
34538SOL    HW1 8070   8.424   6.129   9.923  1.9335 -0.1764  0.1616
34538SOL    HW2 8071   8.340   6.210  10.020  0.1684 -0.2227 -1.2803
34539SOL     OW 8072  10.340   5.136   1.373  0.1373  0.5523 -0.1052
34539SOL    HW1 8073  10.328   5.194   1.298  0.3620  0.0373 -0.5419
34539SOL    HW2 8074  10.391   5.063   1.339 -0.9515 -0.3826  0.2104
34540SOL     OW 8075   6.829   6.047   8.288 -0.0959 -0.1087 -0.4378
34540SOL    HW1 8076   6.855   5.968   8.335 -2.0647 -0.3183  0.3727
34540SOL    HW2 8077   6.773   6.017   8.217 -2.0047  0.5792  0.7003
34541SOL     OW 8078  10.340   2.628   1.208  0.0914 -0.5950 -0.3929
34541SOL    HW1 8079  10.330   2.552   1.150 -0.7850  0.1341 -1.2405
34541SOL    HW2 8080  10.372   2.698   1.151  2.1068 -0.6182  0.6212
34542SOL     OW 8081   3.984   8.520   2.904  0.6888 -0.4924  0.6733
34542SOL    HW1 8082   4.075   8.494   2.897  0.5278 -1.5237  1.9740
34542SOL    HW2 8083   3.942   8.482   2.827  0.8775 -2.4227  1.4463
34543SOL     OW 8084   1.674   9.606   1.751 -0.4903  0.3687  0.4031
34543SOL    HW1 8085   1.737   9.677   1.739  0.1324 -0.4671 -2.0075
34543SOL    HW2 8086   1.694   9.570   1.837  2.0239  0.4840 -0.0411
34544SOL     OW 8087   4.255   8.924   0.367 -0.3101  0.3028 -0.1653
34544SOL    HW1 8088   4.284   8.893   0.282 -0.3463  1.0156 -0.4474
34544SOL    HW2 8089   4.196   8.856   0.399  0.4888 -0.4472 -0.2555
34545SOL     OW 8090   7.492  10.851   7.138 -0.5787 -0.0505 -0.6656
34545SOL    HW1 8091   7.547  10.808   7.204 -1.5054 -2.2873 -1.2570
34545SOL    HW2 8092   7.421  10.890   7.188  0.4207  1.1277 -0.0914
34546SOL     OW 8093   9.578   2.995   7.935 -0.1861 -0.4790 -0.4353
34546SOL    HW1 8094   9.499   3.038   7.968  1.3846  1.5814  0.8891
34546SOL    HW2 8095   9.558   2.977   7.843 -1.3304  2.4033 -0.8705
34547SOL     OW 8096   2.184   9.328   7.859 -0.4088 -0.0717 -0.3212
34547SOL    HW1 8097   2.211   9.404   7.910  2.7987  0.4026 -2.4469
34547SOL    HW2 8098   2.091   9.318   7.878 -0.3137  2.6092  2.2175
34548SOL     OW 8099  10.117   0.719   1.886  0.0368 -0.9074  0.1878
34548SOL    HW1 8100  10.119   0.727   1.981  0.5608  1.7951  0.0192
34548SOL    HW2 8101  10.057   0.788   1.857 -0.2674 -1.7994 -1.4656
34549SOL     OW 8102   5.184   0.186   0.850 -0.3411  0.2908  0.1258
34549SOL    HW1 8103   5.229   0.176   0.934  0.5121 -0.2894 -0.3877
34549SOL    HW2 8104   5.248   0.230   0.794 -0.7129  0.1964 -0.3766
34550SOL     OW 8105   0.409  10.395   4.181 -0.5468  0.0738  0.2996
34550SOL    HW1 8106   0.405  10.299   4.186  0.2636 -0.2924 -3.0571
34550SOL    HW2 8107   0.502  10.415   4.194 -0.0855 -0.0490 -2.1930
34551SOL     OW 8108   8.649   6.159   3.805 -0.1991 -0.1687  0.6018
34551SOL    HW1 8109   8.571   6.193   3.850  0.2223  1.6473  0.0170
34551SOL    HW2 8110   8.635   6.182   3.713  0.3399 -1.1945  0.2548
34552SOL     OW 8111   9.964   0.133  10.872 -0.0679 -0.4008  0.2442
34552SOL    HW1 8112   9.890   0.171  10.920 -1.3523  0.2932 -2.1075
34552SOL    HW2 8113   9.984   0.197  10.803  0.8343 -1.8660 -0.9378
34553SOL     OW 8114   1.772   5.749   9.022 -0.1201  0.2481  0.1531
34553SOL    HW1 8115   1.700   5.790   9.070  0.2441  1.9081 -0.6587
34553SOL    HW2 8116   1.773   5.794   8.938  0.2090 -1.5686 -0.8602
34554SOL     OW 8117   1.095  10.644   1.686 -0.3655  0.1450 -0.4742
34554SOL    HW1 8118   1.025  10.702   1.716  0.4054  2.8559 -3.3220
34554SOL    HW2 8119   1.054  10.591   1.618 -0.4275 -0.7564  0.2546
34555SOL     OW 8120  10.567   1.311   1.610 -0.1568  0.1972 -0.0750
34555SOL    HW1 8121  10.570   1.377   1.541  1.4378  0.2886  0.0411
34555SOL    HW2 8122  10.493   1.256   1.587 -1.0452  1.5595 -0.6000
34556SOL     OW 8123   9.003   6.191   7.609  0.5295 -0.5502  0.1545
34556SOL    HW1 8124   9.048   6.214   7.528 -3.8575 -1.1656 -2.8453
34556SOL    HW2 8125   8.983   6.098   7.601  0.2842 -0.7298  2.1571
34557SOL     OW 8126   7.879   8.437   3.924  0.3429 -0.0427  0.3061
34557SOL    HW1 8127   7.944   8.453   3.993 -0.2770  0.5105  0.7733
34557SOL    HW2 8128   7.931   8.403   3.851  1.2890  1.0516  0.4153
34558SOL     OW 8129   7.138   9.083  10.974  0.2109  0.0955  0.8384
34558SOL    HW1 8130   7.118   9.074  11.067  1.8178  1.9818  1.4329
34558SOL    HW2 8131   7.083   9.156  10.945 -0.0238 -0.2610  0.3591
34559SOL     OW 8132   5.261   7.864   9.394  0.6046  0.4416  0.0055
34559SOL    HW1 8133   5.185   7.882   9.449  1.0145  1.1699  0.3426
34559SOL    HW2 8134   5.290   7.777   9.421 -0.2541  0.0438 -0.3065
34560SOL     OW 8135   9.772   6.443   7.746 -0.0408 -0.0419 -0.7201
34560SOL    HW1 8136   9.867   6.456   7.750 -0.4110  2.9322  1.5391
34560SOL    HW2 8137   9.762   6.354   7.712  3.5059 -0.3098 -1.4778
34561SOL     OW 8138   9.929  10.103   4.243 -0.3616  0.2867  0.0253
34561SOL    HW1 8139   9.926  10.183   4.294 -1.7003  0.0883  0.2887
34561SOL    HW2 8140   9.875  10.121   4.166 -0.9984 -0.4869  0.2832
34562SOL     OW 8141   4.924   4.214  10.933 -0.3526 -0.5758  0.0081
34562SOL    HW1 8142   4.872   4.291  10.957 -2.1372 -1.8936  0.5619
34562SOL    HW2 8143   4.920   4.211  10.838 -0.7305 -0.2728  0.0111
34563SOL     OW 8144   8.750   5.380   9.888  0.4148  0.1727 -0.1054
34563SOL    HW1 8145   8.703   5.385   9.971  1.5638  0.2286  0.5627
34563SOL    HW2 8146   8.684   5.352   9.824 -0.5329  0.3583  0.7747
34564SOL     OW 8147   5.209   6.303   2.473 -0.1142  0.0742 -0.0802
34564SOL    HW1 8148   5.191   6.210   2.480 -1.8289  0.3246 -0.7853
34564SOL    HW2 8149   5.216   6.333   2.564 -0.1784 -0.6334  0.1589
34565SOL     OW 8150  10.570   1.479   6.660 -0.4183  0.0881 -0.6231
34565SOL    HW1 8151  10.600   1.538   6.591  2.0601 -0.8302 -0.4260
34565SOL    HW2 8152  10.506   1.423   6.617 -0.6777  1.0503 -1.5393
34566SOL     OW 8153   2.689   1.184   0.758  0.8223 -1.1191  0.2308
34566SOL    HW1 8154   2.613   1.227   0.797  0.7566 -0.0970 -0.9596
34566SOL    HW2 8155   2.720   1.124   0.826  0.9584  0.8492  1.9934
34567SOL     OW 8156   7.893   6.076   0.354  0.0401 -0.1858  0.2658
34567SOL    HW1 8157   7.815   6.055   0.303  0.8650  1.5452 -1.9388
34567SOL    HW2 8158   7.866   6.148   0.411 -0.5066 -1.1077  1.1996
34568SOL     OW 8159   1.600   5.694   2.266  0.0827 -0.4433  0.2793
34568SOL    HW1 8160   1.562   5.782   2.262  0.6212 -0.1955  0.5831
34568SOL    HW2 8161   1.602   5.673   2.360  0.3959 -0.5845  0.2420
34569SOL     OW 8162   9.325   8.276   6.835 -0.1031  0.3804 -0.3468
34569SOL    HW1 8163   9.351   8.367   6.852  0.0006  0.2726  0.0798
34569SOL    HW2 8164   9.306   8.240   6.922  1.1245 -0.3927 -0.3768
34570SOL     OW 8165   2.227   6.487   5.399  0.1591  0.0594 -0.2638
34570SOL    HW1 8166   2.208   6.407   5.351 -2.1169  0.9856 -1.0279
34570SOL    HW2 8167   2.223   6.461   5.491 -0.7625 -0.6788 -0.4963
34571SOL     OW 8168   8.543   9.410   6.755  0.2706 -0.1749  0.9317
34571SOL    HW1 8169   8.496   9.494   6.748 -0.3708 -0.5376  0.7753
34571SOL    HW2 8170   8.579   9.396   6.667  0.5528  0.0325  1.0119
34572SOL     OW 8171   2.909   9.621   3.219  0.4105  0.2006  0.2929
34572SOL    HW1 8172   2.825   9.654   3.250 -0.8395 -1.4469 -1.1256
34572SOL    HW2 8173   2.905   9.632   3.124  0.5879 -2.3851 -0.0951
34573SOL     OW 8174   0.737   1.173   5.382 -0.8081  0.0595 -0.1272
34573SOL    HW1 8175   0.682   1.244   5.416 -0.5059  1.5326 -2.4575
34573SOL    HW2 8176   0.682   1.129   5.318 -1.1645 -2.2609  1.6493
34574SOL     OW 8177   1.143   7.619   0.505  0.1426 -0.5006 -0.6042
34574SOL    HW1 8178   1.074   7.676   0.471  0.3608  1.3145  1.7527
34574SOL    HW2 8179   1.187   7.671   0.572  2.4048 -2.3846 -0.4757
34575SOL     OW 8180   3.387   2.021   0.780  0.7319 -0.1448  0.0752
34575SOL    HW1 8181   3.356   2.097   0.731 -0.1758 -1.1411 -0.9603
34575SOL    HW2 8182   3.313   1.960   0.779  1.9820 -1.7282 -0.6008
34576SOL     OW 8183   7.521   3.246   1.377 -0.4621 -0.2907  0.0759
34576SOL    HW1 8184   7.520   3.170   1.320  1.2301  0.2616 -0.7625
34576SOL    HW2 8185   7.454   3.304   1.341  0.4127 -0.0582 -1.2393
34577SOL     OW 8186  10.494   6.410   2.020  0.0102  0.2656  0.6188
34577SOL    HW1 8187  10.565   6.427   1.958 -1.8137 -1.6661 -2.2434
34577SOL    HW2 8188  10.521   6.333   2.068  0.1300 -0.1145 -0.0456
34578SOL     OW 8189   4.044   4.051   0.295 -0.4138  0.1853 -0.2966
34578SOL    HW1 8190   4.010   4.109   0.362  1.9136  1.8993 -0.4874
34578SOL    HW2 8191   3.971   3.992   0.275 -1.4699  0.1253  3.0725
34579SOL     OW 8192   6.405   7.687   8.467  0.1312  0.0957 -0.2444
34579SOL    HW1 8193   6.409   7.597   8.498 -1.8636  0.0428 -0.0407
34579SOL    HW2 8194   6.496   7.718   8.471  1.1435 -2.3712 -1.8539
34580SOL     OW 8195   9.026   1.204   7.352 -0.0710 -0.0956 -0.3750
34580SOL    HW1 8196   9.001   1.112   7.348  1.2749 -0.5564  0.6844
34580SOL    HW2 8197   8.952   1.252   7.315 -2.3010 -1.3457  2.1783
34581SOL     OW 8198   3.547   4.351   1.823 -0.0082  0.5118 -0.1130
34581SOL    HW1 8199   3.499   4.409   1.882 -0.1945 -0.4505  0.7047
34581SOL    HW2 8200   3.520   4.377   1.735 -1.9375  0.0816  0.3122
34582SOL     OW 8201   0.970   3.437   0.567 -0.6189  0.1000  0.0871
34582SOL    HW1 8202   0.955   3.363   0.508  1.2431  0.4199 -0.8871
34582SOL    HW2 8203   1.021   3.401   0.639 -0.5698  0.2310  0.1186
34583SOL     OW 8204   2.263   5.495   3.371  0.3429 -0.4610 -0.1589
34583SOL    HW1 8205   2.187   5.543   3.338  0.9310  0.2965 -0.4368
34583SOL    HW2 8206   2.248   5.487   3.465 -0.1202 -0.4005 -0.2245
34584SOL     OW 8207   9.983   1.766   7.182  0.4164 -0.0451 -0.6611
34584SOL    HW1 8208   9.893   1.739   7.160 -0.5403  1.3966  1.2047
34584SOL    HW2 8209   9.997   1.844   7.129 -0.2718  0.9436  0.5547
34585SOL     OW 8210   8.135   7.439   2.733 -0.5059  0.3506  0.4667
34585SOL    HW1 8211   8.050   7.478   2.754  0.4890  2.6444  0.5367
34585SOL    HW2 8212   8.167   7.489   2.658  1.7023  0.9909  1.7547
34586SOL     OW 8213  10.180   6.298  10.538 -0.1748  0.5726  0.0098
34586SOL    HW1 8214  10.233   6.287  10.617  0.6201  1.9344 -0.3037
34586SOL    HW2 8215  10.215   6.234  10.476  1.0501  1.3706 -0.1478
34587SOL     OW 8216   9.644   9.114   2.339 -0.3987  0.1117 -0.4665
34587SOL    HW1 8217   9.725   9.115   2.390  0.2291  0.3851 -1.4471
34587SOL    HW2 8218   9.575   9.126   2.404  0.2478 -1.2132  0.5303
34588SOL     OW 8219   9.596   9.801  10.638 -0.0448  0.3769 -0.1960
34588SOL    HW1 8220   9.516   9.778  10.591 -1.1697  1.0729  1.2739
34588SOL    HW2 8221   9.572   9.877  10.691  1.3816  0.1650  0.8465
34589SOL     OW 8222   6.418   0.284   4.541  0.4034 -0.8583 -0.4843
34589SOL    HW1 8223   6.325   0.295   4.522  0.3133 -0.3421  0.2017
34589SOL    HW2 8224   6.463   0.343   4.480  0.1662  0.2260  0.3584
34590SOL     OW 8225   6.942   8.091   6.601 -0.0486 -0.0846  0.1721
34590SOL    HW1 8226   6.985   8.177   6.593 -0.9046  0.2921 -0.4464
34590SOL    HW2 8227   6.917   8.068   6.512  0.1809 -0.9933  0.3346
34591SOL     OW 8228   7.491   5.081   3.458  0.0971  0.0316 -0.1187
34591SOL    HW1 8229   7.542   5.006   3.426  0.1235 -0.2964  0.6750
34591SOL    HW2 8230   7.521   5.094   3.548 -1.4691 -0.4104  0.5048
34592SOL     OW 8231   8.505   6.569   9.859  0.5121 -0.1218 -0.1370
34592SOL    HW1 8232   8.542   6.650   9.895 -0.0379  0.1024 -0.0713
34592SOL    HW2 8233   8.429   6.550   9.915  0.0555 -0.1498 -0.7529
34593SOL     OW 8234   4.687   6.431   0.953  0.2635  0.5411  0.0736
34593SOL    HW1 8235   4.695   6.486   0.876  1.5288  1.8051  1.0685
34593SOL    HW2 8236   4.775   6.429   0.991 -0.6460  1.2676  2.3610
34594SOL     OW 8237  11.025   5.922   6.216 -0.3356 -0.2305  0.3553
34594SOL    HW1 8238  10.953   5.862   6.199 -0.6515  0.2233  0.0748
34594SOL    HW2 8239  11.015   5.946   6.309 -0.6944  0.0225  0.2529
34595SOL     OW 8240   0.450   1.650   3.210 -0.2762 -0.1721 -0.8493
34595SOL    HW1 8241   0.396   1.676   3.284 -3.1300 -1.2592 -2.3930
34595SOL    HW2 8242   0.529   1.614   3.249 -1.6510 -0.6960  1.6569
34596SOL     OW 8243   2.005   0.463   8.255 -0.1017 -0.2087  0.1863
34596SOL    HW1 8244   2.046   0.538   8.211  3.1969 -1.3031  1.0354
34596SOL    HW2 8245   1.986   0.402   8.184 -1.2405  0.6995 -0.3322
34597SOL     OW 8246  10.551   6.127   8.434 -0.0137 -0.4970  0.1494
34597SOL    HW1 8247  10.521   6.165   8.517  0.2394  1.0682 -0.4434
34597SOL    HW2 8248  10.624   6.183   8.407  0.9775 -1.9654 -0.3314
34598SOL     OW 8249   0.806  10.923   0.563 -0.3874 -0.4676  0.4884
34598SOL    HW1 8250   0.782  10.996   0.620  0.5153 -0.8301  1.3584
34598SOL    HW2 8251   0.795  10.957   0.474 -0.8637  0.4202  0.8777
34599SOL     OW 8252   7.971   8.828   7.421  0.7915 -0.1848  0.3393
34599SOL    HW1 8253   7.940   8.888   7.354  0.8920 -0.5180 -0.0088
34599SOL    HW2 8254   8.064   8.815   7.401  0.9216  0.0280  0.7836
34600SOL     OW 8255   5.372   1.524   9.622  0.3809 -0.5024  0.1256
34600SOL    HW1 8256   5.385   1.477   9.539  0.4513  0.0097 -0.1628
34600SOL    HW2 8257   5.305   1.474   9.668  1.3158 -1.5798  0.3681
34601SOL     OW 8258   1.232   2.297   6.594 -0.0850  0.1549 -0.2131
34601SOL    HW1 8259   1.241   2.255   6.680 -1.7900 -0.4657 -0.2964
34601SOL    HW2 8260   1.310   2.270   6.546  1.4475  1.3993  1.4635
34602SOL     OW 8261   8.687   4.043   6.483  0.9178  0.2216  0.1241
34602SOL    HW1 8262   8.758   4.027   6.545  1.9184 -1.5498 -1.3700
34602SOL    HW2 8263   8.730   4.076   6.405  0.1950 -1.2694 -0.9600
34603SOL     OW 8264   2.812   5.730   7.660 -0.0622  0.4229 -0.3915
34603SOL    HW1 8265   2.862   5.649   7.669 -0.8212  0.0478  0.7524
34603SOL    HW2 8266   2.860   5.793   7.714  0.7375  0.8690 -1.5780
34604SOL     OW 8267   6.719   8.425   5.787  0.3074 -0.2671 -0.0766
34604SOL    HW1 8268   6.763   8.448   5.870  1.4346 -2.9941  0.1755
34604SOL    HW2 8269   6.731   8.502   5.732  1.4159  0.8089  1.5765
34605SOL     OW 8270   8.618   8.064   7.760  0.2570 -0.2272 -0.1339
34605SOL    HW1 8271   8.601   7.971   7.776  0.8538 -0.1370  1.1954
34605SOL    HW2 8272   8.620   8.103   7.847 -0.4490  1.1373 -0.6942
34606SOL     OW 8273   3.041   2.245   0.248 -0.1311  0.0058  0.1523
34606SOL    HW1 8274   3.064   2.158   0.283 -1.3680 -0.3913  0.0514
34606SOL    HW2 8275   3.040   2.302   0.325  0.6061 -0.0856  0.2336
34607SOL     OW 8276   3.770   2.602   2.586  0.5583  0.6218 -0.1570
34607SOL    HW1 8277   3.720   2.574   2.509  0.5955  1.0109 -0.3289
34607SOL    HW2 8278   3.801   2.521   2.626  1.0921  0.4343 -0.9282
34608SOL     OW 8279   2.602   5.126   9.682 -0.1138  0.4624  0.2885
34608SOL    HW1 8280   2.519   5.169   9.658  1.1943  3.0615 -0.0151
34608SOL    HW2 8281   2.640   5.100   9.598 -1.5081 -2.7468  0.5365
34609SOL     OW 8282   3.911   6.512   7.765  0.3391  0.3313 -0.2594
34609SOL    HW1 8283   3.925   6.526   7.671 -0.6451  1.5482 -0.2473
34609SOL    HW2 8284   3.892   6.419   7.773  2.2239 -0.1729 -1.0155
34610SOL     OW 8285   5.997   7.595   4.622 -0.7128 -0.9157  0.2980
34610SOL    HW1 8286   6.002   7.671   4.680 -1.7893 -2.0700  1.9893
34610SOL    HW2 8287   6.087   7.565   4.613 -0.3271  0.2963 -0.0540
34611SOL     OW 8288   5.510   6.932   8.266 -0.4209  0.0882 -0.2098
34611SOL    HW1 8289   5.510   6.837   8.267 -0.3560  0.0899  0.4728
34611SOL    HW2 8290   5.574   6.956   8.199 -0.0108 -0.3521  0.0181
34612SOL     OW 8291   7.768   3.647  10.247 -0.7545  0.2161 -0.5479
34612SOL    HW1 8292   7.687   3.633  10.198 -1.2048  0.2289  0.1760
34612SOL    HW2 8293   7.833   3.592  10.203 -1.3571 -0.4442 -0.6189
34613SOL     OW 8294   0.919   6.906   2.843 -0.5191  0.0732 -0.5785
34613SOL    HW1 8295   0.898   6.826   2.889 -1.6928  0.8330  0.2619
34613SOL    HW2 8296   0.849   6.916   2.778 -1.2088  1.1516  0.3049
34614SOL     OW 8297   8.152   1.267   5.474  0.5093 -0.3170 -0.3035
34614SOL    HW1 8298   8.155   1.362   5.482  0.4447 -0.4255  1.3895
34614SOL    HW2 8299   8.178   1.250   5.383  2.9067  1.2029 -0.0000
34615SOL     OW 8300   9.849   9.549   9.260 -0.0923  0.4353 -0.1961
34615SOL    HW1 8301   9.781   9.615   9.246  1.3437  1.6790 -1.7943
34615SOL    HW2 8302   9.907   9.587   9.325 -1.1194 -0.8467  1.5618
34616SOL     OW 8303   2.822   1.566   9.358  0.0476  0.7833 -0.0687
34616SOL    HW1 8304   2.755   1.567   9.289  0.7496 -0.1085 -0.7958
34616SOL    HW2 8305   2.792   1.499   9.419 -0.1406  0.9631  0.0351
34617SOL     OW 8306   4.894   1.462   9.633 -0.4121 -0.0869  0.2226
34617SOL    HW1 8307   4.969   1.449   9.691 -0.4466 -2.4406 -0.1665
34617SOL    HW2 8308   4.869   1.554   9.646  1.4961  0.2949  1.5771
34618SOL     OW 8309   9.752   2.391   3.919  0.2232  0.1633 -0.2404
34618SOL    HW1 8310   9.683   2.370   3.856  1.4277  0.5285 -1.7381
34618SOL    HW2 8311   9.736   2.483   3.943  0.2377  0.2715 -0.6453
34619SOL     OW 8312   9.459   2.178   9.517  0.5842 -0.2569 -0.2291
34619SOL    HW1 8313   9.512   2.102   9.541  1.6823  0.7473  0.6320
34619SOL    HW2 8314   9.507   2.220   9.447 -0.6604 -1.0112 -1.5958
34620SOL     OW 8315   7.824   0.183   4.121 -0.5462 -0.0547  0.5931
34620SOL    HW1 8316   7.909   0.213   4.089 -1.0394 -0.0138 -0.7362
34620SOL    HW2 8317   7.782   0.262   4.156 -0.3263  0.0660  0.5849
34621SOL     OW 8318   3.551   4.223   3.498  0.2495  0.4206  0.4390
34621SOL    HW1 8319   3.459   4.247   3.493  0.1764  0.1869  0.6519
34621SOL    HW2 8320   3.568   4.211   3.591 -0.0639 -1.6285  0.2804
34622SOL     OW 8321   7.950   5.892   7.817  0.1082 -0.1559  0.4890
34622SOL    HW1 8322   8.037   5.854   7.828 -0.0978 -0.5798  0.6609
34622SOL    HW2 8323   7.899   5.858   7.890 -0.0656  0.5010  0.6827
34623SOL     OW 8324   0.751   9.972   3.446 -0.3199  0.4954 -0.0647
34623SOL    HW1 8325   0.824   9.949   3.389  0.2066 -0.0164  0.8028
34623SOL    HW2 8326   0.705   9.890   3.462 -1.2240  0.8479 -0.7794
34624SOL     OW 8327   4.515   1.041   5.914  0.1536 -0.6409  0.2722
34624SOL    HW1 8328   4.468   0.995   5.844 -0.8675 -0.8324  1.0528
34624SOL    HW2 8329   4.495   0.990   5.993  1.2013 -0.3661  0.7287
34625SOL     OW 8330   8.543   5.841   5.881 -0.3205  0.3056 -0.9149
34625SOL    HW1 8331   8.469   5.842   5.942 -1.8097  5.1460 -2.3718
34625SOL    HW2 8332   8.620   5.858   5.935 -0.5177 -2.1276  0.2707
34626SOL     OW 8333   6.053   3.982   0.265 -0.1776 -0.1730 -0.1702
34626SOL    HW1 8334   6.059   4.018   0.176 -0.3919 -0.0686 -0.1418
34626SOL    HW2 8335   6.002   3.902   0.255  2.3514 -1.8522 -0.6519
34627SOL     OW 8336   0.241   8.457   5.485 -0.0008  0.0182 -0.0227
34627SOL    HW1 8337   0.280   8.371   5.469 -0.3767 -0.5387  1.8087
34627SOL    HW2 8338   0.312   8.511   5.518 -0.0591  0.0220  0.0959
34628SOL     OW 8339   8.920  10.043   4.371 -0.3470 -0.0409  0.1706
34628SOL    HW1 8340   8.961   9.982   4.432 -2.0121 -0.3097  1.0706
34628SOL    HW2 8341   8.961  10.127   4.390  2.3246 -0.8458 -1.3974
34629SOL     OW 8342   1.846  10.636   8.704  0.3902  0.5124  0.1261
34629SOL    HW1 8343   1.937  10.630   8.733  0.2778  1.6456  0.8048
34629SOL    HW2 8344   1.816  10.721   8.738 -0.1752  1.3117 -2.1698
34630SOL     OW 8345   5.316   6.724   4.431 -0.9011 -0.4753 -0.4113
34630SOL    HW1 8346   5.287   6.772   4.509  0.3140 -0.1284 -0.1385
34630SOL    HW2 8347   5.302   6.785   4.359 -1.8285 -0.7143 -0.4364
34631SOL     OW 8348  10.782   5.852   6.158 -1.0334  0.3166 -0.3735
34631SOL    HW1 8349  10.728   5.913   6.208 -0.3026  1.1575 -0.5781
34631SOL    HW2 8350  10.749   5.858   6.069  0.1497  1.7939 -0.7682
34632SOL     OW 8351   8.917   1.981   7.802 -0.2479  0.0047  0.0727
34632SOL    HW1 8352   8.832   1.962   7.841  0.4093  0.0632  1.6087
34632SOL    HW2 8353   8.955   1.894   7.785 -0.0160 -0.0327  0.7670
34633SOL     OW 8354  10.583   6.890   4.801  0.0180  0.1810  0.0941
34633SOL    HW1 8355  10.580   6.900   4.896  0.9462  1.2155  0.0288
34633SOL    HW2 8356  10.628   6.806   4.787 -0.9289 -0.4243  0.5577
34634SOL     OW 8357   4.017   1.067   9.235  0.1675 -0.2254 -0.4747
34634SOL    HW1 8358   4.012   0.993   9.174  1.5493 -0.2811 -0.5579
34634SOL    HW2 8359   4.110   1.092   9.235 -0.0362  0.6186  0.6123
34635SOL     OW 8360   4.484   4.978   2.903 -0.9423  0.0321  0.1553
34635SOL    HW1 8361   4.523   4.972   2.991 -0.6797  0.9225  0.1142
34635SOL    HW2 8362   4.475   5.072   2.888 -1.3907 -0.1272 -0.6007
34636SOL     OW 8363   3.538   6.078   4.299  0.0989  0.1520 -0.3265
34636SOL    HW1 8364   3.461   6.024   4.315  0.5923 -0.5714 -0.3393
34636SOL    HW2 8365   3.520   6.123   4.216 -0.1213 -0.3457 -0.5469
34637SOL     OW 8366   6.607   5.360   4.112  0.7803 -0.1073  0.2481
34637SOL    HW1 8367   6.642   5.399   4.192 -1.6709  0.8302  0.9371
34637SOL    HW2 8368   6.527   5.316   4.139  0.4810 -0.7182 -1.5147
34638SOL     OW 8369   7.292   7.916   8.928 -0.5637  0.2451 -0.5303
34638SOL    HW1 8370   7.280   7.979   8.999 -1.2386 -1.1349  0.6299
34638SOL    HW2 8371   7.317   7.835   8.972 -0.1379 -0.4232 -1.9532
34639SOL     OW 8372   0.293   1.435   5.564 -0.4372  0.0916  0.1996
34639SOL    HW1 8373   0.303   1.502   5.495 -0.8184 -0.3311 -0.2758
34639SOL    HW2 8374   0.244   1.365   5.521  0.7120 -0.8784  0.4318
34640SOL     OW 8375   4.007   3.065   3.559 -0.0089  0.3806 -0.4868
34640SOL    HW1 8376   3.915   3.071   3.586 -0.4129 -2.2996 -0.9733
34640SOL    HW2 8377   4.057   3.089   3.637 -1.1406 -0.0154  0.3791
34641SOL     OW 8378   7.705   7.250   3.864  0.1106  0.2626 -0.1090
34641SOL    HW1 8379   7.693   7.241   3.770 -1.5887  0.6083  0.0393
34641SOL    HW2 8380   7.623   7.217   3.902  0.9819 -0.3927  1.2857
34642SOL     OW 8381  10.240   9.753   0.530  0.3206  0.5042  0.0450
34642SOL    HW1 8382  10.296   9.776   0.604 -0.4302  0.8383  0.5138
34642SOL    HW2 8383  10.184   9.683   0.563  0.1262  0.5081 -0.2757
34643SOL     OW 8384   9.961  10.499   6.130 -0.5807  0.0947  0.5471
34643SOL    HW1 8385  10.014  10.538   6.200  0.0275 -0.6682  0.5305
34643SOL    HW2 8386  10.019  10.497   6.054 -0.3350 -1.4487  0.7332
34644SOL     OW 8387   3.585   7.603   7.321  0.1622 -0.2184 -0.0240
34644SOL    HW1 8388   3.532   7.529   7.292 -1.1005  0.9411 -0.7656
34644SOL    HW2 8389   3.543   7.680   7.283  2.5519  0.7588 -0.8961
34645SOL     OW 8390   1.979   9.313  11.003  0.4128 -0.4648 -0.1731
34645SOL    HW1 8391   2.037   9.387  11.022 -0.5449  0.0605  0.8626
34645SOL    HW2 8392   2.033   9.253  10.952  1.5479  0.4558 -0.1181
34646SOL     OW 8393   6.568   9.917   5.674 -0.1412 -0.1910  0.2521
34646SOL    HW1 8394   6.650   9.868   5.673  0.4900  0.8262 -0.9344
34646SOL    HW2 8395   6.504   9.857   5.636  0.5002 -0.3330 -0.6527
34647SOL     OW 8396   1.042   2.415   5.830  0.3001  0.0280 -0.3670
34647SOL    HW1 8397   1.084   2.388   5.911  2.6805 -1.7342 -2.0392
34647SOL    HW2 8398   1.111   2.407   5.764 -1.7419  0.5920 -2.7065
34648SOL     OW 8399   1.048   4.549   5.855  0.2960  0.0525 -0.4967
34648SOL    HW1 8400   1.005   4.633   5.874 -0.0325 -0.1325 -0.4083
34648SOL    HW2 8401   1.045   4.542   5.760 -1.6594 -0.8649 -0.4201
34649SOL     OW 8402  10.652   2.105   8.224 -0.6212  0.1123  0.1216
34649SOL    HW1 8403  10.688   2.041   8.286 -0.7402  1.2575  1.4323
34649SOL    HW2 8404  10.568   2.068   8.198 -0.5331 -0.4362  0.5762
34650SOL     OW 8405   5.304   3.356   3.990  0.2001 -0.3261  1.0734
34650SOL    HW1 8406   5.232   3.304   4.025 -1.0940 -1.7819 -3.0848
34650SOL    HW2 8407   5.324   3.314   3.906  2.7764  2.8020 -0.0684
34651SOL     OW 8408   1.778   2.062   7.328  0.2911 -0.5420  0.4569
34651SOL    HW1 8409   1.709   2.123   7.357  0.3081  0.4233 -1.4266
34651SOL    HW2 8410   1.854   2.118   7.312  1.6284 -1.6121  2.6359
34652SOL     OW 8411   4.430   5.026   4.590 -0.3289 -0.2306 -0.2851
34652SOL    HW1 8412   4.522   5.000   4.598  0.0107  1.1930  1.0889
34652SOL    HW2 8413   4.382   4.944   4.582  0.9841 -1.0612  0.0591
34653SOL     OW 8414   2.238  10.739   8.361  0.4056  0.1462  0.3659
34653SOL    HW1 8415   2.284  10.806   8.312 -0.9876  1.3744  0.6874
34653SOL    HW2 8416   2.308  10.684   8.398  1.5207  0.6901 -0.8828
34654SOL     OW 8417   8.060   9.372  10.024 -0.5922  0.3357 -0.3217
34654SOL    HW1 8418   8.070   9.280  10.001  2.4146  0.7883 -1.3217
34654SOL    HW2 8419   8.125   9.417   9.970  0.4376  2.6223  2.5461
34655SOL     OW 8420   5.724  10.409  10.137  0.3762  0.0765 -0.5359
34655SOL    HW1 8421   5.719  10.379  10.046  1.7930 -0.9217 -0.3212
34655SOL    HW2 8422   5.817  10.431  10.150 -0.3356  3.5561 -0.3218
34656SOL     OW 8423   9.699   4.045   1.606 -0.0821 -0.1535 -0.1166
34656SOL    HW1 8424   9.755   4.029   1.682  0.0105 -1.8857 -0.5069
34656SOL    HW2 8425   9.718   3.972   1.547 -0.2480  1.0840 -1.7585
34657SOL     OW 8426   7.898   9.969   7.791  0.4780 -0.5460 -0.3350
34657SOL    HW1 8427   7.992   9.967   7.807  0.4876  1.9447  0.2735
34657SOL    HW2 8428   7.858   9.967   7.878  0.1250  1.3654 -0.4054
34658SOL     OW 8429   0.265   4.528   7.605  0.5195  0.0480 -0.0938
34658SOL    HW1 8430   0.240   4.551   7.695 -1.0175  2.3771 -1.0137
34658SOL    HW2 8431   0.294   4.437   7.610  0.0167 -0.0301  2.6635
34659SOL     OW 8432   9.129   7.322   5.544  0.1683  0.0041  0.5464
34659SOL    HW1 8433   9.059   7.348   5.483  0.3495  1.5631  0.9519
34659SOL    HW2 8434   9.085   7.303   5.626  0.2705  2.1633  1.1550
34660SOL     OW 8435   2.769   4.832  10.274  0.6963 -0.4301  0.4835
34660SOL    HW1 8436   2.853   4.823  10.318  1.3251 -1.1878 -0.8157
34660SOL    HW2 8437   2.718   4.757  10.304  0.3795  0.1610  1.4579
34661SOL     OW 8438   5.972   4.484   4.582 -0.3021 -0.4568  0.1940
34661SOL    HW1 8439   6.062   4.477   4.615  0.6367  3.2520 -1.0790
34661SOL    HW2 8440   5.922   4.519   4.655 -0.4028 -1.1499  0.4639
34662SOL     OW 8441   0.952   6.389   5.008  0.1370 -0.5893 -0.0697
34662SOL    HW1 8442   0.995   6.475   5.016 -0.4079 -0.4251  1.3344
34662SOL    HW2 8443   1.007   6.341   4.945  0.6518  0.6547 -0.6090
34663SOL     OW 8444   0.171   0.371   6.850  0.2598 -0.6283 -0.1628
34663SOL    HW1 8445   0.239   0.349   6.786 -0.0483 -0.8703 -0.4170
34663SOL    HW2 8446   0.210   0.350   6.935  1.0683  0.7101 -0.1786
34664SOL     OW 8447  10.062   8.223   9.466 -0.2106  0.2632  0.4881
34664SOL    HW1 8448  10.101   8.259   9.546  0.3083  0.3076  0.2166
34664SOL    HW2 8449  10.000   8.157   9.497  1.1613 -0.8947  0.8926
34665SOL     OW 8450   9.847   6.858   4.085  0.1946 -0.5387  0.4437
34665SOL    HW1 8451   9.926   6.854   4.138  0.6806 -0.8155 -0.2892
34665SOL    HW2 8452   9.815   6.768   4.081  1.2626 -0.8846 -1.3427
34666SOL     OW 8453   4.836   9.015   6.678  0.3696  0.0930  0.1999
34666SOL    HW1 8454   4.748   9.047   6.701 -0.0365 -0.1355 -0.9569
34666SOL    HW2 8455   4.865   9.073   6.608  0.0439 -1.3832 -1.2140
34667SOL     OW 8456   0.240   1.108   0.936  0.6731 -0.0412 -0.1048
34667SOL    HW1 8457   0.177   1.038   0.922  0.2224  0.1480  0.8936
34667SOL    HW2 8458   0.187   1.185   0.957  1.2245 -0.0600  1.5300
34668SOL     OW 8459   9.077   5.943   5.820  0.7241  0.9214 -0.0419
34668SOL    HW1 8460   9.140   5.888   5.773 -1.7916 -0.9892 -1.4718
34668SOL    HW2 8461   9.063   6.018   5.762  0.7647  0.7115 -0.3243
34669SOL     OW 8462   5.864  10.964  10.608 -0.2170  0.0631  0.2868
34669SOL    HW1 8463   5.892  10.873  10.619  1.4416  0.4364 -0.4566
34669SOL    HW2 8464   5.853  10.975  10.514 -1.2304  0.4223  0.4350
34670SOL     OW 8465   4.280   0.101   2.928 -0.1725 -0.0437 -0.0829
34670SOL    HW1 8466   4.319   0.077   3.012  1.5758  1.2507 -0.4712
34670SOL    HW2 8467   4.190   0.067   2.932 -0.0169 -0.3115  2.1466
34671SOL     OW 8468   5.138   7.574   3.212  0.3981 -0.3790 -0.3293
34671SOL    HW1 8469   5.131   7.485   3.244  0.4483 -0.3442 -0.2200
34671SOL    HW2 8470   5.207   7.571   3.145  2.0566  0.0197  1.2956
34672SOL     OW 8471   0.672   9.766   7.765 -0.4199 -0.4080  0.5866
34672SOL    HW1 8472   0.707   9.855   7.759  1.8346 -1.2039  1.0504
34672SOL    HW2 8473   0.596   9.766   7.706  1.4779  0.9224 -2.0607
34673SOL     OW 8474   5.416   5.926  10.525 -0.5709  0.5133  0.1583
34673SOL    HW1 8475   5.456   6.007  10.558  1.1510 -1.0114  2.1001
34673SOL    HW2 8476   5.452   5.914  10.438  1.6130  0.3211  1.0337
34674SOL     OW 8477   6.964   4.068   6.484  0.1688 -0.8571 -0.2640
34674SOL    HW1 8478   7.019   4.079   6.562 -1.7264 -2.8355  1.4874
34674SOL    HW2 8479   7.016   4.010   6.427 -0.1288 -3.0574  1.5451
34675SOL     OW 8480   4.139   9.858   0.688 -0.6356 -0.2026 -0.6730
34675SOL    HW1 8481   4.198   9.895   0.622  0.7180  1.0304  1.1374
34675SOL    HW2 8482   4.059   9.836   0.639  1.1660 -1.7049 -3.1523
34676SOL     OW 8483   6.542   8.274   3.597 -0.3188  0.0323 -0.6391
34676SOL    HW1 8484   6.503   8.361   3.589 -1.1279 -0.3249 -0.7524
34676SOL    HW2 8485   6.572   8.253   3.508  3.2054  1.6398  0.0091
34677SOL     OW 8486   8.285   2.936   9.927 -0.3486 -0.1102  0.4049
34677SOL    HW1 8487   8.265   2.862   9.985  1.5992 -0.6082  0.5392
34677SOL    HW2 8488   8.370   2.968   9.959  0.6162 -0.1686 -1.9236
34678SOL     OW 8489   4.829   9.052   5.441 -0.5297  0.1088  0.4591
34678SOL    HW1 8490   4.891   9.089   5.503 -2.3484  0.8536  1.9159
34678SOL    HW2 8491   4.814   8.963   5.472 -2.3882  0.8759  1.9244
34679SOL     OW 8492   9.162   8.703  10.562  0.2607 -0.4689 -0.4974
34679SOL    HW1 8493   9.075   8.705  10.601 -0.0345 -0.8213 -1.1269
34679SOL    HW2 8494   9.184   8.796  10.549  0.5624 -0.3214  0.9012
34680SOL     OW 8495   4.739   1.630   9.075  0.3229  0.2210  0.2572
34680SOL    HW1 8496   4.754   1.713   9.121  0.7037  1.0122 -1.2237
34680SOL    HW2 8497   4.797   1.635   8.998 -0.4487 -0.9491 -0.4265
34681SOL     OW 8498  10.789   1.838   6.758  0.1752  0.2557 -0.3397
34681SOL    HW1 8499  10.824   1.923   6.733  1.3035  0.1058  0.6365
34681SOL    HW2 8500  10.839   1.775   6.706  0.7193  0.0971  0.3530
34682SOL     OW 8501   9.363   9.296   5.176 -0.2650 -0.0103  0.1252
34682SOL    HW1 8502   9.431   9.347   5.134 -0.8324  0.9792  0.3581
34682SOL    HW2 8503   9.287   9.304   5.118 -0.4125 -0.4357  0.2563
34683SOL     OW 8504   7.697   2.989   2.043 -0.0830 -0.3045  0.5863
34683SOL    HW1 8505   7.781   2.981   1.999 -1.0914 -0.8315 -1.3177
34683SOL    HW2 8506   7.696   3.080   2.076  0.6628  0.1339 -0.5605
34684SOL     OW 8507   4.386   7.591   3.738  0.0299  0.3350 -0.2181
34684SOL    HW1 8508   4.436   7.526   3.787  2.0546  3.0330  1.6487
34684SOL    HW2 8509   4.442   7.615   3.665 -1.0076 -0.4381 -1.3075
34685SOL     OW 8510   9.698   0.648   2.134  0.2996  0.5077 -0.5374
34685SOL    HW1 8511   9.690   0.737   2.168  1.7051  0.2034  0.7118
34685SOL    HW2 8512   9.651   0.594   2.198 -0.6081  0.3447 -1.3264
34686SOL     OW 8513   0.277   9.815   6.829  0.5303  0.5245  0.4412
34686SOL    HW1 8514   0.201   9.840   6.882  0.3554  1.0349 -0.0409
34686SOL    HW2 8515   0.252   9.733   6.787  1.0850 -0.4974  1.9898
34687SOL     OW 8516   9.132   3.801   6.857  0.0866  0.4266  0.3402
34687SOL    HW1 8517   9.147   3.859   6.783 -0.1954  1.2630  0.9171
34687SOL    HW2 8518   9.062   3.742   6.828  0.0413  0.6873 -0.0840
34688SOL     OW 8519   4.220   0.651   1.545  0.1885  0.7225 -0.1009
34688SOL    HW1 8520   4.241   0.568   1.589  1.0306  0.7761 -0.3769
34688SOL    HW2 8521   4.195   0.626   1.457 -1.3105  0.6307  0.3323
34689SOL     OW 8522   9.998   2.130   8.753 -0.5452 -0.2831  0.0718
34689SOL    HW1 8523   9.994   2.066   8.681 -0.7362  1.2076 -1.3062
34689SOL    HW2 8524   9.921   2.185   8.741  0.4159  1.1657  0.2373
34690SOL     OW 8525   1.000   5.746   8.617  0.1021  0.1557 -0.7074
34690SOL    HW1 8526   0.905   5.736   8.623  0.1870  0.2242  1.7909
34690SOL    HW2 8527   1.012   5.819   8.556 -1.6473  2.2861  1.3257
34691SOL     OW 8528   2.124   1.957   0.247 -0.3211 -0.5324 -0.2611
34691SOL    HW1 8529   2.172   1.959   0.164  0.6600 -1.5951  0.2556
34691SOL    HW2 8530   2.094   2.047   0.259  0.8385 -0.0225 -1.0212
34692SOL     OW 8531   2.528   7.580   5.540 -0.5475  0.1140 -0.7150
34692SOL    HW1 8532   2.552   7.634   5.616  0.3437  1.1046 -1.6713
34692SOL    HW2 8533   2.553   7.491   5.565 -0.2338  0.4251  0.1289
34693SOL     OW 8534   8.585   2.108   5.044  0.1152 -0.3585 -0.2084
34693SOL    HW1 8535   8.619   2.062   4.968  0.0021 -1.5327  0.4275
34693SOL    HW2 8536   8.645   2.085   5.115 -0.1953  0.1265  0.2215
34694SOL     OW 8537   1.632  10.889   2.822  0.0971  0.5366 -0.5043
34694SOL    HW1 8538   1.594  10.943   2.752  0.8780  2.3289  0.3849
34694SOL    HW2 8539   1.607  10.933   2.903 -0.7883 -1.5147  0.3972
34695SOL     OW 8540  10.487   8.276   8.143 -0.2434 -0.2078  0.1319
34695SOL    HW1 8541  10.552   8.206   8.152  0.5189  0.3677 -0.7880
34695SOL    HW2 8542  10.459   8.295   8.233  1.5400  0.1684  0.6368
34696SOL     OW 8543   7.675  10.735   7.318  0.1720  0.2068 -0.2549
34696SOL    HW1 8544   7.758  10.691   7.299  0.3064 -0.2776  1.3602
34696SOL    HW2 8545   7.682  10.764   7.408 -0.1553  3.1169 -1.0589
34697SOL     OW 8546   1.040  10.382   0.752 -0.4615  0.5000  0.4337
34697SOL    HW1 8547   1.107  10.360   0.687 -0.4088  1.1845  0.2544
34697SOL    HW2 8548   0.958  10.382   0.703 -0.6445 -0.5665  0.6980
34698SOL     OW 8549   3.599   5.094   1.234 -0.6219  0.6275 -0.1517
34698SOL    HW1 8550   3.545   5.173   1.244 -0.9851  0.1792  1.8783
34698SOL    HW2 8551   3.644   5.085   1.318  0.6722 -0.4532 -0.9147
34699SOL     OW 8552   5.887   3.501   7.689 -0.2299  0.1861 -0.2294
34699SOL    HW1 8553   5.929   3.584   7.711 -1.0406  0.7408 -0.7374
34699SOL    HW2 8554   5.949   3.434   7.718 -0.7650  0.8603  2.7390
34700SOL     OW 8555   0.890  10.850   7.980  0.2522  0.3624 -0.2624
34700SOL    HW1 8556   0.927  10.823   8.064 -0.1338 -0.1385 -0.2486
34700SOL    HW2 8557   0.878  10.769   7.931  0.5112  0.6536 -0.8236
34701SOL     OW 8558  11.030   2.298   8.136  0.5539  0.4375  0.2078
34701SOL    HW1 8559  11.027   2.239   8.212  1.3052 -1.3905 -1.1161
34701SOL    HW2 8560  11.121   2.329   8.134  0.2937  1.2457  0.5877
34702SOL     OW 8561   1.444   1.885   4.633  0.3778  0.3459  1.1889
34702SOL    HW1 8562   1.492   1.846   4.706  1.8712 -3.0106 -1.3119
34702SOL    HW2 8563   1.353   1.857   4.647  0.7224 -0.6226  1.5945
34703SOL     OW 8564   1.127   2.449   1.014  0.1887  0.1723  0.0987
34703SOL    HW1 8565   1.081   2.368   1.035 -2.1863  1.2294 -0.6632
34703SOL    HW2 8566   1.078   2.517   1.060  0.8631  1.4053 -0.9436
34704SOL     OW 8567   8.200   4.830   7.559 -0.5319  0.4378 -0.0739
34704SOL    HW1 8568   8.115   4.802   7.525 -1.3195  1.4344  1.0206
34704SOL    HW2 8569   8.205   4.792   7.646  1.7330 -2.5935 -1.3369
34705SOL     OW 8570   1.935   6.841   7.743  0.5090 -0.2619  0.2856
34705SOL    HW1 8571   1.902   6.766   7.694 -1.9119  0.1054  1.2493
34705SOL    HW2 8572   1.935   6.913   7.680  0.9769 -0.6163 -0.1264
34706SOL     OW 8573   3.026   5.727   9.019  0.2700 -0.6327  0.5452
34706SOL    HW1 8574   3.017   5.756   8.929  1.3588 -0.4035  0.4911
34706SOL    HW2 8575   2.936   5.714   9.050 -0.3741  3.1900  0.7054
34707SOL     OW 8576   7.080   3.088   5.012  0.6085 -0.0269 -0.5119
34707SOL    HW1 8577   7.111   3.177   4.994 -1.7337  1.1191  0.6791
34707SOL    HW2 8578   7.077   3.082   5.107 -2.4089 -0.1071 -0.5299
34708SOL     OW 8579   4.923   5.655   9.467  0.2141  0.3170  0.3283
34708SOL    HW1 8580   4.961   5.570   9.445 -0.2567 -0.6779  2.9243
34708SOL    HW2 8581   4.868   5.677   9.392  0.3092 -1.7006 -0.4038
34709SOL     OW 8582   9.670   3.719   2.488  0.4756 -0.2965  0.1338
34709SOL    HW1 8583   9.603   3.658   2.455  0.0489 -0.2524  0.8970
34709SOL    HW2 8584   9.620   3.786   2.535  0.9673  0.4645 -0.4058
34710SOL     OW 8585   5.865   3.400   0.173  0.0823 -0.3835 -0.0382
34710SOL    HW1 8586   5.906   3.412   0.088  0.1489  2.0927  0.2496
34710SOL    HW2 8587   5.771   3.405   0.156  0.1016  0.4959  0.0298
34711SOL     OW 8588   9.277   2.336   5.596  0.3441  0.2305  0.3647
34711SOL    HW1 8589   9.255   2.400   5.528  2.9965  0.9866  0.1311
34711SOL    HW2 8590   9.213   2.266   5.583 -0.1769  1.0257 -1.9449
34712SOL     OW 8591   9.452   7.201   9.769 -0.1090  0.6614  0.1736
34712SOL    HW1 8592   9.377   7.221   9.714  1.1158  0.7621 -1.5377
34712SOL    HW2 8593   9.419   7.137   9.833 -1.7527  1.1299 -0.1751
34713SOL     OW 8594   4.524  10.973   2.714 -0.7672  0.4763 -0.4243
34713SOL    HW1 8595   4.495  10.893   2.671 -0.8275  0.4477 -0.3310
34713SOL    HW2 8596   4.471  11.043   2.675 -0.1831  0.5750 -1.0494
34714SOL     OW 8597   9.372   3.432   9.609  0.5258  0.0700 -0.8202
34714SOL    HW1 8598   9.462   3.411   9.581  0.0206 -2.7759 -0.6584
34714SOL    HW2 8599   9.318   3.414   9.532  0.0398  1.4296 -0.8100
34715SOL     OW 8600   2.174   0.938  11.031  0.4607 -0.5288  0.2238
34715SOL    HW1 8601   2.213   0.895  10.954 -0.4637  0.6846 -0.9663
34715SOL    HW2 8602   2.128   1.014  10.995  0.4390  0.3638  2.0582
34716SOL     OW 8603   6.864   1.269   5.493  0.4685  0.1357  0.3699
34716SOL    HW1 8604   6.773   1.241   5.483  0.4974 -0.1334  0.8113
34716SOL    HW2 8605   6.861   1.364   5.492  0.5819  0.2514 -3.1714
34717SOL     OW 8606   9.757   6.249   5.032 -0.1328  0.1377  0.4850
34717SOL    HW1 8607   9.666   6.265   5.054 -0.2332 -0.5063  0.5367
34717SOL    HW2 8608   9.797   6.337   5.032 -0.4265  0.3021  1.8574
34718SOL     OW 8609   3.879   3.254   5.708 -0.0123  0.5379 -0.3189
34718SOL    HW1 8610   3.887   3.203   5.789  0.3183 -1.4214 -1.5161
34718SOL    HW2 8611   3.796   3.301   5.717  0.2208  0.6849  1.3092
34719SOL     OW 8612   8.193   1.472   6.121  0.0618 -0.0822 -0.3531
34719SOL    HW1 8613   8.187   1.394   6.176 -2.0171 -0.8085 -1.4844
34719SOL    HW2 8614   8.254   1.448   6.052 -2.1261 -1.6063 -1.8964
34720SOL     OW 8615  10.572   7.153   2.930 -0.6332 -0.1894  0.4953
34720SOL    HW1 8616  10.514   7.078   2.936  0.6514 -1.3656 -1.0139
34720SOL    HW2 8617  10.514   7.229   2.937 -2.2212 -1.3121 -0.0097
34721SOL     OW 8618  10.300   3.103   0.208 -0.2876 -0.4593 -0.9261
34721SOL    HW1 8619  10.366   3.044   0.172  2.0599  2.0756 -1.1575
34721SOL    HW2 8620  10.249   3.131   0.131  0.0255 -0.5303 -1.1621
34722SOL     OW 8621   7.029  10.977   0.809 -0.2891  0.4293 -0.2227
34722SOL    HW1 8622   7.083  10.930   0.745 -0.0807 -1.2485  1.1191
34722SOL    HW2 8623   7.091  11.006   0.876 -0.7144  0.8317  0.0021
34723SOL     OW 8624   0.274   7.059   4.176  0.6011 -0.1762 -0.0619
34723SOL    HW1 8625   0.286   7.097   4.263 -1.9576 -0.3604  0.4607
34723SOL    HW2 8626   0.198   7.104   4.140  0.1444 -1.7496 -1.2020
34724SOL     OW 8627   2.643   7.004   1.542 -0.5443 -0.1523 -0.0965
34724SOL    HW1 8628   2.659   7.078   1.601 -0.2397 -0.6497  0.4640
34724SOL    HW2 8629   2.548   6.994   1.541 -0.6401  0.7159 -0.7795
34725SOL     OW 8630   5.100   4.440   7.466  0.0527  0.0202 -0.2532
34725SOL    HW1 8631   5.064   4.359   7.501  2.0337 -0.5857  0.5481
34725SOL    HW2 8632   5.026   4.484   7.425 -2.0932 -0.0301  3.1936
34726SOL     OW 8633   6.091   0.550   3.778  0.4083 -0.5401 -0.1620
34726SOL    HW1 8634   6.175   0.545   3.732  0.0775 -0.7816 -0.7547
34726SOL    HW2 8635   6.043   0.619   3.732  0.0228 -0.8780 -0.2719
34727SOL     OW 8636   7.310   8.310   3.067  0.0551 -0.0368 -0.2069
34727SOL    HW1 8637   7.360   8.381   3.027 -0.9643  1.0855  0.4828
34727SOL    HW2 8638   7.218   8.335   3.055 -0.2973 -0.4116  1.5054
34728SOL     OW 8639   4.736   4.764   5.625  0.4887 -0.1989 -0.2936
34728SOL    HW1 8640   4.658   4.714   5.598  0.1804  0.3217 -0.3819
34728SOL    HW2 8641   4.707   4.855   5.623  1.3288  0.0566 -1.0802
34729SOL     OW 8642   2.178   2.904   2.039 -0.1904  0.4609 -0.1351
34729SOL    HW1 8643   2.228   2.823   2.028 -1.1531 -0.0364 -1.1349
34729SOL    HW2 8644   2.178   2.920   2.133 -0.7465 -1.2333  0.1892
34730SOL     OW 8645   8.502   5.710  10.585 -0.1034  1.0206  0.0512
34730SOL    HW1 8646   8.419   5.681  10.547  1.2305 -1.2197 -1.3369
34730SOL    HW2 8647   8.514   5.655  10.662  0.8023  0.2282 -0.6358
34731SOL     OW 8648   4.503   6.391   9.677  0.5094 -0.0350  0.0585
34731SOL    HW1 8649   4.457   6.340   9.744  2.0791 -1.3572  0.2081
34731SOL    HW2 8650   4.596   6.377   9.696  1.0379 -0.8488 -2.6359
34732SOL     OW 8651   0.175   8.633   0.142 -0.4908  0.1078  0.2167
34732SOL    HW1 8652   0.169   8.548   0.187  0.2109 -0.4477 -0.6940
34732SOL    HW2 8653   0.099   8.634   0.084  0.0266 -0.3352 -0.4778
34733SOL     OW 8654   7.238   7.588  10.728 -0.0348 -0.2108  0.1124
34733SOL    HW1 8655   7.295   7.520  10.691 -1.2270 -0.5442 -1.2375
34733SOL    HW2 8656   7.165   7.540  10.768 -0.8892  0.2273 -0.8522
34734SOL     OW 8657   8.227   8.676   2.551  0.2928 -0.1107 -0.0803
34734SOL    HW1 8658   8.272   8.727   2.484  1.0451 -0.7055 -0.0397
34734SOL    HW2 8659   8.226   8.733   2.628 -0.6227  0.5975 -0.5866
34735SOL     OW 8660   3.835   3.707   1.688  0.0092 -0.1371  0.0160
34735SOL    HW1 8661   3.749   3.739   1.714 -0.4212 -0.3348 -1.0963
34735SOL    HW2 8662   3.861   3.764   1.615 -0.3479 -1.6648 -1.3581
34736SOL     OW 8663   3.285   9.222   9.806  0.0958 -0.0176 -0.4127
34736SOL    HW1 8664   3.265   9.316   9.804  0.4012  0.0786  0.5645
34736SOL    HW2 8665   3.369   9.214   9.760  1.4019  0.5705  1.7276
34737SOL     OW 8666   4.978   4.777   1.996  0.2646 -0.3649  0.7341
34737SOL    HW1 8667   4.934   4.704   2.041  2.8140 -2.4758  0.0673
34737SOL    HW2 8668   4.994   4.841   2.065 -0.6643 -1.1174  1.6915
34738SOL     OW 8669   4.116  10.674   3.367 -0.8219  0.1373 -0.5604
34738SOL    HW1 8670   4.138  10.745   3.306 -1.5432 -1.0589 -2.2986
34738SOL    HW2 8671   4.032  10.701   3.405 -0.6119  0.6604 -0.4526
34739SOL     OW 8672   6.055   9.731   6.416 -0.0255  0.3414  0.0568
34739SOL    HW1 8673   6.058   9.671   6.341 -1.2320 -0.4975  0.6470
34739SOL    HW2 8674   6.124   9.698   6.474 -0.9124 -0.7270  0.5348
34740SOL     OW 8675   6.510   4.178   3.234 -0.5314  0.0680 -0.2626
34740SOL    HW1 8676   6.446   4.249   3.228  0.0043  0.8121  1.9403
34740SOL    HW2 8677   6.471   4.114   3.293 -0.4736 -0.9405 -1.2594
34741SOL     OW 8678  10.987   6.614   4.635  0.4429  0.5225  0.1303
34741SOL    HW1 8679  10.932   6.574   4.568  0.5258 -1.6564  1.2772
34741SOL    HW2 8680  11.029   6.688   4.591 -0.6759  0.0927 -1.7552
34742SOL     OW 8681   2.595   1.901   6.873  0.1416  0.3829  0.5605
34742SOL    HW1 8682   2.552   1.826   6.831 -0.3237  0.8254  0.2165
34742SOL    HW2 8683   2.528   1.970   6.871  0.8149  1.0403  0.1616
34743SOL     OW 8684   7.236   3.327   8.114  0.1429 -0.4490 -0.5170
34743SOL    HW1 8685   7.307   3.271   8.083 -1.2226 -1.9659 -1.0991
34743SOL    HW2 8686   7.158   3.291   8.072 -1.0964  0.5914  0.7931
34744SOL     OW 8687  10.051   2.433   3.013 -0.1355 -0.4070 -0.6277
34744SOL    HW1 8688  10.073   2.524   3.034  1.5819 -0.6156 -1.3447
34744SOL    HW2 8689  10.015   2.437   2.924 -0.5743 -0.3612 -0.4471
34745SOL     OW 8690   9.285   2.897   4.523 -0.2728 -0.2379  0.2695
34745SOL    HW1 8691   9.326   2.837   4.460  1.4917  1.0934  0.0701
34745SOL    HW2 8692   9.247   2.966   4.469 -1.4552 -0.6449  0.5491
34746SOL     OW 8693   9.871   3.563   3.587 -0.1484  0.4535 -0.6987
34746SOL    HW1 8694   9.862   3.468   3.593 -2.2792  0.6122 -0.7275
34746SOL    HW2 8695   9.936   3.586   3.653  1.1957 -1.0997 -1.4083
34747SOL     OW 8696   6.942   0.356   7.109 -0.0513  0.2008  0.3167
34747SOL    HW1 8697   6.886   0.415   7.160  0.4539  0.5007  0.5344
34747SOL    HW2 8698   6.986   0.303   7.175  0.5233  0.5161  0.1900
34748SOL     OW 8699   5.286   1.656   5.726  0.7675  0.0391 -0.6353
34748SOL    HW1 8700   5.215   1.668   5.663 -0.3662  3.2266  1.0007
34748SOL    HW2 8701   5.249   1.598   5.793  0.2115  0.5702 -0.4812
34749SOL     OW 8702   4.351   7.517  10.333 -0.4602 -0.1122  0.1499
34749SOL    HW1 8703   4.387   7.459  10.266 -2.0783 -0.2080 -0.6920
34749SOL    HW2 8704   4.425   7.570  10.362  0.7715 -1.6877 -0.0080
34750SOL     OW 8705   9.919   0.616   4.973  0.1742  0.5461  0.4168
34750SOL    HW1 8706   9.971   0.598   5.051  0.8676  0.5001 -0.0456
34750SOL    HW2 8707   9.952   0.555   4.907 -1.9347 -1.0150  0.7017
34751SOL     OW 8708   1.176   5.937   6.509  0.4071  0.0451  0.4195
34751SOL    HW1 8709   1.196   5.870   6.574  1.1968 -0.2020 -0.0564
34751SOL    HW2 8710   1.249   5.932   6.447  0.2825  1.0955  0.1760
34752SOL     OW 8711   6.803   2.546   3.473  0.0831 -0.3521  0.0173
34752SOL    HW1 8712   6.809   2.616   3.538 -0.6981 -0.1294 -0.1452
34752SOL    HW2 8713   6.871   2.568   3.409  0.1825 -0.0238  0.2303
34753SOL     OW 8714   2.240   3.009   7.590  0.3612 -0.2950 -0.2447
34753SOL    HW1 8715   2.165   2.965   7.550 -0.9044  0.2014  1.4584
34753SOL    HW2 8716   2.222   3.103   7.578  0.9319 -0.1723 -0.1771
34754SOL     OW 8717   8.554   4.170   3.689 -0.4349 -0.3753  0.5704
34754SOL    HW1 8718   8.531   4.082   3.715  1.5807 -1.1769 -0.0925
34754SOL    HW2 8719   8.519   4.179   3.600 -0.8451 -0.4069  0.7274
34755SOL     OW 8720  10.936   7.180   6.141  0.5274  0.5955 -0.8118
34755SOL    HW1 8721  10.931   7.088   6.166 -0.1953  1.0151  0.7211
34755SOL    HW2 8722  10.881   7.225   6.205  0.7606  2.0819 -1.6162
34756SOL     OW 8723   0.917   4.628   2.863 -0.3039 -0.2386 -0.0009
34756SOL    HW1 8724   0.976   4.554   2.852 -1.0007 -0.7019 -0.7426
34756SOL    HW2 8725   0.852   4.599   2.926 -1.2986 -0.7417 -1.2131
34757SOL     OW 8726   7.675   9.689   6.552 -0.2801  0.1410  0.0211
34757SOL    HW1 8727   7.589   9.647   6.554 -0.3730  0.3603  0.7189
34757SOL    HW2 8728   7.737   9.619   6.573 -0.3713  0.1869  0.4476
34758SOL     OW 8729  10.198   9.222   5.143  0.3960 -0.6814  0.6112
34758SOL    HW1 8730  10.126   9.165   5.169 -0.4935  0.3939  0.5678
34758SOL    HW2 8731  10.211   9.281   5.217  0.2453  0.0740  0.0486
34759SOL     OW 8732   4.574   0.060   1.296 -0.2954 -0.3330  0.1185
34759SOL    HW1 8733   4.630   0.050   1.373 -1.0326  2.2149  1.0782
34759SOL    HW2 8734   4.603   0.141   1.256 -1.0284 -0.7843 -1.3825
34760SOL     OW 8735   8.792   2.770  10.585  0.1747 -0.2724  0.2872
34760SOL    HW1 8736   8.841   2.844  10.620  0.8261 -1.6904  2.5525
34760SOL    HW2 8737   8.851   2.731  10.520  1.7493 -1.3797  2.2893
34761SOL     OW 8738   6.190   9.265   6.061  0.6736 -0.2929  0.7783
34761SOL    HW1 8739   6.135   9.339   6.037  0.2618 -1.0831 -0.9142
34761SOL    HW2 8740   6.129   9.195   6.082  1.0509 -0.4256  1.4482
34762SOL     OW 8741  10.199   9.383  10.460  0.1943 -0.0656 -0.4490
34762SOL    HW1 8742  10.227   9.292  10.470  0.1532 -0.0512 -0.2145
34762SOL    HW2 8743  10.184   9.393  10.366 -0.7294 -0.5745 -0.3637
34763SOL     OW 8744   1.101   0.901   2.977  0.1856  0.1862  0.5238
34763SOL    HW1 8745   1.112   0.819   3.025  2.6449  0.6111  0.7967
34763SOL    HW2 8746   1.097   0.968   3.046 -2.4933  0.3431  0.3463
34764SOL     OW 8747   0.751   3.234   7.338 -0.3466 -0.1356 -0.6274
34764SOL    HW1 8748   0.840   3.261   7.316  0.0729 -1.0959 -0.1325
34764SOL    HW2 8749   0.716   3.307   7.390  0.4137 -0.0932 -0.1688
34765SOL     OW 8750   6.654   0.466   9.426  0.4189  0.1658  0.4497
34765SOL    HW1 8751   6.689   0.377   9.433  3.6314  1.0116 -2.1006
34765SOL    HW2 8752   6.640   0.479   9.332  0.5053  2.4850  0.7023
34766SOL     OW 8753   0.334   5.122   6.349 -0.0534 -0.1637  1.0705
34766SOL    HW1 8754   0.345   5.028   6.338  0.0260 -0.2133  1.5450
34766SOL    HW2 8755   0.245   5.132   6.383 -0.1898 -0.0385  0.6828
34767SOL     OW 8756   7.880   3.674   8.581 -0.5905 -0.0288 -0.5260
34767SOL    HW1 8757   7.920   3.750   8.624  0.9110 -0.7830 -0.5390
34767SOL    HW2 8758   7.869   3.702   8.490 -0.7929  0.4535 -0.3567
34768SOL     OW 8759   2.590   4.398   9.084 -0.2572  0.2744 -0.0642
34768SOL    HW1 8760   2.607   4.395   9.178 -2.1510 -2.1258  0.2829
34768SOL    HW2 8761   2.504   4.440   9.077 -0.5335 -0.3685 -0.6372
34769SOL     OW 8762   6.767   8.265   2.837 -0.0672 -0.5581 -0.6438
34769SOL    HW1 8763   6.731   8.338   2.885 -2.3844 -3.2640  2.1400
34769SOL    HW2 8764   6.818   8.216   2.901  1.3052 -1.5353 -2.3631
34770SOL     OW 8765   4.565   9.815   4.226  0.9881 -0.2012 -0.8335
34770SOL    HW1 8766   4.473   9.807   4.202  0.5642 -0.0441  0.6397
34770SOL    HW2 8767   4.587   9.731   4.266  1.1990  0.1137 -0.2815
34771SOL     OW 8768   1.841   2.345   4.552  0.5042 -0.3460 -0.8220
34771SOL    HW1 8769   1.801   2.279   4.496  1.4843 -1.1401 -0.6238
34771SOL    HW2 8770   1.904   2.389   4.495  1.4307 -1.0875 -0.3939
34772SOL     OW 8771   1.884   4.960   3.368  0.3967 -0.7351 -0.1556
34772SOL    HW1 8772   1.947   5.024   3.333  0.6436  0.6092  2.5026
34772SOL    HW2 8773   1.799   4.999   3.352  0.5976  1.4776  3.3160
34773SOL     OW 8774  10.454  10.521   8.517  0.6246  0.0691  0.3707
34773SOL    HW1 8775  10.466  10.586   8.586 -0.3182  0.2658  0.3561
34773SOL    HW2 8776  10.541  10.511   8.478  1.1206  0.1253  1.4280
34774SOL     OW 8777   3.967   9.207   1.653  0.0746  0.0603 -0.4005
34774SOL    HW1 8778   4.024   9.138   1.687 -0.1543  0.2820  0.4463
34774SOL    HW2 8779   3.879   9.179   1.675 -0.1092  0.0539 -1.1092
34775SOL     OW 8780   6.220   2.943   7.426 -0.1194 -1.5474 -0.2021
34775SOL    HW1 8781   6.252   3.030   7.403 -0.8429 -1.6289 -1.6464
34775SOL    HW2 8782   6.159   2.958   7.499 -3.2533 -0.2170 -2.8137
34776SOL     OW 8783   6.338   2.715   8.860 -0.4437 -0.4726 -0.3029
34776SOL    HW1 8784   6.349   2.676   8.947 -2.1523 -2.4819 -0.9223
34776SOL    HW2 8785   6.315   2.806   8.878  2.6827  0.1626  1.2280
34777SOL     OW 8786   0.652   7.549   0.558 -0.3936  0.4501 -0.0838
34777SOL    HW1 8787   0.690   7.635   0.573 -0.2671  0.4593 -0.4322
34777SOL    HW2 8788   0.580   7.543   0.619  0.4921  0.2242  0.9687
34778SOL     OW 8789   3.656   1.843   5.773 -0.1853  0.2553  0.1670
34778SOL    HW1 8790   3.575   1.791   5.768 -0.2378  0.3735 -0.1887
34778SOL    HW2 8791   3.710   1.811   5.701  0.4946 -0.5018  0.9734
34779SOL     OW 8792   5.621   9.037   1.964 -0.0483  0.0623 -0.0655
34779SOL    HW1 8793   5.619   8.948   1.999 -0.6730  0.6638  1.5178
34779SOL    HW2 8794   5.712   9.065   1.975  0.3391 -0.6334 -1.3126
34780SOL     OW 8795   9.306  10.167   4.098 -0.1132  0.8580 -0.0692
34780SOL    HW1 8796   9.304  10.085   4.049  0.3393  1.1079 -0.5016
34780SOL    HW2 8797   9.388  10.209   4.074  0.1393  0.9637  0.9348
34781SOL     OW 8798   9.862   9.794   8.511  0.1313  0.1184 -0.9020
34781SOL    HW1 8799   9.796   9.862   8.498  0.8204  0.7833 -1.0163
34781SOL    HW2 8800   9.819   9.713   8.483 -0.6672  0.5212 -0.8630
34782SOL     OW 8801   8.836   7.649   5.528 -0.2666 -0.7584 -0.4080
34782SOL    HW1 8802   8.879   7.611   5.606  0.0654 -2.0226 -1.1705
34782SOL    HW2 8803   8.744   7.655   5.552 -0.0550 -0.4330  0.3473
34783SOL     OW 8804   0.492  11.029  10.427 -0.4339 -0.3773 -0.3453
34783SOL    HW1 8805   0.444  11.111  10.440 -0.1432 -0.3711  0.7924
34783SOL    HW2 8806   0.506  11.024  10.332  0.1951  1.2661 -0.3681
34784SOL     OW 8807   9.128   5.330   4.660  0.0749 -0.3547  0.0413
34784SOL    HW1 8808   9.034   5.312   4.653  0.3563 -1.7739 -0.5526
34784SOL    HW2 8809   9.169   5.243   4.655  1.4601  0.3027 -0.4955
34785SOL     OW 8810   8.677   2.357   2.153 -0.6088  0.4287  0.2965
34785SOL    HW1 8811   8.762   2.388   2.185  1.4720 -3.0475 -1.4108
34785SOL    HW2 8812   8.670   2.392   2.064 -0.5024 -0.0738  0.0889
34786SOL     OW 8813   7.518   5.004   2.713  0.1385  0.1381 -0.1618
34786SOL    HW1 8814   7.432   4.996   2.671  0.2793  0.7890 -0.5890
34786SOL    HW2 8815   7.566   5.067   2.659  2.0003 -2.4664 -1.7845
34787SOL     OW 8816   5.939   5.408   1.760 -0.3732 -0.1298 -0.5576
34787SOL    HW1 8817   5.865   5.347   1.768 -0.5102 -0.1575 -1.8628
34787SOL    HW2 8818   6.001   5.362   1.704 -0.3162  0.7869 -1.2524
34788SOL     OW 8819   2.714   3.255   0.409 -0.3576  0.4322 -0.0186
34788SOL    HW1 8820   2.802   3.224   0.390 -1.0481 -1.8131  0.1591
34788SOL    HW2 8821   2.685   3.201   0.483 -1.9040  1.0987 -0.0960
34789SOL     OW 8822   3.691   6.551   2.477  0.0215 -0.0147  0.0716
34789SOL    HW1 8823   3.691   6.546   2.573  0.0904  2.0189  0.2208
34789SOL    HW2 8824   3.598   6.558   2.454 -0.0001 -0.5839 -0.0335
34790SOL     OW 8825   2.948   4.712   4.467 -0.1195 -0.4407  0.1710
34790SOL    HW1 8826   3.042   4.730   4.463  0.4672 -2.6372  1.9388
34790SOL    HW2 8827   2.940   4.621   4.437 -1.5212 -0.6416  1.0651
34791SOL     OW 8828   0.463   3.628   4.415 -0.1190 -0.1631 -0.6023
34791SOL    HW1 8829   0.398   3.697   4.429  0.0910 -0.3882  1.9643
34791SOL    HW2 8830   0.413   3.554   4.381 -0.8910  0.2840 -0.4592
34792SOL     OW 8831   3.096   3.279   6.925  0.3791 -0.0702  0.1035
34792SOL    HW1 8832   3.133   3.315   7.005 -1.0561  4.1024 -0.8553
34792SOL    HW2 8833   3.170   3.273   6.864  1.2165 -1.9592  1.2219
34793SOL     OW 8834   6.140   0.122   8.568 -0.1501 -0.3537 -0.2335
34793SOL    HW1 8835   6.224   0.080   8.584  0.6038  1.1712 -0.0335
34793SOL    HW2 8836   6.078   0.074   8.623  0.8302 -0.6961  0.6023
34794SOL     OW 8837   7.881   3.778   7.645 -0.1225  0.4374 -0.1489
34794SOL    HW1 8838   7.890   3.744   7.556  2.0274  1.1838 -0.2721
34794SOL    HW2 8839   7.865   3.871   7.634  1.1147  0.7076  0.2366
34795SOL     OW 8840   2.206   8.404   4.861  0.4769 -0.4012 -0.5639
34795SOL    HW1 8841   2.285   8.356   4.839  1.1202 -1.6381  3.6439
34795SOL    HW2 8842   2.138   8.336   4.869 -0.6241  0.4287 -2.2592
34796SOL     OW 8843   5.851   8.254   4.571 -0.2293  0.5849 -0.6992
34796SOL    HW1 8844   5.921   8.196   4.541 -0.4620  0.6025 -1.2985
34796SOL    HW2 8845   5.796   8.268   4.493 -1.1621  0.2021 -0.1353
34797SOL     OW 8846   4.167   0.113   0.110 -0.4847  0.0167 -0.1292
34797SOL    HW1 8847   4.122   0.197   0.115 -1.4268 -0.5208  1.0937
34797SOL    HW2 8848   4.137   0.074   0.028  0.6284  1.2063 -1.1426
34798SOL     OW 8849  10.871   9.301   3.343  0.0169 -0.5001 -0.0199
34798SOL    HW1 8850  10.787   9.274   3.304 -0.1352  0.2485 -0.2256
34798SOL    HW2 8851  10.925   9.326   3.268  0.4330 -0.9924  0.1130
34799SOL     OW 8852   0.410   4.860   4.062  0.2338  0.3001 -0.5003
34799SOL    HW1 8853   0.320   4.831   4.052  0.0488  0.2420  1.0643
34799SOL    HW2 8854   0.405   4.934   4.123  1.3373 -0.4714  0.5838
34800SOL     OW 8855   3.675   3.852   1.010  0.0189 -0.3648  0.2063
34800SOL    HW1 8856   3.733   3.909   0.959  0.8285 -1.8858 -0.6549
34800SOL    HW2 8857   3.734   3.809   1.073 -0.4280 -0.8268  0.3170
34801SOL     OW 8858   9.743   1.333   4.953 -0.1085 -0.2354  0.5202
34801SOL    HW1 8859   9.726   1.259   4.895 -1.1485  0.4670 -0.0866
34801SOL    HW2 8860   9.657   1.368   4.973  0.2523 -0.2683  2.2597
34802SOL     OW 8861   6.567   1.129   2.221  0.0438 -0.2609 -0.0939
34802SOL    HW1 8862   6.508   1.191   2.176 -1.4831 -1.1621  0.6109
34802SOL    HW2 8863   6.631   1.106   2.154 -0.4989  0.6222 -0.9560
34803SOL     OW 8864   4.822   2.345   7.605  0.5727  0.1378 -0.0703
34803SOL    HW1 8865   4.901   2.291   7.597  0.9802  0.6208  0.5669
34803SOL    HW2 8866   4.826   2.380   7.694 -0.9464 -0.7167  0.3787
34804SOL     OW 8867   0.068   5.447   3.369 -0.6326  0.3381 -0.3445
34804SOL    HW1 8868   0.135   5.507   3.336  0.3577 -0.1943  0.6403
34804SOL    HW2 8869   0.004   5.504   3.411  1.1163  0.6957  2.0549
34805SOL     OW 8870   8.549   4.243   7.223  0.2821  0.2418  0.0786
34805SOL    HW1 8871   8.504   4.162   7.199  2.3740  0.1490 -4.6670
34805SOL    HW2 8872   8.630   4.214   7.264  0.7737 -0.1131 -1.1045
34806SOL     OW 8873  10.962   3.848  10.199  0.0370  0.1565  0.2099
34806SOL    HW1 8874  10.998   3.826  10.285 -2.0045 -0.1075  1.0309
34806SOL    HW2 8875  11.005   3.786  10.139 -1.4696 -2.4319  1.6549
34807SOL     OW 8876   0.456   6.167   0.268 -0.2637  0.0103 -0.4102
34807SOL    HW1 8877   0.435   6.123   0.185  1.0233  0.1821 -0.8429
34807SOL    HW2 8878   0.415   6.253   0.260 -0.7552 -0.2329 -0.5638
34808SOL     OW 8879   2.808   8.216   0.427  0.9034  0.5248 -0.2394
34808SOL    HW1 8880   2.822   8.141   0.485  0.0498  0.3958 -0.1773
34808SOL    HW2 8881   2.721   8.201   0.390  1.5795  0.4121 -1.8578
34809SOL     OW 8882   0.798   7.953   9.523  0.3705 -0.3794  0.2861
34809SOL    HW1 8883   0.803   8.041   9.560  1.9850 -0.2481 -0.1459
34809SOL    HW2 8884   0.738   7.961   9.449  0.4674  0.3509  0.2835
34810SOL     OW 8885   9.741  10.201   5.385 -0.1933  0.2756 -0.7219
34810SOL    HW1 8886   9.755  10.286   5.426 -3.0930  1.0576 -1.0821
34810SOL    HW2 8887   9.815  10.147   5.413 -0.7603  1.4067  3.6699
34811SOL     OW 8888   5.978   0.038   8.287 -0.1109  0.1995 -0.7028
34811SOL    HW1 8889   6.045   0.092   8.329  0.6005 -0.8946 -0.3773
34811SOL    HW2 8890   5.931   0.098   8.230  2.8507  0.5584 -3.0094
34812SOL     OW 8891  10.864   2.652   6.117 -0.3338 -0.1430 -0.4694
34812SOL    HW1 8892  10.908   2.579   6.160 -1.0556 -0.0561  0.4712
34812SOL    HW2 8893  10.771   2.641   6.141 -0.5395  0.7256 -0.8234
34813SOL     OW 8894   4.758   9.902   3.844 -0.0503  0.3133 -0.0745
34813SOL    HW1 8895   4.727   9.993   3.841  2.6266  1.2957 -0.8442
34813SOL    HW2 8896   4.729   9.864   3.761 -0.7161  0.6287  0.0060
34814SOL     OW 8897   8.043   9.703   1.683  0.3330 -0.3075  0.7790
34814SOL    HW1 8898   7.956   9.742   1.694  0.6566  0.2663  1.4478
34814SOL    HW2 8899   8.084   9.713   1.769  0.7631 -1.3228  0.7032
34815SOL     OW 8900   1.438   4.251   6.751 -0.2659 -0.3709 -0.5353
34815SOL    HW1 8901   1.464   4.175   6.699  0.8103 -0.3985  0.0003
34815SOL    HW2 8902   1.411   4.317   6.688 -0.6144 -0.9893 -1.0345
34816SOL     OW 8903   7.109   8.917   4.651  0.3386 -0.3298 -0.1197
34816SOL    HW1 8904   7.080   8.837   4.694  1.5564 -1.1887 -0.8346
34816SOL    HW2 8905   7.058   8.987   4.692  0.3686 -1.2850  1.5955
34817SOL     OW 8906   3.012   7.623   3.601  0.2845 -0.4017  0.0665
34817SOL    HW1 8907   3.094   7.575   3.588  0.2808 -0.1296 -1.1647
34817SOL    HW2 8908   2.965   7.610   3.518  0.3560  1.8307 -0.3818
34818SOL     OW 8909   1.491  10.905  10.610  0.0934  0.3535 -0.1032
34818SOL    HW1 8910   1.433  10.937  10.542 -0.7023 -0.9228 -0.0536
34818SOL    HW2 8911   1.495  10.810  10.596  1.9836  0.3597  0.0341
34819SOL     OW 8912   7.762   7.535   7.100  0.1297  0.2124  0.1887
34819SOL    HW1 8913   7.697   7.503   7.162 -2.0856  1.3272 -1.3892
34819SOL    HW2 8914   7.815   7.598   7.149 -1.5460  1.0437  1.0114
34820SOL     OW 8915   5.979   1.529   1.163  0.3140  0.3620 -0.2508
34820SOL    HW1 8916   5.911   1.564   1.220  0.1367  1.0731 -0.8724
34820SOL    HW2 8917   6.001   1.602   1.105 -0.5359 -0.7283 -2.0307
34821SOL     OW 8918   8.223   7.777  10.175 -0.6294  0.5657  0.3520
34821SOL    HW1 8919   8.208   7.813  10.088 -0.2100  2.2203  0.9239
34821SOL    HW2 8920   8.292   7.832  10.212 -1.0143  0.1005  1.8338
34822SOL     OW 8921   0.508   8.444   5.939  0.2512 -0.0230  0.4505
34822SOL    HW1 8922   0.419   8.479   5.936  0.4553  0.4982  0.4036
34822SOL    HW2 8923   0.498   8.352   5.914 -0.1704  0.2410 -0.4266
34823SOL     OW 8924   3.239   4.219   7.547 -0.3800 -0.4585 -0.6116
34823SOL    HW1 8925   3.312   4.275   7.573 -0.3073 -1.4328  1.4565
34823SOL    HW2 8926   3.280   4.141   7.509 -0.2651 -1.3034  1.1622
34824SOL     OW 8927   2.995   9.129   3.553  0.2624  0.1333  0.1480
34824SOL    HW1 8928   3.051   9.206   3.561 -0.8559  1.0598 -0.6364
34824SOL    HW2 8929   3.056   9.056   3.546  1.3443  0.8962  1.1786
34825SOL     OW 8930   5.872   8.890   5.123 -0.3922 -0.5712 -0.8611
34825SOL    HW1 8931   5.779   8.913   5.128 -0.7567 -1.7444 -1.7948
34825SOL    HW2 8932   5.873   8.803   5.084  1.1848  0.3054 -2.9964
34826SOL     OW 8933   7.448   9.731   2.859 -0.0521  0.1649  0.0093
34826SOL    HW1 8934   7.488   9.797   2.802  0.1914 -0.5035 -0.6116
34826SOL    HW2 8935   7.452   9.650   2.808  0.8014 -0.6003  1.2334
34827SOL     OW 8936   9.291   5.595   6.612 -0.3054  0.2833  0.1532
34827SOL    HW1 8937   9.264   5.506   6.636  1.2954 -0.4641 -0.6461
34827SOL    HW2 8938   9.224   5.623   6.549 -1.2485 -0.0357  0.9793
34828SOL     OW 8939   3.551   1.603   0.717 -0.6496  0.6261  0.7229
34828SOL    HW1 8940   3.616   1.549   0.671  0.6449  1.1179  1.8934
34828SOL    HW2 8941   3.600   1.680   0.746 -1.7227  0.9523  1.7622
34829SOL     OW 8942   2.008   5.825   4.579  0.4662 -0.3046 -0.4538
34829SOL    HW1 8943   1.961   5.867   4.506 -0.3545 -0.8209 -0.2460
34829SOL    HW2 8944   1.945   5.827   4.651  0.0706 -2.5305 -0.6479
34830SOL     OW 8945   0.403   3.541   3.066  0.2839 -0.2280  0.1548
34830SOL    HW1 8946   0.374   3.622   3.024  0.6744  0.1566  0.6125
34830SOL    HW2 8947   0.494   3.558   3.092  0.7067 -1.1629 -0.6231
34831SOL     OW 8948   6.646   2.854   2.346 -0.3242  0.4467 -0.3881
34831SOL    HW1 8949   6.602   2.915   2.404 -0.3506  0.1992 -0.1470
34831SOL    HW2 8950   6.583   2.837   2.276  0.0632  1.4963 -1.0208
34832SOL     OW 8951   9.529   0.537  10.534 -0.0337  0.1639  0.3988
34832SOL    HW1 8952   9.450   0.550  10.586 -0.9286  1.7565 -1.2752
34832SOL    HW2 8953   9.596   0.512  10.598 -1.3164  1.1013  2.1783
34833SOL     OW 8954   5.793   4.687   2.985 -0.0349 -0.3376  0.4208
34833SOL    HW1 8955   5.736   4.695   2.910 -0.5276  0.9940  0.9008
34833SOL    HW2 8956   5.783   4.770   3.032  1.7204 -0.3508  0.9186
34834SOL     OW 8957   2.294   7.025   4.463 -0.1421  0.1416  0.5680
34834SOL    HW1 8958   2.258   7.109   4.493  0.0976  0.0467  1.1217
34834SOL    HW2 8959   2.384   7.025   4.494  0.0095 -0.1086  0.1359
34835SOL     OW 8960   8.903   1.297   5.357 -0.0996 -0.1668  0.1132
34835SOL    HW1 8961   8.832   1.233   5.366 -2.5426  2.4060  0.6382
34835SOL    HW2 8962   8.881   1.347   5.278  1.0526  0.8048  0.3644
34836SOL     OW 8963   0.228   5.800   7.283  0.3569  0.3167 -0.2245
34836SOL    HW1 8964   0.184   5.736   7.228 -0.0153  0.0863  0.3281
34836SOL    HW2 8965   0.310   5.759   7.308 -0.7089 -0.8000  1.7179
34837SOL     OW 8966   7.456   2.052   4.218 -0.0919  0.1797 -0.5283
34837SOL    HW1 8967   7.549   2.032   4.229  0.0471  0.4287 -1.1855
34837SOL    HW2 8968   7.444   2.059   4.123 -0.6920  0.5660 -0.4304
34838SOL     OW 8969   0.617   0.337   7.479  1.1054 -0.1733  0.0923
34838SOL    HW1 8970   0.562   0.396   7.531  0.5822  0.1798 -0.8528
34838SOL    HW2 8971   0.707   0.366   7.497  0.8055  2.4109 -2.0803
34839SOL     OW 8972   0.261   3.861   1.900 -0.2758 -0.1808 -0.1856
34839SOL    HW1 8973   0.356   3.853   1.907 -0.2415  0.2066 -0.1464
34839SOL    HW2 8974   0.241   3.830   1.811 -0.0162  0.4597 -0.4793
34840SOL     OW 8975   4.976   6.861   4.440 -0.1548 -0.4706  0.0578
34840SOL    HW1 8976   5.051   6.914   4.412 -0.0609 -0.0942  1.0032
34840SOL    HW2 8977   4.909   6.925   4.464 -0.4778 -0.7956  0.0292
34841SOL     OW 8978   3.698   8.487   3.960 -0.2814 -0.1123  0.2902
34841SOL    HW1 8979   3.628   8.422   3.950  0.0098 -0.4766  0.5822
34841SOL    HW2 8980   3.730   8.501   3.871 -2.3544  1.9171 -0.2174
34842SOL     OW 8981  10.362   0.742   6.078 -0.2230  0.2198  0.3191
34842SOL    HW1 8982  10.270   0.737   6.107 -0.1182  1.1778  0.8615
34842SOL    HW2 8983  10.407   0.677   6.132 -0.2117  1.2950  1.6540
34843SOL     OW 8984   2.686   3.445   9.654 -0.4343  0.4474  0.0348
34843SOL    HW1 8985   2.624   3.390   9.605 -0.8800 -0.3996  1.5115
34843SOL    HW2 8986   2.645   3.457   9.740  0.1125  2.3014  0.0837
34844SOL     OW 8987   8.871   0.594   7.635 -0.6051  0.5390 -0.0549
34844SOL    HW1 8988   8.927   0.613   7.711  0.4800 -1.1580 -0.3618
34844SOL    HW2 8989   8.920   0.628   7.560  0.2972 -1.3216 -0.3689
34845SOL     OW 8990   0.851   8.458   4.680  0.4711  0.2308  0.2102
34845SOL    HW1 8991   0.790   8.505   4.736 -0.8825 -1.2096  0.0009
34845SOL    HW2 8992   0.810   8.459   4.593  1.9132  1.3034 -0.5195
34846SOL     OW 8993  10.960   4.958   9.172 -0.2011  0.0264 -0.2775
34846SOL    HW1 8994  11.004   4.920   9.249 -1.3196  0.4144  0.5828
34846SOL    HW2 8995  10.887   4.898   9.155  0.9049 -0.9013 -2.0128
34847SOL     OW 8996  10.919  10.257   1.697  0.5088 -0.4325 -0.4477
34847SOL    HW1 8997  10.885  10.305   1.622 -0.4998  0.4776  0.5514
34847SOL    HW2 8998  10.989  10.313   1.731  0.7684 -0.7041 -0.5296
34848SOL     OW 8999  10.467   4.003   1.643 -0.1576  0.9275 -0.2377
34848SOL    HW1 9000  10.444   3.978   1.733  0.6142  0.5035 -0.1542
34848SOL    HW2 9001  10.436   3.930   1.589  0.4740  0.6083 -0.1807
34849SOL     OW 9002   4.453   1.938   1.835  0.5489 -0.3666 -0.2222
34849SOL    HW1 9003   4.445   1.905   1.924  0.8392  2.2954  0.8733
34849SOL    HW2 9004   4.362   1.950   1.805  0.3902  1.3559  0.8229
34850SOL     OW 9005  10.662   4.964  10.040  0.3935  0.4732 -0.0123
34850SOL    HW1 9006  10.709   5.026  10.095  0.9668  0.0938 -0.0630
34850SOL    HW2 9007  10.572   4.997  10.037  0.8500  1.7340 -0.6750
34851SOL     OW 9008   9.129   5.333  10.250 -0.0630 -0.3025  0.0487
34851SOL    HW1 9009   9.106   5.325  10.342 -1.3109  0.1655 -0.2070
34851SOL    HW2 9010   9.108   5.424  10.228 -0.3032 -0.5597 -0.8343
34852SOL     OW 9011   9.350   1.112   7.476  0.3271 -0.0625  0.6030
34852SOL    HW1 9012   9.391   1.187   7.433 -1.3725 -0.5911 -2.1789
34852SOL    HW2 9013   9.380   1.036   7.426 -1.5395 -0.7485  0.4494
34853SOL     OW 9014  11.043  10.737   9.224 -0.0420  0.1658  0.2440
34853SOL    HW1 9015  10.980  10.782   9.168 -0.0679 -1.1659 -0.8558
34853SOL    HW2 9016  11.056  10.796   9.298 -0.4906  1.7157 -0.8532
34854SOL     OW 9017   9.484   8.521   5.927  0.2090  0.4989  0.1230
34854SOL    HW1 9018   9.426   8.472   5.870  0.0568  0.2903  0.4508
34854SOL    HW2 9019   9.535   8.454   5.973 -0.7770  0.5656  1.3986
34855SOL     OW 9020   3.139   2.221   8.003 -0.8344 -0.8031  0.1609
34855SOL    HW1 9021   3.147   2.139   7.956 -2.3502 -0.4363 -0.7979
34855SOL    HW2 9022   3.060   2.211   8.057 -2.1538  0.6181 -1.3674
34856SOL     OW 9023   9.785   2.723   3.082  0.1099  0.5380 -0.0069
34856SOL    HW1 9024   9.790   2.808   3.126 -1.0154 -0.0513  1.3520
34856SOL    HW2 9025   9.777   2.745   2.989  0.6753  1.8868  0.2369
34857SOL     OW 9026   1.637   5.809   1.104  0.5356 -0.0152  0.0055
34857SOL    HW1 9027   1.580   5.734   1.087 -1.7497  2.0645 -2.3935
34857SOL    HW2 9028   1.615   5.835   1.194 -0.3470 -0.8505  0.0480
34858SOL     OW 9029   8.895   9.225   4.905  0.2082 -0.3669  0.2925
34858SOL    HW1 9030   8.878   9.170   4.982 -0.9728  0.2495  0.5038
34858SOL    HW2 9031   8.923   9.164   4.837 -1.0401 -1.2314  0.5228
34859SOL     OW 9032   1.343   7.965   4.302 -0.2392  0.2927  0.0485
34859SOL    HW1 9033   1.325   8.032   4.369  1.4021 -0.7122  1.5980
34859SOL    HW2 9034   1.292   7.889   4.330 -0.4633  0.2307 -0.5195
34860SOL     OW 9035   6.342   9.006   6.223 -0.3888 -0.0956  0.2583
34860SOL    HW1 9036   6.315   8.968   6.139  0.8630 -1.8235  0.5889
34860SOL    HW2 9037   6.437   8.997   6.223 -0.3997 -0.4798  2.0150
34861SOL     OW 9038   9.967   1.377   8.697 -0.1646  0.1713 -0.1954
34861SOL    HW1 9039  10.019   1.457   8.689 -0.4707  0.3553 -0.3436
34861SOL    HW2 9040   9.969   1.339   8.609 -1.4086  0.8832 -0.5583
34862SOL     OW 9041   4.321   0.727   4.070 -0.4256 -0.2408 -0.0281
34862SOL    HW1 9042   4.416   0.722   4.054 -0.4760 -1.9495  0.0456
34862SOL    HW2 9043   4.282   0.716   3.983 -0.5630 -1.0388  0.1269
34863SOL     OW 9044   2.687   7.226   3.088 -0.2238  0.3692  0.2199
34863SOL    HW1 9045   2.596   7.248   3.071  0.4982  3.8129  0.1163
34863SOL    HW2 9046   2.737   7.285   3.031  2.1172 -1.7864 -0.1348
34864SOL     OW 9047   9.947   6.719   9.218 -0.1563 -1.2864 -0.3687
34864SOL    HW1 9048   9.863   6.750   9.252  1.2199  0.4090  1.7813
34864SOL    HW2 9049   9.984   6.794   9.172  0.4595 -1.8123 -0.7428
34865SOL     OW 9050   3.576   8.259   5.818 -0.5578  0.0118  0.2155
34865SOL    HW1 9051   3.508   8.192   5.826 -1.9580  1.4423  0.9716
34865SOL    HW2 9052   3.591   8.290   5.908  0.5314  0.2720 -0.0379
34866SOL     OW 9053   7.049   9.644   7.153  0.0016 -1.0245 -0.4670
34866SOL    HW1 9054   7.110   9.684   7.092  2.4558 -1.3016  1.6058
34866SOL    HW2 9055   7.002   9.718   7.193  2.0061 -0.3508  0.8292
34867SOL     OW 9056   2.272  10.540  10.679 -0.3002  0.5294 -0.0055
34867SOL    HW1 9057   2.241  10.630  10.690 -1.1709  0.2025  0.2472
34867SOL    HW2 9058   2.267  10.525  10.584 -0.0020  0.8008 -0.0649
34868SOL     OW 9059   2.615   3.933   1.466 -0.1988 -0.4128 -0.6748
34868SOL    HW1 9060   2.680   3.869   1.494  0.0750 -0.8637 -2.2257
34868SOL    HW2 9061   2.547   3.881   1.423 -2.2950 -0.0955  1.9927
34869SOL     OW 9062  10.992   4.843   1.685 -0.4624  0.0452 -0.1905
34869SOL    HW1 9063  10.938   4.894   1.746  1.2688  0.0506  1.4616
34869SOL    HW2 9064  10.930   4.786   1.639 -1.7071 -1.8707  3.4584
34870SOL     OW 9065   9.549   6.139  10.160 -0.1702  0.1468 -0.1113
34870SOL    HW1 9066   9.481   6.198  10.127  0.5875  0.4421 -1.1779
34870SOL    HW2 9067   9.552   6.157  10.254 -0.2385  1.5197 -0.3529
34871SOL     OW 9068   8.119   6.610   4.068  0.6348  0.8836 -0.3701
34871SOL    HW1 9069   8.105   6.522   4.105  0.0548  0.7702 -0.8505
34871SOL    HW2 9070   8.201   6.639   4.108 -0.1058  0.8798  1.2383
34872SOL     OW 9071   9.382   4.823   2.911 -0.3057  0.4947  0.9982
34872SOL    HW1 9072   9.384   4.763   2.986 -3.0086 -1.7993 -0.5822
34872SOL    HW2 9073   9.308   4.881   2.930 -1.1844 -0.2812  0.0287
34873SOL     OW 9074   8.511   1.354  10.496  0.1353 -0.5913  0.5350
34873SOL    HW1 9075   8.527   1.373  10.589  0.9314 -1.7662  0.6663
34873SOL    HW2 9076   8.515   1.259  10.491 -2.3122 -0.6994 -0.3066
34874SOL     OW 9077   1.230   6.457   6.303 -0.4579 -0.3630  0.0039
34874SOL    HW1 9078   1.267   6.518   6.366  2.4362 -2.8474  0.9728
34874SOL    HW2 9079   1.291   6.459   6.229 -0.9773 -1.1851 -0.4597
34875SOL     OW 9080  10.654   8.730  10.855 -0.4558 -0.0712  0.1980
34875SOL    HW1 9081  10.718   8.799  10.875  0.7357 -0.9186 -0.5084
34875SOL    HW2 9082  10.634   8.691  10.940 -0.3718  0.5003  0.4849
34876SOL     OW 9083   6.560   9.070   0.758 -0.1463 -0.4016 -0.0646
34876SOL    HW1 9084   6.501   9.127   0.807 -0.0151 -0.0622 -0.2979
34876SOL    HW2 9085   6.503   9.021   0.699 -0.5187 -2.0318  1.5639
34877SOL     OW 9086   1.913   6.170   7.439 -0.4038 -0.1543  0.1439
34877SOL    HW1 9087   1.999   6.182   7.480 -0.2809  0.3640 -0.2529
34877SOL    HW2 9088   1.876   6.093   7.483 -0.2760  0.3776  1.2106
34878SOL     OW 9089   4.828   3.936   7.018  0.4766  0.1064  0.2371
34878SOL    HW1 9090   4.741   3.975   7.007  0.8696  0.9012 -0.1679
34878SOL    HW2 9091   4.881   4.007   7.056  0.8178 -0.5361  0.9854
34879SOL     OW 9092   8.475   1.079   0.876  0.9498 -0.6567  0.3214
34879SOL    HW1 9093   8.404   1.095   0.813  1.8478 -1.2984 -0.8964
34879SOL    HW2 9094   8.432   1.032   0.948 -0.4162  1.5139  1.0007
34880SOL     OW 9095   5.528   4.302   7.953 -0.6325  0.0859 -0.1771
34880SOL    HW1 9096   5.604   4.269   8.001 -0.2089 -0.3064 -1.1016
34880SOL    HW2 9097   5.453   4.271   8.004 -0.1979 -0.4596  0.1498
34881SOL     OW 9098  10.049   9.304   5.840  0.0971  0.2973  0.0938
34881SOL    HW1 9099  10.016   9.301   5.930  1.2636 -0.9637  0.5168
34881SOL    HW2 9100  10.135   9.344   5.848  1.2043 -1.8761 -0.0632
34882SOL     OW 9101   5.662   3.917   0.294 -0.4851  0.3101 -0.5311
34882SOL    HW1 9102   5.723   3.857   0.249  0.8038  1.1560  0.0291
34882SOL    HW2 9103   5.591   3.860   0.324  0.7552 -0.9916  0.0894
34883SOL     OW 9104   6.391   2.815   1.901 -0.3412 -0.0633 -0.3353
34883SOL    HW1 9105   6.398   2.723   1.876 -0.5345 -0.5897  1.4144
34883SOL    HW2 9106   6.409   2.863   1.820 -1.5823 -1.6305 -1.6282
34884SOL     OW 9107   5.099  10.845   5.800  0.4037 -0.0837  0.4534
34884SOL    HW1 9108   5.026  10.858   5.739  0.7390 -0.6187 -0.0727
34884SOL    HW2 9109   5.062  10.795   5.872  0.2023 -0.1672  0.2932
34885SOL     OW 9110   3.954   1.661   8.449 -0.0100 -0.0834 -0.0068
34885SOL    HW1 9111   3.991   1.576   8.424  1.2105  0.4033  0.0450
34885SOL    HW2 9112   4.013   1.725   8.408 -1.6274  0.7596 -1.1207
34886SOL     OW 9113   2.398   9.577   3.210  0.2112  0.0654 -0.0146
34886SOL    HW1 9114   2.477   9.628   3.232  0.7441  0.8236 -3.2406
34886SOL    HW2 9115   2.430   9.488   3.197  0.5421  0.3532 -1.2277
34887SOL     OW 9116  10.511   7.437   7.886  0.6974  0.0246  0.3009
34887SOL    HW1 9117  10.515   7.529   7.859  0.7537  0.3263  1.2913
34887SOL    HW2 9118  10.463   7.439   7.969 -1.4920 -1.1219 -0.8604
34888SOL     OW 9119   0.988   0.118   2.017  0.1790 -0.4012 -0.2837
34888SOL    HW1 9120   1.019   0.078   2.099  0.4040  0.9785  0.3317
34888SOL    HW2 9121   0.963   0.207   2.042  1.6389  0.5569 -1.9738
34889SOL     OW 9122   4.343   8.414  10.435  0.1017  0.0541  0.0606
34889SOL    HW1 9123   4.330   8.390  10.527  1.7371 -1.0795  0.0309
34889SOL    HW2 9124   4.264   8.383  10.391 -0.5594  0.3256  1.0314
34890SOL     OW 9125   8.005   0.012   9.056  0.1696 -0.7120  0.6212
34890SOL    HW1 9126   7.914   0.027   9.031  0.6019 -0.1627 -0.6965
34890SOL    HW2 9127   8.001  -0.061   9.118 -1.3564  0.5343  2.0939
34891SOL     OW 9128   0.680   4.810   8.464  0.1003 -0.0935 -0.2921
34891SOL    HW1 9129   0.769   4.842   8.472  0.1541 -0.0609 -0.9130
34891SOL    HW2 9130   0.681   4.756   8.384  0.1473 -2.0837  0.9752
34892SOL     OW 9131   9.242   2.845   7.692  0.1623  0.1924 -0.3855
34892SOL    HW1 9132   9.266   2.906   7.623 -0.2095  1.2832  0.4252
34892SOL    HW2 9133   9.310   2.856   7.759  0.5380 -0.8742 -0.5714
34893SOL     OW 9134   0.353   7.886   7.722  0.4090  0.0435 -0.1508
34893SOL    HW1 9135   0.354   7.823   7.794 -1.2346  0.8155  0.6008
34893SOL    HW2 9136   0.307   7.841   7.652  0.4902 -0.0963 -0.1158
34894SOL     OW 9137   7.288   5.036   3.776 -0.1040 -0.5042  0.1205
34894SOL    HW1 9138   7.204   5.019   3.733  0.6262  2.1904 -2.7003
34894SOL    HW2 9139   7.273   5.112   3.831  0.4452 -0.0435 -0.3485
34895SOL     OW 9140   7.100   3.364   5.263  0.4933 -0.2065 -0.6389
34895SOL    HW1 9141   7.116   3.376   5.356  2.3898  2.1797 -1.1636
34895SOL    HW2 9142   7.095   3.269   5.251  2.6858 -0.7004  1.5439
34896SOL     OW 9143   4.658   7.102   1.856 -0.0336  0.6007 -0.1284
34896SOL    HW1 9144   4.683   7.172   1.795  1.6846  0.2456  0.1245
34896SOL    HW2 9145   4.658   7.145   1.941 -0.2018  0.5805 -0.1194
34897SOL     OW 9146   7.837   8.514   7.538  0.4070  0.0663  0.3349
34897SOL    HW1 9147   7.903   8.522   7.470 -1.4878 -0.5645 -1.7259
34897SOL    HW2 9148   7.771   8.581   7.516 -0.6351 -0.6830  1.0486
34898SOL     OW 9149   6.381   9.535   1.071 -0.0490  0.4528  0.1395
34898SOL    HW1 9150   6.395   9.522   0.977 -0.1922  1.4430 -0.0234
34898SOL    HW2 9151   6.316   9.605   1.077  1.0641  1.4438  0.9935
34899SOL     OW 9152   3.508   4.393   6.013 -0.3197  0.2741 -0.0719
34899SOL    HW1 9153   3.442   4.420   6.077  0.2236  2.3464 -0.2929
34899SOL    HW2 9154   3.510   4.465   5.949  2.3457  0.4486  0.1017
34900SOL     OW 9155   8.893   4.522   5.045 -0.6771  0.1244 -0.5688
34900SOL    HW1 9156   8.963   4.464   5.015 -1.7378 -1.9490  0.6949
34900SOL    HW2 9157   8.925   4.556   5.129 -0.9075 -0.2773 -0.3190
34901SOL     OW 9158   6.236   1.596   7.278 -0.2038 -0.0992 -0.0041
34901SOL    HW1 9159   6.247   1.567   7.188  2.5952 -0.4939  0.3882
34901SOL    HW2 9160   6.323   1.589   7.317 -1.2852  0.1851  2.7071
34902SOL     OW 9161   8.576   9.770   9.581  0.7003 -0.0663  0.2116
34902SOL    HW1 9162   8.590   9.676   9.567  0.5383  0.0516 -0.8466
34902SOL    HW2 9163   8.482   9.781   9.570  0.5396  0.0351  1.5797
34903SOL     OW 9164   6.875   2.038   4.353 -0.2960 -0.3976  0.5077
34903SOL    HW1 9165   6.834   1.994   4.427 -1.6611  0.2563  0.1597
34903SOL    HW2 9166   6.803   2.080   4.306  0.7450  0.6068 -0.2488
34904SOL     OW 9167   4.119   2.901   3.784  0.0603  0.2470  0.0563
34904SOL    HW1 9168   4.180   2.839   3.746  1.3068  1.0420  0.6910
34904SOL    HW2 9169   4.162   2.932   3.864 -1.2252  0.7454  0.5944
34905SOL     OW 9170  10.025  10.743   7.965 -0.3907 -0.2124  0.0507
34905SOL    HW1 9171   9.975  10.706   8.038 -0.6441 -0.8982 -0.4626
34905SOL    HW2 9172   9.970  10.727   7.888 -0.3831  1.0098 -0.2190
34906SOL     OW 9173   4.379   0.513   2.035 -0.3453 -0.1979  0.0954
34906SOL    HW1 9174   4.381   0.571   2.111 -0.6212 -0.5261  0.3580
34906SOL    HW2 9175   4.291   0.525   1.998  0.1681  0.8149 -0.8506
34907SOL     OW 9176   4.511   0.596   4.453 -0.2844 -0.0994  0.0704
34907SOL    HW1 9177   4.527   0.667   4.389 -0.0762 -1.4611 -1.4538
34907SOL    HW2 9178   4.425   0.561   4.429 -1.1677  0.6968  1.9029
34908SOL     OW 9179   6.539   4.783  10.857  0.6304  0.3410 -0.4162
34908SOL    HW1 9180   6.485   4.738  10.923 -0.2520  1.8787 -0.0468
34908SOL    HW2 9181   6.601   4.835  10.908  0.5831  0.7871 -0.8063
34909SOL     OW 9182  10.235   8.131   4.148 -0.4373 -0.5477  0.1769
34909SOL    HW1 9183  10.163   8.123   4.210 -0.0868  0.1768  0.6886
34909SOL    HW2 9184  10.195   8.166   4.069 -1.4310 -4.0433 -1.0457
34910SOL     OW 9185   0.046   3.546  10.861 -0.0972 -0.2799  0.7073
34910SOL    HW1 9186  -0.044   3.563  10.888 -0.2084  0.0311  0.1536
34910SOL    HW2 9187   0.098   3.561  10.940 -0.4952 -0.1340  0.9456
34911SOL     OW 9188   3.263   7.105   7.326 -0.0883 -0.2032  0.1899
34911SOL    HW1 9189   3.173   7.106   7.359 -1.2071 -0.0838 -2.5792
34911SOL    HW2 9190   3.288   7.197   7.323 -0.8951 -0.0022 -1.4246
34912SOL     OW 9191   7.507   3.282  10.454  0.3142  0.0493  0.1113
34912SOL    HW1 9192   7.473   3.267  10.366  1.0389 -1.0909  0.0101
34912SOL    HW2 9193   7.601   3.292  10.441  0.1608  2.6106  0.4475
34913SOL     OW 9194   9.895   1.140   7.649  0.0068  0.2350 -0.0774
34913SOL    HW1 9195   9.817   1.090   7.673  0.7384 -1.0609 -0.3161
34913SOL    HW2 9196   9.946   1.145   7.729  0.1624  0.1756 -0.1726
34914SOL     OW 9197   2.459  10.615   2.175 -0.1037  0.2294 -0.1023
34914SOL    HW1 9198   2.397  10.656   2.114  1.2584 -0.3882 -2.0126
34914SOL    HW2 9199   2.535  10.672   2.173 -0.7382  1.3028  2.6816
34915SOL     OW 9200   4.408   3.213  10.886 -0.1731 -0.7411  0.1463
34915SOL    HW1 9201   4.336   3.154  10.864 -0.0923 -1.2613  1.2275
34915SOL    HW2 9202   4.473   3.156  10.927  0.0642  0.0359  0.8609
34916SOL     OW 9203   2.787   6.495   2.751  0.3002 -0.0737 -0.1557
34916SOL    HW1 9204   2.757   6.549   2.824 -1.5748 -0.8599 -0.2849
34916SOL    HW2 9205   2.817   6.558   2.685 -1.9978  0.8740 -0.3824
34917SOL     OW 9206   9.874   7.247   2.558 -0.4274 -0.2339 -0.0800
34917SOL    HW1 9207   9.928   7.175   2.589  0.1580  0.5124  0.6818
34917SOL    HW2 9208   9.901   7.259   2.467  0.2865 -0.2487  0.1198
34918SOL     OW 9209   0.682   4.543   9.490 -0.1665  0.2143  0.3968
34918SOL    HW1 9210   0.590   4.519   9.488 -0.2682  0.6167 -0.5976
34918SOL    HW2 9211   0.685   4.630   9.451  0.5651  0.4527  0.9683
34919SOL     OW 9212   3.047   5.205   2.958 -0.6616 -0.2807  0.4425
34919SOL    HW1 9213   3.099   5.268   3.008  1.5683 -1.6934  0.0451
34919SOL    HW2 9214   2.979   5.258   2.917  0.2131  1.6254  1.3042
34920SOL     OW 9215   8.804   2.481   1.456 -0.5016 -0.0922  0.3283
34920SOL    HW1 9216   8.764   2.398   1.432 -1.6136  0.2320  0.9715
34920SOL    HW2 9217   8.867   2.459   1.524 -2.4510 -0.1909  2.2239
34921SOL     OW 9218   3.670   1.002   1.684  0.3765 -0.0908  0.2938
34921SOL    HW1 9219   3.657   0.922   1.633 -1.8416 -0.4208  1.2394
34921SOL    HW2 9220   3.750   1.041   1.649  0.4453 -1.7200 -1.5060
34922SOL     OW 9221   6.338   1.608   0.224  0.8415  0.3055 -0.4823
34922SOL    HW1 9222   6.249   1.632   0.196  1.0643  1.5051 -0.2414
34922SOL    HW2 9223   6.392   1.625   0.147  1.0209  0.6903 -0.2755
34923SOL     OW 9224   1.377   2.637  10.363  0.4643  0.5437 -0.1486
34923SOL    HW1 9225   1.334   2.721  10.346  0.2598  0.5883  0.5691
34923SOL    HW2 9226   1.354   2.583  10.287 -0.4195  0.7374 -0.0275
34924SOL     OW 9227  10.048   2.178   9.046  0.0412  0.1725 -0.0068
34924SOL    HW1 9228  10.019   2.180   8.955 -1.0582 -0.0377  0.3287
34924SOL    HW2 9229  10.137   2.144   9.041  1.2597  3.1407 -1.2874
34925SOL     OW 9230   7.347   8.009   1.760 -0.2626 -0.4875  0.1724
34925SOL    HW1 9231   7.370   8.004   1.853 -0.6676 -1.0035  0.2506
34925SOL    HW2 9232   7.275   8.072   1.757  0.2349  0.0901  0.1053
34926SOL     OW 9233   0.036   9.891   1.979  0.5096 -0.2285  0.6413
34926SOL    HW1 9234   0.035   9.806   2.024 -0.2733 -0.6218 -0.0853
34926SOL    HW2 9235  -0.053   9.925   1.991  0.1944 -0.4774 -0.8389
34927SOL     OW 9236  10.150   6.831  10.183  0.0005 -0.1064  0.1893
34927SOL    HW1 9237  10.235   6.793  10.162 -1.2090 -1.3118 -3.2581
34927SOL    HW2 9238  10.163   6.925  10.176  0.9351 -0.2937 -0.9353
34928SOL     OW 9239   0.423   7.090   7.271 -0.0866  0.0648 -0.1190
34928SOL    HW1 9240   0.371   7.143   7.211  0.1635  0.7720  0.2762
34928SOL    HW2 9241   0.406   7.000   7.244 -0.9931  0.3113 -0.4228
34929SOL     OW 9242   8.481   3.783   2.502  0.6324  0.3767  0.1906
34929SOL    HW1 9243   8.487   3.704   2.448 -1.3657 -0.3845  0.9877
34929SOL    HW2 9244   8.511   3.756   2.588 -1.7081 -0.0547  0.9259
34930SOL     OW 9245   7.273   4.383   4.446  0.1374  0.4023  0.6353
34930SOL    HW1 9246   7.304   4.293   4.447 -0.6570  0.1048 -0.5174
34930SOL    HW2 9247   7.211   4.387   4.518  0.2084  0.0492  0.7189
34931SOL     OW 9248   0.530   1.710   8.835  0.3061 -0.4839 -0.8510
34931SOL    HW1 9249   0.551   1.643   8.770  1.0236  0.2451 -1.3837
34931SOL    HW2 9250   0.561   1.791   8.796  0.3404  0.0264  0.2171
34932SOL     OW 9251  10.743   9.532   0.376  0.1375  0.0537  0.7373
34932SOL    HW1 9252  10.731   9.468   0.446  1.9786 -1.3799 -0.1801
34932SOL    HW2 9253  10.705   9.489   0.299 -1.5446  1.4629  0.7327
34933SOL     OW 9254   5.369   1.549   8.402 -0.1527 -0.0334 -0.6642
34933SOL    HW1 9255   5.351   1.642   8.388  0.4619  0.0278 -1.0705
34933SOL    HW2 9256   5.295   1.519   8.454  0.5029  1.0757  0.9904
34934SOL     OW 9257   0.157   6.023   4.528 -0.1039 -0.0801  0.2975
34934SOL    HW1 9258   0.171   6.071   4.446 -1.7433  1.0175  0.6000
34934SOL    HW2 9259   0.183   6.084   4.596  1.4447 -1.0639  0.6252
34935SOL     OW 9260  10.737  10.179  10.754 -0.1962  0.1661 -0.4212
34935SOL    HW1 9261  10.709  10.170  10.845 -0.1470  0.5688 -0.3661
34935SOL    HW2 9262  10.829  10.154  10.754 -0.5532 -1.2786 -0.6206
34936SOL     OW 9263   8.835  10.846   9.147 -0.1268  0.2066 -0.0086
34936SOL    HW1 9264   8.883  10.917   9.104  1.3844 -0.8141 -0.1165
34936SOL    HW2 9265   8.862  10.767   9.099 -0.7154 -0.6026  0.9469
34937SOL     OW 9266   2.459   8.547   2.666  0.0750 -0.3610  0.4343
34937SOL    HW1 9267   2.484   8.521   2.577 -0.6855  0.3484  0.0075
34937SOL    HW2 9268   2.365   8.566   2.660  0.3893  1.4803  0.9630
34938SOL     OW 9269   9.620   9.192   9.051  0.5032 -0.3623  0.5282
34938SOL    HW1 9270   9.703   9.236   9.033 -0.9592  2.3762 -0.0427
34938SOL    HW2 9271   9.558   9.263   9.066 -1.6171 -2.3257  1.6952
34939SOL     OW 9272   0.433   2.287   8.700  0.4975 -0.3157 -0.3431
34939SOL    HW1 9273   0.392   2.205   8.674 -1.7975  1.0082 -1.2344
34939SOL    HW2 9274   0.440   2.337   8.618  2.0672  0.2903  0.1335
34940SOL     OW 9275  10.978   1.396   6.965  0.0057  0.2741  0.1112
34940SOL    HW1 9276  10.931   1.448   6.899 -2.8816 -1.9301  0.2480
34940SOL    HW2 9277  10.940   1.423   7.048  0.9556  0.3489  0.5320
34941SOL     OW 9278   8.319   6.962   1.410  0.0477 -0.3152  0.0832
34941SOL    HW1 9279   8.287   6.918   1.331 -0.8957  0.6148 -0.0720
34941SOL    HW2 9280   8.240   6.984   1.459  0.5526  0.3061  0.6398
34942SOL     OW 9281  10.943   8.998   0.865 -0.7451  0.3086  0.2174
34942SOL    HW1 9282  10.901   9.064   0.920  1.2148  1.8674 -0.0211
34942SOL    HW2 9283  10.888   8.993   0.787 -0.4718  2.4304 -0.1800
34943SOL     OW 9284   7.995   3.615   2.443  0.3578  0.3055  0.3025
34943SOL    HW1 9285   7.988   3.531   2.397 -0.0672  0.3077  0.3602
34943SOL    HW2 9286   7.909   3.654   2.435  0.6318  0.8705  0.0340
34944SOL     OW 9287   7.265   2.744   6.409  0.0878  0.3369 -0.0280
34944SOL    HW1 9288   7.231   2.812   6.351  2.0158  1.4087  0.0208
34944SOL    HW2 9289   7.358   2.764   6.417  0.4187 -1.4914  1.1432
34945SOL     OW 9290   2.342  10.842   3.399  0.8165 -0.4081  0.0068
34945SOL    HW1 9291   2.305  10.816   3.315 -0.4193  0.9896  0.0753
34945SOL    HW2 9292   2.434  10.815   3.394  0.6367 -0.8449 -1.5724
34946SOL     OW 9293   7.546  10.704   4.980 -0.1674  0.7466  0.6228
34946SOL    HW1 9294   7.489  10.780   4.964 -0.6187  0.1106 -1.0375
34946SOL    HW2 9295   7.512  10.636   4.921  1.1444 -0.2709  0.9892
34947SOL     OW 9296   3.997   2.544   6.702 -0.6263 -0.0552 -0.1040
34947SOL    HW1 9297   3.937   2.515   6.772 -2.6112  0.7522 -1.3764
34947SOL    HW2 9298   3.999   2.471   6.641 -1.0717  0.2687 -0.5139
34948SOL     OW 9299   9.377   9.985   7.103 -0.2646 -0.2196 -0.4367
34948SOL    HW1 9300   9.362   9.909   7.160 -0.8738  0.4832  0.3659
34948SOL    HW2 9301   9.441   9.955   7.039  1.3852 -0.6603  1.3484
34949SOL     OW 9302   7.161   5.647   2.143  0.0279 -0.3184  0.0443
34949SOL    HW1 9303   7.154   5.613   2.232  1.7145 -0.2245  0.2473
34949SOL    HW2 9304   7.087   5.608   2.097 -1.2513  0.1337  1.6200
34950SOL     OW 9305   9.971   6.595   4.061  0.4927 -0.0068  0.2376
34950SOL    HW1 9306  10.038   6.547   4.013  1.3618  2.5360 -1.2769
34950SOL    HW2 9307   9.898   6.604   4.000 -0.5204 -1.0994  1.2222
34951SOL     OW 9308   4.212   9.581   2.429  0.3676 -0.3200 -0.0453
34951SOL    HW1 9309   4.173   9.493   2.426  0.7662 -0.4980 -0.1805
34951SOL    HW2 9310   4.295   9.571   2.383  1.0322 -0.1957  1.0738
34952SOL     OW 9311   8.994   3.796  10.037 -0.0259 -0.1100 -0.4088
34952SOL    HW1 9312   9.039   3.835   9.963  0.9687  1.8064  1.1091
34952SOL    HW2 9313   8.960   3.870  10.087 -1.3700 -1.3640  0.6338
34953SOL     OW 9314   7.634   7.152   5.999 -0.4360  0.0981 -0.0741
34953SOL    HW1 9315   7.575   7.171   5.926 -0.5631  2.3405  0.5338
34953SOL    HW2 9316   7.712   7.205   5.982  0.4160 -0.9677  0.3767
34954SOL     OW 9317   0.318   4.307   7.861  0.8458  0.7347  0.1633
34954SOL    HW1 9318   0.411   4.315   7.838  0.6822 -0.4919 -1.0290
34954SOL    HW2 9319   0.276   4.280   7.779 -0.7598  2.4224  0.3810
34955SOL     OW 9320   8.447   6.164   6.650  0.5845 -0.1302 -0.3032
34955SOL    HW1 9321   8.518   6.173   6.713 -0.3471 -2.3887  1.1763
34955SOL    HW2 9322   8.481   6.103   6.584  0.0326 -1.3013  0.4659
34956SOL     OW 9323   2.543   0.473   8.324  0.2183  0.0630 -0.2693
34956SOL    HW1 9324   2.613   0.521   8.368  1.4082 -1.1379 -0.7978
34956SOL    HW2 9325   2.493   0.433   8.396  1.4532 -0.9400  0.0729
34957SOL     OW 9326   7.670  10.942   6.952 -0.0604  0.2982  1.3693
34957SOL    HW1 9327   7.627  10.936   7.037 -1.0324  2.2992  1.0791
34957SOL    HW2 9328   7.693  10.852   6.930 -0.4769 -0.3486  3.3878
34958SOL     OW 9329   2.684   8.061   1.427  0.1018  0.2229 -0.3790
34958SOL    HW1 9330   2.717   8.004   1.497 -1.2256 -0.0931  0.0234
34958SOL    HW2 9331   2.622   8.119   1.471 -1.3430 -0.4964 -1.4057
34959SOL     OW 9332   5.621   5.897   1.844  0.2224  0.1246 -0.0065
34959SOL    HW1 9333   5.598   5.952   1.768 -2.5933 -0.4974  0.2735
34959SOL    HW2 9334   5.716   5.901   1.849  0.4120  1.2303 -2.7943
34960SOL     OW 9335   1.846   9.605   8.994  0.0431  0.2173 -0.1150
34960SOL    HW1 9336   1.825   9.514   8.972  2.0905  0.0046 -1.4440
34960SOL    HW2 9337   1.763   9.652   8.985 -1.1691 -1.5684  1.0924
34961SOL     OW 9338   9.832   6.943   2.180  0.3672  0.6841 -0.5285
34961SOL    HW1 9339   9.857   6.900   2.262  0.5991  0.2624 -0.8139
34961SOL    HW2 9340   9.801   7.030   2.207 -2.4212 -0.4644  0.3432
34962SOL     OW 9341   6.855   2.719   2.779 -0.2310  0.7847 -0.1566
34962SOL    HW1 9342   6.820   2.761   2.701  0.6471  0.2294 -0.8764
34962SOL    HW2 9343   6.947   2.699   2.757 -0.6817 -1.8425 -0.0457
34963SOL     OW 9344   1.857   0.869   1.096 -0.5377 -0.1474  0.1500
34963SOL    HW1 9345   1.833   0.779   1.078 -0.5601 -0.1008 -0.0542
34963SOL    HW2 9346   1.775   0.918   1.090 -0.4054  0.0071 -0.5245
34964SOL     OW 9347   6.270   7.712   7.231 -0.4749  0.0617  0.2211
34964SOL    HW1 9348   6.260   7.785   7.292 -1.8410 -0.0267  0.1221
34964SOL    HW2 9349   6.255   7.750   7.145 -2.6657 -0.5674  0.2705
34965SOL     OW 9350   4.293   0.445   1.763  0.4270  0.1209  0.0830
34965SOL    HW1 9351   4.244   0.388   1.822  0.6815  0.5727  0.7413
34965SOL    HW2 9352   4.308   0.391   1.685  0.2838 -0.5598  0.5150
34966SOL     OW 9353  10.532   9.121   8.126 -0.3217  0.2770  0.3958
34966SOL    HW1 9354  10.497   9.195   8.076  0.6263  0.3777 -0.1417
34966SOL    HW2 9355  10.598   9.083   8.068  1.1749  0.7112  1.7494
34967SOL     OW 9356   1.794   1.346   9.073 -0.1855  0.6372  0.4314
34967SOL    HW1 9357   1.843   1.275   9.032  0.0415  0.3555  1.1927
34967SOL    HW2 9358   1.768   1.312   9.158 -1.0269  1.0703  0.3575
34968SOL     OW 9359   7.840   2.222   9.855 -0.0762  0.0899 -0.3199
34968SOL    HW1 9360   7.805   2.302   9.893 -0.7264 -0.6242  0.5938
34968SOL    HW2 9361   7.935   2.238   9.850 -0.0244  0.3637  1.2051
34969SOL     OW 9362   8.622   3.891   4.733 -0.1382 -0.1996  0.0582
34969SOL    HW1 9363   8.560   3.831   4.773 -1.4453  0.4661 -0.9088
34969SOL    HW2 9364   8.701   3.838   4.719 -0.7918 -1.3094  0.4543
34970SOL     OW 9365   9.341  10.070   9.878 -0.2745  0.0452 -0.3622
34970SOL    HW1 9366   9.401  10.037   9.945  0.1252 -0.2029 -0.8388
34970SOL    HW2 9367   9.367  10.025   9.798 -1.8028 -0.8810 -0.3652
34971SOL     OW 9368   5.464   0.153   3.137 -0.1787  0.4807  1.0465
34971SOL    HW1 9369   5.542   0.162   3.081 -0.8960  2.9281  0.3522
34971SOL    HW2 9370   5.495   0.177   3.224 -0.0846  1.2462  0.8110
34972SOL     OW 9371   9.784  10.512   1.557  0.4521  0.5524 -0.4263
34972SOL    HW1 9372   9.823  10.476   1.637  3.3221  0.1634 -1.8698
34972SOL    HW2 9373   9.808  10.604   1.557  1.1610  0.3808 -1.1883
34973SOL     OW 9374   7.592   2.514  10.659  0.4478 -0.2505  0.3175
34973SOL    HW1 9375   7.570   2.592  10.608 -2.1287 -1.1409 -0.0886
34973SOL    HW2 9376   7.647   2.547  10.730 -1.4690  2.1826  0.8213
34974SOL     OW 9377   8.531   3.733  10.240  0.5184 -0.2982 -0.0676
34974SOL    HW1 9378   8.606   3.696  10.286 -0.2286 -3.1924 -0.9931
34974SOL    HW2 9379   8.504   3.808  10.294  4.1463  1.0120  0.1567
34975SOL     OW 9380   6.881   4.871   4.368 -0.1238 -0.2751  0.3527
34975SOL    HW1 9381   6.943   4.807   4.401 -0.0507 -0.6671 -0.5086
34975SOL    HW2 9382   6.834   4.902   4.446  1.1583  0.0530  1.0133
34976SOL     OW 9383   9.482   5.285   9.681  0.2844  0.4136  0.1080
34976SOL    HW1 9384   9.559   5.294   9.626 -0.5184  1.0603 -0.9599
34976SOL    HW2 9385   9.512   5.237   9.758  1.8188  0.9883 -0.1066
34977SOL     OW 9386   7.327   3.815   5.489  0.0144  0.5001  0.5666
34977SOL    HW1 9387   7.363   3.819   5.401 -0.3547 -0.8037  0.3214
34977SOL    HW2 9388   7.309   3.721   5.503 -1.3856  0.8617  1.4217
34978SOL     OW 9389  10.549   9.946   7.135  0.4408  1.0237 -0.0291
34978SOL    HW1 9390  10.580   9.859   7.110 -2.1736 -0.0141  0.0805
34978SOL    HW2 9391  10.609   9.973   7.205  2.5427  0.2438 -1.4171
34979SOL     OW 9392   5.184   0.408   4.776 -0.1034 -0.2597 -0.2121
34979SOL    HW1 9393   5.150   0.472   4.714 -2.0277 -0.7858  0.2430
34979SOL    HW2 9394   5.244   0.458   4.832 -1.8544  1.2620  0.3837
34980SOL     OW 9395   0.368   8.461   3.120 -0.0162  0.2578 -1.0338
34980SOL    HW1 9396   0.302   8.492   3.058  0.8010 -0.0631 -2.0875
34980SOL    HW2 9397   0.332   8.380   3.155  0.0591 -0.2260 -2.0445
34981SOL     OW 9398   3.928   5.981   4.003  0.2433 -0.0507 -0.5509
34981SOL    HW1 9399   3.870   5.941   3.940  0.6201 -1.3498 -0.1012
34981SOL    HW2 9400   4.016   5.958   3.973  0.4353 -0.3782  0.2324
34982SOL     OW 9401   9.900   1.674   2.113 -0.0164  0.0758 -0.0381
34982SOL    HW1 9402   9.981   1.633   2.083 -0.2020 -0.7542  0.5553
34982SOL    HW2 9403   9.865   1.613   2.178 -1.3278  0.2088 -0.5881
34983SOL     OW 9404   8.886   3.409   8.947 -0.1108  0.2887 -0.0728
34983SOL    HW1 9405   8.806   3.425   8.896  0.4944 -0.4793 -1.3255
34983SOL    HW2 9406   8.863   3.335   9.003 -0.3615  0.2344 -0.2411
34984SOL     OW 9407   7.817   8.637   2.950 -0.0291  0.3979 -0.3927
34984SOL    HW1 9408   7.781   8.604   3.032 -0.0963  0.9139 -0.2119
34984SOL    HW2 9409   7.822   8.732   2.962  1.5710  0.3291 -0.3347
34985SOL     OW 9410   2.149   9.638   2.661  0.0760  0.4602  0.2409
34985SOL    HW1 9411   2.150   9.567   2.597 -0.1006  0.2238  0.5010
34985SOL    HW2 9412   2.079   9.615   2.721  0.5882  0.4068  0.8289
34986SOL     OW 9413   4.987   3.977   1.927  0.1177 -0.2372  0.4317
34986SOL    HW1 9414   4.916   4.038   1.942 -0.1064 -0.5664  0.7323
34986SOL    HW2 9415   4.989   3.923   2.006 -0.2838 -1.2148 -0.2029
34987SOL     OW 9416   7.419   7.068   9.672 -0.2939 -0.3432  0.7417
34987SOL    HW1 9417   7.455   7.139   9.725 -1.9222  0.8980  0.2648
34987SOL    HW2 9418   7.495   7.021   9.641  0.7685 -0.5888  3.4190
34988SOL     OW 9419   8.985   5.207   8.859 -0.0578  0.1608  0.3197
34988SOL    HW1 9420   8.921   5.273   8.885  0.5529  0.9387 -0.1180
34988SOL    HW2 9421   9.065   5.232   8.904  0.0025 -0.6900  0.7044
34989SOL     OW 9422   1.861   0.514   8.965  0.5599 -0.1897 -0.3818
34989SOL    HW1 9423   1.865   0.507   8.869 -1.9307  2.2559 -0.7679
34989SOL    HW2 9424   1.775   0.481   8.988  1.1569 -0.8077  1.0632
34990SOL     OW 9425   8.021   8.747   6.859  0.2249 -0.4854  0.6599
34990SOL    HW1 9426   7.928   8.760   6.842  0.2616  1.1611  1.5179
34990SOL    HW2 9427   8.058   8.836   6.861  1.9015 -1.1205 -0.0941
34991SOL     OW 9428   1.161   5.525   2.695 -0.2538  1.0446 -0.2160
34991SOL    HW1 9429   1.192   5.442   2.732  1.5688  1.1295 -1.4124
34991SOL    HW2 9430   1.118   5.569   2.768 -0.1700 -0.4175  0.7694
34992SOL     OW 9431   8.617   0.510   1.503 -0.3654 -1.0462 -0.1253
34992SOL    HW1 9432   8.678   0.515   1.577 -0.5883 -2.1055  0.1443
34992SOL    HW2 9433   8.584   0.600   1.493  2.8627  0.1242 -1.7190
34993SOL     OW 9434   9.043   2.657   6.248  0.1047  0.2273 -0.1228
34993SOL    HW1 9435   9.111   2.608   6.295 -2.5359 -2.3374  1.3507
34993SOL    HW2 9436   9.029   2.734   6.303  0.0263 -0.5815  1.0538
34994SOL     OW 9437   9.990   0.736   4.312  0.2943  0.3195  1.1174
34994SOL    HW1 9438  10.043   0.806   4.350 -1.0597  1.4273  1.0258
34994SOL    HW2 9439   9.900   0.767   4.319 -0.0855  0.7593 -3.2326
34995SOL     OW 9440   4.037   8.274   9.016 -0.3016  0.8322 -0.9044
34995SOL    HW1 9441   4.064   8.361   9.045  0.1339  0.4129 -0.0235
34995SOL    HW2 9442   4.113   8.239   8.969 -0.0652  0.4959 -0.2856
34996SOL     OW 9443   0.964   5.721   7.325  0.7982 -0.3027 -0.0416
34996SOL    HW1 9444   0.989   5.797   7.273 -1.3162  0.4921 -0.0016
34996SOL    HW2 9445   0.913   5.667   7.265  1.8422 -1.4634  0.0818
34997SOL     OW 9446  10.378   3.586   6.882  0.1706 -0.4408 -0.2417
34997SOL    HW1 9447  10.362   3.569   6.974  0.7606 -0.9336 -0.2225
34997SOL    HW2 9448  10.398   3.500   6.844 -0.3151 -0.2846 -0.8840
34998SOL     OW 9449   6.460   6.399   0.920  0.0290 -0.5465  0.0284
34998SOL    HW1 9450   6.505   6.316   0.933  0.4963 -0.2944  0.0630
34998SOL    HW2 9451   6.506   6.460   0.978  0.4538  0.0006 -0.8651
34999SOL     OW 9452   7.895   8.923   9.110  0.4867  0.3097  0.2657
34999SOL    HW1 9453   7.948   8.883   9.041 -0.2980  0.0250 -0.1900
34999SOL    HW2 9454   7.916   8.873   9.189 -2.1420 -2.6550 -0.7058
35000SOL     OW 9455   9.823   6.008   2.384  0.0342  0.6008  0.0596
35000SOL    HW1 9456   9.755   6.072   2.405  0.3553  1.0330 -0.2017
35000SOL    HW2 9457   9.783   5.924   2.403 -0.9278  0.7885 -1.0418
35001SOL     OW 9458   3.434   1.086   1.788 -0.0966 -0.7056 -0.4008
35001SOL    HW1 9459   3.488   1.050   1.718 -0.2005 -1.6371 -0.0163
35001SOL    HW2 9460   3.496   1.125   1.849  0.0403 -0.4847 -0.6811
35002SOL     OW 9461   9.145   6.595   2.404  0.1915 -0.3860 -0.7689
35002SOL    HW1 9462   9.139   6.530   2.333 -4.4987  0.6557 -1.6385
35002SOL    HW2 9463   9.153   6.679   2.359 -1.2329  0.1658 -0.0402
35003SOL     OW 9464  10.451   6.602   1.770 -0.1647 -0.4322  0.1874
35003SOL    HW1 9465  10.399   6.523   1.778  1.6800 -1.6023  1.4782
35003SOL    HW2 9466  10.429   6.654   1.847 -0.2433 -0.4133  0.1520
35004SOL     OW 9467   5.816   1.717   7.757  0.4001  0.6048 -0.1807
35004SOL    HW1 9468   5.742   1.711   7.697 -0.7427 -0.4362  1.2527
35004SOL    HW2 9469   5.778   1.754   7.837  0.6850 -2.5738  1.5817
35005SOL     OW 9470   0.833   3.357   1.809  0.2377  0.6265 -0.5166
35005SOL    HW1 9471   0.915   3.343   1.857  0.7997  0.8014 -1.4052
35005SOL    HW2 9472   0.766   3.362   1.878  0.6840 -1.3425  0.1471
35006SOL     OW 9473   9.641   5.924   8.939 -0.6057  0.1287  0.0584
35006SOL    HW1 9474   9.618   5.968   9.021 -1.3863  1.5934 -0.9094
35006SOL    HW2 9475   9.598   5.838   8.946 -0.7132  0.2584  1.1552
35007SOL     OW 9476   5.980   7.863   5.757  0.1176 -0.6793 -0.0516
35007SOL    HW1 9477   5.968   7.768   5.757 -1.0589 -0.5765  1.4157
35007SOL    HW2 9478   6.040   7.880   5.685 -1.1225 -2.3529 -1.5836
35008SOL     OW 9479   3.921   6.339   3.640  0.1231 -0.0381  0.4018
35008SOL    HW1 9480   3.865   6.363   3.566  1.3456  0.9060 -0.2496
35008SOL    HW2 9481   3.998   6.395   3.631  1.2796 -1.4480  1.1452
35009SOL     OW 9482   5.700   4.196   0.308 -0.5266  0.1089 -0.0927
35009SOL    HW1 9483   5.790   4.208   0.337 -0.9174  0.1791  1.1709
35009SOL    HW2 9484   5.686   4.101   0.308 -0.8479  0.1382  1.0697
35010SOL     OW 9485   0.403   3.174   8.390  0.4907 -0.4333 -0.2407
35010SOL    HW1 9486   0.497   3.191   8.397  0.2718  0.7890 -0.0790
35010SOL    HW2 9487   0.380   3.202   8.302  0.2092 -0.3614 -0.1443
35011SOL     OW 9488   0.964   3.612   1.974  0.2592  0.7537 -0.1207
35011SOL    HW1 9489   0.978   3.645   1.885  2.1668 -1.3139 -0.6710
35011SOL    HW2 9490   1.034   3.549   1.987 -1.5156 -0.9380  1.9065
35012SOL     OW 9491   9.721   4.570   5.847 -0.1416  0.2930 -0.5047
35012SOL    HW1 9492   9.647   4.585   5.906  0.2765 -0.9444  0.3738
35012SOL    HW2 9493   9.798   4.570   5.904  0.2088 -1.5332 -0.9249
35013SOL     OW 9494   5.999   7.700   6.711  0.2354 -0.0901  0.4103
35013SOL    HW1 9495   6.048   7.645   6.649 -0.8972  0.7099 -1.2593
35013SOL    HW2 9496   5.922   7.648   6.734  0.3380 -0.1300  0.6715
35014SOL     OW 9497   9.313   9.243   6.083 -0.0685  0.4159  0.6139
35014SOL    HW1 9498   9.279   9.302   6.016 -0.1729  1.3406  1.4558
35014SOL    HW2 9499   9.397   9.212   6.048 -0.4275  0.3488 -0.2219
35015SOL     OW 9500   6.025  10.772   5.210 -0.2259  0.4101  0.2526
35015SOL    HW1 9501   6.043  10.721   5.289 -2.6180 -0.9058  0.0429
35015SOL    HW2 9502   5.986  10.854   5.242  1.4457  1.1624  0.4879
35016SOL     OW 9503   5.886   5.311   0.627  0.2607  0.6313  0.0559
35016SOL    HW1 9504   5.927   5.338   0.545  0.7925 -1.0057 -0.2432
35016SOL    HW2 9505   5.959   5.300   0.688  0.0181  0.3263  0.2954
35017SOL     OW 9506   8.645   0.484   0.596 -0.1466 -0.0294 -0.0779
35017SOL    HW1 9507   8.683   0.540   0.528  0.6298 -0.2198  0.1797
35017SOL    HW2 9508   8.719   0.464   0.653 -0.3850 -1.4288 -0.2325
35018SOL     OW 9509   9.020   7.073   7.079  0.0874 -0.0491  0.1989
35018SOL    HW1 9510   8.927   7.053   7.096 -0.0117 -0.3637 -0.6796
35018SOL    HW2 9511   9.033   7.050   6.987  0.5440  1.8242 -0.2419
35019SOL     OW 9512   9.621   2.382   2.392  0.2812 -0.0219 -0.4521
35019SOL    HW1 9513   9.675   2.461   2.396 -0.2714  0.4257 -1.4913
35019SOL    HW2 9514   9.632   2.349   2.303 -0.5253 -0.3769 -0.4324
35020SOL     OW 9515   4.203   1.932   3.172 -0.5947 -0.0546  0.3091
35020SOL    HW1 9516   4.116   1.899   3.152 -0.6948 -0.2369  0.9919
35020SOL    HW2 9517   4.208   2.017   3.128 -0.6447 -0.5960 -0.7779
35021SOL     OW 9518   0.353   6.968   9.048 -0.1950  0.2920 -0.0116
35021SOL    HW1 9519   0.314   6.920   9.121 -0.1660  1.8212  1.0750
35021SOL    HW2 9520   0.366   7.057   9.083 -1.3853  1.4458 -2.2743
35022SOL     OW 9521   5.367   6.757   1.163  0.3675 -1.2464 -0.6241
35022SOL    HW1 9522   5.311   6.748   1.240  1.3765 -1.4145  0.1043
35022SOL    HW2 9523   5.419   6.676   1.161  1.5258 -0.5284 -0.5139
35023SOL     OW 9524   1.933   1.582   7.028  0.3706 -0.1129  0.3701
35023SOL    HW1 9525   1.915   1.487   7.026 -0.5872 -0.0051  2.0532
35023SOL    HW2 9526   1.972   1.600   6.943  0.0499 -1.9279 -0.2202
35024SOL     OW 9527   6.274   0.963   1.558 -0.3332 -0.4338  0.2187
35024SOL    HW1 9528   6.306   1.040   1.606  0.5623 -1.1514  0.8081
35024SOL    HW2 9529   6.182   0.956   1.583 -1.0777  1.7147 -1.5674
35025SOL     OW 9530   0.963  10.352   1.622  0.8318 -0.1541 -0.2213
35025SOL    HW1 9531   0.926  10.437   1.645  0.4927 -0.4580  0.3692
35025SOL    HW2 9532   0.925  10.291   1.686  0.8903 -0.7861 -0.7808
35026SOL     OW 9533   3.180   0.164   8.183  0.0535 -0.3547  0.3002
35026SOL    HW1 9534   3.229   0.237   8.222  0.4538 -1.1911  1.3849
35026SOL    HW2 9535   3.207   0.164   8.091 -0.5367  1.3395  0.0912
35027SOL     OW 9536   6.054   7.822   1.250  0.2072  0.0500  0.4494
35027SOL    HW1 9537   6.069   7.909   1.287  1.7595 -0.5088  1.2416
35027SOL    HW2 9538   6.013   7.838   1.165  2.6951  1.6997 -0.5313
35028SOL     OW 9539   9.680   7.769   8.158 -0.0678  0.0701 -0.5006
35028SOL    HW1 9540   9.738   7.697   8.181  0.2364 -0.7456 -3.4451
35028SOL    HW2 9541   9.732   7.824   8.099 -0.8307  1.8610  0.4043
35029SOL     OW 9542   0.296   4.471   3.818  0.4258  0.0881  0.1632
35029SOL    HW1 9543   0.370   4.459   3.759  1.8320  0.4304  1.7765
35029SOL    HW2 9544   0.316   4.418   3.894 -0.6997  0.6655  0.9018
35030SOL     OW 9545   9.200   7.155  10.027 -0.2602 -0.2430 -0.2065
35030SOL    HW1 9546   9.207   7.180  10.119  0.3099  0.5181 -0.4437
35030SOL    HW2 9547   9.285   7.116  10.006 -0.1237  0.2477 -0.5925
35031SOL     OW 9548   2.434   6.880   2.060 -0.6091  0.0258  0.3249
35031SOL    HW1 9549   2.407   6.796   2.023 -0.2157  0.3786 -0.8101
35031SOL    HW2 9550   2.446   6.937   1.984 -0.6770  1.0569  1.0653
35032SOL     OW 9551   3.974  10.545   3.641  0.3377 -0.0091 -0.4391
35032SOL    HW1 9552   3.990  10.489   3.565 -0.8048 -0.4754 -0.3588
35032SOL    HW2 9553   3.943  10.628   3.603 -1.7895 -0.7601 -0.5017
35033SOL     OW 9554   7.974   8.812   7.686 -0.0817  0.2875 -0.0274
35033SOL    HW1 9555   7.933   8.735   7.726  1.0461  0.2173  1.0667
35033SOL    HW2 9556   7.967   8.796   7.592 -1.5394 -0.2340  0.1389
35034SOL     OW 9557   0.913   0.133   9.201  0.0616  0.0567 -0.5625
35034SOL    HW1 9558   0.893   0.054   9.152 -1.9286  1.6983 -2.6280
35034SOL    HW2 9559   0.853   0.199   9.167  1.2502  2.3620  1.4184
35035SOL     OW 9560   7.405   8.980   9.731  0.2323  0.1399 -0.0901
35035SOL    HW1 9561   7.389   8.963   9.638 -1.4741  0.8733  0.0359
35035SOL    HW2 9562   7.349   9.055   9.751  2.8095  1.9132  0.8562
35036SOL     OW 9563   9.552   7.190   5.514  0.2787 -0.6110  0.1428
35036SOL    HW1 9564   9.483   7.240   5.470 -0.9529 -1.0100  1.5397
35036SOL    HW2 9565   9.623   7.253   5.526 -0.1464  0.0276 -0.5932
35037SOL     OW 9566   2.867   2.774   4.215 -0.5788 -0.0618  0.7140
35037SOL    HW1 9567   2.843   2.686   4.187 -0.6609 -0.3196  1.5645
35037SOL    HW2 9568   2.956   2.765   4.250 -0.4589  0.2608  0.4972
35038SOL     OW 9569   0.877   6.541   3.967  0.1806 -0.3738  0.4698
35038SOL    HW1 9570   0.831   6.466   4.004 -0.9186  0.0058 -0.1092
35038SOL    HW2 9571   0.838   6.617   4.011  0.1427 -0.0379 -0.1316
35039SOL     OW 9572   1.714   0.464   6.044 -0.2771  0.3063  0.0585
35039SOL    HW1 9573   1.624   0.479   6.071 -0.7572  0.9740 -1.7252
35039SOL    HW2 9574   1.707   0.403   5.970  0.9411 -1.4108  1.2872
35040SOL     OW 9575   9.041   3.284   6.111 -0.1822  0.6844  0.1102
35040SOL    HW1 9576   8.976   3.216   6.100  0.8509 -0.9267  2.7789
35040SOL    HW2 9577   9.020   3.350   6.045 -1.1287 -2.2542 -2.7540
35041SOL     OW 9578   8.064   5.777   0.502 -0.1752  0.1046  0.1364
35041SOL    HW1 9579   8.052   5.809   0.591 -1.6609  1.4270 -0.4677
35041SOL    HW2 9580   7.976   5.749   0.475  0.0671  0.5596 -1.1975
35042SOL     OW 9581   9.537   7.443  10.504  0.1273  0.3370  0.2888
35042SOL    HW1 9582   9.586   7.485  10.432 -1.4643  0.8628 -0.5323
35042SOL    HW2 9583   9.591   7.368  10.529  0.1859 -0.6013 -2.2983
35043SOL     OW 9584  10.335   5.079   6.210  0.2912 -0.0928  0.0790
35043SOL    HW1 9585  10.343   5.027   6.130  1.3444 -0.6074  0.4931
35043SOL    HW2 9586  10.330   5.014   6.280 -0.3085  0.3545  0.4562
35044SOL     OW 9587   4.981   1.761   8.979 -0.0314  0.0542  0.6908
35044SOL    HW1 9588   5.062   1.810   8.975  0.8034 -1.2955  0.4359
35044SOL    HW2 9589   5.002   1.683   9.031 -1.5955  0.4558  2.0245
35045SOL     OW 9590   2.732   3.006   0.901  0.3391  0.4115  0.1467
35045SOL    HW1 9591   2.637   3.022   0.893  0.2204  0.4501  1.4191
35045SOL    HW2 9592   2.772   3.075   0.848 -0.3448  0.2517 -0.6001
35046SOL     OW 9593   5.845   3.965   8.888 -0.3805 -0.1434 -0.4208
35046SOL    HW1 9594   5.752   3.945   8.886 -0.1652 -1.3453  0.7558
35046SOL    HW2 9595   5.865   3.977   8.981  0.5604  0.5225 -0.6952
35047SOL     OW 9596   7.166  10.322   9.326  0.0817 -0.2177  0.2239
35047SOL    HW1 9597   7.211  10.378   9.390  0.6641  1.5504 -1.6213
35047SOL    HW2 9598   7.074  10.325   9.352  0.1064  1.5660  0.2544
35048SOL     OW 9599   0.220   3.539   5.246  0.2665  0.1494  0.0309
35048SOL    HW1 9600   0.173   3.463   5.214  0.0285  0.8057 -1.2091
35048SOL    HW2 9601   0.201   3.541   5.340 -0.7228 -0.5958 -0.1422
35049SOL     OW 9602   2.059   7.373   7.274  0.0601 -0.6118  0.3908
35049SOL    HW1 9603   2.100   7.399   7.192  1.0168 -0.1895  0.9846
35049SOL    HW2 9604   1.965   7.369   7.254  0.1900  0.3367 -0.4974
35050SOL     OW 9605   8.884   3.243   1.689  0.1941 -0.3139 -0.0922
35050SOL    HW1 9606   8.820   3.237   1.618 -0.7793  1.9038  0.4859
35050SOL    HW2 9607   8.852   3.184   1.756  0.9488 -2.1940 -1.3123
35051SOL     OW 9608   0.251  10.331   3.296 -0.4398  0.1482  0.2680
35051SOL    HW1 9609   0.223  10.363   3.210 -0.3084 -0.3745  0.0276
35051SOL    HW2 9610   0.320  10.267   3.277 -0.3907  0.0496  0.7629
35052SOL     OW 9611   3.311   9.697   4.836 -0.4864  0.3667 -0.0971
35052SOL    HW1 9612   3.388   9.752   4.853 -0.2017 -0.5004  1.6629
35052SOL    HW2 9613   3.254   9.752   4.782 -0.2129  2.4008  1.5647
35053SOL     OW 9614  10.694  11.018   3.267  0.1946  0.3655  0.0145
35053SOL    HW1 9615  10.764  11.054   3.211  0.3416 -0.0678 -0.0793
35053SOL    HW2 9616  10.730  11.024   3.355  1.5681 -2.4934 -0.2309
35054SOL     OW 9617   1.146   0.891   1.245  0.5999  1.0192 -0.3778
35054SOL    HW1 9618   1.113   0.951   1.178 -1.3911 -0.3423 -0.6659
35054SOL    HW2 9619   1.125   0.804   1.213 -0.0728  0.2973  1.8315
35055SOL     OW 9620  10.009   6.167   9.859  0.3400  0.3217 -0.4811
35055SOL    HW1 9621  10.058   6.247   9.839  1.6715 -1.0824 -3.3859
35055SOL    HW2 9622  10.016   6.114   9.780 -0.6421 -2.6254  1.2411
35056SOL     OW 9623   1.215   2.297   7.533 -0.3008  0.4008 -0.2228
35056SOL    HW1 9624   1.201   2.224   7.472 -1.6744  1.6234 -1.4407
35056SOL    HW2 9625   1.296   2.274   7.578 -1.2547 -2.4221  0.2780
35057SOL     OW 9626   8.363   7.000  10.062 -0.1120 -0.2008 -0.1504
35057SOL    HW1 9627   8.390   7.026  10.150  0.8474  1.9945 -1.0309
35057SOL    HW2 9628   8.269   6.982  10.070 -0.0078 -0.2067  1.3385
35058SOL     OW 9629   2.887   6.540   2.504 -0.6849 -0.0629  0.7221
35058SOL    HW1 9630   2.926   6.614   2.457  0.3714 -0.7807  0.4252
35058SOL    HW2 9631   2.960   6.500   2.551 -1.5095 -0.0761  2.0361
35059SOL     OW 9632   3.758   3.379   9.762 -0.4451  0.3542 -0.5951
35059SOL    HW1 9633   3.819   3.374   9.835  1.0901  0.9007 -1.7711
35059SOL    HW2 9634   3.688   3.437   9.793  0.9139  1.7848 -0.0268
35060SOL     OW 9635   8.164   4.378   2.133 -0.7323 -0.0075 -0.0131
35060SOL    HW1 9636   8.244   4.362   2.084 -0.5122  0.4254  0.2022
35060SOL    HW2 9637   8.097   4.393   2.066 -0.4043  0.7301 -0.1848
35061SOL     OW 9638  11.013   5.895   5.766 -0.1696  0.6748 -0.4736
35061SOL    HW1 9639  10.985   5.879   5.676 -0.7091 -0.5406 -0.1189
35061SOL    HW2 9640  11.105   5.869   5.767 -0.9697 -2.5653  0.0320
35062SOL     OW 9641   7.348  11.072   1.707  0.7221  0.2071  0.1418
35062SOL    HW1 9642   7.287  11.049   1.777  1.3296  0.3900  0.7474
35062SOL    HW2 9643   7.331  11.165   1.691  0.9061  0.2865  0.3882
35063SOL     OW 9644   6.195   4.145   2.939 -0.1868  0.2622 -0.0308
35063SOL    HW1 9645   6.132   4.196   2.990 -0.4251 -1.3203  1.3328
35063SOL    HW2 9646   6.192   4.184   2.852 -1.8005  1.3024  0.4405
35064SOL     OW 9647   6.463   0.720   4.587 -0.4657 -0.2610  0.3400
35064SOL    HW1 9648   6.530   0.788   4.600  0.1083 -0.5774 -0.7548
35064SOL    HW2 9649   6.512   0.646   4.552 -1.2208 -0.9363  0.7082
35065SOL     OW 9650   3.947   5.546   7.356 -0.4298  0.5764  0.5553
35065SOL    HW1 9651   3.995   5.593   7.288  1.2878  0.4526  1.6286
35065SOL    HW2 9652   3.873   5.505   7.309 -2.0935  4.2919 -0.4255
35066SOL     OW 9653   8.254   2.787   5.017 -0.5673  0.5583 -0.0264
35066SOL    HW1 9654   8.338   2.792   4.972  0.3501 -1.5080  1.2906
35066SOL    HW2 9655   8.194   2.747   4.953 -0.1049  0.5062 -0.4298
35067SOL     OW 9656   5.540   6.083   3.769  0.1116 -0.5498  0.1783
35067SOL    HW1 9657   5.611   6.148   3.775  0.0346 -0.4881  0.4481
35067SOL    HW2 9658   5.474   6.115   3.830  0.5152 -1.4424  1.1024
35068SOL     OW 9659   7.481   0.490   8.332 -0.4629 -0.1893  0.7671
35068SOL    HW1 9660   7.551   0.424   8.327  0.0163  0.0336  3.2149
35068SOL    HW2 9661   7.405   0.442   8.365 -0.5758  0.1572  1.0127
35069SOL     OW 9662   1.199   8.483  10.280 -0.1055  0.2058 -0.0577
35069SOL    HW1 9663   1.179   8.548  10.347  1.3890  0.5620  0.0654
35069SOL    HW2 9664   1.201   8.400  10.328 -0.3653  0.2846  0.0931
35070SOL     OW 9665  10.295   6.777   5.399 -0.1474  0.3316 -0.0528
35070SOL    HW1 9666  10.266   6.692   5.366 -0.5683  0.7797 -0.8701
35070SOL    HW2 9667  10.220   6.835   5.384 -0.0360  0.7466  0.9235
35071SOL     OW 9668   8.940   4.379   4.661  0.2452 -0.7063  0.0847
35071SOL    HW1 9669   8.939   4.284   4.648 -1.2562 -0.4256 -2.6298
35071SOL    HW2 9670   8.848   4.405   4.654  0.6662  1.0198  0.4108
35072SOL     OW 9671   0.826   7.405   8.751  0.5759  0.8935  0.0734
35072SOL    HW1 9672   0.838   7.449   8.836 -1.2622  0.7234  0.4860
35072SOL    HW2 9673   0.774   7.467   8.700 -2.8944 -0.9618  0.9933
35073SOL     OW 9674   7.056   1.905   4.182 -0.0412 -0.1147  0.2432
35073SOL    HW1 9675   6.994   1.944   4.244 -1.3621 -1.4969 -0.1415
35073SOL    HW2 9676   7.089   1.979   4.131 -0.5860  0.7760  1.1487
35074SOL     OW 9677   8.089   1.536   7.384  0.1711 -0.2917  0.4490
35074SOL    HW1 9678   8.183   1.546   7.371  0.0157  0.8379  0.0608
35074SOL    HW2 9679   8.079   1.517   7.477  0.7918 -0.5938  0.4567
35075SOL     OW 9680   0.986  11.029   6.757 -0.4573 -0.1024  0.0825
35075SOL    HW1 9681   1.039  10.993   6.686 -0.1439  0.8864 -0.1928
35075SOL    HW2 9682   0.928  11.092   6.715 -0.6382  0.1062  0.6319
35076SOL     OW 9683  10.108   9.626   9.413 -0.3282  0.1194  0.9114
35076SOL    HW1 9684  10.093   9.554   9.475  0.8266 -0.1907  0.8412
35076SOL    HW2 9685  10.203   9.629   9.402 -0.4655  0.7290 -0.1978
35077SOL     OW 9686   0.354   0.406   6.649  0.4130 -0.2043  0.3679
35077SOL    HW1 9687   0.318   0.407   6.560 -0.6107 -2.0973  0.7068
35077SOL    HW2 9688   0.438   0.362   6.641  0.6260  0.2255  0.2380
35078SOL     OW 9689   7.241   5.666   3.361  0.2141 -0.0854 -0.8389
35078SOL    HW1 9690   7.238   5.745   3.416 -1.7094 -0.0932 -0.8881
35078SOL    HW2 9691   7.198   5.599   3.414  0.1352 -0.6093 -1.5620
35079SOL     OW 9692   4.933   5.436   1.991 -0.2121  0.2331 -0.3011
35079SOL    HW1 9693   4.892   5.351   1.976  0.7382 -0.3519  0.2925
35079SOL    HW2 9694   4.974   5.458   1.908 -0.9155  0.3805 -0.6189
35080SOL     OW 9695   4.745   0.423   4.868 -0.3073 -0.3159  0.2612
35080SOL    HW1 9696   4.653   0.446   4.859 -0.0010  1.0315  0.2777
35080SOL    HW2 9697   4.747   0.351   4.931 -1.3326 -0.1905  0.4422
35081SOL     OW 9698   2.972   1.798   9.065 -0.5653  0.2390  0.2243
35081SOL    HW1 9699   3.016   1.714   9.076 -0.2283  0.4160  0.2307
35081SOL    HW2 9700   2.899   1.780   9.005 -1.0552 -0.2522  0.9515
35082SOL     OW 9701   0.034  10.606   4.557  0.3170 -0.5203 -0.2664
35082SOL    HW1 9702   0.005  10.570   4.641  1.5084 -0.9625 -0.0317
35082SOL    HW2 9703  -0.025  10.566   4.493  0.7345 -1.8535  0.1446
35083SOL     OW 9704   1.311  10.053   2.186  0.2219 -0.0575  0.5029
35083SOL    HW1 9705   1.379  10.048   2.118 -0.8746  0.9130 -0.7058
35083SOL    HW2 9706   1.327  10.136   2.230  0.6154 -0.4492  1.1165
35084SOL     OW 9707   8.259   5.521   8.120 -0.0736 -0.0006  0.1455
35084SOL    HW1 9708   8.236   5.601   8.167  0.2633 -0.3321  0.8784
35084SOL    HW2 9709   8.340   5.544   8.074  0.9199 -0.3921  1.6347
35085SOL     OW 9710   1.014   2.004   4.784 -0.3656  0.5041 -0.4033
35085SOL    HW1 9711   0.943   1.993   4.847  1.2783 -0.3692  1.3890
35085SOL    HW2 9712   1.013   1.923   4.733  0.1761 -0.1160  0.5416
35086SOL     OW 9713   3.933   6.430   8.399 -0.1077  0.8010 -0.5100
35086SOL    HW1 9714   3.953   6.487   8.324  1.8478 -0.6905 -1.2004
35086SOL    HW2 9715   3.977   6.472   8.473  0.6069  0.6512 -0.8439
35087SOL     OW 9716   5.724   7.555   1.759 -0.0326  0.1944 -0.2362
35087SOL    HW1 9717   5.645   7.506   1.780 -0.6905  1.2812 -0.0661
35087SOL    HW2 9718   5.739   7.539   1.666  0.3744 -1.1438  0.0414
35088SOL     OW 9719   9.021   4.038   5.945 -0.0013 -0.1825 -0.2008
35088SOL    HW1 9720   8.969   4.051   5.866 -1.7871 -1.5307  0.6916
35088SOL    HW2 9721   9.059   3.951   5.934  2.3695  0.8683 -0.9449
35089SOL     OW 9722  10.942   0.096  10.547 -0.3688 -0.3829  0.0914
35089SOL    HW1 9723  10.965   0.052  10.465 -0.0723  1.6890 -1.0084
35089SOL    HW2 9724  10.850   0.121  10.536 -0.8736 -1.6411  1.1718
35090SOL     OW 9725   9.423  10.564   8.788 -0.0652 -0.5999 -0.1723
35090SOL    HW1 9726   9.342  10.513   8.791 -0.4201 -0.3889 -2.9027
35090SOL    HW2 9727   9.401  10.640   8.734  1.1878  1.0783  1.5577
35091SOL     OW 9728   1.006   4.121   1.816 -0.8249 -0.1843 -0.2148
35091SOL    HW1 9729   0.999   4.147   1.724  0.9595 -0.0071 -0.3384
35091SOL    HW2 9730   0.957   4.188   1.864 -0.1207  0.8645 -0.9103
35092SOL     OW 9731   7.285   0.170   6.583 -0.0208 -0.2000 -0.2459
35092SOL    HW1 9732   7.278   0.126   6.498  0.8906  0.3757 -0.6340
35092SOL    HW2 9733   7.329   0.253   6.563  0.0277  0.0236  0.7622
35093SOL     OW 9734   6.136   5.718   8.432  0.4149  0.4305  0.4727
35093SOL    HW1 9735   6.136   5.712   8.337  0.7870  1.9869  0.3424
35093SOL    HW2 9736   6.223   5.688   8.458  0.0620 -0.7128  0.4094
35094SOL     OW 9737   5.654   3.059   7.435 -0.1425  0.0764 -0.3163
35094SOL    HW1 9738   5.713   3.132   7.454  0.7610 -0.7493  0.1518
35094SOL    HW2 9739   5.669   2.997   7.506 -0.4828 -0.8125 -1.0046
35095SOL     OW 9740   1.734   3.673   2.776 -0.8439 -0.0513 -0.3900
35095SOL    HW1 9741   1.754   3.690   2.684 -0.2530 -1.6371 -0.5682
35095SOL    HW2 9742   1.698   3.585   2.777  1.3294 -0.9850  1.1743
35096SOL     OW 9743   8.061   8.258  10.555 -0.4600  0.0980  0.1725
35096SOL    HW1 9744   8.013   8.333  10.590  0.4538  0.4867  0.6298
35096SOL    HW2 9745   8.069   8.277  10.461 -0.8154  0.2454  0.1712
35097SOL     OW 9746   6.708   6.270   6.259 -0.2904  0.0346 -0.5492
35097SOL    HW1 9747   6.632   6.214   6.245 -1.0120  0.8985 -0.1936
35097SOL    HW2 9748   6.672   6.351   6.295  0.9725 -0.2406  1.5054
35098SOL     OW 9749   1.677   8.041   5.317  0.2601 -0.1159  0.0290
35098SOL    HW1 9750   1.694   8.065   5.226 -0.3234  0.9208  0.1661
35098SOL    HW2 9751   1.726   8.105   5.368 -0.3094  0.0148  0.4279
35099SOL     OW 9752   6.941   5.806   0.686 -0.0256 -0.0095 -0.1381
35099SOL    HW1 9753   6.856   5.793   0.728 -0.0920 -0.3099 -0.3637
35099SOL    HW2 9754   6.924   5.793   0.593  0.1605  0.4556 -0.2440
35100SOL     OW 9755   3.904   5.259   9.676 -0.4827 -0.1992 -0.4565
35100SOL    HW1 9756   3.889   5.197   9.604 -2.6431  0.2040 -0.4037
35100SOL    HW2 9757   3.894   5.345   9.636  0.6626  0.1051 -0.1343
35101SOL     OW 9758   5.629   9.948   1.650  0.0253  0.0414 -0.1355
35101SOL    HW1 9759   5.657  10.028   1.606  0.2107 -0.4113 -0.8745
35101SOL    HW2 9760   5.628   9.882   1.580  1.6502 -1.0255  0.7720
35102SOL     OW 9761  10.922   7.756   5.665  0.4581 -0.2236 -0.1990
35102SOL    HW1 9762  10.994   7.720   5.715 -0.7010 -1.1033  0.8984
35102SOL    HW2 9763  10.940   7.729   5.574  1.8089  0.1266 -0.0512
35103SOL     OW 9764   5.444   4.119   2.833  0.9284  0.2397 -0.2078
35103SOL    HW1 9765   5.487   4.193   2.876  1.0000  0.4184 -0.5795
35103SOL    HW2 9766   5.436   4.053   2.901 -0.3149  1.0633  0.4921
35104SOL     OW 9767   2.582   6.043   4.076 -0.1714  0.2832 -0.3187
35104SOL    HW1 9768   2.558   5.951   4.080 -0.6503  0.3803 -0.9120
35104SOL    HW2 9769   2.501   6.089   4.054  0.4931  0.6284 -2.2829
35105SOL     OW 9770  10.476   8.662   3.336  0.4705 -0.4562 -0.4098
35105SOL    HW1 9771  10.410   8.676   3.268 -1.4133 -3.0106  0.7665
35105SOL    HW2 9772  10.547   8.617   3.291 -0.1698 -0.9367 -0.9604
35106SOL     OW 9773   5.103   2.729   3.617 -0.6758 -0.0763 -0.6235
35106SOL    HW1 9774   5.094   2.645   3.572 -0.2374 -0.1381 -0.5983
35106SOL    HW2 9775   5.082   2.794   3.550  1.5519 -0.0927 -1.4064
35107SOL     OW 9776   8.614   0.880   3.106 -0.1104 -0.7656  0.1131
35107SOL    HW1 9777   8.534   0.932   3.108  0.4872  0.1814  0.2559
35107SOL    HW2 9778   8.629   0.863   3.013 -0.6929 -1.3012  0.1126
35108SOL     OW 9779   9.229   3.587   4.873 -0.4427 -0.3277  0.4014
35108SOL    HW1 9780   9.275   3.644   4.935 -1.0993  2.1305 -1.2161
35108SOL    HW2 9781   9.295   3.569   4.805 -0.5355 -0.6322  0.3935
35109SOL     OW 9782   6.414   1.480   5.700  0.0436  0.6002 -0.3458
35109SOL    HW1 9783   6.352   1.517   5.764  1.0914 -0.7667  1.5894
35109SOL    HW2 9784   6.363   1.416   5.652 -0.4372  0.6296  0.1112
35110SOL     OW 9785   3.287   2.826   4.575 -0.2159 -0.4255  0.5611
35110SOL    HW1 9786   3.191   2.830   4.583 -0.4828 -1.2042 -1.5060
35110SOL    HW2 9787   3.309   2.739   4.608 -0.2633 -0.4137  0.6263
35111SOL     OW 9788   7.678   3.141  10.784  0.3557 -0.0270  0.0260
35111SOL    HW1 9789   7.754   3.108  10.832  0.9532  0.2201 -0.7297
35111SOL    HW2 9790   7.701   3.231  10.761  0.0167 -0.0893 -0.5781
35112SOL     OW 9791   4.646  10.604   5.082  0.5428  0.1995  0.1546
35112SOL    HW1 9792   4.707  10.612   5.155  1.6203  1.7706 -0.8368
35112SOL    HW2 9793   4.559  10.619   5.121  1.0332  0.4399  1.1826
35113SOL     OW 9794   9.225   2.522   9.864 -0.0751  0.0812  0.4569
35113SOL    HW1 9795   9.231   2.612   9.832 -3.9754 -0.2389 -1.8144
35113SOL    HW2 9796   9.278   2.472   9.801 -0.7847  0.4534 -0.4718
35114SOL     OW 9797   7.946  10.260   4.135 -0.7028 -0.0587  0.0484
35114SOL    HW1 9798   8.036  10.236   4.157 -0.7770  0.9944  1.7211
35114SOL    HW2 9799   7.954  10.324   4.064 -0.1709 -0.2864 -0.0993
35115SOL     OW 9800   0.358   1.793   2.653  0.2183  0.1247  0.5622
35115SOL    HW1 9801   0.388   1.806   2.743 -1.6637  1.4832  1.0648
35115SOL    HW2 9802   0.289   1.727   2.661 -0.2346  0.5493  0.2005
35116SOL     OW 9803   6.632   1.468   6.337  0.0206  0.3620 -0.0645
35116SOL    HW1 9804   6.667   1.386   6.370  1.1559  1.3121  1.1909
35116SOL    HW2 9805   6.708   1.526   6.330 -0.5164  0.9171 -2.2543
35117SOL     OW 9806   5.154   5.120   8.540  0.2553 -0.1637  0.3402
35117SOL    HW1 9807   5.241   5.149   8.568  0.4306 -1.0228  0.7168
35117SOL    HW2 9808   5.100   5.128   8.619  0.2156 -0.5053  0.3482
35118SOL     OW 9809   1.464   1.927   2.289  0.2832 -0.7144 -0.0264
35118SOL    HW1 9810   1.418   1.926   2.373 -1.2588 -2.1891 -0.8296
35118SOL    HW2 9811   1.447   2.013   2.253 -0.4212 -0.6400  0.4574
35119SOL     OW 9812   4.004   2.886   5.714  0.0566  0.1577  0.9438
35119SOL    HW1 9813   4.023   2.807   5.664 -1.6218  1.6665 -2.4099
35119SOL    HW2 9814   3.910   2.899   5.702  0.2109  2.4008  1.8015
35120SOL     OW 9815   1.835   5.329   8.529 -0.1447 -0.2859 -0.1281
35120SOL    HW1 9816   1.849   5.389   8.602  3.6357  0.9049 -1.5651
35120SOL    HW2 9817   1.831   5.242   8.570  2.0851  0.3165  1.5793
35121SOL     OW 9818   6.671   8.908  10.852  0.2506  0.1427  0.0555
35121SOL    HW1 9819   6.765   8.911  10.870  0.1655  0.3191  0.4684
35121SOL    HW2 9820   6.634   8.856  10.923 -0.1101  1.0260  0.5358
35122SOL     OW 9821   3.778   7.538   3.175 -0.2764 -0.4429  0.0210
35122SOL    HW1 9822   3.722   7.578   3.107 -0.7011  0.2332  0.7477
35122SOL    HW2 9823   3.761   7.591   3.253 -2.5240 -3.3067  1.6753
35123SOL     OW 9824  10.418  10.760  11.060 -0.2375 -0.3656  0.1842
35123SOL    HW1 9825  10.444  10.834  11.115 -0.8952 -0.8427  1.1546
35123SOL    HW2 9826  10.367  10.801  10.990 -1.6571  0.0115  1.3892
35124SOL     OW 9827   5.408   3.727   8.975  0.1569 -0.1261 -0.0011
35124SOL    HW1 9828   5.394   3.659   8.909 -1.2939  0.3005 -0.1890
35124SOL    HW2 9829   5.411   3.679   9.058 -0.8306 -0.4396 -0.1303
35125SOL     OW 9830   6.676   4.055   6.480  0.6253  0.2257  0.0365
35125SOL    HW1 9831   6.641   4.022   6.563 -0.7272  1.2938 -0.0679
35125SOL    HW2 9832   6.770   4.066   6.497  0.8391 -2.0009  0.5782
35126SOL     OW 9833   9.899   9.866   4.492  0.0205  0.1745 -0.2887
35126SOL    HW1 9834   9.808   9.839   4.500  0.5170 -1.5631 -0.1681
35126SOL    HW2 9835   9.925   9.838   4.404  1.3659 -2.4915  0.8413
35127SOL     OW 9836   4.564  10.268  10.489  0.3288 -0.3894 -1.1446
35127SOL    HW1 9837   4.631  10.244  10.553 -0.3758  1.5260  0.4042
35127SOL    HW2 9838   4.592  10.354  10.456 -1.9736  1.1220  0.5716
35128SOL     OW 9839   5.365   3.921   3.695 -0.1089  0.4166 -0.1351
35128SOL    HW1 9840   5.363   3.982   3.622 -1.4823  0.8640  0.2621
35128SOL    HW2 9841   5.334   3.971   3.770  0.4007 -0.2939  0.5714
35129SOL     OW 9842   8.614   5.145   2.081  0.2066  0.6054 -0.9370
35129SOL    HW1 9843   8.519   5.148   2.089  0.1073 -0.2069 -1.6060
35129SOL    HW2 9844   8.631   5.158   1.988  0.6381 -0.7391 -1.0810
35130SOL     OW 9845   9.695   7.081   0.184  0.6508  0.6026 -0.3706
35130SOL    HW1 9846   9.700   7.171   0.216  0.3121 -0.3920  2.8434
35130SOL    HW2 9847   9.603   7.056   0.193  1.0781 -0.6934  0.9154
35131SOL     OW 9848  10.315   3.316   2.490 -0.4513  0.2716 -0.0278
35131SOL    HW1 9849  10.284   3.262   2.417 -0.6773  0.7400 -0.2775
35131SOL    HW2 9850  10.400   3.350   2.460 -1.3556  1.9478 -0.8390
35132SOL     OW 9851   6.651   2.466   5.268  0.1403  0.4319  0.5103
35132SOL    HW1 9852   6.646   2.468   5.364 -0.9985 -1.3476  0.5278
35132SOL    HW2 9853   6.576   2.414   5.241  0.7123  0.4992 -1.3423
35133SOL     OW 9854   6.381   3.091   9.635  0.3104  0.0093 -0.7001
35133SOL    HW1 9855   6.331   3.131   9.706 -0.5555  1.5678 -2.1184
35133SOL    HW2 9856   6.473   3.107   9.658  0.1921 -1.8057  1.3221
35134SOL     OW 9857  10.225   5.074   2.516  0.6750 -0.6325 -0.2161
35134SOL    HW1 9858  10.292   5.012   2.544  1.4061 -0.5658 -1.7373
35134SOL    HW2 9859  10.155   5.019   2.480  0.9501 -0.6179 -0.7810
35135SOL     OW 9860   0.957   1.169   7.384 -0.4722  0.5041  0.0979
35135SOL    HW1 9861   1.006   1.096   7.422 -0.6023  0.2841 -0.1516
35135SOL    HW2 9862   0.866   1.152   7.408 -0.5517  0.3794 -0.2752
35136SOL     OW 9863   9.968   0.237   6.647  0.3268  0.2764 -0.3041
35136SOL    HW1 9864  10.006   0.194   6.570  0.6313  0.5100 -0.2886
35136SOL    HW2 9865   9.957   0.167   6.711  0.2738  0.1178 -0.4849
35137SOL     OW 9866   4.972   1.895   3.843  0.2661  0.4227  0.6066
35137SOL    HW1 9867   4.900   1.851   3.795  0.8256 -0.7020  0.7578
35137SOL    HW2 9868   4.928   1.950   3.907 -0.4712 -0.1925  0.6414
35138SOL     OW 9869   3.422   0.096   9.188 -0.3696  0.5065  0.2129
35138SOL    HW1 9870   3.392   0.146   9.264  0.0027 -2.2522  2.3289
35138SOL    HW2 9871   3.514   0.078   9.206 -0.2064  0.0347 -1.0323
35139SOL     OW 9872   8.940   5.829   4.784 -0.0952 -0.4260 -0.5047
35139SOL    HW1 9873   8.892   5.787   4.855 -0.5199  0.9242  0.0275
35139SOL    HW2 9874   8.976   5.909   4.822  1.1929 -0.5740 -1.3336
35140SOL     OW 9875  10.397   6.509   5.808  0.4298 -0.2450  0.1718
35140SOL    HW1 9876  10.421   6.598   5.783  0.1486  0.2525  1.5972
35140SOL    HW2 9877  10.356   6.473   5.729 -0.0234  1.1030 -0.2412
35141SOL     OW 9878   6.206   5.133   3.513  1.0732 -0.0019  0.1665
35141SOL    HW1 9879   6.228   5.052   3.558  1.7816  0.2935  0.3724
35141SOL    HW2 9880   6.129   5.111   3.461 -1.4841  0.3318  3.5053
35142SOL     OW 9881   2.642   7.702   5.756 -0.3840 -0.5767 -0.3507
35142SOL    HW1 9882   2.610   7.651   5.830 -0.2645 -0.2941 -0.1048
35142SOL    HW2 9883   2.713   7.755   5.791 -3.3353  3.1985  0.5775
35143SOL     OW 9884   9.819   6.639   8.494  0.1313  0.0612  0.2560
35143SOL    HW1 9885   9.772   6.717   8.525 -1.7877 -0.6001 -0.8036
35143SOL    HW2 9886   9.820   6.648   8.399  0.9604 -0.6496  0.1845
35144SOL     OW 9887   8.142   8.842   8.999 -0.0074 -0.2136 -0.3078
35144SOL    HW1 9888   8.090   8.809   8.926  0.0605 -0.6663 -0.1541
35144SOL    HW2 9889   8.154   8.767   9.057 -1.8886  0.5981  1.2747
35145SOL     OW 9890   1.766   0.152   2.937  0.7104  0.1882  0.5603
35145SOL    HW1 9891   1.823   0.076   2.927 -1.1043 -1.3138  1.1643
35145SOL    HW2 9892   1.753   0.160   3.032 -2.1711 -1.1984  0.3796
35146SOL     OW 9893   5.234   1.399   7.087 -0.1215  0.3823 -0.3833
35146SOL    HW1 9894   5.150   1.387   7.132 -0.1550 -1.8093 -0.9319
35146SOL    HW2 9895   5.211   1.433   7.001 -0.5515 -1.0480 -0.8556
35147SOL     OW 9896   0.976   3.019   6.606  0.6716 -0.5916  0.3246
35147SOL    HW1 9897   1.013   2.935   6.579  0.8694 -0.1049 -1.0535
35147SOL    HW2 9898   0.901   3.032   6.548  2.0504  1.2371 -1.1852
35148SOL     OW 9899  10.536   3.591   3.965  0.1364  0.3489  0.2131
35148SOL    HW1 9900  10.621   3.548   3.951 -0.0927  0.0618 -0.3344
35148SOL    HW2 9901  10.554   3.684   3.951 -0.2449  0.0554 -3.2693
35149SOL     OW 9902   9.154   3.158   3.621  0.1706 -0.2265  0.3259
35149SOL    HW1 9903   9.247   3.137   3.608  0.3190  0.1700  0.7313
35149SOL    HW2 9904   9.151   3.203   3.705 -0.1578  1.2299 -0.4345
35150SOL     OW 9905   2.002   2.565   8.668  0.1135 -0.0604  0.0518
35150SOL    HW1 9906   1.945   2.489   8.657  0.2488 -0.1869  0.2095
35150SOL    HW2 9907   2.060   2.562   8.592  3.3191 -2.8925  2.2741
35151SOL     OW 9908   9.532  10.768   5.986 -0.0025 -0.9776 -0.0848
35151SOL    HW1 9909   9.489  10.825   6.050  0.9095  0.3976 -0.6510
35151SOL    HW2 9910   9.584  10.708   6.040 -0.4431 -0.8353  0.5099
35152SOL     OW 9911  10.390   9.741   8.424  0.2166 -0.2006 -0.3476
35152SOL    HW1 9912  10.461   9.679   8.438  1.3610  0.8091 -1.3825
35152SOL    HW2 9913  10.428   9.826   8.447 -0.1686  0.5423 -2.2455
35153SOL     OW 9914   7.968   6.984   1.073 -0.0760  0.2031  0.0490
35153SOL    HW1 9915   7.981   6.899   1.031 -1.6970  1.2571 -2.8818
35153SOL    HW2 9916   8.014   7.046   1.016 -0.5633  1.5247  1.0410
35154SOL     OW 9917   9.107   5.296   7.232  0.3533  0.1247 -0.0780
35154SOL    HW1 9918   9.132   5.284   7.324  1.0570 -1.5555 -0.4488
35154SOL    HW2 9919   9.189   5.292   7.184 -0.1745 -0.8866 -0.9332
35155SOL     OW 9920   5.110   7.462   7.772 -0.2227  0.1611 -0.5397
35155SOL    HW1 9921   5.115   7.556   7.756 -0.3910  0.3021  0.1837
35155SOL    HW2 9922   5.122   7.454   7.867 -2.9764 -0.3025 -0.1571
35156SOL     OW 9923  10.110  10.465  10.624  0.5246  0.5054  0.2263
35156SOL    HW1 9924  10.036  10.412  10.596 -0.6112  1.1914  1.8245
35156SOL    HW2 9925  10.146  10.419  10.700  0.7075  1.0397  0.4684
35157SOL     OW 9926  10.333   7.902   7.498 -0.0567  0.2055 -0.2889
35157SOL    HW1 9927  10.289   7.923   7.415 -1.2855  1.3435  0.6105
35157SOL    HW2 9928  10.309   7.811   7.515 -0.4517  0.2056 -0.7946
35158SOL     OW 9929  10.978  10.665  10.037  0.0592 -0.1601 -0.0316
35158SOL    HW1 9930  11.014  10.716  10.110  0.4051 -3.4992  2.3544
35158SOL    HW2 9931  11.032  10.689   9.962 -0.3576  3.4861  0.6227
35159SOL     OW 9932   3.164   6.271   7.420  0.1100 -0.2278  0.0688
35159SOL    HW1 9933   3.169   6.304   7.510 -0.1353 -2.0190  0.7892
35159SOL    HW2 9934   3.102   6.198   7.425  2.5539 -2.5077 -0.8501
35160SOL     OW 9935   4.736  10.706  10.199 -0.4682  0.5162 -0.0241
35160SOL    HW1 9936   4.795  10.735  10.129 -0.8948  0.9282 -0.2147
35160SOL    HW2 9937   4.790  10.648  10.253  0.0433  0.6921 -0.3388
35161SOL     OW 9938   4.764   0.077   7.493 -0.0079 -0.2329  0.7346
35161SOL    HW1 9939   4.708   0.016   7.540 -0.2646 -0.1214  0.5735
35161SOL    HW2 9940   4.762   0.046   7.402  0.0053 -0.0901  0.6859
35162SOL     OW 9941   6.247   4.933   7.822 -0.6748 -0.7837  0.3743
35162SOL    HW1 9942   6.295   4.851   7.833 -3.3375 -2.1832  3.1841
35162SOL    HW2 9943   6.171   4.910   7.769 -1.6880 -0.3135  1.5714
35163SOL     OW 9944   7.936   6.428   7.354  0.0160  0.0699 -0.2658
35163SOL    HW1 9945   7.936   6.392   7.443 -1.1782 -0.6318 -0.5199
35163SOL    HW2 9946   8.001   6.498   7.356  0.4371 -0.3288  0.9957
35164SOL     OW 9947   0.813   5.300   0.071 -0.3605 -0.0078  0.0254
35164SOL    HW1 9948   0.894   5.314   0.120  1.2323 -0.4761 -2.2951
35164SOL    HW2 9949   0.786   5.387   0.042 -0.4269  0.0988  0.4057
35165SOL     OW 9950   7.402   3.580   0.302 -0.8014  0.2315  0.0862
35165SOL    HW1 9951   7.319   3.595   0.256 -1.2522  2.1075  1.3763
35165SOL    HW2 9952   7.454   3.658   0.284  0.7035 -0.8706 -0.6147
35166SOL     OW 9953   0.922   2.014   3.012  0.2805  0.0461  0.2039
35166SOL    HW1 9954   0.930   2.092   3.066 -0.0457  0.3846 -0.2343
35166SOL    HW2 9955   0.866   2.040   2.939  1.4062 -0.1487 -0.7645
35167SOL     OW 9956   4.622   3.519   3.620  0.1179  0.3775 -0.2336
35167SOL    HW1 9957   4.539   3.551   3.584  0.8735  1.5876 -0.9934
35167SOL    HW2 9958   4.640   3.438   3.573 -0.6326  0.0943 -0.0472
35168SOL     OW 9959   7.613   7.165   4.568  0.4210 -0.1649  0.0284
35168SOL    HW1 9960   7.540   7.109   4.595  0.8463 -0.4590  0.5961
35168SOL    HW2 9961   7.680   7.104   4.535  0.7533  0.0326  0.3279
35169SOL     OW 9962   1.001   5.069   3.976  0.2657 -0.8768  0.2590
35169SOL    HW1 9963   1.076   5.123   3.950  0.8374 -1.9735 -0.4066
35169SOL    HW2 9964   1.037   5.005   4.037 -0.3252 -0.8048  0.6934
35170SOL     OW 9965   2.852   3.774   2.192  0.3056  0.3867  0.1279
35170SOL    HW1 9966   2.836   3.811   2.105  0.3436 -0.3793 -0.2128
35170SOL    HW2 9967   2.773   3.724   2.212  0.9248 -0.7523 -0.1697
35171SOL     OW 9968   1.051   3.810   9.177  0.0169 -0.4613 -0.1631
35171SOL    HW1 9969   0.977   3.868   9.196  1.2086  1.2790 -0.5882
35171SOL    HW2 9970   1.128   3.864   9.193  1.1964 -2.1225 -0.0785
35172SOL     OW 9971   0.815   1.254   7.049 -0.1610  0.6010 -0.5310
35172SOL    HW1 9972   0.826   1.168   7.090  0.4229 -0.9861 -3.7147
35172SOL    HW2 9973   0.736   1.245   6.996 -1.0635  2.6658  0.3493
35173SOL     OW 9974   3.694   2.571   0.902  0.1638  0.5157  0.2621
35173SOL    HW1 9975   3.786   2.590   0.918  0.4544 -1.6606  1.6260
35173SOL    HW2 9976   3.649   2.655   0.916  1.7862  1.3358  0.7904
35174SOL     OW 9977   9.586   5.871   8.148 -0.5720  0.1842  0.2403
35174SOL    HW1 9978   9.600   5.823   8.230 -0.8727 -0.2407  0.0520
35174SOL    HW2 9979   9.655   5.936   8.146  0.5566 -0.9761 -0.0348
35175SOL     OW 9980   3.787   7.743   4.171  0.1022 -0.8556  0.8910
35175SOL    HW1 9981   3.846   7.700   4.233  1.2540 -0.6493 -0.0302
35175SOL    HW2 9982   3.764   7.675   4.108  2.3461 -0.0776 -0.8712
35176SOL     OW 9983   0.456  10.851  10.624  0.0956  0.4380 -0.0614
35176SOL    HW1 9984   0.497  10.886  10.703 -2.0392  0.7659  0.9626
35176SOL    HW2 9985   0.463  10.921  10.559 -0.8984  1.3834  0.8290
35177SOL     OW 9986   4.090  10.782   9.609 -0.5117  0.1026 -0.3558
35177SOL    HW1 9987   4.150  10.812   9.678 -1.5064 -0.3852  0.7404
35177SOL    HW2 9988   4.028  10.725   9.654 -1.8870  0.6866 -1.4460
35178SOL     OW 9989   1.262   1.908   9.559  0.0194 -0.3623  0.0831
35178SOL    HW1 9990   1.196   1.910   9.627 -0.6818 -1.8052 -0.5048
35178SOL    HW2 9991   1.265   1.816   9.531  0.7603  0.0640 -1.3548
35179SOL     OW 9992   2.909   3.859   8.958 -0.5119  0.3319 -0.4681
35179SOL    HW1 9993   2.994   3.890   8.927  0.4699 -0.2608  1.4577
35179SOL    HW2 9994   2.859   3.939   8.976 -0.9490  0.6959 -2.9068
35180SOL     OW 9995   3.448   1.376   1.396 -0.0578  0.3589 -0.0990
35180SOL    HW1 9996   3.471   1.399   1.486 -0.1438 -1.0513  0.3013
35180SOL    HW2 9997   3.532   1.369   1.351  0.0632 -0.2420  0.2120
35181SOL     OW 9998   7.736   0.197   0.224 -0.0134  0.0681 -0.0227
35181SOL    HW1 9999   7.829   0.177   0.219 -0.5474 -2.8606  0.1527
35181SOL    HW210000   7.725   0.241   0.308  1.1259  0.1214  0.1086
35182SOL     OW10001   9.147   1.932   4.267  0.0162  0.6105  0.2264
35182SOL    HW110002   9.113   1.955   4.181  0.0200  1.6571  0.4962
35182SOL    HW210003   9.146   2.014   4.317 -1.0890 -0.1825  1.6045
35183SOL     OW10004   9.891   3.646   6.254 -0.6172  0.1714 -0.1330
35183SOL    HW110005   9.985   3.642   6.237 -0.7625  1.7655 -1.5947
35183SOL    HW210006   9.882   3.632   6.348  1.2444  1.8036  0.3404
35184SOL     OW10007   2.427   8.257   4.776 -0.4345  0.8990 -0.1544
35184SOL    HW110008   2.467   8.210   4.850 -2.0520  1.1723  0.9538
35184SOL    HW210009   2.455   8.208   4.699  0.3602 -0.0973  0.7261
35185SOL     OW10010   2.243   5.050   3.578  0.3997 -0.1815 -0.2319
35185SOL    HW110011   2.280   5.131   3.614  2.7438 -0.3710 -1.9656
35185SOL    HW210012   2.296   4.980   3.616 -1.1686 -0.9186  0.7184
35186SOL     OW10013  10.878   2.031   8.524  0.1762  0.1073 -0.4568
35186SOL    HW110014  10.890   1.981   8.444  0.8778 -0.7451  0.1600
35186SOL    HW210015  10.862   2.121   8.495  0.4347 -0.1917 -1.5404
35187SOL     OW10016   6.139  10.027   8.388  0.2523  0.5493  0.0692
35187SOL    HW110017   6.138  10.122   8.397  1.4379  0.5012  0.8272
35187SOL    HW210018   6.228  10.006   8.361 -0.2465 -0.2866 -1.0211
35188SOL     OW10019   0.521   7.525   1.666 -0.5464  0.3112 -0.3141
35188SOL    HW110020   0.568   7.470   1.603 -1.3705 -1.1191  0.2864
35188SOL    HW210021   0.565   7.509   1.750 -0.9563  0.3870 -0.0840
35189SOL     OW10022   9.383   7.564   4.165  0.4473  0.0854 -0.3364
35189SOL    HW110023   9.475   7.553   4.138 -0.3936 -1.2856 -2.9359
35189SOL    HW210024   9.361   7.481   4.208  0.2516  0.1980 -0.2171
35190SOL     OW10025   1.498  10.073   0.879 -0.0663  0.4441  0.1921
35190SOL    HW110026   1.471  10.017   0.952  0.6907  0.3116  0.3752
35190SOL    HW210027   1.567  10.128   0.916  1.4787 -0.7231 -0.8187
35191SOL     OW10028   9.487   7.372   3.734 -0.2891  0.0925  0.2268
35191SOL    HW110029   9.468   7.321   3.813 -2.0452 -0.8063 -0.7038
35191SOL    HW210030   9.581   7.363   3.721 -0.2413 -1.1885  1.2555
35192SOL     OW10031   3.553   5.940   6.529  0.5467 -0.3619 -0.3876
35192SOL    HW110032   3.465   5.952   6.495 -0.0902  0.6461  1.4709
35192SOL    HW210033   3.541   5.898   6.614  1.7719  0.5020  0.2590
35193SOL     OW10034   9.045   9.288   6.808  0.1448 -0.1872 -0.3342
35193SOL    HW110035   9.129   9.298   6.762  0.5941 -1.7553  0.0856
35193SOL    HW210036   8.985   9.255   6.742 -0.3549  1.5028 -0.7900
35194SOL     OW10037   1.004   5.485   0.611 -0.3297  0.2983 -0.2537
35194SOL    HW110038   1.058   5.409   0.629  0.4392  0.7672 -0.5292
35194SOL    HW210039   0.954   5.500   0.691  0.0703 -0.0450  0.0580
35195SOL     OW10040   0.648   3.750   3.145  0.1079  0.0732 -0.0067
35195SOL    HW110041   0.663   3.761   3.051  1.1595 -0.2546  0.1164
35195SOL    HW210042   0.616   3.835   3.175  2.1196  0.9449 -0.2098
35196SOL     OW10043   5.422  10.261  10.646  0.0534  0.5896  0.4348
35196SOL    HW110044   5.330  10.270  10.622  0.5954  0.0762 -2.1486
35196SOL    HW210045   5.450  10.179  10.604  1.7409  0.8527  0.9713
35197SOL     OW10046   9.317   4.416   7.574 -0.0954  0.6661 -0.3562
35197SOL    HW110047   9.326   4.445   7.665 -0.3042  0.8448 -0.3933
35197SOL    HW210048   9.287   4.325   7.582  0.8802  0.3408 -0.2393
35198SOL     OW10049   9.100   5.735   9.658  0.3532 -0.1463 -0.4730
35198SOL    HW110050   9.136   5.805   9.713 -0.9124 -0.0340  0.2627
35198SOL    HW210051   9.158   5.661   9.672  0.4525  0.0980  0.4925
35199SOL     OW10052   6.430   2.477   8.770 -0.1910 -0.1970 -0.3194
35199SOL    HW110053   6.348   2.428   8.767 -0.8319  0.8886 -1.2377
35199SOL    HW210054   6.404   2.567   8.785  1.0727 -0.2979  3.5151
35200SOL     OW10055   7.907   6.992   8.256  0.1928 -0.7704  0.8115
35200SOL    HW110056   7.870   7.054   8.192  3.3921  1.4653  0.8705
35200SOL    HW210057   7.845   6.995   8.330 -2.0685 -1.1879 -0.9525
35201SOL     OW10058  10.597  10.625   4.567  0.7659  0.3949 -0.0977
35201SOL    HW110059  10.675  10.672   4.536  1.1260 -0.1379 -0.0148
35201SOL    HW210060  10.583  10.557   4.501  0.9621 -0.1334  0.3998
35202SOL     OW10061   7.264   9.212   9.946 -0.5005 -0.3245 -0.0030
35202SOL    HW110062   7.176   9.178   9.926 -0.4446 -0.5377  0.1101
35202SOL    HW210063   7.289   9.167  10.027  0.6584 -2.0018 -1.2275
35203SOL     OW10064   7.757   3.440  10.989  0.1338 -0.6808  0.3699
35203SOL    HW110065   7.828   3.429  11.052 -1.3282 -1.7480  1.8977
35203SOL    HW210066   7.710   3.518  11.018  0.0112 -0.6250  0.0287
35204SOL     OW10067   5.673   3.584   0.891 -0.0228  0.6376  0.0326
35204SOL    HW110068   5.710   3.673   0.894 -0.0239  0.6496 -0.2504
35204SOL    HW210069   5.692   3.554   0.802  0.2175  0.2497  0.2132
35205SOL     OW10070   6.632   7.088   4.715 -0.6384  0.2739  0.2869
35205SOL    HW110071   6.617   7.092   4.621 -1.4671  1.4910  0.4443
35205SOL    HW210072   6.647   6.995   4.734 -0.1391  0.0614 -1.0830
35206SOL     OW10073   4.412   2.309   9.057  0.1207 -0.3950  0.2646
35206SOL    HW110074   4.502   2.284   9.078  0.7982  1.4142 -0.2741
35206SOL    HW210075   4.380   2.238   9.002  1.4335 -0.8171 -0.0070
35207SOL     OW10076   1.017   1.495   4.348 -0.5164  0.0384 -0.0873
35207SOL    HW110077   0.962   1.526   4.419 -0.9183  0.5752 -0.6290
35207SOL    HW210078   1.099   1.544   4.358  0.9493 -2.6159  2.3118
35208SOL     OW10079   1.620   5.172   3.950 -0.4164 -0.1360  0.3586
35208SOL    HW110080   1.555   5.110   3.985 -0.2220 -0.7113 -0.2867
35208SOL    HW210081   1.587   5.196   3.864  0.1077 -0.2429  0.1265
35209SOL     OW10082   9.265  10.198   3.415  0.3483  0.7473 -0.4403
35209SOL    HW110083   9.343  10.146   3.438  0.6636  1.4229  0.0503
35209SOL    HW210084   9.194  10.134   3.416  0.4763  0.5553  1.6617
35210SOL     OW10085   3.853  10.764   3.511  0.0078  0.2597  0.0238
35210SOL    HW110086   3.786  10.774   3.579 -0.8609 -2.4562 -0.3347
35210SOL    HW210087   3.807  10.781   3.429 -0.2765 -1.4762 -0.2130
35211SOL     OW10088   1.733   0.615   7.918 -0.4626  0.4802 -0.3157
35211SOL    HW110089   1.702   0.525   7.914 -2.4069  1.1537 -1.3203
35211SOL    HW210090   1.699   0.649   8.001  0.0885  0.3696 -0.0383
35212SOL     OW10091   7.655   6.960   9.488 -0.1385 -0.7772 -0.5826
35212SOL    HW110092   7.703   7.016   9.549 -1.4938 -0.1910 -0.0308
35212SOL    HW210093   7.723   6.908   9.446  1.0280  0.2972 -0.1018
35213SOL     OW10094   4.356   6.869   4.622  0.2816  0.1328 -0.5958
35213SOL    HW110095   4.270   6.911   4.613  0.1372  0.0332  0.1844
35213SOL    HW210096   4.393   6.908   4.701 -0.3628 -2.0067  0.8692
35214SOL     OW10097   7.789   6.684  10.914 -0.1805  0.1040 -0.3588
35214SOL    HW110098   7.770   6.772  10.946 -0.3057 -1.0626  3.1801
35214SOL    HW210099   7.844   6.645  10.982  0.7961 -2.2447 -2.3338
35215SOL     OW10100   5.737   3.241   3.237 -0.5461  0.8006  0.0504
35215SOL    HW110101   5.734   3.157   3.190 -0.8989  0.3201  0.9120
35215SOL    HW210102   5.672   3.295   3.192 -1.9890 -0.1618  0.8958
35216SOL     OW10103   5.263   0.258   5.761 -0.1206 -0.1069  0.1671
35216SOL    HW110104   5.325   0.196   5.723 -1.2267 -1.7110  0.8599
35216SOL    HW210105   5.243   0.320   5.690  0.7485 -0.7501 -0.6547
35217SOL     OW10106   2.019   7.819   6.253  0.5192 -0.0845  0.7324
35217SOL    HW110107   1.998   7.911   6.236  0.3780 -0.1860  0.3597
35217SOL    HW210108   2.115   7.816   6.253  0.5371 -0.1805 -0.6183
35218SOL     OW10109   3.210  10.989   7.825  0.3393  0.7060  0.0499
35218SOL    HW110110   3.287  10.939   7.801  0.1131 -0.8171  2.1686
35218SOL    HW210111   3.163  10.933   7.887 -1.6714  2.2171  0.0198
35219SOL     OW10112  10.239   8.982   6.360  0.0311 -0.4211  0.0732
35219SOL    HW110113  10.310   9.032   6.399  1.3900 -1.2652 -1.2021
35219SOL    HW210114  10.201   8.933   6.433  0.3198  0.5342  0.8818
35220SOL     OW10115   5.313   5.514   1.841  0.4222 -0.7209  0.2805
35220SOL    HW110116   5.405   5.542   1.848  0.4573 -0.3616 -1.2179
35220SOL    HW210117   5.273   5.577   1.782  0.3987 -3.4289 -2.9222
35221SOL     OW10118   4.304   8.993  10.886  0.1844  0.0847  0.1305
35221SOL    HW110119   4.295   8.954  10.973 -1.7923 -0.4807 -0.2685
35221SOL    HW210120   4.266   8.927  10.827 -1.8478  1.9114 -0.7344
35222SOL     OW10121  10.727   4.002   3.722 -0.9698  0.4253  0.2892
35222SOL    HW110122  10.798   3.966   3.668 -0.5666  2.9976 -1.0725
35222SOL    HW210123  10.661   3.932   3.725 -1.1072  0.1314 -3.7849
35223SOL     OW10124   8.237  10.621  10.483  0.5847  0.0246 -0.0593
35223SOL    HW110125   8.280  10.565  10.418 -0.2348  0.0433 -0.6268
35223SOL    HW210126   8.148  10.634  10.450  0.1683  0.0971  1.0298
35224SOL     OW10127   0.577   0.571   6.421 -0.9037  0.2683  0.2192
35224SOL    HW110128   0.560   0.609   6.334 -1.0904  0.7424  0.4586
35224SOL    HW210129   0.528   0.489   6.421 -0.9972  0.3211 -0.0794
35225SOL     OW10130   2.836   0.020   2.903  0.5564  0.1563 -0.2494
35225SOL    HW110131   2.930   0.017   2.885  1.1595  1.3721  2.4018
35225SOL    HW210132   2.819  -0.059   2.955  0.3303  0.5338  0.2494
35226SOL     OW10133  11.051   0.739  10.751 -0.4530 -0.0751 -0.5674
35226SOL    HW110134  11.111   0.774  10.816  0.1376  0.4967 -1.3966
35226SOL    HW210135  11.075   0.646  10.744  0.8409  0.2980 -1.4042
35227SOL     OW10136   2.296   2.616   9.806  0.4002  0.4308  0.2133
35227SOL    HW110137   2.201   2.603   9.814  0.0798  0.8931 -2.2382
35227SOL    HW210138   2.321   2.653   9.891 -1.5714  0.1523  0.9879
35228SOL     OW10139   5.508   4.869   3.225  0.1801 -0.0940 -0.3657
35228SOL    HW110140   5.477   4.951   3.264 -0.8102 -1.4496  1.8509
35228SOL    HW210141   5.569   4.834   3.289 -1.4992 -2.4201  0.0528
35229SOL     OW10142   8.765   4.189  10.489 -0.3318  0.1478 -0.4986
35229SOL    HW110143   8.686   4.202  10.436 -1.0067 -2.5728 -0.2683
35229SOL    HW210144   8.736   4.197  10.579 -0.6690 -1.9609 -0.3654
35230SOL     OW10145   6.202   4.736   8.206 -0.0697  0.0875  0.2329
35230SOL    HW110146   6.167   4.735   8.116 -0.0322  0.2785  0.2171
35230SOL    HW210147   6.294   4.761   8.195  0.8551 -2.9891 -0.0129
35231SOL     OW10148   7.961   2.193   0.351  0.3701 -0.2971 -0.2783
35231SOL    HW110149   7.934   2.265   0.293 -0.4206  0.8977  1.4899
35231SOL    HW210150   8.039   2.157   0.309  0.1847  0.9096 -1.7627
35232SOL     OW10151   2.742   3.015   4.071 -0.1908  0.5395  0.0412
35232SOL    HW110152   2.790   2.961   4.134  0.7854  1.2447 -0.0718
35232SOL    HW210153   2.656   3.027   4.111 -0.0474 -0.1594  0.5878
35233SOL     OW10154   1.533   3.458   4.957 -0.1808 -0.3060  0.0694
35233SOL    HW110155   1.500   3.396   5.022  2.5034 -1.1448  0.7754
35233SOL    HW210156   1.540   3.407   4.877 -1.3868  0.1182 -0.3207
35234SOL     OW10157   3.309   6.146   3.950  0.2528  0.2328  0.6447
35234SOL    HW110158   3.336   6.195   4.027  0.3224 -1.7417  1.9431
35234SOL    HW210159   3.298   6.056   3.981 -1.6582 -0.2593 -1.2125
35235SOL     OW10160  10.142   9.588   4.312  0.0775  0.3504 -0.0690
35235SOL    HW110161  10.088   9.666   4.319 -1.0727 -0.2856 -1.3948
35235SOL    HW210162  10.127   9.555   4.224  1.4775 -0.7056  0.0379
35236SOL     OW10163   7.637   6.307   1.283  0.2890  0.0095  0.4151
35236SOL    HW110164   7.621   6.384   1.229 -0.4761  0.0066  0.6352
35236SOL    HW210165   7.718   6.328   1.331  1.4184 -0.2995 -1.2698
35237SOL     OW10166   1.040  10.701   3.171 -0.5793 -0.1649  0.2662
35237SOL    HW110167   1.056  10.654   3.089 -2.6149  0.7098 -0.7040
35237SOL    HW210168   0.964  10.657   3.210  0.3833 -0.5931  1.7255
35238SOL     OW10169   8.749   6.125   8.024  0.5439 -0.1297  0.0974
35238SOL    HW110170   8.674   6.097   8.076 -0.1979  1.1968 -0.2020
35238SOL    HW210171   8.716   6.126   7.934  0.8288  0.7235 -0.0023
35239SOL     OW10172   9.294   3.699   9.091 -0.2379 -0.5646  0.4490
35239SOL    HW110173   9.351   3.623   9.083 -1.1013 -1.0980 -0.7854
35239SOL    HW210174   9.222   3.683   9.030  0.3712  1.9689 -1.0889
35240SOL     OW10175   2.218  10.933   8.114 -0.3007 -0.1067 -0.1392
35240SOL    HW110176   2.312  10.917   8.106  0.3091  2.0334  1.7945
35240SOL    HW210177   2.192  10.967   8.028  0.1186 -2.8487 -1.4641
35241SOL     OW10178   8.463   4.744   0.915  0.1295 -0.2317  0.1531
35241SOL    HW110179   8.518   4.821   0.932 -0.2925  0.0559  0.2152
35241SOL    HW210180   8.452   4.743   0.820  0.9203 -0.7625  0.0566
35242SOL     OW10181  10.429   6.314   3.907  0.5500 -0.1138  0.0871
35242SOL    HW110182  10.465   6.337   3.821 -0.2169 -0.2733 -0.2862
35242SOL    HW210183  10.425   6.219   3.906  2.1459 -0.2245  0.9804
35243SOL     OW10184   2.478   4.174   3.330  0.4481  0.8489 -0.3815
35243SOL    HW110185   2.383   4.187   3.330 -0.0453 -1.3472  3.1633
35243SOL    HW210186   2.510   4.227   3.403  2.0556  1.8338 -1.7452
35244SOL     OW10187   3.463   8.441   3.082  0.1576 -0.0656  0.0389
35244SOL    HW110188   3.557   8.426   3.074 -0.1988 -3.2167  0.3762
35244SOL    HW210189   3.456   8.518   3.139  2.5742 -1.0264  1.8232
35245SOL     OW10190   4.220   8.622   6.257 -0.1489 -0.0208 -0.3582
35245SOL    HW110191   4.131   8.657   6.267 -0.4001 -0.3443 -1.3872
35245SOL    HW210192   4.246   8.647   6.169 -0.3453 -2.3673 -1.1418
35246SOL     OW10193   8.271   9.901   2.771  0.6244 -0.3411  0.3818
35246SOL    HW110194   8.294   9.958   2.698 -1.5181 -1.4694 -1.2858
35246SOL    HW210195   8.243   9.960   2.841 -2.5096  0.8191 -1.6312
35247SOL     OW10196   1.882   0.986   2.207  0.2559 -0.1522 -0.3583
35247SOL    HW110197   1.821   1.052   2.240  0.0776 -0.3613 -0.2711
35247SOL    HW210198   1.908   0.937   2.285  0.5896 -0.0212 -0.3828
35248SOL     OW10199   7.322   0.308   8.065 -0.4909 -0.2030 -0.0829
35248SOL    HW110200   7.237   0.269   8.044  0.0404 -1.3802 -0.1410
35248SOL    HW210201   7.304   0.401   8.076 -1.4830 -0.1488 -1.8228
35249SOL     OW10202   8.791   1.982   1.642  0.1943 -0.0350  0.3029
35249SOL    HW110203   8.716   1.955   1.589  0.5886 -0.2663 -0.1445
35249SOL    HW210204   8.753   2.003   1.728 -0.6739  1.6640 -0.4356
35250SOL     OW10205   9.550   0.417   2.838 -0.4199  0.0879  0.0283
35250SOL    HW110206   9.518   0.489   2.892 -2.2811 -0.4720 -0.2700
35250SOL    HW210207   9.560   0.344   2.899  2.2486  0.7457  0.4891
35251SOL     OW10208   2.311   4.267   1.227  0.0323  0.2088  0.0715
35251SOL    HW110209   2.398   4.225   1.225 -0.1967 -0.2635 -0.4269
35251SOL    HW210210   2.302   4.305   1.139 -0.1127  0.5845  0.2479
35252SOL     OW10211   1.352   1.264   7.857  0.4802  0.6508  0.2680
35252SOL    HW110212   1.444   1.278   7.836  0.6324 -0.8244 -0.1569
35252SOL    HW210213   1.353   1.196   7.925 -0.3413 -2.3443 -2.4741
35253SOL     OW10214   2.632   2.801   6.112 -0.2545 -0.1283  0.0242
35253SOL    HW110215   2.618   2.785   6.018  0.1263  0.2783 -0.1100
35253SOL    HW210216   2.640   2.714   6.151  3.7849 -0.4357 -0.9819
35254SOL     OW10217   6.230   5.997  10.736 -0.1255 -0.8208  0.0494
35254SOL    HW110218   6.304   5.959  10.784  0.2653 -0.2080 -0.0575
35254SOL    HW210219   6.173   5.922  10.716  0.9724 -1.4551 -0.7820
35255SOL     OW10220   0.059  10.982   7.121 -1.0460 -0.4900  0.4817
35255SOL    HW110221   0.095  11.014   7.204 -0.0564 -0.3171 -0.0031
35255SOL    HW210222  -0.023  10.938   7.146 -0.6340 -0.6650  1.5786
35256SOL     OW10223   3.570   9.742   5.216  0.2934 -0.1736  0.2083
35256SOL    HW110224   3.626   9.696   5.153 -0.7785 -0.3596 -0.6300
35256SOL    HW210225   3.481   9.730   5.183 -0.0584  2.5853 -0.1500
35257SOL     OW10226   8.271   5.187  10.758 -0.0977 -0.3381 -0.2067
35257SOL    HW110227   8.286   5.126  10.831 -1.5387  1.9668  2.2062
35257SOL    HW210228   8.224   5.135  10.693 -0.6857 -1.9790  1.4381
35258SOL     OW10229   9.087  10.757   1.782  0.2693 -0.4468 -0.0505
35258SOL    HW110230   9.037  10.676   1.788  0.8939 -0.8165  0.3748
35258SOL    HW210231   9.023  10.824   1.762 -0.5521 -0.7475  1.4189
35259SOL     OW10232   8.200   0.717   3.653  0.0069 -0.0623 -0.5724
35259SOL    HW110233   8.193   0.768   3.572 -0.9487 -0.3827 -0.7148
35259SOL    HW210234   8.217   0.627   3.623 -2.4255 -0.6038 -0.5880
35260SOL     OW10235   5.373   8.577   8.840  0.3161  0.3368  0.2249
35260SOL    HW110236   5.425   8.559   8.918 -0.3513 -1.6672  0.2668
35260SOL    HW210237   5.283   8.574   8.870  0.0914  0.9371 -0.3697
35261SOL     OW10238   5.607   5.778   4.332  0.0129  0.3573  0.0440
35261SOL    HW110239   5.694   5.776   4.372 -0.0160  0.2884  0.1045
35261SOL    HW210240   5.549   5.741   4.399 -0.0552  0.3599 -0.0138
35262SOL     OW10241   0.401   6.066   0.018 -0.2649  0.0549  0.1533
35262SOL    HW110242   0.310   6.095   0.011 -0.3726  0.2553  1.9071
35262SOL    HW210243   0.425   6.042  -0.071 -1.9566  0.2214 -0.3911
35263SOL     OW10244  10.161   6.840   3.892 -0.1801  0.2075 -0.1282
35263SOL    HW110245  10.251   6.810   3.902 -0.3582  0.0753  1.3218
35263SOL    HW210246  10.107   6.763   3.914 -0.6318  0.6645  0.4102
35264SOL     OW10247   4.232   8.819   9.884  0.3851  0.0107  1.0735
35264SOL    HW110248   4.197   8.842   9.970 -2.5119  0.9824 -0.2593
35264SOL    HW210249   4.274   8.899   9.852  0.9381 -0.1786  1.3095
35265SOL     OW10250  10.978   1.913   4.912 -0.0723 -0.1810  0.4833
35265SOL    HW110251  10.935   1.997   4.897  0.2665  0.0067  0.5598
35265SOL    HW210252  10.960   1.892   5.004  0.3929  0.1233  0.6457
35266SOL     OW10253   2.118   5.164   3.349  0.4879  0.2992 -0.2859
35266SOL    HW110254   2.152   5.095   3.405  0.5721 -0.8764 -1.7204
35266SOL    HW210255   2.195   5.212   3.320  0.6164 -0.1857 -0.7649
35267SOL     OW10256   8.570   6.794   9.999  0.3828 -0.2544 -0.1103
35267SOL    HW110257   8.481   6.797  10.034  1.3057 -0.4170  2.4792
35267SOL    HW210258   8.616   6.865  10.044  1.7846 -0.7710 -0.6799
35268SOL     OW10259   9.387   7.106   0.972  0.7806  0.4473 -0.3589
35268SOL    HW110260   9.469   7.112   0.924  0.8700 -1.9424 -0.6483
35268SOL    HW210261   9.413   7.101   1.064  0.7261  2.7931 -0.1555
35269SOL     OW10262   0.661   9.494   3.390  0.2254  0.0198  0.4535
35269SOL    HW110263   0.687   9.419   3.444 -0.5847 -0.3538  0.3369
35269SOL    HW210264   0.568   9.480   3.372  0.3215  0.4798 -0.4836
35270SOL     OW10265   3.235   0.617   6.853  0.0198  0.7116  0.3721
35270SOL    HW110266   3.264   0.705   6.832  0.1691  0.4409 -0.6007
35270SOL    HW210267   3.157   0.603   6.800 -0.2919  0.4337  0.8912
35271SOL     OW10268   1.736   9.405   0.803 -0.2533 -0.1704 -0.1799
35271SOL    HW110269   1.700   9.317   0.792 -0.3341 -0.2447  0.6453
35271SOL    HW210270   1.769   9.407   0.892 -0.5665  0.7450 -0.0676
35272SOL     OW10271  10.226   6.551  10.420 -0.4111 -0.1531  0.4186
35272SOL    HW110272  10.277   6.563  10.341 -1.9060  1.6932 -0.3530
35272SOL    HW210273  10.230   6.457  10.438  1.8968 -0.2757 -0.4606
35273SOL     OW10274   6.416   2.134   8.475  0.2597 -0.2627 -0.1253
35273SOL    HW110275   6.358   2.139   8.551 -1.4760  0.3088 -1.4027
35273SOL    HW210276   6.504   2.126   8.512 -0.4108  1.0991  1.9515
35274SOL     OW10277   0.045   4.353   3.365 -0.2502 -0.0123  0.3176
35274SOL    HW110278  -0.033   4.392   3.405  0.0496 -0.0705  0.9749
35274SOL    HW210279   0.096   4.320   3.440  1.4455  1.9161  0.0917
35275SOL     OW10280   6.153   8.762   2.797  0.3339 -0.0928 -0.2296
35275SOL    HW110281   6.081   8.726   2.746  0.5547  0.6984 -1.1343
35275SOL    HW210282   6.160   8.854   2.769  2.2987 -0.3885 -0.9067
35276SOL     OW10283   6.609   6.241   7.747 -0.3003  0.0580 -0.4681
35276SOL    HW110284   6.544   6.199   7.803 -1.0684  0.3685 -1.0972
35276SOL    HW210285   6.557   6.298   7.690  0.7696  3.0028  1.2673
35277SOL     OW10286   7.300   9.162   3.614 -0.2592 -0.3281 -0.3342
35277SOL    HW110287   7.330   9.232   3.672 -0.7692 -1.8969  1.9789
35277SOL    HW210288   7.376   9.141   3.559  0.2728  1.1577 -0.2073
35278SOL     OW10289   8.986  10.332   1.836 -0.3955 -0.8342 -0.1638
35278SOL    HW110290   9.019  10.326   1.925  2.3104  2.3973 -0.7449
35278SOL    HW210291   9.055  10.293   1.782 -0.7490 -0.3495 -0.9946
35279SOL     OW10292   6.905   4.972   9.679 -0.0920 -0.1412  0.0419
35279SOL    HW110293   6.817   4.997   9.650  0.6157  1.0355 -1.1389
35279SOL    HW210294   6.931   4.901   9.620  1.1110  1.8573 -1.9539
35280SOL     OW10295  10.200   8.925   6.117  0.2786  0.3532  0.3456
35280SOL    HW110296  10.205   8.946   6.210  1.4304 -0.7103  0.5483
35280SOL    HW210297  10.233   9.002   6.072  0.0934  0.7184  0.8340
35281SOL     OW10298   3.286   9.751   9.758  0.2144  0.5341 -0.1801
35281SOL    HW110299   3.213   9.770   9.817 -0.8962 -2.2444 -0.5373
35281SOL    HW210300   3.245   9.726   9.675  1.5591 -0.7455 -0.5082
35282SOL     OW10301   0.647   6.439   8.949 -0.3260 -0.2104  0.1918
35282SOL    HW110302   0.576   6.494   8.915 -1.2953 -1.2003  0.5714
35282SOL    HW210303   0.727   6.482   8.918 -1.0358  1.5569  0.6676
35283SOL     OW10304   8.201   9.736   2.292  0.2487 -0.0452  0.1621
35283SOL    HW110305   8.154   9.815   2.264  0.3786 -0.5976 -1.6799
35283SOL    HW210306   8.293   9.755   2.276  0.6945  0.6790  2.9269
35284SOL     OW10307   4.226   3.840   8.334 -0.0357  0.2133 -0.4056
35284SOL    HW110308   4.259   3.780   8.267  0.0384  0.3853 -0.5238
35284SOL    HW210309   4.257   3.802   8.416 -0.0144  0.0726 -0.4775
35285SOL     OW10310   2.450   3.148   2.569 -0.1684 -0.4884  0.7099
35285SOL    HW110311   2.444   3.156   2.474 -1.5766  1.2816  0.8950
35285SOL    HW210312   2.543   3.156   2.589  0.0454  0.0420 -0.4484
35286SOL     OW10313   0.311   9.046   6.333  0.0747  0.0417 -0.3935
35286SOL    HW110314   0.308   9.121   6.274 -3.2974 -0.3997 -0.9774
35286SOL    HW210315   0.348   8.975   6.281  0.3888  0.5246 -0.8332
35287SOL     OW10316   6.993   7.177  11.000  0.3165 -0.5805  0.2579
35287SOL    HW110317   7.003   7.120  10.923 -0.7144  1.8500 -1.8386
35287SOL    HW210318   6.966   7.118  11.070 -1.0301 -2.6403 -1.8399
35288SOL     OW10319   6.539   2.262   9.139  0.2445 -0.8625 -0.6192
35288SOL    HW110320   6.563   2.333   9.080 -1.2892  1.6100  1.5548
35288SOL    HW210321   6.603   2.267   9.210 -1.6766  0.5714  1.1535
35289SOL     OW10322   4.961   7.160   2.797 -0.1975  0.1963  0.6505
35289SOL    HW110323   4.917   7.076   2.781  0.2189  0.1588 -0.2987
35289SOL    HW210324   5.044   7.154   2.751 -0.5819  1.5087 -0.2713
35290SOL     OW10325   5.149   4.453   9.146 -0.5373 -0.4020  0.0841
35290SOL    HW110326   5.136   4.519   9.078 -0.6178 -0.4088  0.0921
35290SOL    HW210327   5.223   4.485   9.197 -0.5632 -0.3282  0.0750
35291SOL     OW10328  10.558   8.082   2.370 -0.0022 -0.2588  0.4993
35291SOL    HW110329  10.601   8.023   2.309 -0.0722 -1.8343  1.9171
35291SOL    HW210330  10.628   8.136   2.406  0.4451 -1.1790  1.0255
35292SOL     OW10331   8.498   7.899   1.102  0.3478 -0.0775  0.1270
35292SOL    HW110332   8.463   7.818   1.064 -1.4387  0.4914  0.4787
35292SOL    HW210333   8.545   7.870   1.181 -1.7729 -0.6682  1.2476
35293SOL     OW10334   7.128   2.053   0.653  0.6179 -0.6461 -0.1248
35293SOL    HW110335   7.054   2.045   0.593  0.6247 -1.4170 -0.0330
35293SOL    HW210336   7.173   2.133   0.624 -0.5907  0.1791  0.2125
35294SOL     OW10337   1.377   4.923  10.596  0.0694  0.3020  0.2500
35294SOL    HW110338   1.336   4.999  10.637  0.1493  0.1345  0.6489
35294SOL    HW210339   1.312   4.853  10.603  0.8617 -0.3295  2.0509
35295SOL     OW10340   0.991   9.467   5.057 -0.0829  0.2986  0.3217
35295SOL    HW110341   0.919   9.493   5.000 -0.2446  1.4596  1.0153
35295SOL    HW210342   0.987   9.371   5.058 -0.6052  0.2829 -0.9074
35296SOL     OW10343   3.524   9.758   9.605  0.2726 -0.6099  0.6596
35296SOL    HW110344   3.456   9.780   9.668  1.7604  1.3254  1.7113
35296SOL    HW210345   3.602   9.805   9.636  1.7173 -1.5680 -1.2716
35297SOL     OW10346   8.085   5.098   6.435 -0.4318 -0.0268  0.7745
35297SOL    HW110347   8.168   5.052   6.447  0.8484  1.8238 -0.3623
35297SOL    HW210348   8.034   5.041   6.379  0.8502 -0.4068 -0.0591
35298SOL     OW10349  10.400  10.143   0.016 -0.3623 -0.1396 -0.2865
35298SOL    HW110350  10.477  10.168  -0.035 -0.2522  0.6481  0.2441
35298SOL    HW210351  10.395  10.048   0.008 -1.1003  0.0436 -2.8156
35299SOL     OW10352   0.412   9.817   6.316 -0.6522 -0.0801 -0.3638
35299SOL    HW110353   0.350   9.888   6.301 -0.9948 -0.3567 -0.2696
35299SOL    HW210354   0.454   9.839   6.399 -0.0329  0.5293 -0.8281
35300SOL     OW10355   0.866   5.231   2.615 -0.1015 -0.1157  0.2223
35300SOL    HW110356   0.943   5.243   2.559 -1.1276  0.4267 -1.1233
35300SOL    HW210357   0.902   5.227   2.704  1.4685  0.2159 -0.3609
35301SOL     OW10358   2.166   2.254   5.970 -0.2805  0.1871  0.1077
35301SOL    HW110359   2.124   2.218   6.048  2.3371  0.6250  1.8283
35301SOL    HW210360   2.234   2.190   5.948  0.7250  1.3295 -0.2010
35302SOL     OW10361   3.503  10.780   2.303 -0.0977 -0.2152  0.4619
35302SOL    HW110362   3.556  10.837   2.359  0.0386  0.5708 -0.4556
35302SOL    HW210363   3.449  10.730   2.365  2.0495 -1.4249  1.4605
35303SOL     OW10364  10.912  11.056   7.675 -0.6976 -0.2795  0.2659
35303SOL    HW110365  10.817  11.062   7.689 -0.8764 -0.1182 -0.9253
35303SOL    HW210366  10.930  10.962   7.673 -1.0192 -0.3358 -0.5792
35304SOL     OW10367   9.008   0.327   5.750 -0.1713 -0.1891  0.2485
35304SOL    HW110368   9.049   0.255   5.703  1.4387  0.1116  1.1410
35304SOL    HW210369   8.933   0.288   5.795  0.2478 -1.1510  0.1217
35305SOL     OW10370   0.515  10.672   5.395  0.7517  0.2563 -0.6240
35305SOL    HW110371   0.595  10.724   5.386 -0.2667  2.0512  0.0829
35305SOL    HW210372   0.497  10.640   5.307  1.6858  0.7089 -0.9902
35306SOL     OW10373   8.292   2.061   2.513  0.2547  0.0442 -0.4810
35306SOL    HW110374   8.365   2.020   2.467  1.4614 -0.2155  1.5594
35306SOL    HW210375   8.303   2.155   2.496  1.9213  0.1389  0.9199
35307SOL     OW10376   3.731   2.606  10.744  0.3806  0.1545  0.2919
35307SOL    HW110377   3.737   2.546  10.669  0.3782  2.2834 -1.5343
35307SOL    HW210378   3.665   2.671  10.717  0.0983  0.7775  2.3304
35308SOL     OW10379   5.006  10.943   1.763 -0.6849 -0.1740  0.3972
35308SOL    HW110380   4.997  10.934   1.858 -0.5828  0.9382  0.5221
35308SOL    HW210381   4.974  10.860   1.728 -2.1813 -0.0110  1.3161
35309SOL     OW10382  10.286   1.057   3.984 -0.4989 -0.2155  0.2031
35309SOL    HW110383  10.360   1.002   3.959  0.1060  0.5210  0.3340
35309SOL    HW210384  10.229   0.999   4.035 -0.0185 -0.7874  0.1029
35310SOL     OW10385   7.454   4.369  10.378  0.1582  1.0068  0.6817
35310SOL    HW110386   7.441   4.363  10.473  0.3916 -0.7029  0.6348
35310SOL    HW210387   7.374   4.412  10.346 -0.3402  0.7593  1.5552
35311SOL     OW10388   5.999  10.438   7.913 -0.3947  0.2216  0.5304
35311SOL    HW110389   6.052  10.398   7.844  0.2917 -0.1434  1.2534
35311SOL    HW210390   6.053  10.430   7.992 -2.1224 -1.4813  1.6168
35312SOL     OW10391   4.434   0.546   3.545 -0.3591  0.2431  0.3111
35312SOL    HW110392   4.470   0.578   3.463  0.0480  2.1866  1.1986
35312SOL    HW210393   4.502   0.488   3.580 -0.3793 -0.2970 -0.5093
35313SOL     OW10394   8.890   6.174   1.448  0.5551  0.4590  0.1460
35313SOL    HW110395   8.896   6.227   1.369 -1.5888  1.7981  0.8096
35313SOL    HW210396   8.930   6.091   1.424 -0.4316  0.6553 -2.4861
35314SOL     OW10397   6.557   6.824   5.470 -0.1283  0.3577  0.8344
35314SOL    HW110398   6.479   6.774   5.447  0.1569  0.4247 -0.3156
35314SOL    HW210399   6.630   6.765   5.449  0.2538  1.5688 -1.4861
35315SOL     OW10400   8.567   4.541   7.323  0.2632 -0.0689  0.0602
35315SOL    HW110401   8.473   4.554   7.315  0.1576 -1.0238 -0.3100
35315SOL    HW210402   8.578   4.446   7.332  0.9808  0.1876  2.8326
35316SOL     OW10403   7.320   2.502   9.106  0.2862 -0.0318 -0.0237
35316SOL    HW110404   7.269   2.491   9.186  0.1799 -1.7509 -0.2819
35316SOL    HW210405   7.256   2.529   9.040 -0.0433 -0.7732 -0.0166
35317SOL     OW10406   2.360   5.666   2.763 -0.5360 -0.4984 -0.0075
35317SOL    HW110407   2.395   5.593   2.815 -1.2648 -1.3924 -0.7277
35317SOL    HW210408   2.267   5.667   2.784 -0.3009  1.2143  1.1317
35318SOL     OW10409   9.395   8.818   8.154  0.6381 -0.3423 -0.5666
35318SOL    HW110410   9.372   8.899   8.199  1.7982  0.4772 -1.3740
35318SOL    HW210411   9.424   8.760   8.224 -1.2700 -0.4992  0.1531
35319SOL     OW10412   1.530  10.698   6.272  0.1536  0.0020 -0.1434
35319SOL    HW110413   1.594  10.709   6.342  0.5923  0.7683 -0.6377
35319SOL    HW210414   1.530  10.783   6.227 -0.0483 -0.5020 -1.1196
35320SOL     OW10415   9.889   7.466  10.977  0.6418 -0.5185 -0.6341
35320SOL    HW110416   9.884   7.400  11.046  0.2934 -0.6336 -0.7686
35320SOL    HW210417   9.799   7.477  10.946  0.6487  0.2196 -0.4272
35321SOL     OW10418   7.803   8.647   0.433  0.2551 -0.0974  0.1664
35321SOL    HW110419   7.846   8.731   0.452 -0.3923  0.2146  0.2545
35321SOL    HW210420   7.808   8.599   0.516 -0.0971  0.1783  0.3511
35322SOL     OW10421   5.572   9.663   3.298  0.4426  0.2181 -0.5284
35322SOL    HW110422   5.485   9.701   3.287  1.7376  2.8773 -2.8711
35322SOL    HW210423   5.580   9.600   3.226  0.1520 -0.7088  0.2393
35323SOL     OW10424   3.675   0.161   0.360 -0.1105  0.3914 -0.1948
35323SOL    HW110425   3.707   0.248   0.335 -0.0144  0.2605 -0.5299
35323SOL    HW210426   3.583   0.176   0.385  0.0465  0.6715  0.2343
35324SOL     OW10427   1.701   3.775   6.457 -0.0198 -0.1811 -0.0363
35324SOL    HW110428   1.716   3.851   6.513 -2.0361  0.7150 -0.6441
35324SOL    HW210429   1.789   3.739   6.443  0.9785  1.9264  0.3845
35325SOL     OW10430  10.820   0.257   2.850 -0.0014  0.4526  0.4847
35325SOL    HW110431  10.734   0.269   2.809 -0.4101  0.1990  1.2436
35325SOL    HW210432  10.820   0.166   2.879 -0.1369  0.8892  1.9389
35326SOL     OW10433  10.390   0.052   9.943 -0.2963  0.3258  0.0066
35326SOL    HW110434  10.400  -0.018   9.878 -0.9798  0.1639  0.0707
35326SOL    HW210435  10.321   0.108   9.909 -1.2405 -0.2072  0.9679
35327SOL     OW10436   5.530   5.231   2.170  0.7640  0.6823  0.3417
35327SOL    HW110437   5.489   5.235   2.084  0.6422 -0.1498  0.3463
35327SOL    HW210438   5.461   5.200   2.229  1.0379  0.5340  0.5940
35328SOL     OW10439   8.868   3.714   1.650 -0.1541  0.1302  0.6743
35328SOL    HW110440   8.788   3.691   1.603  1.3499 -0.9403 -1.5682
35328SOL    HW210441   8.875   3.650   1.721 -0.7663 -0.4036  0.2554
35329SOL     OW10442   8.185   0.809   9.673 -0.4492 -0.2045  0.6277
35329SOL    HW110443   8.234   0.736   9.636  2.1087  1.8029 -0.2458
35329SOL    HW210444   8.130   0.769   9.741  1.0800 -2.8719  0.4268
35330SOL     OW10445   0.932   3.252   9.064  0.0621  0.0010 -0.0534
35330SOL    HW110446   1.008   3.217   9.017 -0.5319 -0.3936 -0.7308
35330SOL    HW210447   0.948   3.227   9.155  0.5296 -0.4690 -0.2559
35331SOL     OW10448  10.879   4.582   2.590  0.2286 -0.4212 -0.3173
35331SOL    HW110449  10.925   4.625   2.518  0.9810  0.0272  0.4018
35331SOL    HW210450  10.949   4.560   2.653 -0.5727  0.8171  1.0763
35332SOL     OW10451   0.010   7.805   6.208  0.1066  0.6927 -0.7379
35332SOL    HW110452  -0.009   7.898   6.222  0.2814  0.9800 -2.1810
35332SOL    HW210453   0.093   7.805   6.160  1.9930 -0.3798  2.2457
35333SOL     OW10454  10.427   0.231   4.758  0.0894  0.4247 -0.1047
35333SOL    HW110455  10.486   0.159   4.739  0.0320  0.6636 -1.2914
35333SOL    HW210456  10.478   0.292   4.811  0.0465 -0.5918  1.1640
35334SOL     OW10457   2.929   0.194   8.254 -0.1183 -0.2702 -0.3610
35334SOL    HW110458   2.876   0.134   8.201 -0.0695  0.1468 -0.8849
35334SOL    HW210459   3.019   0.180   8.224 -0.0025 -0.5275  0.0935
35335SOL     OW10460   5.784   4.001   4.981 -0.4588  0.3575  0.0801
35335SOL    HW110461   5.847   4.060   5.023 -1.5875  1.3247  0.4508
35335SOL    HW210462   5.714   3.991   5.045 -1.3993  0.4925 -0.9150
35336SOL     OW10463  10.378   3.323   7.814 -0.7564  0.1353 -0.0777
35336SOL    HW110464  10.360   3.408   7.773 -1.1050  1.0962  1.9506
35336SOL    HW210465  10.456   3.292   7.770 -0.4696  1.6409 -0.7109
35337SOL     OW10466   1.376   8.954  10.583  0.0904  0.0570  0.1241
35337SOL    HW110467   1.388   8.988  10.494  0.9069 -1.4763 -0.3965
35337SOL    HW210468   1.347   8.864  10.570 -5.3933  1.2829  1.4001
35338SOL     OW10469   9.360   9.846   8.909 -0.0405 -0.4548 -0.7655
35338SOL    HW110470   9.394   9.791   8.979 -0.4379 -1.0611 -1.0389
35338SOL    HW210471   9.344   9.931   8.950  0.7423 -0.4891 -0.3760
35339SOL     OW10472   7.539   9.583   0.351 -0.2024  0.4577 -0.0401
35339SOL    HW110473   7.607   9.564   0.415  0.2782  3.3513  0.4644
35339SOL    HW210474   7.584   9.578   0.266  0.3167  1.0520  0.1928
35340SOL     OW10475   4.509  10.105   8.220 -0.7947 -0.5582  0.0740
35340SOL    HW110476   4.513  10.030   8.279 -1.1942  0.0468  0.9002
35340SOL    HW210477   4.503  10.181   8.279  0.5258  0.1902 -0.7249
35341SOL     OW10478   0.776   7.637   7.914  0.1866  0.0222  0.0681
35341SOL    HW110479   0.823   7.594   7.985  0.1797  0.0350  0.0807
35341SOL    HW210480   0.759   7.568   7.850 -0.2104 -0.0836  0.2872
35342SOL     OW10481   9.193   3.628   6.242  0.3767 -0.0053 -0.1799
35342SOL    HW110482   9.244   3.567   6.189  0.1341 -0.2700 -0.1127
35342SOL    HW210483   9.238   3.712   6.233  0.3869 -0.0676 -0.7300
35343SOL     OW10484   6.732  11.016   3.661  0.3924 -0.4012 -0.6962
35343SOL    HW110485   6.790  11.047   3.730 -2.7452 -1.2829  2.6386
35343SOL    HW210486   6.763  10.927   3.641  0.2101 -0.8897  1.0728
35344SOL     OW10487   0.958   0.751   9.147  0.6281 -0.5897  0.4211
35344SOL    HW110488   0.986   0.834   9.106 -1.6718  0.3473  0.6153
35344SOL    HW210489   1.030   0.691   9.128  1.9363  1.1659 -0.6103
35345SOL     OW10490   9.749   3.377   2.023 -0.0272  0.2956  0.3046
35345SOL    HW110491   9.747   3.307   2.088 -1.1670  0.6067  0.6331
35345SOL    HW210492   9.754   3.458   2.073 -1.9992  0.6011  0.1170
35346SOL     OW10493   2.816  10.233  10.994  0.1795  0.6734  0.3775
35346SOL    HW110494   2.735  10.182  11.002  0.2251  0.3770 -0.8621
35346SOL    HW210495   2.787  10.324  11.004 -0.4267  0.6145 -0.6019
35347SOL     OW10496   7.455   7.583   2.683 -0.0758 -0.5325  0.5612
35347SOL    HW110497   7.405   7.564   2.762  0.2196 -0.5656  0.7405
35347SOL    HW210498   7.407   7.655   2.641 -0.2471 -0.5327  0.7540
35348SOL     OW10499   7.300   8.815   4.429 -0.0442 -0.4753 -0.6916
35348SOL    HW110500   7.336   8.738   4.472 -0.0572  0.0286  0.2607
35348SOL    HW210501   7.265   8.868   4.501  0.4028  0.6423 -1.2634
35349SOL     OW10502   3.271   3.671   7.879  0.0276  0.4707 -0.0742
35349SOL    HW110503   3.207   3.601   7.887  0.4589  0.1751  0.8596
35349SOL    HW210504   3.347   3.630   7.838 -0.1206  0.6632 -0.5529
35350SOL     OW10505   1.734   9.949   4.075  0.3203  0.1652  0.0445
35350SOL    HW110506   1.786   9.871   4.093 -0.8955 -0.3423  1.6694
35350SOL    HW210507   1.646   9.916   4.059 -0.0669  1.1499  0.0306
35351SOL     OW10508   2.546   4.136   1.157  0.0540 -0.1590  0.4077
35351SOL    HW110509   2.530   4.044   1.135  0.7857 -0.6856  1.9363
35351SOL    HW210510   2.637   4.137   1.187  0.5021  1.3369 -0.8930
35352SOL     OW10511   1.659   3.555   4.009  0.3808 -0.4355  0.5647
35352SOL    HW110512   1.587   3.611   3.979  1.8224  1.0354 -0.3457
35352SOL    HW210513   1.665   3.572   4.103 -1.7033 -2.1380  1.0904
35353SOL     OW10514   5.637   9.868   4.218  0.0538 -0.6255  0.0727
35353SOL    HW110515   5.590   9.913   4.148  0.5265 -0.8635 -0.4037
35353SOL    HW210516   5.718   9.919   4.230 -0.6577  0.2555  1.4418
35354SOL     OW10517  10.395   2.236   4.560  0.0833  0.2525  0.0385
35354SOL    HW110518  10.477   2.212   4.517  1.3954 -0.4334  2.7290
35354SOL    HW210519  10.337   2.161   4.545  0.1702  0.4122 -1.2330
35355SOL     OW10520   9.603   8.278   3.631  0.1180 -0.7427  0.4929
35355SOL    HW110521   9.623   8.244   3.544  0.0792 -1.5761  0.8051
35355SOL    HW210522   9.571   8.203   3.680  2.0759 -0.7681  1.8583
35356SOL     OW10523   4.195   3.782   9.872  0.5204 -0.5842 -0.2099
35356SOL    HW110524   4.128   3.743   9.927 -1.4760  2.3575 -0.3536
35356SOL    HW210525   4.195   3.729   9.792 -2.4288 -0.1168 -0.6115
35357SOL     OW10526   4.358   5.473   2.923 -0.3850  0.5263 -0.3903
35357SOL    HW110527   4.329   5.563   2.936  0.0263  0.3591  2.2485
35357SOL    HW210528   4.295   5.420   2.972  0.5934 -0.4006 -0.0928
35358SOL     OW10529  10.936   0.225   7.553  0.1399 -0.0712  0.1708
35358SOL    HW110530  10.962   0.140   7.517 -1.0420 -1.7716  2.9723
35358SOL    HW210531  10.907   0.205   7.642  0.0393  3.3514  1.0370
35359SOL     OW10532   9.385   0.341   7.245  0.5504  0.6227  0.2720
35359SOL    HW110533   9.452   0.406   7.223 -0.0118  0.8086 -0.9693
35359SOL    HW210534   9.364   0.358   7.337  0.2293  2.3876 -0.0999
35360SOL     OW10535   4.969   4.180   0.777 -0.2342 -1.1071 -0.1102
35360SOL    HW110536   4.991   4.092   0.805 -1.3047 -1.8864 -1.5774
35360SOL    HW210537   4.958   4.173   0.682 -2.9818 -0.0218  0.0273
35361SOL     OW10538   6.687   6.557   4.969 -0.0283 -0.2884  0.2498
35361SOL    HW110539   6.756   6.507   5.012 -0.9135 -1.4487  0.3659
35361SOL    HW210540   6.666   6.508   4.890 -0.2848  0.3978 -0.1224
35362SOL     OW10541   9.219   2.211   9.634 -0.3006 -0.5288 -0.6725
35362SOL    HW110542   9.304   2.175   9.609 -0.1198 -0.0549 -0.7524
35362SOL    HW210543   9.212   2.293   9.585  1.0369  1.6085  2.3658
35363SOL     OW10544   0.686   5.907   3.709 -0.0894 -0.2388  0.4013
35363SOL    HW110545   0.730   5.835   3.665  0.2606  0.2348 -0.0281
35363SOL    HW210546   0.674   5.973   3.641 -0.0219  0.2817  0.8912
35364SOL     OW10547   4.669   7.234   5.022 -0.4923 -0.1323  0.2716
35364SOL    HW110548   4.714   7.190   5.094 -2.6877 -0.6411  1.3840
35364SOL    HW210549   4.650   7.164   4.960 -1.2280 -0.2104  0.5844
35365SOL     OW10550   6.242   8.595   1.208  0.0556  0.2300 -0.2861
35365SOL    HW110551   6.236   8.657   1.280  1.3909  1.6681 -1.3266
35365SOL    HW210552   6.282   8.645   1.137  0.1742 -1.5396 -1.5405
35366SOL     OW10553   8.327   6.748   4.591 -0.2771  0.6626  0.5179
35366SOL    HW110554   8.280   6.667   4.609  0.2070  0.3300  0.3155
35366SOL    HW210555   8.395   6.752   4.659  0.2449  0.4558  0.0134
35367SOL     OW10556   5.058   1.994   4.767  0.2306  0.4406  0.1579
35367SOL    HW110557   5.114   2.066   4.795 -0.1313  0.2991  1.2683
35367SOL    HW210558   5.085   1.920   4.820 -0.1166  0.0224 -0.2370
35368SOL     OW10559   6.278   1.209   0.060  0.2763 -0.2038  0.3690
35368SOL    HW110560   6.263   1.169   0.145 -0.0257 -0.6181  0.1203
35368SOL    HW210561   6.199   1.191   0.010  0.5746 -0.2222 -0.1031
35369SOL     OW10562   9.875   9.815   6.420 -0.0771 -0.3268  1.0598
35369SOL    HW110563   9.783   9.790   6.410 -0.2438 -1.0348  3.6894
35369SOL    HW210564   9.882   9.844   6.511  2.0220  1.1100  0.4962
35370SOL     OW10565  10.294   8.772   6.803  0.1421 -0.7430 -0.2223
35370SOL    HW110566  10.360   8.795   6.738 -0.4309 -1.8570 -1.2375
35370SOL    HW210567  10.261   8.856   6.835  0.6774 -0.1812 -1.1184
35371SOL     OW10568   1.792   8.210   9.873 -0.1170 -0.1950  0.1653
35371SOL    HW110569   1.831   8.139   9.821  0.8228  0.6469 -0.3090
35371SOL    HW210570   1.710   8.231   9.828  0.1345 -0.2443 -0.3188
35372SOL     OW10571   7.794   5.801   2.385  0.4931  0.2812  0.0920
35372SOL    HW110572   7.801   5.877   2.327  0.1617  1.3060  1.3389
35372SOL    HW210573   7.882   5.789   2.419  1.2356 -1.7165 -2.2124
35373SOL     OW10574   6.752   7.132   1.535 -0.4658 -0.3642 -0.0573
35373SOL    HW110575   6.726   7.052   1.580 -2.4028  0.6444  0.7246
35373SOL    HW210576   6.747   7.200   1.601  1.1957  0.4250 -0.6979
35374SOL     OW10577   6.606   9.017   6.029  0.2766  0.5812 -0.0527
35374SOL    HW110578   6.599   9.030   5.935  2.4253  2.0591 -0.0900
35374SOL    HW210579   6.606   8.922   6.040 -2.4879  0.3742 -1.2304
35375SOL     OW10580   8.810   0.199   4.256  0.1411  0.0527  0.0933
35375SOL    HW110581   8.888   0.243   4.289 -0.5477  1.7060 -0.3585
35375SOL    HW210582   8.795   0.238   4.170 -1.5153  0.2220  0.4241
35376SOL     OW10583   5.576   1.319   8.615 -0.3727 -0.2289  0.2540
35376SOL    HW110584   5.613   1.231   8.621 -0.1437 -0.0377  2.1068
35376SOL    HW210585   5.542   1.337   8.702 -1.8280  0.9299 -0.5098
35377SOL     OW10586   2.413   3.506   2.473 -0.0772  0.1889  0.1780
35377SOL    HW110587   2.323   3.499   2.440 -0.4949 -0.2793  1.3515
35377SOL    HW210588   2.412   3.454   2.554  0.5680  2.2646  1.5813
35378SOL     OW10589   4.095   6.926   5.951 -0.3064 -0.1627 -0.2880
35378SOL    HW110590   4.105   6.983   6.027  1.1281  0.5949 -1.0084
35378SOL    HW210591   4.148   6.849   5.972 -2.9909 -1.7615  1.0934
35379SOL     OW10592   8.385   2.126   7.448 -0.4486  0.0961 -0.4738
35379SOL    HW110593   8.388   2.031   7.439 -1.4906  0.1665 -1.9459
35379SOL    HW210594   8.473   2.150   7.479 -0.6607 -1.4513  1.5918
35380SOL     OW10595   9.530   1.311   2.898  0.0275  0.2423  0.1707
35380SOL    HW110596   9.477   1.282   2.823  0.1959 -0.8899  0.4741
35380SOL    HW210597   9.479   1.382   2.937 -0.8346 -0.2208 -0.0885
35381SOL     OW10598   4.311   9.083   9.927  0.4216  0.1203  0.6386
35381SOL    HW110599   4.307   9.177   9.907  0.7144 -0.0843 -0.4876
35381SOL    HW210600   4.226   9.062   9.964 -0.2140  0.5549 -0.5057
35382SOL     OW10601   5.929   0.474   2.251 -0.2226  0.3707  0.5715
35382SOL    HW110602   5.834   0.468   2.255 -0.2579  0.9227  0.6710
35382SOL    HW210603   5.961   0.408   2.312 -0.5776  1.3458  1.8539
35383SOL     OW10604   0.642   5.046   8.729 -0.4944  0.5375  0.2764
35383SOL    HW110605   0.641   4.987   8.654 -1.5128  1.9756 -0.8785
35383SOL    HW210606   0.725   5.093   8.722 -0.9668  1.2836 -0.4690
35384SOL     OW10607   5.215   3.396   8.983 -0.1011  0.1945  0.2786
35384SOL    HW110608   5.303   3.396   8.946  0.8335  0.6743  2.3332
35384SOL    HW210609   5.205   3.309   9.022 -1.9635 -1.1553 -2.8917
35385SOL     OW10610   9.784   7.072   5.297  0.0315 -0.8450  0.0548
35385SOL    HW110611   9.824   7.144   5.346 -1.8204  0.3037 -0.0153
35385SOL    HW210612   9.739   7.020   5.363 -2.0568  0.4307 -0.2610
35386SOL     OW10613   0.718   3.807   7.764  0.4051  0.1819  0.3456
35386SOL    HW110614   0.791   3.750   7.740 -0.4296 -1.0233  0.5525
35386SOL    HW210615   0.656   3.799   7.691 -0.0640  0.2050  0.7372
35387SOL     OW10616   7.929   7.801   8.223  0.5980 -0.2849 -0.4404
35387SOL    HW110617   7.947   7.880   8.171  0.6246 -1.2366 -1.9381
35387SOL    HW210618   7.844   7.818   8.264  0.4648  0.4084 -0.9827
35388SOL     OW10619   0.205   0.884  10.064  0.1470  0.2801  0.0269
35388SOL    HW110620   0.198   0.805  10.118 -0.3678  0.3326  0.0390
35388SOL    HW210621   0.204   0.851   9.974 -2.9521  0.4295 -0.0757
35389SOL     OW10622   6.388  10.051   9.996 -0.3133  0.6248  0.2539
35389SOL    HW110623   6.396   9.991   9.922  0.5193  2.1572 -0.9675
35389SOL    HW210624   6.462  10.030  10.053  2.5477  3.0808 -2.2319
35390SOL     OW10625   5.931   3.327   0.494  0.0349  0.4627  0.0528
35390SOL    HW110626   5.993   3.326   0.422 -0.4258  0.0195 -0.3518
35390SOL    HW210627   5.978   3.286   0.567  0.7508  1.5883  0.2311
35391SOL     OW10628   9.840   6.458   3.106 -0.5801  0.1489 -0.3215
35391SOL    HW110629   9.879   6.470   3.020 -0.6439 -0.2243 -0.4044
35391SOL    HW210630   9.750   6.491   3.097 -1.1999 -1.6090 -0.9332
35392SOL     OW10631   9.646   2.513   1.004  0.1045 -0.6512 -0.0857
35392SOL    HW110632   9.721   2.510   1.064  1.3955  0.1746 -1.5831
35392SOL    HW210633   9.681   2.482   0.921 -0.9958  0.5866 -1.0494
35393SOL     OW10634   8.156   0.911   5.558  0.1888  0.0875 -0.1796
35393SOL    HW110635   8.113   0.897   5.643  0.3364 -0.7253 -0.2337
35393SOL    HW210636   8.085   0.910   5.494  0.3936 -3.0863 -0.4829
35394SOL     OW10637   5.713   3.495   2.533 -0.1437  0.6809 -0.2498
35394SOL    HW110638   5.653   3.425   2.557  2.2153 -1.6753 -0.7852
35394SOL    HW210639   5.702   3.561   2.602  0.3134 -1.9898  2.5731
35395SOL     OW10640   0.622   1.293   9.561 -0.1943  0.2190 -0.1696
35395SOL    HW110641   0.618   1.352   9.486 -0.3663  0.4127 -0.0077
35395SOL    HW210642   0.633   1.350   9.637 -0.6187  0.0608  0.0139
35396SOL     OW10643  10.722   1.951   9.876  0.3099  0.5540  0.2515
35396SOL    HW110644  10.640   1.938   9.923  0.8696 -0.8163  0.8984
35396SOL    HW210645  10.752   2.038   9.904 -0.7530  0.9411  0.2342
35397SOL     OW10646   8.288  10.749   6.619 -0.1823  0.2771  0.3944
35397SOL    HW110647   8.203  10.791   6.636  0.3114  1.8103 -0.7075
35397SOL    HW210648   8.293  10.678   6.684 -1.7805  0.9002  1.2579
35398SOL     OW10649   5.632   0.484   6.055  0.3183 -0.4636 -0.4359
35398SOL    HW110650   5.539   0.467   6.070  0.3854 -1.0961 -0.6860
35398SOL    HW210651   5.664   0.523   6.137 -0.4593  1.0621 -0.8178
35399SOL     OW10652   3.824   6.631   1.805 -0.5138  0.3234 -0.3928
35399SOL    HW110653   3.908   6.593   1.831 -0.4500  1.5308  1.3546
35399SOL    HW210654   3.760   6.591   1.864 -1.0934 -0.1284 -1.3030
35400SOL     OW10655   7.331   4.404  10.963  0.4954  0.3862 -0.1897
35400SOL    HW110656   7.339   4.451  10.880 -0.5647  1.6410  0.3821
35400SOL    HW210657   7.367   4.317  10.945  1.8923  1.1898 -1.4730
35401SOL     OW10658   8.953   6.369   4.373  0.1308  0.0146  0.2252
35401SOL    HW110659   8.908   6.357   4.289  1.1987 -0.2747 -0.3329
35401SOL    HW210660   8.891   6.417   4.427 -0.8268 -0.3435 -0.5174
35402SOL     OW10661   1.838   7.571   5.598  0.3511  0.6730  0.5222
35402SOL    HW110662   1.844   7.659   5.636 -0.0488  1.3318 -0.8684
35402SOL    HW210663   1.777   7.581   5.525  0.4440 -0.7307  0.2315
35403SOL     OW10664  10.804   4.943   7.395  0.3096  0.0257  0.3617
35403SOL    HW110665  10.819   5.035   7.417 -0.1064  0.5612 -1.4258
35403SOL    HW210666  10.735   4.914   7.454 -1.1157  1.5343 -0.4829
35404SOL     OW10667   0.476   2.447   3.374  0.3974  0.2864 -0.1216
35404SOL    HW110668   0.510   2.376   3.428 -0.0012 -0.6643 -1.0834
35404SOL    HW210669   0.523   2.439   3.291  0.6235  1.3900 -0.1110
35405SOL     OW10670   9.213   8.228   3.839  0.3021 -0.0503 -0.2508
35405SOL    HW110671   9.229   8.135   3.825  1.6255  0.1471 -0.2018
35405SOL    HW210672   9.283   8.256   3.898 -1.1470  0.5998  1.2413
35406SOL     OW10673  10.799   0.480   0.998  0.2060 -0.1353 -0.3808
35406SOL    HW110674  10.754   0.563   1.012 -1.1082 -0.8232 -0.3982
35406SOL    HW210675  10.881   0.489   1.047 -1.4635 -0.1474  2.6631
35407SOL     OW10676   2.503   3.442   0.827  0.0966  0.1389  0.0485
35407SOL    HW110677   2.495   3.374   0.760 -1.9530  1.6446 -1.3871
35407SOL    HW210678   2.419   3.488   0.825  1.2413  2.4931  1.1745
35408SOL     OW10679  10.150   2.380   6.230  0.4462  0.2097  0.4308
35408SOL    HW110680  10.150   2.333   6.147 -1.1746 -0.0273  0.5337
35408SOL    HW210681  10.173   2.313   6.295 -0.4275 -0.1304  0.4077
35409SOL     OW10682   9.662   4.921   3.327 -0.3317 -0.1439  0.4938
35409SOL    HW110683   9.755   4.912   3.304 -0.1621 -0.2105  1.1696
35409SOL    HW210684   9.660   4.909   3.422 -0.9051  0.7693  0.6173
35410SOL     OW10685   8.536   3.510   5.302 -0.7869 -0.3881 -0.5234
35410SOL    HW110686   8.608   3.449   5.316 -0.0641  0.5807  0.1545
35410SOL    HW210687   8.571   3.576   5.242 -0.0789  1.6542  1.9655
35411SOL     OW10688   5.843   5.968   6.696 -0.1655  0.0892  0.2124
35411SOL    HW110689   5.886   5.951   6.780  1.4972 -0.5262 -0.7170
35411SOL    HW210690   5.914   5.996   6.638 -0.9845 -1.1122 -1.4394
35412SOL     OW10691   6.222   7.128   9.891 -0.0805  0.2291 -0.3102
35412SOL    HW110692   6.126   7.118   9.889 -0.0645 -0.3816  1.1087
35412SOL    HW210693   6.236   7.221   9.875 -0.8163  0.0648 -2.1885
35413SOL     OW10694   6.342  10.583   8.227  0.1516  0.4801  0.0091
35413SOL    HW110695   6.371  10.523   8.296 -1.0636  1.7834  1.7672
35413SOL    HW210696   6.269  10.538   8.185  1.3193 -0.6064 -0.9235
35414SOL     OW10697   5.900   5.629   7.579 -0.1265  0.1488  0.0373
35414SOL    HW110698   5.979   5.650   7.628 -0.8799  2.1663  0.4746
35414SOL    HW210699   5.848   5.576   7.640  0.2738 -0.0091  0.2487
35415SOL     OW10700   0.831   5.661   4.447 -0.0657 -0.7277 -0.2019
35415SOL    HW110701   0.760   5.709   4.404  0.8629  0.0635 -0.9401
35415SOL    HW210702   0.910   5.709   4.421  0.7746 -1.8350  0.2257
35416SOL     OW10703   4.400   8.421   9.199  0.0818 -0.3342 -0.8486
35416SOL    HW110704   4.428   8.498   9.149  1.4824 -0.9421 -1.0523
35416SOL    HW210705   4.420   8.347   9.142  0.6472 -0.9682  0.1374
35417SOL     OW10706   9.052   6.023   0.620  0.6352  0.1394 -0.2730
35417SOL    HW110707   9.031   6.075   0.697  0.5920 -0.3124  0.0255
35417SOL    HW210708   9.070   6.087   0.551 -1.3407  0.5673 -0.4490
35418SOL     OW10709   7.649   5.344   6.321  0.5454  0.0176 -0.4305
35418SOL    HW110710   7.616   5.257   6.342 -0.8146  0.5938 -0.0608
35418SOL    HW210711   7.579   5.383   6.268  0.4621  1.4062  0.6481
35419SOL     OW10712   3.767   3.829   2.308  0.2435  0.3886  0.5236
35419SOL    HW110713   3.803   3.805   2.222  0.6220 -0.5567  0.9279
35419SOL    HW210714   3.839   3.814   2.369 -0.4360 -0.2586  1.1794
35420SOL     OW10715   6.477   0.586   6.615  0.0854 -0.1502  0.0766
35420SOL    HW110716   6.538   0.526   6.659 -0.2449  0.3401  1.2423
35420SOL    HW210717   6.444   0.536   6.540 -1.4479 -2.0871  1.9060
35421SOL     OW10718   7.696   3.282   9.220 -0.0553  0.4063  0.0535
35421SOL    HW110719   7.675   3.308   9.131  2.4254 -0.5556 -0.9011
35421SOL    HW210720   7.769   3.338   9.246 -1.9228  2.0228  2.3111
35422SOL     OW10721   6.727   0.861   9.673  0.5522 -0.4526  0.4800
35422SOL    HW110722   6.634   0.844   9.687  0.7952 -0.2914  2.4956
35422SOL    HW210723   6.762   0.778   9.640 -0.0906 -0.8431  0.7654
35423SOL     OW10724   9.070   1.425   4.861 -0.0738  0.2841 -0.3569
35423SOL    HW110725   8.990   1.429   4.808  0.6458  0.0166 -1.5061
35423SOL    HW210726   9.039   1.422   4.952 -1.3449  0.6692 -0.7601
35424SOL     OW10727   4.557  10.197   5.646 -0.8106 -0.1939  0.1448
35424SOL    HW110728   4.615  10.267   5.613 -0.0339 -0.5140  0.8083
35424SOL    HW210729   4.545  10.139   5.570 -1.3335  0.5543 -0.3679
35425SOL     OW10730   9.754  10.071   8.346 -0.0445 -0.2670  0.1634
35425SOL    HW110731   9.797  10.022   8.276 -0.7386 -2.2078  1.0114
35425SOL    HW210732   9.825  10.115   8.392  0.7054 -1.0492 -0.2114
35426SOL     OW10733   2.260   5.640   9.146 -0.4747  0.3999 -0.0701
35426SOL    HW110734   2.255   5.669   9.055 -1.7931  1.5293  0.3237
35426SOL    HW210735   2.169   5.640   9.176 -0.0137  0.7033  1.4420
35427SOL     OW10736   0.814   6.650   4.342  0.1841  0.3424 -0.6848
35427SOL    HW110737   0.784   6.559   4.341  2.9221 -0.6636 -2.1443
35427SOL    HW210738   0.760   6.694   4.276 -3.1971  0.6713  2.0201
35428SOL     OW10739  10.308   2.591   1.611  0.7893  0.1293 -0.4619
35428SOL    HW110740  10.276   2.614   1.698  0.8950 -0.0268 -0.3827
35428SOL    HW210741  10.228   2.585   1.558  0.5519 -1.4925  0.0196
35429SOL     OW10742   2.035   2.997   8.389 -0.0083 -0.4382 -0.1166
35429SOL    HW110743   2.117   2.961   8.356 -0.3371 -1.1823 -0.1312
35429SOL    HW210744   2.033   2.971   8.481 -0.1129 -0.2057 -0.0519
35430SOL     OW10745   6.585   6.721   7.998 -0.0178  0.0881 -0.2811
35430SOL    HW110746   6.629   6.665   7.934  1.1903  0.0149  0.5948
35430SOL    HW210747   6.611   6.810   7.974  0.6769  0.0405  0.2755
35431SOL     OW10748   8.255   8.744   8.009  0.6215 -0.2233 -0.4227
35431SOL    HW110749   8.194   8.685   8.051  1.9021 -0.5694  1.0378
35431SOL    HW210750   8.250   8.721   7.916 -0.6789 -0.9358 -0.2007
35432SOL     OW10751   1.874   0.284   5.015 -0.4657  0.1536  0.6549
35432SOL    HW110752   1.962   0.262   4.986 -0.6094  0.2341  0.1445
35432SOL    HW210753   1.885   0.361   5.071 -0.0837 -0.5558  1.5782
35433SOL     OW10754   3.172   6.357   6.805  0.5156  0.3540  0.2890
35433SOL    HW110755   3.144   6.305   6.730  1.3985  1.6408 -0.9806
35433SOL    HW210756   3.265   6.336   6.816  0.7758  1.3105  0.0277
35434SOL     OW10757   0.648   6.793   8.961 -0.3931  0.0920  0.8712
35434SOL    HW110758   0.706   6.732   8.915  0.0691  0.5087  0.8875
35434SOL    HW210759   0.566   6.745   8.973  0.2811 -0.8939  1.7536
35435SOL     OW10760   5.426   7.537   4.382  0.1242  0.2632 -0.3227
35435SOL    HW110761   5.380   7.584   4.311 -0.7879 -1.1169 -0.6839
35435SOL    HW210762   5.384   7.452   4.385  1.1925 -0.2481  0.8844
35436SOL     OW10763  10.724   9.022   7.956  0.4081 -0.5100 -0.1086
35436SOL    HW110764  10.721   9.050   7.864  0.0045  0.0236  0.0643
35436SOL    HW210765  10.797   8.959   7.959  0.2956 -0.6860 -0.8318
35437SOL     OW10766   5.746   1.114   5.268  0.2701  0.1552 -0.5697
35437SOL    HW110767   5.789   1.062   5.335 -1.5901  0.4116  0.9116
35437SOL    HW210768   5.652   1.100   5.282 -0.2431  2.1653 -1.5171
35438SOL     OW10769   7.980   1.833   9.629  0.0878  0.0480 -0.0807
35438SOL    HW110770   8.011   1.904   9.574 -2.0092 -0.1826 -1.7013
35438SOL    HW210771   7.948   1.876   9.709  0.5049  0.7109 -0.2678
35439SOL     OW10772   6.514  10.983   4.836 -0.1828  0.0578 -0.1904
35439SOL    HW110773   6.582  11.049   4.830 -1.4826  1.4178 -0.6647
35439SOL    HW210774   6.437  11.024   4.796 -0.7896 -2.1100 -1.4058
35440SOL     OW10775   5.725   9.485   1.713 -0.0488 -0.6469 -0.0151
35440SOL    HW110776   5.676   9.404   1.702  1.4865 -1.7893  1.1408
35440SOL    HW210777   5.772   9.495   1.630  0.1848 -1.2656  0.0339
35441SOL     OW10778   5.091   9.052   6.181 -0.1103  0.0591  0.2646
35441SOL    HW110779   5.114   9.100   6.260  2.3002  0.0355 -0.3470
35441SOL    HW210780   5.030   9.109   6.135 -1.8727 -0.0793  2.2305
35442SOL     OW10781   0.022   2.567   5.620 -0.0134  0.0941 -0.3131
35442SOL    HW110782  -0.060   2.542   5.664 -0.7728 -0.5222 -1.9807
35442SOL    HW210783  -0.003   2.580   5.529  2.1195 -2.3989 -1.3820
35443SOL     OW10784   8.926   9.006   9.076 -0.2410 -0.2040  0.1195
35443SOL    HW110785   8.934   8.972   8.987 -0.2221  0.0044  0.0397
35443SOL    HW210786   8.936   8.929   9.132 -0.3532 -0.3502 -0.0606
35444SOL     OW10787   0.790   9.669   3.560 -0.3154 -0.1714  0.0098
35444SOL    HW110788   0.745   9.610   3.499  2.7802 -1.1027 -1.5517
35444SOL    HW210789   0.731   9.674   3.635 -2.4461 -2.2029 -1.3633
35445SOL     OW10790   9.655   6.123   6.244 -0.1140  0.0446 -0.2957
35445SOL    HW110791   9.666   6.028   6.245 -0.3702 -0.0066  1.9474
35445SOL    HW210792   9.665   6.150   6.335 -2.3488  1.9091 -0.4996
35446SOL     OW10793   6.658   9.338  10.317 -0.0564  0.7876  0.5985
35446SOL    HW110794   6.708   9.326  10.397  1.9809  0.7967 -0.5918
35446SOL    HW210795   6.640   9.432  10.313 -0.0177  0.8113  0.9363
35447SOL     OW10796  10.715   1.215  10.678  0.0060 -0.2258 -0.2082
35447SOL    HW110797  10.799   1.192  10.718 -1.2290 -1.0690  2.1051
35447SOL    HW210798  10.699   1.146  10.614 -0.0956 -1.6304  1.2523
35448SOL     OW10799   8.830   1.381   7.250 -0.3963  0.0137  0.0871
35448SOL    HW110800   8.867   1.468   7.231 -0.8693  0.1770 -0.0985
35448SOL    HW210801   8.772   1.396   7.324  0.5551 -0.4084  0.9453
35449SOL     OW10802   8.903  10.306   0.273  0.1505  0.2679 -0.1083
35449SOL    HW110803   8.960  10.347   0.208 -2.0862  1.1457 -1.6449
35449SOL    HW210804   8.916  10.212   0.262  2.5993  0.4177  0.8890
35450SOL     OW10805   5.366   4.665   6.672 -0.8623 -0.2328 -0.1329
35450SOL    HW110806   5.421   4.741   6.653  0.8091 -0.9006  1.5774
35450SOL    HW210807   5.377   4.608   6.596  0.9079 -0.3342  0.1351
35451SOL     OW10808   8.608   5.108   0.321  0.0925  1.2586  0.1004
35451SOL    HW110809   8.573   5.108   0.231 -0.4922 -1.1277  0.2685
35451SOL    HW210810   8.698   5.139   0.312  0.7293 -0.8263 -1.6723
35452SOL     OW10811   3.024   5.299   0.957  0.0647  0.2339 -0.8475
35452SOL    HW110812   3.067   5.335   1.035 -0.3628  2.3689 -1.5475
35452SOL    HW210813   2.933   5.289   0.982  0.4825 -2.2840 -0.0526
35453SOL     OW10814   0.264   5.963   4.821  0.3705 -0.6633  0.1225
35453SOL    HW110815   0.251   6.052   4.855 -0.5903 -0.7815  0.0653
35453SOL    HW210816   0.176   5.926   4.813  0.6972 -1.2988 -0.7283
35454SOL     OW10817   8.154   8.464   3.988 -0.3130  0.5437  0.1557
35454SOL    HW110818   8.221   8.517   3.945 -0.8715 -0.3672 -2.0113
35454SOL    HW210819   8.199   8.383   4.011 -0.6776 -0.2535 -1.7129
35455SOL     OW10820   6.990   4.684   0.965 -0.0324  0.1184 -0.2167
35455SOL    HW110821   7.058   4.633   0.920  0.1818  2.4526 -2.8261
35455SOL    HW210822   6.916   4.624   0.974  0.8275 -1.1865 -1.4580
35456SOL     OW10823   3.730   5.919   7.189  0.1911 -0.5274 -0.6599
35456SOL    HW110824   3.651   5.963   7.222  0.5191  0.9507 -1.7321
35456SOL    HW210825   3.746   5.959   7.104  3.4824  1.0619  0.5013
35457SOL     OW10826   6.466   6.754   0.584 -0.2368 -0.2807 -0.3045
35457SOL    HW110827   6.550   6.744   0.629 -0.7522  0.0140  0.7502
35457SOL    HW210828   6.408   6.691   0.627 -0.8569  0.3217 -0.2434
35458SOL     OW10829   1.014   1.089   1.130  0.4093 -0.7582  0.2347
35458SOL    HW110830   0.970   1.081   1.215 -0.4981 -1.2268 -0.2609
35458SOL    HW210831   0.955   1.045   1.069 -0.4831  2.1401 -1.1525
35459SOL     OW10832   5.466   2.701   4.575 -0.5529 -0.8427  0.1603
35459SOL    HW110833   5.524   2.770   4.607 -1.8076 -0.5096  1.8286
35459SOL    HW210834   5.392   2.748   4.536 -1.0452 -1.2335  0.6078
35460SOL     OW10835  10.099   7.741   7.253  0.0518 -0.5475  0.5160
35460SOL    HW110836  10.034   7.725   7.185 -1.6421 -2.9659  2.5531
35460SOL    HW210837  10.112   7.836   7.251 -1.4970 -0.2903 -1.7231
35461SOL     OW10838   3.888   9.969   8.704  0.1997  0.2322  0.2370
35461SOL    HW110839   3.811   9.982   8.758 -0.2361  1.0245 -0.5562
35461SOL    HW210840   3.942  10.047   8.719  0.5836 -0.0490  0.3486
35462SOL     OW10841   5.456   9.508   4.012  0.7717  0.6135 -0.2685
35462SOL    HW110842   5.418   9.442   3.955  2.0739 -1.9421  1.6114
35462SOL    HW210843   5.385   9.571   4.026  0.0252  0.6467 -3.5263
35463SOL     OW10844   1.619   3.543   9.813  0.0792  0.1113 -0.1133
35463SOL    HW110845   1.550   3.484   9.783 -0.6789  0.4079  0.9731
35463SOL    HW210846   1.643   3.510   9.899  0.1274  0.9654  0.2173
35464SOL     OW10847   1.574   9.568   1.252 -0.2761  0.1423  0.1412
35464SOL    HW110848   1.558   9.593   1.344 -1.1626  0.7989 -0.1761
35464SOL    HW210849   1.659   9.605   1.231  0.4518 -0.9622  1.0245
35465SOL     OW10850   1.234   4.119   4.589  0.0051 -0.5451  0.1020
35465SOL    HW110851   1.250   4.025   4.586  2.6508 -0.1738 -0.2526
35465SOL    HW210852   1.261   4.151   4.502  1.9230  0.8344  1.1262
35466SOL     OW10853   6.565   1.815   9.767 -0.3761  0.2449 -0.5068
35466SOL    HW110854   6.554   1.902   9.806  0.8701  0.4592 -0.5691
35466SOL    HW210855   6.495   1.763   9.805 -0.3545  0.9421  0.5687
35467SOL     OW10856   4.228   6.216   5.399 -0.1105 -0.8824  0.5347
35467SOL    HW110857   4.252   6.134   5.443  0.3552 -1.5407 -0.8837
35467SOL    HW210858   4.308   6.243   5.354 -0.4491  0.0180  0.4574
35468SOL     OW10859   2.044   1.622   1.170  0.2884  0.1037  0.0496
35468SOL    HW110860   1.990   1.701   1.174 -0.9686 -0.7855  1.5812
35468SOL    HW210861   1.997   1.564   1.111 -0.4428 -0.6470  1.3353
35469SOL     OW10862   0.251   1.300  10.626  0.8019 -0.0752  0.1976
35469SOL    HW110863   0.254   1.243  10.550  0.8481  0.7143 -0.3999
35469SOL    HW210864   0.200   1.250  10.691  1.4141 -1.0717 -0.0570
35470SOL     OW10865   8.374   1.464   7.360  0.2221  0.2740 -0.0513
35470SOL    HW110866   8.424   1.449   7.440  0.5457  0.7449 -0.1653
35470SOL    HW210867   8.330   1.381   7.344  1.3819 -0.3131 -0.2506
35471SOL     OW10868   7.975   4.359   0.006 -0.0739  0.6180  0.2914
35471SOL    HW110869   7.952   4.362  -0.087  2.0348  2.5675 -0.2874
35471SOL    HW210870   7.893   4.340   0.051 -0.9716 -1.3957 -1.9869
35472SOL     OW10871   7.611   5.400   8.681  0.2448  0.0549  0.2954
35472SOL    HW110872   7.608   5.386   8.776 -0.3066  1.4407  0.5061
35472SOL    HW210873   7.557   5.329   8.645 -0.8540  0.4255  1.1490
35473SOL     OW10874   1.871   5.491   3.284 -0.2159  0.0453 -0.2759
35473SOL    HW110875   1.917   5.575   3.285 -0.4298  0.1651 -0.4023
35473SOL    HW210876   1.847   5.478   3.192 -0.2401 -0.1228 -0.2465
35474SOL     OW10877   3.677  10.768   8.834 -0.3387 -0.0439 -0.5853
35474SOL    HW110878   3.634  10.797   8.753 -0.6870  1.1208  0.0051
35474SOL    HW210879   3.617  10.794   8.903 -0.9512 -2.6623 -0.0163
35475SOL     OW10880   6.991   2.357   8.885 -0.3538  0.2691 -0.1293
35475SOL    HW110881   6.900   2.334   8.869 -0.0936 -0.6165 -0.4133
35475SOL    HW210882   7.040   2.277   8.867  0.2355 -0.1675  2.8463
35476SOL     OW10883   7.894   8.468   5.898  0.3165  0.1694 -0.0460
35476SOL    HW110884   7.834   8.409   5.944  0.4627 -0.5934 -0.8159
35476SOL    HW210885   7.977   8.457   5.944  0.0115  0.8559  0.7062
35477SOL     OW10886   0.592   5.302   0.588 -0.0420  0.6651 -0.2245
35477SOL    HW110887   0.590   5.396   0.569 -0.2429  0.7328  0.1148
35477SOL    HW210888   0.593   5.260   0.503  1.5243  0.9992 -0.4058
35478SOL     OW10889   7.335   2.621   4.134 -0.4910 -0.4942 -0.2289
35478SOL    HW110890   7.240   2.628   4.127 -0.5181 -0.2338  0.3908
35478SOL    HW210891   7.357   2.547   4.077 -1.1086 -0.8303 -0.0403
35479SOL     OW10892   7.007   3.372   0.594  0.2200  0.4386 -0.9412
35479SOL    HW110893   6.917   3.381   0.626  0.6510  0.9927  0.2128
35479SOL    HW210894   6.999   3.357   0.500 -1.0860  0.0867 -0.7880
35480SOL     OW10895   5.679   3.475   3.411 -0.0862  0.2971 -0.0696
35480SOL    HW110896   5.767   3.455   3.378  0.2873  1.3859  0.2130
35480SOL    HW210897   5.623   3.474   3.334  0.0440 -1.0538 -0.1669
35481SOL     OW10898   5.166   5.796   7.215  0.0549  0.6657  0.0345
35481SOL    HW110899   5.185   5.849   7.137 -1.1794  1.0439 -0.0375
35481SOL    HW210900   5.148   5.861   7.283  1.8924  0.3498  0.8820
35482SOL     OW10901   6.743  10.330   3.831  0.0052  0.0020  0.1469
35482SOL    HW110902   6.670  10.369   3.881 -1.2295 -1.9932 -0.0077
35482SOL    HW210903   6.804  10.300   3.898 -0.6198 -0.7314  0.4076
35483SOL     OW10904   3.320   0.789   4.700 -0.3906  0.6183 -0.5462
35483SOL    HW110905   3.411   0.814   4.686 -0.4937  0.4877 -1.5686
35483SOL    HW210906   3.323   0.696   4.720 -0.2920  0.6438 -0.4424
35484SOL     OW10907   2.915  10.524   8.221  0.1984 -0.2987  0.2778
35484SOL    HW110908   2.998  10.516   8.268  0.2753  0.1616  0.2279
35484SOL    HW210909   2.872  10.440   8.235  0.3556 -0.2842  0.9159
35485SOL     OW10910   2.689  10.943   9.238  0.4875 -0.6894  0.3019
35485SOL    HW110911   2.623  10.988   9.187  1.1764  0.6859  0.5769
35485SOL    HW210912   2.737  11.013   9.283 -0.0354 -1.8176  2.7699
35486SOL     OW10913  10.201   0.465   3.496 -0.4329  0.2053  0.1924
35486SOL    HW110914  10.139   0.521   3.451 -0.3058 -0.0270 -0.2788
35486SOL    HW210915  10.241   0.412   3.427  3.5658  3.3979 -0.2815
35487SOL     OW10916   5.237   1.915   7.762  0.1261 -0.2945 -0.5549
35487SOL    HW110917   5.298   1.985   7.738 -0.6077  0.6127  0.1338
35487SOL    HW210918   5.282   1.865   7.829 -0.0192  0.5938  0.2144
35488SOL     OW10919   6.295   8.661   9.343 -0.5456 -0.1199 -0.3631
35488SOL    HW110920   6.240   8.600   9.393 -3.4490  0.6303 -2.3499
35488SOL    HW210921   6.320   8.611   9.265 -1.4976  0.6307 -1.1769
35489SOL     OW10922   1.733   1.295   9.331  0.0841 -0.1476  0.0187
35489SOL    HW110923   1.692   1.217   9.369  1.3313 -0.7683  0.1523
35489SOL    HW210924   1.827   1.276   9.333  0.3060  0.6142 -1.5829
35490SOL     OW10925   0.499   1.270   4.404  0.3563  0.2905 -0.1220
35490SOL    HW110926   0.443   1.195   4.382  0.5138  0.6399 -1.8379
35490SOL    HW210927   0.587   1.242   4.381  0.9298 -0.1843  2.3965
35491SOL     OW10928   1.807   5.625  10.221 -0.1928  0.3068 -0.4168
35491SOL    HW110929   1.789   5.542  10.265 -1.7846  1.3224  0.9872
35491SOL    HW210930   1.857   5.676  10.286 -0.7551  1.0770 -0.5745
35492SOL     OW10931   4.490   6.551   2.378 -0.3799 -0.4578 -0.4836
35492SOL    HW110932   4.521   6.495   2.449 -2.2775 -1.4364 -0.3859
35492SOL    HW210933   4.481   6.638   2.419 -2.4025 -1.2088  0.7972
35493SOL     OW10934   5.752   1.547   3.335 -0.0587 -0.2546 -0.3073
35493SOL    HW110935   5.702   1.520   3.413 -1.6350  0.2663 -1.0906
35493SOL    HW210936   5.793   1.629   3.360 -2.0477  0.8831 -0.5414
35494SOL     OW10937   9.243   6.471   5.201 -0.4463 -0.1286  0.2061
35494SOL    HW110938   9.232   6.519   5.283  0.9556 -0.3902  0.5822
35494SOL    HW210939   9.160   6.481   5.155 -1.9460 -1.4818  2.4247
35495SOL     OW10940  10.828   0.969   9.809  0.4381  0.5176  0.2223
35495SOL    HW110941  10.758   0.907   9.831  1.3421 -0.9162 -0.7635
35495SOL    HW210942  10.908   0.917   9.815  1.1360  1.2589 -1.8198
35496SOL     OW10943   7.364   5.867   2.392  0.0209 -0.2906  0.0887
35496SOL    HW110944   7.432   5.846   2.456  0.6529 -0.5273 -0.6435
35496SOL    HW210945   7.356   5.962   2.396 -1.0522 -0.4219  1.6161
35497SOL     OW10946   2.842   9.940   9.354 -0.1223  0.2298  0.1021
35497SOL    HW110947   2.802   9.891   9.426 -0.6318 -0.0294 -0.3493
35497SOL    HW210948   2.784  10.015   9.341 -0.5168 -0.1800 -0.5964
35498SOL     OW10949   1.134   4.656   6.991 -0.4144 -0.6447 -0.0225
35498SOL    HW110950   1.104   4.609   6.913  1.3240 -0.3733 -0.9246
35498SOL    HW210951   1.159   4.587   7.053 -0.6343 -0.8815 -0.1953
35499SOL     OW10952   8.397   2.628   2.873 -0.5760 -0.3760  0.5288
35499SOL    HW110953   8.393   2.545   2.921  1.7100  1.0776  3.5919
35499SOL    HW210954   8.328   2.681   2.912 -0.4416 -0.0280  0.2976
35500SOL     OW10955   3.017   1.255   1.547 -0.0025 -0.1385 -0.3031
35500SOL    HW110956   3.021   1.350   1.537 -2.4972  0.3415  1.9180
35500SOL    HW210957   3.065   1.237   1.628  0.5508 -0.8035 -0.7656
35501SOL     OW10958   3.106   2.517   2.666 -0.0101 -0.1542  0.3892
35501SOL    HW110959   3.192   2.555   2.686 -0.4877  0.9206  0.4806
35501SOL    HW210960   3.092   2.536   2.573  0.9759 -2.6729 -0.3723
35502SOL     OW10961   6.499   3.410   6.782 -0.4249 -0.4089 -0.6916
35502SOL    HW110962   6.468   3.319   6.785  0.4612 -0.6961  0.6890
35502SOL    HW210963   6.468   3.448   6.864  1.5855 -0.2934  0.0575
35503SOL     OW10964   7.932   3.343   6.101  0.6406 -0.3257 -0.2121
35503SOL    HW110965   8.020   3.362   6.134  0.7813 -0.2062 -0.6462
35503SOL    HW210966   7.917   3.252   6.124  1.3990 -0.7383 -1.2496
35504SOL     OW10967   6.083   9.750  10.250  0.1297  0.4682 -0.2598
35504SOL    HW110968   6.137   9.826  10.271  1.3355 -0.7703  1.5091
35504SOL    HW210969   5.993   9.777  10.270  0.3650  1.8292 -0.9870
35505SOL     OW10970  10.242   7.514   2.871 -0.1574 -0.1064  0.5406
35505SOL    HW110971  10.268   7.541   2.782  1.2653 -2.5727  0.1148
35505SOL    HW210972  10.210   7.595   2.911  0.1236  1.3275 -1.8607
35506SOL     OW10973   9.385   2.648   8.275 -0.4146 -0.5697  0.1195
35506SOL    HW110974   9.317   2.704   8.312 -0.8099  0.5483 -2.1562
35506SOL    HW210975   9.338   2.585   8.221  0.1903 -1.8127  0.9744
35507SOL     OW10976   0.835   6.426   6.781  0.0849  0.1684 -0.8539
35507SOL    HW110977   0.845   6.332   6.769 -0.8760 -0.0404 -0.0750
35507SOL    HW210978   0.807   6.437   6.871  1.0509  1.2765 -0.6492
35508SOL     OW10979   4.610   0.583   1.457  0.5225 -0.2017  0.0208
35508SOL    HW110980   4.581   0.571   1.366  1.0063 -3.3902  0.1736
35508SOL    HW210981   4.528   0.585   1.507  0.3082  0.0295 -0.3288
35509SOL     OW10982  10.453   3.363   2.077 -0.1511 -0.0491  0.0326
35509SOL    HW110983  10.409   3.436   2.122 -0.0180  1.1248 -1.6763
35509SOL    HW210984  10.386   3.294   2.072 -1.3206  1.1160 -1.0840
35510SOL     OW10985   1.131  10.351   5.354 -0.3136 -0.4244 -0.8498
35510SOL    HW110986   1.036  10.350   5.368 -0.1257 -1.3258  0.4889
35510SOL    HW210987   1.153  10.444   5.351 -0.8437 -0.1364  1.8960
35511SOL     OW10988   4.656   2.093  10.668  0.0960 -0.1533  0.0444
35511SOL    HW110989   4.720   2.158  10.696 -0.7141  0.8234 -0.2904
35511SOL    HW210990   4.614   2.064  10.748  0.5896 -0.3985  0.2144
35512SOL     OW10991   1.874   5.542   9.127  0.2780  0.4401  0.2907
35512SOL    HW110992   1.915   5.484   9.064  0.4384 -1.6177  2.1791
35512SOL    HW210993   1.823   5.603   9.074  0.4652 -1.1244 -1.8057
35513SOL     OW10994   9.575   2.136   5.924 -0.1208 -0.4282 -0.3971
35513SOL    HW110995   9.518   2.094   5.859 -0.6667 -2.3742  1.2218
35513SOL    HW210996   9.664   2.121   5.892 -0.2945 -2.9226  0.0796
35514SOL     OW10997   8.354   4.860   4.241 -0.2445  0.1824 -0.6739
35514SOL    HW110998   8.333   4.857   4.334 -0.7800 -1.5339 -0.8221
35514SOL    HW210999   8.276   4.825   4.197  0.7988 -1.0833 -1.5991
35515SOL     OW11000   7.110   6.937   6.783 -0.0803 -0.0937  0.0936
35515SOL    HW111001   7.072   6.865   6.833 -0.2126 -0.5941 -0.7082
35515SOL    HW211002   7.148   6.895   6.706 -0.1943  0.6982 -0.4030
35516SOL     OW11003   6.246   1.690   1.911 -0.9119  0.1196 -0.6219
35516SOL    HW111004   6.175   1.696   1.974  1.3373 -0.8902  2.2718
35516SOL    HW211005   6.267   1.781   1.889 -0.1074  0.7350  2.2808
35517SOL     OW11006   8.692   8.789   6.337 -0.1337 -0.7274 -0.2120
35517SOL    HW111007   8.713   8.715   6.282  1.8715  0.1159 -0.6663
35517SOL    HW211008   8.653   8.854   6.278 -0.3197 -0.7715 -0.1394
35518SOL     OW11009   0.008   6.604   6.206  0.0926 -0.2493 -0.1247
35518SOL    HW111010   0.041   6.520   6.236 -2.7049 -2.1609 -1.9205
35518SOL    HW211011   0.079   6.666   6.224  3.0717 -3.2945 -0.5324
35519SOL     OW11012  10.161   2.741   7.361 -0.1439 -0.3020 -0.0285
35519SOL    HW111013  10.164   2.834   7.340  0.1947 -0.2923  0.0533
35519SOL    HW211014  10.243   2.706   7.327  0.8119 -0.1351  1.9600
35520SOL     OW11015  10.026   1.581   3.948 -0.5063 -0.1019  0.1478
35520SOL    HW111016   9.996   1.672   3.951 -0.7835 -0.2049  1.4054
35520SOL    HW211017  10.050   1.562   4.039 -0.3751 -1.2569 -0.1222
35521SOL     OW11018   0.277   2.458   0.603 -0.2821  0.4534  0.2237
35521SOL    HW111019   0.236   2.544   0.593  0.7676  1.0095  0.6204
35521SOL    HW211020   0.329   2.465   0.683  0.4019 -0.3090 -0.1406
35522SOL     OW11021   3.176   5.628  10.878  0.2152  0.4447 -0.3128
35522SOL    HW111022   3.157   5.623  10.971 -4.2170  0.5403 -1.0138
35522SOL    HW211023   3.183   5.722  10.860 -0.1648  0.4810 -0.2713
35523SOL     OW11024   7.367   2.224   9.297 -0.1798 -0.0843  0.2518
35523SOL    HW111025   7.366   2.299   9.356  1.8546 -1.6142  2.4179
35523SOL    HW211026   7.287   2.233   9.245 -1.4828  1.9876  2.4172
35524SOL     OW11027   9.561   5.833   3.557 -0.0524 -0.7448 -0.2595
35524SOL    HW111028   9.471   5.823   3.527 -0.3365 -1.8106  0.8785
35524SOL    HW211029   9.595   5.744   3.561  1.0958 -0.3531 -0.7568
35525SOL     OW11030   5.603  10.457  10.503 -0.0223  0.1994  0.0987
35525SOL    HW111031   5.620  10.477  10.595 -0.5762  0.3298  0.1758
35525SOL    HW211032   5.566  10.369  10.504  1.4039 -0.4376 -0.1459
35526SOL     OW11033   0.459   5.829   3.215  0.4003 -0.1810 -0.1040
35526SOL    HW111034   0.458   5.738   3.247 -1.4658 -0.2482 -0.2102
35526SOL    HW211035   0.478   5.821   3.122 -0.1455 -0.5201 -0.1930
35527SOL     OW11036   2.581   1.703   2.195 -0.2736  0.3917  0.8309
35527SOL    HW111037   2.666   1.688   2.154  0.0625  3.3653  0.2173
35527SOL    HW211038   2.537   1.618   2.191  0.1604  0.0685 -4.6752
35528SOL     OW11039   7.928   8.226   9.791 -0.1476  0.0677 -0.0894
35528SOL    HW111040   7.959   8.196   9.705 -1.0451  2.1001 -1.1803
35528SOL    HW211041   7.834   8.205   9.791 -0.1773  0.1871  0.3617
35529SOL     OW11042   4.238   3.371   7.231  0.3105 -0.2857 -0.3918
35529SOL    HW111043   4.225   3.278   7.211  1.1602 -0.1246 -1.9287
35529SOL    HW211044   4.211   3.416   7.151  0.4538  0.7432  0.1284
35530SOL     OW11045   0.563   2.557   4.802 -0.3054 -0.1394 -0.5319
35530SOL    HW111046   0.482   2.535   4.848  0.5729 -0.5821  0.8672
35530SOL    HW211047   0.603   2.626   4.855 -0.1695  0.6996 -1.6848
35531SOL     OW11048   6.473   4.702   0.511 -0.3674  0.0582  0.0298
35531SOL    HW111049   6.485   4.784   0.558 -2.5042 -0.1907  1.1206
35531SOL    HW211050   6.474   4.727   0.419 -0.1335  1.1557  0.3156
35532SOL     OW11051   3.859   3.699  10.722  0.0356  0.1837  0.1848
35532SOL    HW111052   3.939   3.654  10.696  0.1962 -0.1467  1.1949
35532SOL    HW211053   3.808   3.707  10.642  0.0757 -1.6582 -0.0671
35533SOL     OW11054   6.820   2.847   0.864  0.0713  0.3533  0.5702
35533SOL    HW111055   6.809   2.928   0.914 -0.2929  0.0819  0.9398
35533SOL    HW211056   6.833   2.876   0.774 -0.7903  0.8088  0.5759
35534SOL     OW11057   4.408   2.664   2.377 -0.0467 -0.2326  0.6871
35534SOL    HW111058   4.447   2.577   2.382 -0.8100 -0.5811  0.8638
35534SOL    HW211059   4.320   2.648   2.342 -0.4779  0.3718  1.4572
35535SOL     OW11060   2.985   8.309   9.180  0.5251  0.5581 -0.1812
35535SOL    HW111061   2.946   8.247   9.118 -2.4673  1.9495  0.1306
35535SOL    HW211062   3.019   8.380   9.125  0.6835  0.3555 -0.3485
35536SOL     OW11063   4.339  10.275   3.493 -0.0993 -0.1764  0.2857
35536SOL    HW111064   4.328  10.205   3.558 -2.6611  0.1606  0.3289
35536SOL    HW211065   4.375  10.348   3.543 -2.3969  0.2043  1.5427
35537SOL     OW11066  10.817   8.110   8.345  0.1495 -0.7160  1.1486
35537SOL    HW111067  10.813   8.077   8.255 -1.9135  0.8450  0.6044
35537SOL    HW211068  10.898   8.161   8.347 -0.1563 -0.1401 -0.0667
35538SOL     OW11069   1.981   8.667   1.139  0.6622  0.0548 -0.2889
35538SOL    HW111070   2.061   8.691   1.186 -0.9526 -0.6598  3.1270
35538SOL    HW211071   1.991   8.573   1.122  1.9955  0.6206 -3.1900
35539SOL     OW11072   5.669   2.056   6.152  0.6655 -0.1851 -0.8225
35539SOL    HW111073   5.618   2.007   6.217 -0.6196  1.0198 -0.8660
35539SOL    HW211074   5.758   2.054   6.186 -0.0774  0.9969  1.4033
35540SOL     OW11075   3.974   7.640   4.323 -0.2327  0.1239 -0.3401
35540SOL    HW111076   3.980   7.553   4.362 -0.7517  0.2432  0.0209
35540SOL    HW211077   4.041   7.691   4.368 -0.5899  0.1659  0.1508
35541SOL     OW11078   4.244   4.674   1.730  0.4499  0.1847  0.1803
35541SOL    HW111079   4.304   4.747   1.746 -0.5623  0.7142  1.8800
35541SOL    HW211080   4.166   4.697   1.780 -0.1477 -1.7600  0.1944
35542SOL     OW11081   1.737   7.998   6.503 -0.3297 -0.3357  0.2142
35542SOL    HW111082   1.650   8.012   6.466 -0.1629  0.5184  0.1221
35542SOL    HW211083   1.736   7.907   6.532 -1.2757 -0.3131  0.2896
35543SOL     OW11084  10.251   5.593   5.256 -0.3720 -0.3866 -0.1177
35543SOL    HW111085  10.223   5.542   5.332 -0.5057 -0.6443 -0.3387
35543SOL    HW211086  10.338   5.626   5.280 -0.7812  0.2656  0.4979
35544SOL     OW11087   1.915   4.701   7.200 -0.0960 -0.0539  0.1688
35544SOL    HW111088   1.855   4.746   7.140 -0.0617 -0.7194 -0.3866
35544SOL    HW211089   2.002   4.731   7.175  0.0266 -1.1972 -0.9392
35545SOL     OW11090   5.039   0.964   4.122 -0.0399 -0.3504 -0.5658
35545SOL    HW111091   5.054   1.014   4.201  0.2073 -0.1931 -0.7117
35545SOL    HW211092   5.115   0.982   4.067  0.0572 -0.8882 -0.6162
35546SOL     OW11093   0.136   9.712   4.735  0.3384  0.2443  0.4392
35546SOL    HW111094   0.104   9.662   4.810 -0.3047 -4.0212 -2.3205
35546SOL    HW211095   0.230   9.693   4.731  0.8555  2.3855  1.3896
35547SOL     OW11096   8.149   5.709   3.925 -0.0332  0.0244  0.3241
35547SOL    HW111097   8.173   5.664   3.844  2.1701  0.1744  0.8356
35547SOL    HW211098   8.214   5.779   3.933 -0.8819  0.6776  1.6753
35548SOL     OW11099   7.761   5.366   7.251  0.2619 -0.4050  0.0867
35548SOL    HW111100   7.816   5.307   7.199 -0.8171 -1.1016 -0.2876
35548SOL    HW211101   7.823   5.426   7.292  1.2028 -0.4069 -1.2840
35549SOL     OW11102   7.624   0.717   6.619 -0.1653 -0.0065  0.2487
35549SOL    HW111103   7.631   0.798   6.568  0.4617 -0.3454 -0.2213
35549SOL    HW211104   7.642   0.743   6.709 -0.4421  0.4541  0.1724
35550SOL     OW11105   7.487   1.705   0.320  0.0330  0.6062 -0.7273
35550SOL    HW111106   7.460   1.751   0.400 -2.0717  0.3136 -1.2126
35550SOL    HW211107   7.563   1.753   0.289  0.2220  1.3927  0.8582
35551SOL     OW11108  10.279   1.146  10.070 -0.5435 -0.4865 -0.5507
35551SOL    HW111109  10.197   1.118  10.029 -1.5971  1.6209  0.0038
35551SOL    HW211110  10.313   1.214  10.012 -0.9324  1.0052  0.9226
35552SOL     OW11111   3.832   5.755   9.447  0.1519  0.0435  0.0370
35552SOL    HW111112   3.819   5.660   9.452  0.1639  0.0133 -0.5200
35552SOL    HW211113   3.867   5.771   9.359 -0.4293  0.6293 -0.0946
35553SOL     OW11114   6.452   3.269   8.252 -0.2565  0.2210  0.0238
35553SOL    HW111115   6.363   3.298   8.275 -0.7502  0.1169 -1.6312
35553SOL    HW211116   6.493   3.347   8.215 -0.4600 -0.2990 -1.3469
35554SOL     OW11117   2.420   1.102   5.878 -0.2419 -0.7353  0.1007
35554SOL    HW111118   2.510   1.130   5.865  1.1050 -4.9719 -1.3922
35554SOL    HW211119   2.401   1.125   5.969  1.3911  2.3252 -0.1887
35555SOL     OW11120  10.729   3.308   2.847 -0.7382 -0.4555 -0.0634
35555SOL    HW111121  10.739   3.273   2.935 -0.8169  1.1723  0.6259
35555SOL    HW211122  10.643   3.278   2.819 -0.9148 -0.5827  0.6004
35556SOL     OW11123  10.679   8.075   5.099  0.0766  0.1316  0.2604
35556SOL    HW111124  10.596   8.113   5.071 -1.1044 -0.8052  2.2863
35556SOL    HW211125  10.744   8.118   5.044 -1.7566  0.5961 -1.6745
35557SOL     OW11126   1.101   0.236   7.267  0.2259  0.3259  0.0859
35557SOL    HW111127   1.031   0.264   7.326 -0.1751  0.2643 -0.3491
35557SOL    HW211128   1.171   0.206   7.325  0.5597  1.9439  0.5679
35558SOL     OW11129   5.165  10.338   6.790 -0.3429  0.4935  0.2424
35558SOL    HW111130   5.155  10.246   6.815  0.8909 -0.6035 -2.7112
35558SOL    HW211131   5.077  10.365   6.763 -0.2205 -0.9561 -1.8980
35559SOL     OW11132   6.525   2.103  10.926 -0.0986  0.8396  0.2761
35559SOL    HW111133   6.482   2.044  10.864 -0.7112  1.0441  0.4924
35559SOL    HW211134   6.618   2.083  10.919 -0.2902 -0.0880  0.2811
35560SOL     OW11135   6.613   6.136  10.209 -0.2011 -0.2134 -0.6250
35560SOL    HW111136   6.600   6.048  10.174  0.8344 -1.1207  1.1027
35560SOL    HW211137   6.704   6.136  10.240 -1.0009  0.4337  2.0098
35561SOL     OW11138   8.022   1.397   7.098 -0.5923  0.3978  0.0910
35561SOL    HW111139   8.002   1.403   7.192  0.2025  0.2226  0.2818
35561SOL    HW211140   7.981   1.316   7.070 -0.7817  0.4185  0.3069
35562SOL     OW11141   0.878   4.169  10.241  0.8338  0.1010  0.5452
35562SOL    HW111142   0.893   4.170  10.335  1.6330 -0.6823  0.4396
35562SOL    HW211143   0.791   4.207  10.230  1.2665  1.4170  1.4788
35563SOL     OW11144   8.628   3.295   1.182 -0.1056 -0.6579  0.3372
35563SOL    HW111145   8.660   3.205   1.173  0.7716 -0.4056  0.7670
35563SOL    HW211146   8.611   3.323   1.093  1.5560 -0.5852  0.0106
35564SOL     OW11147   2.657   3.374  11.070  0.1518 -0.0203 -0.8256
35564SOL    HW111148   2.590   3.342  11.130 -0.8942 -0.1101 -1.9832
35564SOL    HW211149   2.647   3.319  10.992  1.9744 -0.4170 -0.8247
35565SOL     OW11150   9.831   8.218   9.894  0.0995  0.4201 -0.3004
35565SOL    HW111151   9.882   8.143   9.925  0.6665  0.9801  0.1622
35565SOL    HW211152   9.741   8.186   9.889  0.2301 -0.1015  0.5381
35566SOL     OW11153   6.863   5.900   6.898 -0.0539  0.1841  0.1710
35566SOL    HW111154   6.843   5.812   6.867  0.2893 -0.1001  0.7704
35566SOL    HW211155   6.944   5.924   6.853 -1.3157  1.1063 -1.7946
35567SOL     OW11156   6.889   2.337   7.073  0.1018 -0.5572  0.2699
35567SOL    HW111157   6.898   2.242   7.066 -1.0258 -0.6018 -1.0187
35567SOL    HW211158   6.951   2.373   7.010  0.4860 -0.4320  0.7138
35568SOL     OW11159   2.416   1.008   6.140  0.5931  0.1677  0.0443
35568SOL    HW111160   2.358   0.933   6.127  0.9330  0.1610 -1.8005
35568SOL    HW211161   2.361   1.084   6.123  1.1097  0.1527 -1.9364
35569SOL     OW11162   2.871   8.600   2.266  0.0525  0.6631 -0.2161
35569SOL    HW111163   2.965   8.588   2.255 -0.1328  1.3076 -3.4762
35569SOL    HW211164   2.836   8.511   2.267  0.5031  0.4008 -2.3095
35570SOL     OW11165   1.137   3.206  10.682 -0.2463 -0.2519  0.2639
35570SOL    HW111166   1.071   3.274  10.686  1.0880  1.1021  0.0663
35570SOL    HW211167   1.220   3.251  10.698  0.9656 -1.3627 -2.2351
35571SOL     OW11168   1.937   7.752   7.124 -0.1506 -0.5790 -0.6076
35571SOL    HW111169   1.986   7.832   7.105 -0.7111 -0.1158 -0.1253
35571SOL    HW211170   1.964   7.690   7.055  1.7404 -0.6207  0.1062
35572SOL     OW11171   0.760   9.420   4.909  0.3293  0.6970  0.8475
35572SOL    HW111172   0.799   9.507   4.905  1.6138  0.0914 -0.4072
35572SOL    HW211173   0.714   9.410   4.825 -2.5352  1.3330  2.1996
35573SOL     OW11174   3.723   8.919   9.888  0.4351 -0.4179 -0.0819
35573SOL    HW111175   3.800   8.952   9.842 -1.4382  0.4299 -2.9212
35573SOL    HW211176   3.656   8.912   9.820 -2.2653 -0.3390  2.3705
35574SOL     OW11177   2.413   3.940   4.891 -0.0122 -0.0021  0.2245
35574SOL    HW111178   2.504   3.924   4.914 -0.2770 -0.9166  0.7078
35574SOL    HW211179   2.398   3.887   4.812  0.1725  1.0272 -0.5106
35575SOL     OW11180   7.777   1.319   5.720  0.5878  0.0467 -0.0174
35575SOL    HW111181   7.707   1.381   5.699  0.9927  1.2285  1.8949
35575SOL    HW211182   7.854   1.354   5.675  0.4545  0.0193 -0.2683
35576SOL     OW11183   7.467   1.219   9.438  0.4610 -0.4672  0.2880
35576SOL    HW111184   7.466   1.275   9.360 -0.7866  0.3268  0.8512
35576SOL    HW211185   7.552   1.236   9.479  1.1814 -0.9788 -0.9297
35577SOL     OW11186   4.994  10.131  10.303  0.7544  0.4881 -0.4152
35577SOL    HW111187   4.933  10.174  10.243  1.4474 -0.3810 -1.8142
35577SOL    HW211188   5.056  10.086  10.245  1.8166  0.1032  0.9717
35578SOL     OW11189   9.034   1.005   8.303  0.4026  1.1831 -0.1099
35578SOL    HW111190   9.127   1.016   8.324  0.5563  3.4560 -1.6104
35578SOL    HW211191   9.034   0.970   8.214 -0.2387 -0.5514  0.5177
35579SOL     OW11192   0.934   5.086   6.972 -0.0260  0.5112 -0.0146
35579SOL    HW111193   0.993   5.020   7.009  2.3084  1.4814 -1.7064
35579SOL    HW211194   0.959   5.167   7.017 -0.5997  0.8250 -0.2544
35580SOL     OW11195   6.890   6.605   7.141 -0.7960  0.4154 -0.0466
35580SOL    HW111196   6.896   6.644   7.228  1.8752 -1.3567  0.7008
35580SOL    HW211197   6.821   6.539   7.149  0.6795 -1.0570  1.4001
35581SOL     OW11198   9.717   4.919  10.821  0.6686  0.0340  0.1812
35581SOL    HW111199   9.687   5.009  10.834 -1.6290 -0.8129  1.2305
35581SOL    HW211200   9.676   4.869  10.892  1.8019 -1.8732 -0.4258
35582SOL     OW11201   4.620   2.567   4.868  0.1494 -0.1449 -0.3039
35582SOL    HW111202   4.606   2.476   4.895 -0.6349 -0.2022 -0.8628
35582SOL    HW211203   4.532   2.604   4.861  0.3512  0.1006 -1.9102
35583SOL     OW11204  10.163   8.270  10.410 -0.5256  0.5612  0.6009
35583SOL    HW111205  10.230   8.328  10.373 -1.4585  1.7705  0.7272
35583SOL    HW211206  10.135   8.215  10.337  0.9080 -0.2971  0.6555
35584SOL     OW11207   5.227   2.727   5.910 -0.6838 -0.1520  0.2041
35584SOL    HW111208   5.164   2.775   5.857 -1.2425 -1.2488 -0.1622
35584SOL    HW211209   5.229   2.640   5.871  0.7592 -0.2550  0.4671
35585SOL     OW11210   6.735   4.747   0.797 -0.3845 -0.0482 -0.1245
35585SOL    HW111211   6.756   4.654   0.807 -1.1860 -0.4722 -2.0129
35585SOL    HW211212   6.811   4.784   0.753 -0.4296  0.0253 -0.1392
35586SOL     OW11213   5.375   6.715   9.516 -0.2111  0.7571 -0.4644
35586SOL    HW111214   5.446   6.763   9.474  1.5396 -1.4228 -0.1418
35586SOL    HW211215   5.295   6.754   9.478  1.1279  2.5500 -1.6346
35587SOL     OW11216   6.298   2.413   4.967  0.1927 -0.2982  0.1538
35587SOL    HW111217   6.367   2.479   4.958  0.3210 -0.5181 -0.5017
35587SOL    HW211218   6.239   2.430   4.894  0.5411 -1.2751 -0.3692
35588SOL     OW11219   3.460   6.986   7.968  0.3189 -0.9898 -0.0991
35588SOL    HW111220   3.544   6.960   8.005  0.1930 -1.0315  0.1572
35588SOL    HW211221   3.416   6.903   7.948  0.3749 -0.9685 -0.3183
35589SOL     OW11222   1.231  11.067   0.271  0.4732  0.1294  0.2938
35589SOL    HW111223   1.232  11.032   0.360 -0.5426 -2.1942 -0.5061
35589SOL    HW211224   1.290  11.009   0.222  0.8514  1.2335 -0.6057
35590SOL     OW11225   9.967   3.401   0.655  0.2509  0.1422 -0.3961
35590SOL    HW111226   9.912   3.479   0.654 -1.6486 -0.8047  4.3226
35590SOL    HW211227  10.053   3.433   0.683  0.4501  0.8696 -1.7577
35591SOL     OW11228   3.573   6.103   7.505 -0.4142 -0.0302 -0.1920
35591SOL    HW111229   3.525   6.154   7.570  0.3286 -0.2204  0.5243
35591SOL    HW211230   3.506   6.071   7.445 -0.7945  3.1379 -1.6623
35592SOL     OW11231   0.893   2.208   6.987  0.1084 -0.4922  0.3099
35592SOL    HW111232   0.859   2.287   6.944 -0.1810 -1.1972 -0.8155
35592SOL    HW211233   0.988   2.216   6.981  0.1729  0.8146  2.2048
35593SOL     OW11234   4.523   4.364   3.487  0.6433  0.6519  0.4428
35593SOL    HW111235   4.493   4.282   3.525 -1.0466  0.6779 -0.7161
35593SOL    HW211236   4.507   4.355   3.393  2.1941  1.6014  0.0381
35594SOL     OW11237   5.839   3.129   2.343  0.0167 -0.4058 -0.2323
35594SOL    HW111238   5.911   3.178   2.383  0.9028  0.0696 -2.2740
35594SOL    HW211239   5.866   3.118   2.252 -1.8489 -1.5201 -0.6889
35595SOL     OW11240   9.212   3.051   2.580  0.0653 -0.4354 -0.4969
35595SOL    HW111241   9.187   2.973   2.530 -1.2377  1.1887 -2.5709
35595SOL    HW211242   9.166   3.123   2.536  3.0224  1.8456 -0.1279
35596SOL     OW11243   8.517   5.309  10.857 -0.6798  0.6296  0.1640
35596SOL    HW111244   8.433   5.264  10.848 -1.1956  1.8891 -2.1750
35596SOL    HW211245   8.571   5.250  10.909 -2.2943 -1.2305 -0.1582
35597SOL     OW11246   2.647   9.391   3.975 -0.2661  0.7309 -0.1577
35597SOL    HW111247   2.704   9.317   3.996 -2.4097 -1.1765 -0.5973
35597SOL    HW211248   2.599   9.408   4.057 -0.8521  0.5839 -0.4622
35598SOL     OW11249   7.648   7.426   4.470 -0.0981  0.6081 -0.1380
35598SOL    HW111250   7.645   7.346   4.522  1.4830 -0.8356 -2.0911
35598SOL    HW211251   7.577   7.480   4.504 -1.6018 -1.8570  0.8938
35599SOL     OW11252   5.619   5.765  10.332  0.4654 -0.2097  0.4575
35599SOL    HW111253   5.703   5.747  10.373  1.3542  0.4191 -0.9989
35599SOL    HW211254   5.640   5.779  10.240 -1.3815 -1.2125 -0.1760
35600SOL     OW11255   9.853   2.616   3.492 -0.9140 -0.1379  0.2186
35600SOL    HW111256   9.897   2.579   3.569 -0.2789  1.2704  0.5705
35600SOL    HW211257   9.832   2.706   3.518 -0.2811  0.5050 -1.3911
35601SOL     OW11258   9.386   8.227   4.367  0.1367  0.5153  0.4203
35601SOL    HW111259   9.381   8.322   4.376  0.5045  0.7552 -1.5079
35601SOL    HW211260   9.323   8.205   4.299 -0.7492 -0.7921  1.5904
35602SOL     OW11261   3.055   8.395   7.811  0.0118 -0.1896 -0.2151
35602SOL    HW111262   3.066   8.490   7.815  0.0253 -0.0692 -2.2772
35602SOL    HW211263   3.131   8.360   7.858 -0.3391  0.7786  1.1605
35603SOL     OW11264   6.011   3.616   1.452  0.1719  0.0276  0.4656
35603SOL    HW111265   5.993   3.668   1.531  0.6737 -1.2684  1.4702
35603SOL    HW211266   5.932   3.563   1.441  0.1336  0.1529  0.1373
35604SOL     OW11267  10.793   8.635   6.325  0.0682  0.2035 -0.1406
35604SOL    HW111268  10.812   8.550   6.285  1.2897  0.6465 -0.5511
35604SOL    HW211269  10.742   8.681   6.259  1.4007  0.6343 -0.9188
35605SOL     OW11270   0.561   0.958   6.805 -0.0996  0.4509 -0.7020
35605SOL    HW111271   0.498   0.904   6.853  0.4126  0.9603  0.6068
35605SOL    HW211272   0.591   1.022   6.870  1.6551  0.3046 -1.3210
35606SOL     OW11273   5.485   6.984   5.604 -0.1321 -0.1330  0.4910
35606SOL    HW111274   5.545   7.051   5.636 -0.8269  0.5094  0.4642
35606SOL    HW211275   5.474   7.003   5.511  1.1127 -1.4089  0.0392
35607SOL     OW11276   1.180   2.046   5.384  0.2046 -0.1508  0.1647
35607SOL    HW111277   1.242   2.050   5.456  1.4482 -0.4582 -0.8604
35607SOL    HW211278   1.133   1.964   5.398  1.8298 -1.2314 -0.4439
35608SOL     OW11279  10.106   5.273   1.753  0.2460 -0.0085  0.1073
35608SOL    HW111280  10.149   5.331   1.816 -0.0648  0.8087 -0.4170
35608SOL    HW211281  10.033   5.325   1.719  0.0662 -0.6459 -0.4942
35609SOL     OW11282   5.517   8.799   2.374 -0.2323 -0.1731 -0.2935
35609SOL    HW111283   5.580   8.867   2.398 -0.2992 -0.0964 -0.3342
35609SOL    HW211284   5.466   8.837   2.303  0.5587 -0.7293 -1.1947
35610SOL     OW11285   6.131   7.630   2.961 -0.1215 -0.0937 -0.1384
35610SOL    HW111286   6.079   7.605   2.884 -1.4354  1.6073  0.1234
35610SOL    HW211287   6.189   7.699   2.929 -1.2070  1.1622  0.5064
35611SOL     OW11288   0.523   0.853   8.770 -0.7478 -0.1073  0.3289
35611SOL    HW111289   0.439   0.838   8.727 -1.4677  0.0062  1.6392
35611SOL    HW211290   0.522   0.794   8.845  0.9447 -1.1029 -0.3853
35612SOL     OW11291   9.299   7.712   0.971  0.0996  0.4447 -0.1946
35612SOL    HW111292   9.348   7.795   0.976  0.7198  0.0161  2.4132
35612SOL    HW211293   9.359   7.648   1.010 -1.4505 -0.6599  0.4375
35613SOL     OW11294   3.924  10.213   8.263  0.1275  0.4020  0.6906
35613SOL    HW111295   3.881  10.217   8.348 -0.0726  2.7594  0.5526
35613SOL    HW211296   3.863  10.258   8.204  0.3115 -1.0908 -0.7181
35614SOL     OW11297   9.520   2.313   2.109  0.8754 -0.5036 -0.2552
35614SOL    HW111298   9.529   2.275   2.021 -0.7244  1.5468 -1.4045
35614SOL    HW211299   9.445   2.268   2.147  1.4779 -1.2888  0.0337
35615SOL     OW11300   2.227   3.104   0.145  0.2823 -0.3080  0.0593
35615SOL    HW111301   2.132   3.093   0.142  0.1140  1.1799 -0.5825
35615SOL    HW211302   2.243   3.195   0.121  1.8100 -0.1653  1.3920
35616SOL     OW11303   7.126   1.579   7.907  0.2220 -0.4805 -0.9493
35616SOL    HW111304   7.222   1.577   7.901  0.1698 -1.6709 -1.9994
35616SOL    HW211305   7.101   1.487   7.915 -0.7756 -0.0656  1.1612
35617SOL     OW11306   4.762   7.791  10.845 -0.1560  0.4615  0.2727
35617SOL    HW111307   4.690   7.847  10.817  0.4783  1.1948  0.0717
35617SOL    HW211308   4.722   7.729  10.907 -1.1057  0.3374 -0.4487
35618SOL     OW11309   8.448   9.584   3.044 -0.6250 -0.2820 -0.9951
35618SOL    HW111310   8.459   9.677   3.024  0.3437 -0.2157 -0.2398
35618SOL    HW211311   8.353   9.572   3.050 -0.7325  1.0383  0.5894
35619SOL     OW11312   3.294   2.913   8.279  0.0958  0.4483  0.6505
35619SOL    HW111313   3.243   2.961   8.344  0.9471  1.8951  0.3060
35619SOL    HW211314   3.358   2.977   8.247  0.6949 -0.6764 -0.4971
35620SOL     OW11315   2.311   5.749   9.792  0.3836  0.1745  0.0832
35620SOL    HW111316   2.282   5.731   9.882  1.5826 -1.8765  0.1209
35620SOL    HW211317   2.399   5.786   9.803  0.4144  0.1991 -0.2527
35621SOL     OW11318  10.624   7.828  10.491  0.0121  0.0879 -0.4122
35621SOL    HW111319  10.580   7.776  10.424 -0.5627 -0.6240  0.4970
35621SOL    HW211320  10.713   7.793  10.494  0.6416  1.4145 -2.1289
35622SOL     OW11321   0.843  11.070   0.824 -0.0105  0.5095  0.3879
35622SOL    HW111322   0.839  11.051   0.918  1.0776  0.3864  0.4211
35622SOL    HW211323   0.862  11.163   0.820  0.7748  0.3573  0.3172
35623SOL     OW11324   0.109   4.486  10.845  0.4089  0.3753 -0.3618
35623SOL    HW111325   0.059   4.516  10.769 -0.8787 -1.1450 -0.1685
35623SOL    HW211326   0.185   4.544  10.849 -1.3340  2.8457 -0.6537
35624SOL     OW11327   8.896   6.630   8.965 -0.0286 -0.3170 -0.3279
35624SOL    HW111328   8.956   6.677   9.023 -1.7089  0.7038  0.6549
35624SOL    HW211329   8.905   6.673   8.880 -0.2774  0.6639  0.1274
35625SOL     OW11330   2.609  10.630   9.513  0.4334 -0.2737 -0.1695
35625SOL    HW111331   2.693  10.631   9.467 -0.2247  4.2302 -1.8128
35625SOL    HW211332   2.564  10.553   9.478  1.7694  0.3540 -3.7488
35626SOL     OW11333   6.430   9.940   2.297 -0.2572  0.1078  0.4344
35626SOL    HW111334   6.357   9.878   2.291  0.6573 -0.8779 -1.3724
35626SOL    HW211335   6.402  10.014   2.244  0.2025 -0.4603 -0.6260
35627SOL     OW11336  10.338   2.886   8.100 -0.3058 -0.6896  0.2426
35627SOL    HW111337  10.266   2.949   8.092  1.1566  0.9406 -0.8779
35627SOL    HW211338  10.415   2.939   8.118  1.0665 -2.0944 -1.0829
35628SOL     OW11339   7.012   9.728  10.397  0.0255  0.0337  0.3960
35628SOL    HW111340   6.926   9.722  10.437 -0.5762  2.2469 -0.4019
35628SOL    HW211341   7.010   9.810  10.347  3.3315  1.4726  2.2363
35629SOL     OW11342   2.620   4.222  10.147 -0.0676  0.0553 -0.1570
35629SOL    HW111343   2.673   4.166  10.091 -0.7421 -1.3613  0.5796
35629SOL    HW211344   2.594   4.166  10.220 -0.9420  1.2740  0.5091
35630SOL     OW11345   8.308  10.637   5.556  0.4040 -0.7005 -0.3565
35630SOL    HW111346   8.273  10.560   5.512  0.9586 -0.6888 -0.8371
35630SOL    HW211347   8.340  10.605   5.640 -0.3862 -0.7820 -0.0865
35631SOL     OW11348   4.862   2.558   2.563  0.1618  0.1408  0.2997
35631SOL    HW111349   4.850   2.553   2.469  1.7027 -0.7169  0.1114
35631SOL    HW211350   4.945   2.604   2.575  0.6217 -0.8586  1.1699
35632SOL     OW11351   9.163   8.992   0.894  0.1096 -0.6846 -0.3419
35632SOL    HW111352   9.153   9.036   0.977  1.1198 -0.4494 -0.3256
35632SOL    HW211353   9.152   8.899   0.914  0.0318 -0.6003 -0.0009
35633SOL     OW11354   8.906  11.039   0.519  0.2544  0.2877 -0.6160
35633SOL    HW111355   8.925  11.061   0.611  1.4685  0.8844 -0.9838
35633SOL    HW211356   8.828  11.089   0.498 -0.3771 -0.3031  0.2516
35634SOL     OW11357  10.664   5.059   1.336  0.6467 -0.1628  0.4112
35634SOL    HW111358  10.684   5.128   1.400 -2.4365 -0.1064  1.4895
35634SOL    HW211359  10.653   4.980   1.389 -0.1969 -0.4976 -0.2444
35635SOL     OW11360   0.082   8.556   1.943 -0.3192  0.2048 -0.6278
35635SOL    HW111361   0.037   8.634   1.910 -0.9082 -0.6415 -1.9373
35635SOL    HW211362   0.012   8.492   1.956 -0.4601  0.9618  4.2236
35636SOL     OW11363   3.848   7.566   9.118 -0.6333  0.0452 -0.0749
35636SOL    HW111364   3.859   7.475   9.145  0.3923 -0.4532 -1.9866
35636SOL    HW211365   3.933   7.590   9.082 -0.6474  2.0366  1.0850
35637SOL     OW11366   2.646   4.026   7.537  0.1204 -0.4499 -0.0197
35637SOL    HW111367   2.660   4.088   7.466  0.7352 -0.2800  0.2378
35637SOL    HW211368   2.728   3.977   7.542 -0.2837 -1.1479 -0.0869
35638SOL     OW11369   6.565   6.905   7.020 -0.4560 -0.2207 -0.7215
35638SOL    HW111370   6.653   6.906   7.058 -0.1766 -2.6142 -1.1600
35638SOL    HW211371   6.575   6.858   6.938 -1.8954  0.9188 -1.5930
35639SOL     OW11372   1.964   8.413   2.452 -0.1269 -0.3714  0.0501
35639SOL    HW111373   1.910   8.430   2.375  0.6669 -1.1270 -0.6967
35639SOL    HW211374   1.933   8.476   2.517 -2.6829 -1.4947  0.0607
35640SOL     OW11375   6.903   7.857   2.489 -0.2832 -0.7623 -0.3316
35640SOL    HW111376   6.983   7.839   2.440  0.9925 -2.7232  2.2145
35640SOL    HW211377   6.880   7.773   2.528 -1.3757  0.5669  2.1193
35641SOL     OW11378   7.629   6.777   7.155  0.6900  0.2520 -0.1251
35641SOL    HW111379   7.589   6.842   7.213  1.6149  1.4634 -0.7958
35641SOL    HW211380   7.650   6.703   7.212 -0.6037  0.4303  0.6140
35642SOL     OW11381   4.426   8.205   1.787 -0.0862 -0.7715  0.0383
35642SOL    HW111382   4.362   8.209   1.716  0.0990  2.7637 -0.0787
35642SOL    HW211383   4.510   8.192   1.743  0.0209  1.3492 -0.4608
35643SOL     OW11384   7.965   5.227   6.210 -0.2622 -0.1803  0.0487
35643SOL    HW111385   7.921   5.143   6.194  0.4314 -0.8184  1.3360
35643SOL    HW211386   8.026   5.209   6.281  3.0984  0.3047 -2.4467
35644SOL     OW11387   2.556   5.681   7.760  0.2865  0.1945 -0.2469
35644SOL    HW111388   2.581   5.658   7.849 -0.6120 -2.8565 -0.6570
35644SOL    HW211389   2.638   5.709   7.718  0.8348  1.0203  1.3186
35645SOL     OW11390   6.409   8.107  11.048  0.4017  0.9916 -0.0093
35645SOL    HW111391   6.387   8.073  10.962  0.6615 -0.2985  0.4058
35645SOL    HW211392   6.496   8.145  11.038  0.8922 -0.1104 -0.0975
35646SOL     OW11393   7.514   5.578   8.037 -0.3609  0.0279 -0.4712
35646SOL    HW111394   7.469   5.661   8.053 -0.4576 -0.2852  1.0457
35646SOL    HW211395   7.477   5.518   8.101  1.4207 -0.5257  0.1087
35647SOL     OW11396   1.437   5.613   8.689 -0.7567  0.1846  0.3790
35647SOL    HW111397   1.453   5.669   8.613 -0.0219 -0.6391 -0.1010
35647SOL    HW211398   1.342   5.600   8.690 -0.8887  1.0678  0.2417
35648SOL     OW11399   5.399   6.977   3.864 -0.1495 -0.7885  0.0358
35648SOL    HW111400   5.310   6.991   3.896 -0.2078 -0.6585 -0.1839
35648SOL    HW211401   5.419   6.886   3.887  1.4292  0.4036  4.5168
35649SOL     OW11402   5.158   7.743   7.788 -0.1189 -0.1117 -0.0700
35649SOL    HW111403   5.151   7.784   7.702 -0.3091  0.8469  0.3971
35649SOL    HW211404   5.234   7.784   7.829 -0.6218  0.1640  0.6070
35650SOL     OW11405   9.038   0.009   7.575  0.3291  0.3966  0.3529
35650SOL    HW111406   9.019  -0.032   7.490  0.2998  0.0584  0.5204
35650SOL    HW211407   8.983  -0.038   7.637  0.9489  0.0942  0.6866
35651SOL     OW11408   1.539   0.500   7.014  0.2511  0.4682 -0.5581
35651SOL    HW111409   1.493   0.573   7.056  0.0725  0.5720 -0.9334
35651SOL    HW211410   1.513   0.505   6.922  0.7797  0.3475 -0.7168
35652SOL     OW11411   3.175   0.369   4.046 -0.0363  0.3282 -0.0909
35652SOL    HW111412   3.139   0.394   4.131  0.4571  1.0137 -0.0700
35652SOL    HW211413   3.253   0.317   4.067  1.9696  3.1317 -0.0136
35653SOL     OW11414   7.727   4.591   4.329 -0.1482 -0.0627  0.3155
35653SOL    HW111415   7.749   4.591   4.422 -0.7696  1.2514  0.4919
35653SOL    HW211416   7.808   4.620   4.286 -0.2462  0.6320  0.5812
35654SOL     OW11417   0.923   8.855   7.721  0.4192 -0.0766  0.0691
35654SOL    HW111418   0.830   8.875   7.725  0.4288  0.3691 -1.3776
35654SOL    HW211419   0.960   8.922   7.664  1.7484  0.1271  1.1216
35655SOL     OW11420   7.381   6.669  11.021 -0.3051 -0.1619  0.6427
35655SOL    HW111421   7.460   6.653  11.072  0.0778  0.1266  0.1535
35655SOL    HW211422   7.406   6.649  10.931 -0.7384  0.0954  0.4612
35656SOL     OW11423   5.553  10.901   2.677  0.0384  0.1929  0.0903
35656SOL    HW111424   5.513  10.960   2.613 -0.1741 -0.7214 -0.6419
35656SOL    HW211425   5.536  10.943   2.761 -1.1232  0.6117 -0.3193
35657SOL     OW11426   4.433  10.264   6.401  0.1661  0.3196 -0.1708
35657SOL    HW111427   4.486  10.225   6.331  2.0053  0.2446  1.1732
35657SOL    HW211428   4.363  10.201   6.416  0.1175  0.0329 -1.4960
35658SOL     OW11429   6.586   5.769   2.788  0.1441  0.0919  0.5757
35658SOL    HW111430   6.647   5.816   2.732 -1.0661  1.8625  0.6213
35658SOL    HW211431   6.521   5.732   2.728  0.4083 -0.4358  0.6193
35659SOL     OW11432   5.564   5.135   9.840 -0.3418  0.2820  0.2109
35659SOL    HW111433   5.525   5.050   9.821 -0.2397  0.2541  0.1208
35659SOL    HW211434   5.491   5.189   9.870 -0.5383  0.3731 -0.4094
35660SOL     OW11435   7.928   8.727   8.462  0.5700 -0.3498 -0.4835
35660SOL    HW111436   7.971   8.713   8.547 -2.7241 -0.4870  1.3418
35660SOL    HW211437   7.870   8.801   8.477  0.8982  0.5603 -3.1479
35661SOL     OW11438   4.856   5.986   5.599  0.1889  0.1465  0.4199
35661SOL    HW111439   4.770   5.988   5.557 -0.3285  1.0452  1.4571
35661SOL    HW211440   4.903   6.060   5.562 -0.5969  1.5093  2.0008
35662SOL     OW11441   6.315   3.389   1.779  0.0715 -0.5330  0.0448
35662SOL    HW111442   6.355   3.398   1.692 -1.5211  1.3578 -0.5729
35662SOL    HW211443   6.373   3.438   1.837  0.4387 -0.6880 -0.1854
35663SOL     OW11444  10.743   5.350   3.306  0.3998 -0.0584  0.6209
35663SOL    HW111445  10.661   5.399   3.304 -0.0572 -0.8268 -0.7546
35663SOL    HW211446  10.809   5.413   3.336 -0.2766  1.2089 -0.4899
35664SOL     OW11447   8.624  10.003   3.300  0.1408  0.2867 -0.3261
35664SOL    HW111448   8.677  10.016   3.222  1.2620  1.5914  0.5994
35664SOL    HW211449   8.613   9.908   3.307  1.7730  0.0297 -0.9302
35665SOL     OW11450   4.614   8.180   1.011 -0.6720 -0.3529 -0.1244
35665SOL    HW111451   4.537   8.128   1.035 -0.0752 -1.1433  0.1386
35665SOL    HW211452   4.618   8.250   1.076 -0.1345 -1.3787  0.9830
35666SOL     OW11453   9.972   9.262   1.174  0.5060 -0.3686  0.2969
35666SOL    HW111454  10.067   9.256   1.161  0.6495  0.7461  0.6958
35666SOL    HW211455   9.938   9.177   1.146  1.4686 -0.2980 -1.1863
35667SOL     OW11456   6.078   6.794   4.745  0.1225  0.5439 -0.0538
35667SOL    HW111457   6.097   6.880   4.709  1.9478 -0.1298 -0.8601
35667SOL    HW211458   6.090   6.734   4.671  0.6960 -0.5642  0.8989
35668SOL     OW11459   2.130   2.190  10.649 -0.1650 -0.6050 -0.1358
35668SOL    HW111460   2.106   2.170  10.740  2.5795  1.2730  1.1324
35668SOL    HW211461   2.208   2.137  10.633  0.6389  0.6801 -0.5960
35669SOL     OW11462   3.675   0.612   5.561 -0.7591  0.0662  0.7714
35669SOL    HW111463   3.716   0.691   5.597  1.1060  0.1207 -1.2466
35669SOL    HW211464   3.591   0.642   5.526 -0.8645  0.7796  1.6079
35670SOL     OW11465   7.770   0.529  10.496 -0.0893 -0.0493  0.2194
35670SOL    HW111466   7.857   0.491  10.486  0.8076  1.9250  0.0041
35670SOL    HW211467   7.717   0.458  10.532  1.3336 -1.6128 -0.6215
35671SOL     OW11468   6.507   4.801   0.250  0.2314 -0.6282 -0.2307
35671SOL    HW111469   6.507   4.880   0.195  2.2067  0.2551  0.9486
35671SOL    HW211470   6.591   4.759   0.232  0.3118 -1.0613  1.0502
35672SOL     OW11471   0.615   0.202  11.024  0.0917  0.0097 -0.9175
35672SOL    HW111472   0.596   0.286  10.983  0.8573  0.9699  0.6176
35672SOL    HW211473   0.585   0.212  11.115 -3.2521 -2.6584 -1.4903
35673SOL     OW11474   7.991   7.312   0.556  0.0718  0.0674  0.0051
35673SOL    HW111475   7.936   7.336   0.481  1.1115 -0.6200 -1.0215
35673SOL    HW211476   8.000   7.217   0.549 -1.9050 -0.4328  2.5248
35674SOL     OW11477   3.784   2.098  10.896  0.1479  0.2158  0.1260
35674SOL    HW111478   3.795   2.143  10.812 -0.0835  0.8323  0.4158
35674SOL    HW211479   3.705   2.045  10.884  0.9678 -0.8887 -0.5408
35675SOL     OW11480   7.854   5.391   4.897 -0.6716 -0.0010  0.1194
35675SOL    HW111481   7.888   5.479   4.880 -1.5850  1.0455  2.9880
35675SOL    HW211482   7.919   5.350   4.954  0.3348 -1.7617 -2.1227
35676SOL     OW11483   2.795   2.194   0.132  0.6094  0.2107 -0.6800
35676SOL    HW111484   2.790   2.115   0.077  1.7215  0.6872 -1.5070
35676SOL    HW211485   2.889   2.211   0.140  0.3775  2.0560 -1.4330
35677SOL     OW11486  10.602   9.890   9.033 -0.3762  0.1044 -0.2237
35677SOL    HW111487  10.677   9.916   9.087 -0.9206 -0.6846  0.9606
35677SOL    HW211488  10.598   9.956   8.964 -0.5076  2.0604  1.5413
35678SOL     OW11489   3.649   5.905   1.535  0.0986 -0.3514 -0.1615
35678SOL    HW111490   3.583   5.913   1.604  1.1582  1.9113  0.6964
35678SOL    HW211491   3.605   5.856   1.465 -2.0840  0.0545  0.8268
35679SOL     OW11492   8.658  10.011   0.766  0.6825  0.6450  0.8203
35679SOL    HW111493   8.732   9.951   0.757 -0.2530 -0.2978 -0.9288
35679SOL    HW211494   8.608   9.977   0.841  1.0219  0.2054  0.8489
35680SOL     OW11495  10.632   9.441   8.258 -0.2000  0.3943  0.1252
35680SOL    HW111496  10.616   9.478   8.344  0.3438 -0.6781  0.7074
35680SOL    HW211497  10.664   9.352   8.275 -0.2800  0.0902 -1.1831
35681SOL     OW11498   6.785   4.362   2.161  0.8423  0.1002 -0.4637
35681SOL    HW111499   6.776   4.427   2.092  0.4659  0.7009  0.1389
35681SOL    HW211500   6.830   4.288   2.119 -1.3995 -0.5317 -1.9905
35682SOL     OW11501   8.199   7.374   5.820 -0.3832 -0.1280  0.3684
35682SOL    HW111502   8.285   7.374   5.863 -0.7654  0.0571  1.1450
35682SOL    HW211503   8.155   7.297   5.856 -1.0452  0.5380  1.0123
35683SOL     OW11504   0.128   2.101   1.935 -0.3685 -0.4468  0.1180
35683SOL    HW111505   0.076   2.030   1.974  1.5392 -1.1723  1.4574
35683SOL    HW211506   0.219   2.075   1.949  0.4006  1.0799 -1.6213
35684SOL     OW11507  10.381   0.401   2.836  0.0370 -0.7158 -0.0162
35684SOL    HW111508  10.451   0.349   2.795 -1.0760 -1.1560 -1.4614
35684SOL    HW211509  10.371   0.477   2.778 -0.6013 -0.6104  0.2240
35685SOL     OW11510   2.248   2.622   7.940 -0.7286 -0.7300 -0.3457
35685SOL    HW111511   2.244   2.715   7.917 -0.2987 -0.5161  0.3764
35685SOL    HW211512   2.159   2.600   7.967 -0.7649 -0.4446 -0.2267
35686SOL     OW11513   9.099  10.091   1.166  0.5721 -0.3444 -0.2783
35686SOL    HW111514   9.007  10.093   1.137  0.1175 -2.1347  0.8457
35686SOL    HW211515   9.094  10.068   1.259  2.1571 -0.6840 -0.2476
35687SOL     OW11516   6.292   9.469   5.184 -0.2271 -0.4797 -0.1494
35687SOL    HW111517   6.353   9.399   5.161 -0.3743 -0.6812  0.0711
35687SOL    HW211518   6.347   9.547   5.193 -0.0951 -0.5180 -0.6211
35688SOL     OW11519   4.540   2.087   8.677 -0.3463 -0.5983  0.1742
35688SOL    HW111520   4.568   2.006   8.633  0.1565 -1.7367  2.4660
35688SOL    HW211521   4.449   2.071   8.701 -1.1285  0.6487 -1.7475
35689SOL     OW11522   9.263   1.787   9.095  0.0425 -0.5863 -0.1083
35689SOL    HW111523   9.302   1.719   9.150 -0.6642  0.0626  1.2743
35689SOL    HW211524   9.195   1.742   9.045 -2.9217 -0.4675  3.3845
35690SOL     OW11525   9.439   3.633   3.981  0.2553 -0.0397  0.6851
35690SOL    HW111526   9.501   3.595   3.918  0.1726 -1.0366  1.1989
35690SOL    HW211527   9.417   3.718   3.943 -0.2442 -0.8439 -0.9400
35691SOL     OW11528  10.892   6.452   7.426 -0.2038 -0.1109  0.0710
35691SOL    HW111529  10.818   6.419   7.375  0.7879 -1.4345 -0.5869
35691SOL    HW211530  10.907   6.540   7.392 -1.4096  0.1444  0.1615
35692SOL     OW11531   5.532  10.819   5.152 -0.1009 -0.1111  0.4657
35692SOL    HW111532   5.567  10.754   5.212 -0.5354  0.1962  1.0653
35692SOL    HW211533   5.513  10.895   5.207  3.7637  1.9632 -0.7128
35693SOL     OW11534   1.785   9.197   5.379 -0.0169 -0.1164  0.4879
35693SOL    HW111535   1.691   9.197   5.362  0.0593 -2.5960 -0.4559
35693SOL    HW211536   1.794   9.161   5.468  0.0291 -0.1513  0.4699
35694SOL     OW11537  10.116   5.656   1.414  0.2281  0.5266 -0.0150
35694SOL    HW111538  10.142   5.591   1.349  1.1020  0.1659  0.6801
35694SOL    HW211539  10.187   5.657   1.478 -0.4355  1.1397  0.7454
35695SOL     OW11540   3.985   4.822   6.946  0.2863  0.0746  0.7359
35695SOL    HW111541   3.995   4.764   7.022 -0.8391 -4.2164 -2.0618
35695SOL    HW211542   3.892   4.842   6.943  0.1132 -0.7637 -0.0684
35696SOL     OW11543   5.096  10.496   9.107 -0.0788  0.2832 -0.2098
35696SOL    HW111544   5.022  10.438   9.121 -0.2165  0.6339  0.5740
35696SOL    HW211545   5.159  10.444   9.057 -0.1013 -0.6237  0.6771
35697SOL     OW11546   6.263  10.849   2.369  0.2621 -0.5394 -0.0566
35697SOL    HW111547   6.326  10.911   2.334  3.5702 -2.3258  2.2291
35697SOL    HW211548   6.316  10.778   2.404 -2.9792 -1.9267  2.6013
35698SOL     OW11549  10.768  10.435   2.053 -0.4413 -0.3811 -0.2679
35698SOL    HW111550  10.683  10.401   2.024  0.2612 -1.0910 -1.6206
35698SOL    HW211551  10.793  10.377   2.125  0.1988 -2.0931 -1.7790
35699SOL     OW11552   9.467  10.026   4.532  0.5471  0.6695  0.0018
35699SOL    HW111553   9.527  10.098   4.548 -0.8338  1.8563  0.1207
35699SOL    HW211554   9.395  10.066   4.483  0.7837 -1.1270 -1.9023
35700SOL     OW11555   3.456   0.775   7.708  0.6687  0.1201 -0.2505
35700SOL    HW111556   3.438   0.861   7.744  1.0744  0.0954  0.0106
35700SOL    HW211557   3.394   0.717   7.753  1.2412  0.0736  0.4801
35701SOL     OW11558   2.357   2.351   3.440 -0.7081  0.0333  0.0013
35701SOL    HW111559   2.297   2.408   3.487 -0.9606 -0.0014 -0.2782
35701SOL    HW211560   2.436   2.404   3.426 -0.4933 -0.0744  0.7781
35702SOL     OW11561   5.975   7.867   2.178 -0.2365  0.5774  0.2124
35702SOL    HW111562   5.882   7.883   2.163 -0.4476  0.7176  1.5432
35702SOL    HW211563   5.997   7.793   2.121 -1.6660 -0.8188  1.3897
35703SOL     OW11564   4.028   2.084  10.484  0.6870  0.6321  0.0260
35703SOL    HW111565   4.012   2.021  10.554  1.5409 -0.7660 -0.9711
35703SOL    HW211566   3.994   2.041  10.405 -0.6745  2.3687 -0.3769
35704SOL     OW11567   4.574   3.832   4.426  0.2441 -0.2024  0.4735
35704SOL    HW111568   4.592   3.742   4.455  0.6983  0.0351  0.9521
35704SOL    HW211569   4.504   3.863   4.483 -0.5569 -0.5561 -0.2943
35705SOL     OW11570   8.343   2.324   8.531 -0.3517 -0.0995  0.9809
35705SOL    HW111571   8.432   2.344   8.501 -0.3860  0.5155  1.2847
35705SOL    HW211572   8.356   2.274   8.612 -0.2878  0.1933  1.1504
35706SOL     OW11573   8.412   7.978   6.936  0.0878 -0.5023  0.3974
35706SOL    HW111574   8.363   7.980   6.854 -0.9949 -1.7949  0.9860
35706SOL    HW211575   8.489   7.924   6.916 -0.9724 -2.1843  0.5956
35707SOL     OW11576   2.267   3.013   6.622 -0.4122 -0.0913 -0.4504
35707SOL    HW111577   2.238   2.928   6.590  0.1667 -0.4287 -0.1074
35707SOL    HW211578   2.286   2.999   6.714 -1.6648  0.7720 -0.0344
35708SOL     OW11579   1.016   5.614   1.214 -0.0875  0.7200  0.1250
35708SOL    HW111580   0.988   5.561   1.289 -1.3589  1.5566  0.2749
35708SOL    HW211581   0.942   5.611   1.154  0.4279  1.0931 -0.5366
35709SOL     OW11582  10.963   2.317   0.992  0.3636 -0.5198 -0.4304
35709SOL    HW111583  10.884   2.289   1.038 -0.2529  1.2889 -0.3052
35709SOL    HW211584  10.943   2.306   0.900  0.9354 -2.4342 -0.3726
35710SOL     OW11585  10.998   6.403   2.475 -0.3112  0.0977 -0.4389
35710SOL    HW111586  11.023   6.343   2.545 -0.3189 -0.5765 -0.9979
35710SOL    HW211587  11.065   6.391   2.407  0.4998  1.7881  0.0211
35711SOL     OW11588   8.065   4.960   0.019 -0.0336 -0.1953  0.5128
35711SOL    HW111589   8.078   4.891  -0.046  1.4757 -0.1042  0.6856
35711SOL    HW211590   8.051   5.039  -0.033  2.5790  0.1483  0.2011
35712SOL     OW11591   6.305   5.660   7.446 -0.0765 -0.2819  0.4579
35712SOL    HW111592   6.255   5.579   7.442  1.0562 -1.3273  3.6853
35712SOL    HW211593   6.394   5.635   7.420  0.2205 -0.0847  1.2301
35713SOL     OW11594  10.242  10.078   2.260  0.0250 -0.4512  0.0076
35713SOL    HW111595  10.309  10.102   2.197  1.7018 -3.3955  0.4591
35713SOL    HW211596  10.266  10.123   2.340  0.1677  0.2185 -0.4068
35714SOL     OW11597   5.464   2.665   6.997  0.3571  0.0348 -0.4731
35714SOL    HW111598   5.413   2.719   7.058 -1.6098 -3.2668  1.0500
35714SOL    HW211599   5.439   2.697   6.910 -1.8316  0.6701  0.3211
35715SOL     OW11600   2.915   8.536   4.957  0.4281 -0.0723 -0.0456
35715SOL    HW111601   2.915   8.627   4.986 -0.1010  0.2754 -1.0790
35715SOL    HW211602   2.851   8.534   4.886  1.7346 -0.8634 -1.2384
35716SOL     OW11603   5.393   9.619   4.838  0.2184  0.4297  0.1018
35716SOL    HW111604   5.359   9.537   4.874  1.7959  0.1791  1.1022
35716SOL    HW211605   5.488   9.609   4.842  0.4424  1.7709 -1.0564
35717SOL     OW11606   4.196   7.344   5.103 -0.3240  0.2990 -0.0961
35717SOL    HW111607   4.191   7.270   5.042 -1.9945  0.3388 -0.0619
35717SOL    HW211608   4.155   7.312   5.183 -3.0847  1.8450 -0.7680
35718SOL     OW11609   5.925   0.191   3.842 -0.5974 -0.4108 -0.0816
35718SOL    HW111610   5.896   0.281   3.853  2.0155  0.6010 -0.7183
35718SOL    HW211611   5.928   0.155   3.931 -1.5517  0.1302  0.1859
35719SOL     OW11612   9.811   2.000   5.442 -0.4458  0.2602  0.0736
35719SOL    HW111613   9.819   1.958   5.356  1.2129 -2.2748  1.3364
35719SOL    HW211614   9.880   2.066   5.443  2.6080 -2.6898  0.8925
35720SOL     OW11615   2.466   3.107   3.977 -0.8829 -0.0191 -0.2267
35720SOL    HW111616   2.422   3.058   4.046 -0.2329  0.8478  0.8391
35720SOL    HW211617   2.470   3.197   4.011 -0.0343  0.3045 -1.1434
35721SOL     OW11618   4.327   6.274   2.711  0.2353  0.1853 -0.0469
35721SOL    HW111619   4.280   6.316   2.783  0.3604  1.9818 -0.9307
35721SOL    HW211620   4.266   6.209   2.676  0.4100 -1.1829  2.0217
35722SOL     OW11621   8.756   6.401   7.098  0.2435 -0.2623 -0.1996
35722SOL    HW111622   8.771   6.314   7.134 -0.9980 -1.2539 -1.9753
35722SOL    HW211623   8.664   6.420   7.116 -0.1407 -0.3729 -1.9393
35723SOL     OW11624   8.305   9.363   2.238 -0.4466 -0.1895  0.1827
35723SOL    HW111625   8.225   9.391   2.284  1.2691  1.5147  2.3282
35723SOL    HW211626   8.353   9.312   2.304  1.5830  1.3593 -0.0243
35724SOL     OW11627   6.575   8.828   9.543 -0.4227 -0.1491  0.5311
35724SOL    HW111628   6.624   8.910   9.546 -0.0913 -0.3730  1.3771
35724SOL    HW211629   6.640   8.761   9.521 -0.7847 -0.1212 -0.6659
35725SOL     OW11630   9.858   4.995   4.807 -0.2203  0.0705  0.3136
35725SOL    HW111631   9.815   4.916   4.840 -0.7737  0.0170 -0.5199
35725SOL    HW211632   9.808   5.020   4.730  2.9229 -1.7025 -2.5622
35726SOL     OW11633   1.380   0.977   5.373  0.1845 -0.2123  0.3230
35726SOL    HW111634   1.381   0.946   5.282 -3.5966  1.3975 -0.4720
35726SOL    HW211635   1.437   1.053   5.373  1.4735 -1.1385 -0.2629
35727SOL     OW11636   2.313   7.710   4.673 -0.0532  0.3065  0.1254
35727SOL    HW111637   2.318   7.803   4.650 -0.9035  0.8528  2.0093
35727SOL    HW211638   2.227   7.700   4.713  0.1981 -1.2178  0.3157
35728SOL     OW11639   7.519   6.078   5.222 -0.1314 -0.4498  0.3732
35728SOL    HW111640   7.586   6.143   5.241 -0.2913 -0.9079  2.8725
35728SOL    HW211641   7.438   6.127   5.214 -0.2162 -0.2720  2.0282
35729SOL     OW11642   1.517   9.282   2.666 -0.2442  0.3594 -0.4249
35729SOL    HW111643   1.540   9.373   2.643  2.2220 -0.0170  0.2851
35729SOL    HW211644   1.599   9.244   2.697 -0.9886 -2.4285 -1.5956
35730SOL     OW11645   8.982   3.734   2.001 -1.3638  0.2506  0.1899
35730SOL    HW111646   9.074   3.742   1.976 -1.5157  2.3971  0.1151
35730SOL    HW211647   8.950   3.658   1.952  0.3988 -0.6963  0.4127
35731SOL     OW11648   4.068  11.002   2.597 -0.1781 -0.0277  0.4532
35731SOL    HW111649   4.076  11.093   2.626 -1.4657  0.3998 -0.4568
35731SOL    HW211650   4.104  11.002   2.509 -3.0721  0.3639 -0.8333
35732SOL     OW11651   1.071   4.085   5.252 -0.2975 -0.2955 -0.9327
35732SOL    HW111652   1.151   4.037   5.233 -1.1282 -2.7987  1.2653
35732SOL    HW211653   1.008   4.052   5.188 -0.4725 -1.1572 -0.3497
35733SOL     OW11654   5.133   0.754   6.120  0.2616 -0.1338 -0.1451
35733SOL    HW111655   5.144   0.723   6.030  0.4578 -1.8699  0.4394
35733SOL    HW211656   5.219   0.741   6.160 -0.2602 -1.0113  0.7442
35734SOL     OW11657   8.664   1.239   5.086 -0.1179 -0.1588  0.3742
35734SOL    HW111658   8.632   1.156   5.120  2.2081 -2.0330 -1.6395
35734SOL    HW211659   8.614   1.253   5.006 -0.9562  0.8042  1.0303
35735SOL     OW11660   0.049   4.951   7.180 -0.1812  0.0874 -0.1268
35735SOL    HW111661   0.100   4.964   7.100  2.9681 -1.1924  1.5160
35735SOL    HW211662   0.071   4.862   7.208 -0.6495  0.7269  2.5016
35736SOL     OW11663   8.062   2.962   6.939  0.1352  0.3516 -0.0274
35736SOL    HW111664   8.045   2.977   6.846 -0.1521  1.9925  0.2562
35736SOL    HW211665   8.157   2.958   6.946  0.1416 -1.0544 -0.5395
35737SOL     OW11666   9.941   6.115   8.469 -0.4137 -0.2139 -0.7375
35737SOL    HW111667  10.023   6.165   8.468 -0.8281  0.7284  2.1334
35737SOL    HW211668   9.903   6.129   8.383 -0.1792  3.9996 -0.3710
35738SOL     OW11669   0.838  10.966   1.361  0.2601  0.0653  0.2340
35738SOL    HW111670   0.869  10.921   1.440 -1.9833 -0.7784  0.7058
35738SOL    HW211671   0.805  10.896   1.305  0.4184  0.8016 -0.7962
35739SOL     OW11672   8.430   3.890   5.176  0.5683  0.1947  0.1715
35739SOL    HW111673   8.426   3.984   5.196  4.9702  1.0305 -1.5648
35739SOL    HW211674   8.512   3.861   5.216 -0.4339 -2.8633  0.2149
35740SOL     OW11675   8.923   9.559   6.753  0.0456 -0.3594  0.2143
35740SOL    HW111676   9.010   9.582   6.721  0.5633 -0.3352  1.5599
35740SOL    HW211677   8.933   9.471   6.788 -0.5042 -0.3958  0.2829
35741SOL     OW11678   8.363   9.892   1.594 -0.2073  0.3656 -0.1529
35741SOL    HW111679   8.289   9.939   1.631 -1.4414 -1.6136  0.0781
35741SOL    HW211680   8.412   9.861   1.670 -2.2706 -2.9707  0.0317
35742SOL     OW11681   3.519   2.980   9.521  0.4336 -0.7480  0.6692
35742SOL    HW111682   3.528   2.993   9.427  0.7923  0.8951  0.9009
35742SOL    HW211683   3.572   2.903   9.540  1.7593 -0.0949 -0.2364
35743SOL     OW11684   9.843   5.408   1.999 -0.4052  0.1242 -0.0480
35743SOL    HW111685   9.771   5.436   2.056  1.1826  1.6970  1.3411
35743SOL    HW211686   9.900   5.357   2.057  0.6130  0.6608 -0.5503
35744SOL     OW11687   5.822   4.009   8.613  0.2773  0.0484  0.4310
35744SOL    HW111688   5.909   4.050   8.608  0.5125 -0.5064 -0.1047
35744SOL    HW211689   5.816   3.978   8.703  0.4602  0.4646  0.5914
35745SOL     OW11690   3.727   9.653   6.332  0.6156  0.3246  0.2689
35745SOL    HW111691   3.733   9.561   6.357  1.1243  0.0641 -0.7539
35745SOL    HW211692   3.636   9.676   6.351  0.0337 -0.8485 -0.9180
35746SOL     OW11693   2.336   5.271   8.183 -0.7071  0.7284 -1.1951
35746SOL    HW111694   2.263   5.333   8.176 -1.6729  0.1391  2.0289
35746SOL    HW211695   2.405   5.320   8.227 -1.0022 -0.0563  0.1916
35747SOL     OW11696   0.002   3.253   5.934  0.3721  0.4713  0.3265
35747SOL    HW111697  -0.013   3.348   5.935 -1.8776  0.2490 -1.7819
35747SOL    HW211698  -0.080   3.217   5.900  1.0541 -2.2820  1.3897
35748SOL     OW11699   5.234   9.473   6.773 -0.1979 -0.7266 -0.2505
35748SOL    HW111700   5.252   9.527   6.850 -0.4800 -0.7749 -0.1511
35748SOL    HW211701   5.246   9.383   6.803 -0.2733 -0.7437 -0.2728
35749SOL     OW11702   6.287   8.695   8.285 -0.1580 -0.4861  0.4583
35749SOL    HW111703   6.306   8.621   8.228  0.4302 -1.0115  1.3168
35749SOL    HW211704   6.282   8.658   8.373 -0.1418  0.4421  0.8664
35750SOL     OW11705   2.093   9.720   3.590 -0.0164  0.0235 -0.2919
35750SOL    HW111706   2.163   9.752   3.648 -1.3581  1.8507  0.3834
35750SOL    HW211707   2.121   9.747   3.503 -0.1247  1.2338  0.0342
35751SOL     OW11708  10.947   6.231   9.447  0.0832  0.0249 -0.1793
35751SOL    HW111709  10.915   6.245   9.536  0.7235 -0.6435  0.1638
35751SOL    HW211710  10.882   6.172   9.408 -1.2572  1.8548 -0.8128
35752SOL     OW11711   1.133   4.466   7.190  0.3443 -0.2960  0.1795
35752SOL    HW111712   1.213   4.413   7.188 -0.7958 -2.0919 -0.0853
35752SOL    HW211713   1.157   4.543   7.241  2.0171 -1.1670  0.7890
35753SOL     OW11714   2.655   5.133   1.170  0.5256 -0.3757 -0.0189
35753SOL    HW111715   2.715   5.176   1.109  0.9052 -2.2521 -1.0446
35753SOL    HW211716   2.568   5.165   1.145  0.8288  0.1064 -0.4658
35754SOL     OW11717   7.123   5.586   4.202 -0.2603  0.2754  0.0061
35754SOL    HW111718   7.128   5.521   4.133  0.2732  0.1179  0.1941
35754SOL    HW211719   7.082   5.662   4.160  0.1871  0.2317 -0.5197
35755SOL     OW11720   0.816   8.655   1.553 -0.5898  0.0121  0.6779
35755SOL    HW111721   0.901   8.696   1.541 -0.3718 -0.9918 -2.1307
35755SOL    HW211722   0.754   8.727   1.553  0.1587  0.6842  1.7645
35756SOL     OW11723   1.281  10.030   0.713  0.7818  0.2068 -0.3199
35756SOL    HW111724   1.220   9.992   0.776  0.8403 -0.2415 -0.5285
35756SOL    HW211725   1.362  10.045   0.761  0.8383 -0.1701 -0.3017
35757SOL     OW11726   2.180   3.695   1.987 -0.2234 -0.7054  0.0814
35757SOL    HW111727   2.195   3.680   1.894 -0.5584  0.0751 -0.1015
35757SOL    HW211728   2.089   3.671   2.001 -1.0888  2.0236 -0.4307
35758SOL     OW11729   3.661   3.295   2.325  0.0404  0.0433  0.0576
35758SOL    HW111730   3.656   3.312   2.419 -0.5406 -0.4633  0.1270
35758SOL    HW211731   3.660   3.199   2.319  1.8699  0.0100 -0.3797
35759SOL     OW11732   1.646   2.446   0.096  0.1684 -0.2003  0.0083
35759SOL    HW111733   1.579   2.495   0.143  0.4223  0.4509 -0.3033
35759SOL    HW211734   1.598   2.403   0.024 -0.3634 -1.8251  1.2600
35760SOL     OW11735   5.549   9.883   3.008  0.6251 -0.1100 -0.5644
35760SOL    HW111736   5.566   9.908   2.917  0.3999  3.0583  0.1756
35760SOL    HW211737   5.465   9.923   3.029  1.5760  0.8947  1.6065
35761SOL     OW11738   8.239  10.958   3.601 -0.2749  0.2540  0.2311
35761SOL    HW111739   8.166  10.985   3.656  0.0765  1.9457 -0.0637
35761SOL    HW211740   8.201  10.952   3.513 -0.2024  0.4512  0.1870
35762SOL     OW11741   4.070   3.621   9.242  0.3529 -0.0650 -0.3839
35762SOL    HW111742   4.041   3.651   9.328 -1.2517 -0.0048 -0.9054
35762SOL    HW211743   4.143   3.562   9.260  0.8249  0.8807  0.9244
35763SOL     OW11744   3.878  10.273   0.955 -0.3418  0.0167  0.0627
35763SOL    HW111745   3.881  10.298   1.048 -1.0445 -1.0260  0.3974
35763SOL    HW211746   3.969  10.272   0.927 -0.1450  0.6483  0.6564
35764SOL     OW11747   4.898   1.541   2.520  0.7328 -0.1833  0.3468
35764SOL    HW111748   4.924   1.547   2.612  0.3299 -1.1207  0.5336
35764SOL    HW211749   4.912   1.449   2.496 -2.7683 -0.9446  0.6132
35765SOL     OW11750   8.041  10.608   5.317 -0.3642 -0.9623  0.2726
35765SOL    HW111751   8.059  10.559   5.236 -1.2160 -0.6936 -0.0940
35765SOL    HW211752   7.972  10.670   5.292 -0.8410 -1.0721  1.2738
35766SOL     OW11753   8.747   8.082   6.094  0.6621  0.3269 -0.8901
35766SOL    HW111754   8.724   8.014   6.156 -3.2329  0.0314 -2.3875
35766SOL    HW211755   8.798   8.037   6.026 -0.4358 -0.7539 -1.0173
35767SOL     OW11756   0.287  10.713   3.459  0.2838  0.1229  0.2010
35767SOL    HW111757   0.326  10.699   3.545 -1.2182  0.4796  0.9830
35767SOL    HW211758   0.361  10.730   3.401  1.2743  0.7812  1.6128
35768SOL     OW11759   4.977   0.300   2.857  0.5822  0.1543  0.6339
35768SOL    HW111760   4.919   0.348   2.798  0.7050  0.4064  0.7173
35768SOL    HW211761   4.918   0.251   2.913  0.2777  2.6336  2.6687
35769SOL     OW11762   3.214   4.108   9.231 -0.3208  0.2005 -0.0394
35769SOL    HW111763   3.217   4.049   9.306 -0.0465 -0.1194 -0.3001
35769SOL    HW211764   3.143   4.074   9.176  0.6775 -0.6818 -0.8316
35770SOL     OW11765   7.136   2.607   1.630  0.5598 -0.1390 -0.4695
35770SOL    HW111766   7.197   2.666   1.587 -0.8205  0.5048 -1.6024
35770SOL    HW211767   7.120   2.538   1.566 -0.1225 -0.1528 -0.2863
35771SOL     OW11768  10.007   4.297   1.896  0.0090  0.6143  0.3425
35771SOL    HW111769   9.914   4.276   1.882  0.6533 -1.6716 -1.2416
35771SOL    HW211770  10.047   4.212   1.917  1.6242  1.6943  1.8393
35772SOL     OW11771   4.355   5.162   4.815 -0.6194 -0.2465 -0.3692
35772SOL    HW111772   4.275   5.113   4.838 -0.9011 -1.3118 -3.1879
35772SOL    HW211773   4.396   5.109   4.747 -0.3571  2.8928 -2.8809
35773SOL     OW11774   7.837  10.566   6.605 -0.1449  0.4299 -0.5892
35773SOL    HW111775   7.877  10.651   6.585 -0.1166  0.7664  0.7685
35773SOL    HW211776   7.852  10.513   6.527  4.5855 -0.0559  0.3397
35774SOL     OW11777   2.244   7.006   6.088 -0.1857 -0.0345  0.4926
35774SOL    HW111778   2.234   7.061   6.010  1.4316  0.7970  0.8341
35774SOL    HW211779   2.162   7.017   6.135 -0.6673  0.5053 -0.4366
35775SOL     OW11780   5.230   4.283  10.936 -0.2851  0.6175  0.1004
35775SOL    HW111781   5.147   4.291  10.983 -0.4566  0.1670 -0.1250
35775SOL    HW211782   5.266   4.199  10.964 -1.1084 -0.3949 -1.6910
35776SOL     OW11783   8.916   6.222   1.148  0.6731  0.1053  0.1415
35776SOL    HW111784   8.876   6.271   1.076 -2.1854  0.2713  1.6826
35776SOL    HW211785   9.009   6.220   1.127  0.0170  0.2929 -3.4313
35777SOL     OW11786  10.158  10.376   4.169  0.0023  0.0839  0.0017
35777SOL    HW111787  10.203  10.371   4.085  0.4846 -1.0752  0.3028
35777SOL    HW211788  10.224  10.349   4.233 -0.7616 -0.4217  0.5939
35778SOL     OW11789   2.842  10.023   4.293  0.5829  0.1145  0.5703
35778SOL    HW111790   2.928   9.994   4.261 -0.5609 -1.2685 -1.4090
35778SOL    HW211791   2.796   9.942   4.315  0.2632  0.9000  3.1186
35779SOL     OW11792   6.477   3.746   3.792 -0.0650  0.0556 -0.1505
35779SOL    HW111793   6.556   3.704   3.758 -0.4405 -2.0947  1.3964
35779SOL    HW211794   6.432   3.779   3.714  1.0179 -1.1333 -1.3249
35780SOL     OW11795   3.103   8.428   1.781  0.1311  0.5669 -0.3455
35780SOL    HW111796   3.115   8.455   1.690 -1.2011  1.1243 -0.3708
35780SOL    HW211797   3.114   8.508   1.832 -1.2727  0.6794 -0.2028
35781SOL     OW11798   7.948   0.735  10.187  0.3842  0.2177  0.2946
35781SOL    HW111799   7.966   0.804  10.123 -1.1638 -1.3034 -1.9102
35781SOL    HW211800   8.034   0.698  10.208  1.0246  1.4980  0.0173
35782SOL     OW11801   5.021   3.596   0.680  0.0941 -0.2952 -0.3464
35782SOL    HW111802   5.028   3.508   0.717 -0.6282 -0.6253 -0.9693
35782SOL    HW211803   4.940   3.631   0.718  0.1535 -0.0597 -0.4349
35783SOL     OW11804   5.969   9.971   5.205  0.2373 -0.5458  0.6445
35783SOL    HW111805   6.040  10.032   5.225  1.1108 -1.4327  0.3198
35783SOL    HW211806   6.013   9.887   5.190 -0.7881 -0.8879 -0.5723
35784SOL     OW11807   6.769   5.382   5.458  0.3199  0.5749 -0.4763
35784SOL    HW111808   6.684   5.345   5.481  0.2914 -0.7529 -2.4831
35784SOL    HW211809   6.833   5.321   5.496  0.2925 -0.3518 -1.8357
35785SOL     OW11810   2.751   2.627   1.090  0.1789 -0.2311 -0.6495
35785SOL    HW111811   2.659   2.651   1.078  0.0526  0.0371  0.7050
35785SOL    HW211812   2.760   2.612   1.184  1.9915  1.7873 -0.4075
35786SOL     OW11813   1.248   3.816   4.829  0.1970  0.3943 -0.2569
35786SOL    HW111814   1.333   3.801   4.872  0.1954  0.0471 -0.3708
35786SOL    HW211815   1.215   3.728   4.811 -0.2955  0.5234 -0.0074
35787SOL     OW11816   6.307   7.203   8.936 -0.1855  0.4645 -0.1895
35787SOL    HW111817   6.345   7.274   8.885  0.0602  1.3016  1.1007
35787SOL    HW211818   6.382   7.154   8.969 -0.3382 -0.0151 -0.5441
35788SOL     OW11819   8.422   4.595   6.273  1.0058 -0.4097  0.4891
35788SOL    HW111820   8.414   4.567   6.364  0.3263 -1.9898 -0.0204
35788SOL    HW211821   8.333   4.618   6.247  1.3393  0.9838  0.4712
35789SOL     OW11822   5.544  10.437   6.554  0.1936 -0.0610 -0.1140
35789SOL    HW111823   5.612  10.500   6.579 -0.4516  0.2388  0.9987
35789SOL    HW211824   5.591  10.355   6.540  0.7879  0.1243  0.7010
35790SOL     OW11825   3.657  11.026   2.102 -0.3340 -0.4420  0.0229
35790SOL    HW111826   3.604  11.055   2.175 -0.3803 -1.6413  0.4862
35790SOL    HW211827   3.747  11.031   2.134 -0.1535  1.2956 -0.6586
35791SOL     OW11828   0.073   9.546   0.696 -0.4205  0.2526 -0.1526
35791SOL    HW111829   0.026   9.468   0.727 -0.9216  0.9461  0.8642
35791SOL    HW211830   0.160   9.538   0.735 -0.1880 -0.2256 -0.7505
35792SOL     OW11831   7.595  10.503   5.496  0.2014 -0.1326  0.1878
35792SOL    HW111832   7.641  10.450   5.561 -0.4838 -2.0405 -0.7821
35792SOL    HW211833   7.645  10.490   5.415  0.0870  0.8216 -0.0435
35793SOL     OW11834  10.506   5.288  10.709  0.0803 -0.0186 -0.5703
35793SOL    HW111835  10.437   5.322  10.766  0.2251 -1.2001  0.3397
35793SOL    HW211836  10.551   5.366  10.676 -1.6832  0.7801 -1.2001
35794SOL     OW11837   1.593   1.851   3.701  0.2677  0.2617 -0.3963
35794SOL    HW111838   1.632   1.937   3.684  1.1832 -0.2955 -1.2465
35794SOL    HW211839   1.596   1.807   3.616  0.6107 -0.9203  0.2134
35795SOL     OW11840   1.839  10.226   8.100  0.0003  0.2630  0.4766
35795SOL    HW111841   1.800  10.200   8.184  3.1296  0.0360  2.0128
35795SOL    HW211842   1.887  10.306   8.120 -0.6527  1.2298 -1.5999
35796SOL     OW11843   8.535   5.486   8.285 -0.0371  0.1835 -0.1748
35796SOL    HW111844   8.487   5.424   8.340  0.8911  0.6443  1.2129
35796SOL    HW211845   8.530   5.449   8.197  1.7481 -2.6849  0.7914
35797SOL     OW11846   6.636   8.393   4.854 -0.1894 -0.7376  0.5777
35797SOL    HW111847   6.713   8.401   4.911  0.0132  0.4391  0.1532
35797SOL    HW211848   6.566   8.364   4.913  0.1919 -0.2512  1.2806
35798SOL     OW11849   7.338   4.439   4.819 -0.3030 -0.1486  0.2102
35798SOL    HW111850   7.418   4.482   4.788  0.9513 -1.6664  1.1827
35798SOL    HW211851   7.367   4.351   4.845 -2.4597 -1.0236 -0.1808
35799SOL     OW11852   3.067   5.598  10.536 -0.1307  0.2626  0.4346
35799SOL    HW111853   3.045   5.505  10.531 -0.9893  0.3989  1.3045
35799SOL    HW211854   3.147   5.602  10.588 -0.1096  0.0191  0.4210
35800SOL     OW11855   7.678   2.038   3.000  0.2067 -0.1419  0.0492
35800SOL    HW111856   7.651   2.008   3.087  0.4911  0.1156  0.2272
35800SOL    HW211857   7.771   2.060   3.010  0.3312 -0.4277 -0.4021
35801SOL     OW11858  10.913   9.813   8.843  0.5661  0.3033 -0.4128
35801SOL    HW111859  10.869   9.819   8.928  0.1180 -1.7783 -0.4567
35801SOL    HW211860  10.876   9.885   8.792  0.6500  1.4219  1.0416
35802SOL     OW11861   4.250  10.024   3.118  0.0237 -0.4752  0.0795
35802SOL    HW111862   4.181   9.973   3.159 -0.6987  0.5616  0.2047
35802SOL    HW211863   4.276   9.973   3.042 -0.1467 -1.3796  0.6188
35803SOL     OW11864   6.870   2.106   9.081 -0.0786 -0.6920 -0.0149
35803SOL    HW111865   6.787   2.116   9.035 -0.2496  1.3197  0.6265
35803SOL    HW211866   6.851   2.046   9.153 -0.7053 -1.0564 -0.4753
35804SOL     OW11867   4.410   5.547   6.859  0.1713  0.3845  0.4885
35804SOL    HW111868   4.359   5.516   6.934  0.1035  3.0225  1.6409
35804SOL    HW211869   4.498   5.560   6.893  0.9348 -1.2785 -0.7307
35805SOL     OW11870   8.255   4.420  11.014 -0.1344 -0.0688 -0.2466
35805SOL    HW111871   8.323   4.355  10.997 -0.5408 -0.1615 -1.5678
35805SOL    HW211872   8.173   4.372  11.012 -0.3732  0.3338 -0.3348
35806SOL     OW11873   0.321   2.863   8.647  0.4293  0.2685  0.4410
35806SOL    HW111874   0.358   2.777   8.668  0.2053 -0.2404 -1.1313
35806SOL    HW211875   0.256   2.879   8.716  0.1507 -1.0383  0.5000
35807SOL     OW11876   6.241   2.261   3.377  0.0087 -0.0650  0.8540
35807SOL    HW111877   6.270   2.170   3.365  0.5211  0.3037 -1.1268
35807SOL    HW211878   6.305   2.313   3.328 -3.0195  0.8942 -2.5452
35808SOL     OW11879   4.037   5.714   5.569 -0.4187 -0.3159 -0.3903
35808SOL    HW111880   3.951   5.711   5.611  0.9035  0.7022  2.6199
35808SOL    HW211881   4.040   5.799   5.526 -0.0691  0.7257  1.6073
35809SOL     OW11882   1.273   5.048   2.424  0.4967 -0.3205  0.3015
35809SOL    HW111883   1.334   4.981   2.392  0.1944 -0.4171 -0.0840
35809SOL    HW211884   1.329   5.111   2.470  1.2582  0.8544 -2.0350
35810SOL     OW11885   2.954   1.596   4.249 -0.0804 -0.4706 -0.1110
35810SOL    HW111886   3.040   1.562   4.224  1.1375  1.0079  1.7695
35810SOL    HW211887   2.918   1.530   4.308  1.0936  0.1943  1.4116
35811SOL     OW11888   9.414   5.516   8.686 -0.0715 -0.2502 -0.2926
35811SOL    HW111889   9.371   5.588   8.732 -1.1409 -0.1746 -1.3603
35811SOL    HW211890   9.421   5.547   8.596 -1.9526 -2.0402 -1.1267
35812SOL     OW11891  11.031   0.468   1.163  0.2347  0.2642 -0.8071
35812SOL    HW111892  11.117   0.503   1.141  0.7291 -0.0320  0.5384
35812SOL    HW211893  11.029   0.469   1.259 -0.7357 -0.9823 -0.7938
35813SOL     OW11894  10.729   5.380   9.272  0.0411  0.2050 -0.1283
35813SOL    HW111895  10.663   5.401   9.338  0.0878  0.4663 -0.1640
35813SOL    HW211896  10.679   5.343   9.199  0.1044 -1.2663  0.5357
35814SOL     OW11897   4.251   6.248   3.894  0.1947  0.0541 -0.1953
35814SOL    HW111898   4.283   6.249   3.984 -1.2331  0.2394  0.3399
35814SOL    HW211899   4.257   6.339   3.865  2.6321 -0.3062 -1.0763
35815SOL     OW11900   7.553   3.347   2.348 -0.3661  0.2671  0.2851
35815SOL    HW111901   7.569   3.384   2.434 -0.8445 -0.0882  0.5340
35815SOL    HW211902   7.460   3.365   2.331 -0.8914 -1.6329  0.8390
35816SOL     OW11903   2.770   1.126  10.031  0.4327 -0.0506 -0.1927
35816SOL    HW111904   2.716   1.058   9.990 -0.3845 -0.1983  1.0596
35816SOL    HW211905   2.714   1.204  10.031  0.4318 -0.0470  0.5937
35817SOL     OW11906   4.657   0.178   1.576 -0.2678  0.1770 -0.3485
35817SOL    HW111907   4.717   0.105   1.590 -0.4836  0.3607  1.9014
35817SOL    HW211908   4.698   0.252   1.621 -0.6229  1.1734 -1.5967
35818SOL     OW11909   0.694   3.945   2.143 -0.0508 -0.0471 -0.5582
35818SOL    HW111910   0.640   4.006   2.092 -2.4367 -2.4531 -1.1066
35818SOL    HW211911   0.660   3.954   2.233 -0.0506 -0.2212 -0.5421
35819SOL     OW11912   2.073   1.514   4.603  0.0824 -0.6069  0.5769
35819SOL    HW111913   2.147   1.571   4.625  0.0678 -0.7702  1.0577
35819SOL    HW211914   2.056   1.532   4.510  1.5265 -1.5052  0.1102
35820SOL     OW11915   2.501   9.055   9.566 -0.0553  0.0125 -0.0613
35820SOL    HW111916   2.436   8.985   9.557  0.9489 -0.8011 -1.4139
35820SOL    HW211917   2.554   9.049   9.487  0.4758  1.9100  0.0947
35821SOL     OW11918   2.595   9.890   6.718  0.0585 -0.2896  0.2404
35821SOL    HW111919   2.673   9.835   6.707 -0.8845 -1.2672 -2.2583
35821SOL    HW211920   2.546   9.879   6.637 -0.1587  4.3805 -0.5648
35822SOL     OW11921   7.888   5.215   3.841  0.3832  0.1662  0.9395
35822SOL    HW111922   7.946   5.284   3.872  1.4537 -0.3269  0.0759
35822SOL    HW211923   7.804   5.259   3.825  1.2903  1.4720 -0.4875
35823SOL     OW11924   1.630   2.955  10.877 -0.0411 -0.2136  0.4614
35823SOL    HW111925   1.661   3.029  10.825 -0.5529  0.1181  0.6233
35823SOL    HW211926   1.593   2.995  10.956 -0.4203 -0.6348  0.5015
35824SOL     OW11927   6.377   9.959   8.322  0.1555  0.4948 -0.4229
35824SOL    HW111928   6.434   9.966   8.246 -1.0338  3.0176 -1.1956
35824SOL    HW211929   6.384   9.868   8.350 -0.0856 -0.8141 -4.1291
35825SOL     OW11930   3.300   2.290  10.264  0.9130  0.0612 -0.5772
35825SOL    HW111931   3.229   2.226  10.253  0.3491  0.7192 -0.8694
35825SOL    HW211932   3.295   2.344  10.185  0.4860  1.3252  0.2877
35826SOL     OW11933   8.862   8.716   9.652  0.5297 -0.0969  0.2955
35826SOL    HW111934   8.879   8.810   9.663 -1.5410  0.2907  0.5770
35826SOL    HW211935   8.936   8.673   9.694  2.5028  1.3823 -1.4696
35827SOL     OW11936   7.315   2.944   4.953 -0.0292 -0.2729  0.3120
35827SOL    HW111937   7.223   2.968   4.967 -0.2925 -0.8318 -0.3758
35827SOL    HW211938   7.365   3.011   5.001 -0.7596  0.7913 -0.3618
35828SOL     OW11939   4.790   2.398  10.673 -0.0463  0.4875  0.3392
35828SOL    HW111940   4.697   2.389  10.654  0.0701 -0.6226  0.2275
35828SOL    HW211941   4.807   2.492  10.667 -0.8098  0.5491 -1.3353
35829SOL     OW11942   3.155   1.037   3.079 -0.2965 -0.4695  0.1267
35829SOL    HW111943   3.173   1.117   3.129 -2.6680 -0.3503  0.9313
35829SOL    HW211944   3.201   1.049   2.996  1.8113  0.3869  1.3477
35830SOL     OW11945   8.295   3.455   6.878  0.3872 -0.1802 -0.4337
35830SOL    HW111946   8.326   3.407   6.801 -0.8797  0.7236 -1.5625
35830SOL    HW211947   8.200   3.441   6.878  0.4629 -1.1928  1.7243
35831SOL     OW11948   4.759   0.016   3.329  0.2553  0.8465  0.3154
35831SOL    HW111949   4.836  -0.034   3.357  0.0484  0.6607  0.5538
35831SOL    HW211950   4.684  -0.039   3.352 -0.0062  1.4655  1.0238
35832SOL     OW11951   5.661   2.617  10.903 -0.4392  0.5691 -0.3224
35832SOL    HW111952   5.738   2.673  10.902 -1.0909  1.4890 -1.3089
35832SOL    HW211953   5.600   2.658  10.842 -1.7981 -0.0298  0.5650
35833SOL     OW11954   1.898   5.870   1.128 -1.4543  0.5533  0.5390
35833SOL    HW111955   1.897   5.948   1.183 -1.3941  0.0001  1.3344
35833SOL    HW211956   1.808   5.863   1.095 -1.0320  2.0011 -1.0658
35834SOL     OW11957  10.583  10.463   3.003 -0.0496  0.3112  0.9867
35834SOL    HW111958  10.519  10.464   3.074 -0.1623  0.3976  0.8841
35834SOL    HW211959  10.620  10.375   3.005 -0.5015  0.1121  0.7561
35835SOL     OW11960   4.001   5.269   1.967 -0.1169  0.2175  0.5084
35835SOL    HW111961   4.031   5.352   2.003 -0.2371  0.3688  0.2578
35835SOL    HW211962   4.072   5.242   1.908  1.2424 -1.2113  2.5999
35836SOL     OW11963   7.737   2.646   3.335 -0.0499  0.2234  0.1310
35836SOL    HW111964   7.779   2.731   3.330  0.5577  0.0128  1.3027
35836SOL    HW211965   7.717   2.634   3.428 -1.6323 -0.2017 -0.2305
35837SOL     OW11966   9.418   3.476   6.486  0.0398  0.0466  0.2976
35837SOL    HW111967   9.496   3.524   6.514 -0.6356  1.6740 -0.4818
35837SOL    HW211968   9.421   3.479   6.390 -1.6661  1.4052  0.2260
35838SOL     OW11969  10.655   1.954   3.249  0.3062  0.6057 -1.0002
35838SOL    HW111970  10.687   1.975   3.161  1.4769  0.8790 -0.5412
35838SOL    HW211971  10.650   2.039   3.292  1.0589  0.3571 -0.3995
35839SOL     OW11972   2.995   6.903   8.579 -0.5345 -0.0715  0.1931
35839SOL    HW111973   2.932   6.846   8.535 -0.9560  0.1829  0.4693
35839SOL    HW211974   3.033   6.956   8.509 -0.3552 -0.4791 -0.0248
35840SOL     OW11975   4.576   8.026   9.533 -0.1188 -0.6912  0.5046
35840SOL    HW111976   4.542   8.093   9.474 -1.6656 -2.0681 -0.2322
35840SOL    HW211977   4.512   7.956   9.529  1.1569 -1.9812  1.7145
35841SOL     OW11978   0.890   5.646   9.063  0.4046 -0.0642 -0.1425
35841SOL    HW111979   0.985   5.633   9.072  0.5495  0.0198 -1.3688
35841SOL    HW211980   0.857   5.560   9.036  0.2645  0.1332 -0.6072
35842SOL     OW11981   9.252   2.560   3.493 -0.1988 -0.0073  0.2954
35842SOL    HW111982   9.279   2.543   3.583 -0.6659 -0.5410  0.3417
35842SOL    HW211983   9.241   2.655   3.489  0.4545  0.0882  0.6142
35843SOL     OW11984   5.062   2.357   6.352 -0.1238  0.3458 -0.1957
35843SOL    HW111985   5.102   2.406   6.280 -0.0861  0.7107  0.0713
35843SOL    HW211986   5.058   2.420   6.424  1.6209 -0.5456  0.7496
35844SOL     OW11987   0.920   6.937  11.037  0.4487 -0.1632  0.0396
35844SOL    HW111988   0.896   6.870  11.101  1.4995 -0.9209 -0.3247
35844SOL    HW211989   0.839   6.955  10.990  0.4729 -2.5136 -1.0401
35845SOL     OW11990  10.375   0.574   1.858 -0.2098  0.6071  0.2284
35845SOL    HW111991  10.454   0.621   1.832  0.0304 -0.5347 -1.2681
35845SOL    HW211992  10.304   0.621   1.814 -0.0182 -0.1117 -0.8907
35846SOL     OW11993   9.663   8.345   5.396  0.0163 -0.3087  0.3408
35846SOL    HW111994   9.697   8.321   5.482 -0.3102 -1.1316  0.2489
35846SOL    HW211995   9.586   8.399   5.415 -0.4519 -1.0524  0.5763
35847SOL     OW11996   1.888   2.889   7.379 -0.6382 -0.0923 -0.3466
35847SOL    HW111997   1.920   2.929   7.460 -0.5667  0.5792 -0.6976
35847SOL    HW211998   1.798   2.921   7.371  0.0132  1.6053 -1.6155
35848SOL     OW11999  10.991   6.124  10.698  0.3453 -0.4070 -0.3597
35848SOL    HW112000  11.006   6.209  10.740  1.0089 -0.7816  0.1889
35848SOL    HW212001  10.896   6.116  10.692  0.2670  0.1288  0.0963
35849SOL     OW12002   7.394   2.707   0.427  0.2796  0.1988 -0.3582
35849SOL    HW112003   7.361   2.743   0.509 -1.5889  0.6201 -1.2379
35849SOL    HW212004   7.443   2.629   0.453  0.6677  0.9297  1.2169
35850SOL     OW12005   0.823   8.128   8.682  0.1641  0.4312  0.1457
35850SOL    HW112006   0.804   8.190   8.752  0.4825  1.6978 -0.8482
35850SOL    HW212007   0.845   8.183   8.606  0.6790 -0.8980 -0.7126
35851SOL     OW12008   3.765  11.018   0.707  0.3240 -0.2769  0.0954
35851SOL    HW112009   3.741  10.974   0.788  1.3880  3.2312  2.5456
35851SOL    HW212010   3.807  10.950   0.654 -0.2040 -2.6807  2.5576
35852SOL     OW12011   6.568   5.578   7.200  0.4656 -0.0331 -0.0031
35852SOL    HW112012   6.538   5.530   7.122  0.4754  0.6745 -0.4544
35852SOL    HW212013   6.556   5.671   7.177  0.3843  0.1817  0.8752
35853SOL     OW12014   4.494   6.881   5.155 -0.1188 -0.2362  0.5459
35853SOL    HW112015   4.536   6.806   5.196  1.1288  0.3529  0.3777
35853SOL    HW212016   4.424   6.905   5.217  0.5220 -0.5250  1.4109
35854SOL     OW12017   0.061   4.520   7.305  0.7657  0.1391 -0.5418
35854SOL    HW112018   0.085   4.484   7.390  1.4942  1.3568 -0.2048
35854SOL    HW212019  -0.009   4.583   7.324 -0.4431 -0.9779 -1.1103
35855SOL     OW12020   9.659   0.605   8.674 -0.0457  0.2303  0.0461
35855SOL    HW112021   9.711   0.536   8.715 -2.6309 -0.9056  1.6956
35855SOL    HW212022   9.689   0.686   8.717  1.7225 -0.0672 -0.5570
35856SOL     OW12023   8.448   5.284   3.957  0.5484  0.0583 -0.2132
35856SOL    HW112024   8.429   5.369   3.918  2.0272  0.3081 -0.4567
35856SOL    HW212025   8.369   5.232   3.942 -0.5257  1.4796  0.2490
35857SOL     OW12026   0.446   6.166   8.319  0.2067 -0.0085 -0.1923
35857SOL    HW112027   0.493   6.249   8.314  1.1920 -0.5538 -0.1620
35857SOL    HW212028   0.359   6.186   8.285  0.9487  0.6610 -1.7795
35858SOL     OW12029   8.876   0.322   4.615 -0.0824  0.3615  0.1680
35858SOL    HW112030   8.860   0.252   4.679  2.0468 -1.3943 -1.0597
35858SOL    HW212031   8.873   0.403   4.666  0.0873 -0.8456  2.1996
35859SOL     OW12032   5.392   6.025   1.707  0.0352 -0.8321 -0.3316
35859SOL    HW112033   5.335   5.961   1.751  0.4676 -1.1197 -0.1891
35859SOL    HW212034   5.375   6.108   1.753 -0.1672 -0.9458 -0.2018
35860SOL     OW12035   1.172   9.444   6.737 -0.6756 -0.0885 -0.2413
35860SOL    HW112036   1.202   9.499   6.664 -0.5584  2.1248  1.3627
35860SOL    HW212037   1.130   9.369   6.695  1.3387 -0.0385 -2.5591
35861SOL     OW12038   8.848   5.128   4.305  0.1552 -0.3177  0.1865
35861SOL    HW112039   8.810   5.185   4.239 -0.4720 -1.8606 -0.8474
35861SOL    HW212040   8.787   5.053   4.310  1.5085 -1.4340  0.6470
35862SOL     OW12041  10.334   0.907   1.189 -0.1293  0.2280  0.1449
35862SOL    HW112042  10.341   0.929   1.096 -1.4189 -0.7691 -0.2203
35862SOL    HW212043  10.268   0.967   1.223 -0.0006  0.2788  0.3053
35863SOL     OW12044   1.698   1.828   6.297  0.1428  0.4493  0.0623
35863SOL    HW112045   1.763   1.840   6.366  0.7229 -0.7535 -0.2428
35863SOL    HW212046   1.739   1.864   6.218  1.4293 -2.2024 -0.6139
35864SOL     OW12047   4.662   9.862   0.093  0.5610  0.7886 -0.0356
35864SOL    HW112048   4.727   9.822   0.150  0.0531  2.0159  1.4839
35864SOL    HW212049   4.705   9.940   0.059  0.2338  1.0778  0.1984
35865SOL     OW12050   0.694  10.688   3.751  0.2883 -0.3876  0.1432
35865SOL    HW112051   0.697  10.775   3.790  0.3424 -0.1600 -0.3662
35865SOL    HW212052   0.600  10.673   3.735  0.4274  0.3795 -1.5426
35866SOL     OW12053  11.027   4.568   5.993  0.4251  0.5481 -0.1583
35866SOL    HW112054  11.046   4.526   6.077  2.5466 -0.2023 -0.9517
35866SOL    HW212055  10.965   4.510   5.951  1.3574 -0.4880 -0.1627
35867SOL     OW12056   1.212   2.715  10.652 -0.3002 -0.3772 -0.1023
35867SOL    HW112057   1.212   2.682  10.562  1.6126 -0.7979  0.0255
35867SOL    HW212058   1.297   2.756  10.663 -0.5176 -0.2881  1.5231
35868SOL     OW12059   8.068   9.422   6.792  0.3563 -0.6361 -0.1374
35868SOL    HW112060   8.118   9.352   6.833  2.1083  0.4410 -0.3188
35868SOL    HW212061   8.017   9.460   6.863 -0.1518 -1.6832  0.0811
35869SOL     OW12062   1.199   8.560   6.427 -0.2015 -0.1890 -0.4470
35869SOL    HW112063   1.201   8.583   6.334 -2.4228 -2.4992 -1.1752
35869SOL    HW212064   1.121   8.605   6.461 -2.0261 -2.8225 -0.8653
35870SOL     OW12065   1.492   1.473   5.850  0.1747 -0.3196  0.0281
35870SOL    HW112066   1.490   1.469   5.754 -0.6621 -1.8034  0.0610
35870SOL    HW212067   1.477   1.565   5.871  1.2492  0.1793 -1.2677
35871SOL     OW12068   9.119   0.125   8.824  0.3105 -0.0257 -0.5358
35871SOL    HW112069   9.052   0.076   8.776  0.6187 -0.7149 -0.2778
35871SOL    HW212070   9.106   0.216   8.797 -0.3817 -0.2225 -0.8946
35872SOL     OW12071   9.525   2.702   6.428  0.5093  0.4054  0.3093
35872SOL    HW112072   9.564   2.720   6.342 -0.8493  0.2747 -0.3639
35872SOL    HW212073   9.570   2.761   6.488  0.3627  1.6790 -0.7916
35873SOL     OW12074   8.088   0.325   8.312  0.0803  0.7755 -0.3596
35873SOL    HW112075   8.071   0.262   8.242  0.0345  0.7905 -0.3617
35873SOL    HW212076   8.182   0.345   8.303  0.3987 -0.2906  0.4738
35874SOL     OW12077   7.153   0.683   2.371 -0.2290 -0.1690 -0.2670
35874SOL    HW112078   7.111   0.758   2.328 -1.6909 -1.5066 -1.2601
35874SOL    HW212079   7.133   0.695   2.464 -0.3875  0.7118 -0.4052
35875SOL     OW12080   7.733   0.246   3.091 -0.1495  0.5236  0.0575
35875SOL    HW112081   7.684   0.273   3.169 -1.2215  0.0472 -0.4201
35875SOL    HW212082   7.704   0.307   3.023 -0.6471 -0.2081 -0.4056
35876SOL     OW12083   9.629   9.099   0.877 -0.2490 -0.1074  0.1373
35876SOL    HW112084   9.616   9.144   0.961 -0.0438 -2.8898  1.8111
35876SOL    HW212085   9.696   9.149   0.833  0.9347  0.5064  2.4538
35877SOL     OW12086   5.364  10.206   6.497  0.5463 -0.6087  0.2617
35877SOL    HW112087   5.432  10.216   6.563  2.1063 -0.5992 -1.2601
35877SOL    HW212088   5.406  10.231   6.415 -0.7687 -2.3105 -1.0122
35878SOL     OW12089   0.495   9.708   9.049 -0.7507  0.5175  0.0821
35878SOL    HW112090   0.581   9.681   9.018 -1.3737 -0.4961 -0.8210
35878SOL    HW212091   0.501   9.700   9.145 -0.0050 -0.0478 -0.0030
35879SOL     OW12092   5.721  10.328   2.925 -0.2351  0.4438  0.3337
35879SOL    HW112093   5.736  10.234   2.912 -0.0422  0.4144  0.7792
35879SOL    HW212094   5.659  10.351   2.855  0.7314  0.2688 -0.6085
35880SOL     OW12095   6.443   7.291   8.076 -0.1197  0.0622  0.2997
35880SOL    HW112096   6.352   7.300   8.106 -0.5276  0.4050 -0.9802
35880SOL    HW212097   6.436   7.276   7.982  1.1668  0.3554  0.1377
35881SOL     OW12098   6.273  11.038   5.889  0.2640 -0.5240  0.6292
35881SOL    HW112099   6.349  11.006   5.937  0.0416 -2.5917 -0.2777
35881SOL    HW212100   6.203  11.043   5.954  0.7121 -0.3870  1.1016
35882SOL     OW12101   6.339  10.147   0.811  0.3188 -0.1547 -0.0974
35882SOL    HW112102   6.394  10.162   0.888  1.1711  1.2398 -0.9500
35882SOL    HW212103   6.348  10.226   0.759 -1.0077 -0.6837 -1.1922
35883SOL     OW12104   2.153  10.197   8.937  0.2151 -0.3271 -0.3705
35883SOL    HW112105   2.109  10.266   8.886  1.3294 -0.0180 -0.9369
35883SOL    HW212106   2.128  10.116   8.892 -0.8153 -0.2887  0.0894
35884SOL     OW12107   1.558   1.111   0.773  0.1455  0.3420 -0.1533
35884SOL    HW112108   1.565   1.193   0.822 -0.4140 -1.0433  2.4390
35884SOL    HW212109   1.648   1.080   0.764  0.1917 -0.3706  1.9844
35885SOL     OW12110   0.764   5.899   3.069  0.0450  0.0248 -0.3608
35885SOL    HW112111   0.744   5.980   3.022 -0.9930 -0.7198 -1.2420
35885SOL    HW212112   0.860   5.893   3.067  0.1247  1.1726 -0.3744
35886SOL     OW12113   3.445   4.238   4.682 -0.4524 -0.6133 -0.4897
35886SOL    HW112114   3.502   4.195   4.618  0.6652  1.2704 -0.8397
35886SOL    HW212115   3.501   4.304   4.723 -1.8229 -0.1573  0.7190
35887SOL     OW12116   9.734   3.061   7.403  0.2750 -0.7847 -0.4690
35887SOL    HW112117   9.743   3.142   7.353  0.9639 -0.9816 -0.6818
35887SOL    HW212118   9.699   2.998   7.340  1.5648 -1.1510 -0.8489
35888SOL     OW12119  10.970   0.950   3.392 -0.3068 -0.3054  0.0395
35888SOL    HW112120  11.060   0.920   3.403 -0.8223 -2.1364 -0.4293
35888SOL    HW212121  10.954   0.948   3.298 -1.9347 -3.6955  0.2321
35889SOL     OW12122   1.868   7.492   0.714  0.0160  0.0195 -0.3166
35889SOL    HW112123   1.821   7.434   0.775 -0.8725  0.6166 -0.4139
35889SOL    HW212124   1.844   7.580   0.742  0.9332  0.3366 -0.5053
35890SOL     OW12125  10.058   4.318   8.725 -0.4702 -0.3163 -0.2055
35890SOL    HW112126  10.014   4.235   8.741 -2.8402  0.3528 -2.5051
35890SOL    HW212127  10.118   4.300   8.654  1.5911 -0.7325  1.5334
35891SOL     OW12128  10.745  10.317  10.211 -0.0516 -0.4777  0.1696
35891SOL    HW112129  10.823  10.330  10.157 -0.1867 -1.9610 -0.4479
35891SOL    HW212130  10.776  10.266  10.286 -0.5571 -1.8660 -0.5346
35892SOL     OW12131   0.727   7.992   2.638 -0.4536 -0.2147 -0.6868
35892SOL    HW112132   0.801   8.050   2.655  0.7556 -1.7549 -0.5049
35892SOL    HW212133   0.650   8.047   2.654  0.6035  0.6188  2.1183
35893SOL     OW12134   6.483   5.723   5.869  0.4982 -0.0878 -0.3404
35893SOL    HW112135   6.474   5.816   5.891  1.2726  0.0791 -0.7015
35893SOL    HW212136   6.446   5.716   5.781  1.4107  0.0877 -0.7440
35894SOL     OW12137   1.964  11.023   8.713  0.2196  0.2719 -0.1825
35894SOL    HW112138   2.015  10.962   8.660 -0.8968 -2.3518  1.5462
35894SOL    HW212139   2.027  11.059   8.776  1.0035  1.4076 -1.5711
35895SOL     OW12140   2.589   4.165   2.565 -0.4877 -0.1910 -0.0658
35895SOL    HW112141   2.624   4.098   2.507  0.0072  0.3118 -0.3596
35895SOL    HW212142   2.494   4.156   2.557 -0.4282 -0.8191 -0.1392
35896SOL     OW12143   2.016   3.939   9.057  0.1724 -0.0751  0.1029
35896SOL    HW112144   1.992   3.897   9.139 -0.1461  1.2376  0.7015
35896SOL    HW212145   1.994   3.874   8.989  1.8393 -1.7967  1.0858
35897SOL     OW12146   1.521   2.202   7.280 -0.4945 -0.2800 -0.0564
35897SOL    HW112147   1.502   2.133   7.217 -0.1776 -0.1916 -0.2519
35897SOL    HW212148   1.512   2.160   7.365 -0.8606 -0.4171 -0.1566
35898SOL     OW12149   1.050   4.830   4.503  0.2317 -0.1639  0.0973
35898SOL    HW112150   0.959   4.844   4.479  0.3837 -1.2408 -1.2036
35898SOL    HW212151   1.094   4.912   4.478 -0.1285 -0.1770 -0.5983
35899SOL     OW12152   6.584   1.088   3.729 -0.0841  0.2203 -0.5952
35899SOL    HW112153   6.598   1.148   3.655  1.1750  1.0154  0.2504
35899SOL    HW212154   6.501   1.117   3.767  0.6919  1.7392  0.0399
35900SOL     OW12155   9.888   7.770   7.077  0.0894  0.2651 -0.0793
35900SOL    HW112156   9.885   7.698   7.013  0.3146  1.5216 -1.5682
35900SOL    HW212157   9.818   7.750   7.139 -1.3448 -0.1202 -1.7270
35901SOL     OW12158  10.850   6.392   4.058 -0.1875 -0.6883 -0.4158
35901SOL    HW112159  10.877   6.484   4.058 -2.4569  0.0564 -0.1138
35901SOL    HW212160  10.930   6.343   4.040  1.0975  1.3368 -0.5417
35902SOL     OW12161   7.809   1.042   2.145 -0.9357 -0.1450 -0.2861
35902SOL    HW112162   7.719   1.015   2.165 -0.5659 -1.4572 -0.3099
35902SOL    HW212163   7.838   1.087   2.224 -1.2788 -0.5926  0.1030
35903SOL     OW12164   1.025   8.781   9.230  0.4436 -0.0137  0.2062
35903SOL    HW112165   1.031   8.789   9.325  1.7055 -2.0163  0.3536
35903SOL    HW212166   0.988   8.693   9.215  0.5167  0.1559 -1.1464
35904SOL     OW12167   7.779   7.336   8.693  0.2206  0.4256 -0.6442
35904SOL    HW112168   7.764   7.400   8.623  3.2049 -0.6612 -2.4724
35904SOL    HW212169   7.845   7.277   8.657  0.1341 -1.6317  2.2716
35905SOL     OW12170   3.924   2.378   1.025 -0.5843 -0.2385  0.2440
35905SOL    HW112171   3.931   2.453   0.965 -2.1972 -0.9971 -0.9944
35905SOL    HW212172   3.993   2.318   0.996 -1.3557 -0.6066 -0.9349
35906SOL     OW12173   0.417   9.684  10.539 -0.4300 -0.3304  0.6044
35906SOL    HW112174   0.384   9.773  10.551 -3.2772 -1.0375 -1.0636
35906SOL    HW212175   0.463   9.686  10.455 -0.6183 -0.4631  0.4971
35907SOL     OW12176   8.701   7.461   9.672 -0.1371  0.1412 -0.5286
35907SOL    HW112177   8.758   7.425   9.740 -1.9001 -0.5863  0.6158
35907SOL    HW212178   8.695   7.390   9.607  0.6979  0.4416 -0.9512
35908SOL     OW12179   7.583   7.146   8.448  0.1515 -0.6626  0.1962
35908SOL    HW112180   7.623   7.115   8.529  0.3737 -1.2128 -0.1198
35908SOL    HW212181   7.533   7.070   8.416 -0.5444 -0.2187  0.2028
35909SOL     OW12182   2.316   3.551   4.808 -0.4977 -0.0336  0.5701
35909SOL    HW112183   2.395   3.595   4.839 -0.8094  0.7502  0.2953
35909SOL    HW212184   2.285   3.500   4.883  1.0775 -1.5656  0.2407
35910SOL     OW12185   3.323  10.534   4.067 -0.2326  0.4028 -0.1484
35910SOL    HW112186   3.262  10.602   4.097  1.5375  1.8104  0.5084
35910SOL    HW212187   3.267  10.462   4.038 -2.1711  1.2913  1.1311
35911SOL     OW12188   3.769   2.078   9.775 -0.2187 -0.4087 -0.4499
35911SOL    HW112189   3.736   2.153   9.726  0.5582 -0.7272 -1.5235
35911SOL    HW212190   3.841   2.113   9.828  2.0302 -0.7628 -3.0169
35912SOL     OW12191   4.979   7.908   1.030 -0.3497  0.3575  0.5738
35912SOL    HW112192   4.972   7.972   1.100 -3.8974  0.2446  0.4614
35912SOL    HW212193   4.947   7.954   0.952  2.2325  0.0599 -0.7778
35913SOL     OW12194   8.804   6.691   2.494  0.3383 -0.1632  0.1544
35913SOL    HW112195   8.762   6.682   2.409  0.8820 -0.1490 -0.1249
35913SOL    HW212196   8.847   6.606   2.508  2.1459  0.5610 -0.6489
35914SOL     OW12197   0.327  10.708   3.733 -0.4422  0.3291 -0.3870
35914SOL    HW112198   0.252  10.673   3.781 -0.0097  0.6693  0.5501
35914SOL    HW212199   0.329  10.801   3.755  0.1272  0.3660 -0.5796
35915SOL     OW12200   6.918   7.716   8.135 -0.3001 -0.0279 -0.7462
35915SOL    HW112201   6.975   7.645   8.163 -1.0289  0.0034  0.9496
35915SOL    HW212202   6.977   7.785   8.107  0.4290 -1.3357 -2.6738
35916SOL     OW12203  10.982  10.085   4.429 -0.3307 -0.2686 -0.3317
35916SOL    HW112204  10.985  10.042   4.344 -0.7781 -2.1756  0.5582
35916SOL    HW212205  10.970  10.013   4.491 -0.3886  1.1101  1.3121
35917SOL     OW12206   6.574   6.177   3.622  0.5144  0.1812  0.1154
35917SOL    HW112207   6.594   6.228   3.701 -0.9018 -0.4068  0.8963
35917SOL    HW212208   6.496   6.126   3.646  0.2062 -0.1995 -1.5918
35918SOL     OW12209   7.374   6.329   6.340  0.2430  0.1155 -0.0966
35918SOL    HW112210   7.424   6.379   6.404  1.1381 -0.1588 -0.5635
35918SOL    HW212211   7.316   6.273   6.392 -2.2693  2.9896  0.4842
35919SOL     OW12212   4.616   5.024  10.589  0.2647 -0.3613 -0.1226
35919SOL    HW112213   4.522   5.040  10.582  0.3484 -0.2124 -1.0167
35919SOL    HW212214   4.625   4.929  10.586  0.1619 -0.3648 -0.3353
35920SOL     OW12215   6.447   3.972  10.457  0.1933 -0.3872 -0.0647
35920SOL    HW112216   6.456   4.063  10.428  1.5094 -0.6704 -0.6306
35920SOL    HW212217   6.467   3.974  10.550 -0.0574 -0.0507 -0.0177
35921SOL     OW12218   2.843   8.708  10.387  0.5124 -0.0051  0.1566
35921SOL    HW112219   2.831   8.783  10.446 -2.5846  0.3146 -0.6704
35921SOL    HW212220   2.862   8.746  10.302 -0.7930 -0.0904 -0.2056
35922SOL     OW12221   0.757   9.444   7.306  0.0162  0.4441  0.6506
35922SOL    HW112222   0.678   9.459   7.358 -0.9749 -0.8515 -0.3827
35922SOL    HW212223   0.785   9.531   7.278  0.7474  1.1990  3.4789
35923SOL     OW12224   3.518   7.129   2.388  0.4022  0.0840  0.0124
35923SOL    HW112225   3.574   7.190   2.435  0.0956 -0.4093  1.0287
35923SOL    HW212226   3.478   7.075   2.456  0.0801 -0.7507 -0.8260
35924SOL     OW12227   4.953   3.403   7.332 -0.0056  0.2522  0.9650
35924SOL    HW112228   5.009   3.410   7.255 -0.1859  0.0535  0.8125
35924SOL    HW212229   4.912   3.489   7.340  0.6657  0.5405  1.3461
35925SOL     OW12230  10.600   9.153   4.123 -0.2046  0.8395 -0.1349
35925SOL    HW112231  10.566   9.237   4.153 -2.0413 -0.1884  0.8161
35925SOL    HW212232  10.640   9.114   4.201 -0.0567  0.4889 -0.3797
35926SOL     OW12233   7.036   3.425   9.646  0.5133  0.2104 -0.4998
35926SOL    HW112234   7.025   3.335   9.676 -1.2147  0.1232 -1.2678
35926SOL    HW212235   6.997   3.427   9.558  1.5016  1.4635 -0.9575
35927SOL     OW12236   9.043  10.369   8.949  0.6699  0.2256 -0.3545
35927SOL    HW112237   9.062  10.292   8.895 -0.9061  0.3460 -1.1285
35927SOL    HW212238   9.041  10.335   9.039 -0.1255 -0.6824 -0.6944
35928SOL     OW12239   9.294   8.967  10.020 -0.3150 -0.3267 -0.3294
35928SOL    HW112240   9.200   8.953  10.018 -0.8126  2.1201 -3.5104
35928SOL    HW212241   9.310   9.015  10.101 -1.2149 -3.1775  1.6716
35929SOL     OW12242   8.252   3.202   4.695  0.2681 -0.1918 -0.1734
35929SOL    HW112243   8.344   3.191   4.717  0.8029  2.2715 -0.8535
35929SOL    HW212244   8.252   3.271   4.628 -1.9406 -1.3478 -1.4697
35930SOL     OW12245   7.532   7.687   5.988  0.2930  0.5714  0.1701
35930SOL    HW112246   7.479   7.611   6.013  0.3352  0.5097  0.0734
35930SOL    HW212247   7.496   7.760   6.039  0.8397  0.3014  0.9680
35931SOL     OW12248  10.024   3.154   0.532  0.0394 -0.1212  0.3218
35931SOL    HW112249   9.929   3.159   0.521  0.1236  1.1265 -0.0331
35931SOL    HW212250  10.048   3.240   0.566  1.0385 -0.4519  0.4630
35932SOL     OW12251   3.578   2.991   9.267 -0.0528 -0.1473  0.2647
35932SOL    HW112252   3.654   2.935   9.250 -0.2657  0.0132 -1.3449
35932SOL    HW212253   3.518   2.973   9.195 -0.6242  1.3066  0.3469
35933SOL     OW12254   4.857   6.893   2.593  0.0298  0.3822  0.5311
35933SOL    HW112255   4.934   6.946   2.569 -0.4796  0.3731 -1.2818
35933SOL    HW212256   4.889   6.803   2.587 -0.1464  0.3695 -0.4379
35934SOL     OW12257   9.967   9.549  10.853 -0.4345  0.3215  0.4384
35934SOL    HW112258  10.020   9.559  10.774 -0.0126  0.3831  0.7233
35934SOL    HW212259   9.983   9.459  10.881 -1.2124  0.0432  0.0146
35935SOL     OW12260   5.273   8.515   3.535 -0.0730 -0.1515 -0.0178
35935SOL    HW112261   5.351   8.463   3.518  0.0628  0.4333 -1.2600
35935SOL    HW212262   5.216   8.457   3.585  1.1812 -0.5487  1.0065
35936SOL     OW12263   1.506   5.264   7.411 -0.5561 -0.3957  0.2527
35936SOL    HW112264   1.428   5.308   7.379 -1.2742 -1.6934  0.1397
35936SOL    HW212265   1.556   5.245   7.331 -0.9701 -1.0841  0.1442
35937SOL     OW12266   7.708   4.213   8.047  0.2565  0.2716 -0.3926
35937SOL    HW112267   7.756   4.238   8.126  0.7005 -1.2069 -0.1641
35937SOL    HW212268   7.643   4.149   8.078 -1.7451  2.0308 -0.7281
35938SOL     OW12269   0.601   1.476   4.739  0.0249  0.2449 -0.1124
35938SOL    HW112270   0.518   1.454   4.783 -0.3003 -0.5313 -1.0529
35938SOL    HW212271   0.668   1.461   4.805 -0.2872 -2.6292 -0.3266
35939SOL     OW12272   8.200   2.911   3.328 -0.0793  0.1245 -0.5767
35939SOL    HW112273   8.158   2.968   3.264 -0.2623  1.4336  0.6713
35939SOL    HW212274   8.227   2.969   3.398  1.0129 -1.1410  0.0963
35940SOL     OW12275   5.105   3.778   8.457  0.1001 -0.0389  0.5975
35940SOL    HW112276   5.183   3.759   8.405  0.1845 -0.4697  0.8761
35940SOL    HW212277   5.135   3.776   8.548  0.3400  2.4891  0.6473
35941SOL     OW12278   5.495   4.499   2.562 -0.0633  0.1733 -0.1536
35941SOL    HW112279   5.474   4.505   2.655 -1.2817  1.1670 -0.4714
35941SOL    HW212280   5.475   4.585   2.527  2.8210  0.6506 -0.9047
35942SOL     OW12281   7.513   0.857   7.098 -0.2077 -0.0404  0.3990
35942SOL    HW112282   7.444   0.802   7.062 -0.1811 -2.2965  3.4177
35942SOL    HW212283   7.467   0.919   7.155  0.0918 -0.0684  0.6732
35943SOL     OW12284   2.269   3.379   0.054  0.0641  0.4142  0.6553
35943SOL    HW112285   2.246   3.416  -0.031  0.1014  0.8279  0.8239
35943SOL    HW212286   2.323   3.446   0.096  2.0506 -0.7205  0.0714
35944SOL     OW12287   6.623   1.585   0.846 -0.3591  0.1922 -0.0477
35944SOL    HW112288   6.575   1.636   0.780 -0.8912 -1.1112 -0.6911
35944SOL    HW212289   6.715   1.607   0.831 -0.5256  0.4063 -0.7864
35945SOL     OW12290   3.228  11.037   6.584  0.2636  0.3370 -0.1557
35945SOL    HW112291   3.203  11.055   6.675  1.8624  1.5386  0.1048
35945SOL    HW212292   3.147  11.012   6.541 -0.4785 -0.6447  1.6812
35946SOL     OW12293   4.345   3.159   9.410  0.4652  0.3907  0.0933
35946SOL    HW112294   4.422   3.112   9.439 -1.9592 -2.2294  2.9759
35946SOL    HW212295   4.316   3.111   9.332  1.0933  0.6923 -0.3350
35947SOL     OW12296   3.074  10.055   4.521  0.4528 -0.3852 -0.4305
35947SOL    HW112297   3.083  10.022   4.432 -0.6852  0.0210 -0.7194
35947SOL    HW212298   2.979  10.053   4.538  0.5606  0.4995  0.3811
35948SOL     OW12299   6.134   1.697   3.396 -0.0564 -0.2086  0.5162
35948SOL    HW112300   6.070   1.760   3.362  0.3706  1.1356  2.0921
35948SOL    HW212301   6.136   1.713   3.490  1.0991 -1.6563  0.7753
35949SOL     OW12302  10.144   2.670   8.120  0.3107 -0.4978  0.2930
35949SOL    HW112303  10.226   2.621   8.131  0.7093 -0.4547 -1.9770
35949SOL    HW212304  10.172   2.760   8.103  0.0571 -0.9032 -3.0414
35950SOL     OW12305   4.799   1.591   5.188  0.5725 -0.0980 -0.1129
35950SOL    HW112306   4.773   1.552   5.104 -0.4223 -0.2235  0.2392
35950SOL    HW212307   4.869   1.534   5.220 -0.3090 -1.1336  0.0136
35951SOL     OW12308   9.828   3.169   0.149  0.7404 -0.7041 -0.0140
35951SOL    HW112309   9.768   3.241   0.130 -0.5230 -1.5017  0.7849
35951SOL    HW212310   9.903   3.211   0.191  1.5155  0.5135 -2.4431
35952SOL     OW12311   9.571   0.652   8.107  0.1085  0.0014  0.0089
35952SOL    HW112312   9.499   0.691   8.157 -0.4748  0.7618 -1.3753
35952SOL    HW212313   9.623   0.606   8.173 -0.9620  0.4505  1.2226
35953SOL     OW12314   5.688  10.661   7.616 -0.0055 -0.4315 -0.0294
35953SOL    HW112315   5.620  10.616   7.667  0.0673  0.5888  0.9910
35953SOL    HW212316   5.770  10.625   7.649  0.0754  0.8094  1.1661
35954SOL     OW12317   0.134   9.143   9.166  0.0375 -0.2333  0.0961
35954SOL    HW112318   0.045   9.116   9.191  0.4415 -1.9819 -0.2067
35954SOL    HW212319   0.125   9.235   9.142 -1.4449 -0.0264  1.2641
35955SOL     OW12320   1.074   2.955   2.302 -0.4032  0.5952 -0.4928
35955SOL    HW112321   1.049   2.866   2.328 -0.9103  1.3412  1.7824
35955SOL    HW212322   1.011   2.978   2.233 -0.0742 -0.8745 -1.3387
35956SOL     OW12323   6.624   8.206  10.939 -0.5574 -0.3874 -0.1280
35956SOL    HW112324   6.709   8.162  10.931  0.6321  1.6799  0.1786
35956SOL    HW212325   6.646   8.300  10.939 -3.0313  0.3469 -2.5959
35957SOL     OW12326   8.942   6.799  10.592  0.2394  0.2272  0.4340
35957SOL    HW112327   8.958   6.755  10.676  0.6338  0.4076  0.4543
35957SOL    HW212328   8.920   6.728  10.532  2.4550 -0.2133  0.0576
35958SOL     OW12329   9.324   3.758   1.333 -0.3976 -0.6674  0.1267
35958SOL    HW112330   9.232   3.745   1.310 -0.2329  1.0536 -1.7709
35958SOL    HW212331   9.370   3.685   1.290 -0.6630 -0.3456 -0.7201
35959SOL     OW12332   8.157  10.510   3.109  0.1240  0.0184 -0.5267
35959SOL    HW112333   8.203  10.507   3.193 -0.5195  1.4913 -0.0844
35959SOL    HW212334   8.072  10.471   3.128  0.7425 -1.6581 -1.0622
35960SOL     OW12335   8.694   2.986   8.112 -0.0667 -0.3344  0.2911
35960SOL    HW112336   8.621   2.949   8.064  1.0651 -2.1734 -0.1204
35960SOL    HW212337   8.687   2.948   8.200 -0.2207  0.3436  0.5768
35961SOL     OW12338   7.180   6.100   4.529 -0.0620  0.0346 -0.3790
35961SOL    HW112339   7.237   6.039   4.482 -0.6333 -0.8187  0.0152
35961SOL    HW212340   7.142   6.155   4.460 -1.5113 -1.7136 -1.0550
35962SOL     OW12341  10.365   2.759   9.803 -0.2242  0.7359  0.3115
35962SOL    HW112342  10.357   2.763   9.899  1.3404  0.7927  0.4646
35962SOL    HW212343  10.279   2.730   9.773 -1.6507  3.3851  1.5314
35963SOL     OW12344   7.848   0.983   8.545 -0.4711 -0.0033  0.0347
35963SOL    HW112345   7.823   0.934   8.467 -0.3358 -0.0615  0.0275
35963SOL    HW212346   7.879   1.068   8.511 -0.3426 -0.0558  0.0188
35964SOL     OW12347   4.474   5.274   3.288  0.7024  0.0787 -0.1377
35964SOL    HW112348   4.505   5.258   3.377 -1.7892 -0.4258  0.7424
35964SOL    HW212349   4.416   5.350   3.297 -0.2013 -0.4624 -1.1644
35965SOL     OW12350   5.462   4.225   9.131 -0.3713  0.1303 -0.4199
35965SOL    HW112351   5.451   4.266   9.217 -0.6655 -1.1825  0.1842
35965SOL    HW212352   5.442   4.296   9.069 -0.6094  0.9778  0.5860
35966SOL     OW12353   7.136   4.282   9.447  0.0845 -0.4205  0.1115
35966SOL    HW112354   7.046   4.316   9.449  0.4713  0.7318 -1.0162
35966SOL    HW212355   7.133   4.205   9.504 -1.7529 -0.7183 -0.3012
35967SOL     OW12356   8.502  10.679  11.059 -0.0178 -0.2419  0.3785
35967SOL    HW112357   8.437  10.749  11.051 -0.5500 -0.5182  1.9600
35967SOL    HW212358   8.537  10.690  11.147  1.0233 -1.0252  0.0770
35968SOL     OW12359   0.129   1.681   1.519 -0.0898  0.0903  0.1302
35968SOL    HW112360   0.210   1.730   1.531 -0.7678  1.0791  0.8042
35968SOL    HW212361   0.063   1.747   1.498 -0.7905 -0.6610 -0.1077
35969SOL     OW12362  10.463   5.799  10.197  0.1135 -0.4708 -0.4788
35969SOL    HW112363  10.545   5.848  10.207 -0.3146  0.2423 -0.3864
35969SOL    HW212364  10.401   5.862  10.160 -1.3085  0.0042  2.3967
35970SOL     OW12365   3.341   2.009   2.773  0.1644 -0.0149 -0.1183
35970SOL    HW112366   3.308   2.059   2.699  0.4183 -0.4303 -0.5147
35970SOL    HW212367   3.339   2.070   2.846  1.4983  0.9258 -0.8208
35971SOL     OW12368   0.807   3.968   4.192 -0.5337  0.1998  0.2691
35971SOL    HW112369   0.763   3.912   4.256 -0.0265 -1.4772 -0.7884
35971SOL    HW212370   0.840   3.908   4.125  2.5251  1.4383  0.4821
35972SOL     OW12371   4.685   1.208   8.339  0.1878 -0.5829 -0.3504
35972SOL    HW112372   4.683   1.174   8.428 -0.7656 -0.0062 -0.1449
35972SOL    HW212373   4.621   1.156   8.291 -0.2354 -0.0383 -0.3842
35973SOL     OW12374   4.940   5.512   1.221  0.1009 -0.0310  0.1774
35973SOL    HW112375   4.861   5.529   1.272  0.4086 -0.2417  0.7439
35973SOL    HW212376   5.005   5.486   1.287  0.7084  0.3807 -0.2540
35974SOL     OW12377   9.909  10.218   9.114  0.3172 -0.0123 -0.0273
35974SOL    HW112378   9.906  10.188   9.205  3.4604  0.9133  0.4815
35974SOL    HW212379   9.961  10.152   9.069 -1.1514 -0.4205 -1.1934
35975SOL     OW12380   7.656  10.559   9.734  0.2248  0.3922  0.1056
35975SOL    HW112381   7.593  10.605   9.789 -0.1780  0.5707 -0.5014
35975SOL    HW212382   7.662  10.613   9.655  1.7945  0.8584  0.5071
35976SOL     OW12383   2.863   0.404   1.299  0.5125 -0.4974  0.3488
35976SOL    HW112384   2.936   0.454   1.263  0.4861 -2.0115 -2.0542
35976SOL    HW212385   2.901   0.319   1.323 -0.4846 -1.6329 -1.7419
35977SOL     OW12386   3.067   7.287  10.658  0.1722 -0.3660 -0.3961
35977SOL    HW112387   3.003   7.260  10.724 -2.5019  0.1189 -2.5896
35977SOL    HW212388   3.087   7.378  10.680  1.5090 -0.9937  1.2570
35978SOL     OW12389   0.213  10.742   9.613 -0.5618 -0.0587 -0.1999
35978SOL    HW112390   0.270  10.667   9.596 -1.4022 -0.8121  0.2427
35978SOL    HW212391   0.185  10.771   9.526  1.2426  0.9437 -0.4943
35979SOL     OW12392   0.224   3.957   3.795 -0.1781  0.0633 -0.1725
35979SOL    HW112393   0.314   3.973   3.823  0.3002 -3.0347  0.4386
35979SOL    HW212394   0.173   4.025   3.838  1.4534 -0.3106  2.6209
35980SOL     OW12395  10.456   4.114   8.090 -0.3106  0.3450  0.2257
35980SOL    HW112396  10.459   4.051   8.018 -2.8360 -1.0747  1.2293
35980SOL    HW212397  10.546   4.117   8.123  0.3668 -0.9255 -1.3787
35981SOL     OW12398   9.637   3.605   6.828  0.2300  0.3687  0.0961
35981SOL    HW112399   9.555   3.627   6.871  0.3060  2.1869 -0.5751
35981SOL    HW212400   9.703   3.613   6.896 -0.0263 -0.1081  0.4054
35982SOL     OW12401   1.218   3.918   1.408 -0.0009 -0.6610  0.0325
35982SOL    HW112402   1.210   3.853   1.477  0.2086 -1.0343 -0.2888
35982SOL    HW212403   1.166   3.883   1.336  1.1602 -1.1294 -0.6163
35983SOL     OW12404   3.607   4.552   6.460  0.0473 -0.2774 -0.2784
35983SOL    HW112405   3.600   4.644   6.483 -1.2900 -0.4745  0.2387
35983SOL    HW212406   3.700   4.538   6.442  0.6161  0.7189  1.6035
35984SOL     OW12407   3.548   7.540   8.027 -0.1471 -0.2365 -0.4048
35984SOL    HW112408   3.616   7.525   7.961 -0.6813  1.1085 -1.3008
35984SOL    HW212409   3.530   7.453   8.062  1.9599 -0.6506 -0.2030
35985SOL     OW12410   6.059   8.609   9.177 -0.2331  0.9786 -0.4482
35985SOL    HW112411   6.141   8.560   9.171 -0.3239  0.9477 -1.9454
35985SOL    HW212412   6.079   8.696   9.142 -1.2632  0.3331 -2.8633
35986SOL     OW12413   9.959   5.022   6.092 -0.6054 -0.3295  0.4482
35986SOL    HW112414   9.968   5.116   6.105  0.0769 -0.2864 -0.2392
35986SOL    HW212415   9.997   5.006   6.005 -0.4050 -1.2787  0.6938
35987SOL     OW12416  10.524   1.165   0.267  0.0423  0.0063  0.2205
35987SOL    HW112417  10.455   1.231   0.265  0.2895  0.3255  1.3647
35987SOL    HW212418  10.578   1.185   0.190 -0.7434  0.1782 -0.2983
35988SOL     OW12419   6.386   3.232   0.523 -0.0498  0.6534 -0.0409
35988SOL    HW112420   6.404   3.164   0.588  1.2218 -1.2679 -2.2178
35988SOL    HW212421   6.324   3.190   0.463  0.4816  1.5401 -1.2386
35989SOL     OW12422   0.451   4.967   5.884  0.1052  0.1565 -0.3641
35989SOL    HW112423   0.489   4.981   5.971 -0.8967 -1.5048  0.3688
35989SOL    HW212424   0.527   4.965   5.825  1.3440 -3.2624  1.0857
35990SOL     OW12425   7.299   7.121   3.335  0.0419 -0.1832 -0.4130
35990SOL    HW112426   7.359   7.134   3.262 -0.2208 -2.2013 -1.0552
35990SOL    HW212427   7.271   7.209   3.360  1.2940  0.6323 -1.7499
35991SOL     OW12428   3.109   7.039  10.983 -0.1613 -0.2576 -0.8905
35991SOL    HW112429   3.057   7.060  10.905 -0.4859 -0.4550 -0.7290
35991SOL    HW212430   3.085   7.106  11.047  2.7103  2.1329 -2.0619
35992SOL     OW12431   5.461  10.790   8.598  0.8498  0.9141 -0.4300
35992SOL    HW112432   5.461  10.754   8.509  0.4374  0.7575 -0.3710
35992SOL    HW212433   5.372  10.822   8.611 -0.1058 -1.9089  1.0298
35993SOL     OW12434   5.411   1.017  10.791  0.4756  0.0277 -0.1706
35993SOL    HW112435   5.464   0.941  10.815 -0.1595 -0.9084 -1.5819
35993SOL    HW212436   5.467   1.069  10.734  0.5706  0.0826 -0.0259
35994SOL     OW12437   3.126   9.316   0.541 -0.3556 -0.7370 -0.4364
35994SOL    HW112438   3.159   9.385   0.597 -0.6280 -1.7352  1.0281
35994SOL    HW212439   3.060   9.358   0.486 -0.7346  0.1034  0.6433
35995SOL     OW12440   9.374   2.934   2.274  0.4645 -0.1593  0.0200
35995SOL    HW112441   9.326   2.975   2.202  0.0280 -2.2867 -0.9651
35995SOL    HW212442   9.449   2.892   2.232 -0.1818 -2.0474  0.6881
35996SOL     OW12443   4.974   1.305   0.275  0.2368  0.0098 -0.2948
35996SOL    HW112444   4.948   1.227   0.326  1.9154 -0.9490 -0.8303
35996SOL    HW212445   4.994   1.371   0.341  0.6398 -0.6345  0.2421
35997SOL     OW12446   8.532   2.512   7.985  0.2729 -0.4653 -0.5536
35997SOL    HW112447   8.618   2.483   8.015  0.1499 -0.4737 -0.2026
35997SOL    HW212448   8.544   2.533   7.893  0.8927  0.4579 -0.2824
35998SOL     OW12449   5.634  10.575   9.029  0.5063 -0.2297  0.2006
35998SOL    HW112450   5.646  10.606   8.940 -0.4373  0.3822  0.2672
35998SOL    HW212451   5.593  10.489   9.019 -0.3109  0.1701  0.0430
35999SOL     OW12452   6.618   0.395   9.159 -0.2103 -0.1532  0.4827
35999SOL    HW112453   6.598   0.302   9.171  0.2619 -0.2010  0.9536
35999SOL    HW212454   6.705   0.396   9.119  0.5501  0.0954  2.0535
36000SOL     OW12455   9.326   5.115   2.716  0.3726 -0.8991  0.5569
36000SOL    HW112456   9.416   5.140   2.693 -0.1269  1.6223  0.9762
36000SOL    HW212457   9.276   5.127   2.636  0.1658 -0.8019  0.6975
36001SOL     OW12458   9.193   2.273   4.187  0.2492 -0.7771  0.1146
36001SOL    HW112459   9.139   2.256   4.110  0.9031  0.7180 -0.7182
36001SOL    HW212460   9.150   2.348   4.230  0.8176 -0.5291  0.2611
36002SOL     OW12461   0.315   5.114   2.174  0.2746 -0.4052 -0.4655
36002SOL    HW112462   0.321   5.030   2.221  1.0043 -1.0222 -1.6108
36002SOL    HW212463   0.303   5.089   2.082  1.1883  0.7253 -0.9151
36003SOL     OW12464   6.330   1.012   2.019  0.5911 -0.2706  0.2687
36003SOL    HW112465   6.420   1.004   2.050  0.5974  0.2726  0.3950
36003SOL    HW212466   6.331   0.971   1.932  1.0212 -0.0423  0.1614
36004SOL     OW12467   2.627   4.339   8.612  0.0863 -0.6014  0.5843
36004SOL    HW112468   2.591   4.382   8.534  2.2069  0.2171 -0.0142
36004SOL    HW212469   2.660   4.255   8.580  0.3974 -0.5319  0.7213
36005SOL     OW12470   1.506   0.810   9.261  0.2634 -0.1849  0.5894
36005SOL    HW112471   1.549   0.740   9.211 -0.4560  0.2070 -0.6200
36005SOL    HW212472   1.447   0.851   9.198  1.3242  2.1024  1.0025
36006SOL     OW12473   9.408  10.791   3.887  0.3021  0.0240  0.4469
36006SOL    HW112474   9.394  10.879   3.920  1.2210  0.3801 -0.0617
36006SOL    HW212475   9.501  10.774   3.903 -0.1607 -1.4311  1.8692
36007SOL     OW12476   4.402   6.240   7.319 -0.4086  0.3144 -0.3699
36007SOL    HW112477   4.307   6.223   7.317 -0.7083  1.2772  2.1791
36007SOL    HW212478   4.427   6.224   7.409  1.5015  1.9202 -0.5599
36008SOL     OW12479   9.761   8.922   0.337 -0.4598 -0.2559 -0.1503
36008SOL    HW112480   9.851   8.938   0.307 -0.0854 -0.3133  0.8803
36008SOL    HW212481   9.722   8.867   0.269 -0.4368  1.5777 -1.7093
36009SOL     OW12482   3.354   7.685   2.781  0.7123 -0.1013  0.2004
36009SOL    HW112483   3.307   7.750   2.833  1.3318  0.9992 -0.5702
36009SOL    HW212484   3.434   7.729   2.753  0.2388 -0.4866 -1.9845
36010SOL     OW12485   0.764   0.531   6.075 -0.1756 -0.2350  0.1634
36010SOL    HW112486   0.848   0.498   6.043 -0.7020  0.5167 -2.1848
36010SOL    HW212487   0.731   0.461   6.132  0.8826 -1.6582 -0.8994
36011SOL     OW12488  10.388   4.658   4.106 -0.3079 -0.4694 -0.0688
36011SOL    HW112489  10.336   4.610   4.041  1.5932 -0.1959 -1.9357
36011SOL    HW212490  10.341   4.740   4.119 -1.2309 -0.9424 -0.3557
36012SOL     OW12491   8.549   4.237  10.335 -0.4431  0.4302 -0.5597
36012SOL    HW112492   8.563   4.328  10.310 -2.6581  0.7617 -0.8483
36012SOL    HW212493   8.456   4.221  10.316 -0.3029 -1.6615  0.2016
36013SOL     OW12494   4.717   6.038   9.483 -0.0242 -0.1316  0.2089
36013SOL    HW112495   4.747   6.128   9.472 -0.2808 -0.0569  0.1002
36013SOL    HW212496   4.643   6.045   9.543 -0.3490 -0.2058 -0.1733
36014SOL     OW12497   7.117   1.572   0.177  0.0516  0.0504  0.5404
36014SOL    HW112498   7.156   1.584   0.091  0.5286 -0.8855  0.6085
36014SOL    HW212499   7.191   1.557   0.235 -0.3221 -0.3243  0.9319
36015SOL     OW12500   3.215   8.182   4.563 -0.0395 -0.1951  0.6489
36015SOL    HW112501   3.172   8.161   4.481  2.1635  2.1897 -1.2853
36015SOL    HW212502   3.229   8.277   4.561  1.0635 -0.1807  3.2814
36016SOL     OW12503   5.573   4.494  10.829 -0.2557  0.0956  0.2369
36016SOL    HW112504   5.488   4.526  10.800 -0.9629 -1.7322  0.1043
36016SOL    HW212505   5.576   4.515  10.922 -1.0327 -0.1534  0.3280
36017SOL     OW12506   6.785   5.139   6.674  0.0557  0.2617  0.2379
36017SOL    HW112507   6.845   5.076   6.632 -1.1418  0.1854 -1.4880
36017SOL    HW212508   6.698   5.104   6.655 -0.5789  1.3851  1.0077
36018SOL     OW12509   9.815   7.748   3.669  0.0234  0.4349  0.0237
36018SOL    HW112510   9.861   7.713   3.593 -0.5262  1.0797 -0.6132
36018SOL    HW212511   9.801   7.672   3.726  0.2439 -0.0928 -0.6220
36019SOL     OW12512   6.517   9.484   6.163  0.0961 -0.0305 -0.0764
36019SOL    HW112513   6.550   9.394   6.157  0.3705  0.1483 -2.0913
36019SOL    HW212514   6.487   9.504   6.074 -0.8883  1.5343  0.5698
36020SOL     OW12515   8.059   4.784   2.718  0.2422 -0.2475 -0.1602
36020SOL    HW112516   8.080   4.768   2.810  2.5288 -0.1314 -0.6004
36020SOL    HW212517   8.022   4.873   2.717  0.4734 -0.1321  0.6166
36021SOL     OW12518   3.335   6.365   7.657  0.1850  0.0792  0.3166
36021SOL    HW112519   3.254   6.387   7.703  0.9456  0.2743  1.6208
36021SOL    HW212520   3.335   6.269   7.654  0.4809  0.0330  1.4242
36022SOL     OW12521   9.085   2.762   8.957  0.0317 -0.0833 -0.0252
36022SOL    HW112522   9.068   2.668   8.964  1.0818 -0.2370  0.6456
36022SOL    HW212523   9.002   2.799   8.928 -0.5321 -1.1578  0.1590
36023SOL     OW12524   6.889   0.518   6.038  0.4284  0.7344  0.0480
36023SOL    HW112525   6.946   0.473   5.975 -1.0244  0.2532 -0.9951
36023SOL    HW212526   6.806   0.528   5.991  0.0104  2.4916  1.0841
36024SOL     OW12527   0.289   2.844   9.315  0.0502 -0.0561 -0.0364
36024SOL    HW112528   0.275   2.834   9.410 -1.2132 -0.2393 -0.2262
36024SOL    HW212529   0.203   2.867   9.281  0.5433  0.2183 -1.1257
36025SOL     OW12530  10.601   7.118   8.326 -0.2432  0.1737 -0.4547
36025SOL    HW112531  10.640   7.130   8.239  1.1058  1.7204  0.3159
36025SOL    HW212532  10.663   7.158   8.386 -0.1985 -2.5182  1.4699
36026SOL     OW12533   4.131   9.192  10.918 -0.3572  0.7996 -0.3289
36026SOL    HW112534   4.161   9.233  10.999  0.5998  1.9083 -1.2108
36026SOL    HW212535   4.198   9.127  10.897 -0.7626  0.2928 -0.0845
36027SOL     OW12536   1.746   5.488   1.809  0.4054  0.0865 -0.0179
36027SOL    HW112537   1.708   5.434   1.878 -1.9928 -0.4217 -1.5926
36027SOL    HW212538   1.737   5.577   1.841 -0.6143 -0.1405  0.3998
36028SOL     OW12539   2.139  10.894   4.583  0.5093 -0.9223 -0.2549
36028SOL    HW112540   2.053  10.927   4.609  0.5114 -1.1431  0.0381
36028SOL    HW212541   2.127  10.861   4.494  0.8397  1.1652 -1.1348
36029SOL     OW12542   3.364   2.573   7.905  0.7233 -0.3453 -0.2341
36029SOL    HW112543   3.384   2.530   7.988  1.9168 -0.0807 -0.3651
36029SOL    HW212544   3.439   2.554   7.850  0.0308 -0.3527 -1.2024
36030SOL     OW12545  10.144   6.362   4.942  0.3266  0.0145 -0.4041
36030SOL    HW112546  10.236   6.372   4.968  0.4172 -2.0093  0.2593
36030SOL    HW212547  10.096   6.423   4.997  1.0680 -0.5433  0.9135
36031SOL     OW12548   4.701   6.498   2.787  0.0491 -0.2391 -0.5475
36031SOL    HW112549   4.783   6.455   2.761  0.3196 -1.0445  1.4570
36031SOL    HW212550   4.637   6.470   2.722  0.7948 -1.7374 -0.6782
36032SOL     OW12551   0.951   1.222   9.704 -0.1335 -0.1780  0.1599
36032SOL    HW112552   0.968   1.170   9.783  0.2317  0.1204  0.2811
36032SOL    HW212553   0.904   1.162   9.646  0.4484 -0.7142  0.2263
36033SOL     OW12554   5.070   6.700   5.122  0.3147 -0.4881  0.0609
36033SOL    HW112555   5.161   6.722   5.142  1.3806 -3.5352 -0.8886
36033SOL    HW212556   5.037   6.659   5.202  0.3762 -0.9810 -0.1607
36034SOL     OW12557   8.981   0.085   7.080  0.2570  0.4976 -0.3099
36034SOL    HW112558   9.029   0.007   7.108 -0.5209  0.5160  1.1056
36034SOL    HW212559   9.047   0.155   7.080  0.6662  0.1160 -0.3416
36035SOL     OW12560   3.860  10.554   6.951 -0.2125 -0.8038 -0.1042
36035SOL    HW112561   3.832  10.642   6.925  0.4055  0.0428  1.8393
36035SOL    HW212562   3.835  10.548   7.043  1.5195 -1.8857  0.3433
36036SOL     OW12563   5.502   3.204   8.177 -0.0342  0.2099  0.0242
36036SOL    HW112564   5.427   3.144   8.175 -0.4135  0.6315  1.0564
36036SOL    HW212565   5.558   3.169   8.246  0.1008  0.6201  0.1236
36037SOL     OW12566   6.875   3.548   7.834  0.2461 -0.3090 -0.3276
36037SOL    HW112567   6.804   3.611   7.835  0.3695 -0.1584 -0.9342
36037SOL    HW212568   6.836   3.468   7.871 -0.1325 -0.1230 -0.3183
36038SOL     OW12569   0.334   5.521   4.915 -0.5284  0.1638 -0.1038
36038SOL    HW112570   0.316   5.582   4.843  1.2430  0.8989  0.0397
36038SOL    HW212571   0.428   5.527   4.929 -0.6222 -1.0949  1.2980
36039SOL     OW12572   6.752   5.733   4.011 -0.0338 -0.2517  0.1630
36039SOL    HW112573   6.680   5.776   3.965 -0.0697 -1.9551 -1.4916
36039SOL    HW212574   6.711   5.692   4.087 -1.0712 -2.0728 -1.3113
36040SOL     OW12575  11.073   8.502   7.904  0.3326 -0.2906 -0.4220
36040SOL    HW112576  11.034   8.588   7.889  2.3675  0.7914  0.1771
36040SOL    HW212577  11.009   8.440   7.869 -1.1029  1.4605 -1.0212
36041SOL     OW12578   5.178   8.498   1.261  0.5095  0.3047  0.3116
36041SOL    HW112579   5.257   8.485   1.314  0.2538 -1.7576  0.2355
36041SOL    HW212580   5.114   8.535   1.322  0.6947 -0.6015  1.0744
36042SOL     OW12581   0.365   1.950   6.155 -0.0898  0.1419  0.1620
36042SOL    HW112582   0.357   1.959   6.250 -2.2608  1.1225 -0.0458
36042SOL    HW212583   0.339   2.036   6.121  2.4115  0.4214 -1.3114
36043SOL     OW12584   6.288   3.713   2.918 -0.0757  0.2108 -0.2630
36043SOL    HW112585   6.252   3.641   2.969 -0.4196  0.1577 -0.5816
36043SOL    HW212586   6.298   3.678   2.829 -0.5463  0.6529 -0.4949
36044SOL     OW12587   0.831   1.447   2.535 -0.4280 -0.6547 -0.5808
36044SOL    HW112588   0.753   1.405   2.499 -0.1501 -2.8177  1.1068
36044SOL    HW212589   0.826   1.430   2.630  1.4430  0.2431 -0.2692
36045SOL     OW12590  10.507   4.222   4.001 -0.3845 -0.2042 -0.0560
36045SOL    HW112591  10.578   4.253   4.058 -0.3942 -0.6162  0.1831
36045SOL    HW212592  10.502   4.128   4.018 -1.2988 -0.1062  0.2745
36046SOL     OW12593  10.313   3.650   3.074 -0.6182  0.5895 -0.2950
36046SOL    HW112594  10.258   3.620   3.002  0.1058 -0.8392 -0.2966
36046SOL    HW212595  10.343   3.737   3.047 -1.7974  0.8403 -0.8782
36047SOL     OW12596   6.516   0.122   1.461 -0.4819 -0.8536 -0.5535
36047SOL    HW112597   6.457   0.175   1.514 -1.3540 -0.8917 -1.4618
36047SOL    HW212598   6.601   0.129   1.506 -1.0681 -0.4663  0.5373
36048SOL     OW12599   7.297   7.129   8.734 -0.2506  0.3420  1.3164
36048SOL    HW112600   7.244   7.068   8.785 -0.1640  0.9142  2.1181
36048SOL    HW212601   7.295   7.094   8.645 -1.2446 -0.1288  1.5068
36049SOL     OW12602   0.262   9.155   3.811 -0.0958  0.1650  0.0863
36049SOL    HW112603   0.307   9.159   3.896 -0.5477  2.4021  0.2895
36049SOL    HW212604   0.312   9.216   3.755  0.2374 -1.3156 -1.3101
36050SOL     OW12605   4.710   3.813   0.955 -0.0218  0.0628 -0.0810
36050SOL    HW112606   4.623   3.773   0.966 -0.0243  0.2320  0.6000
36050SOL    HW212607   4.767   3.760   1.012  0.1933  0.3412 -0.0376
36051SOL     OW12608   8.392   4.174  10.938  0.0777 -0.3578  0.3018
36051SOL    HW112609   8.467   4.124  10.906  0.6681  1.0698 -0.5837
36051SOL    HW212610   8.329   4.106  10.965  1.1204 -1.5754 -0.2000
36052SOL     OW12611   9.198   0.399   2.342  0.1197  0.2690 -0.2603
36052SOL    HW112612   9.111   0.387   2.381 -0.3948  0.8675 -1.1886
36052SOL    HW212613   9.224   0.312   2.314  1.0971 -0.4489  2.5626
36053SOL     OW12614   1.393   6.402   0.146  0.2712 -0.3106  0.0901
36053SOL    HW112615   1.318   6.449   0.182 -0.8098 -1.5114 -0.5140
36053SOL    HW212616   1.448   6.382   0.222  0.2538  1.0176  0.4719
36054SOL     OW12617   9.762  10.472   9.909 -0.1391  0.0549  0.6864
36054SOL    HW112618   9.842  10.518   9.935  0.2097 -0.6576  0.8775
36054SOL    HW212619   9.739  10.511   9.825 -0.0977  0.8924  1.0516
36055SOL     OW12620   5.128   6.930   1.053 -0.1247 -0.0200  0.2919
36055SOL    HW112621   5.222   6.926   1.032 -0.0796 -0.7916  0.6405
36055SOL    HW212622   5.113   7.023   1.074  0.6901  0.0038  0.8194
36056SOL     OW12623  10.859   5.235   0.007 -0.5655  0.1535 -0.2227
36056SOL    HW112624  10.914   5.289  -0.050 -1.1211  0.3997 -0.5350
36056SOL    HW212625  10.812   5.177  -0.053 -2.5000  1.6152 -0.2171
36057SOL     OW12626  10.962   0.105   9.342 -0.6175 -0.3065 -0.5182
36057SOL    HW112627  11.055   0.112   9.363 -0.9570  1.3225  0.7032
36057SOL    HW212628  10.959   0.075   9.251  1.0823 -0.8747 -0.4041
36058SOL     OW12629   5.810   9.133   6.923  0.3738  0.0315  0.1879
36058SOL    HW112630   5.780   9.073   6.991  1.2910 -0.5645  0.0787
36058SOL    HW212631   5.825   9.216   6.968  2.3724 -0.7322  1.0362
36059SOL     OW12632   1.288   7.348   8.481 -0.1591  0.4906  0.0260
36059SOL    HW112633   1.324   7.403   8.550 -0.6207  0.0129  0.6685
36059SOL    HW212634   1.195   7.338   8.504  0.5281 -3.3555  1.9554
36060SOL     OW12635   4.331   7.000   2.537 -0.0030  0.4224 -0.2268
36060SOL    HW112636   4.353   7.091   2.520  1.0385 -0.1491 -2.4417
36060SOL    HW212637   4.379   6.951   2.469 -1.9229 -1.6081 -0.2354
36061SOL     OW12638   2.917  10.645   6.504 -0.3233  0.1312  0.9186
36061SOL    HW112639   2.850  10.606   6.448  0.6105  0.0266 -0.1772
36061SOL    HW212640   2.973  10.571   6.529  0.0215  0.3825  0.8932
36062SOL     OW12641   7.416   3.519   8.769  0.1844  0.0807 -0.0541
36062SOL    HW112642   7.343   3.499   8.709 -0.4990 -0.5139  0.9512
36062SOL    HW212643   7.435   3.611   8.752 -1.1385  0.3862  0.0006
36063SOL     OW12644   2.688   3.901   4.970  0.2844 -0.1917  0.2111
36063SOL    HW112645   2.685   3.946   5.055 -1.1082  0.9323 -0.3882
36063SOL    HW212646   2.778   3.912   4.940  0.3937  0.7480  0.8505
36064SOL     OW12647   7.903   4.126  10.770  0.1668  0.4570  0.3765
36064SOL    HW112648   7.977   4.136  10.711 -0.2964  0.1731 -0.2681
36064SOL    HW212649   7.882   4.215  10.798 -1.6806  1.0858 -2.5097
36065SOL     OW12650   3.769   1.148   9.268 -0.1316 -0.5796 -0.1330
36065SOL    HW112651   3.803   1.229   9.230  1.7499 -1.1119  0.3109
36065SOL    HW212652   3.845   1.088   9.269 -0.9345 -1.6446  1.4654
36066SOL     OW12653   9.512   8.268   1.928  0.3864  0.1026 -0.4567
36066SOL    HW112654   9.550   8.267   2.016  1.9950 -0.3082 -1.1136
36066SOL    HW212655   9.418   8.267   1.942  0.6180  0.0159  1.2631
36067SOL     OW12656   5.707   5.130   4.767  0.0542 -0.2933 -0.7048
36067SOL    HW112657   5.751   5.215   4.756 -2.6055  1.0064 -2.4339
36067SOL    HW212658   5.772   5.066   4.739  1.1535  1.4631 -2.5000
36068SOL     OW12659   9.831   9.241   2.515  0.1259  0.2347  0.3611
36068SOL    HW112660   9.844   9.258   2.609  0.0270 -1.6231  0.7471
36068SOL    HW212661   9.917   9.257   2.476  0.0542  1.4972  0.6515
36069SOL     OW12662   3.575   4.325   1.426  0.0294  0.1686  0.2504
36069SOL    HW112663   3.665   4.349   1.409  0.2976  0.5352  2.0234
36069SOL    HW212664   3.529   4.408   1.437  0.1685  0.0120  2.5058
36070SOL     OW12665   2.127   8.270   3.766 -0.2265 -0.9597 -0.0630
36070SOL    HW112666   2.185   8.202   3.730 -0.4633 -1.0162 -0.3453
36070SOL    HW212667   2.040   8.247   3.732  0.0011  0.6715 -1.9535
36071SOL     OW12668   8.629   2.889   4.487 -0.1357 -0.2792 -0.3937
36071SOL    HW112669   8.625   2.976   4.448 -2.6074 -0.7415 -1.3334
36071SOL    HW212670   8.575   2.834   4.431  1.7848 -2.6145 -0.1412
36072SOL     OW12671   6.977   2.739   0.112 -0.0817 -0.1595  0.2260
36072SOL    HW112672   6.927   2.774   0.186 -0.9068 -0.1814 -0.3046
36072SOL    HW212673   6.913   2.688   0.062  0.5356 -0.3903 -0.3400
36073SOL     OW12674   1.536   4.138   2.057 -0.2994 -0.7320  0.2893
36073SOL    HW112675   1.565   4.050   2.032  0.2540 -0.3001 -0.6430
36073SOL    HW212676   1.549   4.191   1.978 -2.6921 -0.2753  0.1352
36074SOL     OW12677   4.529   3.559   5.044  0.2746  0.0701  0.1235
36074SOL    HW112678   4.547   3.469   5.017 -0.6619  0.6594 -2.9166
36074SOL    HW212679   4.579   3.571   5.125 -0.6941 -3.5802  1.4673
36075SOL     OW12680   1.812   5.279   5.988  0.2187  0.2168  0.3719
36075SOL    HW112681   1.898   5.256   6.023 -1.4536 -1.4015  3.9370
36075SOL    HW212682   1.788   5.204   5.934  1.4573  1.2540 -1.7495
36076SOL     OW12683   2.867   6.800   8.094 -0.5448  0.8473  0.3825
36076SOL    HW112684   2.822   6.770   8.173 -0.0908 -1.1216 -0.0527
36076SOL    HW212685   2.821   6.757   8.022  1.2483 -0.2921 -0.1470
36077SOL     OW12686   1.155   6.759   6.994 -0.6555  0.5111  0.2353
36077SOL    HW112687   1.198   6.740   7.077  1.0919  3.6749  0.2432
36077SOL    HW212688   1.081   6.815   7.017 -0.5985  0.7989 -0.2455
36078SOL     OW12689   9.837   4.591  11.069 -0.1838  0.0737 -0.2406
36078SOL    HW112690   9.786   4.540  11.006  0.4398  0.0700 -0.7538
36078SOL    HW212691   9.924   4.600  11.028  0.1903  0.1853  0.5548
36079SOL     OW12692   7.433   9.288   2.579 -0.2158 -0.0371 -0.1781
36079SOL    HW112693   7.481   9.207   2.592 -0.4346 -0.0929  0.3079
36079SOL    HW212694   7.341   9.262   2.581 -0.2788  0.1684 -0.3902
36080SOL     OW12695   8.373  10.697   3.981 -0.0954  0.0435  0.2417
36080SOL    HW112696   8.405  10.778   3.941 -1.5250  0.0009 -1.0657
36080SOL    HW212697   8.286  10.719   4.015 -0.1755 -0.7535  0.5818
36081SOL     OW12698   0.915   2.157   4.098  0.0310  0.1954 -0.2700
36081SOL    HW112699   0.926   2.218   4.170 -0.5681 -0.6726  0.5924
36081SOL    HW212700   0.850   2.094   4.130  0.4398 -0.7430 -1.2178
36082SOL     OW12701   1.294   9.740   0.257  0.8892  0.0224  0.6655
36082SOL    HW112702   1.320   9.654   0.226  0.2426  0.1091 -0.1819
36082SOL    HW212703   1.344   9.754   0.337  2.1487 -0.4863 -0.0171
36083SOL     OW12704   1.205   4.088   5.933 -0.0096 -0.3869  0.0160
36083SOL    HW112705   1.263   4.094   6.008  0.9806 -0.3429 -0.7357
36083SOL    HW212706   1.152   4.168   5.938  1.1644  0.4320 -0.2262
36084SOL     OW12707   1.562   7.473   7.948 -0.0707  0.0189 -0.4779
36084SOL    HW112708   1.482   7.429   7.919  0.4051 -0.5630 -0.9142
36084SOL    HW212709   1.545   7.494   8.040 -0.5025 -0.6293 -0.4017
36085SOL     OW12710   3.415   9.956   7.033 -0.0166 -0.0087 -0.3041
36085SOL    HW112711   3.336  10.003   7.005  1.4007  1.4537 -2.0210
36085SOL    HW212712   3.431   9.893   6.963  1.2762  0.8668 -0.8097
36086SOL     OW12713   8.092   3.757   7.220 -0.0443  0.8094 -0.4298
36086SOL    HW112714   8.156   3.735   7.152 -1.4070  0.1656 -1.5360
36086SOL    HW212715   8.145   3.769   7.299  1.2996 -1.3913 -0.9057
36087SOL     OW12716   0.213  10.645   7.648  0.6263  0.4975 -0.0591
36087SOL    HW112717   0.219  10.601   7.733 -1.1436  0.0814 -0.1147
36087SOL    HW212718   0.295  10.623   7.604 -0.1898 -2.9412 -0.1475
36088SOL     OW12719   1.415   7.868   9.953 -0.6821 -0.5230 -0.5071
36088SOL    HW112720   1.458   7.798  10.002  1.1761  0.7782 -0.1673
36088SOL    HW212721   1.444   7.857   9.863 -1.3611 -0.8988 -0.6829
36089SOL     OW12722   0.772   5.020   0.075  0.1443  0.4388 -0.0688
36089SOL    HW112723   0.762   5.112   0.098 -0.8581  0.7838 -1.7217
36089SOL    HW212724   0.859   4.996   0.107 -0.3205  1.4076  2.0745
36090SOL     OW12725   5.140   3.695   8.743  0.1038 -0.3611  0.2294
36090SOL    HW112726   5.121   3.776   8.789 -0.9659 -0.2218 -0.4214
36090SOL    HW212727   5.060   3.642   8.752 -0.7322  0.2448 -2.5871
36091SOL     OW12728   5.460   9.065   0.561 -0.0328 -0.0428 -0.4086
36091SOL    HW112729   5.365   9.064   0.548 -0.1595 -1.9099  0.2828
36091SOL    HW212730   5.473   9.029   0.649  1.3334 -0.8526 -0.8988
36092SOL     OW12731   5.085   0.543   4.558 -0.4006 -0.3052 -0.2117
36092SOL    HW112732   5.082   0.511   4.468  0.6115  1.0750 -0.7846
36092SOL    HW212733   5.049   0.632   4.554 -1.2756 -0.5802  0.9369
36093SOL     OW12734   8.890   7.116   6.086  0.0833 -0.5299  0.1527
36093SOL    HW112735   8.856   7.152   6.004 -1.2234 -0.0114  0.8876
36093SOL    HW212736   8.859   7.025   6.087  1.1167 -0.9030 -0.4643
36094SOL     OW12737   4.749   3.122   9.974  0.0044 -0.1013 -0.9354
36094SOL    HW112738   4.708   3.043   9.940  1.7025  0.1900 -3.9978
36094SOL    HW212739   4.700   3.194   9.934  0.4842  0.3222 -0.7836
36095SOL     OW12740   8.479  10.658   5.830 -0.0187 -0.3933  0.5588
36095SOL    HW112741   8.512  10.748   5.819 -1.4561 -0.0107 -0.9322
36095SOL    HW212742   8.394  10.668   5.872 -1.2403 -0.8418 -1.6713
36096SOL     OW12743   2.185   1.938  10.471  0.0432  0.1488 -0.3599
36096SOL    HW112744   2.131   1.865  10.441 -2.3065  2.0169 -0.9186
36096SOL    HW212745   2.250   1.950  10.401 -0.3461 -0.5895 -0.8592
36097SOL     OW12746   7.463  10.815   5.801  0.3170 -0.1436  0.2427
36097SOL    HW112747   7.534  10.794   5.741  1.3240  0.6937  1.0978
36097SOL    HW212748   7.446  10.733   5.847  0.7910 -0.3316  0.0887
36098SOL     OW12749   1.157   3.226   4.705 -0.3337 -0.0043 -0.1892
36098SOL    HW112750   1.200   3.144   4.681 -2.1507 -0.9967 -0.1703
36098SOL    HW212751   1.192   3.246   4.792 -0.3135 -1.0830  0.0689
36099SOL     OW12752   7.589   9.792  10.971  0.2422 -0.5710 -0.3653
36099SOL    HW112753   7.499   9.819  10.989  0.1377 -1.6010  0.8262
36099SOL    HW212754   7.582   9.731  10.897  0.0570 -0.0486 -0.7790
36100SOL     OW12755   5.753   0.484   2.939 -0.1419  0.1866  0.0857
36100SOL    HW112756   5.781   0.519   2.854  0.1978 -0.2394  0.0168
36100SOL    HW212757   5.673   0.435   2.919 -0.4793  0.7125  0.1404
36101SOL     OW12758   9.225   6.456   4.505  0.0654 -0.1354  0.3087
36101SOL    HW112759   9.255   6.366   4.520 -0.6555 -0.4534 -0.1235
36101SOL    HW212760   9.145   6.447   4.454  0.6094  0.8004 -0.7674
36102SOL     OW12761   2.174   2.552   3.199  0.4175  0.3238  0.4841
36102SOL    HW112762   2.099   2.493   3.188 -0.1453  1.0797  0.1179
36102SOL    HW212763   2.224   2.515   3.272 -0.7299  0.2306  1.2488
36103SOL     OW12764   9.554   5.600   7.739  0.2749 -0.4838  0.3206
36103SOL    HW112765   9.649   5.594   7.729  0.0397 -0.0465 -3.8661
36103SOL    HW212766   9.540   5.684   7.783  1.8113 -0.0344  0.0059
36104SOL     OW12767   8.235   4.149   3.233  0.6418 -0.4905  0.0629
36104SOL    HW112768   8.264   4.071   3.279 -0.5023 -0.6880  0.4923
36104SOL    HW212769   8.171   4.117   3.169  0.7963 -0.0035 -0.3428
36105SOL     OW12770   1.946   2.726   1.403 -0.0065  0.1158 -0.2940
36105SOL    HW112771   1.870   2.780   1.423 -0.6877 -1.6643  2.6063
36105SOL    HW212772   1.912   2.653   1.352  0.1897  0.4706 -0.9350
36106SOL     OW12773   4.541   4.317   8.718  0.0934 -0.1628 -0.4506
36106SOL    HW112774   4.616   4.287   8.769  0.3953 -0.5220 -1.0948
36106SOL    HW212775   4.557   4.411   8.704  0.8040 -0.3841 -1.2074
36107SOL     OW12776   5.966   6.304   9.313 -1.0645  0.1710  0.4049
36107SOL    HW112777   5.909   6.373   9.280 -0.3393  1.4159  1.6267
36107SOL    HW212778   5.906   6.239   9.349 -1.7463  0.5078 -0.0986
36108SOL     OW12779   6.381   7.553   5.963 -0.1068  0.7357 -0.7965
36108SOL    HW112780   6.428   7.481   6.004  1.4354  1.2692 -1.5392
36108SOL    HW212781   6.290   7.525   5.960  0.7360 -2.2449 -3.2244
36109SOL     OW12782   3.131  10.269   7.262 -0.2733 -0.0848 -0.3563
36109SOL    HW112783   3.144  10.347   7.208  0.4583 -0.3647 -0.5919
36109SOL    HW212784   3.192  10.280   7.335  0.3961 -0.8000 -0.7963
36110SOL     OW12785   6.308   2.763   9.649 -0.5155 -0.4037 -0.1331
36110SOL    HW112786   6.264   2.820   9.711  1.0920 -0.2311  0.9125
36110SOL    HW212787   6.396   2.800   9.640 -0.0504 -1.6197 -0.9145
36111SOL     OW12788   2.310   3.418   1.388  0.3357 -0.4135 -0.2789
36111SOL    HW112789   2.232   3.464   1.419  1.0122  0.2476  0.5211
36111SOL    HW212790   2.305   3.421   1.293 -0.1169  0.5069 -0.2316
36112SOL     OW12791   2.591   8.106   4.613  0.2726  0.3940 -0.0013
36112SOL    HW112792   2.587   8.189   4.565  2.0895 -1.4120 -3.6701
36112SOL    HW212793   2.663   8.116   4.674  1.2911  1.1681 -1.2873
36113SOL     OW12794  10.775   2.249   8.027  0.0757 -0.0806  0.2937
36113SOL    HW112795  10.732   2.194   8.092  0.8060 -1.9967 -0.7565
36113SOL    HW212796  10.864   2.262   8.060  0.5809 -1.4115 -0.4528
36114SOL     OW12797   4.502   6.690   2.827 -0.4770  0.1743  0.2134
36114SOL    HW112798   4.458   6.663   2.908 -1.0678  0.8297  0.1234
36114SOL    HW212799   4.584   6.641   2.826 -0.3827  0.2968  1.2965
36115SOL     OW12800   1.924   0.296   9.474 -0.0979  0.2648  0.4233
36115SOL    HW112801   1.843   0.307   9.523  0.5157 -1.0470  1.8416
36115SOL    HW212802   1.986   0.354   9.518  0.0877  0.1896  0.2605
36116SOL     OW12803   9.204   0.389   9.032  0.9184  0.1232  0.0206
36116SOL    HW112804   9.281   0.368   8.979  0.5060  0.7428 -0.8552
36116SOL    HW212805   9.152   0.447   8.976 -1.2915 -2.0674 -0.3836
36117SOL     OW12806   9.883   5.677   9.017  0.0137  0.0393 -0.4500
36117SOL    HW112807   9.793   5.710   9.012 -0.4041 -1.1997 -1.4212
36117SOL    HW212808   9.883   5.598   8.964  1.6659 -0.0366 -0.3820
36118SOL     OW12809   9.534   9.125  10.336 -0.2469  0.3263 -0.3627
36118SOL    HW112810   9.606   9.087  10.286 -0.3326  0.3971 -0.5431
36118SOL    HW212811   9.495   9.189  10.276 -1.3439 -0.7013 -0.7997
36119SOL     OW12812  10.704   4.686   1.318  0.2779 -0.3681 -0.2925
36119SOL    HW112813  10.669   4.739   1.389  2.6236  0.9920 -0.0412
36119SOL    HW212814  10.680   4.596   1.341 -0.9877  0.2467  0.9740
36120SOL     OW12815   9.447   8.413   0.027 -0.4753 -0.0794  0.0363
36120SOL    HW112816   9.464   8.430   0.120  0.9882  0.1646 -0.2551
36120SOL    HW212817   9.427   8.319   0.024  0.9804 -0.4192  0.4139
36121SOL     OW12818   7.667   9.284   4.212  0.4707 -0.5337  0.5688
36121SOL    HW112819   7.591   9.259   4.266 -0.3591 -1.3585 -0.9192
36121SOL    HW212820   7.649   9.374   4.186 -1.6647 -1.6447 -2.3223
36122SOL     OW12821   3.644   7.901   8.777 -0.4810  0.3634  0.5973
36122SOL    HW112822   3.685   7.931   8.858 -1.3172  0.4135  1.0155
36122SOL    HW212823   3.550   7.917   8.790 -0.6346  0.2948 -0.3485
36123SOL     OW12824  10.387   6.685  10.072  0.2143  0.2071  0.2062
36123SOL    HW112825  10.321   6.624  10.039  1.6652 -2.3920  1.6899
36123SOL    HW212826  10.432   6.717   9.993 -0.9904 -0.1690 -0.6595
36124SOL     OW12827   8.256   2.134   8.343  0.2026  0.2772  0.2193
36124SOL    HW112828   8.275   2.059   8.401  1.5572 -0.3522 -0.9859
36124SOL    HW212829   8.274   2.211   8.397  0.6552 -0.2907  0.8964
36125SOL     OW12830   7.661   7.273   6.780 -0.3484 -0.0829  0.1704
36125SOL    HW112831   7.735   7.285   6.839 -0.7461  1.3300  0.4308
36125SOL    HW212832   7.604   7.210   6.824 -0.0092 -0.0311  0.6813
36126SOL     OW12833   0.674   9.063   4.561  0.0246 -0.0623 -0.3268
36126SOL    HW112834   0.629   9.139   4.598 -1.3794 -0.6450 -0.7501
36126SOL    HW212835   0.713   9.095   4.480 -0.3595  0.2693 -0.3855
36127SOL     OW12836   8.857   5.196   3.642 -0.6456  0.3526  0.0450
36127SOL    HW112837   8.765   5.218   3.631 -1.0155 -1.0845  0.0199
36127SOL    HW212838   8.865   5.173   3.735 -0.0372  1.5784  0.3172
36128SOL     OW12839   9.509   0.690   4.920 -0.0407 -0.6816  0.2389
36128SOL    HW112840   9.419   0.663   4.937 -0.1680 -0.6688 -0.3843
36128SOL    HW212841   9.525   0.665   4.829  0.1857  0.3845 -0.0298
36129SOL     OW12842   5.998   5.627   9.873 -0.1077 -0.0049  0.2791
36129SOL    HW112843   5.934   5.692   9.845  0.1077  1.6046  3.0988
36129SOL    HW212844   6.074   5.643   9.818 -1.0944  0.0642 -1.1034
36130SOL     OW12845   4.353   2.166  10.678 -0.5369 -0.0787 -0.1254
36130SOL    HW112846   4.368   2.194  10.769  1.0775 -0.0862 -0.3668
36130SOL    HW212847   4.359   2.071  10.681 -1.8215 -0.1734 -0.0310
36131SOL     OW12848   2.968   7.214   0.150 -0.1726  0.2658 -0.5465
36131SOL    HW112849   2.886   7.253   0.121 -0.5999 -0.2114 -0.0258
36131SOL    HW212850   2.970   7.231   0.244  0.1583 -0.0181 -0.5000
36132SOL     OW12851   3.425   7.033   7.697 -0.2387 -0.5882  0.4190
36132SOL    HW112852   3.447   7.119   7.662  1.2083 -1.4291 -0.8658
36132SOL    HW212853   3.432   7.043   7.792 -0.3939  0.7624  0.3086
36133SOL     OW12854   3.715   9.204   4.701  0.0333 -0.6699 -0.2076
36133SOL    HW112855   3.779   9.142   4.736  3.4369  2.1200 -0.8118
36133SOL    HW212856   3.683   9.252   4.777  1.9417  0.6293 -0.1557
36134SOL     OW12857   6.618   6.942   7.797 -0.3731  0.5170 -0.2782
36134SOL    HW112858   6.684   6.964   7.730 -0.5138  1.2222 -0.1959
36134SOL    HW212859   6.645   6.992   7.874 -0.9665  0.7639 -0.2232
36135SOL     OW12860   0.435   4.417   9.501  0.1130  0.3661 -0.0116
36135SOL    HW112861   0.470   4.373   9.578  2.2559  0.4810 -0.8497
36135SOL    HW212862   0.344   4.389   9.497  0.8195 -2.3593  0.6958
36136SOL     OW12863  10.276   3.590  11.016 -0.3375 -0.5564  0.0778
36136SOL    HW112864  10.196   3.629  10.980  0.6101 -0.2606 -1.8200
36136SOL    HW212865  10.247   3.510  11.059 -1.4445 -1.5371 -2.3608
36137SOL     OW12866   1.980   5.741   6.767  0.1909 -0.1107  0.3987
36137SOL    HW112867   1.981   5.647   6.786 -0.2049  0.3376  2.9551
36137SOL    HW212868   2.071   5.768   6.775  0.1102 -0.0386  1.1565
36138SOL     OW12869  10.259   8.866   0.570  0.6647  0.2710 -0.6277
36138SOL    HW112870  10.273   8.916   0.651 -0.6918  3.0689 -1.9428
36138SOL    HW212871  10.292   8.779   0.589 -0.3372  0.5285  3.2291
36139SOL     OW12872   0.680   3.753   4.291 -0.3102  0.7364  0.2797
36139SOL    HW112873   0.591   3.721   4.306 -0.2234  0.2321 -0.2516
36139SOL    HW212874   0.728   3.724   4.368 -0.1738 -0.6732 -0.3127
36140SOL     OW12875   6.465   0.986   5.251 -0.7192 -0.5136  0.3117
36140SOL    HW112876   6.469   0.891   5.241  0.1512 -0.4718  0.1680
36140SOL    HW212877   6.521   1.004   5.327 -1.9667 -0.2303  1.1970
36141SOL     OW12878   8.168  10.907   8.097 -0.1791  0.3203 -0.1660
36141SOL    HW112879   8.137  10.873   8.180 -2.5641 -0.8159 -1.4241
36141SOL    HW212880   8.176  11.001   8.111  3.1959 -0.1537  2.3723
36142SOL     OW12881   9.280   2.705   5.635 -0.6129  0.3044 -0.0190
36142SOL    HW112882   9.327   2.777   5.594 -1.8174  1.2539  0.2105
36142SOL    HW212883   9.316   2.699   5.723 -0.2899  0.4126 -0.1418
36143SOL     OW12884   7.383   4.835   1.877  0.1766  0.3582  0.1564
36143SOL    HW112885   7.386   4.865   1.786  0.7129  0.4088  0.1892
36143SOL    HW212886   7.475   4.828   1.904  0.2207 -3.2081 -0.4615
36144SOL     OW12887   7.046   9.101   6.599  0.3477  0.0959 -0.5047
36144SOL    HW112888   7.047   9.180   6.546  0.2672  0.3681 -0.1038
36144SOL    HW212889   7.087   9.126   6.681  1.3917 -0.5853 -0.7955
36145SOL     OW12890   8.769   6.330   7.762 -0.2449  0.3581  0.0566
36145SOL    HW112891   8.698   6.284   7.806  0.3719 -0.3278  0.3570
36145SOL    HW212892   8.827   6.260   7.731 -0.0849  0.8779 -0.8463
36146SOL     OW12893   1.110  10.994   3.739 -0.0624  0.2827  0.1297
36146SOL    HW112894   1.089  10.958   3.826  0.4807 -1.1927 -0.3246
36146SOL    HW212895   1.205  11.005   3.740  0.6105 -3.7167 -1.6296
36147SOL     OW12896   6.336  10.187   2.210  0.0084 -0.2322  0.3838
36147SOL    HW112897   6.249  10.226   2.215 -0.2406 -0.9027  1.8016
36147SOL    HW212898   6.391  10.243   2.265  0.0700 -0.7816  0.8955
36148SOL     OW12899   7.171  10.854   8.419  0.1077 -0.0916  0.2591
36148SOL    HW112900   7.227  10.872   8.343  0.1283  1.9638  0.6973
36148SOL    HW212901   7.172  10.936   8.469 -1.1098 -0.9108  1.7021
36149SOL     OW12902   3.721   0.926   5.406 -0.0859  0.2899 -0.2150
36149SOL    HW112903   3.735   1.015   5.374  0.8695 -0.4067 -1.8242
36149SOL    HW212904   3.803   0.881   5.389 -1.2894 -1.5119 -1.5449
36150SOL     OW12905  10.830   2.097   1.377  0.1020  0.6987  0.2023
36150SOL    HW112906  10.736   2.094   1.360  0.2383 -0.8683 -0.4412
36150SOL    HW212907  10.848   2.189   1.400 -1.6637  0.9010  0.9239
36151SOL     OW12908   8.053   3.248   7.371 -0.1065  0.6698  0.0006
36151SOL    HW112909   8.127   3.278   7.317  1.5758  0.5892  2.1214
36151SOL    HW212910   8.043   3.156   7.349  1.5773  0.2418  0.8512
36152SOL     OW12911   0.781  10.106   6.330 -0.0959 -0.1118  0.0730
36152SOL    HW112912   0.733  10.119   6.411  0.5213  0.8050  0.3071
36152SOL    HW212913   0.848  10.042   6.352  1.7760  2.0503  1.0688
36153SOL     OW12914   5.003   8.397  10.819  0.2889 -0.0169  0.5949
36153SOL    HW112915   4.949   8.318  10.810 -1.1816  0.8570  1.4740
36153SOL    HW212916   4.955   8.465  10.773  2.2913  0.0988 -1.5017
36154SOL     OW12917   2.095   9.758   0.516 -0.1239  0.5843 -0.8608
36154SOL    HW112918   2.104   9.663   0.525  0.3156  0.5775 -1.3740
36154SOL    HW212919   2.011   9.777   0.558  0.8920  0.3027  1.4827
36155SOL     OW12920   8.361  10.493  10.283 -0.2235 -0.5381 -0.3333
36155SOL    HW112921   8.328  10.411  10.246 -0.0800 -0.5631 -0.4035
36155SOL    HW212922   8.436  10.516  10.229 -0.1905 -0.4227 -0.2396
36156SOL     OW12923   9.731   4.344  10.607 -0.1163  1.1142 -0.7940
36156SOL    HW112924   9.768   4.315  10.690 -1.1792  1.3958 -0.2011
36156SOL    HW212925   9.638   4.324  10.614 -0.3171  1.6708 -1.6904
36157SOL     OW12926   3.632   9.495   9.526 -0.0630  0.1489  0.3448
36157SOL    HW112927   3.587   9.562   9.577  1.0975  2.4271 -1.4311
36157SOL    HW212928   3.621   9.522   9.435  1.2783 -1.5470 -0.3866
36158SOL     OW12929   3.888  10.761   0.611 -0.4128 -1.2815 -0.3907
36158SOL    HW112930   3.877  10.793   0.521 -0.0308  1.2227  0.3733
36158SOL    HW212931   3.981  10.777   0.630 -0.4798 -1.8436  0.4480
36159SOL     OW12932   1.453   0.767   5.644 -0.6221  0.0239 -0.4563
36159SOL    HW112933   1.530   0.819   5.667 -0.1653 -0.2305 -1.3582
36159SOL    HW212934   1.485   0.705   5.578 -1.1677 -1.3358  0.5051
36160SOL     OW12935   0.623  10.372   9.102  0.1234  0.3671 -0.3323
36160SOL    HW112936   0.570  10.311   9.153  1.2432 -1.2586 -1.0411
36160SOL    HW212937   0.681  10.413   9.166  0.4727 -0.5284 -0.0659
36161SOL     OW12938   6.227   4.279   1.867  0.6338 -0.0537  0.5616
36161SOL    HW112939   6.204   4.333   1.943  1.2106  0.9026  0.0718
36161SOL    HW212940   6.145   4.269   1.819  0.7976  1.7310 -0.1638
36162SOL     OW12941   1.034   2.532   8.369 -0.4701 -0.2894 -0.8930
36162SOL    HW112942   0.992   2.555   8.452 -1.4519 -1.7670 -0.9295
36162SOL    HW212943   1.108   2.477   8.395  0.2030  0.5873 -0.9313
36163SOL     OW12944   5.752  10.354   4.492 -0.4564  0.6967 -0.0619
36163SOL    HW112945   5.757  10.444   4.459  0.4316  0.6490 -0.0877
36163SOL    HW212946   5.667  10.322   4.462 -0.8185  1.5495  0.0096
36164SOL     OW12947   9.205   4.624   7.475  0.0449  0.2535  0.1547
36164SOL    HW112948   9.213   4.698   7.536  0.5879  1.1160 -0.9152
36164SOL    HW212949   9.270   4.560   7.505  0.8009  0.9689  0.0985
36165SOL     OW12950   3.251   8.930   2.921  0.9796 -0.1007 -0.2644
36165SOL    HW112951   3.240   9.002   2.860  0.0037 -0.3088 -0.3546
36165SOL    HW212952   3.284   8.971   3.001  4.4423 -0.0933 -1.5353
36166SOL     OW12953   9.264   0.142   6.809 -0.5788 -0.2517 -0.4213
36166SOL    HW112954   9.213   0.221   6.829  0.4632  0.4967 -0.6321
36166SOL    HW212955   9.198   0.073   6.801 -1.3568 -0.8437  5.7720
36167SOL     OW12956   8.472   8.683   5.615  0.7093  0.1126  0.0976
36167SOL    HW112957   8.504   8.611   5.670  0.6121  0.6483  0.8767
36167SOL    HW212958   8.389   8.650   5.580  1.4194 -0.7559 -0.8397
36168SOL     OW12959   9.292   5.914   1.652  0.1737 -0.4342  0.5757
36168SOL    HW112960   9.250   5.868   1.725 -0.8325 -1.2704 -0.4943
36168SOL    HW212961   9.246   5.998   1.648  0.2005 -0.4035  0.8632
36169SOL     OW12962   5.959   9.047   2.485 -0.7283 -0.2754 -0.3717
36169SOL    HW112963   6.036   9.101   2.469 -1.9395  1.5954 -0.1781
36169SOL    HW212964   5.933   9.069   2.574 -1.3796 -1.0272 -0.3698
36170SOL     OW12965   1.960   2.154   5.731  0.3843 -0.0991  0.0549
36170SOL    HW112966   2.043   2.127   5.769 -0.5393 -2.2495  0.7009
36170SOL    HW212967   1.942   2.240   5.770  1.3669 -0.4818  1.4166
36171SOL     OW12968   7.264   5.278   3.878  0.2580 -0.0398 -0.2776
36171SOL    HW112969   7.298   5.317   3.797 -2.1278  0.4166 -1.1685
36171SOL    HW212970   7.198   5.342   3.908 -1.6853 -1.9713 -0.1735
36172SOL     OW12971   4.901   6.531   7.978 -0.3437  0.8002 -0.0502
36172SOL    HW112972   4.930   6.579   7.900 -0.0122 -0.2174 -0.5742
36172SOL    HW212973   4.936   6.442   7.966  1.1269  1.0288  2.0492
36173SOL     OW12974   6.631   3.894   9.914 -0.5209  0.5712 -0.1355
36173SOL    HW112975   6.566   3.825   9.926 -0.2573 -0.1331 -2.3334
36173SOL    HW212976   6.684   3.891   9.994 -1.8915 -0.2219  0.7853
36174SOL     OW12977  10.450  10.155   5.350 -0.2772 -0.0773 -0.0284
36174SOL    HW112978  10.370  10.185   5.308 -1.2057 -3.6117 -1.1177
36174SOL    HW212979  10.518  10.168   5.284 -1.0047 -1.8964 -1.2177
36175SOL     OW12980   2.158   0.888   9.413 -0.0446 -0.4640  0.2986
36175SOL    HW112981   2.222   0.889   9.484  0.4830  0.4677 -0.1762
36175SOL    HW212982   2.203   0.928   9.339 -0.1348 -2.5707 -0.9882
36176SOL     OW12983   9.098   0.556   6.297  0.2569 -0.0958  0.0601
36176SOL    HW112984   9.024   0.615   6.280 -0.6339 -1.3957 -0.7497
36176SOL    HW212985   9.099   0.545   6.392 -1.8368 -1.5454 -0.0217
36177SOL     OW12986   9.901   4.983   4.484  0.5566 -0.6156 -0.3357
36177SOL    HW112987   9.843   5.027   4.422  0.4490  0.4647  0.5110
36177SOL    HW212988   9.957   4.928   4.429 -0.5899 -0.9309 -1.2503
36178SOL     OW12989   6.076   6.218   2.865  0.0472 -0.1137  0.0610
36178SOL    HW112990   6.164   6.195   2.832  0.2062  0.9268 -0.2524
36178SOL    HW212991   6.084   6.209   2.960  0.2475 -0.8469 -0.0145
36179SOL     OW12992   1.766   8.126   3.966 -0.1659 -0.2448 -0.0519
36179SOL    HW112993   1.770   8.031   3.979 -2.3244 -0.4144 -0.2260
36179SOL    HW212994   1.756   8.162   4.054 -1.8158 -0.4033 -0.1443
36180SOL     OW12995   8.865   4.894   3.555 -0.0401 -0.2205 -0.1819
36180SOL    HW112996   8.877   4.803   3.530  1.0465  0.3047 -1.7184
36180SOL    HW212997   8.772   4.912   3.538 -0.1591 -0.9246 -0.2794
36181SOL     OW12998  10.288  10.871   2.115 -1.0535  0.1511  0.0291
36181SOL    HW112999  10.335  10.788   2.119 -1.9157 -0.3789 -0.4973
36181SOL    HW213000  10.284  10.901   2.206  0.6940  0.4506  0.0283
36182SOL     OW13001   3.459   1.076   2.252  0.1866  0.1229  0.1028
36182SOL    HW113002   3.536   1.125   2.280  0.0580  0.1485  0.4188
36182SOL    HW213003   3.385   1.120   2.295  0.1603 -0.9532  1.2518
36183SOL     OW13004   6.253   1.579   1.182  0.5253 -0.1941  0.3568
36183SOL    HW113005   6.159   1.560   1.174  0.6660 -2.0489  2.1879
36183SOL    HW213006   6.291   1.545   1.101 -0.3007  0.0722 -0.1576
36184SOL     OW13007   4.506   2.624   2.827  0.2551 -0.4886 -0.3952
36184SOL    HW113008   4.423   2.605   2.870 -0.5334  0.8858 -1.2433
36184SOL    HW213009   4.525   2.545   2.776  0.6062 -1.6632  1.4607
36185SOL     OW13010   3.507   9.273   9.298  0.6020 -0.3394 -0.1090
36185SOL    HW113011   3.524   9.367   9.292  0.4063 -0.2527  0.5714
36185SOL    HW213012   3.554   9.236   9.224 -1.0593  0.5127 -1.6532
36186SOL     OW13013   7.635   8.294   2.099 -0.1587  0.3354 -0.5511
36186SOL    HW113014   7.628   8.281   2.004 -3.1005 -0.9232 -0.2351
36186SOL    HW213015   7.624   8.207   2.137  2.0122  0.6471  1.0002
36187SOL     OW13016   1.274   4.728   6.440  0.5487 -0.4035 -0.3538
36187SOL    HW113017   1.260   4.823   6.438 -0.2863 -0.5092  0.0520
36187SOL    HW213018   1.240   4.697   6.356  0.1807 -0.4236 -0.1983
36188SOL     OW13019   7.884   6.413   1.735  0.1247  0.2759  0.2006
36188SOL    HW113020   7.963   6.359   1.740 -0.1667 -0.3609 -1.4612
36188SOL    HW213021   7.914   6.496   1.699 -0.0892 -0.3022 -1.3600
36189SOL     OW13022   4.020   8.150   9.989 -0.7279  0.4296  0.1692
36189SOL    HW113023   3.950   8.086   9.975 -0.0587 -0.2954  0.0407
36189SOL    HW213024   4.089   8.123   9.928 -0.0733  0.7377  0.7678
36190SOL     OW13025   1.029   4.855   0.918  0.4588 -0.2235 -0.1004
36190SOL    HW113026   1.100   4.919   0.917  0.4592 -0.2268 -0.3470
36190SOL    HW213027   1.073   4.770   0.910  0.5098 -0.3063  0.9498
36191SOL     OW13028  10.826   4.823   3.249 -0.1836  0.0848  0.1863
36191SOL    HW113029  10.739   4.828   3.290  0.2153 -1.0059  1.2235
36191SOL    HW213030  10.847   4.914   3.227 -1.1538  0.4949  0.8504
36192SOL     OW13031  10.297  10.687   3.070 -0.2571  0.0464  0.1093
36192SOL    HW113032  10.323  10.610   3.120 -1.6988 -0.3331  0.3364
36192SOL    HW213033  10.366  10.751   3.085  0.6539 -0.9833  0.4242
36193SOL     OW13034  10.633   5.831   1.590 -0.1016  0.1645 -0.1554
36193SOL    HW113035  10.649   5.914   1.636 -1.5467  0.9788 -1.0354
36193SOL    HW213036  10.659   5.763   1.653  0.4164  1.2713  0.8627
36194SOL     OW13037   5.559   6.035   2.643 -0.4934  0.5805  0.1983
36194SOL    HW113038   5.518   6.083   2.714 -1.0387  1.3486 -0.6131
36194SOL    HW213039   5.568   6.099   2.572 -3.9223 -1.0930 -2.0079
36195SOL     OW13040   6.642   7.415   2.864 -0.8043  0.0398 -0.2051
36195SOL    HW113041   6.642   7.505   2.895 -0.7889  0.2934 -0.9052
36195SOL    HW213042   6.658   7.362   2.942 -0.0181  0.6913  0.0859
36196SOL     OW13043   3.851  10.943   0.120  0.1922  0.3119  0.2029
36196SOL    HW113044   3.937  10.925   0.083 -0.1910  0.2226 -0.6549
36196SOL    HW213045   3.789  10.906   0.058 -0.4605 -0.4675  1.2689
36197SOL     OW13046   3.774   6.010   7.696 -0.7877 -0.6777  0.4392
36197SOL    HW113047   3.858   5.963   7.703 -0.8012 -0.7429  0.1816
36197SOL    HW213048   3.744   5.991   7.607 -1.5184 -1.3943  0.8307
36198SOL     OW13049  10.165   0.903   4.449  0.1198  0.0541 -0.6241
36198SOL    HW113050  10.151   0.974   4.387 -0.7373 -0.6335 -1.2484
36198SOL    HW213051  10.245   0.861   4.420  0.5705  0.6810 -0.3165
36199SOL     OW13052   0.957   0.264   0.787 -0.3035  0.0538  0.5437
36199SOL    HW113053   1.007   0.234   0.711  2.4645 -1.0486  2.5935
36199SOL    HW213054   0.977   0.357   0.795 -0.3451  0.0994  0.1176
36200SOL     OW13055  10.818  10.207   7.962 -0.3135 -0.2825  0.3298
36200SOL    HW113056  10.801  10.229   7.871 -0.1338 -1.7178 -0.0571
36200SOL    HW213057  10.755  10.261   8.011 -0.4810  0.4156 -0.6231
36201SOL     OW13058   6.793   7.060   6.486  0.5293  1.0005 -0.5910
36201SOL    HW113059   6.801   6.965   6.476  1.3274  1.1543 -1.6395
36201SOL    HW213060   6.702   7.075   6.511  0.4933 -0.0603 -0.0287
36202SOL     OW13061  10.750  10.333   0.829 -0.1628  0.5321 -0.3612
36202SOL    HW113062  10.789  10.288   0.754 -1.1362  1.1309 -1.2421
36202SOL    HW213063  10.677  10.383   0.792 -0.4016  1.1635  0.9238
36203SOL     OW13064   2.463   0.951   0.924  0.2980  0.1800  0.5155
36203SOL    HW113065   2.508   0.975   1.004  2.9079 -0.6886 -0.5807
36203SOL    HW213066   2.448   0.857   0.932 -1.6023  0.4840  0.9434
36204SOL     OW13067   4.369   4.103   0.596  0.4169 -0.4124  0.3273
36204SOL    HW113068   4.354   4.012   0.569 -1.8364 -0.8382  2.5893
36204SOL    HW213069   4.465   4.111   0.599  0.7097 -3.0103  0.8098
36205SOL     OW13070   9.824   8.564   7.047 -0.3566 -0.0304  0.0942
36205SOL    HW113071   9.779   8.520   7.120  1.0559 -0.2250  0.8957
36205SOL    HW213072   9.915   8.571   7.077  0.7493 -1.9795 -2.4959
36206SOL     OW13073   4.890   2.228   6.538  0.2452 -0.2794 -0.9071
36206SOL    HW113074   4.961   2.250   6.479  0.9901  1.9206  0.6868
36206SOL    HW213075   4.929   2.167   6.601  0.7643  0.9338 -0.0281
36207SOL     OW13076   1.329   9.470   3.903 -0.2555  0.1723 -0.0630
36207SOL    HW113077   1.423   9.489   3.898 -0.3723  0.4475 -1.6337
36207SOL    HW213078   1.306   9.488   3.994  0.6701  2.8059 -0.2535
36208SOL     OW13079   7.944   3.719   0.287 -0.2719 -0.2165 -0.8507
36208SOL    HW113080   7.963   3.625   0.287  1.2367  0.0559 -0.5073
36208SOL    HW213081   7.891   3.733   0.366  2.3419 -0.3195  1.0763
36209SOL     OW13082   1.215   6.830   3.533 -0.5390  0.0707 -0.1360
36209SOL    HW113083   1.171   6.834   3.448  1.8098  1.0407 -1.3901
36209SOL    HW213084   1.245   6.739   3.540 -2.3192 -0.5129  0.5823
36210SOL     OW13085   7.136   9.515  10.237 -0.1510  0.0823 -0.2052
36210SOL    HW113086   7.208   9.506  10.174 -0.0251 -0.6089  0.0299
36210SOL    HW213087   7.060   9.479  10.191  0.2063 -1.6761  0.4783
36211SOL     OW13088   3.390   7.191   1.007 -0.2611  0.6140 -0.0225
36211SOL    HW113089   3.405   7.192   1.101  0.5236 -1.0226 -0.0840
36211SOL    HW213090   3.295   7.188   0.997 -0.3307 -0.4867  0.7798
36212SOL     OW13091   3.505   3.192   7.182 -0.0770 -0.1427 -0.2118
36212SOL    HW113092   3.411   3.178   7.169 -0.7276  1.9876  1.6083
36212SOL    HW213093   3.537   3.110   7.218 -1.5064 -0.4977  0.3082
36213SOL     OW13094   6.668   0.358   3.149 -0.5387  0.1115 -0.9800
36213SOL    HW113095   6.726   0.358   3.225 -0.1984 -0.6913 -1.2286
36213SOL    HW213096   6.638   0.449   3.142  0.0692  0.3689 -0.3779
36214SOL     OW13097   5.541   4.336   5.789  0.1849  1.0219  0.2871
36214SOL    HW113098   5.462   4.370   5.746 -1.9671 -3.3065  0.2417
36214SOL    HW213099   5.521   4.340   5.882 -0.6380 -0.9230  0.2466
36215SOL     OW13100  10.769   1.640  10.763 -0.0454  0.0302 -0.2065
36215SOL    HW113101  10.857   1.605  10.748  0.6098  1.3988  0.3063
36215SOL    HW213102  10.714   1.590  10.704  1.2141 -0.2606 -1.1900
36216SOL     OW13103   6.589   5.485   3.837  0.0500 -0.0942  0.3380
36216SOL    HW113104   6.584   5.454   3.927 -0.4295 -0.3116  0.2422
36216SOL    HW213105   6.514   5.445   3.794  0.4498 -0.2427 -0.2345
36217SOL     OW13106   0.241   4.128   3.062  0.1834  0.0090 -0.5537
36217SOL    HW113107   0.153   4.145   3.094 -0.3858 -0.0684 -2.0062
36217SOL    HW213108   0.262   4.041   3.096 -0.9291 -0.6389 -1.4602
36218SOL     OW13109  10.740   9.965  10.453 -0.4076 -0.2213 -0.2363
36218SOL    HW113110  10.662  10.018  10.438 -0.1709  0.2638  0.2136
36218SOL    HW213111  10.718   9.910  10.528 -0.4193 -0.2843 -0.2869
36219SOL     OW13112   4.138   8.438   2.036 -0.4714 -0.1889 -0.1585
36219SOL    HW113113   4.172   8.375   2.099 -0.7386  1.6602  1.9290
36219SOL    HW213114   4.108   8.512   2.089 -2.1300  0.8241 -2.3469
36220SOL     OW13115   8.130   3.034  10.684  0.1846  0.2140 -0.1836
36220SOL    HW113116   8.223   3.031  10.662  0.3388 -0.1194  0.4748
36220SOL    HW213117   8.086   3.004  10.605  0.8428 -3.1884  0.5659
36221SOL     OW13118   2.910   3.791   8.483 -0.8156 -0.0475 -0.1061
36221SOL    HW113119   2.952   3.852   8.544 -0.1435 -1.0123  0.4191
36221SOL    HW213120   2.960   3.710   8.492 -0.8341 -0.2864 -1.7801
36222SOL     OW13121  10.888   4.647   3.929 -0.2238  0.0565  0.5921
36222SOL    HW113122  10.950   4.574   3.929  0.0664  0.3042  1.0486
36222SOL    HW213123  10.920   4.706   3.996 -0.9718  0.1743  0.8523
36223SOL     OW13124   6.871   4.063   1.476  0.0204  0.3811  0.1540
36223SOL    HW113125   6.828   4.107   1.403  0.7934 -0.0202 -0.5573
36223SOL    HW213126   6.952   4.112   1.489  1.2433 -1.1790 -1.1081
36224SOL     OW13127   2.081   7.200   1.962  0.3996  0.2746  0.2234
36224SOL    HW113128   2.082   7.296   1.952  0.2825  0.3502  0.9180
36224SOL    HW213129   1.997   7.181   2.004  0.3595 -0.1500 -0.0470
36225SOL     OW13130   0.710   1.390   7.931 -0.3377  0.6350 -0.0994
36225SOL    HW113131   0.710   1.340   7.850 -0.7145  1.2145 -0.4617
36225SOL    HW213132   0.729   1.325   7.999  0.8439  0.2960 -0.7325
36226SOL     OW13133  10.402   2.775   4.752 -0.1882  0.0295 -0.6485
36226SOL    HW113134  10.332   2.735   4.802 -0.7517  1.6328 -0.0961
36226SOL    HW213135  10.364   2.790   4.666 -0.5384  0.8832 -0.3542
36227SOL     OW13136   6.392   8.080  10.331  0.7364  0.5732  0.0529
36227SOL    HW113137   6.437   8.161  10.307  0.4542  0.8367  0.4012
36227SOL    HW213138   6.430   8.013  10.275 -0.2923  1.2623 -1.5260
36228SOL     OW13139   6.325   9.656  10.029  0.0332 -0.3257 -0.0085
36228SOL    HW113140   6.256   9.709   9.988  0.9638  0.4261 -0.6522
36228SOL    HW213141   6.285   9.570  10.041 -0.7922 -0.1016 -1.0146
36229SOL     OW13142   9.570   4.046   7.613  0.1205 -0.3076 -0.5371
36229SOL    HW113143   9.544   4.102   7.686  0.0435 -2.2346  1.0035
36229SOL    HW213144   9.494   4.044   7.555 -0.8243 -0.8073  0.6780
36230SOL     OW13145   9.007   1.285   0.300 -0.4311 -0.3254 -0.2007
36230SOL    HW113146   9.011   1.260   0.393  1.8759 -0.2085 -0.2143
36230SOL    HW213147   9.041   1.209   0.253 -0.4696  0.0493 -0.8461
36231SOL     OW13148   2.830   8.677   7.041 -0.5777  0.0000 -0.1676
36231SOL    HW113149   2.910   8.709   7.080 -0.7971  0.4924 -0.1174
36231SOL    HW213150   2.827   8.719   6.955 -1.2118  0.6677  0.1698
36232SOL     OW13151   3.229   8.579   4.192  0.4976  0.1711 -0.2519
36232SOL    HW113152   3.273   8.658   4.159  1.6489 -0.3852 -0.0851
36232SOL    HW213153   3.297   8.532   4.240 -0.4789 -0.3532  0.6570
36233SOL     OW13154   7.599   5.991   2.186  0.0260  0.0770 -0.2111
36233SOL    HW113155   7.624   6.042   2.108 -0.0023 -0.8605 -0.8471
36233SOL    HW213156   7.620   5.900   2.163 -0.9024 -0.3310  0.5073
36234SOL     OW13157   7.242  10.010   3.313 -0.0902  0.1833  0.0752
36234SOL    HW113158   7.317  10.069   3.310  0.0020  0.0653 -2.0507
36234SOL    HW213159   7.175  10.055   3.262 -1.1431 -0.1258  1.1721
36235SOL     OW13160   7.018   4.556   4.911  0.3055 -0.3083 -0.4081
36235SOL    HW113161   7.107   4.591   4.917  0.4135 -0.4987 -0.8323
36235SOL    HW213162   6.967   4.608   4.973  0.4289  0.7231 -1.1455
36236SOL     OW13163   0.772   1.476  10.946 -0.2429 -0.0188 -0.1622
36236SOL    HW113164   0.729   1.545  10.996  0.5934 -0.8855  1.8588
36236SOL    HW213165   0.862   1.507  10.934 -0.7199  0.7596 -2.3844
36237SOL     OW13166   6.408   3.717   0.119 -0.6999 -0.1452  0.0100
36237SOL    HW113167   6.472   3.756   0.178 -1.2715  0.9445 -0.0517
36237SOL    HW213168   6.457   3.654   0.068  0.3115  0.6171  0.0135
36238SOL     OW13169   4.942   0.394   5.403  0.4671 -0.0258  0.1071
36238SOL    HW113170   5.007   0.458   5.433  0.3590 -1.0590  2.8695
36238SOL    HW213171   4.952   0.320   5.463 -0.3083 -2.0773 -2.1533
36239SOL     OW13172   8.744   2.770   2.244  0.8732  0.1516 -0.3705
36239SOL    HW113173   8.757   2.767   2.339  0.4977 -0.3240 -0.3321
36239SOL    HW213174   8.813   2.714   2.209  0.5200 -0.3059 -0.3300
36240SOL     OW13175   3.976   0.821   1.441 -0.6004  0.0375  0.0067
36240SOL    HW113176   3.889   0.797   1.409 -0.7864  2.0399 -1.1541
36240SOL    HW213177   4.035   0.763   1.393 -1.1958 -0.1601 -0.5126
36241SOL     OW13178   0.731   7.058   6.650  0.4341  0.2267  0.1719
36241SOL    HW113179   0.795   6.988   6.637 -0.1793 -0.6452  1.5990
36241SOL    HW213180   0.776   7.121   6.707  0.3359  0.0392  0.4609
36242SOL     OW13181   6.675   4.349   8.728  0.1139 -0.1163  0.0347
36242SOL    HW113182   6.590   4.306   8.739  0.8600 -1.5863  0.2284
36242SOL    HW213183   6.679   4.369   8.634 -0.2404 -0.4757 -0.0623
36243SOL     OW13184   9.367   2.322   0.769 -0.5284 -0.3520  0.1491
36243SOL    HW113185   9.419   2.316   0.689  0.0941  1.3828  0.3904
36243SOL    HW213186   9.280   2.292   0.743 -0.4977  0.7560 -1.3590
36244SOL     OW13187   0.528   3.529   4.670 -0.2387  0.6942 -0.2790
36244SOL    HW113188   0.552   3.445   4.632 -1.1417  0.5409 -0.5246
36244SOL    HW213189   0.505   3.584   4.596  0.2917  1.1498 -0.1157
36245SOL     OW13190   5.976   7.274   6.925  0.5966 -0.0712 -0.3802
36245SOL    HW113191   5.901   7.277   6.865 -0.6865 -1.0551  1.1150
36245SOL    HW213192   6.023   7.356   6.907 -2.4280  2.0536  0.5938
36246SOL     OW13193   2.913   8.724   5.833 -0.2733 -0.0974 -0.2957
36246SOL    HW113194   2.830   8.764   5.858  0.6164  0.8477  1.3596
36246SOL    HW213195   2.899   8.630   5.846 -1.3974 -0.0649 -1.1046
36247SOL     OW13196   8.342   6.186   8.441 -0.4658  0.3184 -0.0426
36247SOL    HW113197   8.290   6.110   8.416 -1.7454  1.0050  0.3983
36247SOL    HW213198   8.282   6.260   8.431  0.5226  1.1879  0.2291
36248SOL     OW13199   6.591   9.602   5.902 -0.3223  0.5243  0.0105
36248SOL    HW113200   6.578   9.551   5.822  0.3033  0.5360 -0.1061
36248SOL    HW213201   6.683   9.630   5.897 -0.5344  1.2800  0.2911
36249SOL     OW13202   7.092   5.208   6.677 -0.0653  0.0944  0.4615
36249SOL    HW113203   7.106   5.251   6.761  1.2646 -0.5267  0.5776
36249SOL    HW213204   7.031   5.265   6.631 -0.3050  0.7766  1.5913
36250SOL     OW13205   3.271  10.307   3.769 -0.3234 -0.1301 -0.4081
36250SOL    HW113206   3.181  10.340   3.765 -0.2800  0.2119  0.8413
36250SOL    HW213207   3.289  10.275   3.681 -2.1555 -1.4859 -0.3511
36251SOL     OW13208   1.960   4.973   6.856 -0.5457 -0.0174 -0.4146
36251SOL    HW113209   2.013   4.893   6.860 -0.0122  0.3362 -0.3189
36251SOL    HW213210   1.966   5.000   6.764  0.1900  0.5151 -0.2194
36252SOL     OW13211   3.101   8.698   1.073  0.3399 -0.1498  0.1021
36252SOL    HW113212   3.123   8.720   1.163 -1.5101 -1.3120  0.8821
36252SOL    HW213213   3.047   8.771   1.043  0.1419 -0.2312  0.2613
36253SOL     OW13214   6.804  10.582   7.626 -0.2977 -0.1167 -0.6005
36253SOL    HW113215   6.789  10.561   7.718 -0.0182 -1.0391 -0.7574
36253SOL    HW213216   6.886  10.538   7.604  0.7606  1.7887 -0.7557
36254SOL     OW13217   4.045   5.936   5.424 -0.0955  0.2429  0.0590
36254SOL    HW113218   4.036   5.948   5.329 -0.8120  0.7075  0.1817
36254SOL    HW213219   4.136   5.958   5.442  0.1337 -0.1584 -0.5666
36255SOL     OW13220  10.933   7.553   0.784  0.1295 -0.1137 -0.4545
36255SOL    HW113221  11.026   7.532   0.790  0.1608 -0.3616 -1.5815
36255SOL    HW213222  10.890   7.469   0.768 -0.1854  0.1202 -0.8542
36256SOL     OW13223   8.698   1.035   9.859 -0.0297  0.0270  0.0995
36256SOL    HW113224   8.771   1.077   9.814  2.1095 -0.3917  2.8732
36256SOL    HW213225   8.685   0.952   9.813  1.8185 -0.2470  0.0157
36257SOL     OW13226   7.018   0.447   6.866  0.2252  0.1998  0.4167
36257SOL    HW113227   6.996   0.397   6.787 -0.4584 -1.7546  1.7750
36257SOL    HW213228   6.989   0.392   6.938 -0.3839  2.5109  2.0483
36258SOL     OW13229   3.748   0.210   2.485 -0.1092  0.1522 -0.0320
36258SOL    HW113230   3.695   0.280   2.525 -1.1988 -0.9943  0.6049
36258SOL    HW213231   3.798   0.173   2.557  0.5172  0.3181 -0.3807
36259SOL     OW13232   9.971   4.849   1.249 -0.5815 -0.4087 -0.0114
36259SOL    HW113233  10.049   4.877   1.298 -0.6519  1.7424 -1.0112
36259SOL    HW213234  10.002   4.839   1.159 -1.6046  1.4555 -0.6178
36260SOL     OW13235   6.739   1.219  11.065  0.1468 -0.1365 -0.2896
36260SOL    HW113236   6.775   1.269  11.138 -1.2516  2.5374 -1.3068
36260SOL    HW213237   6.676   1.159  11.106  0.4545  0.2578  0.7997
36261SOL     OW13238   6.016   1.841   3.874  0.4337 -0.1483  0.5628
36261SOL    HW113239   5.950   1.904   3.845  0.7413  0.8872  1.9811
36261SOL    HW213240   6.089   1.895   3.902  1.0831 -1.1946  0.9419
36262SOL     OW13241   8.137   9.953  10.440  0.2224 -0.8005  0.2169
36262SOL    HW113242   8.081   9.905  10.379  0.4094 -0.6455 -0.0783
36262SOL    HW213243   8.215   9.974  10.390 -0.2286  0.6030  0.0505
36263SOL     OW13244   7.555   1.488   6.476 -0.4470  0.1080  0.0749
36263SOL    HW113245   7.591   1.402   6.456  0.4056  0.6139 -0.6265
36263SOL    HW213246   7.499   1.473   6.553 -2.1516 -1.4961 -1.3889
36264SOL     OW13247  10.632   0.351   1.166 -0.2412 -0.3473 -0.1373
36264SOL    HW113248  10.540   0.367   1.147  0.0993  1.2900 -0.5814
36264SOL    HW213249  10.680   0.399   1.098  0.9428 -0.8556  0.3047
36265SOL     OW13250   5.471   5.538  10.715  0.3613  0.6140  0.0240
36265SOL    HW113251   5.452   5.605  10.780  2.0864 -0.0209  1.2493
36265SOL    HW213252   5.390   5.530  10.664 -0.9990  1.2489  1.9748
36266SOL     OW13253   7.902   9.240   0.426  0.0296  0.3870 -0.1140
36266SOL    HW113254   7.983   9.279   0.392 -0.1285  1.2999  0.4996
36266SOL    HW213255   7.929   9.155   0.461  0.1703 -0.6709 -2.6071
36267SOL     OW13256   3.564  10.208   2.841  0.2690  0.2407 -0.9272
36267SOL    HW113257   3.593  10.215   2.750  1.4442  2.3648 -0.4645
36267SOL    HW213258   3.631  10.153   2.883  0.7689  0.7912 -0.9834
36268SOL     OW13259   3.185   0.475   5.787 -0.5937  0.2212 -0.0075
36268SOL    HW113260   3.207   0.474   5.694 -0.0812 -0.9735  0.1118
36268SOL    HW213261   3.118   0.408   5.797  0.6668 -0.9704  0.7727
36269SOL     OW13262   6.280   6.141   9.546 -0.0425 -0.6355  1.1063
36269SOL    HW113263   6.289   6.047   9.558 -0.7186 -0.7598  0.6911
36269SOL    HW213264   6.364   6.169   9.510  0.4009 -0.9666  1.8611
36270SOL     OW13265   9.978   3.866   0.010  0.0473 -0.5356  0.8766
36270SOL    HW113266   9.982   3.810   0.087 -0.0707 -2.1195 -0.2126
36270SOL    HW213267   9.888   3.897   0.006  0.3705  0.6182  2.0682
36271SOL     OW13268   7.345   9.402   8.381  0.2411 -0.8036  0.4607
36271SOL    HW113269   7.384   9.488   8.364 -0.5831 -0.8392 -2.0008
36271SOL    HW213270   7.251   9.418   8.380  0.0646 -1.8097 -0.6807
36272SOL     OW13271   8.695   7.204   7.047 -0.0762  0.0646  0.0838
36272SOL    HW113272   8.605   7.193   7.017  0.0092 -2.5975  0.5709
36272SOL    HW213273   8.719   7.119   7.082  2.5607  0.7894  0.2323
36273SOL     OW13274   8.832   9.489   8.155  0.1075  0.4283 -0.2081
36273SOL    HW113275   8.873   9.478   8.069  0.0664 -1.0466 -0.0628
36273SOL    HW213276   8.832   9.401   8.193 -1.8820  0.6258  0.3829
36274SOL     OW13277   4.911   1.829   4.304  0.0424 -0.1363 -0.5266
36274SOL    HW113278   4.921   1.836   4.399  2.1175 -2.0137 -0.5392
36274SOL    HW213279   4.824   1.865   4.287 -0.6432 -0.3145  2.1405
36275SOL     OW13280   8.339   1.793  10.603  0.3670 -0.3735 -0.7170
36275SOL    HW113281   8.318   1.796  10.510 -0.3194  1.1418 -0.5532
36275SOL    HW213282   8.350   1.700  10.623  3.1267 -0.6290 -2.8357
36276SOL     OW13283   9.416   6.022   3.268 -0.3048  0.2615 -0.6534
36276SOL    HW113284   9.333   6.027   3.220 -0.5441  1.0914 -0.1780
36276SOL    HW213285   9.410   5.939   3.316  0.1008 -0.7659 -2.3013
36277SOL     OW13286   9.905   0.594   9.266  0.3323 -0.6146 -0.4031
36277SOL    HW113287   9.969   0.542   9.217 -0.5032 -0.7329 -1.4025
36277SOL    HW213288   9.958   0.658   9.314  1.5177 -3.0721  1.8329
36278SOL     OW13289   2.929   8.648   4.593  0.3888  0.4099  0.0870
36278SOL    HW113290   2.842   8.673   4.561  0.6368  2.0758  0.6134
36278SOL    HW213291   2.914   8.621   4.683  0.3327  0.0464 -0.0288
36279SOL     OW13292   2.074   0.599  10.461  0.1328 -0.4604 -0.3146
36279SOL    HW113293   2.066   0.693  10.472  0.4130 -0.5485  0.8453
36279SOL    HW213294   1.990   0.572  10.424  0.1633  0.2719 -0.9333
36280SOL     OW13295   3.868   2.669   4.826 -0.3467  0.1408 -0.3904
36280SOL    HW113296   3.863   2.597   4.889 -1.2998  0.8322  0.3640
36280SOL    HW213297   3.934   2.728   4.863 -0.9022  0.5441 -0.0263
36281SOL     OW13298   9.925   1.270   0.885 -0.5772  0.4876 -0.4029
36281SOL    HW113299   9.930   1.213   0.808 -1.1746 -0.0189 -0.0703
36281SOL    HW213300   9.890   1.353   0.851  3.2665  1.8885 -1.5430
36282SOL     OW13301   6.711   4.906   3.081 -0.1970  0.3801  0.1524
36282SOL    HW113302   6.772   4.970   3.044 -0.9815  0.9873 -0.1270
36282SOL    HW213303   6.706   4.928   3.174  0.2265  0.1470  0.2306
36283SOL     OW13304   0.638   6.718   2.271  0.0779 -0.1723 -0.3456
36283SOL    HW113305   0.604   6.629   2.257  0.5412 -0.5731  0.9802
36283SOL    HW213306   0.606   6.767   2.195 -1.8235 -0.9954 -0.1488
36284SOL     OW13307   9.441   6.721   7.989  0.3381 -0.0587  0.0657
36284SOL    HW113308   9.403   6.688   7.907 -1.5407 -0.2075  0.9499
36284SOL    HW213309   9.426   6.651   8.052  0.6415  0.5565  0.8310
36285SOL     OW13310  10.388   1.242   6.166 -0.3996 -0.6952 -0.7027
36285SOL    HW113311  10.382   1.151   6.195 -0.8693 -0.4650 -0.0570
36285SOL    HW213312  10.301   1.278   6.181 -0.2606 -0.1776 -1.0938
36286SOL     OW13313   6.870   4.795   6.480 -0.6178 -0.4939  0.2736
36286SOL    HW113314   6.809   4.819   6.549 -1.5509  1.2320 -1.0932
36286SOL    HW213315   6.888   4.876   6.433  1.4755 -1.2565 -0.3825
36287SOL     OW13316   1.933   9.024  10.757 -0.4557 -0.1042 -0.9189
36287SOL    HW113317   2.005   9.082  10.783  1.0126 -1.9493 -0.7096
36287SOL    HW213318   1.921   9.042  10.664 -0.9860  1.4979 -0.5777
36288SOL     OW13319   6.285   5.352   5.634  0.1322 -0.0007  0.6715
36288SOL    HW113320   6.380   5.355   5.623  0.1312 -2.1542 -0.2732
36288SOL    HW213321   6.253   5.428   5.584  1.2820  0.1843  0.1891
36289SOL     OW13322   9.231   0.268   4.704  0.6518  0.2698 -0.3753
36289SOL    HW113323   9.190   0.237   4.785 -0.4171 -0.5620 -1.2164
36289SOL    HW213324   9.242   0.190   4.650  1.9900  0.7075 -0.7824
36290SOL     OW13325   8.481   7.075   3.041  0.2437  0.2857 -0.5197
36290SOL    HW113326   8.499   7.075   3.136 -0.2237 -0.1205 -0.4270
36290SOL    HW213327   8.566   7.054   3.002  0.0082 -1.7154 -0.0743
36291SOL     OW13328   6.282   6.846   1.158  0.4468  0.0245 -0.0273
36291SOL    HW113329   6.204   6.892   1.190 -0.0617 -0.3944 -0.6357
36291SOL    HW213330   6.337   6.914   1.121  0.4204  0.3377  0.4946
36292SOL     OW13331   2.762   9.868   1.064  0.7053 -0.4149 -0.5377
36292SOL    HW113332   2.830   9.931   1.040  2.5155 -2.0562  0.0710
36292SOL    HW213333   2.703   9.867   0.988  1.3758  0.9825 -1.1136
36293SOL     OW13334   1.634   0.654  10.848 -0.2332 -0.2221  0.3474
36293SOL    HW113335   1.603   0.705  10.773  1.8473  1.3429  0.4478
36293SOL    HW213336   1.632   0.716  10.922  1.0384 -0.6802  0.7931
36294SOL     OW13337   7.074  10.338   5.460  0.2532  0.3319  0.1471
36294SOL    HW113338   7.162  10.374   5.464 -0.7126  3.3024 -2.0310
36294SOL    HW213339   7.024  10.387   5.526  0.0988 -1.1657  1.2053
36295SOL     OW13340  10.804   2.411   4.400 -0.1405 -0.0371 -0.0161
36295SOL    HW113341  10.846   2.423   4.485  0.9648 -1.2194 -0.3692
36295SOL    HW213342  10.877   2.414   4.337 -0.2186 -3.8870 -0.5065
36296SOL     OW13343   1.077   1.854   0.661  0.7104 -0.6232 -0.3005
36296SOL    HW113344   1.152   1.804   0.692  0.1446 -1.0985  0.3374
36296SOL    HW213345   1.115   1.928   0.614  1.5732 -1.8137 -1.5636
36297SOL     OW13346   9.764   8.235   1.345 -0.6946  0.4801  0.0090
36297SOL    HW113347   9.785   8.168   1.279  1.0120  1.7811 -0.8617
36297SOL    HW213348   9.821   8.214   1.419  0.8342  1.6513 -0.7726
36298SOL     OW13349   4.087  10.756   0.329  0.3792 -0.2088 -0.1679
36298SOL    HW113350   4.127  10.738   0.414  0.7174 -0.4646 -0.3777
36298SOL    HW213351   4.130  10.836   0.299  1.2916 -0.8923 -0.7303
36299SOL     OW13352   9.518   6.883   2.444  0.2788  0.5350  0.3290
36299SOL    HW113353   9.501   6.965   2.397 -0.7740  0.6690  0.9103
36299SOL    HW213354   9.431   6.849   2.464  0.7116 -0.6407  0.2577
36300SOL     OW13355   0.117   9.032   8.059 -0.7442 -0.1893  0.3517
36300SOL    HW113356   0.176   9.072   7.995 -0.2557 -3.1356 -1.2325
36300SOL    HW213357   0.175   8.997   8.126 -1.0075  0.1082  0.7383
36301SOL     OW13358   8.405   2.061  10.460 -0.0807 -0.5055 -0.4431
36301SOL    HW113359   8.433   1.980  10.417 -0.3313 -0.0770 -1.4653
36301SOL    HW213360   8.330   2.091  10.408 -0.0957  0.2848  0.0165
36302SOL     OW13361   8.933   6.375   4.805  0.2307  0.3424  0.1695
36302SOL    HW113362   8.939   6.306   4.739  1.8087  0.1352  0.4671
36302SOL    HW213363   9.024   6.386   4.835 -0.3288  0.9879  1.7170
36303SOL     OW13364  10.547   0.662   3.660  0.2738 -0.5772 -0.1219
36303SOL    HW113365  10.492   0.610   3.718 -1.0645  2.2224  1.3150
36303SOL    HW213366  10.523   0.634   3.572 -1.4996 -1.2941  0.5579
36304SOL     OW13367   2.146   6.587   0.328  0.6049  0.0397  0.6284
36304SOL    HW113368   2.061   6.629   0.321  1.5941  1.9282 -0.7148
36304SOL    HW213369   2.144   6.545   0.415 -1.3760  0.6580  0.9460
36305SOL     OW13370   2.835   5.379  10.337  0.0628  0.3491  0.1951
36305SOL    HW113371   2.866   5.314  10.400 -1.0403  1.4593  1.9521
36305SOL    HW213372   2.781   5.439  10.388 -0.4169  1.6404 -1.7119
36306SOL     OW13373   8.049   9.163  10.331 -0.3572 -0.3696 -0.0159
36306SOL    HW113374   8.083   9.158  10.241 -0.3307 -0.0149 -0.0248
36306SOL    HW213375   8.098   9.096  10.379  1.5236  1.2045  0.3482
36307SOL     OW13376   4.150   0.094   6.648  0.0989  0.1521  0.1259
36307SOL    HW113377   4.056   0.084   6.638 -0.0479  0.0125  1.4871
36307SOL    HW213378   4.162   0.119   6.740  1.3245  0.9557 -0.2223
36308SOL     OW13379   4.033   0.963   0.571 -0.4842 -1.0088 -0.1247
36308SOL    HW113380   4.127   0.981   0.572 -0.9056  1.5424  0.0916
36308SOL    HW213381   4.013   0.938   0.661 -0.0836 -1.0868 -0.0541
36309SOL     OW13382  10.431  10.685   6.658 -0.4247 -0.7966 -0.2975
36309SOL    HW113383  10.371  10.625   6.615 -0.5925  0.6953 -2.2907
36309SOL    HW213384  10.498  10.704   6.592 -0.3298  1.1062  0.2941
36310SOL     OW13385   1.774   5.534  10.596  0.0169 -0.1996  0.0795
36310SOL    HW113386   1.786   5.483  10.516 -1.1983  0.3175 -0.4507
36310SOL    HW213387   1.856   5.583  10.606 -0.5186  1.2268 -1.9536
36311SOL     OW13388   2.435   9.720   9.680 -0.6547  0.2346 -0.2908
36311SOL    HW113389   2.346   9.689   9.667 -1.1436  1.3554  0.2462
36311SOL    HW213390   2.473   9.658   9.743 -2.1559  1.5943  2.0874
36312SOL     OW13391   8.859   7.788   8.854 -0.9802  0.4152 -0.8305
36312SOL    HW113392   8.919   7.790   8.779  0.3064 -0.1849  0.1656
36312SOL    HW213393   8.888   7.860   8.910  1.3100 -2.0861  1.4812
36313SOL     OW13394   5.590  10.966   8.961  0.1517 -0.3133  0.2185
36313SOL    HW113395   5.644  10.937   9.034 -0.0320 -2.2681 -0.3546
36313SOL    HW213396   5.517  10.904   8.959 -1.7221  1.7650  0.4796
36314SOL     OW13397  10.622   7.274   6.058  0.3570  0.4213  0.2977
36314SOL    HW113398  10.559   7.325   6.007 -1.5416 -0.0379  2.0747
36314SOL    HW213399  10.667   7.339   6.112  0.7914  0.6390 -0.3092
36315SOL     OW13400   6.625   8.067   8.306  0.3683 -0.1288  0.0036
36315SOL    HW113401   6.666   8.019   8.377  0.8443  0.0565 -0.1405
36315SOL    HW213402   6.595   8.000   8.245 -0.8832 -0.3487  0.7982
36316SOL     OW13403   9.980   2.712   1.051 -0.2798  0.2183 -0.6777
36316SOL    HW113404   9.931   2.664   1.116  0.7623  0.5419  0.3810
36316SOL    HW213405  10.006   2.646   0.986 -1.4468 -0.0755 -0.8645
36317SOL     OW13406  10.733   8.401   5.894  0.4528 -0.2934  0.1641
36317SOL    HW113407  10.791   8.414   5.970  1.6726  0.5440 -0.8640
36317SOL    HW213408  10.682   8.482   5.889  1.1708  0.1245 -0.5512
36318SOL     OW13409   7.316   8.413  10.252 -0.2901 -0.6901 -0.7061
36318SOL    HW113410   7.391   8.436  10.306 -1.1526  1.2989 -0.2486
36318SOL    HW213411   7.260   8.491  10.255 -1.0952 -1.0882 -3.2383
36319SOL     OW13412   8.700   2.928   2.649  0.1090  0.3351  0.4375
36319SOL    HW113413   8.647   2.987   2.595  0.7185 -0.2830 -0.8662
36319SOL    HW213414   8.773   2.903   2.593 -0.0482 -1.5416  1.0190
36320SOL     OW13415   4.668   9.717   8.200 -0.1643  0.4013  0.3694
36320SOL    HW113416   4.700   9.778   8.134 -0.2854  0.2874  0.2044
36320SOL    HW213417   4.667   9.767   8.282  2.0056 -0.0363  0.7200
36321SOL     OW13418   0.987   7.165   4.489  0.6512  0.1075 -0.0733
36321SOL    HW113419   1.026   7.252   4.499  0.0493  0.2048  1.8783
36321SOL    HW213420   0.929   7.155   4.565  0.4325 -1.8652 -0.4262
36322SOL     OW13421   6.593   8.568   1.819 -0.0491 -0.1472 -0.5173
36322SOL    HW113422   6.578   8.642   1.879  0.6031 -0.4964  0.0945
36322SOL    HW213423   6.529   8.581   1.749 -2.0942 -0.6968  1.1264
36323SOL     OW13424   4.769   5.520   2.312  0.3612  0.1165  0.8013
36323SOL    HW113425   4.743   5.431   2.287  0.4778  0.2492  0.1846
36323SOL    HW213426   4.693   5.574   2.292  0.5950  0.2857  0.3565
36324SOL     OW13427   9.365   1.992   5.042 -0.8933  0.6272 -0.1120
36324SOL    HW113428   9.418   1.939   5.102  0.7651  1.1578 -1.0169
36324SOL    HW213429   9.290   1.937   5.021  0.5907 -1.2821 -0.7545
36325SOL     OW13430   2.495   6.648   2.594  0.3570  0.1256  0.1670
36325SOL    HW113431   2.572   6.678   2.641 -0.5833  0.7489  1.3438
36325SOL    HW213432   2.433   6.622   2.662 -1.0383  1.0369 -0.7119
36326SOL     OW13433   5.393   4.166  10.592 -0.2924  0.0485 -0.2058
36326SOL    HW113434   5.417   4.076  10.569 -0.0475  0.2689 -0.8245
36326SOL    HW213435   5.449   4.188  10.666 -2.3779 -1.3189  1.9189
36327SOL     OW13436   5.564   1.884   6.800  0.1510  0.5053 -0.3949
36327SOL    HW113437   5.482   1.874   6.751 -0.1937 -1.5769  0.5217
36327SOL    HW213438   5.630   1.903   6.733 -0.3761 -1.8649 -1.6867
36328SOL     OW13439   4.755   3.699   8.640 -0.6198 -0.1590 -0.2507
36328SOL    HW113440   4.761   3.720   8.733 -1.2644  1.1073 -0.4680
36328SOL    HW213441   4.685   3.634   8.634 -0.9438  0.1481  0.1083
36329SOL     OW13442  10.070   3.333   3.289 -0.4008 -0.3950  0.4163
36329SOL    HW113443  10.148   3.277   3.293 -0.0608 -0.0806 -1.3068
36329SOL    HW213444  10.100   3.418   3.321 -0.3621 -0.6085  0.9541
36330SOL     OW13445  10.191   4.498   1.909  0.1223 -0.3040  0.0398
36330SOL    HW113446  10.125   4.441   1.870  1.1023  0.1467 -2.4543
36330SOL    HW213447  10.260   4.438   1.938  0.7205 -0.5365 -1.7129
36331SOL     OW13448  10.836   2.724   3.068 -0.0320  0.7962  0.2305
36331SOL    HW113449  10.751   2.740   3.109 -0.2428 -1.4398  0.8145
36331SOL    HW213450  10.832   2.633   3.040  1.5854  1.1326 -1.2456
36332SOL     OW13451   0.006   6.871  10.502 -0.0172  0.1628  0.0956
36332SOL    HW113452  -0.030   6.896  10.417 -0.4425 -1.5882 -0.2926
36332SOL    HW213453  -0.043   6.793  10.526  1.0977 -0.2111  1.2609
36333SOL     OW13454   5.832   3.760   9.609  0.0895 -0.6397  0.1804
36333SOL    HW113455   5.806   3.847   9.637  2.2993 -0.1039  0.7623
36333SOL    HW213456   5.835   3.708   9.689 -0.5110 -1.0527 -0.0615
36334SOL     OW13457  10.959   2.295   0.664 -0.1798 -0.7695  0.3885
36334SOL    HW113458  11.051   2.267   0.658  0.3096  0.9027 -0.9059
36334SOL    HW213459  10.911   2.229   0.615  0.6036 -0.6397 -0.5859
36335SOL     OW13460   1.333   4.039   5.685  0.0616  0.2833 -0.0105
36335SOL    HW113461   1.270   4.071   5.750 -1.7468 -0.9381 -1.0661
36335SOL    HW213462   1.304   4.078   5.603  2.0594  1.4578 -0.2077
36336SOL     OW13463   1.853   0.087   0.562  0.1622 -0.3272 -0.3315
36336SOL    HW113464   1.796   0.054   0.631  0.0009 -5.1177 -2.3522
36336SOL    HW213465   1.818   0.048   0.482  2.6830  1.6727 -2.5957
36337SOL     OW13466   4.423   7.464   5.976  0.4995  0.5368 -0.5080
36337SOL    HW113467   4.358   7.446   5.908  1.0504 -1.3842 -0.5840
36337SOL    HW213468   4.507   7.437   5.937  1.0675  1.0524  0.3114
36338SOL     OW13469   7.068   0.167   7.956 -0.2109 -0.0294  0.3289
36338SOL    HW113470   7.015   0.244   7.937  2.3573  1.7867 -0.0144
36338SOL    HW213471   7.052   0.108   7.883 -0.3434  1.2847 -0.7449
36339SOL     OW13472   9.457   4.011   1.877  0.1589 -0.0742 -0.2162
36339SOL    HW113473   9.400   4.046   1.945  0.8204 -0.1730  0.4018
36339SOL    HW213474   9.483   4.088   1.826  2.3298  0.5685  1.6795
36340SOL     OW13475   2.270   8.684   2.962  0.1136 -0.4201 -0.7395
36340SOL    HW113476   2.245   8.742   2.890  1.0923 -0.1344 -0.8695
36340SOL    HW213477   2.290   8.601   2.919 -0.9487 -0.7649 -0.5925
36341SOL     OW13478   2.788   3.119   2.372  0.4972  0.4176 -1.1839
36341SOL    HW113479   2.777   3.138   2.466 -0.6881 -0.7062 -1.0596
36341SOL    HW213480   2.827   3.198   2.336  0.6944  0.9917  0.2024
36342SOL     OW13481   4.289   8.003   0.595  0.4644 -0.4092 -0.4461
36342SOL    HW113482   4.243   8.087   0.601 -0.9847 -1.1157 -1.1002
36342SOL    HW213483   4.336   8.007   0.512  0.5333 -0.1879 -0.3975
36343SOL     OW13484  11.016   1.433   8.050  0.2357 -0.3822 -0.9126
36343SOL    HW113485  11.022   1.485   7.970  0.8977  1.4868  0.2907
36343SOL    HW213486  10.945   1.473   8.100  0.2067 -1.1552 -0.3146
36344SOL     OW13487   4.705   0.384   3.568  0.3924 -0.0158 -0.0215
36344SOL    HW113488   4.789   0.428   3.557  0.7983 -0.7863 -0.0595
36344SOL    HW213489   4.696   0.373   3.662 -0.6529  1.9237  0.1455
36345SOL     OW13490  10.120   7.498  10.718 -0.0757  0.5631 -0.0890
36345SOL    HW113491  10.148   7.469  10.805  1.2962  2.1608  0.0538
36345SOL    HW213492  10.141   7.424  10.660  0.5247  0.1004  0.6905
36346SOL     OW13493   8.956   3.203   7.975  0.1441 -0.1750 -0.4028
36346SOL    HW113494   9.030   3.263   7.964 -0.5546  0.9131  0.4971
36346SOL    HW213495   8.971   3.161   8.059 -0.3699  0.2322 -0.1024
36347SOL     OW13496   3.062  10.759   7.394 -0.0989 -0.0004 -0.2725
36347SOL    HW113497   3.141  10.712   7.420 -1.1918 -0.5194  2.4848
36347SOL    HW213498   3.017  10.699   7.335  0.3982 -0.7607  0.1062
36348SOL     OW13499  10.679   5.989   8.778 -0.1183 -0.2071 -0.3344
36348SOL    HW113500  10.640   6.029   8.856  0.1088  2.2214 -1.3745
36348SOL    HW213501  10.774   5.998   8.792  0.0258 -2.2533  0.2847
36349SOL     OW13502   0.828   1.665   0.223 -0.3418  0.4870 -0.0930
36349SOL    HW113503   0.811   1.571   0.223 -1.0552  0.6121 -0.0033
36349SOL    HW213504   0.892   1.678   0.292  2.1769 -0.3408 -2.1017
36350SOL     OW13505   7.147   9.157   4.200  0.0357  0.0347  0.1237
36350SOL    HW113506   7.075   9.213   4.173 -0.2073 -0.8311 -1.1305
36350SOL    HW213507   7.105   9.085   4.247  0.3716  1.0138  2.0135
36351SOL     OW13508   7.182   9.631   8.013 -0.3411  0.3813  0.1870
36351SOL    HW113509   7.260   9.579   8.034  0.0013  0.8704  0.1548
36351SOL    HW213510   7.109   9.569   8.020  0.0143 -0.0036  0.5438
36352SOL     OW13511   5.795   0.944   0.680  0.1881  0.0204 -0.2434
36352SOL    HW113512   5.870   0.920   0.735 -0.2486  0.0032  0.3563
36352SOL    HW213513   5.835   0.980   0.601  0.8309 -0.0264  0.0449
36353SOL     OW13514   8.421   6.765   9.614 -0.3715 -0.3399  0.2043
36353SOL    HW113515   8.409   6.781   9.707  0.4111  0.0831  0.2406
36353SOL    HW213516   8.354   6.818   9.571 -0.5381 -0.3015  0.5139
36354SOL     OW13517  10.814   5.915   7.580  0.3325 -0.1318  0.0250
36354SOL    HW113518  10.768   5.995   7.607  0.6745 -0.7029  2.5025
36354SOL    HW213519  10.886   5.907   7.642 -0.2809 -2.9082  0.4752
36355SOL     OW13520   1.168   4.759   5.164 -0.6124  0.2030 -0.0553
36355SOL    HW113521   1.150   4.717   5.248  1.4284 -3.2585 -1.1548
36355SOL    HW213522   1.117   4.708   5.100 -0.7366  1.6341 -1.1482
36356SOL     OW13523   5.556   8.776   9.910  0.0377 -0.0604 -0.2639
36356SOL    HW113524   5.536   8.702   9.968  0.4264 -0.7528 -0.9778
36356SOL    HW213525   5.533   8.744   9.823  0.3119  0.6312 -0.5940
36357SOL     OW13526   7.878   2.510   1.919 -0.4897  0.7448 -0.4143
36357SOL    HW113527   7.909   2.588   1.966  0.1664  0.3442 -0.1719
36357SOL    HW213528   7.796   2.538   1.878 -0.5975  1.3669  0.2137
36358SOL     OW13529   6.929   8.108   0.519 -0.6714 -1.0328  0.6482
36358SOL    HW113530   6.897   8.107   0.429  0.1568 -0.8150  0.3383
36358SOL    HW213531   7.025   8.103   0.510 -0.4435  0.9548  1.4313
36359SOL     OW13532   0.136   5.218  10.106  0.2515  0.0387 -0.3588
36359SOL    HW113533   0.214   5.246  10.059  1.8268 -0.9415  1.5018
36359SOL    HW213534   0.127   5.282  10.177 -0.8670  0.3456 -0.7662
36360SOL     OW13535   7.191   2.961   8.265  0.0604 -0.6565  0.3578
36360SOL    HW113536   7.252   2.909   8.212 -1.0202 -1.4135 -0.1718
36360SOL    HW213537   7.238   3.044   8.280  0.0878 -0.0294 -2.5457
36361SOL     OW13538   8.835   0.932   1.448  0.5853 -0.8672 -0.2323
36361SOL    HW113539   8.872   0.845   1.432 -0.8122 -1.2048 -2.0303
36361SOL    HW213540   8.894   0.991   1.402  1.1431 -0.9308  0.3874
36362SOL     OW13541   9.808   6.886   5.937 -0.0386  0.4300 -1.1209
36362SOL    HW113542   9.898   6.875   5.908 -0.2086  0.7175 -1.7737
36362SOL    HW213543   9.805   6.843   6.023  0.4341 -0.5601 -1.5837
36363SOL     OW13544   3.964   9.463   9.910  0.4578  0.6490  0.1860
36363SOL    HW113545   3.974   9.416   9.826  2.4886  0.0365  0.7093
36363SOL    HW213546   4.017   9.542   9.899 -0.7024  1.4744  0.3132
36364SOL     OW13547  11.022  10.188   0.378 -0.0591  0.2535 -0.6093
36364SOL    HW113548  10.978  10.256   0.328 -1.2149 -0.1420 -0.1470
36364SOL    HW213549  11.059  10.130   0.311 -0.4535  0.4519 -1.0055
36365SOL     OW13550   3.045  10.068   2.903 -0.3666  0.4780  0.8593
36365SOL    HW113551   3.130  10.112   2.892 -0.1655 -0.1297 -0.1202
36365SOL    HW213552   2.981  10.131   2.870 -0.1526  0.3524  0.1980
36366SOL     OW13553   0.803   5.858  10.879  0.6151 -0.3706  0.3356
36366SOL    HW113554   0.723   5.910  10.883  0.1697 -0.6036 -2.8235
36366SOL    HW213555   0.872   5.919  10.905 -0.2964  0.6029  0.5594
36367SOL     OW13556   2.255   1.182   1.081 -0.5719 -0.5756  0.0404
36367SOL    HW113557   2.345   1.174   1.111  0.0826  0.7649 -1.4331
36367SOL    HW213558   2.203   1.195   1.160  0.6739 -0.2005  0.8034
36368SOL     OW13559   6.319   5.957   7.066  0.8343  0.4694 -0.3321
36368SOL    HW113560   6.409   5.937   7.040  1.7709  0.7127  2.4676
36368SOL    HW213561   6.265   5.908   7.004  2.9022 -0.6051 -1.3697
36369SOL     OW13562  10.665   1.477   8.752 -0.1204  0.3662  0.3323
36369SOL    HW113563  10.642   1.386   8.772 -1.2595  0.5453 -0.1002
36369SOL    HW213564  10.583   1.525   8.759  0.7905  1.7684  2.5477
36370SOL     OW13565   2.881   7.060   6.838 -0.1234 -0.4184 -0.1413
36370SOL    HW113566   2.825   7.049   6.761 -0.4225 -0.8159  0.1322
36370SOL    HW213567   2.827   7.033   6.912 -0.9732  2.8996  0.6318
36371SOL     OW13568   9.208   5.877   0.410 -0.2286 -0.2508 -0.0041
36371SOL    HW113569   9.175   5.905   0.495 -0.1571 -1.7869  0.5699
36371SOL    HW213570   9.300   5.855   0.425  0.0403  0.3409 -0.7043
36372SOL     OW13571   0.009   9.322   9.829  0.0671  0.3187  0.0480
36372SOL    HW113572   0.070   9.288   9.895  0.7454  0.7818 -0.3369
36372SOL    HW213573   0.056   9.315   9.746  0.1700  2.0434 -0.0738
36373SOL     OW13574  10.033   1.629   8.643 -0.7735  0.5684 -0.7025
36373SOL    HW113575   9.992   1.693   8.702  0.3363  1.4686 -0.8672
36373SOL    HW213576  10.123   1.661   8.632 -0.5602 -0.3431 -1.7962
36374SOL     OW13577   2.495   5.337   1.779 -0.0872 -0.3144 -0.7278
36374SOL    HW113578   2.426   5.275   1.803 -0.1747 -0.3593 -1.0863
36374SOL    HW213579   2.476   5.360   1.688  0.8139 -0.9274 -1.0944
36375SOL     OW13580   7.282   1.404   7.346 -0.0895  0.4185 -0.1756
36375SOL    HW113581   7.278   1.361   7.261  0.2892  0.2309 -0.1010
36375SOL    HW213582   7.375   1.404   7.369 -0.2615 -0.2307  0.5878
36376SOL     OW13583   6.277   0.951  10.129 -0.3504 -0.1455  0.0700
36376SOL    HW113584   6.340   1.024  10.133 -1.4289  0.9344 -1.3192
36376SOL    HW213585   6.195   0.989  10.160 -0.7997 -0.9503 -0.1092
36377SOL     OW13586   6.543   9.464   4.860  0.2747 -0.3035  0.3510
36377SOL    HW113587   6.602   9.448   4.934  0.8942  0.1106 -0.0458
36377SOL    HW213588   6.556   9.556   4.839 -0.5008 -0.2149  0.2349
36378SOL     OW13589   4.560   9.141   3.618 -0.0041 -0.5735  0.0342
36378SOL    HW113590   4.628   9.158   3.553  1.0239  0.5888  1.3512
36378SOL    HW213591   4.496   9.211   3.605 -0.5285 -1.1533 -0.6133
36379SOL     OW13592   0.982   6.180   8.354 -0.0836 -0.3471  0.2938
36379SOL    HW113593   1.040   6.208   8.425  0.3340  0.0100 -0.1764
36379SOL    HW213594   0.981   6.084   8.361 -0.4214 -0.2883  1.0650
36380SOL     OW13595   5.583   8.627   6.897  0.5239  0.4386 -0.1642
36380SOL    HW113596   5.511   8.679   6.934 -0.6780  0.1145 -1.9041
36380SOL    HW213597   5.640   8.692   6.855  1.0864  0.6619  0.9114
36381SOL     OW13598   6.327   5.068   1.592 -0.2772  0.1240 -0.4895
36381SOL    HW113599   6.417   5.095   1.609 -0.2483 -0.6292  0.6458
36381SOL    HW213600   6.314   4.990   1.646 -2.6071  2.0606  2.0617
36382SOL     OW13601   6.657   9.134   4.946  0.3042  0.4797 -0.5476
36382SOL    HW113602   6.746   9.126   4.981  0.2995 -1.6657 -0.8881
36382SOL    HW213603   6.610   9.188   5.011  1.0339 -1.0304  1.3321
36383SOL     OW13604   6.499   9.468   6.436 -0.1491 -0.3656 -0.3396
36383SOL    HW113605   6.479   9.480   6.343 -1.2509 -1.2711 -0.2409
36383SOL    HW213606   6.583   9.513   6.449 -0.1070 -0.0165 -1.7103
36384SOL     OW13607   8.806   6.413   2.842 -0.3832  0.3531  0.1014
36384SOL    HW113608   8.859   6.404   2.762 -1.4817  0.5200 -0.6594
36384SOL    HW213609   8.870   6.439   2.909  1.0731 -2.5160 -0.0049
36385SOL     OW13610   7.515   6.936   2.786  0.4266 -0.1914  0.3472
36385SOL    HW113611   7.422   6.959   2.790  0.5980  0.4217  1.6770
36385SOL    HW213612   7.554   6.981   2.862  2.2582  1.6307 -1.5311
36386SOL     OW13613   7.336  10.849   5.556  0.2894 -0.2881  0.0891
36386SOL    HW113614   7.357  10.853   5.649 -0.1234  0.3094  0.1596
36386SOL    HW213615   7.393  10.780   5.522 -0.2724 -1.2220  0.9739
36387SOL     OW13616   6.494   6.290   9.462 -0.0597 -0.1252 -0.3763
36387SOL    HW113617   6.519   6.270   9.553 -0.6106  0.7256 -0.0243
36387SOL    HW213618   6.565   6.253   9.410  0.3659 -0.4695  0.4151
36388SOL     OW13619   1.067  10.213   5.733  0.4682 -0.4010  0.2342
36388SOL    HW113620   1.005  10.262   5.787  0.9048 -0.2986  0.6558
36388SOL    HW213621   1.079  10.130   5.779 -0.0848 -0.8126 -0.3524
36389SOL     OW13622   8.735   8.611   7.762 -0.7068  0.4704 -0.5388
36389SOL    HW113623   8.775   8.628   7.847 -2.0373 -0.5490  0.3420
36389SOL    HW213624   8.732   8.516   7.755 -1.5953  0.5299 -1.2180
36390SOL     OW13625   4.824   8.266   5.789  0.5646 -0.2119  0.0571
36390SOL    HW113626   4.766   8.200   5.828 -0.2076 -0.3594 -1.2944
36390SOL    HW213627   4.771   8.308   5.722  0.5599  2.7938  1.7498
36391SOL     OW13628   2.478   1.525   4.437  0.0327  0.2355  0.1798
36391SOL    HW113629   2.397   1.529   4.488  0.4182  0.5560  0.7815
36391SOL    HW213630   2.513   1.437   4.454 -1.0937 -0.5956 -1.5290
36392SOL     OW13631   9.430   1.670   7.269  0.5373 -0.3318 -0.3860
36392SOL    HW113632   9.341   1.669   7.235 -0.4941 -0.4366  2.1095
36392SOL    HW213633   9.476   1.604   7.217 -1.0635 -0.9175 -1.1256
36393SOL     OW13634  10.948   7.081   2.690  0.9438  0.5077  0.0153
36393SOL    HW113635  10.857   7.105   2.671  0.2623 -1.7589  0.0050
36393SOL    HW213636  10.953   7.081   2.786  0.9738  0.8095  0.0124
36394SOL     OW13637   2.455   0.402   0.474 -0.0785 -0.1124  0.5908
36394SOL    HW113638   2.408   0.481   0.501  0.8106  1.0412 -1.0740
36394SOL    HW213639   2.395   0.357   0.414  0.9527  1.6006 -1.9116
36395SOL     OW13640   5.488   8.055  10.011  0.2774  0.0422  0.4174
36395SOL    HW113641   5.503   8.037  10.104  0.7258 -1.7213  0.0488
36395SOL    HW213642   5.397   8.085  10.007 -0.5890 -2.2097  1.2147
36396SOL     OW13643   4.772   7.616   1.979 -0.3096 -0.1207 -0.4766
36396SOL    HW113644   4.818   7.687   1.934 -2.1828  0.8918 -0.9408
36396SOL    HW213645   4.810   7.614   2.066 -0.1421  1.4119 -0.4833
36397SOL     OW13646   4.348   0.634   2.295  0.2236  0.1133 -0.4350
36397SOL    HW113647   4.353   0.713   2.349  0.5750  0.6851 -1.2875
36397SOL    HW213648   4.397   0.569   2.345 -1.9056 -0.2357  1.3407
36398SOL     OW13649   4.026   3.795   2.430 -0.1770 -0.1793 -0.4930
36398SOL    HW113650   4.034   3.832   2.518 -1.1597  1.5074 -1.0436
36398SOL    HW213651   4.102   3.828   2.383  0.1028 -0.6907 -0.3963
36399SOL     OW13652   3.791   0.341   4.729  0.3367 -0.4253 -0.2098
36399SOL    HW113653   3.880   0.376   4.728 -0.2256  1.1558  0.5276
36399SOL    HW213654   3.752   0.376   4.809 -0.3287 -2.7973  0.5779
36400SOL     OW13655   5.035  10.085   7.202 -0.1794 -0.1580 -0.4040
36400SOL    HW113656   5.018  10.179   7.208  0.3800  0.1024 -2.2046
36400SOL    HW213657   5.129  10.078   7.190  0.0676 -1.1064  1.6332
36401SOL     OW13658   7.004  10.110   4.616  0.4173 -0.1706  0.4026
36401SOL    HW113659   7.038  10.028   4.579  0.0688 -0.7411  1.3192
36401SOL    HW213660   7.021  10.175   4.548  3.4216 -0.3882  0.7904
36402SOL     OW13661   3.012   3.934   6.213  0.2797  0.0181 -0.2382
36402SOL    HW113662   3.064   3.963   6.288 -0.5411  0.1411  0.3120
36402SOL    HW213663   3.067   3.950   6.137  1.3418 -0.6064  0.3768
36403SOL     OW13664   4.855   7.705   3.216 -0.3568  0.2227  0.3357
36403SOL    HW113665   4.887   7.661   3.138 -1.9113 -0.3428 -0.0290
36403SOL    HW213666   4.927   7.761   3.244  0.8994 -0.9587 -0.4193
36404SOL     OW13667   0.344  10.974   2.118  0.1039 -0.2507  0.8224
36404SOL    HW113668   0.357  11.007   2.029 -0.1329 -0.5788  0.6625
36404SOL    HW213669   0.390  11.036   2.174 -0.8785  0.7276  0.5840
36405SOL     OW13670   1.431   7.570   4.488  0.3919 -0.3779 -0.1035
36405SOL    HW113671   1.393   7.571   4.400 -0.7726 -0.9172  0.3810
36405SOL    HW213672   1.393   7.646   4.531 -1.1525 -1.5968  0.7789
36406SOL     OW13673   7.314   7.603  10.263 -0.1524 -0.3222  0.3799
36406SOL    HW113674   7.292   7.613  10.171  0.4708 -0.7292  0.1844
36406SOL    HW213675   7.356   7.686  10.287 -0.0882 -0.3129  0.2334
36407SOL     OW13676  10.856   4.766   2.097  0.1629 -0.4333  0.3780
36407SOL    HW113677  10.906   4.692   2.063 -2.4002 -1.4151 -1.6717
36407SOL    HW213678  10.900   4.843   2.062  2.3223 -0.9628  1.7485
36408SOL     OW13679   2.232   8.177  10.373 -0.3595  0.0445  0.1665
36408SOL    HW113680   2.189   8.170  10.288 -0.8223  1.0788  0.3023
36408SOL    HW213681   2.190   8.252  10.415 -0.1259 -0.4374  1.3035
36409SOL     OW13682   7.569   9.062   7.592 -0.0599 -0.1147 -0.2648
36409SOL    HW113683   7.649   9.111   7.610  0.3485 -1.1135  0.7825
36409SOL    HW213684   7.498   9.122   7.615  0.4280  0.0767  0.8207
36410SOL     OW13685   8.450   3.183   9.760 -0.1811  0.0244 -0.1654
36410SOL    HW113686   8.489   3.119   9.821 -0.6536  0.0418  0.1585
36410SOL    HW213687   8.523   3.239   9.735 -0.1773  0.6574  1.1994
36411SOL     OW13688   7.760   4.607  10.913  0.0078 -0.5038  0.9711
36411SOL    HW113689   7.792   4.696  10.928 -0.7129 -0.3324  1.4987
36411SOL    HW213690   7.734   4.576  11.000 -0.5292 -0.9278  0.6583
36412SOL     OW13691   4.426   2.743  10.945 -0.3748 -0.0467  0.1568
36412SOL    HW113692   4.421   2.752  10.850  0.2979  2.5480  0.3111
36412SOL    HW213693   4.340   2.772  10.977 -0.0560  0.6226  0.4152
36413SOL     OW13694   1.338   4.464   5.347 -0.5650 -0.3426 -0.2912
36413SOL    HW113695   1.265   4.417   5.307 -0.0768 -1.1525 -0.2625
36413SOL    HW213696   1.301   4.548   5.374 -1.2634 -0.3749 -1.0940
36414SOL     OW13697   5.424   7.324   1.173 -0.6275 -0.9471 -0.0413
36414SOL    HW113698   5.365   7.331   1.247  0.0704  1.4416  0.3955
36414SOL    HW213699   5.492   7.263   1.201 -2.4136 -3.1436 -0.2834
36415SOL     OW13700   6.422   0.012   6.937 -0.2533  0.0524  0.0863
36415SOL    HW113701   6.482   0.040   7.007 -0.5769  2.4114 -0.4772
36415SOL    HW213702   6.344   0.065   6.951 -1.4564 -1.5249 -0.4044
36416SOL     OW13703   3.169  10.794   2.758  0.3071 -0.3672  0.0525
36416SOL    HW113704   3.259  10.763   2.763  0.4812  0.0828 -0.2259
36416SOL    HW213705   3.115  10.715   2.765  0.7199 -0.6241  0.3105
36417SOL     OW13706   3.740   6.835   2.634 -0.3998  0.2545 -0.1438
36417SOL    HW113707   3.815   6.785   2.667 -1.1301 -1.5085 -1.0143
36417SOL    HW213708   3.757   6.845   2.540 -0.9491  0.4156 -0.2272
36418SOL     OW13709   3.434   2.539  10.069 -0.0505 -0.1661  0.2322
36418SOL    HW113710   3.491   2.598  10.118 -0.4585  0.4579 -0.0405
36418SOL    HW213711   3.348   2.548  10.109 -0.4212  0.4529 -0.6609
36419SOL     OW13712   9.367   6.723   7.288  0.1145  0.3630  0.0431
36419SOL    HW113713   9.297   6.762   7.235 -0.2238  1.3790  1.1981
36419SOL    HW213714   9.400   6.651   7.234 -0.9406  0.6811 -1.0792
36420SOL     OW13715   6.472  10.973   7.275  0.2847  0.6380  0.6366
36420SOL    HW113716   6.477  10.879   7.290 -2.7914  0.0754 -1.0262
36420SOL    HW213717   6.531  10.990   7.202  2.0001  0.3481  1.8925
36421SOL     OW13718   9.910   7.881   3.191 -0.2739 -0.4145  0.0007
36421SOL    HW113719   9.823   7.852   3.165 -0.2006 -1.8460  1.1773
36421SOL    HW213720   9.940   7.813   3.252  1.9907 -0.4016 -0.9990
36422SOL     OW13721   1.856  10.130   9.844 -0.0029 -0.7615  0.2760
36422SOL    HW113722   1.783  10.190   9.826  0.2035 -0.3681  0.7336
36422SOL    HW213723   1.910  10.134   9.765 -0.5813 -1.2217 -0.1570
36423SOL     OW13724   8.310   0.574   6.645 -0.3582  0.0645 -0.6388
36423SOL    HW113725   8.403   0.575   6.667 -1.0296  0.8693  2.7219
36423SOL    HW213726   8.284   0.483   6.653  0.0747 -0.1264 -1.3564
36424SOL     OW13727   4.505   0.101   2.028 -0.5703  0.2026  0.1612
36424SOL    HW113728   4.536   0.187   1.999 -0.2084 -0.0132 -0.1078
36424SOL    HW213729   4.482   0.055   1.947  2.3607 -1.1461 -0.0586
36425SOL     OW13730   6.637   9.665   4.317 -0.3101  0.6863  0.4559
36425SOL    HW113731   6.604   9.583   4.354 -1.7107  1.4351  0.9632
36425SOL    HW213732   6.701   9.638   4.251  1.5764 -0.7214  2.7197
36426SOL     OW13733   2.621   8.401   0.617  0.6034  0.3232 -0.1958
36426SOL    HW113734   2.677   8.399   0.695  0.5157  0.8368 -0.1148
36426SOL    HW213735   2.672   8.356   0.549  1.1149  0.7826 -0.1222
36427SOL     OW13736   3.908   4.485   0.070 -0.0908 -0.2420  0.0434
36427SOL    HW113737   3.850   4.418   0.105 -1.6296  0.5258 -0.9375
36427SOL    HW213738   3.941   4.532   0.147 -0.9099 -0.5859  0.6067
36428SOL     OW13739   1.887  10.591   4.676 -0.0010 -0.2151 -0.1241
36428SOL    HW113740   1.868  10.678   4.712  0.4111  0.4626 -1.4916
36428SOL    HW213741   1.945  10.607   4.602 -0.4553 -1.5999 -0.8239
36429SOL     OW13742   0.959   2.353   6.579 -0.5065 -0.2152  0.2665
36429SOL    HW113743   0.909   2.271   6.585 -0.9525  0.1251  1.6055
36429SOL    HW213744   1.050   2.327   6.594 -0.7188 -0.4102  1.3162
36430SOL     OW13745  10.293   8.162   2.029  0.7935  0.0706  0.1695
36430SOL    HW113746  10.271   8.069   2.031 -1.7137  0.5151 -1.4543
36430SOL    HW213747  10.370   8.168   1.973  0.7937 -1.0018  0.0425
36431SOL     OW13748   8.479   6.950   1.073  0.2716  0.3605  0.0858
36431SOL    HW113749   8.529   6.913   1.146 -0.5868 -1.8341 -0.3498
36431SOL    HW213750   8.534   7.021   1.039  2.4370 -1.0293  0.5013
36432SOL     OW13751   4.523   3.992   1.269 -0.1097  0.1044 -0.1974
36432SOL    HW113752   4.442   3.947   1.247  0.5652 -1.8197  0.9700
36432SOL    HW213753   4.510   4.024   1.359  1.7375 -3.9643  1.7847
36433SOL     OW13754   8.551   1.458   5.502  0.2179  0.0510 -0.2203
36433SOL    HW113755   8.484   1.437   5.437  0.0653  0.7800 -0.3035
36433SOL    HW213756   8.509   1.521   5.561  0.1437 -1.0736  0.9665
36434SOL     OW13757   4.195   0.297   3.163 -0.0968 -0.0588  0.4734
36434SOL    HW113758   4.137   0.368   3.192 -0.0019 -0.2510  1.1683
36434SOL    HW213759   4.186   0.230   3.231 -0.5267 -0.9140 -0.4017
36435SOL     OW13760   4.411   0.890   8.424  0.0354 -0.3815  1.0973
36435SOL    HW113761   4.501   0.861   8.407 -1.0161 -2.1702 -2.3385
36435SOL    HW213762   4.374   0.822   8.480  0.2145 -0.7820  0.7305
36436SOL     OW13763   9.688   6.680  10.522  0.1337 -0.4164 -0.2476
36436SOL    HW113764   9.747   6.605  10.514 -0.1762 -0.9283  1.7267
36436SOL    HW213765   9.613   6.646  10.573 -0.8059  0.7949 -0.7766
36437SOL     OW13766   7.129   6.206   8.647  0.2017  0.0999  0.5155
36437SOL    HW113767   7.197   6.273   8.652  2.0628 -1.7031  0.4504
36437SOL    HW213768   7.119   6.189   8.553  2.0956 -1.8973  0.5877
36438SOL     OW13769   0.672   6.321   3.753 -0.1433  0.4685  0.1426
36438SOL    HW113770   0.649   6.361   3.837  1.0814  0.5127  0.4732
36438SOL    HW213771   0.603   6.257   3.737 -0.7924  0.9903  0.8135
36439SOL     OW13772   3.244   9.937   0.018 -0.2326 -0.6626  0.3273
36439SOL    HW113773   3.292   9.893   0.088  0.2194 -0.4714  0.1341
36439SOL    HW213774   3.179   9.872  -0.011  0.8152 -1.4259 -0.3580
36440SOL     OW13775  10.492   1.852   9.447 -0.1906 -0.1097  0.0334
36440SOL    HW113776  10.563   1.890   9.497  0.3238 -1.8218  0.6735
36440SOL    HW213777  10.498   1.758   9.464 -3.8110 -0.2208  1.7769
36441SOL     OW13778   5.111   3.095   8.796 -0.0254 -0.2371 -0.1751
36441SOL    HW113779   5.031   3.052   8.765 -0.5674  0.8349 -0.3175
36441SOL    HW213780   5.120   3.066   8.887 -0.8314 -0.0330 -0.0184
36442SOL     OW13781   8.926   3.674  10.802  0.4393 -0.4453 -0.3892
36442SOL    HW113782   8.864   3.602  10.812 -1.0158  0.9657  1.3445
36442SOL    HW213783   8.944   3.677  10.707 -1.5951 -1.3498 -0.8445
36443SOL     OW13784   2.669   4.092   0.812  0.0987  0.0455 -0.1301
36443SOL    HW113785   2.617   4.011   0.816  1.0823 -0.6128 -0.3650
36443SOL    HW213786   2.671   4.115   0.719 -0.5126  0.5878 -0.0241
36444SOL     OW13787   8.040  10.713  10.044 -0.3970  0.2248 -0.2827
36444SOL    HW113788   8.010  10.653   9.976  1.9234 -0.5042 -0.7545
36444SOL    HW213789   8.011  10.799  10.015  1.5114  0.1179 -2.9351
36445SOL     OW13790   9.221   6.004   4.618  0.6007 -0.1022  0.0776
36445SOL    HW113791   9.283   5.932   4.602  1.2165  0.3506  0.3796
36445SOL    HW213792   9.276   6.082   4.623 -0.0135  0.3247  0.2331
36446SOL     OW13793   8.671   6.157   3.343 -0.0463 -0.8583 -0.2644
36446SOL    HW113794   8.689   6.250   3.358 -2.5025 -0.6722  2.4684
36446SOL    HW213795   8.594   6.155   3.287 -0.1054 -1.2285 -0.1781
36447SOL     OW13796   0.519   2.675   4.143  0.4614 -0.0661 -0.3218
36447SOL    HW113797   0.482   2.632   4.066 -1.7848 -1.1276  1.2597
36447SOL    HW213798   0.612   2.650   4.141 -0.0405 -2.1299 -1.3755
36448SOL     OW13799   6.083   7.522  10.161  0.2307  0.0492  0.0447
36448SOL    HW113800   6.021   7.537  10.089  0.3906 -0.8477 -0.2885
36448SOL    HW213801   6.165   7.563  10.130 -0.0309  0.7402  0.2463
36449SOL     OW13802  10.210   4.006  11.052 -0.4508 -0.0954  0.5266
36449SOL    HW113803  10.224   4.002  10.957 -1.2568 -0.5661  0.4212
36449SOL    HW213804  10.136   3.947  11.068  0.9181 -1.5908  1.7021
36450SOL     OW13805   0.800   9.867   9.546 -0.1792  0.0349 -0.0585
36450SOL    HW113806   0.728   9.832   9.600 -1.1620  0.1662 -1.2385
36450SOL    HW213807   0.766   9.864   9.457  1.7113 -0.9403 -0.7983
36451SOL     OW13808  10.220   5.749   8.153 -0.5917 -0.1796  0.8541
36451SOL    HW113809  10.235   5.839   8.126 -2.4569  0.2225  1.0534
36451SOL    HW213810  10.281   5.735   8.226  0.2383  0.6538  0.3422
36452SOL     OW13811   7.678   7.057   8.696 -1.1302  0.5164  0.3409
36452SOL    HW113812   7.617   6.999   8.742 -1.3181  0.0153 -0.5148
36452SOL    HW213813   7.686   7.134   8.753 -2.3924  0.4934  0.5803
36453SOL     OW13814   9.147   5.322  10.530  0.3173 -0.4115  0.0843
36453SOL    HW113815   9.220   5.260  10.525 -1.2332 -2.4201  1.1063
36453SOL    HW213816   9.143   5.347  10.623  0.0454  0.1697 -0.0752
36454SOL     OW13817   7.254   9.919   9.010  0.2021 -0.4339  0.3154
36454SOL    HW113818   7.246   9.852   9.078 -0.9615 -0.4755  0.1421
36454SOL    HW213819   7.208   9.995   9.046 -0.9896 -0.6642 -0.6945
36455SOL     OW13820   6.712   1.073   9.037 -0.5921  0.0902  0.5985
36455SOL    HW113821   6.638   1.105   8.985 -0.2585  1.2798  0.8477
36455SOL    HW213822   6.743   1.149   9.085  0.6116 -0.4609  0.7286
36456SOL     OW13823   2.491   3.391   6.342 -0.2757  0.0835  0.2628
36456SOL    HW113824   2.456   3.315   6.388 -0.0399  0.5520  1.2465
36456SOL    HW213825   2.545   3.353   6.272  0.0594 -0.6616  0.9022
36457SOL     OW13826   4.460   0.201   9.937  0.4090  0.0017  0.1874
36457SOL    HW113827   4.414   0.156   9.866 -0.9371  0.7074  0.5739
36457SOL    HW213828   4.520   0.260   9.892  0.0782 -0.0628 -0.3579
36458SOL     OW13829   8.812   1.221   4.142  0.2782 -0.0463  0.0355
36458SOL    HW113830   8.721   1.196   4.151  0.6033 -0.6044  3.3509
36458SOL    HW213831   8.859   1.138   4.132  0.6682 -0.2424  2.6868
36459SOL     OW13832   7.953   4.357   4.555 -0.0845  0.3176  0.2028
36459SOL    HW113833   8.016   4.384   4.489  0.1748  2.3564  1.2367
36459SOL    HW213834   7.876   4.330   4.505  0.1291  1.7598 -0.9375
36460SOL     OW13835   9.123   0.661   6.832 -0.0712 -0.0688 -0.6845
36460SOL    HW113836   9.051   0.679   6.892  0.6249 -0.9116  0.4467
36460SOL    HW213837   9.200   0.695   6.877  0.6579 -1.9352 -0.4363
36461SOL     OW13838   6.023   8.031   2.418  0.0672  0.3918  0.8020
36461SOL    HW113839   6.089   8.054   2.352  0.8480  1.5384  1.9310
36461SOL    HW213840   6.074   8.003   2.494 -0.7573  0.7078  1.4822
36462SOL     OW13841   0.202  10.951   3.776 -0.1769  0.0984  0.1849
36462SOL    HW113842   0.165  10.907   3.853  0.4632  0.0815  0.4924
36462SOL    HW213843   0.134  11.011   3.747 -0.0051  0.9828  1.4926
36463SOL     OW13844   8.883   2.370   5.064 -0.4627  0.0657 -0.3384
36463SOL    HW113845   8.977   2.360   5.078 -0.5420 -0.3036 -0.0816
36463SOL    HW213846   8.849   2.399   5.148 -0.2693  2.3965 -0.9812
36464SOL     OW13847   6.602   3.384  10.248  0.1673 -0.5115 -0.0581
36464SOL    HW113848   6.620   3.345  10.334 -0.0874  1.2222  0.8191
36464SOL    HW213849   6.683   3.427  10.224  0.3335 -1.2373 -0.8609
36465SOL     OW13850   7.323   7.196   2.495 -0.4644 -0.0111  0.2699
36465SOL    HW113851   7.318   7.262   2.425 -1.7659 -0.6188 -0.2434
36465SOL    HW213852   7.307   7.246   2.576  0.2848  0.5715  0.0628
36466SOL     OW13853   5.193   3.803   4.451 -0.4247  0.2505  0.7895
36466SOL    HW113854   5.107   3.775   4.420  1.2728 -0.0728 -4.6587
36466SOL    HW213855   5.245   3.722   4.456  0.5532  0.8062  0.0157
36467SOL     OW13856   2.826   1.092   7.235 -0.0738  0.5247 -0.2156
36467SOL    HW113857   2.829   1.022   7.170 -2.4743  1.1090 -1.0209
36467SOL    HW213858   2.830   1.046   7.319 -2.4391 -0.7309 -0.7018
36468SOL     OW13859   3.836   8.703   8.547 -0.0540 -0.4075 -0.3768
36468SOL    HW113860   3.918   8.684   8.592  0.5397  0.5771 -1.0114
36468SOL    HW213861   3.785   8.622   8.555  0.2296 -0.4539  1.5805
36469SOL     OW13862  10.213   2.039   7.861 -0.0773 -0.1546  0.0856
36469SOL    HW113863  10.128   2.066   7.826  0.3877  0.4221 -0.6208
36469SOL    HW213864  10.274   2.105   7.828  0.4585  0.1409  1.6000
36470SOL     OW13865   3.101   4.333   1.421 -0.1125  0.7474 -0.3631
36470SOL    HW113866   3.196   4.333   1.434 -0.0564  0.6446 -0.7585
36470SOL    HW213867   3.070   4.260   1.476  0.0155  0.8909 -0.0980
36471SOL     OW13868   3.800   7.287   9.218  0.0032 -0.5217 -0.0840
36471SOL    HW113869   3.813   7.326   9.305 -1.0513 -0.2916 -0.0164
36471SOL    HW213870   3.879   7.235   9.203  0.6326  0.2106  0.5975
36472SOL     OW13871   9.098   4.949   1.498 -0.4063  0.2750  0.8130
36472SOL    HW113872   9.075   4.882   1.433  3.0233  0.1309 -0.4454
36472SOL    HW213873   9.016   4.997   1.513 -1.6532 -0.4637 -2.6869
36473SOL     OW13874   5.857   4.529   5.911 -0.0128  0.2038 -0.6537
36473SOL    HW113875   5.806   4.567   5.982 -1.5612 -0.4689 -1.3684
36473SOL    HW213876   5.943   4.513   5.949 -1.0001 -0.7892  1.2927
36474SOL     OW13877   3.486   0.509   8.003  0.9807 -0.6346  0.0265
36474SOL    HW113878   3.485   0.427   8.052  1.3124 -1.4540 -1.2977
36474SOL    HW213879   3.540   0.491   7.926  1.8459  1.1205  0.1894
36475SOL     OW13880   5.320   0.204  10.118 -0.3225  0.2578 -0.1971
36475SOL    HW113881   5.402   0.186  10.073  0.8154  1.7116  1.1710
36475SOL    HW213882   5.252   0.180  10.056  1.1525 -0.0347 -1.7507
36476SOL     OW13883   8.947   1.150   9.773 -0.0552 -0.1084  0.4560
36476SOL    HW113884   8.962   1.218   9.839 -0.1869 -1.3259  1.8044
36476SOL    HW213885   9.008   1.080   9.798 -0.7802 -0.9682 -0.1570
36477SOL     OW13886  10.738   2.899   2.890 -0.1343  0.6770 -0.1275
36477SOL    HW113887  10.801   2.836   2.924 -3.0727 -0.6484  3.5522
36477SOL    HW213888  10.696   2.855   2.817  0.8305  0.2056 -0.4122
36478SOL     OW13889   4.979  11.022   7.679  0.1203  0.4152 -0.1710
36478SOL    HW113890   4.939  11.021   7.592 -1.5941 -0.2000  0.5916
36478SOL    HW213891   4.995  11.115   7.697  0.8204  0.5235 -1.2625
36479SOL     OW13892   6.855   7.551   8.789  0.0701  0.3700 -0.0038
36479SOL    HW113893   6.902   7.565   8.871 -1.0423  1.7095  0.4518
36479SOL    HW213894   6.864   7.635   8.743 -1.5118  0.5300 -0.0648
36480SOL     OW13895   7.950   8.409   0.326 -0.3762 -0.0615  0.3284
36480SOL    HW113896   7.919   8.335   0.273  1.2424  0.5298 -1.5519
36480SOL    HW213897   7.877   8.471   0.325 -1.2026 -0.9925  0.7067
36481SOL     OW13898   3.316   5.610   8.257 -0.2918  0.4152 -0.3397
36481SOL    HW113899   3.322   5.684   8.197 -0.0688 -0.7428 -1.8017
36481SOL    HW213900   3.304   5.534   8.200 -0.5791 -0.6764  1.1189
36482SOL     OW13901   1.210   3.114   2.835 -0.0522  0.8762  0.6317
36482SOL    HW113902   1.275   3.057   2.795 -0.8941  0.4805 -0.2230
36482SOL    HW213903   1.157   3.055   2.889 -0.1964  1.0498  0.6829
36483SOL     OW13904   0.747   6.898   9.889  0.4310 -0.1038 -0.1865
36483SOL    HW113905   0.822   6.849   9.923 -0.2565 -0.9677  0.1499
36483SOL    HW213906   0.744   6.876   9.796 -0.2196 -1.2276  0.0726
36484SOL     OW13907   9.768   6.542   5.892  0.0443 -0.1459  0.0331
36484SOL    HW113908   9.687   6.490   5.886  0.7970 -1.5296  1.1851
36484SOL    HW213909   9.794   6.535   5.984  0.2680  2.2141  0.1972
36485SOL     OW13910  10.926   5.724   1.802  0.2551  0.1617 -0.0824
36485SOL    HW113911  10.971   5.799   1.841  0.8660  0.2108 -0.8536
36485SOL    HW213912  10.893   5.674   1.876  0.8624  0.5712  0.4717
36486SOL     OW13913  10.708   2.988   2.461  0.7393 -0.1362 -0.5889
36486SOL    HW113914  10.757   2.912   2.431  0.2701 -0.3988 -0.6962
36486SOL    HW213915  10.771   3.040   2.511  0.6857 -1.3549  0.7966
36487SOL     OW13916   3.803   6.667   3.907 -0.1260 -0.0855 -0.3340
36487SOL    HW113917   3.839   6.700   3.824 -1.1247 -1.7013 -1.4513
36487SOL    HW213918   3.732   6.727   3.928  0.9762  1.1307  0.1191
36488SOL     OW13919   4.542   3.156   0.191  0.3443  0.5176  0.4399
36488SOL    HW113920   4.542   3.248   0.164 -4.6443  0.5243 -0.4572
36488SOL    HW213921   4.556   3.159   0.286  1.1733  2.0569  0.3176
36489SOL     OW13922   5.063   6.859   8.184 -0.0476  0.3391  0.2705
36489SOL    HW113923   5.107   6.774   8.185  0.6679  0.6760 -0.5184
36489SOL    HW213924   5.135   6.922   8.172 -0.6054  1.0206  0.4646
36490SOL     OW13925   2.491   0.161   7.123 -0.3208  0.4035 -0.0668
36490SOL    HW113926   2.406   0.188   7.089 -1.7754 -3.3131  0.2008
36490SOL    HW213927   2.484   0.171   7.218 -0.4457  0.1552 -0.0494
36491SOL     OW13928   9.301   9.744   3.172  0.2492 -0.2382 -0.3059
36491SOL    HW113929   9.322   9.683   3.102 -2.1160 -1.1933 -0.2781
36491SOL    HW213930   9.246   9.811   3.129  1.7717  1.2418 -0.0742
36492SOL     OW13931   9.591   3.509   8.415 -0.3038  0.2053  0.3923
36492SOL    HW113932   9.552   3.486   8.499 -0.3310  1.0417  0.6199
36492SOL    HW213933   9.528   3.568   8.374 -1.6828 -2.3579 -1.5226
36493SOL     OW13934   4.471   1.654   9.131  0.1612 -0.9093  0.3698
36493SOL    HW113935   4.560   1.670   9.098  0.2986 -0.5504  0.9135
36493SOL    HW213936   4.471   1.560   9.153 -0.2341 -1.4085 -1.5423
36494SOL     OW13937   9.879   9.858   7.125  0.4061 -0.3261  0.9709
36494SOL    HW113938   9.915   9.905   7.050 -1.6472  1.2520  0.8954
36494SOL    HW213939   9.822   9.792   7.087 -1.7326  1.3653  1.0285
36495SOL     OW13940   6.054   1.415   3.876 -0.2781 -0.0756 -0.3419
36495SOL    HW113941   5.971   1.425   3.922  0.3629 -1.5275  1.2898
36495SOL    HW213942   6.109   1.485   3.912  0.0009 -0.7712  0.6408
36496SOL     OW13943   5.628   7.136   3.213  0.4785 -0.0272 -0.0622
36496SOL    HW113944   5.635   7.162   3.305 -0.2358  0.4077 -0.1176
36496SOL    HW213945   5.653   7.044   3.212  0.8918  0.0727  0.5036
36497SOL     OW13946   2.663   2.774   2.594  0.6875  0.2303 -0.1569
36497SOL    HW113947   2.569   2.755   2.597  0.3238  1.7712 -0.7763
36497SOL    HW213948   2.702   2.710   2.653 -0.7219 -0.6080 -0.0797
36498SOL     OW13949   8.562   3.405   2.559  0.0413 -0.4767 -0.2266
36498SOL    HW113950   8.499   3.424   2.629 -0.0739  0.7043 -0.6153
36498SOL    HW213951   8.530   3.457   2.485  2.1752  1.2365 -0.0482
36499SOL     OW13952   6.706   8.190   3.407  0.1385  0.1356  0.5216
36499SOL    HW113953   6.715   8.120   3.472 -1.3008 -1.1812 -0.6204
36499SOL    HW213954   6.796   8.212   3.383  0.6301 -1.5900  0.6440
36500SOL     OW13955   6.208   4.434   4.681  0.4806 -0.1539 -0.5025
36500SOL    HW113956   6.201   4.443   4.776  1.0997  0.5061 -0.5119
36500SOL    HW213957   6.285   4.485   4.658  1.1088 -1.3576 -1.2101
36501SOL     OW13958   7.763   7.694   0.889 -0.1156  0.1370 -0.6912
36501SOL    HW113959   7.797   7.659   0.972 -0.1295  2.9853  0.6415
36501SOL    HW213960   7.841   7.707   0.835  0.0535 -0.3113 -0.5632
36502SOL     OW13961   6.129   2.624   3.163 -0.0591 -0.0013 -0.2384
36502SOL    HW113962   6.108   2.643   3.071 -1.2610  0.8408  0.1792
36502SOL    HW213963   6.211   2.575   3.159 -0.0764  0.0290 -1.7599
36503SOL     OW13964   1.428   1.040   1.697 -0.0545 -0.3240 -0.0345
36503SOL    HW113965   1.523   1.047   1.687  0.0555 -0.4406  0.7825
36503SOL    HW213966   1.396   1.130   1.694  0.2563 -0.1560  1.0500
36504SOL     OW13967   2.536   4.960  10.761 -0.0569  0.2510  0.2995
36504SOL    HW113968   2.464   4.996  10.708 -0.3977 -0.9774 -0.0913
36504SOL    HW213969   2.605   5.026  10.755  0.5340 -0.5069 -2.9965
36505SOL     OW13970  10.324   4.666   6.077  0.3619 -0.0831  0.1536
36505SOL    HW113971  10.257   4.717   6.123  1.2277  1.5467 -0.3396
36505SOL    HW213972  10.304   4.575   6.101 -2.1239  0.3160 -0.1217
36506SOL     OW13973   7.661   0.814   4.749  0.1901  0.2506 -0.2614
36506SOL    HW113974   7.636   0.840   4.837  0.9591  0.6349 -0.1482
36506SOL    HW213975   7.756   0.803   4.753  0.7147  3.2681 -1.7497
36507SOL     OW13976   4.932   7.128   5.774 -0.2553  0.1970  0.3668
36507SOL    HW113977   4.956   7.218   5.753  0.2702  0.2180  1.0207
36507SOL    HW213978   4.965   7.076   5.700  0.2556  0.4377  0.4229
36508SOL     OW13979   9.271   0.686   7.890  0.0821  0.4728  0.5277
36508SOL    HW113980   9.307   0.616   7.944 -0.4458  2.3004  3.4603
36508SOL    HW213981   9.306   0.766   7.928 -1.9519  2.0066 -0.6008
36509SOL     OW13982  11.071   4.560   1.448 -0.2681 -0.0941 -0.3725
36509SOL    HW113983  11.124   4.608   1.385  2.0688 -0.4326  1.2056
36509SOL    HW213984  11.051   4.477   1.405  0.8693 -0.1307 -0.8723
36510SOL     OW13985   4.652  10.434   5.535  0.3212  0.5015 -0.0867
36510SOL    HW113986   4.707  10.487   5.477  0.2117 -0.5360 -1.1703
36510SOL    HW213987   4.585  10.397   5.478 -0.4211  0.2676  0.8970
36511SOL     OW13988   8.920   4.881  10.212 -0.8563 -0.0765 -0.8291
36511SOL    HW113989   8.932   4.900  10.305  1.8344 -0.5606 -0.9932
36511SOL    HW213990   8.906   4.967  10.171 -0.1284  0.3558 -0.1929
36512SOL     OW13991   3.352   0.128   4.102 -0.2087  0.4678 -0.3176
36512SOL    HW113992   3.381   0.187   4.033  0.2201  1.4810  0.6983
36512SOL    HW213993   3.429   0.117   4.158 -0.7025  0.1057  0.3049
36513SOL     OW13994   5.702   2.717   3.120  0.6112  0.4396 -0.0365
36513SOL    HW113995   5.679   2.777   3.192  0.3419 -0.5818  0.7527
36513SOL    HW213996   5.639   2.646   3.127  1.5486 -0.4430 -0.3035
36514SOL     OW13997   7.131  10.221   9.905  0.6463 -0.5263  0.0468
36514SOL    HW113998   7.187  10.147   9.885 -0.6966 -1.4446 -0.4762
36514SOL    HW213999   7.183  10.298   9.882  1.3997 -1.3591 -1.1438
36515SOL     OW14000  10.607  10.931   5.413 -0.5233 -0.1837 -0.1121
36515SOL    HW114001  10.531  10.921   5.469 -0.7910 -1.4271 -0.6594
36515SOL    HW214002  10.595  10.866   5.344  1.3536 -0.8490  0.1403
36516SOL     OW14003  10.823  10.624   2.328  0.1766  0.2178  0.0382
36516SOL    HW114004  10.762  10.550   2.330 -0.0683  0.4109 -0.2984
36516SOL    HW214005  10.856  10.629   2.418 -0.7566  0.4968  0.3774
36517SOL     OW14006   5.576   8.367   6.844 -0.7991  0.1274  0.9495
36517SOL    HW114007   5.577   8.463   6.851 -0.4329  0.2418 -0.4643
36517SOL    HW214008   5.666   8.341   6.860 -0.1964  0.3069 -1.6550
36518SOL     OW14009   2.580   0.435   2.343 -0.3906  0.2185 -0.3599
36518SOL    HW114010   2.484   0.437   2.338 -0.4089 -0.7638 -0.5918
36518SOL    HW214011   2.600   0.352   2.387  0.3545  0.4569 -0.2347
36519SOL     OW14012   8.929   5.258   1.383 -0.6195 -0.1491  0.0266
36519SOL    HW114013   9.022   5.260   1.405 -0.6434 -3.4717  0.8655
36519SOL    HW214014   8.892   5.191   1.441 -3.4240  0.5849 -0.7760
36520SOL     OW14015   8.643  10.074   8.231  0.4475  0.5841 -0.2416
36520SOL    HW114016   8.609  10.095   8.318  1.4889 -0.3363  0.4198
36520SOL    HW214017   8.734  10.050   8.247  0.8160  0.9891 -1.6818
36521SOL     OW14018   0.864   8.100   9.899  0.1948 -0.6559 -0.2748
36521SOL    HW114019   0.942   8.054   9.867  0.2333 -1.5933  1.1116
36521SOL    HW214020   0.838   8.155   9.825  1.7386 -0.8661 -1.0271
36522SOL     OW14021   0.367   6.151   7.524  0.2389 -0.1979  0.5269
36522SOL    HW114022   0.330   6.239   7.522  0.5422 -0.0294  1.8017
36522SOL    HW214023   0.297   6.097   7.560 -0.1609 -0.6175 -0.7967
36523SOL     OW14024   7.227   0.142   6.201  0.0082  0.0033  0.2930
36523SOL    HW114025   7.157   0.139   6.135  1.2669 -2.3432 -1.0865
36523SOL    HW214026   7.305   0.170   6.152  0.5670  0.1155  1.2313
36524SOL     OW14027   7.960   9.393   2.549 -0.4032 -0.1315  0.5460
36524SOL    HW114028   7.890   9.340   2.512 -0.3751  0.5482 -0.5250
36524SOL    HW214029   7.992   9.342   2.624 -1.3268 -0.9362  0.4088
36525SOL     OW14030   1.097   5.880  10.775 -0.0587 -0.1774  0.1995
36525SOL    HW114031   1.086   5.852  10.866 -2.0863  2.3804  0.8797
36525SOL    HW214032   1.179   5.929  10.774 -0.1161 -0.0702  0.6976
36526SOL     OW14033   7.881   6.081  10.208  0.3008  0.0975 -0.1533
36526SOL    HW114034   7.796   6.046  10.237 -0.0873  1.0272 -0.1409
36526SOL    HW214035   7.931   6.093  10.289  1.5150 -2.9902 -0.2905
36527SOL     OW14036   0.914   1.924   3.893 -0.5307 -0.0650 -0.2058
36527SOL    HW114037   0.971   1.962   3.826  0.2864 -0.4923  0.2281
36527SOL    HW214038   0.922   1.984   3.968 -3.3109  1.7818 -1.2129
36528SOL     OW14039   5.617   0.028   1.675 -0.2392 -0.0944 -0.0816
36528SOL    HW114040   5.698  -0.003   1.714 -0.2817 -0.5257 -0.3294
36528SOL    HW214041   5.558   0.041   1.749 -0.4215 -1.2139 -0.0203
36529SOL     OW14042  11.062   1.439   4.820 -0.2665 -0.1154  0.0343
36529SOL    HW114043  11.104   1.359   4.851 -0.2072 -0.4837 -0.9865
36529SOL    HW214044  10.978   1.410   4.784  0.7513 -0.0701 -2.5235
36530SOL     OW14045   2.958   7.052   8.799  0.0800  0.2649  0.5602
36530SOL    HW114046   2.901   7.123   8.771  0.1550  0.5370  1.0933
36530SOL    HW214047   2.974   7.002   8.719  0.2291  0.9888  0.1278
36531SOL     OW14048   2.488   5.779   2.548 -0.0925 -0.2912 -0.5567
36531SOL    HW114049   2.563   5.719   2.541  0.0951 -0.5413  2.3386
36531SOL    HW214050   2.438   5.746   2.623 -0.9447  2.1752  0.0449
36532SOL     OW14051   2.491   8.123   3.378  0.4853 -0.7801 -0.7014
36532SOL    HW114052   2.445   8.128   3.295  0.6305  0.0597 -0.7434
36532SOL    HW214053   2.461   8.041   3.418 -2.5720  0.6147  0.1814
36533SOL     OW14054   0.244   7.791   8.171 -0.9320 -0.0365 -0.4463
36533SOL    HW114055   0.172   7.818   8.114 -1.5347  0.3898  0.4959
36533SOL    HW214056   0.272   7.871   8.215 -1.2638 -0.5430  0.7295
36534SOL     OW14057   0.459   0.871   6.505 -0.3417 -0.1835  0.2337
36534SOL    HW114058   0.474   0.801   6.441 -0.2118  0.3158 -0.2935
36534SOL    HW214059   0.479   0.831   6.590  0.9007 -0.4538 -0.1617
36535SOL     OW14060   9.331  11.045   7.883  0.9137  0.1207 -0.1667
36535SOL    HW114061   9.246  11.064   7.923 -0.0862  0.4193 -2.3124
36535SOL    HW214062   9.310  10.996   7.804  2.6958  0.8076 -1.1108
36536SOL     OW14063   1.480   9.039   3.848 -0.2204  0.4642 -0.3554
36536SOL    HW114064   1.555   8.985   3.873 -0.7976  0.3560  1.2068
36536SOL    HW214065   1.485   9.043   3.752  0.3682 -1.5852 -0.4523
36537SOL     OW14066   1.952   8.201   1.761 -0.3135 -0.4500  0.0062
36537SOL    HW114067   2.039   8.181   1.725 -0.4885 -1.8277  0.2915
36537SOL    HW214068   1.910   8.115   1.770 -1.5236  0.1611  0.3368
36538SOL     OW14069   5.930   9.586   5.427  0.5130 -0.4109 -0.2470
36538SOL    HW114070   5.857   9.628   5.382 -0.1585 -1.3505 -0.0565
36538SOL    HW214071   5.934   9.498   5.391  1.2530 -0.5315  0.0920
36539SOL     OW14072   4.517   4.444   4.696 -0.5115 -0.5333  0.0597
36539SOL    HW114073   4.478   4.467   4.611 -0.9601  1.6621  0.8073
36539SOL    HW214074   4.497   4.519   4.752  0.4195 -1.6293  1.9083
36540SOL     OW14075   8.528   7.149   5.487 -0.0791  0.6858 -0.0695
36540SOL    HW114076   8.530   7.244   5.500 -0.0148  0.7562 -0.5771
36540SOL    HW214077   8.475   7.116   5.559 -0.1980  1.1193  0.0438
36541SOL     OW14078  10.508   2.359   5.494  0.4427  0.3522 -0.4159
36541SOL    HW114079  10.526   2.423   5.426  1.1558  1.6945  0.9700
36541SOL    HW214080  10.414   2.342   5.487  0.1013  2.0652 -0.4200
36542SOL     OW14081   4.335   4.122   9.014 -0.1456 -0.6101 -0.0055
36542SOL    HW114082   4.291   4.179   9.077  0.0405 -0.6998  0.2083
36542SOL    HW214083   4.424   4.113   9.048 -0.1722 -1.0290 -0.0354
36543SOL     OW14084  11.069   5.264   0.974  0.7380  0.5568  0.0673
36543SOL    HW114085  11.042   5.172   0.965 -0.0214  0.9511 -2.3348
36543SOL    HW214086  11.164   5.259   0.987  1.2121 -0.5888 -2.9426
36544SOL     OW14087   8.154   0.482   4.433  0.5379 -0.1776  0.1740
36544SOL    HW114088   8.226   0.498   4.494 -1.6604  0.9223  2.6725
36544SOL    HW214089   8.131   0.569   4.400  0.6225 -0.5784 -0.9979
36545SOL     OW14090   1.530   0.977  10.194  0.1005 -0.5498 -0.3789
36545SOL    HW114091   1.469   0.905  10.179 -1.2656  0.6247 -0.6609
36545SOL    HW214092   1.567   0.995  10.107  0.3106 -0.7825 -0.3403
36546SOL     OW14093   6.560   8.261   1.261 -0.4317 -0.0844 -0.1087
36546SOL    HW114094   6.500   8.251   1.187 -1.6513  0.7507  0.7334
36546SOL    HW214095   6.510   8.230   1.336  0.0638  0.9852  0.6755
36547SOL     OW14096   0.838   8.874   7.425 -0.3527  0.0963 -0.5337
36547SOL    HW114097   0.863   8.789   7.462 -1.1022  0.2704  0.4182
36547SOL    HW214098   0.757   8.857   7.377  0.2301  0.0177 -1.5261
36548SOL     OW14099   4.404   3.379   0.953 -0.4180  0.6444 -0.5504
36548SOL    HW114100   4.350   3.326   0.894 -0.7359  0.8402 -0.4415
36548SOL    HW214101   4.399   3.335   1.037 -1.2902  1.2386 -0.2755
36549SOL     OW14102   4.868   6.559   2.090  0.6521  0.0896 -0.0761
36549SOL    HW114103   4.775   6.564   2.068  0.8194 -0.4716 -0.9567
36549SOL    HW214104   4.913   6.575   2.007  1.3214 -1.0155  0.0586
36550SOL     OW14105   1.228   2.100   7.957 -0.0265  0.3218 -0.4099
36550SOL    HW114106   1.194   2.060   8.037  1.1557  0.3933  0.1521
36550SOL    HW214107   1.186   2.186   7.954 -0.2060  0.2575  0.0463
36551SOL     OW14108   0.328  10.115   4.211  0.1851 -0.4350 -0.4861
36551SOL    HW114109   0.289  10.113   4.123  0.5501 -0.5151 -0.6504
36551SOL    HW214110   0.316  10.026   4.244  2.0478 -1.0721 -1.3620
36552SOL     OW14111   5.180   6.037   7.405  0.6532 -0.0005  0.0075
36552SOL    HW114112   5.153   5.967   7.464 -0.0412  0.1441 -0.1309
36552SOL    HW214113   5.141   6.116   7.443 -0.5722 -0.0381 -1.1443
36553SOL     OW14114   6.724   3.031   5.660  0.1123  0.1753 -0.5145
36553SOL    HW114115   6.736   3.126   5.660 -1.8123  0.5197  1.7553
36553SOL    HW214116   6.629   3.019   5.657  0.3345 -1.7223 -1.4038
36554SOL     OW14117   7.513   0.037   3.455 -0.1844  0.1321  0.1990
36554SOL    HW114118   7.579   0.045   3.524 -0.9522  1.3731  0.8487
36554SOL    HW214119   7.514  -0.055   3.430  0.8913 -0.1175  1.0901
36555SOL     OW14120   2.316   1.236   4.831  0.5528 -0.2323  0.1479
36555SOL    HW114121   2.316   1.140   4.826  1.3003 -0.1843 -1.6986
36555SOL    HW214122   2.235   1.262   4.787  1.4391 -0.0141 -1.4530
36556SOL     OW14123   9.915   3.309   8.106  0.5733 -0.4765  0.6011
36556SOL    HW114124   9.981   3.378   8.099  0.4600 -0.4434 -0.2220
36556SOL    HW214125   9.958   3.240   8.158  1.7478 -0.9962 -0.9953
36557SOL     OW14126   9.021   5.339   0.704 -0.2432 -0.8620 -0.0673
36557SOL    HW114127   8.976   5.399   0.645 -1.9226 -0.8846  1.1002
36557SOL    HW214128   9.114   5.359   0.694 -0.6388  0.5450 -1.1618
36558SOL     OW14129   8.618   0.373   2.747 -0.2222 -0.4015  0.1119
36558SOL    HW114130   8.531   0.340   2.725 -0.0528 -0.0596 -1.1010
36558SOL    HW214131   8.625   0.457   2.703  0.9767 -0.7358 -0.3889
36559SOL     OW14132   4.818   4.417   2.701 -0.0413  0.0783 -0.3826
36559SOL    HW114133   4.745   4.467   2.663 -1.0524 -0.2609  1.0540
36559SOL    HW214134   4.858   4.373   2.626 -1.0563  0.5892 -1.2551
36560SOL     OW14135  10.160   4.188   2.187  0.0741  0.2179  0.3555
36560SOL    HW114136  10.104   4.124   2.144  1.8163  0.1849 -2.1018
36560SOL    HW214137  10.104   4.229   2.253 -2.5061 -0.5078 -1.2340
36561SOL     OW14138   4.944   8.662   9.256  0.3852  0.1896  0.4798
36561SOL    HW114139   4.963   8.652   9.349 -0.7084  1.6189  0.8787
36561SOL    HW214140   4.850   8.648   9.248  0.7260 -1.8988 -0.7492
36562SOL     OW14141   2.417  10.020   1.269  0.0760  0.5367  0.1691
36562SOL    HW114142   2.366  10.037   1.349 -0.3350  0.8764 -0.1579
36562SOL    HW214143   2.490  10.082   1.273  0.7801 -0.3210  0.9081
36563SOL     OW14144   4.404   0.487   7.514  0.1491  0.1877  0.1906
36563SOL    HW114145   4.456   0.425   7.463  0.4832 -0.6903  1.5511
36563SOL    HW214146   4.397   0.564   7.458  3.2599  0.4966  0.0767
36564SOL     OW14147   1.892   3.335   5.801  0.4479 -0.3915 -0.0408
36564SOL    HW114148   1.917   3.251   5.763 -0.2557 -0.8704  0.5261
36564SOL    HW214149   1.956   3.349   5.871  1.3764  0.2029 -0.9809
36565SOL     OW14150  10.245   9.181   3.630 -0.4633  0.1992  0.0493
36565SOL    HW114151  10.277   9.270   3.645  0.3615 -0.4343  2.5736
36565SOL    HW214152  10.304   9.125   3.681 -1.1902 -1.7736 -1.1656
36566SOL     OW14153   1.912   0.393   9.232 -0.0837 -0.3830  0.0451
36566SOL    HW114154   1.930   0.383   9.326 -0.4558  0.5388  0.2185
36566SOL    HW214155   1.824   0.430   9.228 -0.0495 -0.3677 -0.6720
36567SOL     OW14156   9.834   2.738   1.763 -0.7067  0.0959 -0.0997
36567SOL    HW114157   9.811   2.646   1.777  1.6907 -0.3259  1.7141
36567SOL    HW214158   9.759   2.787   1.796 -1.8520 -1.1831 -0.7178
36568SOL     OW14159   1.678  10.169   5.939  0.7176  0.0680  0.0467
36568SOL    HW114160   1.651  10.258   5.920  1.9417  0.4043 -0.1780
36568SOL    HW214161   1.713  10.172   6.029 -0.6681 -0.5258  0.6358
36569SOL     OW14162   7.155   2.552   5.587  0.4868 -0.1982  0.9664
36569SOL    HW114163   7.167   2.469   5.540 -0.4262  0.2721 -0.1237
36569SOL    HW214164   7.070   2.543   5.629 -0.9753  1.2419 -1.4921
36570SOL     OW14165   9.357   3.674   4.390 -0.1029 -0.6663 -0.1434
36570SOL    HW114166   9.349   3.595   4.444 -0.5310  0.2829  1.2282
36570SOL    HW214167   9.334   3.746   4.449 -0.9705  0.3950 -1.7056
36571SOL     OW14168   4.385   3.487   6.357 -0.1890  0.1587 -0.4776
36571SOL    HW114169   4.310   3.459   6.409 -1.1546  1.8847 -0.8672
36571SOL    HW214170   4.426   3.556   6.410 -0.0502  0.5821 -1.1194
36572SOL     OW14171   0.731   7.625   6.555 -0.1324 -0.0477 -0.5529
36572SOL    HW114172   0.758   7.558   6.619  0.6606  0.2085 -0.6135
36572SOL    HW214173   0.812   7.666   6.528 -0.7321  2.4030  1.0529
36573SOL     OW14174   9.107   4.786   5.114 -0.0221  0.0159  0.6848
36573SOL    HW114175   9.063   4.736   5.182 -1.6747  0.3759 -0.0580
36573SOL    HW214176   9.135   4.867   5.157 -2.6289  1.0404  0.6180
36574SOL     OW14177   1.378   6.572   5.701 -0.4681 -0.3147  0.0606
36574SOL    HW114178   1.388   6.627   5.624 -1.7697  0.7943  0.6557
36574SOL    HW214179   1.289   6.588   5.732  0.2535 -0.1109  2.2562
36575SOL     OW14180   7.784   4.774   8.426 -0.4896  0.2078  0.0845
36575SOL    HW114181   7.832   4.852   8.399  1.1176 -0.4393  0.9987
36575SOL    HW214182   7.848   4.719   8.471 -1.9022 -1.0399  0.6786
36576SOL     OW14183   8.938   8.351   8.809  0.0159  0.3365  0.2315
36576SOL    HW114184   8.898   8.267   8.786 -0.0091  0.7615 -1.4467
36576SOL    HW214185   8.864   8.410   8.823 -0.0404  0.8560 -1.8360
36577SOL     OW14186   0.509   7.836   7.355  0.0818 -0.9905 -0.2788
36577SOL    HW114187   0.603   7.821   7.345  0.6278  1.0018  1.1817
36577SOL    HW214188   0.468   7.776   7.293  2.4130  0.0595 -3.0831
36578SOL     OW14189   3.009   4.557   2.449  0.0003  0.3978  0.0808
36578SOL    HW114190   2.945   4.488   2.466  0.8327 -0.0518  1.5574
36578SOL    HW214191   3.006   4.613   2.527  0.3794  1.1990 -0.4607
36579SOL     OW14192   2.610   0.161   3.663 -0.6355 -0.2432 -0.4844
36579SOL    HW114193   2.671   0.107   3.713  1.3690 -0.6162 -3.1075
36579SOL    HW214194   2.538   0.178   3.723  0.4627 -2.6163  1.6877
36580SOL     OW14195   5.380   5.670   7.390  0.7009 -0.1378 -0.1102
36580SOL    HW114196   5.310   5.687   7.326  0.0184 -0.2386  0.5972
36580SOL    HW214197   5.406   5.756   7.422 -0.2984 -0.1851  0.8774
36581SOL     OW14198   5.510   3.995   1.851 -0.3230  0.6333 -0.4048
36581SOL    HW114199   5.422   4.003   1.886 -0.6747  1.7081 -1.4568
36581SOL    HW214200   5.506   4.039   1.765  1.3120  1.0454 -0.3087
36582SOL     OW14201   5.512  10.967   1.093  0.0369 -0.1499 -0.2766
36582SOL    HW114202   5.485  10.986   1.183  1.2096  0.0614  0.0514
36582SOL    HW214203   5.430  10.965   1.043 -0.6306 -0.2769  0.7916
36583SOL     OW14204   6.891   1.656   2.576 -0.1410  0.2778  0.2396
36583SOL    HW114205   6.901   1.561   2.572  0.1399  0.3427 -0.6368
36583SOL    HW214206   6.802   1.672   2.544 -0.5599  0.2491  1.3276
36584SOL     OW14207   8.210   6.538   5.495  0.0639 -0.0899  0.5060
36584SOL    HW114208   8.269   6.466   5.519 -0.3473 -0.6822 -0.2302
36584SOL    HW214209   8.254   6.616   5.528 -0.1195 -0.7697  2.5210
36585SOL     OW14210   2.637   1.336   8.714  0.1759 -0.3490 -0.6019
36585SOL    HW114211   2.597   1.251   8.730 -1.2901  0.3859 -0.2735
36585SOL    HW214212   2.731   1.317   8.711 -0.0430 -1.8147  0.4932
36586SOL     OW14213   0.396   2.231   4.801 -0.0070  0.8168 -0.0253
36586SOL    HW114214   0.484   2.220   4.836  0.3543 -1.3453 -1.4264
36586SOL    HW214215   0.342   2.170   4.853 -0.1836  0.3810 -0.6977
36587SOL     OW14216   9.054   6.009  10.466  0.1585 -0.1086  0.7451
36587SOL    HW114217   9.088   5.958  10.539  1.7227  0.1292  0.2093
36587SOL    HW214218   9.074   6.100  10.489 -2.2600  0.3197  1.5085
36588SOL     OW14219   3.882   9.813   6.168 -0.2952 -0.1661  0.2113
36588SOL    HW114220   3.916   9.733   6.127  1.7204 -0.1231  1.6433
36588SOL    HW214221   3.815   9.782   6.228  0.3895 -0.8003  0.6753
36589SOL     OW14222  11.026   8.808   3.683 -0.0580  0.7763 -0.5559
36589SOL    HW114223  10.980   8.739   3.637  3.4801 -2.4745  0.2879
36589SOL    HW214224  10.982   8.815   3.767 -1.0503  0.2681 -1.0214
36590SOL     OW14225   4.914   3.613   9.377  0.9959 -0.0867 -0.2566
36590SOL    HW114226   4.820   3.610   9.393  1.0572 -1.2603 -0.0486
36590SOL    HW214227   4.926   3.688   9.319 -0.1668 -0.4174 -0.9562
36591SOL     OW14228   7.669   5.146   0.052 -0.0734  0.0227  0.6872
36591SOL    HW114229   7.593   5.124  -0.002 -0.0239  0.4409  0.4431
36591SOL    HW214230   7.645   5.118   0.140 -0.0468 -0.9275  0.4016
36592SOL     OW14231   6.551   2.903   0.368 -0.4187  0.0678  0.0636
36592SOL    HW114232   6.492   2.890   0.442 -0.4872  1.5902  0.3157
36592SOL    HW214233   6.492   2.909   0.292 -0.3502 -1.4581 -0.1416
36593SOL     OW14234   0.980   8.046   4.241  0.9188  0.6813  0.7349
36593SOL    HW114235   1.041   8.088   4.180  1.9707 -2.3352 -0.4733
36593SOL    HW214236   1.007   7.954   4.243 -2.1743 -0.3342  1.9881
36594SOL     OW14237   7.666   1.368   5.392 -0.4095 -0.1169 -0.0738
36594SOL    HW114238   7.716   1.448   5.376 -0.0186 -0.5835 -1.3139
36594SOL    HW214239   7.615   1.387   5.470  0.9034  0.7566  0.6102
36595SOL     OW14240   1.815  10.415   9.570 -0.5135 -0.2902  0.0363
36595SOL    HW114241   1.773  10.460   9.643 -2.2183  0.5722 -1.3842
36595SOL    HW214242   1.742  10.389   9.513  0.7891 -0.1644 -1.7801
36596SOL     OW14243   0.199   0.853   6.436 -0.2733 -0.1848 -0.0875
36596SOL    HW114244   0.179   0.784   6.500 -1.5106  0.7594  0.5898
36596SOL    HW214245   0.277   0.897   6.470 -0.0345 -0.6434 -0.0363
36597SOL     OW14246   5.567   6.670   2.259 -0.0856  0.0436  0.3967
36597SOL    HW114247   5.484   6.713   2.236 -0.0633 -0.0073  0.2165
36597SOL    HW214248   5.633   6.738   2.244  0.0267 -0.2543 -0.5677
36598SOL     OW14249  10.608  10.088   9.676  0.2970  0.2547 -0.7568
36598SOL    HW114250  10.624  10.183   9.680 -2.3045  0.7457  0.3084
36598SOL    HW214251  10.627  10.057   9.764 -0.4990  0.1222 -0.6246
36599SOL     OW14252   2.212   3.496   6.882 -0.2410 -0.1434  0.2150
36599SOL    HW114253   2.170   3.511   6.797 -0.2267 -1.1503  0.0104
36599SOL    HW214254   2.265   3.417   6.868  1.0837  0.6232  0.6971
36600SOL     OW14255  10.171   8.999  10.130 -0.0786  0.3668  0.8360
36600SOL    HW114256  10.158   8.908  10.156 -1.9704  0.3172 -0.1362
36600SOL    HW214257  10.264   9.015  10.146  0.7777 -2.3203 -0.7394
36601SOL     OW14258   6.189   3.688   0.371 -0.1836 -0.0044 -0.5751
36601SOL    HW114259   6.233   3.764   0.333 -2.0424  1.0485 -0.7375
36601SOL    HW214260   6.260   3.636   0.408  1.1602  1.8534 -0.3772
36602SOL     OW14261   1.489   8.714   6.114 -0.2838  0.5657  0.2122
36602SOL    HW114262   1.504   8.661   6.192  0.0386 -0.3484 -0.4484
36602SOL    HW214263   1.538   8.795   6.130  0.5503  0.0024  0.5608
36603SOL     OW14264   5.005   5.666   2.321 -0.9544 -0.1094  0.4806
36603SOL    HW114265   4.919   5.631   2.342 -0.7249 -0.5586  0.6881
36603SOL    HW214266   5.053   5.592   2.283 -0.6808  0.1529  0.3061
36604SOL     OW14267   6.011   4.934  10.753  0.0938  0.2142  0.5659
36604SOL    HW114268   5.957   5.012  10.746 -0.8058 -0.5091 -0.8238
36604SOL    HW214269   6.027   4.925  10.847  1.2185  2.6992  0.6939
36605SOL     OW14270   6.403   5.650   9.196 -1.1450 -0.1251 -0.1754
36605SOL    HW114271   6.488   5.692   9.187 -1.0661 -0.6435 -2.4980
36605SOL    HW214272   6.354   5.707   9.255  1.1328 -0.4123  2.1694
36606SOL     OW14273   4.299   2.975   3.002 -0.4123 -0.1618  0.4846
36606SOL    HW114274   4.302   2.979   2.907  0.8571 -1.0910  0.4546
36606SOL    HW214275   4.343   2.893   3.024 -1.6928 -0.5467  1.8368
36607SOL     OW14276   0.998   4.400   8.011 -0.3145  0.8173  0.0513
36607SOL    HW114277   1.042   4.469   8.060  0.7156  0.7114 -0.6819
36607SOL    HW214278   1.041   4.319   8.040 -1.6238  0.4408  1.0287
36608SOL     OW14279   1.652   1.613   0.765  0.3381  0.1104 -0.3143
36608SOL    HW114280   1.735   1.637   0.725  0.3794 -0.6912 -0.7400
36608SOL    HW214281   1.600   1.578   0.692 -0.1491  0.0468  0.0575
36609SOL     OW14282   3.012   9.073   4.283 -0.2335  0.1283  0.5752
36609SOL    HW114283   2.983   9.033   4.366  1.7046 -0.3481  1.0672
36609SOL    HW214284   2.985   9.010   4.216 -0.8632 -0.0064  0.9390
36610SOL     OW14285   6.668   7.432   8.978 -0.1342  0.2513 -0.1310
36610SOL    HW114286   6.740   7.416   8.918 -0.1624  1.7608 -0.6010
36610SOL    HW214287   6.596   7.377   8.945  0.3064 -0.0528 -0.5899
36611SOL     OW14288   5.234   2.097   8.634  0.2152  0.1728  0.3912
36611SOL    HW114289   5.264   2.049   8.711  0.7589 -1.7600 -0.9474
36611SOL    HW214290   5.304   2.159   8.615  0.3662  0.2094  1.0546
36612SOL     OW14291   1.848   9.329   2.437  0.1388 -0.2266 -0.2651
36612SOL    HW114292   1.798   9.260   2.480 -0.9487  1.2309  0.9278
36612SOL    HW214293   1.871   9.390   2.507 -0.2243  1.3581 -1.4442
36613SOL     OW14294   0.531   4.941   2.983  0.6150  0.4608 -0.2200
36613SOL    HW114295   0.534   4.880   2.909  0.8807  0.3285 -0.1030
36613SOL    HW214296   0.440   4.970   2.987  0.7104  0.8768 -0.9295
36614SOL     OW14297   1.145  10.414   2.428 -0.1558  0.2313 -0.5034
36614SOL    HW114298   1.213  10.415   2.361 -0.7338  0.5443 -1.0973
36614SOL    HW214299   1.071  10.370   2.386  0.0815 -1.2726  0.5592
36615SOL     OW14300   7.856   9.494   7.003  0.2652  0.2652 -0.1825
36615SOL    HW114301   7.890   9.455   7.084  0.5697 -0.8404 -0.8097
36615SOL    HW214302   7.798   9.426   6.967  0.2215  0.6887 -0.9377
36616SOL     OW14303   1.675   2.364   2.880  0.5174 -0.4026 -0.2471
36616SOL    HW114304   1.661   2.285   2.827  0.8001 -0.6419  0.0360
36616SOL    HW214305   1.607   2.424   2.850  1.2738 -0.1705 -1.5939
36617SOL     OW14306   4.897   1.750  10.839 -0.3089 -0.2562  0.5880
36617SOL    HW114307   4.969   1.750  10.902 -0.4643 -2.6917  0.8420
36617SOL    HW214308   4.932   1.795  10.762  1.0420 -0.2720  1.1663
36618SOL     OW14309   7.254   8.194   2.321  0.3062  0.5507  0.0300
36618SOL    HW114310   7.170   8.239   2.319  0.3255  0.5613 -0.7175
36618SOL    HW214311   7.319   8.264   2.314  0.3241  0.3888 -2.1492
36619SOL     OW14312   2.408   2.697   2.610  0.0339 -0.2730 -0.0791
36619SOL    HW114313   2.362   2.669   2.690  3.0006 -2.0420  1.2077
36619SOL    HW214314   2.339   2.731   2.553 -2.4355 -0.2770  2.6517
36620SOL     OW14315   7.903   7.092   6.540  0.5944 -0.1467 -0.3678
36620SOL    HW114316   7.902   7.079   6.635  0.6995 -1.2272 -0.4976
36620SOL    HW214317   7.946   7.176   6.527 -1.0096  0.8658  0.6208
36621SOL     OW14318   1.603   1.167   4.611 -0.1696 -0.1463  0.0123
36621SOL    HW114319   1.558   1.219   4.677  1.2151  0.3769  0.5892
36621SOL    HW214320   1.657   1.230   4.564  4.7331 -1.2756  3.3143
36622SOL     OW14321   9.718   5.016   8.365 -0.3095 -0.3094 -0.6148
36622SOL    HW114322   9.802   5.058   8.381 -1.0431  1.6371 -1.5138
36622SOL    HW214323   9.653   5.078   8.398 -1.4401 -1.0584 -1.3435
36623SOL     OW14324   6.466   7.377   5.118 -0.5163  0.5362  0.0037
36623SOL    HW114325   6.536   7.321   5.084 -1.3960  0.4839 -1.8477
36623SOL    HW214326   6.409   7.392   5.043 -1.3576  2.3262  0.9384
36624SOL     OW14327   8.987   5.414   7.659 -0.0096 -1.0069  0.0450
36624SOL    HW114328   8.894   5.413   7.634 -0.0379  0.0763  0.0692
36624SOL    HW214329   9.003   5.326   7.695 -1.1355 -1.0687  0.4401
36625SOL     OW14330   4.719   0.581   2.986  0.0242 -0.5909  0.2153
36625SOL    HW114331   4.776   0.607   2.913  1.6630  1.3887  2.0453
36625SOL    HW214332   4.635   0.622   2.967  0.7042  0.6991 -0.1804
36626SOL     OW14333   1.001   2.078   1.649 -0.1895 -0.1389 -0.5100
36626SOL    HW114334   0.925   2.049   1.700 -0.9571  0.2219 -1.4125
36626SOL    HW214335   0.968   2.151   1.598  1.1097  0.8184 -0.0149
36627SOL     OW14336   9.121   5.155   9.149  0.0088  0.3272  0.1642
36627SOL    HW114337   9.116   5.181   9.241  0.7477  2.8751 -0.4532
36627SOL    HW214338   9.156   5.066   9.151 -0.0696  0.2985  2.3270
36628SOL     OW14339   4.244   2.958   8.442  0.1802  0.3083  0.3325
36628SOL    HW114340   4.263   3.035   8.387  0.0864  0.4203  0.4573
36628SOL    HW214341   4.163   2.922   8.406 -0.0904  0.6064  0.6401
36629SOL     OW14342   8.724   1.668   8.678 -0.0022 -0.0912  0.4602
36629SOL    HW114343   8.723   1.725   8.600 -1.4062 -0.5304  0.1178
36629SOL    HW214344   8.808   1.686   8.720  0.7987  0.1537 -1.1626
36630SOL     OW14345   2.591   7.925   5.277 -0.0106  0.3675 -0.0676
36630SOL    HW114346   2.554   7.969   5.201 -0.7532 -0.4142 -0.1723
36630SOL    HW214347   2.674   7.971   5.294 -0.0170  0.7805 -1.1107
36631SOL     OW14348   1.578   7.917   1.525 -0.1432  0.2944  0.5982
36631SOL    HW114349   1.489   7.906   1.557 -0.9534  1.5726 -1.0238
36631SOL    HW214350   1.610   7.827   1.510 -0.7828 -0.2028  2.0847
36632SOL     OW14351   8.714   2.485   2.977 -0.2363 -0.5567 -0.2955
36632SOL    HW114352   8.784   2.533   3.021  1.1856 -0.8581 -2.1094
36632SOL    HW214353   8.696   2.536   2.898 -1.6500 -0.8267 -0.1743
36633SOL     OW14354   5.087   0.296   7.056  0.1278 -0.1567 -0.2250
36633SOL    HW114355   5.173   0.320   7.092 -0.6142 -1.7830  2.9903
36633SOL    HW214356   5.107   0.232   6.987  1.5186  1.1762 -1.1419
36634SOL     OW14357   7.694  10.802   3.617 -0.0969  0.0896  0.3728
36634SOL    HW114358   7.638  10.781   3.542  2.4024 -0.2618 -1.5416
36634SOL    HW214359   7.676  10.894   3.637  0.1266  0.5936 -1.5815
36635SOL     OW14360   5.955   2.700   9.284  0.1568 -0.4309  0.9613
36635SOL    HW114361   6.035   2.739   9.321 -0.1947 -0.6051  1.9497
36635SOL    HW214362   5.973   2.606   9.282 -0.6891 -0.6848  2.9931
36636SOL     OW14363   6.650   9.032   1.713 -0.0219  0.3078 -1.1790
36636SOL    HW114364   6.679   8.947   1.745 -0.5508 -0.0962 -1.7270
36636SOL    HW214365   6.716   9.057   1.649  0.1482  0.3112 -0.9995
36637SOL     OW14366   5.032   7.877   2.960  0.6601  0.2878  0.3777
36637SOL    HW114367   5.056   7.883   3.052  0.9770  1.1692  0.2481
36637SOL    HW214368   5.070   7.795   2.930  1.7576  0.6639  0.6953
36638SOL     OW14369  11.018   2.516   7.744  0.4478  0.0573 -0.6378
36638SOL    HW114370  11.020   2.529   7.649 -0.0848 -0.3921 -0.7147
36638SOL    HW214371  10.931   2.547   7.770  0.7326  0.5447 -0.2358
36639SOL     OW14372   3.651   7.894   6.430 -0.2666 -0.3787  0.0638
36639SOL    HW114373   3.694   7.821   6.385 -0.9103  0.3976 -1.9464
36639SOL    HW214374   3.558   7.881   6.412 -0.6824 -0.5864  2.1226
36640SOL     OW14375   6.592  10.649  10.685 -0.2031 -0.6505  0.1882
36640SOL    HW114376   6.627  10.598  10.612 -0.1317  0.5406 -0.6281
36640SOL    HW214377   6.621  10.739  10.669 -2.3434  0.1246  0.2753
36641SOL     OW14378   0.092   9.238   5.702 -0.1894 -0.0314  0.2285
36641SOL    HW114379   0.000   9.229   5.727 -0.9163 -0.6704 -2.4109
36641SOL    HW214380   0.135   9.163   5.743 -1.2259 -0.7875 -0.0169
36642SOL     OW14381   2.578   2.161   8.639 -0.2988  0.3236 -0.2350
36642SOL    HW114382   2.486   2.150   8.618 -0.2564 -0.5099 -0.0345
36642SOL    HW214383   2.621   2.087   8.596 -0.1669 -1.2692  2.4336
36643SOL     OW14384   0.060   5.439   7.256  0.5307 -0.1944 -0.5508
36643SOL    HW114385   0.128   5.440   7.189  1.2478  0.3808  0.1604
36643SOL    HW214386   0.058   5.348   7.286  3.1188  0.2983  1.4708
36644SOL     OW14387   2.520  10.759   5.905 -0.5021 -0.3699 -0.0876
36644SOL    HW114388   2.456  10.810   5.954  0.1104  0.5940 -0.2762
36644SOL    HW214389   2.492  10.768   5.814  0.9139  1.5924 -0.3807
36645SOL     OW14390   6.328   4.522   5.394  0.0816 -0.2175 -0.1490
36645SOL    HW114391   6.395   4.549   5.457 -0.3461 -0.3729  0.3802
36645SOL    HW214392   6.269   4.466   5.444  0.2790 -1.1535 -0.9418
36646SOL     OW14393   7.544   7.898   5.805 -0.6013 -0.2300 -0.5971
36646SOL    HW114394   7.560   7.867   5.716 -2.7136 -1.5729 -0.5789
36646SOL    HW214395   7.518   7.820   5.853  2.8835 -0.0295  1.9312
36647SOL     OW14396   1.409   4.942   3.434 -0.5181 -0.4927  0.1709
36647SOL    HW114397   1.487   4.945   3.379  0.3060 -2.9276  1.0681
36647SOL    HW214398   1.438   4.901   3.515 -2.4575 -0.2729  1.0367
36648SOL     OW14399   6.054  10.277   7.250  0.5002  0.0273 -0.0572
36648SOL    HW114400   6.135  10.290   7.200  0.8135 -0.4615  0.3034
36648SOL    HW214401   6.070  10.197   7.300 -0.4521 -0.4405 -0.4670
36649SOL     OW14402   7.906   7.452   3.193  0.1887 -0.2122  0.1608
36649SOL    HW114403   7.994   7.431   3.161  0.1316  1.3398 -1.1343
36649SOL    HW214404   7.916   7.535   3.239 -0.2329 -1.1229  2.0000
36650SOL     OW14405   4.135   0.287   1.374  0.1717 -0.4298 -0.5955
36650SOL    HW114406   4.108   0.304   1.465  1.2355  0.8832 -0.5022
36650SOL    HW214407   4.113   0.367   1.328  2.6560  0.2081 -0.7894
36651SOL     OW14408   4.284   9.570   4.382 -0.2332 -0.5436 -0.3126
36651SOL    HW114409   4.198   9.610   4.393  0.5542  0.9674  0.6604
36651SOL    HW214410   4.307   9.588   4.291 -0.0960  0.8503 -0.0185
36652SOL     OW14411   6.516   7.815   6.341  0.0484  0.4659  0.3379
36652SOL    HW114412   6.529   7.770   6.258 -1.5044  0.4128  0.1055
36652SOL    HW214413   6.594   7.792   6.393  0.6466 -0.1473 -0.7915
36653SOL     OW14414   9.648  11.016   8.830 -0.3937  0.2771  0.4123
36653SOL    HW114415   9.624  10.927   8.854 -1.0344  0.3443  0.0506
36653SOL    HW214416   9.565  11.058   8.807  0.1047  0.3567 -1.4355
36654SOL     OW14417   6.880   0.615   4.040  0.1515 -0.2637  0.3119
36654SOL    HW114418   6.867   0.697   4.087 -0.7124 -1.1207  1.6123
36654SOL    HW214419   6.975   0.603   4.040  0.1950 -0.0492  1.5050
36655SOL     OW14420   7.137   6.402   0.643 -0.3066  0.4877 -0.4000
36655SOL    HW114421   7.043   6.387   0.628  0.1090 -1.6999 -1.1675
36655SOL    HW214422   7.177   6.317   0.628  1.5063  0.6230  2.7233
36656SOL     OW14423  10.175   3.525   0.205 -0.8835 -0.1798 -0.0677
36656SOL    HW114424  10.246   3.587   0.220 -1.6230  0.6289  0.1532
36656SOL    HW214425  10.096   3.578   0.208 -1.4647 -0.9733 -0.8965
36657SOL     OW14426   4.150   3.297   5.653 -0.6049  0.4073 -0.2011
36657SOL    HW114427   4.074   3.249   5.686  1.2722 -1.4218  1.7385
36657SOL    HW214428   4.222   3.234   5.655  1.4750  2.6278  0.1754
36658SOL     OW14429   6.379   2.197   6.467  0.2590  0.0351 -0.6683
36658SOL    HW114430   6.390   2.182   6.373  0.6654  0.4184 -0.6817
36658SOL    HW214431   6.363   2.291   6.475 -1.9085 -0.2827 -0.5447
36659SOL     OW14432   7.403   3.430   9.513 -0.2807  0.0082 -0.0024
36659SOL    HW114433   7.438   3.341   9.503 -0.3482  0.1318 -1.5969
36659SOL    HW214434   7.365   3.450   9.427 -0.7207  1.3866  0.5000
36660SOL     OW14435   6.867   1.418   1.141 -0.4444 -0.0186 -0.7692
36660SOL    HW114436   6.913   1.380   1.067  1.5760  0.5646  0.1017
36660SOL    HW214437   6.916   1.499   1.160  0.6389 -1.2761  2.5973
36661SOL     OW14438   3.865   3.433   8.149  0.7956 -0.0608 -0.7336
36661SOL    HW114439   3.782   3.441   8.195  1.1497  0.9068 -0.2587
36661SOL    HW214440   3.856   3.491   8.074  0.0324 -1.9796 -2.2412
36662SOL     OW14441   3.815  10.637   3.950 -0.0973  0.3207  0.0531
36662SOL    HW114442   3.737  10.616   3.898 -0.2218  0.4337  0.1923
36662SOL    HW214443   3.868  10.558   3.948 -0.1707  0.2746 -0.1224
36663SOL     OW14444  10.473   2.990   7.012 -0.4316  0.2993 -0.2465
36663SOL    HW114445  10.422   2.932   6.955  0.3133  0.1386 -0.7643
36663SOL    HW214446  10.501   2.934   7.084  0.6636 -0.1159 -0.9731
36664SOL     OW14447   6.723  10.172  10.306 -0.3008 -0.5849  0.5811
36664SOL    HW114448   6.810  10.134  10.314 -0.7315 -1.4900  1.2948
36664SOL    HW214449   6.699  10.196  10.396 -1.3910 -1.8178  0.6645
36665SOL     OW14450   8.848   6.856   6.449  0.0702  0.2966  0.0198
36665SOL    HW114451   8.928   6.898   6.417  1.4467 -1.4186  1.0186
36665SOL    HW214452   8.820   6.911   6.523  0.8532  0.4245  0.2324
36666SOL     OW14453   4.591   4.377   4.097 -0.3762  0.5585 -0.2235
36666SOL    HW114454   4.602   4.380   4.002 -0.8706 -0.8028 -0.3488
36666SOL    HW214455   4.674   4.343   4.130 -0.4071  0.4880 -0.2181
36667SOL     OW14456  10.301   5.005   3.840 -0.1579 -0.7941 -0.1953
36667SOL    HW114457  10.267   5.043   3.759 -1.0494 -0.1392  0.4697
36667SOL    HW214458  10.396   5.010   3.831 -0.2475 -0.7437 -1.2062
36668SOL     OW14459   7.470   4.038   8.411  0.1651 -0.2757  0.8388
36668SOL    HW114460   7.423   4.044   8.494 -1.9489  1.1136 -0.3628
36668SOL    HW214461   7.488   3.944   8.401 -1.2737 -0.7197  1.9625
36669SOL     OW14462   9.519  11.048   9.552  0.0919 -0.2672  0.2253
36669SOL    HW114463   9.601  11.029   9.507  0.5737  1.5819  0.2472
36669SOL    HW214464   9.527  11.004   9.637  0.0729 -1.9836 -0.6181
36670SOL     OW14465   2.054   7.779   2.711 -0.3687 -0.0446  0.2775
36670SOL    HW114466   2.068   7.861   2.662  0.1513 -0.8645 -0.9904
36670SOL    HW214467   2.140   7.757   2.745  0.0041 -1.2692 -1.3653
36671SOL     OW14468   4.872  10.841   4.278  1.1772 -0.2368  0.2723
36671SOL    HW114469   4.930  10.889   4.337  1.5636 -1.4810  0.9464
36671SOL    HW214470   4.849  10.761   4.326  0.6108 -0.7601 -0.8262
36672SOL     OW14471   2.230   6.969   7.101  0.0354  0.3249 -0.0207
36672SOL    HW114472   2.312   6.922   7.092  0.6015  0.8063  1.9744
36672SOL    HW214473   2.250   7.040   7.163 -1.5531  1.2685 -0.5192
36673SOL     OW14474   2.549   1.104   3.765 -0.2254 -0.1296  0.0932
36673SOL    HW114475   2.530   1.061   3.848 -0.5413  1.6463  0.9890
36673SOL    HW214476   2.463   1.134   3.733 -0.1691 -1.1930 -1.1228
36674SOL     OW14477   6.206   4.856   5.936  0.4966 -0.0033 -0.2746
36674SOL    HW114478   6.186   4.908   5.858  2.1384  1.1228  0.0082
36674SOL    HW214479   6.214   4.920   6.006 -0.4340 -0.9550  0.7440
36675SOL     OW14480   4.861   1.940   3.105 -0.0400  0.2703 -0.5099
36675SOL    HW114481   4.917   2.013   3.132  2.2317 -1.4811 -0.1647
36675SOL    HW214482   4.778   1.955   3.150  0.3292  2.6540 -0.5210
36676SOL     OW14483   4.055   0.108   0.926 -0.7321  0.7533  0.4883
36676SOL    HW114484   4.040   0.128   0.833 -2.4691  2.4384  1.0704
36676SOL    HW214485   3.990   0.041   0.947 -0.2969  0.3259  0.4854
36677SOL     OW14486   0.956   3.708  10.618 -0.5075  0.7021 -0.3100
36677SOL    HW114487   0.949   3.704  10.523 -0.8424  1.3686 -0.3152
36677SOL    HW214488   0.872   3.673  10.649 -0.5480  0.8421 -0.2626
36678SOL     OW14489   6.007   6.452   7.816 -0.2260  0.2108  0.2369
36678SOL    HW114490   5.983   6.526   7.761 -0.6066 -0.3707 -0.3867
36678SOL    HW214491   5.964   6.376   7.776 -0.0733 -0.3104  1.0217
36679SOL     OW14492   4.623   1.462   6.036 -0.0890 -0.1817 -0.0894
36679SOL    HW114493   4.666   1.546   6.021 -0.3776 -0.1195 -0.5637
36679SOL    HW214494   4.531   1.478   6.017  0.1053 -1.0520 -1.9854
36680SOL     OW14495   6.337   3.462   7.637 -0.5390  0.0606  0.0996
36680SOL    HW114496   6.429   3.484   7.626 -0.5313  1.2494  2.1562
36680SOL    HW214497   6.317   3.406   7.561  1.2822  1.4802 -1.5383
36681SOL     OW14498   0.052   5.434   2.947 -0.1539  0.0880  0.0951
36681SOL    HW114499   0.022   5.520   2.917 -0.2088  0.3162  0.7972
36681SOL    HW214500   0.147   5.442   2.953 -0.0408 -0.2838 -1.0230
36682SOL     OW14501   0.579   5.978   1.223  0.3006  0.0908  0.2245
36682SOL    HW114502   0.622   5.904   1.181  1.3617  0.3176  0.8889
36682SOL    HW214503   0.486   5.965   1.205  0.5450 -0.9624 -0.3459
36683SOL     OW14504   7.881   3.672   8.311 -0.3238  0.4233 -0.2429
36683SOL    HW114505   7.949   3.686   8.245 -0.4023 -1.7417 -0.8685
36683SOL    HW214506   7.799   3.679   8.262 -0.4185 -0.0719 -0.1609
36684SOL     OW14507   6.553  10.416   1.276  0.3441 -0.2326 -0.1457
36684SOL    HW114508   6.474  10.457   1.242 -0.6994 -1.2674  0.8944
36684SOL    HW214509   6.522  10.363   1.349  2.1637  0.1308  0.9480
36685SOL     OW14510   1.606   2.988  10.482 -0.3059  0.2318  0.0580
36685SOL    HW114511   1.679   3.042  10.511  0.2846  0.4964 -1.7621
36685SOL    HW214512   1.594   3.012  10.390  1.1699 -3.9337 -1.4406
36686SOL     OW14513   0.710   4.669  10.319  0.1955  0.1725 -0.3236
36686SOL    HW114514   0.700   4.655  10.413 -1.5786 -0.1586 -0.5102
36686SOL    HW214515   0.621   4.691  10.289  0.5245 -0.6598 -2.0527
36687SOL     OW14516  10.231   8.649  10.280  0.1771  0.0423 -0.5427
36687SOL    HW114517  10.157   8.703  10.251 -0.1017  0.5720  1.0784
36687SOL    HW214518  10.261   8.690  10.361 -0.0641 -2.2253  0.7864
36688SOL     OW14519   1.413   8.050   9.267  0.1735  0.3241 -0.1020
36688SOL    HW114520   1.407   8.055   9.362  0.2779  2.9343 -0.1806
36688SOL    HW214521   1.500   8.013   9.251  0.0563 -0.3696  0.7948
36689SOL     OW14522   9.480   7.554   1.082  1.2178 -0.2306 -0.4757
36689SOL    HW114523   9.562   7.570   1.128  0.8751  0.4337 -0.0820
36689SOL    HW214524   9.490   7.466   1.045  2.1867 -0.0690 -0.6201
36690SOL     OW14525   2.421   9.382   9.661  0.2022  0.2011  0.6208
36690SOL    HW114526   2.339   9.430   9.671  0.5289  0.4947  2.1692
36690SOL    HW214527   2.451   9.403   9.573 -0.8459  0.9242  0.4153
36691SOL     OW14528   9.090   7.236   0.111 -0.2150 -0.0158  0.9179
36691SOL    HW114529   9.095   7.251   0.017 -0.6427  0.5112  0.9718
36691SOL    HW214530   9.073   7.323   0.148  1.2981  0.0155  1.5951
36692SOL     OW14531   7.816   1.547   6.209  0.2994  0.1116  0.4163
36692SOL    HW114532   7.874   1.472   6.224 -0.0430 -0.2513 -0.0235
36692SOL    HW214533   7.805   1.587   6.295 -0.2307 -0.8876  0.8329
36693SOL     OW14534   2.870   0.618   0.728  0.1878  0.7985  0.1621
36693SOL    HW114535   2.816   0.646   0.802  0.0104  0.9011 -0.0053
36693SOL    HW214536   2.807   0.590   0.661  0.2911  2.0025 -0.4760
36694SOL     OW14537  10.724   3.162   7.297  0.4282  0.0671 -0.0912
36694SOL    HW114538  10.702   3.213   7.374  1.8481  3.6349 -1.8358
36694SOL    HW214539  10.650   3.176   7.237 -0.4529 -2.3032  0.3036
36695SOL     OW14540   8.409   3.537   7.491 -0.2940 -0.6791 -0.1386
36695SOL    HW114541   8.320   3.538   7.526  0.2039 -1.5560  1.2263
36695SOL    HW214542   8.465   3.553   7.568  0.7421 -0.4425 -0.9191
36696SOL     OW14543   3.811   7.219   1.349 -0.3814 -0.5960 -0.2461
36696SOL    HW114544   3.818   7.175   1.434  0.3636 -0.6479 -0.3279
36696SOL    HW214545   3.782   7.307   1.369  2.9168  0.4622  0.3969
36697SOL     OW14546   5.371   7.822   1.164 -0.2478  0.5121  0.2515
36697SOL    HW114547   5.430   7.747   1.167 -1.8123 -0.7214  2.3324
36697SOL    HW214548   5.284   7.784   1.153 -0.8136  2.2792 -2.6660
36698SOL     OW14549   3.672  10.182   9.894 -0.7072  0.0525  0.5346
36698SOL    HW114550   3.742  10.242   9.867 -2.8504  2.4805 -0.0774
36698SOL    HW214551   3.688  10.167   9.987  1.0789 -0.1695  0.2196
36699SOL     OW14552   5.452   3.780   0.463  0.6681 -0.3061 -0.1732
36699SOL    HW114553   5.394   3.731   0.521 -2.9582  1.8278 -1.6420
36699SOL    HW214554   5.533   3.729   0.460 -0.5344 -2.7394  3.2208
36700SOL     OW14555   5.674   2.466   6.906 -0.1980 -0.5860 -0.5560
36700SOL    HW114556   5.590   2.503   6.931  0.1776 -0.4384  0.5405
36700SOL    HW214557   5.727   2.542   6.881 -0.4919 -0.7103 -1.5836
36701SOL     OW14558   4.816   4.612   6.305 -0.2128  0.2176  0.1948
36701SOL    HW114559   4.854   4.611   6.393  0.8614  2.8326 -0.1498
36701SOL    HW214560   4.741   4.671   6.312 -1.9598 -1.8309 -0.0570
36702SOL     OW14561   2.541   1.994   8.958 -0.2293 -0.7019 -0.5313
36702SOL    HW114562   2.573   2.074   8.998 -1.9495 -1.0222  1.6955
36702SOL    HW214563   2.446   2.007   8.951 -0.5147 -2.4193 -0.3394
36703SOL     OW14564   8.639   0.977   2.104  0.1474  0.6576  0.0386
36703SOL    HW114565   8.635   0.979   2.008  2.7776  1.1264 -0.1420
36703SOL    HW214566   8.649   1.068   2.130 -1.7317  0.6638  0.9097
36704SOL     OW14567   6.083   3.882   3.370  0.3055  0.4176 -0.6136
36704SOL    HW114568   6.024   3.891   3.445 -1.0762  1.3349 -1.7710
36704SOL    HW214569   6.161   3.932   3.395  0.0226  0.4085  0.3473
36705SOL     OW14570   7.701   7.018   1.750 -0.3654 -0.0420  0.3028
36705SOL    HW114571   7.675   7.094   1.698  1.1296  0.5317  0.3562
36705SOL    HW214572   7.673   7.040   1.839 -1.1397 -0.1529  0.0922
36706SOL     OW14573   4.997   6.437   1.816 -0.0040 -0.2278 -0.1890
36706SOL    HW114574   5.091   6.417   1.818  0.0617  0.1133  0.8946
36706SOL    HW214575   4.977   6.449   1.723  0.7382 -1.5995 -0.5542
36707SOL     OW14576   2.646  11.009  10.194  0.5195 -0.2521  0.0100
36707SOL    HW114577   2.607  10.935  10.241  2.2537 -0.9676  0.3918
36707SOL    HW214578   2.629  10.990  10.102  0.7569 -1.0257  0.1179
36708SOL     OW14579   5.563   5.237   3.050  0.3323 -0.0381  0.2970
36708SOL    HW114580   5.532   5.324   3.028  0.3982  0.2793  1.4065
36708SOL    HW214581   5.510   5.178   2.996 -1.0767  0.5795  0.9427
36709SOL     OW14582   3.909   2.401   3.733  0.2534  0.0633 -0.2709
36709SOL    HW114583   3.931   2.328   3.674  0.5258 -0.7800  0.8558
36709SOL    HW214584   3.884   2.472   3.673 -0.9426 -1.2223 -1.3696
36710SOL     OW14585   2.186   8.161   8.585  0.2436 -0.0541  0.0314
36710SOL    HW114586   2.194   8.202   8.671 -0.8743 -0.7566  0.4951
36710SOL    HW214587   2.275   8.136   8.562  0.2918 -2.4450  2.3142
36711SOL     OW14588   0.508   8.152  10.045 -0.2672 -0.4232  0.1063
36711SOL    HW114589   0.425   8.109  10.026 -0.1160 -0.2538 -0.9929
36711SOL    HW214590   0.563   8.134   9.969  0.7153 -0.5389  0.8174
36712SOL     OW14591   2.046   5.596   9.321  0.1023 -0.0791  0.6422
36712SOL    HW114592   1.996   5.664   9.366 -0.8234 -2.3271  3.2977
36712SOL    HW214593   1.990   5.568   9.250  0.4427  1.7556 -0.4125
36713SOL     OW14594   0.844   5.279   9.306 -0.1311  0.3202  0.4556
36713SOL    HW114595   0.847   5.321   9.392 -1.1729 -0.0369  0.6804
36713SOL    HW214596   0.919   5.315   9.259 -0.1000  1.2444  1.1856
36714SOL     OW14597   2.691   7.836   8.298 -0.5761  0.2276  0.2565
36714SOL    HW114598   2.693   7.822   8.204  1.1579  1.5030  0.0623
36714SOL    HW214599   2.717   7.752   8.336  0.5744  0.2418 -0.4828
36715SOL     OW14600   7.584   7.238   2.661 -0.5446  0.2442  0.3447
36715SOL    HW114601   7.547   7.240   2.749 -0.5787 -0.9150  0.3673
36715SOL    HW214602   7.580   7.329   2.632 -0.9183  0.5744  1.3739
36716SOL     OW14603   6.992   6.793   8.017  0.5294  0.2736 -0.4515
36716SOL    HW114604   6.977   6.884   8.041  1.9479  0.6832 -1.0137
36716SOL    HW214605   7.005   6.794   7.922 -1.6941 -0.8577 -0.8264
36717SOL     OW14606   2.155   7.383   4.499 -0.1741  0.0563  0.0240
36717SOL    HW114607   2.158   7.402   4.592  1.4773  0.2792 -0.0382
36717SOL    HW214608   2.171   7.467   4.456 -0.4724 -0.1237 -0.4493
36718SOL     OW14609   3.102   0.201   3.447 -0.2135 -0.5636 -0.2022
36718SOL    HW114610   3.182   0.149   3.440 -0.1741 -0.7648  1.3367
36718SOL    HW214611   3.114   0.254   3.526 -1.0467  0.4071 -0.6908
36719SOL     OW14612  10.983  10.417   9.336  0.6580 -0.5770  0.7285
36719SOL    HW114613  11.046  10.488   9.354  1.2622 -0.9602  0.1472
36719SOL    HW214614  11.023  10.339   9.375 -0.2047 -0.5375  1.7444
36720SOL     OW14615   2.533   4.602   2.215 -0.0727 -0.0744 -0.5619
36720SOL    HW114616   2.451   4.629   2.174  1.2937  1.2675 -2.6321
36720SOL    HW214617   2.511   4.586   2.306 -2.2178  2.3804 -0.5499
36721SOL     OW14618   1.184   3.459  10.368 -0.0198 -0.5183 -0.1235
36721SOL    HW114619   1.219   3.482  10.454 -0.6129  0.2561 -0.0745
36721SOL    HW214620   1.258   3.422  10.321  1.1994  1.9990 -0.3703
36722SOL     OW14621   8.851   7.550   5.091 -0.0379 -0.0935 -0.1470
36722SOL    HW114622   8.892   7.491   5.154 -0.0406  0.6510  0.5684
36722SOL    HW214623   8.767   7.573   5.131  0.5953  1.5697  0.3159
36723SOL     OW14624   9.696   4.776   1.765  0.0392  0.1929 -0.0834
36723SOL    HW114625   9.789   4.781   1.747 -0.0654  0.0653 -0.6781
36723SOL    HW214626   9.671   4.686   1.741 -0.0096 -0.1591  1.1993
36724SOL     OW14627   1.925   5.434   1.015 -0.2621 -0.4572 -0.1682
36724SOL    HW114628   1.879   5.371   1.071  1.3332 -1.8043 -0.2854
36724SOL    HW214629   1.978   5.486   1.075  0.7280 -1.2762 -0.3019
36725SOL     OW14630   0.883   0.546   8.732  0.3473  0.1241 -0.0812
36725SOL    HW114631   0.891   0.472   8.792  1.7951 -0.2680 -0.7008
36725SOL    HW214632   0.972   0.558   8.697 -0.4987  0.0845 -2.4247
36726SOL     OW14633   7.133   6.468  10.948  0.5643  0.0646 -0.3374
36726SOL    HW114634   7.056   6.431  10.906 -0.2728 -0.3062  1.4328
36726SOL    HW214635   7.101   6.548  10.991  1.7909  1.4716 -1.9200
36727SOL     OW14636   3.480   8.287  10.143 -0.3883 -0.4430  0.1628
36727SOL    HW114637   3.465   8.198  10.176 -0.8815  0.8306  3.8688
36727SOL    HW214638   3.392   8.321  10.124 -0.2303 -0.5736 -0.8618
36728SOL     OW14639   8.669   0.839   6.495  0.1269  0.2835  0.0019
36728SOL    HW114640   8.683   0.891   6.416 -1.5838  0.5128 -0.1701
36728SOL    HW214641   8.598   0.779   6.473 -0.2639  0.2351  1.2984
36729SOL     OW14642   1.966   6.393   5.118  0.2822 -0.1937  0.3837
36729SOL    HW114643   1.897   6.328   5.131  1.3971 -1.3058  1.0397
36729SOL    HW214644   1.976   6.400   5.023 -0.6427 -0.0962  0.2894
36730SOL     OW14645   2.576  10.518   8.483 -0.6156 -0.2473 -0.3433
36730SOL    HW114646   2.495  10.502   8.531 -0.8052 -0.5937 -0.7641
36730SOL    HW214647   2.555  10.497   8.392  0.0736 -0.8086 -0.3861
36731SOL     OW14648   5.131   9.524   8.159  0.0118 -0.2138  0.3318
36731SOL    HW114649   5.128   9.504   8.065  0.0563  3.3157 -0.5320
36731SOL    HW214650   5.148   9.439   8.200 -0.0348 -1.9085 -2.8067
36732SOL     OW14651   1.864   0.530   1.701  0.0799  0.0653  0.1943
36732SOL    HW114652   1.935   0.583   1.666 -0.3099  0.4127 -0.0927
36732SOL    HW214653   1.850   0.564   1.790  1.2111 -0.9581  0.7970
36733SOL     OW14654   8.488   9.677   9.023 -0.2476  0.2267  0.2086
36733SOL    HW114655   8.470   9.594   8.980 -0.9012  0.5774 -0.2172
36733SOL    HW214656   8.443   9.670   9.108 -0.8441  0.3802 -0.0865
36734SOL     OW14657   3.837   6.987   0.933 -0.1170  0.2829  0.0364
36734SOL    HW114658   3.823   7.053   1.001 -1.1865  0.3335 -0.2253
36734SOL    HW214659   3.773   7.007   0.865  0.1110 -0.5117 -0.4320
36735SOL     OW14660  10.575   8.538   0.892  0.2730 -0.2746 -0.3169
36735SOL    HW114661  10.607   8.461   0.938 -1.5496 -0.8303  0.0882
36735SOL    HW214662  10.535   8.592   0.961  2.3029  1.5052 -0.4427
36736SOL     OW14663   9.875   0.119   4.081  0.1392 -0.3016  0.2893
36736SOL    HW114664   9.919   0.097   3.999  0.4037  0.9548  0.0773
36736SOL    HW214665   9.834   0.204   4.064 -0.3194 -0.3158  1.2697
36737SOL     OW14666   8.911   5.295   1.909 -0.2964  0.1903 -0.2661
36737SOL    HW114667   8.890   5.387   1.894 -0.4682  0.0453 -0.9811
36737SOL    HW214668   8.841   5.247   1.864  0.0158 -0.2862 -0.2498
36738SOL     OW14669   4.368   6.815   7.739  0.1404 -0.3268  0.2242
36738SOL    HW114670   4.354   6.875   7.665 -1.2937 -0.7429  0.1230
36738SOL    HW214671   4.437   6.756   7.709  1.9103  1.5088  0.4986
36739SOL     OW14672   0.242   4.910   2.665 -0.2528 -0.5507  0.3029
36739SOL    HW114673   0.317   4.887   2.718 -0.3746 -1.9873 -0.1150
36739SOL    HW214674   0.218   4.829   2.620 -1.8375 -0.0453  0.1725
36740SOL     OW14675   7.028   8.945   8.874 -0.1403 -0.2248 -0.0068
36740SOL    HW114676   7.090   9.016   8.886  0.9765 -1.3656  1.2240
36740SOL    HW214677   6.943   8.988   8.868  0.5629  1.2378  0.1773
36741SOL     OW14678   4.870   9.202   9.834 -0.2639 -0.3897  0.0365
36741SOL    HW114679   4.867   9.186   9.928  1.6854 -2.9960 -0.2122
36741SOL    HW214680   4.899   9.293   9.826  0.9523 -0.5448  2.0098
36742SOL     OW14681   1.484   9.290   8.706 -0.1377  0.6147 -0.4757
36742SOL    HW114682   1.475   9.324   8.795  0.8214  0.3634 -0.2702
36742SOL    HW214683   1.473   9.367   8.650 -0.5360  0.8100 -0.1423
36743SOL     OW14684  10.488   7.316   0.667  0.2529 -0.2488 -0.2373
36743SOL    HW114685  10.462   7.228   0.694 -0.1625  0.1293  0.6256
36743SOL    HW214686  10.408   7.355   0.631  0.4758 -0.2706 -0.7746
36744SOL     OW14687   8.678   0.469   8.763 -0.0900  0.1497  0.2465
36744SOL    HW114688   8.686   0.504   8.674  1.5697 -1.2998 -0.2434
36744SOL    HW214689   8.607   0.519   8.802 -0.8093  0.9121 -1.8552
36745SOL     OW14690   7.829   9.129   3.278 -0.0757 -0.0717  0.4124
36745SOL    HW114691   7.898   9.064   3.292  0.3865  0.3382  0.0213
36745SOL    HW214692   7.875   9.210   3.260 -0.6630  0.1243 -0.2276
36746SOL     OW14693   3.597   9.553   9.260  0.3736  0.0874 -0.6555
36746SOL    HW114694   3.513   9.557   9.214  0.7741 -0.2648 -1.4470
36746SOL    HW214695   3.662   9.546   9.190  1.0241 -0.1503 -0.0386
36747SOL     OW14696  10.290   5.889   1.115  0.6273 -0.5477 -0.5701
36747SOL    HW114697  10.252   5.899   1.203  1.8948 -1.1010  0.0633
36747SOL    HW214698  10.237   5.821   1.074  0.0116 -0.2696 -0.2578
36748SOL     OW14699   8.699   2.067   4.392  0.2708  0.1669 -0.9621
36748SOL    HW114700   8.717   2.140   4.333  1.4403  1.6883  1.1418
36748SOL    HW214701   8.680   2.109   4.476  1.8971 -1.9529  0.5573
36749SOL     OW14702   0.843   5.045   9.129  0.3976  0.5767 -0.4534
36749SOL    HW114703   0.844   5.106   9.203  0.9695  0.4232 -0.3291
36749SOL    HW214704   0.775   5.078   9.072 -0.8550  0.0539  0.6889
36750SOL     OW14705   5.167   9.229   4.607 -0.0477 -0.2998 -0.1038
36750SOL    HW114706   5.123   9.314   4.605  0.0580 -0.2452 -0.1457
36750SOL    HW214707   5.098   9.166   4.628 -0.2084 -0.2563 -0.4981
36751SOL     OW14708   1.198   8.370   4.385  0.5146 -0.8279 -0.6137
36751SOL    HW114709   1.126   8.367   4.321 -1.7194  1.1024  1.5585
36751SOL    HW214710   1.205   8.281   4.418 -1.7162 -0.8784 -0.1298
36752SOL     OW14711   2.457   5.416   0.859 -0.2547 -0.6535  0.6240
36752SOL    HW114712   2.460   5.404   0.764  0.6110  0.8566  0.4278
36752SOL    HW214713   2.421   5.505   0.871 -0.0644 -0.7053  1.6983
36753SOL     OW14714   2.955   3.929   9.539  0.2388 -0.1822  0.0155
36753SOL    HW114715   2.989   3.895   9.456 -1.5230 -2.1898  0.0552
36753SOL    HW214716   2.861   3.914   9.535 -0.3208  2.4669  1.1703
36754SOL     OW14717   0.993   8.326   3.099 -0.3661 -0.0794 -0.2323
36754SOL    HW114718   1.017   8.391   3.033 -1.8878 -0.0144 -0.7563
36754SOL    HW214719   1.038   8.246   3.070 -0.3863  0.1422 -0.9141
36755SOL     OW14720   8.411   9.708   0.188  0.1690 -0.2951 -0.4255
36755SOL    HW114721   8.444   9.769   0.122 -0.8258 -0.8449 -1.4640
36755SOL    HW214722   8.328   9.746   0.217  0.0943 -0.5777 -0.2644
36756SOL     OW14723   8.396   1.183   0.178 -0.0956 -0.2249 -0.1824
36756SOL    HW114724   8.486   1.158   0.159 -0.9727 -4.0684 -0.0559
36756SOL    HW214725   8.400   1.221   0.266  1.4091 -0.2211 -0.2304
36757SOL     OW14726   7.264   9.052   3.012 -0.1116 -0.2879  0.5201
36757SOL    HW114727   7.217   8.998   2.948  0.8421  0.5654 -0.9610
36757SOL    HW214728   7.289   9.130   2.963  1.2203  0.1000  1.7719
36758SOL     OW14729  10.037   8.954   0.275 -0.0069 -0.7406  0.5920
36758SOL    HW114730  10.101   9.017   0.310 -0.2499  1.8937 -3.1623
36758SOL    HW214731  10.090   8.893   0.223 -0.3082  1.2739 -2.2846
36759SOL     OW14732   4.698   7.356   4.423 -0.0198  0.4422 -0.3474
36759SOL    HW114733   4.631   7.349   4.355 -1.1844  0.4578  0.7621
36759SOL    HW214734   4.703   7.449   4.444  1.5502  0.6688 -1.5498
36760SOL     OW14735   4.724   7.188   2.105  0.2988  0.8069  0.6448
36760SOL    HW114736   4.642   7.194   2.154 -0.0995  0.8477 -0.0190
36760SOL    HW214737   4.738   7.275   2.069  0.8446  0.9045  1.0873
36761SOL     OW14738  10.475   4.345   8.720 -0.7601 -0.1256 -0.3643
36761SOL    HW114739  10.540   4.343   8.791 -1.1941 -1.6472  0.0251
36761SOL    HW214740  10.527   4.343   8.640 -0.2291  2.3643 -0.1627
36762SOL     OW14741   9.845   0.179   3.063 -0.4525 -0.7393 -0.0613
36762SOL    HW114742   9.915   0.123   3.096 -1.0041 -1.0312  0.6411
36762SOL    HW214743   9.886   0.231   2.993  0.2051 -1.6029 -0.3307
36763SOL     OW14744   0.608   0.981   0.478  0.0193  0.5029  0.1949
36763SOL    HW114745   0.603   0.916   0.548 -0.5880 -0.7152 -0.9344
36763SOL    HW214746   0.532   0.964   0.423 -0.6110  2.7085  0.2597
36764SOL     OW14747   8.459   6.637   4.197  0.3737  0.4451 -0.4782
36764SOL    HW114748   8.469   6.732   4.201 -0.5811  0.5084  2.0216
36764SOL    HW214749   8.403   6.615   4.272 -0.0819 -2.0160 -1.4369
36765SOL     OW14750   7.575   0.540   8.991  0.2484 -0.6612 -0.0335
36765SOL    HW114751   7.608   0.618   8.948  0.3202 -0.0609  1.0842
36765SOL    HW214752   7.652   0.501   9.032 -0.1455 -0.1044  1.2650
36766SOL     OW14753  10.262   2.448   5.227 -0.2062 -0.5240 -0.1747
36766SOL    HW114754  10.329   2.381   5.218  0.2792 -0.0352 -0.2404
36766SOL    HW214755  10.185   2.411   5.182 -0.3176 -1.5156  0.7912
36767SOL     OW14756   7.008   5.069   3.834 -0.3492  0.1597 -0.6199
36767SOL    HW114757   6.919   5.035   3.824 -0.0620 -0.7430 -0.2505
36767SOL    HW214758   7.036   5.038   3.920  0.9930 -1.2115 -1.5002
36768SOL     OW14759   1.347   8.786   7.200  0.5000 -1.0323 -0.2954
36768SOL    HW114760   1.308   8.768   7.286  1.8743 -2.0415  0.1528
36768SOL    HW214761   1.377   8.876   7.206  0.6121 -1.1033  0.3154
36769SOL     OW14762   6.530   5.603   0.117 -0.0652  0.1395  0.0872
36769SOL    HW114763   6.468   5.604   0.190 -0.9026  1.1063 -0.6085
36769SOL    HW214764   6.616   5.600   0.159 -0.4766  1.8598  1.1904
36770SOL     OW14765   4.680   4.540   7.501 -0.2760 -0.7655 -0.2197
36770SOL    HW114766   4.755   4.524   7.557 -0.3387 -0.5790 -0.0802
36770SOL    HW214767   4.653   4.629   7.523  0.6062 -0.1323 -1.6116
36771SOL     OW14768   4.279  10.911   7.939  0.2338  0.1401 -0.0870
36771SOL    HW114769   4.240  10.876   8.019  0.3146  1.0426  0.3610
36771SOL    HW214770   4.230  10.992   7.923 -0.4626 -0.5382 -1.5201
36772SOL     OW14771   4.504   6.108   1.648  0.1979 -0.0357 -0.6935
36772SOL    HW114772   4.571   6.063   1.596  0.1439  0.0593 -0.8463
36772SOL    HW214773   4.535   6.198   1.655  1.6727 -0.6488  1.8885
36773SOL     OW14774   4.317   4.031   7.390 -0.4187 -0.4492 -0.2840
36773SOL    HW114775   4.298   3.940   7.414  1.6334 -0.8367  0.0390
36773SOL    HW214776   4.276   4.082   7.459 -2.7611 -0.9927 -1.1691
36774SOL     OW14777   5.545   7.811   8.212 -0.6958  0.2175  0.5031
36774SOL    HW114778   5.625   7.791   8.163  0.3291  0.5926  1.9600
36774SOL    HW214779   5.516   7.727   8.246 -0.3816  0.2174  0.7690
36775SOL     OW14780   7.801   4.372   7.598 -0.3718  0.1503  0.7033
36775SOL    HW114781   7.869   4.434   7.623 -0.4651  0.1307  1.0077
36775SOL    HW214782   7.763   4.408   7.518  0.7589 -0.4122 -0.1144
36776SOL     OW14783   9.288   3.719   9.902  0.0464  0.5625 -0.4378
36776SOL    HW114784   9.227   3.738   9.831  0.1223  1.5306 -0.2487
36776SOL    HW214785   9.302   3.803   9.946  0.3490  0.0625  0.4475
36777SOL     OW14786   8.188   7.244   6.975 -0.1404  0.4902 -0.2216
36777SOL    HW114787   8.143   7.322   6.944 -0.3362 -0.0322 -1.2612
36777SOL    HW214788   8.129   7.171   6.956  0.2146  0.0317  0.3644
36778SOL     OW14789   4.256   4.950   0.143  0.2552 -0.7053 -0.6859
36778SOL    HW114790   4.237   4.887   0.212 -0.2549 -1.3610 -1.4011
36778SOL    HW214791   4.333   4.915   0.099  1.0026  0.0725 -0.0422
36779SOL     OW14792   5.028   1.914  10.270 -0.2805 -0.5654 -0.4790
36779SOL    HW114793   4.997   1.998  10.304 -1.1182 -0.2650 -1.8893
36779SOL    HW214794   5.117   1.905  10.306  0.6133  1.8794 -1.7916
36780SOL     OW14795   8.870   5.211  10.482  0.0057 -0.2060 -0.5599
36780SOL    HW114796   8.866   5.134  10.538 -0.7640 -0.3247 -0.7623
36780SOL    HW214797   8.948   5.258  10.510 -0.2321 -0.3950  0.4390
36781SOL     OW14798   1.293   3.771   5.932  0.5716  0.4300  0.4001
36781SOL    HW114799   1.323   3.849   5.886 -0.4631  1.0627  0.7760
36781SOL    HW214800   1.223   3.801   5.989 -0.2769 -0.8743  0.0949
36782SOL     OW14801   5.657   8.262   1.821  0.2101  0.4847  0.7545
36782SOL    HW114802   5.632   8.224   1.736  1.3870 -1.2599  1.1230
36782SOL    HW214803   5.752   8.274   1.813  0.4900 -0.6201  2.1406
36783SOL     OW14804   4.790  10.640   7.110  0.0941  0.3274  0.0345
36783SOL    HW114805   4.836  10.721   7.088  0.6109 -0.0376 -0.2463
36783SOL    HW214806   4.767  10.602   7.025  0.4043 -0.1291  0.1510
36784SOL     OW14807   5.636   6.769   7.772  0.3683  1.1117 -0.1011
36784SOL    HW114808   5.637   6.704   7.702  0.5861  0.3809  0.5707
36784SOL    HW214809   5.695   6.838   7.742  1.6422  0.0951  0.0144
36785SOL     OW14810   3.661   5.535   0.560  0.6431 -0.6189 -0.5566
36785SOL    HW114811   3.608   5.462   0.530  0.8657 -0.9394 -0.1825
36785SOL    HW214812   3.706   5.502   0.638 -0.0884  0.2620  0.2679
36786SOL     OW14813   1.458   5.131   5.468  0.0157 -0.0942  0.3756
36786SOL    HW114814   1.480   5.040   5.492  2.3784  0.5420  0.8925
36786SOL    HW214815   1.492   5.141   5.379 -0.7638  0.1372  0.0984
36787SOL     OW14816  10.221   6.750   0.540  0.1587 -0.4649 -0.0719
36787SOL    HW114817  10.262   6.665   0.556 -1.1851 -0.9529  0.9673
36787SOL    HW214818  10.141   6.729   0.492 -0.5234  0.1252  0.7664
36788SOL     OW14819   1.488   9.575   9.512  0.1290 -0.5153 -0.2693
36788SOL    HW114820   1.583   9.567   9.523  0.3920  1.0787 -1.1481
36788SOL    HW214821   1.474   9.566   9.418 -0.5869 -0.6199 -0.1583
36789SOL     OW14822   9.662   4.051   3.940 -0.2228  0.5601  0.9030
36789SOL    HW114823   9.604   4.074   3.868  1.4334  1.7705 -0.1015
36789SOL    HW214824   9.748   4.038   3.900  0.7588  1.2610  2.6315
36790SOL     OW14825   0.886   8.333   3.940 -0.1140  0.1599  0.1616
36790SOL    HW114826   0.879   8.238   3.947  0.4073  0.0714 -0.4137
36790SOL    HW214827   0.814   8.358   3.882  1.5253 -0.2500 -2.1778
36791SOL     OW14828   8.323   0.202  10.440  0.2601 -0.1043  0.2147
36791SOL    HW114829   8.313   0.227  10.532 -3.7859  0.7529 -0.2585
36791SOL    HW214830   8.264   0.128  10.428 -2.5467  2.2607 -2.3557
36792SOL     OW14831   4.393   3.903   4.617  0.8274 -0.2325  0.1468
36792SOL    HW114832   4.354   3.988   4.640 -0.3435 -0.3904 -1.0774
36792SOL    HW214833   4.386   3.851   4.697  0.5518  0.4735  0.5982
36793SOL     OW14834  10.472   8.588   2.138  0.2953 -0.1548 -0.4994
36793SOL    HW114835  10.394   8.535   2.154 -0.4378  0.4265 -1.9741
36793SOL    HW214836  10.440   8.678   2.139  0.6916  0.0460 -2.2079
36794SOL     OW14837   5.268   6.872   7.185 -0.2878  0.5986 -0.0781
36794SOL    HW114838   5.232   6.880   7.273  2.7980  0.8778  1.3021
36794SOL    HW214839   5.221   6.798   7.146  0.6890 -1.9794  3.1974
36795SOL     OW14840  10.451   2.291   3.656 -0.2279  0.4841  0.3566
36795SOL    HW114841  10.446   2.228   3.727  1.1799  0.5583  0.5547
36795SOL    HW214842  10.544   2.293   3.632 -0.5558  1.0164 -0.9740
36796SOL     OW14843   3.088   0.253   7.000  0.0629  0.1147 -0.5362
36796SOL    HW114844   2.993   0.246   7.013 -0.1813  0.2874 -2.0022
36796SOL    HW214845   3.097   0.294   6.914  1.4732  2.4064  0.6237
36797SOL     OW14846   2.984   5.952   2.121 -0.5124  0.0082 -0.0936
36797SOL    HW114847   2.937   6.022   2.077  0.1796  2.2377  2.5187
36797SOL    HW214848   3.077   5.970   2.103 -0.3464 -0.9177 -0.2734
36798SOL     OW14849   0.535   3.148   3.338 -0.4340  0.2601  0.5095
36798SOL    HW114850   0.509   3.065   3.299 -0.1621  0.8625 -1.0428
36798SOL    HW214851   0.476   3.212   3.298  1.2831  1.2076 -0.6007
36799SOL     OW14852   6.302   0.861   3.104 -0.6523  0.3143 -0.5871
36799SOL    HW114853   6.357   0.877   3.181 -1.4785  0.9498 -0.1051
36799SOL    HW214854   6.339   0.783   3.064 -0.6217 -0.4625  0.8654
36800SOL     OW14855   8.611   7.685   2.266 -0.6081  0.7534  0.5929
36800SOL    HW114856   8.595   7.730   2.349 -0.5771 -2.1018  2.2705
36800SOL    HW214857   8.524   7.654   2.239 -0.1254 -2.5582  2.2881
36801SOL     OW14858   6.905   5.238   1.154  0.2694 -0.5140  0.0980
36801SOL    HW114859   6.891   5.332   1.142 -1.0537 -0.6966  0.0704
36801SOL    HW214860   6.819   5.199   1.139  1.0178 -1.8373 -0.9458
36802SOL     OW14861   9.070   0.896   9.776  0.0787 -0.3941  0.0813
36802SOL    HW114862   9.115   0.814   9.796  1.0591  0.0898 -0.1088
36802SOL    HW214863   9.029   0.880   9.690  1.2158 -0.3203 -0.4958
36803SOL     OW14864   0.423   2.613   8.685 -0.3355 -0.2861  0.1149
36803SOL    HW114865   0.504   2.562   8.684 -0.8832 -1.1701 -0.5017
36803SOL    HW214866   0.362   2.559   8.735 -1.0539 -0.4499 -0.9267
36804SOL     OW14867   0.947   0.627   1.465 -0.3363  0.2810  0.2139
36804SOL    HW114868   0.960   0.685   1.390  2.3945 -1.6169 -0.9335
36804SOL    HW214869   0.903   0.550   1.430 -0.6068  0.0927  0.9387
36805SOL     OW14870  11.009   0.029   2.837  0.5762 -0.1574  0.0970
36805SOL    HW114871  10.965   0.039   2.752  0.3282  0.6671  0.3148
36805SOL    HW214872  10.938   0.010   2.898  0.8391 -1.5429  0.0031
36806SOL     OW14873   3.833   4.986   2.568 -0.1999 -0.6879 -0.2560
36806SOL    HW114874   3.769   5.055   2.582 -2.0489 -2.8370  3.6475
36806SOL    HW214875   3.907   5.011   2.624  1.2505  0.3063 -2.4754
36807SOL     OW14876   6.917   9.700   1.532 -0.5186  0.2218 -0.4812
36807SOL    HW114877   6.935   9.647   1.610 -0.5623 -1.0429 -1.2943
36807SOL    HW214878   6.905   9.789   1.565  2.1733  0.2602  0.6665
36808SOL     OW14879  10.540   2.086   2.766 -0.2367  0.4694 -0.2243
36808SOL    HW114880  10.580   2.103   2.680 -0.2036  0.5304 -0.1967
36808SOL    HW214881  10.451   2.059   2.745 -0.5090  1.3468 -0.2416
36809SOL     OW14882   0.144   6.198   0.508  0.2541 -0.4954  0.2515
36809SOL    HW114883   0.238   6.192   0.494  0.3922 -1.2315  1.4448
36809SOL    HW214884   0.135   6.221   0.601 -0.6850  2.1445 -0.3962
36810SOL     OW14885   9.986   6.053   9.013 -0.2863  0.0733  0.0831
36810SOL    HW114886   9.952   6.141   8.996  0.7172  0.4843  0.1764
36810SOL    HW214887   9.965   6.036   9.105 -2.2590 -0.6075 -0.4322
36811SOL     OW14888   3.559   8.221   3.880 -0.1764 -0.9513  0.0940
36811SOL    HW114889   3.497   8.164   3.925 -2.5815  0.8356 -0.6954
36811SOL    HW214890   3.526   8.225   3.790  2.4646 -1.6734 -1.0007
36812SOL     OW14891   3.849   7.540   1.833 -0.5365  0.5180 -1.0640
36812SOL    HW114892   3.906   7.477   1.788  0.2086 -0.4492  1.0909
36812SOL    HW214893   3.763   7.497   1.833  0.0552 -0.8027  0.7680
36813SOL     OW14894   8.600   7.147   9.349 -0.0095  0.0518 -0.3306
36813SOL    HW114895   8.649   7.088   9.291  0.3899  0.6850 -0.6444
36813SOL    HW214896   8.651   7.150   9.430  0.0714  0.1259 -0.3854
36814SOL     OW14897   3.479   6.830   3.173 -0.2465  0.3270 -0.0323
36814SOL    HW114898   3.538   6.773   3.123  0.6954  1.2617 -0.0173
36814SOL    HW214899   3.533   6.866   3.243 -0.6331  1.7664 -0.4457
36815SOL     OW14900   1.772   5.062   8.016 -0.0676  0.2705  0.3479
36815SOL    HW114901   1.726   5.012   8.083  0.9700 -3.4020 -1.4475
36815SOL    HW214902   1.704   5.083   7.951 -0.0781 -1.3190 -0.1959
36816SOL     OW14903   8.954  10.592   6.487 -0.2802 -0.3083 -0.1081
36816SOL    HW114904   9.030  10.649   6.478  0.1189 -1.0329 -1.5233
36816SOL    HW214905   8.919  10.613   6.574  1.6381 -0.1216  0.6616
36817SOL     OW14906   8.473   9.333   5.083  0.3534  0.0500  0.1806
36817SOL    HW114907   8.515   9.405   5.129  1.5053 -1.0075  0.8521
36817SOL    HW214908   8.518   9.327   4.999  0.2226  0.1468  0.1034
36818SOL     OW14909  10.733   0.225   9.560 -0.0946  0.1964 -0.4463
36818SOL    HW114910  10.651   0.248   9.604  0.1294  0.9690 -0.4322
36818SOL    HW214911  10.756   0.303   9.510  1.1422  0.3311  0.3040
36819SOL     OW14912  10.909   6.817   4.211  0.6095  0.0753 -0.0104
36819SOL    HW114913  10.989   6.853   4.172  1.0379 -0.6821  0.1535
36819SOL    HW214914  10.869   6.766   4.141 -0.6753  1.8606 -0.6476
36820SOL     OW14915   9.319   8.659   7.734  0.4837 -0.0854  0.5070
36820SOL    HW114916   9.400   8.648   7.785  0.6300 -0.2114  0.2497
36820SOL    HW214917   9.282   8.571   7.729 -0.2436  0.1353  1.5540
36821SOL     OW14918  10.117   2.598   1.428  0.6917  0.0723 -0.2063
36821SOL    HW114919  10.175   2.600   1.351  0.1529  0.1255 -0.6218
36821SOL    HW214920  10.092   2.690   1.441  2.6041  0.4184  1.4705
36822SOL     OW14921   0.547   6.067   9.440 -0.2560 -0.0699  0.6348
36822SOL    HW114922   0.469   6.043   9.390 -0.2928  1.0321  0.1275
36822SOL    HW214923   0.526   6.153   9.477  1.0805  0.7046 -0.3291
36823SOL     OW14924   1.121   6.287   2.781 -0.0631  0.1878  0.5370
36823SOL    HW114925   1.128   6.217   2.717  1.4326 -0.5431  1.4606
36823SOL    HW214926   1.128   6.368   2.729  1.2593 -0.3865 -0.2235
36824SOL     OW14927  10.348   8.063   8.711  0.4529 -0.2219  0.2556
36824SOL    HW114928  10.345   8.159   8.711 -2.0306 -0.2436  1.3007
36824SOL    HW214929  10.346   8.039   8.803  2.2545 -1.3303  0.0611
36825SOL     OW14930   7.909   7.955   5.559 -0.3401  0.0880 -0.9749
36825SOL    HW114931   7.875   7.986   5.643  1.7959 -1.4754  0.5591
36825SOL    HW214932   7.998   7.991   5.554  0.2754 -1.4517 -1.6203
36826SOL     OW14933   4.503   5.847   4.629 -0.4186  0.1078 -0.0161
36826SOL    HW114934   4.412   5.874   4.641 -0.3920 -0.0290  0.5312
36826SOL    HW214935   4.522   5.793   4.706 -0.0308 -0.2823 -0.3772
36827SOL     OW14936   2.435   2.235  10.150  0.0312  1.0463  0.1184
36827SOL    HW114937   2.454   2.328  10.137  0.3552  1.0068  0.3147
36827SOL    HW214938   2.363   2.217  10.090 -0.5755  1.6210  0.6591
36828SOL     OW14939   6.448   5.743   2.051 -0.3627 -0.4194 -0.2357
36828SOL    HW114940   6.509   5.691   1.998  0.1100 -0.1612  0.0446
36828SOL    HW214941   6.428   5.819   1.997  0.6517  0.1852  0.2063
36829SOL     OW14942   3.588   6.610   4.628 -0.0980 -0.3213  0.3003
36829SOL    HW114943   3.625   6.677   4.685  0.8663 -1.6759  1.3233
36829SOL    HW214944   3.593   6.529   4.679 -2.5385 -0.9636 -0.3453
36830SOL     OW14945   6.466   2.870   7.119 -0.0279  0.0701 -0.2505
36830SOL    HW114946   6.382   2.883   7.074  0.1039 -0.9930 -0.8511
36830SOL    HW214947   6.502   2.791   7.078  0.8678  0.0285  0.5984
36831SOL     OW14948   0.222   4.390   8.075 -0.1425  0.1185  0.1184
36831SOL    HW114949   0.282   4.351   8.139  1.7335  0.5526 -1.3043
36831SOL    HW214950   0.251   4.356   7.991 -0.7388  1.8038 -0.8003
36832SOL     OW14951   2.015   9.817  10.686  0.2979 -0.5134  0.4661
36832SOL    HW114952   2.083   9.760  10.650 -1.1795 -0.2416 -3.2460
36832SOL    HW214953   1.943   9.759  10.707  0.0760 -0.3933  0.0575
36833SOL     OW14954   3.395   2.318   8.935 -0.3031  0.0284  0.1850
36833SOL    HW114955   3.357   2.320   9.023  0.2454 -0.3558  0.4420
36833SOL    HW214956   3.447   2.398   8.930  1.3111 -0.8974  1.0008
36834SOL     OW14957   5.663  10.616   7.132  0.3511  0.2069  0.0140
36834SOL    HW114958   5.757  10.625   7.147  0.3703  1.5568 -0.7149
36834SOL    HW214959   5.656  10.577   7.045  0.2109 -2.1566  1.0107
36835SOL     OW14960   0.902   6.421   3.624  0.7894  0.0493  0.8282
36835SOL    HW114961   0.839   6.374   3.678  0.7144 -1.5031 -0.5101
36835SOL    HW214962   0.850   6.460   3.554  1.2054 -0.7959  0.0170
36836SOL     OW14963   7.529   9.824   8.250 -0.3609  0.1643  0.1431
36836SOL    HW114964   7.535   9.733   8.279  2.2162  0.0032 -0.6832
36836SOL    HW214965   7.436   9.838   8.234 -1.3722 -1.1275  3.9287
36837SOL     OW14966   7.956   3.921   5.943  0.4952 -0.2666  0.4250
36837SOL    HW114967   8.006   3.987   5.993  0.3644 -0.5407  0.9240
36837SOL    HW214968   7.923   3.861   6.010 -0.7481  0.0664  0.1249
36838SOL     OW14969   4.408   0.289   6.650  0.2953 -0.3628 -0.4481
36838SOL    HW114970   4.316   0.277   6.630  0.4774 -1.2348 -0.7971
36838SOL    HW214971   4.431   0.372   6.607 -0.8756  1.1353  1.6362
36839SOL     OW14972   0.512   6.857   5.756  0.5389 -0.8304 -0.0092
36839SOL    HW114973   0.524   6.873   5.663  1.0417 -1.3827 -0.0376
36839SOL    HW214974   0.601   6.847   5.791  0.3021 -2.9913  0.1096
36840SOL     OW14975   7.354   3.509   5.498 -0.0885 -0.3001  0.2049
36840SOL    HW114976   7.404   3.453   5.438 -1.4380 -0.7451 -0.5383
36840SOL    HW214977   7.285   3.452   5.531 -1.4986  0.9214 -0.5659
36841SOL     OW14978  10.267   6.087   4.967  0.4416 -0.0963 -0.1899
36841SOL    HW114979  10.192   6.137   4.998 -0.1350  0.3565 -2.1932
36841SOL    HW214980  10.245   5.996   4.984  0.4540  0.1593  1.2957
36842SOL     OW14981   5.822   8.861   5.506  0.1781  0.4039 -0.5554
36842SOL    HW114982   5.764   8.900   5.440  1.0925  1.8966 -0.5189
36842SOL    HW214983   5.795   8.901   5.589  1.1870  1.0557 -0.5271
36843SOL     OW14984   1.753   9.900   7.515 -0.4125 -0.2926 -0.2964
36843SOL    HW114985   1.736   9.962   7.586  0.2196  0.0735 -0.4621
36843SOL    HW214986   1.675   9.906   7.460  0.6377  2.2805 -1.7117
36844SOL     OW14987   0.321   1.449   1.275 -0.2745  0.4465  0.1863
36844SOL    HW114988   0.331   1.544   1.270 -2.8505  0.9401  2.4082
36844SOL    HW214989   0.300   1.431   1.367  0.0061 -2.2872 -0.1793
36845SOL     OW14990   3.804   3.838   8.820  0.0176 -1.5431 -0.1181
36845SOL    HW114991   3.741   3.796   8.878  0.4018 -2.1385 -0.1177
36845SOL    HW214992   3.848   3.903   8.874 -1.2792 -0.4130 -0.3765
36846SOL     OW14993   2.448   2.117   5.633  0.1875 -0.8286  0.5535
36846SOL    HW114994   2.431   2.041   5.577  0.6903 -1.8099  1.6817
36846SOL    HW214995   2.363   2.161   5.641 -0.2595 -1.6545  0.4257
36847SOL     OW14996   9.114   8.586   3.926 -0.8828 -0.4792  0.7717
36847SOL    HW114997   9.095   8.531   3.850  1.6234 -0.1946 -0.1492
36847SOL    HW214998   9.081   8.536   4.001 -4.0864 -0.4371 -0.4811
36848SOL     OW14999   8.223   2.617   7.600 -0.5322 -0.1746 -0.8231
36848SOL    HW115000   8.230   2.551   7.669 -3.3594  0.5671  0.3340
36848SOL    HW215001   8.266   2.578   7.524  1.5021 -1.5939  0.9250
36849SOL     OW15002   8.711   9.464   9.825 -0.2504  0.1261  0.0101
36849SOL    HW115003   8.781   9.501   9.879  0.4105 -0.7529 -0.2205
36849SOL    HW215004   8.662   9.408   9.885 -0.5687  0.4904  0.0947
36850SOL     OW15005   6.433   2.037   9.631  0.7490 -0.6145 -0.6800
36850SOL    HW115006   6.456   1.945   9.647 -2.6684 -1.2291  1.9203
36850SOL    HW215007   6.436   2.077   9.718 -3.2185  0.2170 -0.7652
36851SOL     OW15008  10.971   6.976   3.578  0.2811 -0.1635  0.3821
36851SOL    HW115009  10.896   7.003   3.631  0.8719  0.1540  1.0792
36851SOL    HW215010  10.952   7.010   3.491 -0.7832 -0.8262  0.3450
36852SOL     OW15011   9.762   2.820   7.144 -0.3379  0.1513  0.1545
36852SOL    HW115012   9.835   2.760   7.165 -0.6127 -1.1681 -2.3346
36852SOL    HW215013   9.803   2.906   7.142  0.7061 -0.2946  0.8188
36853SOL     OW15014   0.490  10.683   9.570 -0.2817  0.3103  0.8377
36853SOL    HW115015   0.453  10.702   9.484 -2.4118 -0.0601  1.6104
36853SOL    HW215016   0.578  10.650   9.552 -1.2579 -1.3622 -1.3196
36854SOL     OW15017   3.852   0.845   4.306 -0.0004  0.4093 -0.4045
36854SOL    HW115018   3.931   0.851   4.359  0.4747 -0.5014 -0.9977
36854SOL    HW215019   3.800   0.921   4.333  0.0773 -0.1804  1.5838
36855SOL     OW15020   4.370   0.389   5.541 -0.4490  0.5801 -0.3168
36855SOL    HW115021   4.327   0.304   5.549  0.4707  0.1054 -0.3570
36855SOL    HW215022   4.353   0.417   5.451 -0.3515  0.2154 -0.4493
36856SOL     OW15023   2.820   2.996   8.770 -0.6249 -0.0653  0.2920
36856SOL    HW115024   2.783   3.070   8.818 -2.1602 -1.4832  1.4232
36856SOL    HW215025   2.784   2.919   8.814 -0.5025 -1.4732 -1.9290
36857SOL     OW15026   6.522   5.268   1.829 -0.1945  0.5196  0.4755
36857SOL    HW115027   6.523   5.191   1.885  1.5405 -0.5298 -0.8945
36857SOL    HW215028   6.438   5.310   1.847 -1.0781 -1.5570  1.4493
36858SOL     OW15029   6.558   3.740   9.441 -0.4450 -0.3305 -0.3284
36858SOL    HW115030   6.645   3.772   9.420  0.6904 -1.0933  2.6748
36858SOL    HW215031   6.516   3.813   9.487 -0.0613 -1.0152  1.2060
36859SOL     OW15032   6.821   2.768   5.499  0.1121 -0.1594 -0.1862
36859SOL    HW115033   6.812   2.798   5.590 -0.4501 -0.0200 -0.2867
36859SOL    HW215034   6.853   2.678   5.506 -0.3922 -0.3172  0.1629
36860SOL     OW15035   2.039   9.348   4.023 -0.3417 -0.3811 -0.6099
36860SOL    HW115036   1.981   9.340   4.099  0.8417  0.2546  0.4027
36860SOL    HW215037   1.982   9.335   3.947 -1.5961 -0.8143  0.3735
36861SOL     OW15038   8.668   5.813   6.755 -0.0481 -0.2902 -0.0331
36861SOL    HW115039   8.686   5.835   6.846 -0.1419  0.3029 -0.1527
36861SOL    HW215040   8.597   5.749   6.759 -0.9111  0.6508  0.2745
36862SOL     OW15041   5.420   6.570   3.421 -0.2971 -0.2783 -0.3776
36862SOL    HW115042   5.400   6.659   3.393 -3.5317 -0.5067  0.7336
36862SOL    HW215043   5.405   6.570   3.516  2.5408 -1.3730  0.1711
36863SOL     OW15044   7.841   9.089   6.147  0.2918  0.0278  1.0821
36863SOL    HW115045   7.778   9.155   6.120 -1.4132 -0.0199  4.3416
36863SOL    HW215046   7.911   9.138   6.190  0.6734 -0.1256  0.6442
36864SOL     OW15047   3.497   1.977   1.404  0.2563  0.2653 -0.1824
36864SOL    HW115048   3.507   2.009   1.494  0.6686  0.9460 -0.4592
36864SOL    HW215049   3.519   2.053   1.350  0.1493 -0.1822 -0.8570
36865SOL     OW15050  10.946  10.366   8.532 -0.4870 -0.0021 -0.5656
36865SOL    HW115051  11.032  10.409   8.525 -1.2746  1.6652 -0.4525
36865SOL    HW215052  10.952  10.292   8.472  0.9002  0.2959 -0.8465
36866SOL     OW15053   8.251   4.901   0.233  0.0872  0.2004 -0.0077
36866SOL    HW115054   8.156   4.902   0.221  0.0651  2.4532 -0.0719
36866SOL    HW215055   8.282   4.836   0.169 -1.3252  0.1529 -0.6880
36867SOL     OW15056   3.847   5.935   8.824 -0.0261 -0.2255  0.3815
36867SOL    HW115057   3.824   6.006   8.885  2.1928  0.1793  0.8490
36867SOL    HW215058   3.915   5.886   8.870  2.0419  0.3213 -1.8788
36868SOL     OW15059   4.388   1.463   0.162  0.0937 -0.7488  0.6130
36868SOL    HW115060   4.330   1.505   0.099  0.2276  1.5219  1.8951
36868SOL    HW215061   4.454   1.418   0.108 -1.0704 -0.7836 -0.8289
36869SOL     OW15062  10.347   9.827   9.757 -0.5384  0.1731 -0.5539
36869SOL    HW115063  10.387   9.760   9.811  0.3047  0.2975 -1.0020
36869SOL    HW215064  10.405   9.903   9.766 -1.5312  0.8926  0.0342
36870SOL     OW15065   0.316   7.312   9.443  0.0716 -0.4870 -0.5207
36870SOL    HW115066   0.237   7.347   9.485  0.0237 -1.4997  0.2745
36870SOL    HW215067   0.283   7.259   9.371  0.1738  1.8056 -2.3789
36871SOL     OW15068   3.019   7.772   4.543 -0.2659  0.1716  0.0392
36871SOL    HW115069   3.032   7.788   4.450  1.1248 -1.1533 -0.0286
36871SOL    HW215070   3.097   7.808   4.585  0.5031 -1.7685  0.3642
36872SOL     OW15071   4.518   8.905   9.277  0.2577 -0.3085 -0.1478
36872SOL    HW115072   4.541   8.854   9.199 -1.2111 -0.5099 -0.4672
36872SOL    HW215073   4.586   8.973   9.282  0.0131  0.1159 -1.9735
36873SOL     OW15074   8.746   8.658   1.436  0.6842 -0.6264  0.2899
36873SOL    HW115075   8.840   8.676   1.436  0.4448  1.5752 -2.8470
36873SOL    HW215076   8.738   8.576   1.387  0.9626 -0.5206  0.0607
36874SOL     OW15077  10.404   3.130  10.122  0.4163 -0.1995  0.2022
36874SOL    HW115078  10.325   3.113  10.173  0.6098 -1.6342  0.0803
36874SOL    HW215079  10.377   3.119  10.031  0.8220 -1.1514  0.1767
36875SOL     OW15080   9.800   6.814   6.202 -0.8181  0.0432  0.1155
36875SOL    HW115081   9.772   6.896   6.242 -1.2510 -0.8629  1.7501
36875SOL    HW215082   9.892   6.804   6.227 -1.5151 -1.3106  2.3675
36876SOL     OW15083   0.509   9.078   9.650 -0.2158  0.1577  0.0388
36876SOL    HW115084   0.520   9.159   9.699  1.6287 -1.2592  2.2034
36876SOL    HW215085   0.486   9.012   9.716 -1.5875 -1.1506 -1.6170
36877SOL     OW15086   1.500   2.792   3.196 -0.2184 -0.2143 -0.2813
36877SOL    HW115087   1.421   2.843   3.213 -0.3003 -0.9899  2.0179
36877SOL    HW215088   1.572   2.853   3.214 -0.3195 -0.5125  1.2483
36878SOL     OW15089   7.381  10.704  10.115 -0.6487 -0.1422 -0.1059
36878SOL    HW115090   7.367  10.711  10.210  1.3448  0.9867  0.1413
36878SOL    HW215091   7.435  10.626  10.105  0.1753  0.4287 -0.1759
36879SOL     OW15092   3.201   5.631   3.534 -0.4771  0.2680 -0.5580
36879SOL    HW115093   3.132   5.677   3.581  2.2644  3.7979  0.4158
36879SOL    HW215094   3.197   5.541   3.568 -1.9484  1.3696  2.5677
36880SOL     OW15095   0.739   0.502   7.252  0.1530 -0.0826 -0.2279
36880SOL    HW115096   0.683   0.448   7.197 -0.0112  0.1922 -0.3315
36880SOL    HW215097   0.789   0.439   7.303  1.9613 -0.4313 -2.2795
36881SOL     OW15098   7.173   4.132  10.535  0.0408 -0.2362 -0.1447
36881SOL    HW115099   7.165   4.151  10.442  1.4864 -3.5615 -1.1047
36881SOL    HW215100   7.262   4.160  10.557 -0.2074  0.3088  0.1572
36882SOL     OW15101   1.821   1.505   2.931 -0.3426 -0.1277 -0.1110
36882SOL    HW115102   1.876   1.569   2.978 -0.7559 -0.0108  0.2216
36882SOL    HW215103   1.780   1.555   2.862 -0.0529 -0.2104 -0.3460
36883SOL     OW15104   9.034   6.385   9.272  0.2803  0.5865 -0.3689
36883SOL    HW115105   9.066   6.456   9.216 -0.7102  1.4973  0.1990
36883SOL    HW215106   9.014   6.427   9.355  1.0212 -0.6205  0.4501
36884SOL     OW15107   7.133   1.647   9.295 -0.2467  0.3325 -0.0690
36884SOL    HW115108   7.086   1.729   9.310 -1.7177 -0.5507  0.2926
36884SOL    HW215109   7.160   1.618   9.382 -0.7618 -0.1496 -0.0628
36885SOL     OW15110   7.966   4.690   7.374  0.2357  0.1072 -0.3876
36885SOL    HW115111   7.932   4.729   7.294 -0.6841 -0.7451 -0.4234
36885SOL    HW215112   7.929   4.602   7.377  2.1331 -0.7483 -0.2205
36886SOL     OW15113   8.411  10.318   5.428 -0.2745 -0.2305  0.7187
36886SOL    HW115114   8.501  10.285   5.419 -0.9601 -1.7211 -1.6095
36886SOL    HW215115   8.415  10.407   5.393  0.4146 -0.0471  1.2457
36887SOL     OW15116   7.947  10.680   4.910  0.0559  0.5248 -0.8238
36887SOL    HW115117   7.874  10.711   4.857 -0.4371 -0.4843 -0.7590
36887SOL    HW215118   8.023  10.727   4.875 -0.6049  1.5554 -0.9199
36888SOL     OW15119   4.829   1.101   8.997 -0.2252 -0.0213  0.6590
36888SOL    HW115120   4.771   1.036   8.957 -0.0644 -1.3491  2.4282
36888SOL    HW215121   4.874   1.142   8.924 -0.6126 -1.6497 -0.5561
36889SOL     OW15122   9.228   2.581  10.778  0.7667  0.1469  0.4114
36889SOL    HW115123   9.272   2.530  10.846  1.0186  0.8658  0.8018
36889SOL    HW215124   9.201   2.516  10.713  1.1565 -0.4691  0.8499
36890SOL     OW15125   4.928   6.944   1.444  0.1897 -0.1704  0.1579
36890SOL    HW115126   4.885   6.907   1.521 -1.7020  1.6269  0.0414
36890SOL    HW215127   4.857   6.974   1.388  1.5634  0.5869 -1.2752
36891SOL     OW15128   7.014  10.299   7.896  0.2749  0.3925 -0.0903
36891SOL    HW115129   6.988  10.375   7.844 -0.5298 -1.2706 -2.2986
36891SOL    HW215130   7.102  10.321   7.928  0.3227  1.9923 -1.1850
36892SOL     OW15131   9.149   6.433   0.675 -0.5002  0.0539 -0.6628
36892SOL    HW115132   9.143   6.455   0.582 -0.3537 -1.1699 -0.9877
36892SOL    HW215133   9.099   6.501   0.719 -0.5402  0.6791 -1.6382
36893SOL     OW15134   6.092   2.280   4.459 -0.1045 -0.0895 -0.0816
36893SOL    HW115135   6.178   2.292   4.418 -1.0357  2.0755 -1.5593
36893SOL    HW215136   6.037   2.243   4.390 -0.3884 -1.5626  0.8816
36894SOL     OW15137   8.699   7.230   4.092  0.4181 -0.6579  0.1306
36894SOL    HW115138   8.785   7.190   4.075  1.1465  0.8049  0.1954
36894SOL    HW215139   8.708   7.271   4.178 -0.8393 -1.7252  0.7909
36895SOL     OW15140   5.550  10.583   6.166 -0.0888 -0.2943 -0.0123
36895SOL    HW115141   5.584  10.639   6.096 -0.6005  1.2917  0.9611
36895SOL    HW215142   5.548  10.496   6.127 -1.1092  0.6476 -2.2608
36896SOL     OW15143   7.990   8.686   8.810 -0.3760  0.1234  0.0713
36896SOL    HW115144   7.981   8.600   8.851 -1.3070  1.0683  1.9866
36896SOL    HW215145   7.899   8.716   8.798 -0.1381  0.1006 -2.3562
36897SOL     OW15146   1.082   7.027   8.250  0.0916 -0.5349 -0.3470
36897SOL    HW115147   0.995   7.067   8.257 -0.6611 -1.9460 -1.1592
36897SOL    HW215148   1.143   7.100   8.257 -1.2316  0.8252 -2.1754
36898SOL     OW15149   5.935   2.428   7.054 -0.7239 -0.0804 -0.1973
36898SOL    HW115150   5.896   2.496   7.109 -0.3046 -1.2284  1.6110
36898SOL    HW215151   5.860   2.379   7.020 -1.0282  1.2511 -1.5240
36899SOL     OW15152   1.632   7.242   8.232 -0.0822  0.4608  0.0465
36899SOL    HW115153   1.564   7.174   8.231  0.8484 -0.5079 -0.6967
36899SOL    HW215154   1.621   7.286   8.316 -0.0151 -1.3869  1.0761
36900SOL     OW15155   0.629   8.556   8.331  0.4080 -0.2463 -0.2313
36900SOL    HW115156   0.642   8.651   8.327 -0.3964 -0.1329 -0.3389
36900SOL    HW215157   0.636   8.528   8.239 -0.1946 -0.1654 -0.3076
36901SOL     OW15158  10.997   9.341   4.212 -0.6619 -0.0136 -0.1482
36901SOL    HW115159  10.988   9.256   4.254  0.1220  0.4433  1.0092
36901SOL    HW215160  10.938   9.398   4.261 -0.1081  0.4250  0.0113
36902SOL     OW15161   3.939   1.937   2.453  0.1761 -0.7986  0.0490
36902SOL    HW115162   3.963   1.994   2.526  1.4859 -1.0241 -0.1850
36902SOL    HW215163   3.958   1.849   2.483 -0.7424 -1.0357 -0.0223
36903SOL     OW15164   1.812   4.644   2.373  1.3391  0.2039 -0.0338
36903SOL    HW115165   1.805   4.640   2.278  1.1704  0.5078 -0.0381
36903SOL    HW215166   1.904   4.626   2.392  1.0116 -1.7288 -0.1292
36904SOL     OW15167  10.618   8.171   3.307  0.1820  0.1853  0.3900
36904SOL    HW115168  10.593   8.261   3.288  1.8338  0.6044  0.0459
36904SOL    HW215169  10.712   8.169   3.294  0.1147 -1.7301 -0.1022
36905SOL     OW15170   8.210   8.705   1.603  0.4103  0.4006 -0.1400
36905SOL    HW115171   8.115   8.705   1.594  0.5163  1.5146 -1.6674
36905SOL    HW215172   8.226   8.676   1.693 -1.3529  0.1060  0.1093
36906SOL     OW15173  10.952   6.780   6.922 -0.5172 -0.1141 -0.6971
36906SOL    HW115174  10.963   6.785   6.827 -1.0715 -2.3572 -0.9418
36906SOL    HW215175  10.866   6.740   6.934 -0.5094  0.2513  0.7678
36907SOL     OW15176   0.872   4.121   1.006 -0.2751 -0.3307  0.7953
36907SOL    HW115177   0.873   4.105   1.100  0.1150  2.8866  1.4594
36907SOL    HW215178   0.780   4.115   0.981 -0.2186 -2.8491  0.9652
36908SOL     OW15179  10.224   1.451   1.354  0.5075  0.0959  0.6407
36908SOL    HW115180  10.225   1.357   1.370 -1.9240 -0.0413  0.3090
36908SOL    HW215181  10.305   1.467   1.304  0.6382 -1.9151  0.1079
36909SOL     OW15182   7.565   7.815   5.533 -0.5274 -0.3226  0.2531
36909SOL    HW115183   7.599   7.883   5.475 -3.1382  0.7738 -0.1582
36909SOL    HW215184   7.591   7.733   5.493 -0.0591  0.4232 -1.0349
36910SOL     OW15185   1.057  11.024   1.189 -0.0630  0.5045  0.3299
36910SOL    HW115186   1.012  11.052   1.269 -0.3377  0.0935  0.3189
36910SOL    HW215187   1.104  10.945   1.214 -0.3032  0.2659  0.0422
36911SOL     OW15188   8.846   9.265   8.302 -0.5961  0.0968  0.6012
36911SOL    HW115189   8.859   9.173   8.277  0.8316  0.1126  1.1930
36911SOL    HW215190   8.883   9.271   8.390 -1.4997  1.0481  0.9280
36912SOL     OW15191   1.777   7.374   0.951  0.0223 -0.8348 -0.0624
36912SOL    HW115192   1.816   7.428   1.020 -0.8390  0.0260 -0.2255
36912SOL    HW215193   1.696   7.342   0.989 -1.0954  0.6730 -1.0675
36913SOL     OW15194  10.226   7.920   6.969  0.0832  0.1537  0.6890
36913SOL    HW115195  10.201   7.860   6.899  0.6073  1.2528 -0.4810
36913SOL    HW215196  10.145   7.940   7.015 -0.6903  1.1993 -1.0542
36914SOL     OW15197   9.832   9.875  10.115  0.2352 -0.1366 -0.0942
36914SOL    HW115198   9.861   9.785  10.101  0.4761 -0.2069  0.7844
36914SOL    HW215199   9.870   9.899  10.199  0.8783  1.0911 -0.7190
36915SOL     OW15200   0.775   2.366   4.782  0.1826 -0.0202  0.2196
36915SOL    HW115201   0.838   2.416   4.834 -1.5295  0.6289  1.7513
36915SOL    HW215202   0.710   2.431   4.754  1.1404 -0.2622 -3.0607
36916SOL     OW15203   7.515   4.347   0.925  0.1120  0.2285  0.2608
36916SOL    HW115204   7.457   4.334   1.000  0.1663 -0.0163  0.2606
36916SOL    HW215205   7.466   4.405   0.867  0.1634  0.6037  0.5885
36917SOL     OW15206   3.968   6.920   7.441 -0.2931 -0.6042 -0.0617
36917SOL    HW115207   3.955   7.013   7.458 -0.1340 -0.6437  0.3082
36917SOL    HW215208   3.921   6.876   7.513 -1.6099 -0.8571 -1.0438
36918SOL     OW15209   9.034   2.031   4.042  0.2185 -0.1604 -0.6218
36918SOL    HW115210   8.965   1.974   4.008 -1.5960 -0.1148  2.5441
36918SOL    HW215211   9.000   2.120   4.030  0.2089 -0.0836 -0.0731
36919SOL     OW15212   0.824  10.431   5.002 -0.1334 -0.4090  0.7191
36919SOL    HW115213   0.897  10.399   4.949  0.1244 -1.0236  1.4266
36919SOL    HW215214   0.755  10.451   4.939  0.0428 -1.4606  0.1665
36920SOL     OW15215   7.207   4.390  10.036  0.7179  0.1599 -0.5838
36920SOL    HW115216   7.161   4.468  10.066  1.9503  1.0863 -1.0491
36920SOL    HW215217   7.142   4.343   9.983 -0.1726  0.6198  0.0856
36921SOL     OW15218   8.034   7.825   7.634  0.5132 -0.4017 -0.6553
36921SOL    HW115219   8.052   7.764   7.562 -1.7189  0.2308 -1.8394
36921SOL    HW215220   8.109   7.884   7.634  0.1084  0.2716 -3.2757
36922SOL     OW15221  10.978   2.803   0.463  0.8697  0.4511  0.3080
36922SOL    HW115222  11.041   2.765   0.525  0.2847 -0.4896  0.3431
36922SOL    HW215223  11.020   2.884   0.433  2.2162 -0.2710  0.1361
36923SOL     OW15224   8.977   8.322  10.969  0.4806 -0.7342 -0.1878
36923SOL    HW115225   9.015   8.405  10.942  0.2109 -1.2227 -2.2407
36923SOL    HW215226   9.047   8.258  10.955 -0.3718 -1.3399 -2.0842
36924SOL     OW15227   9.691   1.356   4.414  0.1043  0.6242 -0.2059
36924SOL    HW115228   9.770   1.342   4.361  0.3075  1.6839 -0.2258
36924SOL    HW215229   9.706   1.442   4.454 -1.0174  0.8058 -0.1601
36925SOL     OW15230   1.573   7.368   0.720  0.1544 -0.4833 -0.3790
36925SOL    HW115231   1.642   7.360   0.785  0.1950 -1.0928 -0.4894
36925SOL    HW215232   1.529   7.282   0.721 -0.4591 -0.1804 -0.4629
36926SOL     OW15233   9.193   6.241   3.529  0.7218 -0.1295 -0.4623
36926SOL    HW115234   9.231   6.241   3.442 -0.5155 -0.0264 -1.0242
36926SOL    HW215235   9.202   6.331   3.560 -2.0086  0.7539 -1.9641
36927SOL     OW15236   5.769   1.409  10.833 -0.2259  0.2760 -0.2713
36927SOL    HW115237   5.710   1.336  10.848  0.8875 -0.7146 -0.5789
36927SOL    HW215238   5.828   1.409  10.909 -1.0148  1.6906  0.3892
36928SOL     OW15239   6.187   8.521   5.184  0.0977 -0.4211  0.2555
36928SOL    HW115240   6.113   8.570   5.220  2.2289  1.3182  2.6043
36928SOL    HW215241   6.233   8.583   5.129  0.7523 -0.9348  0.2152
36929SOL     OW15242   8.504   0.504  10.199  0.1282 -0.4749  0.1900
36929SOL    HW115243   8.518   0.597  10.185  0.8704 -0.6976 -0.6387
36929SOL    HW215244   8.582   0.475  10.246  0.6752 -0.9737 -0.9836
36930SOL     OW15245   8.009   8.738   5.106 -0.7252  0.7417  0.0636
36930SOL    HW115246   8.030   8.803   5.039  0.6787  0.3683  0.1053
36930SOL    HW215247   8.021   8.784   5.189 -2.3739  1.1773  0.0959
36931SOL     OW15248   7.643   1.141   7.283 -0.6210  0.0964 -0.2741
36931SOL    HW115249   7.720   1.090   7.310 -2.4483 -2.6832  0.0801
36931SOL    HW215250   7.607   1.175   7.364 -1.3613 -1.1025 -0.0742
36932SOL     OW15251   0.665  10.724  10.909  0.1975  0.8633 -0.3121
36932SOL    HW115252   0.694  10.814  10.926 -0.2015  1.0592 -0.6348
36932SOL    HW215253   0.706  10.701  10.826  0.3123  0.7394 -0.2212
36933SOL     OW15254   4.553   4.185   8.463  0.0615 -0.3591  0.2920
36933SOL    HW115255   4.547   4.242   8.539 -2.4870 -1.6963  1.2256
36933SOL    HW215256   4.583   4.101   8.498 -0.5772 -0.8283 -0.2698
36934SOL     OW15257   6.191   2.884   3.848  0.0144  1.1675  0.0884
36934SOL    HW115258   6.277   2.841   3.848 -1.2281 -1.5098 -0.7244
36934SOL    HW215259   6.157   2.869   3.936 -0.6584 -0.1452 -0.3650
36935SOL     OW15260  10.754   5.556   1.674  0.0362  0.5705  0.5431
36935SOL    HW115261  10.809   5.620   1.720  0.7669  0.1382  0.2984
36935SOL    HW215262  10.799   5.543   1.591 -1.4304  1.5606 -0.4333
36936SOL     OW15263   8.327   4.511   3.598  0.1770 -0.5050 -0.2242
36936SOL    HW115264   8.272   4.587   3.582  1.8534  0.3732 -2.2294
36936SOL    HW215265   8.338   4.470   3.512  0.9970 -1.8130  0.4682
36937SOL     OW15266   2.916  10.324   4.797  0.3366  0.4210 -0.1423
36937SOL    HW115267   2.871  10.256   4.746 -0.6699  0.2091  0.9736
36937SOL    HW215268   2.869  10.326   4.880  1.4234  1.3250  0.4766
36938SOL     OW15269   7.548   7.162   9.194  0.1339  0.6705  0.0056
36938SOL    HW115270   7.491   7.201   9.260 -0.9289  0.0651 -0.5434
36938SOL    HW215271   7.540   7.219   9.118 -0.7747 -0.1257 -0.5141
36939SOL     OW15272   0.345   4.814   1.848 -0.0143  0.0984 -0.3293
36939SOL    HW115273   0.312   4.898   1.879 -0.2233  0.2184 -0.8620
36939SOL    HW215274   0.266   4.762   1.832  0.1268 -1.0496  2.2283
36940SOL     OW15275   1.870   0.636   4.973  0.2105 -0.2691 -0.0761
36940SOL    HW115276   1.940   0.694   4.944  0.2408 -0.8394 -1.2419
36940SOL    HW215277   1.910   0.579   5.038  0.4653  0.2919  0.2614
36941SOL     OW15278   2.261   4.814   0.302 -0.4329  0.1419 -0.3819
36941SOL    HW115279   2.188   4.870   0.277 -0.8681  0.2134  0.9589
36941SOL    HW215280   2.305   4.794   0.219 -2.9915 -1.3543 -1.5178
36942SOL     OW15281   2.888  10.072   7.306  0.2752 -0.1121 -0.6736
36942SOL    HW115282   2.897   9.980   7.332  0.9763 -0.6303 -2.6087
36942SOL    HW215283   2.977  10.107   7.312 -0.3823  1.4487  3.1847
36943SOL     OW15284  10.993   0.291   9.091 -0.7840 -0.7252  0.1673
36943SOL    HW115285  11.053   0.338   9.032 -3.0516  1.4086 -0.6477
36943SOL    HW215286  10.984   0.349   9.166 -2.0452 -0.8421  0.1183
36944SOL     OW15287   7.453   1.437   5.959 -0.3675 -0.0411  0.0031
36944SOL    HW115288   7.460   1.400   5.871 -1.1743 -0.7279  0.2135
36944SOL    HW215289   7.512   1.382   6.012  1.6134  1.5494 -0.4295
36945SOL     OW15290   5.147   5.334   7.189  0.0998 -0.2860  0.2010
36945SOL    HW115291   5.134   5.412   7.135  0.4909  0.6740  1.4151
36945SOL    HW215292   5.084   5.271   7.156  0.8867 -0.0650 -1.8959
36946SOL     OW15293   9.935   5.656   6.257  0.2684  0.3197 -0.2862
36946SOL    HW115294   9.971   5.710   6.328 -2.6386  1.2949  0.5951
36946SOL    HW215295   9.925   5.569   6.295 -0.0005  0.5038  0.0729
36947SOL     OW15296   7.869   3.116   3.036  0.3902  0.1250  0.0439
36947SOL    HW115297   7.841   3.207   3.021 -1.8909 -0.7453 -1.3744
36947SOL    HW215298   7.788   3.065   3.030  1.4665 -1.9363  1.8115
36948SOL     OW15299   5.461   7.309   0.552 -0.2366 -0.1940  0.0882
36948SOL    HW115300   5.424   7.231   0.511 -0.3218 -0.9449  1.5079
36948SOL    HW215301   5.546   7.320   0.510 -0.0669 -1.2705  0.1063
36949SOL     OW15302  10.016   8.947   5.263  0.3988 -0.0644  0.3846
36949SOL    HW115303  10.071   8.880   5.303  1.5583  0.8333  0.3442
36949SOL    HW215304  10.057   8.964   5.178 -2.6167 -2.7333 -1.8904
36950SOL     OW15305   6.448   3.019   1.715  0.1163  0.2697  0.4400
36950SOL    HW115306   6.517   2.952   1.715  0.4921  0.6427  1.1440
36950SOL    HW215307   6.485   3.091   1.766 -1.0653  0.2020  1.4279
36951SOL     OW15308   6.066   5.718   4.892  0.5707  0.8463  0.6747
36951SOL    HW115309   5.993   5.768   4.929 -1.0968  0.2345 -1.6163
36951SOL    HW215310   6.039   5.627   4.899  2.4366  0.3445  2.3812
36952SOL     OW15311   4.490   0.757   9.418 -0.5270 -0.3218 -0.4817
36952SOL    HW115312   4.556   0.827   9.410 -0.7703 -0.1059 -0.6103
36952SOL    HW215313   4.422   0.781   9.356 -0.4265 -0.8899 -0.8181
36953SOL     OW15314   0.211   4.135   5.667 -0.2665 -0.1810  0.1911
36953SOL    HW115315   0.139   4.147   5.729 -0.7367  2.7253 -0.7507
36953SOL    HW215316   0.168   4.115   5.584  0.2920 -2.4472  0.3743
36954SOL     OW15317   4.939   0.009   1.117  0.0747 -0.0372  0.4985
36954SOL    HW115318   5.017   0.053   1.150  1.2014 -1.4207 -0.2719
36954SOL    HW215319   4.874   0.080   1.108  0.9032  0.9674  2.0555
36955SOL     OW15320  10.229   8.464   3.548 -0.0527  0.3360 -0.0141
36955SOL    HW115321  10.277   8.435   3.625 -0.4765 -0.9149 -0.2074
36955SOL    HW215322  10.287   8.445   3.474  0.1992  1.1905 -0.0492
36956SOL     OW15323   1.235   1.029   4.888 -0.4136 -0.0026  0.1692
36956SOL    HW115324   1.280   0.951   4.857 -1.1377 -0.1467 -0.5403
36956SOL    HW215325   1.299   1.071   4.946  0.6072 -0.2483 -0.7261
36957SOL     OW15326   0.308   7.201   5.359 -0.3446 -0.0023 -0.8188
36957SOL    HW115327   0.256   7.190   5.439  0.4950 -1.2312 -0.4197
36957SOL    HW215328   0.313   7.296   5.347 -1.6046  0.1749 -0.1691
36958SOL     OW15329   1.298   1.529   4.676  0.1357  0.0760 -0.7012
36958SOL    HW115330   1.387   1.534   4.711  0.0154  1.5099 -0.5561
36958SOL    HW215331   1.290   1.438   4.647  0.5747 -0.9445  2.0412
36959SOL     OW15332   6.780   6.719   3.818  0.1430  0.2395  0.6253
36959SOL    HW115333   6.865   6.758   3.838  1.7410 -1.7282 -1.8081
36959SOL    HW215334   6.753   6.678   3.900  2.4389 -0.6586  1.0068
36960SOL     OW15335  11.032   2.358   9.245  0.2778  0.2144 -0.3882
36960SOL    HW115336  11.039   2.452   9.262  0.7786 -0.0054  0.6608
36960SOL    HW215337  11.108   2.338   9.190  1.0727  0.1444  0.7047
36961SOL     OW15338  10.601   7.197   7.831 -0.5910  0.4738 -0.8465
36961SOL    HW115339  10.693   7.179   7.853 -1.1324 -2.1772 -0.3520
36961SOL    HW215340  10.587   7.287   7.860  2.3395  1.7188 -2.7487
36962SOL     OW15341   5.443   5.392   8.685  0.2213  0.8936 -0.1681
36962SOL    HW115342   5.363   5.445   8.696  0.1565  0.4213  2.1277
36962SOL    HW215343   5.411   5.308   8.651 -0.2211  0.8457  0.3475
36963SOL     OW15344  10.304   9.220   4.712 -0.6881  0.2050  0.6693
36963SOL    HW115345  10.388   9.219   4.759  0.0154 -0.3357 -0.5545
36963SOL    HW215346  10.316   9.286   4.644 -1.7111  1.0054  1.2414
36964SOL     OW15347   6.602   3.348   8.869 -0.0954  0.2943 -0.1038
36964SOL    HW115348   6.588   3.398   8.789  2.6256 -1.5355 -1.8854
36964SOL    HW215349   6.652   3.407   8.926 -2.1446  1.6416  0.4388
36965SOL     OW15350   0.694   6.804   4.539  0.4652 -0.2542 -0.1778
36965SOL    HW115351   0.743   6.753   4.475 -0.1730 -2.1494  0.7605
36965SOL    HW215352   0.625   6.847   4.489  0.7091 -0.7244 -0.9296
36966SOL     OW15353  10.419   9.862   7.539  0.3346 -0.5558  0.3466
36966SOL    HW115354  10.334   9.901   7.560  0.3595  0.6923 -1.6088
36966SOL    HW215355  10.463   9.853   7.623 -1.8872 -1.6966  1.4860
36967SOL     OW15356   6.541   9.157   2.959  0.2215 -0.0674  1.2818
36967SOL    HW115357   6.557   9.121   3.046 -1.3327 -2.6343  0.6117
36967SOL    HW215358   6.621   9.137   2.910  0.5645  0.1723  1.7329
36968SOL     OW15359  10.254   9.186   3.145  0.0412 -0.4235  0.0435
36968SOL    HW115360  10.304   9.264   3.169 -0.1692 -0.1705 -0.3357
36968SOL    HW215361  10.252   9.134   3.226 -1.0333  0.6208  0.7188
36969SOL     OW15362   5.442   9.063   2.954  0.8456  0.2712  0.2687
36969SOL    HW115363   5.364   9.089   3.003  1.3634 -0.1882  1.3743
36969SOL    HW215364   5.461   9.139   2.898  1.0549  1.4447  1.8379
36970SOL     OW15365   2.056   5.683   7.102  0.5122 -0.0033  0.0462
36970SOL    HW115366   2.050   5.763   7.155  1.0829  0.1643 -0.1357
36970SOL    HW215367   1.995   5.698   7.030 -0.2028 -0.1956  0.5950
36971SOL     OW15368   6.121   6.853   5.930  0.4565  0.8267  0.4924
36971SOL    HW115369   6.092   6.767   5.899 -0.8820  1.3139  0.2963
36971SOL    HW215370   6.182   6.883   5.863 -0.2763  0.6815 -0.2661
36972SOL     OW15371   8.410   2.939   4.707  0.0056  0.3833  0.5273
36972SOL    HW115372   8.483   2.936   4.645 -0.7859 -0.4932 -0.3962
36972SOL    HW215373   8.423   3.021   4.755  0.9042  0.8535 -0.4749
36973SOL     OW15374   9.822   8.998   7.104  0.1734  0.1924 -0.2914
36973SOL    HW115375   9.890   8.937   7.131  0.9430  1.7407  1.4096
36973SOL    HW215376   9.803   9.051   7.181 -2.4019  0.3732 -0.9330
36974SOL     OW15377   9.815   9.860   1.468 -0.1900 -0.0586 -0.5103
36974SOL    HW115378   9.871   9.908   1.406  0.3953  0.7055  0.5795
36974SOL    HW215379   9.727   9.895   1.453  0.3862  2.2970  1.0531
36975SOL     OW15380   9.878   9.306   1.435 -0.1463 -0.0750  0.1094
36975SOL    HW115381   9.924   9.323   1.353 -0.7848 -1.8946 -0.6838
36975SOL    HW215382   9.915   9.368   1.497  0.4602  1.2547 -1.5170
36976SOL     OW15383   4.599   4.246   9.990  0.9321  0.1647 -0.0185
36976SOL    HW115384   4.577   4.158   9.961 -0.9182  0.2160  1.0786
36976SOL    HW215385   4.666   4.276   9.928  1.0562 -1.7128 -0.8475
36977SOL     OW15386   3.632   7.652   2.963 -0.0523 -0.1374 -0.2287
36977SOL    HW115387   3.672   7.588   2.904 -0.1497  0.3067 -0.7888
36977SOL    HW215388   3.594   7.718   2.904 -2.6599 -1.1230  0.2168
36978SOL     OW15389   8.357   4.562   4.199 -0.8937 -0.8305  0.4096
36978SOL    HW115390   8.370   4.560   4.104  1.2225 -0.0961  0.6301
36978SOL    HW215391   8.360   4.654   4.222 -2.5467 -0.9161  1.1016
36979SOL     OW15392   6.461  10.371   4.880  0.0154 -0.0925  0.5071
36979SOL    HW115393   6.483  10.407   4.966  0.7862  0.6221  0.0233
36979SOL    HW215394   6.401  10.436   4.841 -0.3942 -0.4511  0.5317
36980SOL     OW15395   3.998   4.058   8.150  0.5724 -0.1346 -0.1948
36980SOL    HW115396   4.074   4.061   8.208  1.3362 -1.0653 -1.1040
36980SOL    HW215397   3.949   4.138   8.171  1.4473  0.1503  0.8714
36981SOL     OW15398   8.520   7.133   1.317  0.7531  0.6269  0.2880
36981SOL    HW115399   8.563   7.050   1.295  0.8989  1.1028 -1.3073
36981SOL    HW215400   8.439   7.106   1.362  0.5333 -0.4121 -0.6795
36982SOL     OW15401   8.214   4.892   5.878 -0.2939 -0.5602  0.1660
36982SOL    HW115402   8.220   4.845   5.961 -1.8346 -1.2100 -0.0635
36982SOL    HW215403   8.139   4.853   5.833 -0.6186  1.0076 -0.7446
36983SOL     OW15404   9.933   7.913   8.043 -0.1456  0.5357 -0.5091
36983SOL    HW115405   9.938   7.923   7.948  1.2637  1.7006 -0.3388
36983SOL    HW215406  10.018   7.941   8.075 -0.4009 -0.3668  1.0771
36984SOL     OW15407   5.389   0.404   5.209  0.2405 -0.0245 -0.2537
36984SOL    HW115408   5.421   0.316   5.187  2.1704  0.5828 -0.0491
36984SOL    HW215409   5.294   0.395   5.212  0.4002 -2.1048 -0.2285
36985SOL     OW15410  10.735   1.263   1.309 -0.4127 -0.0970  0.3507
36985SOL    HW115411  10.762   1.352   1.332  0.1956  0.0875 -1.0094
36985SOL    HW215412  10.692   1.271   1.225 -0.8233 -1.0249  0.4551
36986SOL     OW15413  10.173   5.810   5.773 -0.1163  0.0566 -0.2021
36986SOL    HW115414  10.122   5.817   5.692 -2.1527 -0.1907  0.9930
36986SOL    HW215415  10.127   5.866   5.835  0.4235 -1.0874  1.2763
36987SOL     OW15416   5.544  10.732   9.831 -0.0827 -0.1756  0.2141
36987SOL    HW115417   5.557  10.751   9.924  0.4838 -0.2061  0.1435
36987SOL    HW215418   5.596  10.798   9.786 -0.6273  0.0550 -0.0963
36988SOL     OW15419   2.020   3.102   6.895  0.1607  0.3951  0.6057
36988SOL    HW115420   2.088   3.163   6.922 -0.9243  1.3037  1.3690
36988SOL    HW215421   2.001   3.050   6.974  0.7219 -0.6108  0.0997
36989SOL     OW15422   4.532   9.776   7.483  0.4172  0.2675  0.3142
36989SOL    HW115423   4.584   9.727   7.419  1.5267  2.6517 -0.7244
36989SOL    HW215424   4.470   9.826   7.429 -1.0895 -0.3781  1.3800
36990SOL     OW15425   4.508  10.773   0.207 -0.1279 -0.0902 -0.1830
36990SOL    HW115426   4.550  10.857   0.189 -1.0480 -0.0497 -2.5502
36990SOL    HW215427   4.415  10.792   0.205 -0.3541 -1.1928 -0.9874
36991SOL     OW15428   0.437   7.512   1.973 -0.2192  0.0938  0.1285
36991SOL    HW115429   0.412   7.422   1.950 -0.9795  0.5069 -0.7191
36991SOL    HW215430   0.413   7.520   2.066 -0.9072 -0.3238 -0.0054
36992SOL     OW15431   4.434   5.507   9.288 -0.1547  0.2260 -0.1086
36992SOL    HW115432   4.406   5.531   9.200 -0.6412  2.9153  0.6797
36992SOL    HW215433   4.430   5.412   9.289 -1.5570  0.1675 -2.5279
36993SOL     OW15434   7.099   7.809   7.106  0.7022  0.2427 -0.2649
36993SOL    HW115435   7.073   7.756   7.031 -0.7994 -1.8950  1.6363
36993SOL    HW215436   7.019   7.856   7.131  0.4686 -0.9849  1.4377
36994SOL     OW15437   1.114  10.627   5.368 -0.3734 -0.0088 -0.0068
36994SOL    HW115438   1.164  10.686   5.424 -0.9319  0.4355  0.0247
36994SOL    HW215439   1.041  10.598   5.422 -0.3303 -0.4052 -0.1588
36995SOL     OW15440   8.579   2.352   1.868 -0.4245 -0.4807  0.5239
36995SOL    HW115441   8.506   2.360   1.807  0.5775  0.7246 -0.5755
36995SOL    HW215442   8.607   2.260   1.859  0.0946 -0.1860 -1.3645
36996SOL     OW15443   0.448   5.446   4.262 -0.1701  0.6437 -0.1248
36996SOL    HW115444   0.482   5.508   4.198 -1.0138  0.5043 -0.7245
36996SOL    HW215445   0.516   5.441   4.329  0.7944  0.6874 -1.0792
36997SOL     OW15446   6.141   6.783   5.595  0.0850  0.4937  0.0325
36997SOL    HW115447   6.144   6.827   5.510  0.3657 -0.3307 -0.3975
36997SOL    HW215448   6.055   6.807   5.631  0.0700  1.0632 -0.3598
36998SOL     OW15449   4.324   0.337  10.111  0.3591 -0.0791 -0.5665
36998SOL    HW115450   4.271   0.263  10.139 -0.1701  0.1142 -1.0418
36998SOL    HW215451   4.380   0.301  10.041  0.3687 -0.1224 -0.5357
36999SOL     OW15452  10.148  10.645   3.420  0.2525 -0.5564  0.2138
36999SOL    HW115453  10.099  10.601   3.490  0.6715  0.5288  1.2360
36999SOL    HW215454  10.155  10.579   3.351 -2.4161 -0.8542  0.0992
37000SOL     OW15455   9.948   9.015   7.549 -0.0947  0.3738 -0.0594
37000SOL    HW115456   9.952   8.937   7.604  2.8682  0.1405 -0.4445
37000SOL    HW215457   9.999   9.081   7.597 -1.2876  1.6412 -0.4440
37001SOL     OW15458  10.372   9.935   6.917  0.4440  0.4785  0.3412
37001SOL    HW115459  10.424   9.966   6.992 -0.9642 -0.0208  1.5727
37001SOL    HW215460  10.299   9.887   6.957 -0.0291 -0.3001 -1.3886
37002SOL     OW15461   3.337   0.266   7.562 -0.0883  0.1957  0.9010
37002SOL    HW115462   3.333   0.332   7.493 -0.7108 -1.1690 -0.4306
37002SOL    HW215463   3.270   0.293   7.625 -1.4150  0.0484 -0.3874
37003SOL     OW15464   6.289   9.705   7.252 -0.1898 -0.3770  0.0712
37003SOL    HW115465   6.267   9.650   7.176  2.0456 -0.2274 -0.7592
37003SOL    HW215466   6.325   9.785   7.214  1.1292 -0.3661  1.2688
37004SOL     OW15467   2.564   4.026   5.226 -0.0382 -0.1683  0.0409
37004SOL    HW115468   2.520   3.960   5.280 -0.4209 -0.8384 -1.0442
37004SOL    HW215469   2.583   4.098   5.286  0.9569 -1.5154  1.3913
37005SOL     OW15470   9.865   3.591   5.918  0.5957  0.5325  0.6324
37005SOL    HW115471   9.956   3.563   5.920  0.2048 -0.8383  0.3965
37005SOL    HW215472   9.844   3.598   5.824 -0.0498 -1.0465  0.6163
37006SOL     OW15473   6.184   5.322   7.618 -0.1479  0.5759  0.5092
37006SOL    HW115474   6.126   5.372   7.560 -0.4870  0.5120  0.7969
37006SOL    HW215475   6.268   5.320   7.571  0.0606  1.9728  0.7881
37007SOL     OW15476  10.455   4.602   2.206  0.3140  0.1240 -0.4293
37007SOL    HW115477  10.427   4.529   2.262  0.0988  0.7383  0.2903
37007SOL    HW215478  10.541   4.626   2.240  0.6129 -0.1315 -1.0044
37008SOL     OW15479   2.571   0.770  10.099  0.0576  0.0695 -0.0079
37008SOL    HW115480   2.511   0.700  10.076  0.1546  1.0956 -4.2252
37008SOL    HW215481   2.526   0.821  10.166 -1.7067 -1.7319  0.2436
37009SOL     OW15482   1.725   4.184   4.259  0.1590  0.0590  0.3083
37009SOL    HW115483   1.658   4.206   4.194  0.3314  0.6748  0.3325
37009SOL    HW215484   1.808   4.194   4.212  0.2126 -2.4238 -0.2468
37010SOL     OW15485   7.116   7.683   3.448 -0.5387  0.0044  0.3767
37010SOL    HW115486   7.206   7.656   3.428 -1.1260 -1.1885 -0.8030
37010SOL    HW215487   7.106   7.767   3.402 -0.5493 -0.6951 -0.9407
37011SOL     OW15488  10.408  10.136   6.663 -0.6200  0.1012  0.3303
37011SOL    HW115489  10.448  10.049   6.664  0.0733  0.3831 -0.9800
37011SOL    HW215490  10.342  10.131   6.594 -1.1215  0.3930  0.7841
37012SOL     OW15491   5.852   3.025   5.107 -0.4118  0.1294 -0.1272
37012SOL    HW115492   5.856   3.049   5.200 -1.0562 -0.8985  0.1844
37012SOL    HW215493   5.943   3.009   5.082 -0.2229  0.5346  0.2921
37013SOL     OW15494  10.609   6.359   4.682 -0.1312  0.0805 -0.1206
37013SOL    HW115495  10.561   6.308   4.747  2.6326 -1.5365  0.7726
37013SOL    HW215496  10.646   6.294   4.622 -2.1969  1.4767 -3.2119
37014SOL     OW15497   8.625   9.574  10.828  0.2100  0.2145  0.0648
37014SOL    HW115498   8.643   9.599  10.738 -1.9705  2.8438  0.2185
37014SOL    HW215499   8.666   9.642  10.881 -0.9713  0.3381  0.8707
37015SOL     OW15500   4.716   0.790   1.924  0.2436 -0.4515 -0.4330
37015SOL    HW115501   4.634   0.777   1.878  0.2065 -0.9377 -0.2363
37015SOL    HW215502   4.782   0.750   1.868  0.2067 -0.9872 -0.1022
37016SOL     OW15503   2.404   4.356  10.859 -0.0254 -0.1752  0.1615
37016SOL    HW115504   2.353   4.437  10.860 -0.7364 -0.6116 -0.1233
37016SOL    HW215505   2.488   4.381  10.822  0.1510  0.6586  1.0830
37017SOL     OW15506   1.126   6.733   9.041 -0.5208  0.2211 -0.1963
37017SOL    HW115507   1.067   6.676   8.992  0.8836  0.5271 -2.4000
37017SOL    HW215508   1.199   6.748   8.981  1.2733  0.7421  2.0065
37018SOL     OW15509   8.958   1.217   1.956  0.1032  0.1308  0.0827
37018SOL    HW115510   9.010   1.137   1.952 -1.2978 -0.7744 -0.8677
37018SOL    HW215511   8.924   1.229   1.867 -2.7183 -0.3384  0.9855
37019SOL     OW15512   4.786   1.124   2.293  0.0224 -0.3758  0.5174
37019SOL    HW115513   4.772   1.031   2.310  1.2190 -0.3866  1.5309
37019SOL    HW215514   4.793   1.130   2.198 -3.2494 -0.8259  0.1172
37020SOL     OW15515  10.775   9.170   8.553  0.2122  0.1743  0.4848
37020SOL    HW115516  10.750   9.133   8.469 -0.0565 -0.2970  0.7699
37020SOL    HW215517  10.841   9.236   8.532  0.2672 -0.0592 -0.0777
37021SOL     OW15518   9.179   5.092   5.929  0.1761 -0.2524 -1.1067
37021SOL    HW115519   9.238   5.140   5.987  0.9362  0.3651 -2.3646
37021SOL    HW215520   9.213   5.002   5.930  1.1605  0.1002 -1.8264
37022SOL     OW15521  10.370   7.288  10.592  0.1816  0.0208  0.0095
37022SOL    HW115522  10.430   7.358  10.565 -1.4630  1.1895 -0.7837
37022SOL    HW215523  10.423   7.208  10.588  1.0428  0.6230 -3.1906
37023SOL     OW15524   5.807   9.808  10.298 -1.0310 -0.1942 -0.2032
37023SOL    HW115525   5.724   9.765  10.318 -1.2571  0.4722  0.3024
37023SOL    HW215526   5.811   9.883  10.357  1.4859 -2.0477  2.2712
37024SOL     OW15527   3.313  10.953   3.703  0.3089  0.3484  0.1313
37024SOL    HW115528   3.317  11.004   3.622 -0.7317 -0.3146 -0.3705
37024SOL    HW215529   3.328  10.863   3.675 -0.2620  0.0869  0.6309
37025SOL     OW15530   3.050   3.728   1.555 -0.5871  0.1798 -0.5125
37025SOL    HW115531   2.956   3.716   1.544 -0.6593  0.4425 -0.1782
37025SOL    HW215532   3.086   3.639   1.548 -0.7604  0.1751 -1.5410
37026SOL     OW15533   7.564   2.064   9.387 -0.5954  0.5221  0.2143
37026SOL    HW115534   7.503   2.137   9.401 -0.8684  0.0685  1.5263
37026SOL    HW215535   7.514   1.986   9.412  1.1915  0.3253  3.7641
37027SOL     OW15536   8.945   4.370  10.375  0.1270  0.0387  0.1344
37027SOL    HW115537   8.884   4.299  10.393  1.0544 -0.8764 -0.2289
37027SOL    HW215538   8.901   4.449  10.408 -0.0424 -0.9739  2.5384
37028SOL     OW15539  10.261   1.353   4.483 -0.0719  0.8770 -0.2512
37028SOL    HW115540  10.290   1.444   4.485 -0.1934  0.9125 -0.0869
37028SOL    HW215541  10.333   1.304   4.523  0.4471  0.7727 -1.2892
37029SOL     OW15542   9.606  10.251   4.569 -0.1662  0.1276  0.6682
37029SOL    HW115543   9.644  10.313   4.631  1.0391 -1.4589  1.5843
37029SOL    HW215544   9.635  10.282   4.483  0.8811  0.5254  1.1520
37030SOL     OW15545   2.357   1.879   6.504  0.0602  0.0832 -0.3065
37030SOL    HW115546   2.418   1.952   6.516  0.5832 -0.4743  0.5488
37030SOL    HW215547   2.368   1.826   6.584  0.4620 -1.4889 -1.3603
37031SOL     OW15548   6.834   6.100   6.649  0.1643 -0.3182  0.4592
37031SOL    HW115549   6.843   6.195   6.641 -0.3226 -0.2357  0.9057
37031SOL    HW215550   6.919   6.071   6.681  0.6545 -0.1504 -0.6442
37032SOL     OW15551   7.486   1.022  10.564  0.0805 -0.0434 -0.1216
37032SOL    HW115552   7.564   1.068  10.531  1.3088 -1.5138  0.6053
37032SOL    HW215553   7.499   1.018  10.658  0.0247 -1.8749 -0.1707
37033SOL     OW15554  10.079   0.762   5.146 -0.2206  0.3279  0.1947
37033SOL    HW115555  10.167   0.797   5.159 -0.4140  1.2625 -0.8762
37033SOL    HW215556  10.030   0.835   5.107 -0.6274 -1.1288 -2.2038
37034SOL     OW15557   8.902   1.060   4.474 -0.0326  0.6305  0.6838
37034SOL    HW115558   8.949   1.019   4.547  1.0124  1.3549  0.4460
37034SOL    HW215559   8.818   1.014   4.470  0.9284 -1.2185  0.6630
37035SOL     OW15560   3.964   1.808   3.145  0.4979 -0.6832 -0.2492
37035SOL    HW115561   3.975   1.733   3.203  0.7302  0.6210  1.4923
37035SOL    HW215562   3.869   1.822   3.142  0.5605  1.2487  2.6811
37036SOL     OW15563   0.153   7.993   4.447 -0.6226 -0.6098  0.4435
37036SOL    HW115564   0.190   7.956   4.527  0.5468 -0.1977  0.1188
37036SOL    HW215565   0.178   8.086   4.450  0.0124 -0.7232 -0.7034
37037SOL     OW15566   1.205   6.618  10.337 -0.1105  0.3117 -0.0228
37037SOL    HW115567   1.154   6.538  10.324 -0.8534  0.3646  2.1280
37037SOL    HW215568   1.273   6.593  10.400 -0.2970  1.3200  0.6028
37038SOL     OW15569   3.163  10.098   7.019  0.0081  0.5048 -0.4809
37038SOL    HW115570   3.155  10.103   7.115 -0.0341 -0.0164 -0.4595
37038SOL    HW215571   3.144  10.188   6.990  2.8309  1.4367  0.1799
37039SOL     OW15572  10.347   8.381   3.322 -0.4814 -0.3064 -0.2534
37039SOL    HW115573  10.438   8.403   3.304  0.3830 -2.8161  0.6776
37039SOL    HW215574  10.310   8.359   3.236 -0.2623  0.7285 -0.6339
37040SOL     OW15575   1.076  10.397   1.368 -0.1566 -0.4139 -0.2487
37040SOL    HW115576   1.166  10.373   1.389  0.4581  1.9459  0.1251
37040SOL    HW215577   1.025  10.370   1.444  0.3824 -0.9177 -0.0585
37041SOL     OW15578   4.530   5.650  10.390 -0.8095  0.7119  0.5000
37041SOL    HW115579   4.460   5.606  10.438 -0.2427 -1.6407 -0.7378
37041SOL    HW215580   4.611   5.616  10.429 -0.3083 -1.7539 -2.3415
37042SOL     OW15581   7.481   1.981  10.812  0.0612  0.0200  0.6033
37042SOL    HW115582   7.487   2.076  10.807  0.9149  0.0233  1.3646
37042SOL    HW215583   7.468   1.952  10.722 -0.3451  0.8584  0.3874
37043SOL     OW15584   9.507   3.126   1.376  0.0438 -0.4121 -0.0390
37043SOL    HW115585   9.503   3.106   1.282  1.8344 -1.2729  0.0198
37043SOL    HW215586   9.564   3.203   1.382 -0.5247 -0.0082  0.3226
37044SOL     OW15587   5.147  10.277  10.815  0.3922 -0.0305 -0.2039
37044SOL    HW115588   5.096  10.345  10.772  1.0406 -0.5249 -1.8260
37044SOL    HW215589   5.231  10.319  10.834 -0.0775  0.3460  1.1135
37045SOL     OW15590   1.738   0.691   7.425  0.2308  0.1678 -0.0078
37045SOL    HW115591   1.759   0.611   7.473 -0.1910 -0.7229 -1.2712
37045SOL    HW215592   1.644   0.701   7.434 -0.4667 -1.9075 -3.3471
37046SOL     OW15593   6.410   7.101   3.891 -0.3630  0.7703 -0.1026
37046SOL    HW115594   6.328   7.099   3.941 -0.8740  0.4208 -0.9210
37046SOL    HW215595   6.439   7.192   3.895  0.0083  0.6037  1.4351
37047SOL     OW15596   2.473   1.095   3.373 -0.3203  0.5734 -0.3191
37047SOL    HW115597   2.557   1.131   3.402 -0.6074  2.1665 -1.2974
37047SOL    HW215598   2.447   1.036   3.443  0.9315  1.1614  0.6961
37048SOL     OW15599   7.195   4.652   6.869 -0.6919 -0.6443 -0.4711
37048SOL    HW115600   7.131   4.618   6.807 -0.4430 -2.3106  0.1111
37048SOL    HW215601   7.277   4.607   6.846 -0.4781 -0.9002  0.6958
37049SOL     OW15602   9.678   0.627   4.325  0.3666  0.5702  0.6126
37049SOL    HW115603   9.676   0.723   4.320 -0.0191  0.5857  1.0071
37049SOL    HW215604   9.634   0.599   4.245  1.3772  0.7013 -0.0079
37050SOL     OW15605  10.545  10.021   8.021  0.2834 -0.1426 -0.1441
37050SOL    HW115606  10.602  10.092   7.992  0.2562  0.1677  0.5439
37050SOL    HW215607  10.596   9.976   8.088  0.6468 -1.3201 -1.1872
37051SOL     OW15608   2.317   0.921   5.168  0.2143 -0.1666 -0.0707
37051SOL    HW115609   2.394   0.881   5.128  0.5487  0.6326 -0.2246
37051SOL    HW215610   2.290   0.989   5.107 -0.4474 -0.2419  0.1217
37052SOL     OW15611   6.195   4.211  10.062 -0.1165  0.4481  0.0899
37052SOL    HW115612   6.194   4.281  10.127  0.3372 -0.2575  0.8724
37052SOL    HW215613   6.234   4.136  10.107 -0.0533 -0.1430 -0.9082
37053SOL     OW15614   0.831   1.305   1.898 -0.2454  0.1921 -0.1465
37053SOL    HW115615   0.906   1.265   1.855  0.2678 -0.7170  1.5023
37053SOL    HW215616   0.795   1.366   1.833  1.5823  0.2550 -1.1621
37054SOL     OW15617   6.834   9.275   5.867 -0.5705  0.2134 -0.1804
37054SOL    HW115618   6.888   9.198   5.887 -0.2994 -0.1449 -2.0849
37054SOL    HW215619   6.746   9.240   5.852 -0.5201  0.2994 -0.7111
37055SOL     OW15620   0.455   5.945   2.012  0.9097 -0.4991 -0.1198
37055SOL    HW115621   0.546   5.917   2.004  0.2763 -2.6546 -0.3303
37055SOL    HW215622   0.446   5.975   2.102  1.8739  0.0023 -0.1794
37056SOL     OW15623   3.623   6.006   5.234 -0.1877 -0.6996 -0.3281
37056SOL    HW115624   3.664   6.008   5.320  2.3096  0.9429 -1.4627
37056SOL    HW215625   3.644   6.090   5.194  0.0443 -1.9433 -3.1084
37057SOL     OW15626  10.762   1.650   6.451 -0.2955 -0.2147 -0.1921
37057SOL    HW115627  10.810   1.567   6.455  0.5296  0.2934  1.2245
37057SOL    HW215628  10.701   1.640   6.377 -0.2820 -2.1078  0.0228
37058SOL     OW15629   7.132   3.284   2.302 -0.2164  0.0300  0.0559
37058SOL    HW115630   7.158   3.195   2.326  0.5434 -0.6428 -2.8255
37058SOL    HW215631   7.075   3.272   2.226 -0.0486  2.0027 -0.4363
37059SOL     OW15632   1.880   4.720  10.606 -0.9724  0.1345 -0.0730
37059SOL    HW115633   1.863   4.646  10.664  0.7177  0.9526  1.5610
37059SOL    HW215634   1.962   4.698  10.562  0.5153  1.6414  1.7065
37060SOL     OW15635   6.181   4.651   6.459 -0.4325 -0.3935 -0.4446
37060SOL    HW115636   6.112   4.717   6.461 -0.1872 -0.0223 -2.3765
37060SOL    HW215637   6.262   4.702   6.458 -0.0661 -0.8266  1.9422
37061SOL     OW15638   1.649   1.245   0.424  0.0180 -0.0957 -1.0508
37061SOL    HW115639   1.703   1.170   0.449  0.3335  0.1327 -1.0259
37061SOL    HW215640   1.668   1.259   0.331  0.5403  0.4083 -0.8789
37062SOL     OW15641   5.056   7.964   8.801  0.1793 -0.1057 -0.0236
37062SOL    HW115642   5.065   8.052   8.763  0.8475 -0.0994  0.1304
37062SOL    HW215643   5.136   7.953   8.853 -0.0295 -0.7030  0.1723
37063SOL     OW15644   4.342   0.858   1.067  0.0534  0.2638 -0.6337
37063SOL    HW115645   4.247   0.865   1.082 -0.1046 -0.6376 -1.1030
37063SOL    HW215646   4.353   0.883   0.975  0.6347  2.9344  0.0746
37064SOL     OW15647  10.512   3.287   9.093 -0.2931  0.0709  0.0403
37064SOL    HW115648  10.444   3.223   9.115 -0.1327 -0.4512 -0.9071
37064SOL    HW215649  10.508   3.351   9.163 -0.6191 -0.8544  0.8895
37065SOL     OW15650   3.942  10.971   1.050  0.0147 -0.6127 -0.2824
37065SOL    HW115651   3.919  10.878   1.052  1.4807 -0.9720  0.6159
37065SOL    HW215652   3.934  11.000   1.141  0.7963 -0.1798 -0.3448
37066SOL     OW15653  10.973  10.146   5.054  0.3924 -0.8227 -0.2871
37066SOL    HW115654  10.922  10.126   4.975 -0.9888 -0.1751  0.3882
37066SOL    HW215655  11.002  10.236   5.041 -0.1073 -0.6072  0.0733
37067SOL     OW15656   1.970   5.500   0.318 -0.4516  0.6603 -0.1414
37067SOL    HW115657   2.052   5.544   0.341  0.8153 -1.3974 -0.5550
37067SOL    HW215658   1.925   5.488   0.401 -0.0174  1.1781  0.1750
37068SOL     OW15659   0.965   9.199   5.770 -0.3908  0.2523 -0.9009
37068SOL    HW115660   0.924   9.283   5.788 -0.0636  0.3409 -0.5777
37068SOL    HW215661   1.054   9.220   5.743  0.4376 -0.0950  1.3886
37069SOL     OW15662   0.398   1.354  10.248  0.1428  0.3125 -0.2344
37069SOL    HW115663   0.436   1.388  10.329  2.1252 -1.8410 -0.1566
37069SOL    HW215664   0.430   1.412  10.179  0.6417  0.6090  0.2484
37070SOL     OW15665   4.308   1.254   7.237  0.2462 -0.6857  0.1539
37070SOL    HW115666   4.354   1.324   7.283 -1.0801  0.5454 -0.2816
37070SOL    HW215667   4.256   1.211   7.305 -1.1178  0.6361  0.0171
37071SOL     OW15668   6.644   5.655   8.889  0.0741 -0.2734 -0.4655
37071SOL    HW115669   6.676   5.594   8.823 -0.8886  0.3359 -1.5326
37071SOL    HW215670   6.557   5.622   8.912  0.1832 -0.1721  0.0866
37072SOL     OW15671   8.373   3.254  10.897  0.5009  0.4476  0.1657
37072SOL    HW115672   8.419   3.177  10.863 -1.3312 -0.5356 -0.1826
37072SOL    HW215673   8.347   3.303  10.819 -1.5591 -0.5414  0.1701
37073SOL     OW15674   9.971   1.048   8.602 -0.3274 -0.1747  0.0503
37073SOL    HW115675  10.026   1.069   8.527  0.2886  2.0501  1.0304
37073SOL    HW215676   9.892   1.101   8.589 -1.3123 -1.6580 -0.2263
37074SOL     OW15677   2.165   8.830   4.987  0.1062  0.2641  0.0860
37074SOL    HW115678   2.218   8.850   5.063  1.0277 -0.9850 -0.1905
37074SOL    HW215679   2.159   8.912   4.938  1.9376  0.4004  0.0379
37075SOL     OW15680   7.648   2.345   2.627 -0.6239 -0.0594 -0.4558
37075SOL    HW115681   7.607   2.404   2.690 -0.9922 -0.6836 -0.1041
37075SOL    HW215682   7.742   2.357   2.641 -0.6506 -1.7909  1.8035
37076SOL     OW15683   1.151   6.713   6.730  0.6094 -0.4999 -0.0999
37076SOL    HW115684   1.057   6.722   6.716  0.5296 -0.1684  0.6371
37076SOL    HW215685   1.164   6.726   6.824  1.2772 -1.4816 -0.0312
37077SOL     OW15686   3.640   8.314   6.059  0.0260 -0.8069 -0.1519
37077SOL    HW115687   3.655   8.371   6.134 -1.4402  0.8897 -1.0674
37077SOL    HW215688   3.588   8.242   6.093 -1.5806  0.5085  0.3065
37078SOL     OW15689   0.141   6.774   1.589  0.0262  0.3356 -0.1658
37078SOL    HW115690   0.108   6.718   1.659  1.5143  1.3744  1.4272
37078SOL    HW215691   0.064   6.821   1.558 -1.0616 -1.7259 -0.8001
37079SOL     OW15692   4.249   9.648   1.781  0.0905 -0.0457  0.3462
37079SOL    HW115693   4.205   9.615   1.860  1.2240  0.1136  1.0642
37079SOL    HW215694   4.239   9.743   1.785 -0.0126 -0.0501  0.1999
37080SOL     OW15695   5.513   1.636   5.532  0.2418 -0.1675 -0.4998
37080SOL    HW115696   5.521   1.548   5.497 -1.2136 -0.5087 -0.0414
37080SOL    HW215697   5.450   1.628   5.605  1.2788  0.9544  0.5783
37081SOL     OW15698   2.639   7.822   4.870  0.5767  0.5227 -0.4137
37081SOL    HW115699   2.722   7.845   4.828  0.1070  1.3148 -0.9297
37081SOL    HW215700   2.605   7.906   4.902  0.6010  0.0251  0.9771
37082SOL     OW15701   6.050   3.902   2.820  0.2530 -0.2706 -0.0212
37082SOL    HW115702   5.978   3.896   2.883  0.9909  0.4331  0.9285
37082SOL    HW215703   6.028   3.978   2.765  0.8623  0.7545  1.0980
37083SOL     OW15704   3.887  10.366   9.841  0.1031  0.3635  0.0252
37083SOL    HW115705   3.885  10.384   9.935  1.2788 -2.7899  0.7640
37083SOL    HW215706   3.980  10.358   9.820 -0.1559  0.6365 -1.3611
37084SOL     OW15707   4.926   0.389   1.697 -0.2104  0.3386  0.4674
37084SOL    HW115708   4.919   0.307   1.745  0.1860  0.1769  0.2556
37084SOL    HW215709   5.020   0.400   1.683 -0.3510 -0.0253 -0.9390
37085SOL     OW15710   6.401   9.206  10.193  0.1797 -0.2535 -0.4084
37085SOL    HW115711   6.496   9.198  10.186  0.0133 -1.1715 -2.6223
37085SOL    HW215712   6.367   9.127  10.150 -1.5926  0.8045 -1.0884
37086SOL     OW15713  10.396   0.007   9.213  0.3919  0.8973  0.3969
37086SOL    HW115714  10.462   0.075   9.200  0.6915  0.6148  0.4316
37086SOL    HW215715  10.385   0.002   9.308  1.9693 -0.6014  0.5532
37087SOL     OW15716   6.278   3.181   0.196  0.3372  0.6719 -0.0624
37087SOL    HW115717   6.185   3.157   0.202  0.2777  1.1501  1.0158
37087SOL    HW215718   6.324   3.097   0.186 -0.2393  0.4684 -1.2075
37088SOL     OW15719   6.420   8.206   2.994  0.4389  0.5612 -0.1679
37088SOL    HW115720   6.333   8.241   2.976 -0.9097 -1.5800  1.6367
37088SOL    HW215721   6.473   8.232   2.919 -1.4284  2.9167 -0.7749
37089SOL     OW15722   6.597   8.572   6.248 -0.0522 -0.4154 -0.5104
37089SOL    HW115723   6.621   8.585   6.339  2.2278 -0.7466 -0.9807
37089SOL    HW215724   6.550   8.489   6.246  2.1484 -1.7630  0.1057
37090SOL     OW15725   1.800   7.745   0.824 -0.3885  0.1549  0.2500
37090SOL    HW115726   1.863   7.747   0.896  0.2556 -0.3785 -0.2763
37090SOL    HW215727   1.823   7.820   0.770  0.7079 -0.7923 -0.6616
37091SOL     OW15728   6.551   6.238   1.642  0.4069  0.5290 -0.7584
37091SOL    HW115729   6.486   6.222   1.574 -0.4840  0.4373  0.1029
37091SOL    HW215730   6.501   6.247   1.722  1.5638 -1.9867  0.3713
37092SOL     OW15731   0.535   4.486   4.868  0.2505  0.0533  0.2534
37092SOL    HW115732   0.446   4.517   4.846  0.1333  0.5442  1.3743
37092SOL    HW215733   0.569   4.454   4.784 -0.5379  0.9654 -0.4577
37093SOL     OW15734   3.251   6.516   4.729  0.5030 -0.2466  0.6933
37093SOL    HW115735   3.291   6.574   4.664 -0.8953 -0.0693 -0.0471
37093SOL    HW215736   3.319   6.452   4.749  1.0150 -0.2285 -0.8549
37094SOL     OW15737  10.845  10.800   9.613  0.3175  0.4490 -0.0786
37094SOL    HW115738  10.773  10.737   9.606 -0.7755  1.5593  0.6486
37094SOL    HW215739  10.803  10.886   9.604  1.5857  1.1298  0.1679
37095SOL     OW15740   6.080   6.536   5.975 -0.1954 -0.0460  0.3200
37095SOL    HW115741   6.149   6.524   5.909 -0.4821  1.9971 -0.4462
37095SOL    HW215742   6.026   6.458   5.967  1.1272 -0.9565 -0.1758
37096SOL     OW15743   2.715   6.540  10.664 -0.6463  0.0075  0.4468
37096SOL    HW115744   2.755   6.623  10.691 -0.9718 -0.0367  1.0927
37096SOL    HW215745   2.621   6.555  10.673 -0.9312  0.6360 -2.5750
37097SOL     OW15746  10.106   7.952   6.203  0.4417  0.2007  0.4008
37097SOL    HW115747  10.094   7.863   6.237 -0.3026  0.6008  1.2380
37097SOL    HW215748  10.085   8.008   6.277  1.2789  1.0726 -0.0133
37098SOL     OW15749   7.679  10.342   6.747 -1.1084 -0.5406  0.1813
37098SOL    HW115750   7.727  10.416   6.707 -2.2270 -0.5396 -1.2511
37098SOL    HW215751   7.740  10.307   6.812 -0.2538  1.1710  0.3699
37099SOL     OW15752   0.641   0.841   1.525  0.0037  0.0313  0.6164
37099SOL    HW115753   0.628   0.896   1.447 -1.8823  0.0604  0.9034
37099SOL    HW215754   0.657   0.753   1.489  2.5983  0.6094  0.1693
37100SOL     OW15755   9.604   2.469   5.234  0.1470 -0.0264  0.4286
37100SOL    HW115756   9.579   2.460   5.142  0.3743 -0.6788  0.4215
37100SOL    HW215757   9.558   2.547   5.264 -1.4752 -0.8979  0.2746
37101SOL     OW15758   2.884   0.619   3.090 -0.2545 -0.6557 -0.3072
37101SOL    HW115759   2.941   0.542   3.101 -0.4387 -0.6985  0.4063
37101SOL    HW215760   2.939   0.693   3.113 -0.5418 -0.7142  0.5791
37102SOL     OW15761   9.779   6.750   2.790 -0.0384 -0.1326  0.2070
37102SOL    HW115762   9.705   6.781   2.843  0.3368 -0.2511  0.8055
37102SOL    HW215763   9.794   6.660   2.820  1.7880  0.6074  1.7226
37103SOL     OW15764   2.413   7.153  10.715 -0.2712  0.8304 -0.0789
37103SOL    HW115765   2.488   7.186  10.765 -0.3187  1.7909 -0.6113
37103SOL    HW215766   2.407   7.212  10.640 -0.8328  0.0340 -0.6792
37104SOL     OW15767   2.532   3.637  10.635 -0.3170 -1.0151  0.2278
37104SOL    HW115768   2.614   3.623  10.588 -0.4865  0.5555 -0.6104
37104SOL    HW215769   2.548   3.599  10.722  1.6191 -0.0195  0.3777
37105SOL     OW15770   4.693   7.346   7.048 -0.2715  0.4584  0.1348
37105SOL    HW115771   4.696   7.441   7.058 -0.7662  0.7570 -2.1350
37105SOL    HW215772   4.781   7.322   7.020 -0.2241  0.2717  0.4400
37106SOL     OW15773   7.147   5.842   2.622 -0.1071 -0.1704  0.2961
37106SOL    HW115774   7.203   5.841   2.545 -0.7284 -1.3340 -0.1702
37106SOL    HW215775   7.093   5.920   2.612  1.3675  0.9471  0.7389
37107SOL     OW15776   4.923   2.440   4.085 -0.1884 -0.2208  0.6819
37107SOL    HW115777   4.997   2.380   4.100 -0.4043 -0.8934 -0.7337
37107SOL    HW215778   4.879   2.446   4.170  1.5799  0.3490  1.6050
37108SOL     OW15779   3.014   1.385   1.123 -0.3724 -0.1801  0.2134
37108SOL    HW115780   2.963   1.371   1.203  0.7119  0.1004  0.9756
37108SOL    HW215781   3.103   1.358   1.146  0.0893  0.5018 -0.7000
37109SOL     OW15782   6.885  10.122   1.210 -0.4059 -0.5520 -0.5712
37109SOL    HW115783   6.931  10.069   1.275 -1.0207  0.4264  0.6992
37109SOL    HW215784   6.796  10.088   1.209 -0.8552  0.5537  0.3934
37110SOL     OW15785   7.155   2.585   9.752  0.2382 -0.3979  0.1536
37110SOL    HW115786   7.113   2.599   9.667  0.9156 -2.2707 -0.5236
37110SOL    HW215787   7.203   2.667   9.768 -2.1672  1.1111  0.1373
37111SOL     OW15788   9.331   3.091  10.659 -0.0992  0.0739  0.4568
37111SOL    HW115789   9.337   2.996  10.659 -0.3570  0.0566  0.7926
37111SOL    HW215790   9.373   3.118  10.742  1.0612  0.3260 -0.1863
37112SOL     OW15791   9.659   7.804   4.171  0.0292  0.1059 -0.4108
37112SOL    HW115792   9.649   7.800   4.076  0.3974 -0.2144 -0.4378
37112SOL    HW215793   9.753   7.814   4.185  0.1365 -1.3235 -0.0409
37113SOL     OW15794   2.796   1.476   8.120  0.1847 -0.1951  0.1913
37113SOL    HW115795   2.830   1.511   8.038 -1.9499 -0.9152 -1.0925
37113SOL    HW215796   2.763   1.553   8.167  1.9238  0.2905  0.6861
37114SOL     OW15797   1.919   9.347   2.179 -0.1721  0.2574  0.2856
37114SOL    HW115798   1.855   9.292   2.135  1.8660 -1.9233 -0.1518
37114SOL    HW215799   1.896   9.343   2.271 -1.0714  0.0984  0.0553
37115SOL     OW15800  10.094   7.686   0.017 -0.0259  0.2362  0.1869
37115SOL    HW115801  10.052   7.612  -0.025  1.3122 -0.1727 -0.4890
37115SOL    HW215802  10.022   7.739   0.050 -1.0263 -1.9070  1.6804
37116SOL     OW15803   0.324   6.502   9.332 -0.1421 -0.1312 -0.1621
37116SOL    HW115804   0.238   6.472   9.361 -0.0549 -0.5640 -0.3474
37116SOL    HW215805   0.337   6.461   9.246 -0.0133  0.4211 -0.4099
37117SOL     OW15806   9.214   7.446   6.897 -0.3971 -0.0695 -0.3664
37117SOL    HW115807   9.224   7.371   6.955  0.7213  0.5114  0.2248
37117SOL    HW215808   9.302   7.462   6.863 -0.3891  1.5904  0.3220
37118SOL     OW15809   2.488   5.394   6.619 -0.2635  0.0852  0.4590
37118SOL    HW115810   2.554   5.457   6.591 -1.2979  0.5881 -0.9616
37118SOL    HW215811   2.532   5.309   6.616 -0.1222  0.1526 -2.3299
37119SOL     OW15812   8.614   6.140   5.998  0.7386  0.1178  0.8397
37119SOL    HW115813   8.674   6.180   5.936  0.5091  0.1632  0.6461
37119SOL    HW215814   8.664   6.133   6.079  0.9876  0.2001  0.6925
37120SOL     OW15815   0.514   7.360   2.668  0.0002 -0.1965 -0.2008
37120SOL    HW115816   0.496   7.420   2.740 -0.5073 -0.7060  0.1056
37120SOL    HW215817   0.531   7.417   2.593  0.1908  0.3332  0.2383
37121SOL     OW15818   5.456   4.099   0.890 -0.0013  0.1169 -0.1148
37121SOL    HW115819   5.485   4.041   0.819  1.4698  0.7425 -0.0512
37121SOL    HW215820   5.475   4.187   0.858 -0.7810  0.4965  0.4312
37122SOL     OW15821   1.737   2.847   1.480  0.0836 -0.1970 -0.2563
37122SOL    HW115822   1.691   2.931   1.472  0.1653  0.1118  1.8224
37122SOL    HW215823   1.674   2.782   1.450 -0.1772  0.5359 -1.3930
37123SOL     OW15824   2.612   4.228   6.551 -0.1317 -0.4468 -0.0964
37123SOL    HW115825   2.589   4.135   6.553 -0.5583 -0.3567 -0.5842
37123SOL    HW215826   2.591   4.260   6.639  2.5096 -1.3742  0.9517
37124SOL     OW15827   2.203   1.587   5.218  0.1234  0.5188  0.1008
37124SOL    HW115828   2.272   1.524   5.200  2.2626  2.5629  0.6926
37124SOL    HW215829   2.218   1.658   5.156 -1.4639  1.0377  0.2583
37125SOL     OW15830   8.224   1.731   6.498 -0.1892  0.2300 -0.2222
37125SOL    HW115831   8.145   1.680   6.513  0.2405 -0.3020  0.2957
37125SOL    HW215832   8.288   1.667   6.465  0.0737  0.6166 -0.4716
37126SOL     OW15833   1.641   9.011   3.195  0.0214  0.4158 -0.3841
37126SOL    HW115834   1.735   9.024   3.200  0.0891 -0.0015 -0.4814
37126SOL    HW215835   1.625   8.935   3.251  0.3410 -2.2035 -3.5581
37127SOL     OW15836   9.631   8.778   3.335  0.2536 -0.1353 -0.6760
37127SOL    HW115837   9.645   8.870   3.356  0.4439 -0.2672 -0.2098
37127SOL    HW215838   9.612   8.777   3.241 -0.8582  0.4883 -0.4725
37128SOL     OW15839   4.196   2.708   9.817  0.2411 -0.3057  0.4974
37128SOL    HW115840   4.260   2.695   9.887 -1.2724 -0.9531  1.8154
37128SOL    HW215841   4.241   2.764   9.754  0.9328  2.2805  3.0772
37129SOL     OW15842   5.115   3.965   4.932 -0.0523 -0.0269  0.1080
37129SOL    HW115843   5.196   3.934   4.973 -0.0329 -0.2015 -0.0608
37129SOL    HW215844   5.139   3.981   4.841  0.1048  1.1443  0.3434
37130SOL     OW15845   7.585   8.923   6.591 -0.4100 -0.2823 -0.4351
37130SOL    HW115846   7.635   8.963   6.520 -0.4757  0.8824  0.1441
37130SOL    HW215847   7.534   8.995   6.628  1.2603 -0.3375  2.1907
37131SOL     OW15848  10.677   1.396   9.628  0.4540  0.0546 -0.1562
37131SOL    HW115849  10.685   1.341   9.706  1.0726  2.0129  1.2555
37131SOL    HW215850  10.767   1.402   9.594  0.4980  0.6499  0.0540
37132SOL     OW15851   7.990   5.066   5.673  0.5531  0.7140  0.2241
37132SOL    HW115852   7.972   5.130   5.742 -1.5396  1.6118 -1.0500
37132SOL    HW215853   8.034   5.117   5.605  1.4483  0.1207  0.3469
37133SOL     OW15854   7.154   4.473   1.742  0.4025 -0.3234 -0.3889
37133SOL    HW115855   7.171   4.515   1.657 -2.2691 -1.9359 -1.8729
37133SOL    HW215856   7.123   4.543   1.798  1.8738  0.7107 -0.8050
37134SOL     OW15857   7.448   9.648   8.448 -0.6341 -0.5546 -0.2629
37134SOL    HW115858   7.444   9.741   8.471  0.5827 -0.3499 -0.7667
37134SOL    HW215859   7.480   9.605   8.527 -2.1344 -0.7008  0.2876
37135SOL     OW15860   7.123   6.699   4.464  1.0789  0.3359 -0.0717
37135SOL    HW115861   7.160   6.776   4.421  1.0628  0.3899  0.0111
37135SOL    HW215862   7.162   6.625   4.418  0.9748  0.3932 -0.2540
37136SOL     OW15863   1.064   3.828   6.810  0.2531 -0.9579  0.8313
37136SOL    HW115864   0.985   3.813   6.861 -0.1244 -2.1314 -0.0590
37136SOL    HW215865   1.051   3.778   6.730  0.8985  0.6988 -0.3698
37137SOL     OW15866   8.053  10.745   0.042 -0.6004  0.3589  0.1014
37137SOL    HW115867   8.010  10.755  -0.043 -0.8170 -0.0163  0.1665
37137SOL    HW215868   7.993  10.693   0.094 -1.8264  2.9305  1.4612
37138SOL     OW15869   6.591   1.887   3.503 -0.1148  0.2359 -0.2143
37138SOL    HW115870   6.639   1.850   3.429  0.2874 -0.1058  0.2154
37138SOL    HW215871   6.580   1.814   3.564  0.6938  0.8142  0.6449
37139SOL     OW15872  10.011   4.435   5.134  0.5685 -0.2915 -0.5047
37139SOL    HW115873  10.086   4.399   5.180 -0.0045 -1.2512 -0.2918
37139SOL    HW215874  10.008   4.386   5.051 -1.2913 -2.1113  0.5555
37140SOL     OW15875   0.604   9.488   5.124 -0.1609  0.2894  0.2224
37140SOL    HW115876   0.554   9.412   5.155  0.2463 -0.3113 -0.5706
37140SOL    HW215877   0.647   9.458   5.044  1.5579  0.7776  0.9351
37141SOL     OW15878   0.136   8.916  10.832 -0.0267 -0.0524 -0.4597
37141SOL    HW115879   0.060   8.901  10.887 -0.9408 -1.0669 -1.9248
37141SOL    HW215880   0.177   8.830  10.822 -0.4672 -0.1029 -2.1496
37142SOL     OW15881   2.164   6.992   5.665  0.2626  0.2842  0.1228
37142SOL    HW115882   2.172   6.991   5.569  1.7047 -2.7203  0.1568
37142SOL    HW215883   2.075   6.963   5.682  0.7155 -1.5525 -0.3818
37143SOL     OW15884   8.479   5.165   0.092  0.1972  0.4512  0.0495
37143SOL    HW115885   8.452   5.100   0.027  2.0698 -0.1077 -0.2454
37143SOL    HW215886   8.398   5.195   0.131 -0.7786 -1.6704 -0.1991
37144SOL     OW15887   5.166   6.484   4.508  0.0524  0.1779  0.0011
37144SOL    HW115888   5.076   6.515   4.504  0.2904  0.8609 -0.1630
37144SOL    HW215889   5.215   6.545   4.454  0.6586 -0.0399  0.2947
37145SOL     OW15890  10.119   5.900   2.628 -0.3320  0.0526 -0.1596
37145SOL    HW115891  10.090   5.819   2.670  0.5371 -1.0876 -1.6388
37145SOL    HW215892  10.203   5.920   2.668 -0.4496  0.1240  0.0561
37146SOL     OW15893  10.385   2.481   8.810 -0.6351 -0.0814 -0.2106
37146SOL    HW115894  10.334   2.561   8.800 -0.4993  0.0880  0.3831
37146SOL    HW215895  10.356   2.444   8.894 -0.0824 -0.1953 -0.0622
37147SOL     OW15896  10.135   4.542  10.126  0.3411 -0.2196  0.2590
37147SOL    HW115897  10.084   4.478  10.176 -2.1720  1.5988  0.2229
37147SOL    HW215898  10.204   4.570  10.185 -0.3143 -0.8447  1.3494
37148SOL     OW15899   3.817   3.905   3.415  0.5937 -0.0757  0.1606
37148SOL    HW115900   3.744   3.942   3.366  0.4041  0.0366  0.5216
37148SOL    HW215901   3.857   3.981   3.459  1.4037 -0.0137 -0.6356
37149SOL     OW15902   6.039   3.583   1.109  0.0518 -0.0903 -0.2911
37149SOL    HW115903   6.072   3.662   1.153  0.0750 -0.4683  0.3865
37149SOL    HW215904   6.084   3.582   1.025 -0.4661  0.9997 -0.6093
37150SOL     OW15905   1.228   0.579   9.481 -0.1229 -0.0913  0.4033
37150SOL    HW115906   1.200   0.569   9.572  1.6091 -0.0510  0.9809
37150SOL    HW215907   1.149   0.567   9.429 -1.0201 -0.7642  1.8873
37151SOL     OW15908   2.220   9.877   9.782 -0.4951 -0.6726  0.2738
37151SOL    HW115909   2.293   9.863   9.842 -0.0618  1.4191  0.3029
37151SOL    HW215910   2.163   9.939   9.828 -1.4472 -0.9865 -0.4451
37152SOL     OW15911   9.426   7.891   3.112 -0.2212 -0.0192  0.2315
37152SOL    HW115912   9.396   7.832   3.181 -1.2973  1.4941  1.1319
37152SOL    HW215913   9.492   7.841   3.064 -0.5058 -1.6344  1.4389
37153SOL     OW15914  10.899   3.963   5.818 -0.2680  0.3052 -0.2050
37153SOL    HW115915  10.977   3.922   5.856  1.2175  1.4769 -1.8032
37153SOL    HW215916  10.837   3.892   5.805  1.9358 -1.4180 -2.2224
37154SOL     OW15917   5.856   4.096   2.393 -0.4325 -0.2070 -0.0713
37154SOL    HW115918   5.820   4.008   2.382  1.2086 -1.1471  1.5635
37154SOL    HW215919   5.881   4.101   2.485  0.0883  1.7618 -0.2665
37155SOL     OW15920   2.714   0.427  10.119 -0.2845 -0.0669 -0.6274
37155SOL    HW115921   2.734   0.346  10.073 -0.4437  0.4316 -1.5852
37155SOL    HW215922   2.621   0.443  10.100 -0.1297  0.5928 -0.8396
37156SOL     OW15923  10.172   1.816   0.990 -0.2621 -0.1120 -0.2202
37156SOL    HW115924  10.262   1.846   0.978 -0.5501  0.7845 -0.2321
37156SOL    HW215925  10.169   1.781   1.079 -0.6045  2.5867  0.9279
37157SOL     OW15926   5.434   9.570   1.621 -0.6286  0.3302  0.0957
37157SOL    HW115927   5.412   9.590   1.531  1.3992  0.9522 -0.3192
37157SOL    HW215928   5.524   9.603   1.632 -0.2706 -1.0483  1.8870
37158SOL     OW15929   7.996   2.514   1.662  0.6416  0.1647 -0.5713
37158SOL    HW115930   7.960   2.531   1.749  0.2031 -1.5462 -0.3721
37158SOL    HW215931   8.082   2.554   1.662  0.7842 -0.1206  0.7898
37159SOL     OW15932   7.446  10.996   2.003 -0.4973  0.4004 -0.1700
37159SOL    HW115933   7.374  11.022   2.060  0.0869 -1.2464  1.4121
37159SOL    HW215934   7.470  11.076   1.956 -0.2540  2.1966  2.7595
37160SOL     OW15935   5.536   8.860   4.627 -0.5097  0.0676 -0.1795
37160SOL    HW115936   5.604   8.831   4.566 -0.8249 -2.2374  0.4706
37160SOL    HW215937   5.462   8.882   4.570 -0.4189 -0.9467 -0.7177
37161SOL     OW15938   2.728   9.717   3.786  0.3164 -0.0826 -0.2252
37161SOL    HW115939   2.734   9.681   3.874  0.1496 -1.1428 -0.6253
37161SOL    HW215940   2.722   9.640   3.729  0.4695  0.5782 -1.1669
37162SOL     OW15941   1.839   8.639   9.901 -0.1033 -0.1714 -0.2479
37162SOL    HW115942   1.787   8.584   9.842  0.3612 -0.0185 -0.8187
37162SOL    HW215943   1.930   8.618   9.879  0.0748  0.1310  0.1894
37163SOL     OW15944   1.439   6.840   7.980 -0.0610  0.3729 -0.0004
37163SOL    HW115945   1.437   6.935   7.964 -0.1435  0.0912 -1.9703
37163SOL    HW215946   1.385   6.828   8.058 -0.7564  1.8718 -0.2076
37164SOL     OW15947   2.697   2.998  10.486 -0.7355 -0.2364 -0.5518
37164SOL    HW115948   2.735   2.970  10.568 -1.5599  0.2350  0.0079
37164SOL    HW215949   2.613   2.952  10.481 -0.3245 -0.9447 -1.5668
37165SOL     OW15950   7.404   1.458   1.798  0.2460  0.1973 -0.4852
37165SOL    HW115951   7.433   1.473   1.888 -0.1026  0.4819 -0.4156
37165SOL    HW215952   7.480   1.482   1.744  0.4588  0.0160 -0.2687
37166SOL     OW15953   6.487   8.066  10.088 -0.4272  0.1480  0.2328
37166SOL    HW115954   6.406   8.107  10.056 -0.8689 -0.6275  0.3503
37166SOL    HW215955   6.507   7.999  10.023 -0.0915  0.0781  0.4075
37167SOL     OW15956   8.230   9.425   3.557  0.6792 -0.3607 -0.2193
37167SOL    HW115957   8.295   9.447   3.624 -0.5921 -0.3647  1.0611
37167SOL    HW215958   8.151   9.405   3.607 -0.0038 -1.4612 -1.6810
37168SOL     OW15959   8.437  10.004   3.863 -0.3263 -0.4702 -0.2871
37168SOL    HW115960   8.477  10.035   3.781 -0.8339  0.2182 -0.2846
37168SOL    HW215961   8.363  10.063   3.877 -1.1140 -1.4880 -0.0861
37169SOL     OW15962  11.062  10.375   3.309 -0.6905  0.5039  0.6401
37169SOL    HW115963  11.148  10.361   3.346 -0.9808 -1.3973  0.6718
37169SOL    HW215964  11.055  10.312   3.237 -2.1188  0.4786  0.7575
37170SOL     OW15965   2.804   2.442   7.963 -0.1284 -0.0652  0.3233
37170SOL    HW115966   2.863   2.515   7.979 -0.1488  0.0568 -0.1354
37170SOL    HW215967   2.772   2.417   8.049 -0.6469  0.9124  0.4368
37171SOL     OW15968   0.731   1.131   7.557 -0.3336  0.4884 -0.1301
37171SOL    HW115969   0.705   1.040   7.569  1.9142 -0.2765 -0.6549
37171SOL    HW215970   0.658   1.171   7.509 -0.0538 -1.8403 -2.6912
37172SOL     OW15971   0.036   3.239   4.162  0.1995 -0.1285  0.0174
37172SOL    HW115972   0.044   3.217   4.069  2.5572  0.1611  0.0963
37172SOL    HW215973   0.055   3.157   4.208  2.3581  0.4286  0.2278
37173SOL     OW15974   8.623   6.503   3.052 -0.3000 -0.0374 -0.4339
37173SOL    HW115975   8.669   6.481   3.133 -0.6613 -3.9873 -1.0856
37173SOL    HW215976   8.531   6.512   3.078 -0.2185  0.1841 -0.2158
37174SOL     OW15977   5.380   8.195   6.885  0.4393  0.0119 -0.0411
37174SOL    HW115978   5.375   8.200   6.980  0.4961  1.0670 -0.0829
37174SOL    HW215979   5.461   8.242   6.862 -1.0820  2.4543 -0.7785
37175SOL     OW15980   6.746   9.863   3.946 -0.3118 -0.2502  0.1673
37175SOL    HW115981   6.741   9.958   3.960  3.8465  0.0980  0.4702
37175SOL    HW215982   6.765   9.853   3.853  1.0959 -0.5926  0.4653
37176SOL     OW15983   5.763   1.655   2.064 -0.4370  0.1010 -0.0622
37176SOL    HW115984   5.675   1.638   2.032 -0.1989 -0.1505 -0.6086
37176SOL    HW215985   5.780   1.585   2.127  0.4278 -1.6611 -2.0775
37177SOL     OW15986  10.813   3.088   8.234  0.1560 -0.7471 -0.1762
37177SOL    HW115987  10.724   3.088   8.269 -0.2485 -0.7296 -1.1715
37177SOL    HW215988  10.824   3.002   8.194  0.6136 -0.7808  0.0132
37178SOL     OW15989   6.686   5.046   2.424  0.7893 -0.1282  0.4665
37178SOL    HW115990   6.622   5.015   2.488 -0.2845 -1.0715 -1.0154
37178SOL    HW215991   6.693   5.140   2.440  0.8412 -0.3991  2.1988
37179SOL     OW15992  10.391   7.007   9.948  0.0268  0.2944 -0.0153
37179SOL    HW115993  10.386   7.059  10.028 -0.4109 -1.1350  0.9213
37179SOL    HW215994  10.300   6.984   9.928 -0.0155  1.6457 -1.6634
37180SOL     OW15995   2.107   0.469   6.395  0.1036 -0.2109  0.5096
37180SOL    HW115996   2.120   0.457   6.489  2.3461  0.4729  0.3340
37180SOL    HW215997   2.012   0.465   6.384 -0.5843  3.3260  3.3088
37181SOL     OW15998   4.816   8.622   4.028  0.1342  0.4164 -0.7276
37181SOL    HW115999   4.766   8.639   4.108  1.7430  0.3013  0.3747
37181SOL    HW216000   4.897   8.673   4.040  0.4686  0.2799 -2.2318
37182SOL     OW16001  10.711  10.803   8.560  0.3183  0.0822  0.1207
37182SOL    HW116002  10.650  10.772   8.628  1.0814 -0.7961  0.4379
37182SOL    HW216003  10.655  10.826   8.486 -0.4255 -0.4914  0.4830
37183SOL     OW16004   0.599   9.759   2.792  0.4513 -0.3917  0.5725
37183SOL    HW116005   0.543   9.804   2.856 -0.7241 -0.1564 -0.5553
37183SOL    HW216006   0.636   9.685   2.840 -0.5950 -0.3727  1.4633
37184SOL     OW16007  10.464   8.684   4.310  0.1583 -0.3475 -0.1095
37184SOL    HW116008  10.534   8.625   4.282 -0.0101 -0.1137 -1.0610
37184SOL    HW216009  10.505   8.771   4.313  0.3867 -0.4765  1.2121
37185SOL     OW16010   4.025   4.578   2.782  0.4217  0.6225 -0.4261
37185SOL    HW116011   4.027   4.657   2.835  1.4064  1.2180 -1.3157
37185SOL    HW216012   4.111   4.575   2.740  0.8613 -1.5314  0.4651
37186SOL     OW16013   7.672   8.488   4.385  0.1866  0.3613  0.5270
37186SOL    HW116014   7.603   8.441   4.433  0.5605 -0.3465  0.3862
37186SOL    HW216015   7.754   8.453   4.421  0.4697  0.4904  0.0114
37187SOL     OW16016   9.115   8.028   8.521  0.0770  0.4474 -0.0416
37187SOL    HW116017   9.208   8.019   8.545  0.1847  1.8497  0.1443
37187SOL    HW216018   9.071   8.051   8.602 -0.6677 -1.3746  0.1237
37188SOL     OW16019   0.229   3.999   7.698  0.4189 -0.2923  0.0906
37188SOL    HW116020   0.196   3.916   7.665 -1.4248  0.1140  0.7703
37188SOL    HW216021   0.255   3.981   7.789 -0.1991 -0.0860  0.3114
37189SOL     OW16022   0.023   4.111   7.014 -0.5386 -0.5169  0.2749
37189SOL    HW116023  -0.050   4.170   6.996  0.4703  0.1748 -1.8779
37189SOL    HW216024  -0.002   4.029   6.971  0.7766  0.3759 -2.4609
37190SOL     OW16025   0.111   4.593   9.647 -0.0974  0.1365  0.2807
37190SOL    HW116026   0.145   4.537   9.577  0.7926  1.7140 -0.5997
37190SOL    HW216027   0.188   4.619   9.697 -0.1400  2.3619 -0.6901
37191SOL     OW16028   8.729   5.272   0.002 -0.2028 -0.3142 -0.1349
37191SOL    HW116029   8.643   5.251   0.039  0.5313  0.0675  1.9191
37191SOL    HW216030   8.780   5.191   0.011 -0.9985 -1.3676 -3.6811
37192SOL     OW16031   3.117   7.478   9.849  0.0306  0.0198  0.0173
37192SOL    HW116032   3.105   7.496   9.755 -0.6482  1.7948  0.4081
37192SOL    HW216033   3.028   7.474   9.884  0.2917  0.8994  0.8274
37193SOL     OW16034   2.419   1.981   3.872 -0.4848 -0.6537 -0.0773
37193SOL    HW116035   2.335   2.007   3.835 -0.1838 -0.6433 -0.7788
37193SOL    HW216036   2.462   2.064   3.893 -0.6563 -0.6596  0.3058
37194SOL     OW16037   0.346   4.824   6.311 -0.0190  0.2394  0.0746
37194SOL    HW116038   0.414   4.776   6.263  0.1017 -1.3738  1.7542
37194SOL    HW216039   0.265   4.806   6.262  0.4261  0.4750 -0.7671
37195SOL     OW16040   2.794  10.902   3.301 -0.4158  0.5555  0.3729
37195SOL    HW116041   2.806  10.995   3.279  0.1324  0.5591  0.6855
37195SOL    HW216042   2.820  10.895   3.392  0.8596 -0.1608 -0.0246
37196SOL     OW16043   5.008   2.133   0.299 -0.0165  0.5301 -0.2560
37196SOL    HW116044   5.092   2.177   0.287 -0.0184  0.1798 -1.6387
37196SOL    HW216045   4.946   2.204   0.318  0.2890  0.9636 -0.8595
37197SOL     OW16046   6.983   5.193   7.530  0.0244  0.5940 -0.1324
37197SOL    HW116047   6.905   5.163   7.578 -0.3019  1.4410 -0.1023
37197SOL    HW216048   6.984   5.288   7.544  2.4328  0.3681  1.9008
37198SOL     OW16049   3.041   2.493   1.792 -0.4699  0.1234  0.0461
37198SOL    HW116050   3.094   2.445   1.855  0.6662 -0.1981 -1.1148
37198SOL    HW216051   2.970   2.432   1.770  0.9156 -1.0818 -1.3603
37199SOL     OW16052   5.027   0.023   0.423 -0.4336  0.6577 -0.4760
37199SOL    HW116053   5.026  -0.028   0.504  0.4121 -1.1418 -1.5326
37199SOL    HW216054   5.091   0.091   0.438 -1.1081  1.0485  0.7540
37200SOL     OW16055   7.987   7.639   7.991 -0.2611  0.0139 -0.0250
37200SOL    HW116056   7.923   7.696   7.949 -0.4166 -1.4073 -1.8616
37200SOL    HW216057   7.989   7.668   8.082 -3.1869  0.3962  0.0067
37201SOL     OW16058   9.392   3.433   5.475  0.5997  0.2554 -0.0926
37201SOL    HW116059   9.327   3.500   5.495 -2.3430 -2.1150 -0.8857
37201SOL    HW216060   9.426   3.407   5.560 -0.4775  0.6776  0.4848
37202SOL     OW16061  10.445   6.579   6.975 -0.5516  0.0534 -0.6905
37202SOL    HW116062  10.392   6.577   6.895 -0.3453  0.6261 -0.8447
37202SOL    HW216063  10.404   6.514   7.032 -0.2235 -0.9328 -1.5557
37203SOL     OW16064   9.998   8.777   3.512  0.5056 -0.0870 -1.1174
37203SOL    HW116065   9.975   8.799   3.422  0.5875  1.2293 -0.8433
37203SOL    HW216066  10.056   8.848   3.540  1.3394 -1.0290 -0.3638
37204SOL     OW16067   6.154   0.158   6.901 -0.0216  0.3798 -0.1132
37204SOL    HW116068   6.063   0.129   6.913  0.0563  0.2796  0.2572
37204SOL    HW216069   6.161   0.176   6.808 -0.4517  0.4828 -0.1310
37205SOL     OW16070   0.487   2.884   5.187  0.0025  0.6516 -0.1757
37205SOL    HW116071   0.552   2.814   5.181 -0.0115  0.5283  0.9029
37205SOL    HW216072   0.506   2.927   5.270 -1.9527 -0.0581  0.7102
37206SOL     OW16073   1.352   2.188   0.245 -0.7014 -0.5648  0.1921
37206SOL    HW116074   1.274   2.201   0.299 -1.1258 -0.7520 -0.3693
37206SOL    HW216075   1.425   2.220   0.299 -1.3966  1.7083 -0.1090
37207SOL     OW16076   6.080   1.774   5.509 -0.0550 -0.1157  0.4521
37207SOL    HW116077   6.166   1.815   5.516 -0.3069  0.3200  1.0366
37207SOL    HW216078   6.099   1.682   5.487  0.4779  0.4497 -1.6968
37208SOL     OW16079   2.304   1.063   9.926  0.6843 -0.0158  0.0693
37208SOL    HW116080   2.309   0.978   9.884  2.2560 -1.1059  2.2502
37208SOL    HW216081   2.395   1.095   9.927  0.2101  1.4272 -0.1818
37209SOL     OW16082   1.458   3.265   5.166  0.1132  0.6043 -0.1645
37209SOL    HW116083   1.453   3.177   5.205  0.3370  0.1891 -1.0385
37209SOL    HW216084   1.471   3.323   5.240  2.2069 -0.3193  0.2570
37210SOL     OW16085   1.153   7.099   0.396 -0.2092  0.6558  0.1179
37210SOL    HW116086   1.152   7.195   0.394  1.1471  0.6767 -0.5182
37210SOL    HW216087   1.177   7.073   0.308 -2.7911 -0.3866 -0.3945
37211SOL     OW16088   5.956   6.269   5.626  0.2710 -0.1619  0.7414
37211SOL    HW116089   5.914   6.195   5.582  1.9164 -1.6600  1.5584
37211SOL    HW216090   6.044   6.239   5.646  0.7027  1.6998  1.9634
37212SOL     OW16091   9.253   5.504   4.511 -0.3227  0.4249 -0.4629
37212SOL    HW116092   9.218   5.430   4.562 -1.0526  0.8912 -0.2690
37212SOL    HW216093   9.193   5.576   4.529  1.1879  1.4969  0.4944
37213SOL     OW16094   7.699   5.830   3.267 -0.1432 -0.0400  0.0350
37213SOL    HW116095   7.766   5.894   3.245 -0.3816  0.2263  0.0810
37213SOL    HW216096   7.744   5.766   3.322 -0.0719  0.4657  0.5657
37214SOL     OW16097   4.923   3.077  10.179 -0.8162 -0.1524  0.8679
37214SOL    HW116098   4.912   3.144  10.247  0.3675  1.2805 -0.2815
37214SOL    HW216099   4.855   3.097  10.115  0.9040  1.4403 -0.5731
37215SOL     OW16100  10.934   4.330   6.980  0.0896  0.4446 -0.0599
37215SOL    HW116101  10.873   4.368   6.917 -0.7897 -0.0063  0.5027
37215SOL    HW216102  11.012   4.386   6.975  0.2641  0.1066 -1.9436
37216SOL     OW16103   8.669   1.575   2.774 -0.5063 -0.8873  0.3010
37216SOL    HW116104   8.636   1.661   2.747  1.1853  0.5797  2.5227
37216SOL    HW216105   8.741   1.557   2.715  0.0345 -0.0700  0.6885
37217SOL     OW16106   9.753   1.518   1.919  0.3358 -0.1899 -0.2292
37217SOL    HW116107   9.675   1.540   1.969 -0.2838  0.7691 -1.5633
37217SOL    HW216108   9.826   1.542   1.976 -0.3329  2.3936 -0.3411
37218SOL     OW16109   0.849   4.443   5.256  0.0570 -0.3750  0.4552
37218SOL    HW116110   0.794   4.492   5.195  1.3331 -2.2185 -2.4063
37218SOL    HW216111   0.854   4.498   5.334 -1.1426  2.4806 -1.3335
37219SOL     OW16112   7.701   3.379   2.994  0.3157 -0.5101  0.1974
37219SOL    HW116113   7.770   3.388   2.928 -0.1330  0.1199 -0.1937
37219SOL    HW216114   7.620   3.387   2.945 -0.0347  1.6110  1.0134
37220SOL     OW16115   3.073   1.785   1.627 -0.3162 -1.1485  0.0600
37220SOL    HW116116   3.045   1.694   1.639 -1.4494 -0.7776  0.2938
37220SOL    HW216117   3.108   1.810   1.713  1.0356 -1.6866 -0.2986
37221SOL     OW16118   6.931   6.656   6.010  0.9718 -0.4694 -0.5696
37221SOL    HW116119   6.852   6.680   5.961  0.5115 -1.3801 -0.3003
37221SOL    HW216120   6.931   6.714   6.086  0.0469 -1.0742 -0.0889
37222SOL     OW16121   1.855   0.229   3.824 -0.0743 -0.1655  0.6161
37222SOL    HW116122   1.917   0.233   3.897 -0.4669 -2.1239  1.1281
37222SOL    HW216123   1.783   0.286   3.849  0.0701 -0.3603  1.4947
37223SOL     OW16124   3.799   7.850   8.232 -0.3948 -0.1606 -0.9152
37223SOL    HW116125   3.895   7.849   8.223 -0.2444 -2.1104  0.3829
37223SOL    HW216126   3.785   7.862   8.326 -1.4056 -0.8942 -0.9666
37224SOL     OW16127   7.704   9.285   3.520  0.8042  0.5154 -0.2771
37224SOL    HW116128   7.782   9.255   3.474  1.1132  0.0249  0.5447
37224SOL    HW216129   7.656   9.337   3.456 -0.5749 -2.9772 -2.3856
37225SOL     OW16130   8.778   2.589   5.680 -0.0969 -0.5912 -0.2462
37225SOL    HW116131   8.739   2.517   5.729 -0.5883 -0.0800  0.1237
37225SOL    HW216132   8.871   2.570   5.679 -0.1584 -0.9339  0.3453
37226SOL     OW16133   7.781   5.297   1.496 -0.1235 -0.2471 -0.2229
37226SOL    HW116134   7.805   5.378   1.450 -2.1883 -0.6851 -2.2584
37226SOL    HW216135   7.855   5.239   1.482  0.3204  0.4670 -0.9751
37227SOL     OW16136   7.716   1.889  10.582  0.1343 -0.0910 -0.0194
37227SOL    HW116137   7.768   1.858  10.657 -1.2370 -0.5025  0.7954
37227SOL    HW216138   7.706   1.811  10.527  2.0472  0.4503 -1.2363
37228SOL     OW16139   1.291   9.308   1.015  0.5849  0.2329 -0.6774
37228SOL    HW116140   1.323   9.397   1.031  0.8296 -0.1625  1.2951
37228SOL    HW216141   1.200   9.321   0.989  1.1278  1.1316 -2.3028
37229SOL     OW16142   4.832   6.666   7.026 -0.0613  0.4759 -0.0729
37229SOL    HW116143   4.834   6.658   7.122  0.5592 -4.3737 -0.2226
37229SOL    HW216144   4.916   6.706   7.004 -0.3857  2.0594  1.3761
37230SOL     OW16145   6.122   5.224   1.642  0.3498 -0.3782  0.4437
37230SOL    HW116146   6.136   5.224   1.737 -0.9978 -1.0886  0.6606
37230SOL    HW216147   6.181   5.155   1.609  0.6213 -0.3145  0.7892
37231SOL     OW16148   4.970   6.007   8.295 -0.3793  0.3386 -0.1893
37231SOL    HW116149   4.982   5.963   8.380 -1.5677  0.8306  0.2528
37231SOL    HW216150   4.991   6.099   8.313  0.5481  0.2394 -0.7300
37232SOL     OW16151   2.209   2.329   7.835  0.1761  0.6679  0.0202
37232SOL    HW116152   2.136   2.335   7.897 -0.3183  0.6351 -0.5552
37232SOL    HW216153   2.178   2.374   7.757 -0.0816 -1.2747 -1.0533
37233SOL     OW16154   5.352   3.978   3.125  0.0830  0.2205 -0.0950
37233SOL    HW116155   5.274   3.971   3.071  0.7820 -0.9551 -0.9924
37233SOL    HW216156   5.374   3.888   3.149  2.9710  0.0671 -2.6037
37234SOL     OW16157   7.189   4.593   4.293 -0.0144  0.2686 -0.1582
37234SOL    HW116158   7.208   4.515   4.345  0.5973  0.2786 -0.3574
37234SOL    HW216159   7.107   4.572   4.248 -0.8166  0.4498  1.1608
37235SOL     OW16160   2.532   5.933   6.619  0.1339  0.9265  0.3558
37235SOL    HW116161   2.518   5.839   6.627 -0.7890  1.0316  0.0632
37235SOL    HW216162   2.587   5.942   6.541 -0.2266  0.6603  0.0652
37236SOL     OW16163   4.248   4.439   5.830 -0.0063  0.2684 -1.0427
37236SOL    HW116164   4.260   4.359   5.779 -0.0570  0.5085 -1.4338
37236SOL    HW216165   4.170   4.422   5.884 -0.3781  0.2825 -1.5694
37237SOL     OW16166   4.973   0.878   3.323  0.0576  0.3174 -0.2683
37237SOL    HW116167   5.058   0.878   3.279 -1.0869  1.4493 -2.6311
37237SOL    HW216168   4.924   0.949   3.281 -1.9271 -0.0216  1.3258
37238SOL     OW16169   1.868   1.752   7.928  0.1438 -0.2326 -0.4630
37238SOL    HW116170   1.815   1.763   7.850 -1.5810 -0.7350  0.5876
37238SOL    HW216171   1.958   1.765   7.898 -0.5335  0.4330 -2.3407
37239SOL     OW16172   5.279   7.602   5.160 -0.4788  0.7477  0.4492
37239SOL    HW116173   5.290   7.567   5.248 -1.1458  0.2249  0.3402
37239SOL    HW216174   5.294   7.527   5.103 -0.1949  1.0511  0.1222
37240SOL     OW16175   5.032   2.966   9.646  0.2919 -0.0273  0.1479
37240SOL    HW116176   4.993   3.032   9.703 -0.1822  1.0334 -1.3700
37240SOL    HW216177   5.083   2.911   9.706 -1.7689 -0.1756  1.8792
37241SOL     OW16178   0.540   7.007   1.709  0.1447 -0.1991 -0.0032
37241SOL    HW116179   0.453   7.034   1.738  0.3073 -1.2547  1.6215
37241SOL    HW216180   0.534   6.912   1.700  1.1459 -0.2971  0.2470
37242SOL     OW16181   5.006   4.039   8.374 -0.1727  0.0950 -0.3212
37242SOL    HW116182   5.049   3.958   8.403  2.7823  1.3176 -0.9184
37242SOL    HW216183   4.982   4.084   8.454  0.4459 -0.2729  0.0835
37243SOL     OW16184   5.809   9.280   9.344  0.1838 -0.2017  0.1398
37243SOL    HW116185   5.832   9.198   9.388 -0.3742 -0.1529  0.5462
37243SOL    HW216186   5.774   9.336   9.414 -1.6579 -0.4720 -0.4930
37244SOL     OW16187   1.680   1.135   2.303 -0.0727  0.2965  0.0643
37244SOL    HW116188   1.723   1.198   2.362 -1.2045 -0.5345  1.8369
37244SOL    HW216189   1.607   1.184   2.264 -0.7463  0.1932  1.1776
37245SOL     OW16190   8.789   5.704   9.994  0.0477  0.5493 -0.4424
37245SOL    HW116191   8.758   5.628   9.944 -0.3885 -0.5854  1.4258
37245SOL    HW216192   8.751   5.779   9.949 -2.0281 -0.5415 -0.6609
37246SOL     OW16193   8.708   6.684   9.236  0.4241 -0.2509 -0.9020
37246SOL    HW116194   8.803   6.686   9.229  0.5206 -0.1084  0.2407
37246SOL    HW216195   8.690   6.603   9.284  0.0325  0.1628 -0.3414
37247SOL     OW16196   3.195   3.821  10.233  0.3877 -0.1277  0.3386
37247SOL    HW116197   3.220   3.782  10.317 -0.8844 -1.2012  0.2562
37247SOL    HW216198   3.131   3.888  10.256  0.9626  0.4332  0.3132
37248SOL     OW16199   3.113   0.565   1.260 -0.0494 -0.3689 -0.0391
37248SOL    HW116200   3.154   0.539   1.178  0.4556  1.1154 -0.2851
37248SOL    HW216201   3.186   0.577   1.321 -0.4512 -1.9468  0.7943
37249SOL     OW16202   4.176   6.731   2.907 -0.2930 -0.4454  0.1183
37249SOL    HW116203   4.176   6.638   2.930  0.9153 -0.5612 -0.2837
37249SOL    HW216204   4.226   6.773   2.978 -2.9519  0.3210  1.7003
37250SOL     OW16205   4.285  10.023   6.333  0.1904  0.3660  0.0665
37250SOL    HW116206   4.191  10.038   6.317  0.0255 -1.3700 -0.8523
37250SOL    HW216207   4.328  10.057   6.254  0.1161 -0.7400 -0.4727
37251SOL     OW16208  10.716   3.596   7.846  0.2904  0.4669 -0.6428
37251SOL    HW116209  10.768   3.522   7.817 -0.5608  0.0588 -1.1809
37251SOL    HW216210  10.659   3.616   7.772 -1.1459  0.1151  0.3196
37252SOL     OW16211   8.909   0.266   1.395  0.7326  0.2422  0.1028
37252SOL    HW116212   8.824   0.294   1.363 -0.2860  1.4156  3.3781
37252SOL    HW216213   8.972   0.324   1.352 -0.1813  0.0026 -1.6238
37253SOL     OW16214   5.547   5.650   2.225 -0.3201 -0.5549 -0.4114
37253SOL    HW116215   5.632   5.606   2.220  0.5987  1.0606  0.2773
37253SOL    HW216216   5.560   5.733   2.179 -1.7299 -0.5519 -0.8464
37254SOL     OW16217   4.230   5.626   2.375  0.0669  0.7899  0.3557
37254SOL    HW116218   4.278   5.683   2.314 -0.8150 -1.0223 -2.1795
37254SOL    HW216219   4.138   5.648   2.361 -0.1215  0.9813  1.7718
37255SOL     OW16220   7.139   6.642   3.713  0.1832  0.4308 -0.2947
37255SOL    HW116221   7.119   6.589   3.790  0.4500 -0.9511 -1.1367
37255SOL    HW216222   7.220   6.688   3.735 -0.3282  0.9103  0.6425
37256SOL     OW16223   0.435   6.217   6.759 -1.0247 -0.0349  0.1061
37256SOL    HW116224   0.488   6.257   6.828  1.6796  0.1237 -1.9241
37256SOL    HW216225   0.471   6.129   6.749 -2.0013 -0.3800 -0.4891
37257SOL     OW16226   9.778   1.483   7.858 -0.3688  0.2314 -0.0475
37257SOL    HW116227   9.791   1.481   7.764  0.3434 -1.2063  0.0602
37257SOL    HW216228   9.740   1.569   7.875  0.4304  0.9122 -1.5231
37258SOL     OW16229   6.123   4.712   4.813  0.0970 -0.2393 -0.4472
37258SOL    HW116230   6.179   4.644   4.849 -1.6607 -0.9134  1.1772
37258SOL    HW216231   6.038   4.670   4.802 -1.3226  1.8710  1.5756
37259SOL     OW16232   4.807   5.676   7.663 -0.5224 -0.0418  0.2269
37259SOL    HW116233   4.837   5.731   7.736 -0.5646 -0.0610  0.2586
37259SOL    HW216234   4.849   5.591   7.678 -1.5745 -0.4515  0.9655
37260SOL     OW16235   3.073  10.989   6.322  0.1440 -0.1870  0.4015
37260SOL    HW116236   3.104  10.899   6.330 -0.7576 -0.5005  0.5805
37260SOL    HW216237   2.978  10.982   6.332  0.0928  0.8251  0.7429
37261SOL     OW16238  10.509   9.169   1.632  0.2412  0.2277 -0.3819
37261SOL    HW116239  10.514   9.261   1.606  0.6140  0.6498  1.0649
37261SOL    HW216240  10.417   9.154   1.651  0.3117  0.5637  0.2379
37262SOL     OW16241  10.262   7.111   6.047  0.3253  0.2650  0.1164
37262SOL    HW116242  10.307   7.089   6.128  1.6124  0.3777 -0.5496
37262SOL    HW216243  10.268   7.032   5.993 -2.1000 -0.4423  0.7774
37263SOL     OW16244   2.623   5.305   5.912 -0.1744 -0.4753  0.2272
37263SOL    HW116245   2.612   5.253   5.832 -0.7883  0.5211 -0.3631
37263SOL    HW216246   2.537   5.306   5.953  0.0097 -0.5346  0.6201
37264SOL     OW16247   5.730   5.311   7.481  0.2016 -0.1720  0.2065
37264SOL    HW116248   5.740   5.349   7.568 -0.4810 -1.7309  1.0097
37264SOL    HW216249   5.658   5.359   7.441  0.7298  0.7677  0.3506
37265SOL     OW16250   2.500   5.974   7.723 -0.3141  0.0138  0.1225
37265SOL    HW116251   2.515   5.880   7.738  0.4643  0.3848  2.0381
37265SOL    HW216252   2.412   5.990   7.758 -1.2800 -0.3048 -1.9847
37266SOL     OW16253  10.059   9.428   6.384 -0.7454 -0.3983 -0.2874
37266SOL    HW116254   9.983   9.375   6.361  0.0613 -1.9968  0.6298
37266SOL    HW216255  10.120   9.414   6.312 -0.3457 -1.1101  0.1833
37267SOL     OW16256   8.723   3.776   8.836  0.4638  0.2145  0.6667
37267SOL    HW116257   8.677   3.737   8.763  1.6557 -0.7958  0.4158
37267SOL    HW216258   8.704   3.719   8.910  0.2715  0.5290  0.8633
37268SOL     OW16259   4.007   2.598   5.655 -0.3791  0.1178 -0.1730
37268SOL    HW116260   3.999   2.502   5.659  0.6514  0.0122 -0.3310
37268SOL    HW216261   4.048   2.622   5.737  1.3006  0.1816 -0.9879
37269SOL     OW16262   7.427   8.729   8.685 -0.0335 -0.0672  0.4536
37269SOL    HW116263   7.409   8.823   8.684 -0.9211 -0.1492  2.6439
37269SOL    HW216264   7.348   8.690   8.721  1.4432 -1.2967  2.6114
37270SOL     OW16265   0.027   3.304   7.365 -0.2940  0.3317  0.2180
37270SOL    HW116266   0.041   3.299   7.460 -1.1006 -1.5517  0.2764
37270SOL    HW216267   0.094   3.246   7.328 -1.1098 -0.3537 -0.2204
37271SOL     OW16268   6.490   7.137   6.852 -0.0653 -0.1965  0.1672
37271SOL    HW116269   6.398   7.146   6.828 -0.0069 -0.0002  0.0141
37271SOL    HW216270   6.489   7.079   6.928 -0.3003 -0.3472  0.0527
37272SOL     OW16271   1.018   3.993  11.053  0.2140  0.0103 -0.1556
37272SOL    HW116272   1.027   3.899  11.044  1.4458  0.1876 -0.9984
37272SOL    HW216273   1.075   4.016  11.127  1.3281  0.2963 -1.0825
37273SOL     OW16274   8.991   4.668   5.351  0.3018 -0.6082 -0.1957
37273SOL    HW116275   9.022   4.621   5.428  0.1639  2.2761  1.7561
37273SOL    HW216276   8.897   4.680   5.365  0.4757  0.9389 -0.2005
37274SOL     OW16277   7.354   6.307   1.349  0.1191  0.0206  1.1262
37274SOL    HW116278   7.448   6.324   1.344 -0.2223  1.9729 -0.1483
37274SOL    HW216279   7.340   6.233   1.290  0.6961  0.8003 -0.0548
37275SOL     OW16280   4.846   9.220   0.717 -0.1627  0.3049  0.1938
37275SOL    HW116281   4.850   9.149   0.654  0.2373  0.9079 -0.4774
37275SOL    HW216282   4.932   9.262   0.711 -0.4601  0.9617  0.4372
37276SOL     OW16283   4.911   5.087   9.913 -0.5286 -0.1524  0.2020
37276SOL    HW116284   4.906   5.082  10.009  2.3243  0.9003  0.5043
37276SOL    HW216285   4.910   4.996   9.884 -3.4395 -0.4669  0.9835
37277SOL     OW16286   7.234   7.204   5.110 -0.0851  0.4679 -0.5047
37277SOL    HW116287   7.266   7.123   5.151 -1.0543 -0.2695 -1.1866
37277SOL    HW216288   7.313   7.245   5.075  0.3610 -0.4353 -0.5883
37278SOL     OW16289  10.741   9.566   1.048  0.4348  0.1266 -0.0203
37278SOL    HW116290  10.834   9.541   1.053  0.0070 -1.5086  0.2946
37278SOL    HW216291  10.702   9.499   0.993 -0.6496  0.5692  0.1956
37279SOL     OW16292   8.207   7.077   5.485 -0.0316 -0.1927  0.2445
37279SOL    HW116293   8.233   7.047   5.398 -0.0604 -1.2009  0.5704
37279SOL    HW216294   8.185   7.170   5.473  0.1172 -0.2789 -0.7813
37280SOL     OW16295  10.853   2.687   4.035 -0.4855 -0.3167  0.0992
37280SOL    HW116296  10.838   2.719   4.123 -2.1174  0.0142 -0.2662
37280SOL    HW216297  10.879   2.764   3.985  2.0246 -0.7639  0.5705
37281SOL     OW16298   5.196   9.038   0.612  0.2635 -0.8304 -0.1144
37281SOL    HW116299   5.218   9.072   0.699 -0.3523  0.0489 -0.2818
37281SOL    HW216300   5.100   9.035   0.612  0.1973  0.4057 -1.1884
37282SOL     OW16301   8.308   4.821   4.526 -0.1178  0.4380  0.3376
37282SOL    HW116302   8.300   4.880   4.601 -1.5826  0.9555 -0.1815
37282SOL    HW216303   8.283   4.735   4.560 -1.3345  0.7735  0.3467
37283SOL     OW16304   5.301   5.602   2.114 -0.1763  0.3369 -0.0204
37283SOL    HW116305   5.393   5.613   2.140 -0.0169 -0.7665 -0.0580
37283SOL    HW216306   5.305   5.585   2.020 -0.5224  1.4080 -0.2430
37284SOL     OW16307   6.936   2.377   0.439 -0.0883 -0.5877 -0.4099
37284SOL    HW116308   6.866   2.404   0.498 -0.6559 -0.4145 -1.1420
37284SOL    HW216309   6.892   2.325   0.371  0.0292  1.6491 -2.3321
37285SOL     OW16310   4.761   4.806  10.874  0.6866  0.2715  0.6654
37285SOL    HW116311   4.731   4.784  10.786  2.3746 -0.6504  0.2614
37285SOL    HW216312   4.683   4.802  10.928 -0.2132 -0.1368 -0.6189
37286SOL     OW16313   6.374  10.813   0.386 -0.0911  0.4394  0.4090
37286SOL    HW116314   6.281  10.807   0.364  0.1599 -0.5231 -0.4405
37286SOL    HW216315   6.413  10.862   0.313  0.3821 -0.8640 -0.2419
37287SOL     OW16316   8.488   9.293  10.673 -0.3643  0.1763  0.6343
37287SOL    HW116317   8.498   9.302  10.579 -1.3302 -1.2950  0.3621
37287SOL    HW216318   8.515   9.378  10.708 -0.3447  0.8686 -0.9784
37288SOL     OW16319   0.359   8.845   4.347  0.4435  0.7821 -0.1687
37288SOL    HW116320   0.363   8.859   4.441 -1.4499  2.3901 -0.2548
37288SOL    HW216321   0.435   8.892   4.313  1.5766 -0.4555  0.5755
37289SOL     OW16322   0.098   9.838   5.387  0.5348  0.0040 -0.6736
37289SOL    HW116323   0.057   9.870   5.467  0.6147  0.0912 -0.6669
37289SOL    HW216324   0.058   9.890   5.317  0.8025  0.2572 -0.6447
37290SOL     OW16325   0.834   8.634   0.934 -0.0456 -0.1050 -0.0090
37290SOL    HW116326   0.922   8.624   0.900 -0.4179 -0.5124 -0.8926
37290SOL    HW216327   0.819   8.728   0.937 -0.4901 -0.0390 -2.3486
37291SOL     OW16328   5.731   8.990   2.339 -0.0464 -0.0332  0.1627
37291SOL    HW116329   5.823   8.988   2.367 -0.2298 -0.3025  0.7630
37291SOL    HW216330   5.703   9.080   2.357 -0.2446 -0.2785  1.1395
37292SOL     OW16331   1.859   6.611   3.771  0.0789  0.4587 -0.4349
37292SOL    HW116332   1.821   6.674   3.709  1.5194  0.6996 -1.1042
37292SOL    HW216333   1.949   6.599   3.742  0.1619 -1.0907  0.3445
37293SOL     OW16334   4.159   1.603   9.091 -0.1403  0.1774 -0.1959
37293SOL    HW116335   4.249   1.637   9.094  0.4074 -1.2183 -0.0177
37293SOL    HW216336   4.134   1.592   9.183 -1.1939  2.2146 -0.1779
37294SOL     OW16337   2.053   1.570   3.792  0.1576  0.5169  0.1179
37294SOL    HW116338   2.024   1.630   3.724 -0.8817  0.4261  0.4749
37294SOL    HW216339   2.120   1.619   3.840  1.5574  0.2870 -1.4613
37295SOL     OW16340   0.820   8.329   6.413 -0.0342 -0.5010 -0.0049
37295SOL    HW116341   0.749   8.349   6.351 -0.1855  0.6646  0.5200
37295SOL    HW216342   0.885   8.282   6.361  0.6721  1.9993 -1.5410
37296SOL     OW16343  10.319   6.656   7.497 -0.4928 -0.4340  0.5387
37296SOL    HW116344  10.267   6.628   7.421  1.6422 -0.0213 -1.1535
37296SOL    HW216345  10.319   6.751   7.493 -2.7318 -0.2194  2.8206
37297SOL     OW16346   0.761   5.778   6.743 -0.0510  0.2504 -0.0747
37297SOL    HW116347   0.857   5.786   6.736  0.1256 -0.2415  1.3766
37297SOL    HW216348   0.740   5.701   6.691  0.5151 -0.3398  0.5335
37298SOL     OW16349   5.303   1.451   3.391  0.6588  0.0278 -0.1336
37298SOL    HW116350   5.240   1.489   3.330  0.8197 -0.7950 -0.8457
37298SOL    HW216351   5.373   1.515   3.396  0.4046  0.3357 -0.4188
37299SOL     OW16352  10.768   1.855   8.308  0.3761 -0.5602 -0.4382
37299SOL    HW116353  10.711   1.810   8.245 -0.0393 -0.7725  0.0781
37299SOL    HW216354  10.758   1.805   8.389  0.7584 -0.1779 -0.1502
37300SOL     OW16355   6.728  10.541   8.229 -0.2424  0.3378 -0.4904
37300SOL    HW116356   6.663  10.612   8.233  1.3246  1.7967  1.5246
37300SOL    HW216357   6.813  10.586   8.234  0.8584 -1.6225 -0.5040
37301SOL     OW16358   5.174   1.107  10.176  0.2924 -0.4914 -0.3383
37301SOL    HW116359   5.164   1.047  10.249 -0.4322  1.8464  1.5910
37301SOL    HW216360   5.245   1.166  10.202 -0.1139  0.5245 -1.4283
37302SOL     OW16361   8.985   8.278  10.174 -0.1190  0.2108 -0.2758
37302SOL    HW116362   8.999   8.188  10.143  0.8821 -0.0197  0.7951
37302SOL    HW216363   8.894   8.278  10.205 -0.6865  0.0613 -1.8610
37303SOL     OW16364  11.042   5.875   3.025  0.1194  0.1952  0.1238
37303SOL    HW116365  11.076   5.955   3.065  1.2116  0.0635 -0.4880
37303SOL    HW216366  10.963   5.854   3.076 -0.2483  1.7062  0.2138
37304SOL     OW16367  10.964   8.998   7.709  0.0098 -0.3968 -0.0080
37304SOL    HW116368  10.921   8.962   7.632 -0.8438  0.6280 -0.0321
37304SOL    HW216369  10.983   9.089   7.686  0.3424 -0.2690  0.7429
37305SOL     OW16370   4.226   6.022   1.589 -0.0136 -0.1539  0.4535
37305SOL    HW116371   4.319   6.005   1.598 -0.0823 -1.1256 -0.4956
37305SOL    HW216372   4.211   6.026   1.495 -0.8585  0.4208  0.5963
37306SOL     OW16373   3.550   0.013   2.485 -0.4156 -1.0682  0.1755
37306SOL    HW116374   3.621  -0.039   2.523  0.9943 -1.2474 -2.5014
37306SOL    HW216375   3.586   0.101   2.477 -1.7467 -0.2870  1.8543
37307SOL     OW16376   7.891   8.526   4.921  0.1030 -0.2949 -0.0218
37307SOL    HW116377   7.968   8.468   4.913 -0.0006 -0.4843  0.3429
37307SOL    HW216378   7.915   8.603   4.870  0.0774 -0.8271 -0.8645
37308SOL     OW16379   6.546   2.061   9.902 -0.2862  0.3060 -0.6743
37308SOL    HW116380   6.606   2.122   9.945 -0.6730  0.1648  0.0868
37308SOL    HW216381   6.467   2.063   9.955 -0.3477 -0.7829 -0.6836
37309SOL     OW16382   0.386   6.881   4.442 -0.2032 -0.7917  0.3253
37309SOL    HW116383   0.431   6.909   4.362 -0.8197  2.2591  0.9152
37309SOL    HW216384   0.294   6.901   4.426 -0.4024 -0.6440  1.5707
37310SOL     OW16385   4.441   1.495   7.304  0.0249  0.1586 -0.2237
37310SOL    HW116386   4.509   1.467   7.243  1.7029 -3.0362  2.7590
37310SOL    HW216387   4.489   1.536   7.377 -1.5255  0.4957  0.6559
37311SOL     OW16388   6.304   0.863   0.520 -0.7051 -0.1971 -0.8044
37311SOL    HW116389   6.397   0.848   0.537 -0.6705 -0.7486 -1.4488
37311SOL    HW216390   6.301   0.951   0.482 -0.5822  0.2914  0.2830
37312SOL     OW16391   6.492  10.571   3.872  0.3636  0.6315 -0.2290
37312SOL    HW116392   6.555  10.570   3.943 -0.0220  0.7296  0.1168
37312SOL    HW216393   6.480  10.663   3.851  0.1298  0.6303 -0.1070
37313SOL     OW16394  10.802   1.592   0.478 -0.0813  0.4682  0.4608
37313SOL    HW116395  10.890   1.562   0.500 -0.9089  0.0456  3.6038
37313SOL    HW216396  10.806   1.608   0.383  2.3296 -2.9202 -0.2017
37314SOL     OW16397   6.238   3.042   9.410  1.1151  0.1211 -0.4343
37314SOL    HW116398   6.295   3.063   9.485  0.1161 -0.6189  0.5651
37314SOL    HW216399   6.164   3.101   9.419  1.8714  1.3874 -1.9877
37315SOL     OW16400   2.124   1.800   6.903 -0.1742 -0.1061 -0.6964
37315SOL    HW116401   2.154   1.719   6.861 -0.9109 -0.5397 -0.4149
37315SOL    HW216402   2.160   1.797   6.991 -2.2937 -1.4479  0.2186
37316SOL     OW16403   3.492   1.719   1.681 -0.2385  0.0573  0.4342
37316SOL    HW116404   3.438   1.703   1.604  0.5282  1.5342 -0.4354
37316SOL    HW216405   3.431   1.755   1.746 -0.5941  0.2031  0.0215
37317SOL     OW16406   3.374   8.764   2.378  0.3164  0.1853  0.3409
37317SOL    HW116407   3.358   8.697   2.444 -0.3616 -2.0974 -1.9738
37317SOL    HW216408   3.315   8.836   2.402 -0.4746 -0.8919  1.7438
37318SOL     OW16409   8.956   0.368   7.390 -0.0934  0.0348 -0.4920
37318SOL    HW116410   8.975   0.462   7.384 -0.7946  0.2509  0.3301
37318SOL    HW216411   8.940   0.354   7.484  1.8818 -1.2967 -0.2972
37319SOL     OW16412   6.238  10.004   9.295  0.6110 -0.0370 -0.1604
37319SOL    HW116413   6.261  10.096   9.288 -1.9659  0.6463 -0.6867
37319SOL    HW216414   6.314   9.963   9.337  1.2527  2.5632  1.4268
37320SOL     OW16415   2.258   2.446   5.610  0.1956 -0.3471 -0.0404
37320SOL    HW116416   2.221   2.368   5.569  0.8225 -0.7063  0.0630
37320SOL    HW216417   2.351   2.444   5.587  0.2543  0.2760  0.1109
37321SOL     OW16418   1.719   9.568   7.654 -0.1683  0.9378 -0.6350
37321SOL    HW116419   1.814   9.565   7.643 -0.0768  1.6386 -0.0892
37321SOL    HW216420   1.706   9.621   7.733 -0.9905  0.3914 -0.3954
37322SOL     OW16421   3.917   6.488  10.661 -0.1930  0.0572 -0.4629
37322SOL    HW116422   3.932   6.430  10.736 -0.6114  1.1917  0.5306
37322SOL    HW216423   3.976   6.456  10.594 -0.0003 -1.1639  0.2618
37323SOL     OW16424   0.426   6.362   9.125 -0.4716  0.2653  0.1747
37323SOL    HW116425   0.502   6.394   9.076  0.2864 -3.0544 -1.1239
37323SOL    HW216426   0.368   6.326   9.057 -2.0753  0.5465  1.3420
37324SOL     OW16427   5.653   2.152   1.913  0.6816  0.1447 -0.2655
37324SOL    HW116428   5.603   2.169   1.832  2.7266  2.4170 -1.1802
37324SOL    HW216429   5.694   2.067   1.898 -0.6941 -0.4990 -0.6326
37325SOL     OW16430   2.542   8.782   3.078  0.0537  0.6642  0.2178
37325SOL    HW116431   2.559   8.834   3.157 -1.8887  1.5016  0.1242
37325SOL    HW216432   2.447   8.771   3.076  0.2744 -1.6377 -0.5903
37326SOL     OW16433   9.704   4.167   5.500 -0.4172  0.0082  0.5512
37326SOL    HW116434   9.661   4.249   5.477  0.5664  0.1068 -1.0705
37326SOL    HW216435   9.693   4.161   5.595 -0.9769  1.7392  0.6429
37327SOL     OW16436   2.834   4.016   8.011  0.0072 -0.4196  0.1318
37327SOL    HW116437   2.793   3.935   7.982  2.0031 -1.9090  1.2661
37327SOL    HW216438   2.798   4.083   7.953 -0.7494 -2.2933 -1.6721
37328SOL     OW16439   0.237   5.996   7.854 -0.2534 -0.8117 -0.0790
37328SOL    HW116440   0.321   6.018   7.893  0.9805 -2.9761 -1.3054
37328SOL    HW216441   0.197   6.080   7.833  0.5258  0.3435  2.5970
37329SOL     OW16442   8.806   5.948   9.363  0.1548 -0.3623  0.1682
37329SOL    HW116443   8.845   5.949   9.275  0.4227  1.0431  0.2789
37329SOL    HW216444   8.865   6.000   9.416 -1.5325  1.3372  0.4817
37330SOL     OW16445   9.932  10.281   6.359  0.8764  0.0130  0.6391
37330SOL    HW116446   9.986  10.318   6.289 -0.2796  1.6462  0.5586
37330SOL    HW216447   9.930  10.349   6.426 -0.4799 -0.3072  0.9496
37331SOL     OW16448   0.532   9.106   8.327 -0.4431 -0.8592 -0.0610
37331SOL    HW116449   0.568   9.122   8.414 -1.5099 -0.6758  0.3695
37331SOL    HW216450   0.532   9.192   8.285 -1.0210 -0.7277  0.2000
37332SOL     OW16451   1.552  10.120   4.482 -0.1987  0.3073  0.1251
37332SOL    HW116452   1.555  10.101   4.575 -1.2163 -0.4380  0.0211
37332SOL    HW216453   1.612  10.057   4.442 -2.0547 -1.4676 -0.0089
37333SOL     OW16454   1.152   5.855   1.589 -0.2316  0.2092 -0.4901
37333SOL    HW116455   1.183   5.838   1.500 -0.8408  1.4150 -0.9652
37333SOL    HW216456   1.179   5.779   1.640  2.4265  0.6231 -1.1266
37334SOL     OW16457   6.449   2.194   7.354  0.4023  0.7898 -0.0731
37334SOL    HW116458   6.453   2.123   7.290  2.9722 -0.4285  1.2753
37334SOL    HW216459   6.415   2.269   7.305 -1.8363 -1.1332 -1.7142
37335SOL     OW16460   8.882   8.012   8.114 -0.3405 -0.1401  0.7317
37335SOL    HW116461   8.967   8.050   8.089 -0.6088  0.9357  1.3611
37335SOL    HW216462   8.876   8.028   8.208 -1.7942  0.9739  0.4898
37336SOL     OW16463  10.100   5.101   0.707  0.3564 -0.5864  0.1200
37336SOL    HW116464  10.133   5.176   0.756  0.6273 -0.2127 -0.6152
37336SOL    HW216465  10.068   5.138   0.625 -0.9396 -1.0907  0.3852
37337SOL     OW16466   6.679   8.717   3.806 -0.0108 -0.0035  0.3887
37337SOL    HW116467   6.664   8.625   3.828  0.2521  0.2695  1.7840
37337SOL    HW216468   6.770   8.721   3.778  0.2208 -0.0396  1.1173
37338SOL     OW16469   8.378   1.055   3.219  0.3967 -0.0852  0.0109
37338SOL    HW116470   8.298   1.105   3.237 -0.4063 -0.5990 -1.8454
37338SOL    HW216471   8.449   1.117   3.234 -0.3858  0.6428  0.8780
37339SOL     OW16472   9.229  10.608   1.335  0.1397 -0.4761 -0.0423
37339SOL    HW116473   9.164  10.604   1.405  1.3706 -1.2383  1.1017
37339SOL    HW216474   9.307  10.645   1.377  0.4403  0.5047 -1.4040
37340SOL     OW16475   5.343   5.378   3.803 -0.2604  0.4596 -0.3813
37340SOL    HW116476   5.394   5.454   3.834 -2.2509  1.6153  0.2351
37340SOL    HW216477   5.395   5.302   3.831  1.1555  1.5603  0.1469
37341SOL     OW16478   9.576   4.828   8.246  0.0562  0.8102 -0.1538
37341SOL    HW116479   9.653   4.880   8.269 -0.5861  1.5314  0.4008
37341SOL    HW216480   9.593   4.742   8.286  0.4963  1.0136  0.1063
37342SOL     OW16481   8.723   0.225   6.854  0.8823 -0.3430  0.3215
37342SOL    HW116482   8.657   0.158   6.838 -0.6771  1.1695  0.1280
37342SOL    HW216483   8.737   0.223   6.948  1.0625 -1.1160  0.2848
37343SOL     OW16484   6.656   4.042   5.200  0.3443  0.0990 -0.1134
37343SOL    HW116485   6.644   4.013   5.291 -1.3410  3.4784  0.9229
37343SOL    HW216486   6.747   4.069   5.195  0.8564 -1.4920  0.0566
37344SOL     OW16487   1.305   8.130   2.869 -0.0265 -0.3619 -0.3664
37344SOL    HW116488   1.346   8.090   2.792 -1.0122 -0.3368 -0.9325
37344SOL    HW216489   1.285   8.219   2.841  0.0300 -0.2108  0.0811
37345SOL     OW16490   3.552  10.583   6.890  0.3641  0.6099  0.3157
37345SOL    HW116491   3.545  10.678   6.879  0.9318  0.6690  0.4451
37345SOL    HW216492   3.642  10.568   6.919  0.9987 -0.1637 -1.8242
37346SOL     OW16493   3.752   8.827  10.153 -0.1878  0.1216 -0.8025
37346SOL    HW116494   3.832   8.775  10.152  0.0732  0.4884 -0.1039
37346SOL    HW216495   3.735   8.846  10.061 -0.6630 -1.7347 -1.1352
37347SOL     OW16496  10.992   4.414   1.235  0.3548  0.4273  0.3775
37347SOL    HW116497  10.906   4.376   1.219  0.1169  0.8255  0.6667
37347SOL    HW216498  10.995   4.491   1.178  0.8775 -0.0742 -0.2923
37348SOL     OW16499   4.884   9.211   6.112 -0.5171  0.0437  0.4271
37348SOL    HW116500   4.844   9.260   6.041 -0.0535  1.4942  1.1354
37348SOL    HW216501   4.889   9.273   6.185 -2.4162 -1.7976  2.2784
37349SOL     OW16502   9.054   9.711  10.656  0.2911  0.2807 -0.5112
37349SOL    HW116503   8.999   9.740  10.728  1.7854 -0.8620  1.1769
37349SOL    HW216504   9.005   9.639  10.616 -1.1479  1.7565 -1.5652
37350SOL     OW16505  10.702   3.674   0.553  0.0347  0.7280 -0.1154
37350SOL    HW116506  10.684   3.580   0.560 -3.4119  1.3311  1.2838
37350SOL    HW216507  10.670   3.698   0.467  0.7911  0.6641 -0.4194
37351SOL     OW16508   1.828  10.186   4.381 -0.2312 -0.1583 -0.1175
37351SOL    HW116509   1.805  10.093   4.383 -0.4943 -0.0950  2.2357
37351SOL    HW216510   1.745  10.232   4.391  0.1653  0.2041  2.0724
37352SOL     OW16511   1.551   9.678   0.666 -0.3111  0.0360 -0.2261
37352SOL    HW116512   1.497   9.727   0.604 -0.4727 -0.8493 -0.8079
37352SOL    HW216513   1.544   9.587   0.637 -1.0723 -0.5315  1.6018
37353SOL     OW16514   0.859   5.420   6.417 -0.3057 -0.1199 -0.1221
37353SOL    HW116515   0.797   5.468   6.471  0.0721  1.0048 -0.6562
37353SOL    HW216516   0.857   5.464   6.332  1.2735  0.0048 -0.1215
37354SOL     OW16517   2.384   9.866   4.169  0.0576 -0.3972 -0.1748
37354SOL    HW116518   2.362   9.777   4.143 -0.9010  0.1675 -1.3772
37354SOL    HW216519   2.457   9.855   4.230  0.7617 -1.9381 -1.2230
37355SOL     OW16520  10.081   4.840   3.880  0.3701  0.7276 -0.2552
37355SOL    HW116521  10.171   4.873   3.882  0.6955  0.3386 -3.3769
37355SOL    HW216522  10.027   4.919   3.871  0.2963  0.9920  2.0182
37356SOL     OW16523   6.932   5.647   3.247  0.1537 -0.6068  0.1778
37356SOL    HW116524   6.930   5.718   3.311 -0.8546 -0.3526 -0.1154
37356SOL    HW216525   6.962   5.688   3.166 -1.0072 -0.3635 -0.1469
37357SOL     OW16526  10.386   8.005   9.445  0.4122 -0.2794  0.7835
37357SOL    HW116527  10.444   8.052   9.506  0.0534  0.4988  0.5387
37357SOL    HW216528  10.370   8.068   9.375  0.2616 -0.9264  0.2301
37358SOL     OW16529   2.741   6.678   7.866  0.2138  0.8916 -0.0377
37358SOL    HW116530   2.732   6.584   7.883  0.3479  1.0015  0.6535
37358SOL    HW216531   2.651   6.711   7.871  0.3050  1.0134  1.0441
37359SOL     OW16532   3.693   5.401   7.315  0.0380  0.4212 -0.7203
37359SOL    HW116533   3.727   5.376   7.229 -1.7167  0.7977 -1.5570
37359SOL    HW216534   3.655   5.488   7.301 -2.5277 -0.5307 -0.2505
37360SOL     OW16535   5.443   4.788   4.748 -0.4692 -0.1237 -0.0452
37360SOL    HW116536   5.462   4.852   4.680 -2.9930 -1.3736 -2.0977
37360SOL    HW216537   5.447   4.703   4.705 -0.3668 -1.1319  1.8149
37361SOL     OW16538   3.297   2.007   0.076 -0.7498 -0.2252 -0.3419
37361SOL    HW116539   3.353   1.931   0.059  1.4428  1.0616  0.7310
37361SOL    HW216540   3.357   2.081   0.077 -2.3869  1.1696  1.5173
37362SOL     OW16541   0.241   0.280   3.749  0.2516  0.7122 -0.3760
37362SOL    HW116542   0.177   0.348   3.769 -0.2563  0.5230 -1.3069
37362SOL    HW216543   0.290   0.314   3.674  1.1594  0.7966  0.2435
37363SOL     OW16544   1.473   8.546   6.906 -0.2113 -0.2236  0.4352
37363SOL    HW116545   1.501   8.638   6.907 -1.3687  0.1438  0.5739
37363SOL    HW216546   1.487   8.517   6.996 -0.3263 -0.0235  0.5199
37364SOL     OW16547   4.602   3.405   1.464  0.2651  0.8999 -0.4184
37364SOL    HW116548   4.595   3.422   1.370 -1.6752  2.3276 -0.0924
37364SOL    HW216549   4.678   3.456   1.492  1.4145 -0.2532 -1.3101
37365SOL     OW16550   5.143   0.798   7.910  0.0488 -0.3535 -0.3853
37365SOL    HW116551   5.109   0.883   7.881  0.4679 -0.0952 -0.1338
37365SOL    HW216552   5.186   0.762   7.833 -0.2401 -0.3938 -0.5277
37366SOL     OW16553   7.855   6.448   4.207  0.2550 -0.2262  0.3984
37366SOL    HW116554   7.948   6.449   4.227 -0.0834  0.9591  2.1436
37366SOL    HW216555   7.813   6.427   4.291 -1.0232 -1.6254 -0.5410
37367SOL     OW16556   7.901   0.542   1.302  0.2881 -0.0984  0.1749
37367SOL    HW116557   7.972   0.598   1.271  1.1278 -1.1102  0.2187
37367SOL    HW216558   7.835   0.546   1.233  0.3399  0.9271  0.1791
37368SOL     OW16559  10.241   5.293  10.102 -0.1536 -0.4080 -0.5249
37368SOL    HW116560  10.150   5.322  10.110  0.1550  0.7147 -0.9469
37368SOL    HW216561  10.239   5.230  10.029 -0.3773  0.6458 -1.4653
37369SOL     OW16562   6.741   8.841   0.236 -0.3008 -0.1479  0.0659
37369SOL    HW116563   6.688   8.818   0.312  2.1904 -0.1164  1.9241
37369SOL    HW216564   6.780   8.926   0.259  0.3387 -0.0303 -1.3446
37370SOL     OW16565   9.397   7.489   9.915 -0.4023  0.5886  1.0125
37370SOL    HW116566   9.477   7.541   9.930 -0.4958  0.7677  0.8915
37370SOL    HW216567   9.427   7.398   9.919 -0.3254  0.6358  1.7363
37371SOL     OW16568   7.483   2.633   9.952 -0.0621 -0.1320  0.0772
37371SOL    HW116569   7.563   2.679   9.929  0.1506  0.1201  1.2378
37371SOL    HW216570   7.417   2.702   9.962 -0.1690 -0.2378  0.1039
37372SOL     OW16571   7.502   2.497   1.617  0.0262 -0.2629 -0.3828
37372SOL    HW116572   7.433   2.463   1.674  0.3287 -0.2023  0.0325
37372SOL    HW216573   7.465   2.574   1.576  0.2859  0.5733  0.8813
37373SOL     OW16574   2.452  10.101   1.532  0.3524  0.0223 -0.5758
37373SOL    HW116575   2.377  10.080   1.588 -0.5620  3.1938 -0.4204
37373SOL    HW216576   2.527  10.101   1.592 -0.0940  0.2837 -0.0062
37374SOL     OW16577   9.370   5.937   0.007  0.5736 -0.0442 -0.1734
37374SOL    HW116578   9.310   5.997  -0.036  0.6601  1.3879  1.5726
37374SOL    HW216579   9.313   5.872   0.048  0.1450  1.2398  1.3759
37375SOL     OW16580   4.082   9.612   3.809  0.3683  1.2272 -0.3013
37375SOL    HW116581   4.114   9.548   3.872  1.1065  0.2768 -1.5896
37375SOL    HW216582   3.998   9.577   3.779  1.0226  0.5295 -1.4062
37376SOL     OW16583  10.176   5.932   1.734  0.2359 -0.8408 -0.3627
37376SOL    HW116584  10.120   5.954   1.808  0.6382 -4.0302  1.0803
37376SOL    HW216585  10.116   5.917   1.661 -0.3192  0.6045 -0.2233
37377SOL     OW16586   5.126   2.392   0.588  0.1019 -0.3748 -0.1203
37377SOL    HW116587   5.055   2.409   0.525  1.0323 -1.8097 -1.6438
37377SOL    HW216588   5.140   2.298   0.583  0.9181 -0.3598  1.5096
37378SOL     OW16589   4.328   6.945   0.754 -0.0426  0.0124  1.0925
37378SOL    HW116590   4.248   6.936   0.805 -1.5343 -1.2776 -1.2746
37378SOL    HW216591   4.308   7.013   0.690  1.1250  0.3426  1.0491
37379SOL     OW16592   2.909   0.020   5.857 -0.5356  0.2239 -0.0983
37379SOL    HW116593   2.870  -0.053   5.906 -2.4452  0.9471 -0.4424
37379SOL    HW216594   2.937  -0.018   5.775 -1.6410 -0.1438 -0.3295
37380SOL     OW16595   0.397   5.411  10.237  0.2200  0.2548 -1.1124
37380SOL    HW116596   0.437   5.332  10.201 -0.9089 -0.2649 -1.2817
37380SOL    HW216597   0.326   5.378  10.293  2.4755  0.9679  2.4614
37381SOL     OW16598   7.336   2.338   3.577  0.0030 -0.0562 -0.4766
37381SOL    HW116599   7.286   2.282   3.636 -1.2280  0.0765 -1.3520
37381SOL    HW216600   7.271   2.398   3.540  0.9895  0.7699 -0.9185
37382SOL     OW16601   2.376   8.745   7.072 -0.0232 -0.0821 -0.0172
37382SOL    HW116602   2.313   8.680   7.041  0.7111 -0.3544 -1.0038
37382SOL    HW216603   2.331   8.829   7.062 -1.3496 -0.4671  2.2044
37383SOL     OW16604   8.474   2.395   6.992 -0.5216 -0.1259 -0.6121
37383SOL    HW116605   8.500   2.438   6.910  1.3609 -0.1609 -0.0772
37383SOL    HW216606   8.501   2.303   6.980  0.1367 -0.0477  0.1713
37384SOL     OW16607   9.907  10.252   7.395  0.5995  0.0858  0.2982
37384SOL    HW116608   9.951  10.251   7.310  0.7831 -1.7173  0.3854
37384SOL    HW216609   9.817  10.281   7.375  0.7509  0.0614 -0.4481
37385SOL     OW16610   6.950   4.443   5.312  0.4187  0.2273 -0.0689
37385SOL    HW116611   6.937   4.538   5.318  0.7385  0.1793  2.7258
37385SOL    HW216612   6.968   4.415   5.402 -0.7575 -2.6588 -0.6043
37386SOL     OW16613   3.444   3.089   4.552  0.6413 -0.4186  0.2379
37386SOL    HW116614   3.452   3.017   4.615  0.7276 -1.2038 -0.6475
37386SOL    HW216615   3.520   3.079   4.494 -0.5681 -1.0820 -1.3332
37387SOL     OW16616   9.904   6.768  10.789  0.0099  0.1953 -0.2343
37387SOL    HW116617   9.877   6.858  10.771 -1.5420 -0.0380  0.6875
37387SOL    HW216618   9.856   6.715  10.725 -2.1845 -0.2602  1.6383
37388SOL     OW16619   3.257   8.818   1.604 -0.2262  0.1711 -0.7329
37388SOL    HW116620   3.222   8.867   1.678  1.0270 -1.7167  1.2373
37388SOL    HW216621   3.350   8.839   1.603  0.2723 -1.7511 -0.0701
37389SOL     OW16622   8.779   4.201   6.292 -0.1018 -0.2625  0.4994
37389SOL    HW116623   8.754   4.234   6.206 -0.9467 -1.7614  0.1223
37389SOL    HW216624   8.774   4.277   6.349  0.4923  0.7717 -0.7653
37390SOL     OW16625  10.485   3.248  10.992  0.3668  0.2207  0.3836
37390SOL    HW116626  10.390   3.255  11.002  0.4476 -0.0786  1.5695
37390SOL    HW216627  10.514   3.336  10.968 -0.1717  0.3915  0.3570
37391SOL     OW16628   9.200   9.822   5.485 -0.0838 -0.2111 -0.0963
37391SOL    HW116629   9.230   9.876   5.412  0.6778  0.6188  0.8012
37391SOL    HW216630   9.200   9.733   5.451  0.9376  0.0802 -0.8958
37392SOL     OW16631   6.316   3.159   8.924  0.4185 -0.0745 -0.2814
37392SOL    HW116632   6.408   3.145   8.902  1.2432  3.4727  0.1502
37392SOL    HW216633   6.319   3.223   8.996 -2.3873 -1.0742  0.8466
37393SOL     OW16634   6.540  10.990  10.897 -0.0604 -0.2324 -0.4601
37393SOL    HW116635   6.589  11.010  10.817 -0.4389  1.2759 -0.3500
37393SOL    HW216636   6.459  11.041  10.889 -1.4826 -2.3475 -0.4554
37394SOL     OW16637   4.386   1.334   8.835  0.2188  0.5268  0.1987
37394SOL    HW116638   4.322   1.264   8.823  2.3502 -1.4424 -0.3456
37394SOL    HW216639   4.378   1.358   8.928 -1.8358  0.9554 -0.0402
37395SOL     OW16640   8.321   5.573   9.043  0.3147 -0.2688  0.4332
37395SOL    HW116641   8.239   5.565   9.091  0.9837 -1.4569  1.4585
37395SOL    HW216642   8.304   5.530   8.959 -0.0282 -0.8045  0.7712
37396SOL     OW16643   5.764  11.018  10.338  0.2741 -0.3244 -0.3583
37396SOL    HW116644   5.726  11.102  10.366  0.4206 -1.1850  2.7943
37396SOL    HW216645   5.856  11.038  10.322  0.0625  0.3284 -0.8369
37397SOL     OW16646   8.771   2.996   3.481 -0.4534  0.3002  0.2580
37397SOL    HW116647   8.856   2.965   3.449 -0.9049  0.4776 -1.2154
37397SOL    HW216648   8.789   3.082   3.519 -0.0596  0.6322 -0.6519
37398SOL     OW16649  10.532   9.360   2.136 -0.1881  0.2144  0.2131
37398SOL    HW116650  10.593   9.295   2.102 -1.3295 -1.0412  0.4831
37398SOL    HW216651  10.457   9.356   2.077 -0.0589  1.7037 -0.0918
37399SOL     OW16652   9.878   9.125   2.169  0.2158 -0.0152  0.5163
37399SOL    HW116653   9.920   9.202   2.206  1.0434  0.2296 -0.8335
37399SOL    HW216654   9.887   9.058   2.237  0.8585  0.6485  1.1097
37400SOL     OW16655   2.503   4.782   7.075  0.4394 -0.3280  0.3308
37400SOL    HW116656   2.511   4.720   7.002 -0.2037 -1.0801  0.8768
37400SOL    HW216657   2.472   4.728   7.148  1.3156  0.3590  1.2340
37401SOL     OW16658  10.665   3.834   4.352 -0.0887  0.4782  0.5782
37401SOL    HW116659  10.682   3.751   4.307  1.5969  1.5680 -0.9595
37401SOL    HW216660  10.609   3.810   4.426 -1.8451 -1.6328 -1.2802
37402SOL     OW16661   1.240   9.375  10.439  0.5472 -0.3646 -0.7069
37402SOL    HW116662   1.293   9.304  10.475 -1.1100 -1.4494 -0.2848
37402SOL    HW216663   1.156   9.334  10.419 -0.5622  1.5479 -0.1714
37403SOL     OW16664   9.192   8.757   5.880  0.0608 -0.2348  0.2591
37403SOL    HW116665   9.137   8.765   5.957 -2.1051  0.9094 -1.2882
37403SOL    HW216666   9.138   8.710   5.817  0.5091  1.5262 -1.5607
37404SOL     OW16667   9.752   9.183   4.524 -0.3253 -0.1411 -0.6547
37404SOL    HW116668   9.801   9.154   4.447  0.6184 -0.5540  0.0809
37404SOL    HW216669   9.755   9.279   4.520  0.4396 -0.1621 -0.6887
37405SOL     OW16670   5.337   4.086   9.538  0.5593  0.8078 -0.3924
37405SOL    HW116671   5.285   4.153   9.495 -1.2433  0.8332  1.6962
37405SOL    HW216672   5.398   4.134   9.593  0.5176  0.7343 -0.2825
37406SOL     OW16673   0.717   4.381   3.552 -0.0863 -0.0779 -0.7291
37406SOL    HW116674   0.762   4.353   3.472  1.9751 -1.3071  0.7637
37406SOL    HW216675   0.769   4.453   3.585 -0.2493 -0.3348  0.1058
37407SOL     OW16676   2.426   0.626   4.454 -0.3588  0.6515 -0.3374
37407SOL    HW116677   2.433   0.557   4.387  0.5696  0.0114  0.3995
37407SOL    HW216678   2.374   0.586   4.524  0.7749  0.4218  0.4017
37408SOL     OW16679   6.164   1.996   7.980 -0.4048 -0.6054 -0.7806
37408SOL    HW116680   6.242   2.011   8.033 -0.7130  0.6660 -0.6517
37408SOL    HW216681   6.197   1.960   7.898  0.2242 -1.0265 -0.3479
37409SOL     OW16682   0.284   2.949   9.593  0.2730 -1.0832  0.1683
37409SOL    HW116683   0.276   2.963   9.688 -0.3220 -1.7535  0.2283
37409SOL    HW216684   0.197   2.973   9.559  0.6316 -0.3822 -0.2747
37410SOL     OW16685   0.378   3.778   2.929  0.2175  0.1863 -0.5350
37410SOL    HW116686   0.336   3.822   2.855 -1.0009  0.1389  0.1144
37410SOL    HW216687   0.470   3.806   2.924  0.2667 -0.1570 -2.3133
37411SOL     OW16688   7.792   3.826   5.112  0.0687 -0.3198  0.5584
37411SOL    HW116689   7.806   3.881   5.034 -1.2307 -0.1537  0.4217
37411SOL    HW216690   7.842   3.746   5.093  2.4802  0.9728  1.0155
37412SOL     OW16691   8.751  11.071   6.569 -0.5458  0.2910  0.0984
37412SOL    HW116692   8.700  11.149   6.592  0.8694  1.5999 -1.0378
37412SOL    HW216693   8.705  10.999   6.612 -2.7051  1.5539  0.0432
37413SOL     OW16694   2.293   9.027   3.025 -0.2266 -0.4382  0.1927
37413SOL    HW116695   2.326   9.020   3.115 -0.2333 -1.9093  0.0975
37413SOL    HW216696   2.216   8.970   3.023 -1.4791  1.1727 -0.2127
37414SOL     OW16697   4.088  10.608   8.931  0.0510 -0.7545  0.2021
37414SOL    HW116698   4.044  10.686   8.964  0.1253 -0.7505  0.2906
37414SOL    HW216699   4.022  10.565   8.876 -0.8673 -1.9874  2.1791
37415SOL     OW16700   6.031   2.762  10.011  0.1150  0.4946 -0.0491
37415SOL    HW116701   6.003   2.776  10.102 -0.0194  1.5480 -0.2393
37415SOL    HW216702   6.114   2.715  10.019 -0.7540 -1.0109  0.5648
37416SOL     OW16703   6.466   6.242  10.439  0.0951 -0.5195  0.3465
37416SOL    HW116704   6.510   6.218  10.357  0.3443 -0.2224  0.3905
37416SOL    HW216705   6.396   6.177  10.449  0.0782 -0.5702 -0.0883
37417SOL     OW16706   0.525   4.690   1.079 -0.4878  0.1300 -0.2058
37417SOL    HW116707   0.482   4.761   1.031 -0.7253  0.8054  0.9589
37417SOL    HW216708   0.506   4.612   1.028  1.4636  1.0988 -2.6359
37418SOL     OW16709   9.150   0.577   9.362  0.0484  0.1828  0.1609
37418SOL    HW116710   9.057   0.564   9.383  0.0626 -0.2671 -0.0283
37418SOL    HW216711   9.193   0.498   9.395  0.1245 -0.3575 -1.1541
37419SOL     OW16712   4.888   9.430   9.016 -0.3797  0.2171  0.6574
37419SOL    HW116713   4.935   9.424   9.099 -2.3143 -2.7731  1.6937
37419SOL    HW216714   4.807   9.382   9.031 -1.7166  1.2671 -2.4072
37420SOL     OW16715   0.650  10.499   3.104  0.3109 -0.3304 -0.0278
37420SOL    HW116716   0.614  10.414   3.079 -0.7161 -0.0124  0.3445
37420SOL    HW216717   0.730  10.507   3.052  0.1568 -1.3004 -0.4386
37421SOL     OW16718   9.584   3.341   4.649 -0.5121  0.0776  0.8590
37421SOL    HW116719   9.570   3.267   4.591 -0.8774 -0.0316  1.0791
37421SOL    HW216720   9.662   3.318   4.700  0.7179  0.8302 -0.6016
37422SOL     OW16721   8.734   2.300   7.203 -0.2855  0.0223  0.6307
37422SOL    HW116722   8.664   2.292   7.139  0.7960 -1.4689 -0.4413
37422SOL    HW216723   8.808   2.254   7.163  0.9208  0.4617  2.2614
37423SOL     OW16724  10.386   2.624   7.230  0.2824 -0.0958 -0.0212
37423SOL    HW116725  10.463   2.680   7.220  1.2185 -1.3983 -0.3848
37423SOL    HW216726  10.418   2.547   7.276 -0.7201 -0.8331 -0.5077
37424SOL     OW16727   2.756   0.646   9.310  0.3100 -0.5801 -0.2091
37424SOL    HW116728   2.664   0.624   9.325  0.4577 -0.4008  1.0718
37424SOL    HW216729   2.755   0.703   9.232 -0.5727 -1.1484 -0.6280
37425SOL     OW16730   1.450   9.719   3.690  0.4547 -0.1243  0.1612
37425SOL    HW116731   1.398   9.789   3.649  2.3171  0.0858 -2.0467
37425SOL    HW216732   1.394   9.642   3.684 -2.0286  1.1729  3.4695
37426SOL     OW16733   8.875   0.169   3.333  0.8047 -0.1641  0.8898
37426SOL    HW116734   8.935   0.240   3.354  0.3176  0.9661 -1.2972
37426SOL    HW216735   8.792   0.212   3.315  0.8632 -1.0359 -1.9882
37427SOL     OW16736   7.568   6.036   3.540 -0.5263 -0.1127  0.1511
37427SOL    HW116737   7.566   5.942   3.522 -0.0518  0.0486 -0.7556
37427SOL    HW216738   7.643   6.048   3.598  0.2337 -0.1177 -0.8089
37428SOL     OW16739   2.395   4.005   2.208 -0.2933  0.2372 -0.2240
37428SOL    HW116740   2.342   4.034   2.134  2.3008 -0.0829 -2.3593
37428SOL    HW216741   2.357   3.921   2.233 -0.4907 -0.2432 -2.0229
37429SOL     OW16742   2.911  10.363   5.393 -0.4294 -0.4152  0.3027
37429SOL    HW116743   2.985  10.357   5.332 -1.2772 -1.4956 -0.6477
37429SOL    HW216744   2.861  10.439   5.362  0.3614  0.4459  1.0715
37430SOL     OW16745   8.568   2.208  10.618 -0.0437  0.5679 -0.3511
37430SOL    HW116746   8.509   2.179  10.549  0.4490  0.1001 -0.5794
37430SOL    HW216747   8.577   2.133  10.676  1.5119  0.1086 -1.1342
37431SOL     OW16748   0.182   9.336   2.259  0.1394  0.2626 -0.5478
37431SOL    HW116749   0.156   9.415   2.212  0.6839  0.3233 -0.7534
37431SOL    HW216750   0.130   9.337   2.339  0.1392  0.8236 -0.5519
37432SOL     OW16751   5.322   4.029   2.509  0.5275 -0.1751 -0.2571
37432SOL    HW116752   5.312   4.124   2.521 -0.2019 -0.4187  1.3639
37432SOL    HW216753   5.416   4.016   2.496  0.4118  0.9608 -2.8610
37433SOL     OW16754   6.773  10.614   2.655 -0.4644 -0.1756  0.5356
37433SOL    HW116755   6.730  10.546   2.707 -0.2308 -1.2344 -0.6029
37433SOL    HW216756   6.866  10.588   2.655 -0.1389  0.9075  1.1958
37434SOL     OW16757   5.172  10.936   2.346  0.0682 -0.5044  0.5527
37434SOL    HW116758   5.105  10.946   2.413 -0.1666 -2.1871  0.6141
37434SOL    HW216759   5.178  10.841   2.332  1.0358 -0.2668 -0.8655
37435SOL     OW16760  10.337  10.874   4.604 -0.3312 -0.1563  0.2587
37435SOL    HW116761  10.301  10.901   4.689  0.6857 -0.0569  0.6721
37435SOL    HW216762  10.431  10.861   4.621  0.1164  1.0480 -1.1117
37436SOL     OW16763   9.467  10.476   6.187 -0.4369 -0.1497  0.6336
37436SOL    HW116764   9.449  10.422   6.264  0.7317  1.4284  2.1098
37436SOL    HW216765   9.385  10.522   6.170 -0.1636  1.1360  2.4044
37437SOL     OW16766   9.066   2.669  10.343 -0.1416 -0.0906 -0.0605
37437SOL    HW116767   9.128   2.676  10.271  0.4470 -1.3552  0.2880
37437SOL    HW216768   8.983   2.647  10.301 -0.0461  0.2593 -0.4319
37438SOL     OW16769   8.656   8.137   8.044 -0.2018 -0.0420 -0.1498
37438SOL    HW116770   8.625   8.136   8.134  0.2576  0.8551  0.0336
37438SOL    HW216771   8.752   8.137   8.051 -0.1546  0.7289 -0.6106
37439SOL     OW16772   5.841   0.985   3.304 -0.0134 -0.1209  0.2297
37439SOL    HW116773   5.889   0.972   3.222 -1.2112 -1.2343 -0.3349
37439SOL    HW216774   5.840   1.080   3.316  0.2958  0.0585 -0.9858
37440SOL     OW16775   3.046  10.587   9.911 -0.3343  0.4764 -0.1673
37440SOL    HW116776   3.098  10.508   9.896 -1.8760 -0.7017  0.5335
37440SOL    HW216777   3.011  10.610   9.825  0.0642  0.3744 -0.3584
37441SOL     OW16778   2.717   9.586   2.561  0.2777 -0.4704 -0.5797
37441SOL    HW116779   2.700   9.675   2.531  2.7879  0.1240 -0.4097
37441SOL    HW216780   2.634   9.558   2.600 -0.2631  2.2012  0.4186
37442SOL     OW16781   8.931   7.659   6.086 -0.0311 -0.1089 -0.3314
37442SOL    HW116782   8.917   7.668   6.181 -0.0115 -1.1791 -0.2050
37442SOL    HW216783   8.902   7.570   6.067 -0.5072  0.2730 -1.4332
37443SOL     OW16784   1.498   0.237   8.419  0.3348  0.1885 -0.3155
37443SOL    HW116785   1.577   0.277   8.381  0.0463  2.1429  0.9934
37443SOL    HW216786   1.495   0.271   8.508 -0.9675 -1.4019  0.2954
37444SOL     OW16787  10.854   0.053   1.523  0.4909  0.1626 -0.5079
37444SOL    HW116788  10.921   0.114   1.552 -0.5014 -0.0267  2.4941
37444SOL    HW216789  10.892  -0.034   1.538  0.1406  0.0589 -0.1900
37445SOL     OW16790   0.249   3.085   6.908 -0.0393  0.0515  0.1467
37445SOL    HW116791   0.327   3.140   6.919 -1.2156  1.7499  0.3752
37445SOL    HW216792   0.261   3.014   6.971  1.4440  0.1107 -0.0312
37446SOL     OW16793   1.299   2.363   3.483  0.6488  0.7015  0.1488
37446SOL    HW116794   1.321   2.289   3.426 -0.2692  0.2345  0.3771
37446SOL    HW216795   1.276   2.434   3.423  1.1064  0.6697 -0.0685
37447SOL     OW16796  10.692  10.567   5.414  0.0907 -0.9741 -0.1286
37447SOL    HW116797  10.758  10.545   5.479 -0.4456  1.9493  1.6065
37447SOL    HW216798  10.737  10.628   5.354 -0.3871 -0.8287 -0.3437
37448SOL     OW16799   1.989   9.380   3.139 -0.1531  0.1665  0.3408
37448SOL    HW116800   1.916   9.386   3.200  1.4365  0.2582  2.3382
37448SOL    HW216801   2.065   9.359   3.194  0.9453 -2.4071 -1.9097
37449SOL     OW16802   6.503   8.508   1.392  0.2063 -0.1529  0.3464
37449SOL    HW116803   6.432   8.508   1.327  0.2132  0.8414  0.3260
37449SOL    HW216804   6.559   8.435   1.366  0.3638  0.4015 -0.9535
37450SOL     OW16805  10.431  10.152   3.236 -0.2262 -0.3079  0.1368
37450SOL    HW116806  10.349  10.184   3.199  0.5589 -1.2509 -2.6459
37450SOL    HW216807  10.457  10.219   3.300 -1.5592  1.6139 -1.2383
37451SOL     OW16808   8.063   7.436   4.409 -0.2195  0.8407  0.4266
37451SOL    HW116809   8.027   7.524   4.422  1.0860  1.2254  1.7180
37451SOL    HW216810   7.986   7.379   4.403 -1.1291  1.6255  3.0672
37452SOL     OW16811  10.527   1.202  10.894 -0.0855 -0.3379  0.4764
37452SOL    HW116812  10.578   1.241  10.823  0.6694 -1.8056  0.1656
37452SOL    HW216813  10.522   1.109  10.871  0.5423 -0.9309  2.5548
37453SOL     OW16814   5.162   9.572   5.993  0.7249  0.4299  0.1802
37453SOL    HW116815   5.204   9.491   6.021 -1.1846  0.3193  3.1691
37453SOL    HW216816   5.104   9.547   5.921  0.5940 -0.7354  0.6864
37454SOL     OW16817   5.126   1.098   7.817  0.1128  0.0950  0.1498
37454SOL    HW116818   5.212   1.117   7.853 -0.0228  1.7456 -0.3233
37454SOL    HW216819   5.142   1.085   7.723 -0.2710  1.4210 -0.1122
37455SOL     OW16820  10.830   6.596   2.358  0.3349  0.3518 -0.1118
37455SOL    HW116821  10.892   6.622   2.290  0.2491  0.7858 -0.0256
37455SOL    HW216822  10.873   6.524   2.403  0.9770  0.9345  0.2308
37456SOL     OW16823   0.183   6.096   3.862  0.0163  0.5784  0.9291
37456SOL    HW116824   0.165   6.012   3.820 -1.7936  0.2120  2.3198
37456SOL    HW216825   0.274   6.115   3.839 -0.3878 -0.3427 -1.7719
37457SOL     OW16826   5.840   3.420   8.075 -0.0365  0.6209  0.3013
37457SOL    HW116827   5.918   3.451   8.030  0.6314  1.0613  1.6936
37457SOL    HW216828   5.781   3.391   8.005  2.6678 -3.0557 -0.7841
37458SOL     OW16829   6.878   5.147   5.301 -0.0008 -0.6054 -0.0600
37458SOL    HW116830   6.784   5.167   5.299 -0.2430 -1.6379  0.3645
37458SOL    HW216831   6.896   5.105   5.217 -0.3326 -2.0636  0.5584
37459SOL     OW16832   5.337   2.709  10.969  0.2501  0.1253  0.7169
37459SOL    HW116833   5.366   2.696  10.878 -0.3236  0.4378  0.4870
37459SOL    HW216834   5.328   2.620  11.004  2.8914 -0.0141  1.2667
37460SOL     OW16835   7.592   7.009   2.263  0.0865 -0.5376 -0.6713
37460SOL    HW116836   7.668   7.034   2.317 -0.3619 -0.6712  0.0433
37460SOL    HW216837   7.539   6.956   2.322 -0.6512 -0.2905 -1.1106
37461SOL     OW16838  10.676   6.816  10.761  0.1806  0.0123 -0.1623
37461SOL    HW116839  10.698   6.737  10.712  0.8975 -0.0220  0.1945
37461SOL    HW216840  10.702   6.796  10.851  3.3839  1.7082 -0.5495
37462SOL     OW16841   1.517   5.487   2.814  0.1239 -0.4765 -0.2271
37462SOL    HW116842   1.434   5.439   2.808 -0.3524 -0.0616  2.1661
37462SOL    HW216843   1.493   5.575   2.842  1.2924  0.0789 -0.8606
37463SOL     OW16844   1.226   1.413   0.630 -0.3266 -0.1845 -0.6686
37463SOL    HW116845   1.190   1.353   0.566  2.6469 -1.5859 -1.1659
37463SOL    HW216846   1.313   1.435   0.598  0.9622 -0.2267  2.4001
37464SOL     OW16847   9.649  10.197   8.873  0.1366  0.1188 -0.2899
37464SOL    HW116848   9.723  10.255   8.889 -0.8448  1.5071 -0.6570
37464SOL    HW216849   9.688  10.118   8.836  1.4159  0.8535 -0.5618
37465SOL     OW16850   9.872   9.596   1.465  0.2610  0.2223  0.2153
37465SOL    HW116851   9.871   9.691   1.459 -3.2765  0.3480  0.8547
37465SOL    HW216852   9.806   9.566   1.402  0.0783 -1.6565  1.2051
37466SOL     OW16853   8.190   3.141   8.483 -0.6170 -0.1966 -0.2581
37466SOL    HW116854   8.237   3.063   8.513 -0.1994  0.7701  1.7588
37466SOL    HW216855   8.098   3.118   8.490 -0.4909 -0.7315 -0.3457
37467SOL     OW16856   3.316   7.734  10.209 -0.5230 -0.4468 -0.3135
37467SOL    HW116857   3.406   7.714  10.232 -0.5990  0.6456  1.0244
37467SOL    HW216858   3.321   7.818  10.162 -0.8132 -0.5293 -0.4972
37468SOL     OW16859   2.606   4.009   6.086 -0.1845  0.0159  0.1763
37468SOL    HW116860   2.641   3.959   6.013 -0.3626 -1.1976  0.8842
37468SOL    HW216861   2.670   3.997   6.156  0.6481  2.2143 -0.1122
37469SOL     OW16862   5.048   1.238   0.598 -0.1103 -0.6590  0.0073
37469SOL    HW116863   4.993   1.181   0.545 -0.1130  0.0928 -0.8249
37469SOL    HW216864   4.990   1.270   0.667 -0.0806 -1.7248  0.5453
37470SOL     OW16865   1.752  10.854   4.346  0.0041 -0.1051  0.1515
37470SOL    HW116866   1.761  10.805   4.265 -0.0402  0.1976 -0.0364
37470SOL    HW216867   1.682  10.809   4.394  1.4590 -1.6100  0.9955
37471SOL     OW16868  10.104   0.265   6.115  0.0276 -0.2638  0.5558
37471SOL    HW116869  10.048   0.202   6.161 -0.8859  0.1074 -0.0280
37471SOL    HW216870  10.069   0.351   6.140 -0.4073 -0.0511 -0.7039
37472SOL     OW16871   9.146   4.807   5.572  0.3540  0.4659  0.1126
37472SOL    HW116872   9.102   4.846   5.496  2.2185 -0.2768 -1.4284
37472SOL    HW216873   9.145   4.713   5.554  0.6418  0.2646  1.1211
37473SOL     OW16874   1.228   2.398   0.035  0.7168  0.3886 -0.1034
37473SOL    HW116875   1.303   2.350   0.069  0.6979  0.8142  0.5471
37473SOL    HW216876   1.265   2.481   0.004  0.4826  0.6776  0.3949
37474SOL     OW16877   4.435   6.946   5.763 -0.0583  0.0573  0.0856
37474SOL    HW116878   4.449   6.976   5.852 -1.9748  1.1201  0.0839
37474SOL    HW216879   4.341   6.954   5.749  0.0698 -0.9314 -1.7451
37475SOL     OW16880   1.612   4.918   5.038 -0.1589 -0.5816 -0.4616
37475SOL    HW116881   1.705   4.901   5.053 -0.2860 -1.7290 -0.8632
37475SOL    HW216882   1.575   4.832   5.016 -1.1326  0.0060 -1.2198
37476SOL     OW16883   4.648   7.823  10.071 -0.0951  0.2452  0.5427
37476SOL    HW116884   4.563   7.817  10.027  1.0822 -1.0591 -1.7904
37476SOL    HW216885   4.631   7.871  10.152 -2.8286  0.9539 -0.3596
37477SOL     OW16886   5.083   7.393   2.739  0.0539  0.2050 -0.1128
37477SOL    HW116887   5.050   7.314   2.781  1.1106 -0.4506 -0.4804
37477SOL    HW216888   5.170   7.369   2.707  0.5773  1.6395  0.1477
37478SOL     OW16889   5.534   8.328   0.762 -0.2139 -0.2349  0.1590
37478SOL    HW116890   5.458   8.276   0.790 -0.8627 -1.0198 -2.7535
37478SOL    HW216891   5.506   8.419   0.772 -1.4600 -0.5156 -0.5820
37479SOL     OW16892   2.937   8.461   5.931 -0.1551  0.5231  0.4413
37479SOL    HW116893   2.847   8.433   5.918 -0.0637  0.7862 -0.9307
37479SOL    HW216894   2.984   8.382   5.958 -0.1668 -0.4104 -2.0575
37480SOL     OW16895   7.944   4.763   3.177  0.2860 -0.2740  0.0903
37480SOL    HW116896   7.924   4.843   3.127  0.6517 -0.0983  0.2250
37480SOL    HW216897   7.906   4.692   3.124 -0.4338  0.0253  0.1918
37481SOL     OW16898   5.467   1.417   0.594 -0.4091 -0.1577  0.2399
37481SOL    HW116899   5.415   1.448   0.668 -2.0802  0.8522 -1.2849
37481SOL    HW216900   5.526   1.489   0.574  0.0334 -0.4255  0.5603
37482SOL     OW16901   6.965   4.755   1.248 -0.3934 -0.6990 -0.3531
37482SOL    HW116902   7.001   4.720   1.167 -1.3428  1.3983 -1.7993
37482SOL    HW216903   6.873   4.775   1.227 -0.6951 -0.1703  1.2661
37483SOL     OW16904   0.300   3.892   3.207 -0.0820 -0.0269  0.1793
37483SOL    HW116905   0.282   3.830   3.277  0.3840 -1.0408 -0.5762
37483SOL    HW216906   0.312   3.837   3.129  0.6617  0.9941 -0.4423
37484SOL     OW16907   0.557   1.743   6.248  0.1733 -0.7574  0.0203
37484SOL    HW116908   0.628   1.795   6.211  0.0382  0.2554  1.0927
37484SOL    HW216909   0.516   1.700   6.173  0.0285  1.0585 -1.0050
37485SOL     OW16910  10.098   1.634   3.693  0.1611 -0.0559 -0.9793
37485SOL    HW116911  10.021   1.649   3.637  0.1025 -0.5375 -1.0256
37485SOL    HW216912  10.062   1.599   3.774  0.2304  0.8041 -0.5655
37486SOL     OW16913   7.188   0.501   9.840  0.1468  0.3631 -0.2103
37486SOL    HW116914   7.142   0.455   9.911  1.2980  0.7311  0.8274
37486SOL    HW216915   7.266   0.448   9.825  1.7399  2.1041  1.3231
37487SOL     OW16916   4.997   5.037   4.233 -0.5051  1.0067 -0.5924
37487SOL    HW116917   5.031   5.003   4.150  0.7801  0.0978  0.2705
37487SOL    HW216918   4.977   5.129   4.214  1.8233  1.4311 -1.3872
37488SOL     OW16919   2.900   5.030   3.504  0.6303 -0.0465 -0.5275
37488SOL    HW116920   2.835   4.961   3.485  0.6570 -0.0907 -0.4601
37488SOL    HW216921   2.948   5.040   3.422 -0.7140  1.3471 -1.1936
37489SOL     OW16922  10.277   1.008   0.239  0.0769 -0.1147  0.0742
37489SOL    HW116923  10.311   0.938   0.295 -0.0195  2.0075  3.0891
37489SOL    HW216924  10.350   1.029   0.180  0.8427 -1.3646  0.5468
37490SOL     OW16925   0.987   2.848   4.034  0.4901  0.2728  0.1423
37490SOL    HW116926   1.043   2.885   4.102 -1.4653  1.7835  1.0446
37490SOL    HW216927   0.925   2.792   4.082 -0.8396  1.2606 -0.3546
37491SOL     OW16928   6.241   0.384   1.221  0.0107 -0.1790 -0.2836
37491SOL    HW116929   6.176   0.453   1.211 -1.0620 -1.2125 -0.6747
37491SOL    HW216930   6.204   0.324   1.286 -0.0289 -1.4135 -1.3911
37492SOL     OW16931   7.417  10.653   6.208  0.1308  0.0535  0.2959
37492SOL    HW116932   7.428  10.590   6.137  3.7443 -1.9268  2.3214
37492SOL    HW216933   7.404  10.737   6.164 -0.1430 -1.3993 -2.6045
37493SOL     OW16934   8.306   0.824   2.812 -0.3787  0.1636  0.2699
37493SOL    HW116935   8.290   0.917   2.802  1.1535  0.5517  1.0984
37493SOL    HW216936   8.401   0.817   2.827 -0.5759 -1.4440  1.0634
37494SOL     OW16937   9.304   4.176   6.636  0.1437 -0.0176  0.2571
37494SOL    HW116938   9.339   4.120   6.705 -1.8545 -0.7402  0.7333
37494SOL    HW216939   9.325   4.130   6.555  2.0024  0.5589  0.3611
37495SOL     OW16940   0.801   8.871   5.564  0.5138  0.1921  0.4001
37495SOL    HW116941   0.853   8.945   5.532  0.8641  1.3975  3.3986
37495SOL    HW216942   0.751   8.842   5.488  1.1001  2.8813 -1.1530
37496SOL     OW16943   9.811   2.074   2.900  0.0476 -0.5093 -0.0468
37496SOL    HW116944   9.723   2.048   2.872  0.9057 -2.4489 -1.0889
37496SOL    HW216945   9.797   2.114   2.987 -1.6893 -2.2424  0.5401
37497SOL     OW16946   5.578  11.007   8.187  0.4600 -0.1074 -0.3587
37497SOL    HW116947   5.561  11.067   8.114  3.1037  0.8021 -0.3247
37497SOL    HW216948   5.586  11.063   8.263  2.0673 -0.5530 -0.1660
37498SOL     OW16949   6.301   0.724   7.341  0.0353 -0.2434 -0.0031
37498SOL    HW116950   6.298   0.695   7.433  1.1249  0.2508  0.2085
37498SOL    HW216951   6.390   0.760   7.331 -0.2541  0.1815 -1.1059
37499SOL     OW16952   2.661   2.424   8.178 -0.3046  0.8582 -0.4433
37499SOL    HW116953   2.633   2.394   8.265 -0.2580 -1.5122 -1.1724
37499SOL    HW216954   2.585   2.411   8.122  0.6573 -0.9624 -1.4242
37500SOL     OW16955   5.704   3.206   7.074 -0.6943  0.6789  0.6760
37500SOL    HW116956   5.718   3.112   7.061 -0.8382  0.6220  0.9212
37500SOL    HW216957   5.633   3.228   7.013 -0.1598  0.7861  0.0761
37501SOL     OW16958   1.831   1.957   0.035  0.3196 -0.0329  0.4220
37501SOL    HW116959   1.793   2.002   0.110 -1.7703  0.5855 -0.9172
37501SOL    HW216960   1.807   1.865   0.046  0.2659  0.0086  0.6440
37502SOL     OW16961  10.082   5.882   8.801 -0.3215 -0.3543 -0.4662
37502SOL    HW116962  10.071   5.947   8.870  0.2387 -0.8333  0.0914
37502SOL    HW216963   9.994   5.848   8.785 -0.6810  0.7680 -1.0118
37503SOL     OW16964   5.912   9.398   3.205 -0.0987 -0.8804  0.2742
37503SOL    HW116965   5.910   9.391   3.110 -1.0730  1.8230  0.0089
37503SOL    HW216966   5.834   9.352   3.235 -2.2954  1.9101 -0.6888
37504SOL     OW16967   3.767   0.494   6.665 -0.4425  0.5441 -0.0422
37504SOL    HW116968   3.703   0.482   6.594  0.2328  0.4775 -0.6538
37504SOL    HW216969   3.714   0.516   6.741 -1.2508 -0.1589 -0.3798
37505SOL     OW16970   1.519   8.717   9.180  0.2115  0.2057  0.3270
37505SOL    HW116971   1.497   8.757   9.264 -1.5394  0.8998 -0.4185
37505SOL    HW216972   1.514   8.622   9.197  1.7552  0.2904  1.4350
37506SOL     OW16973   9.397   8.449   3.099  0.0772  0.7032  0.1866
37506SOL    HW116974   9.311   8.419   3.129 -0.0458  0.6821 -0.1771
37506SOL    HW216975   9.424   8.513   3.164 -1.0418  2.0823 -0.6454
37507SOL     OW16976   8.232   1.283   5.201  0.3349  0.0682  0.1240
37507SOL    HW116977   8.283   1.250   5.127 -0.4659 -0.2882 -0.2876
37507SOL    HW216978   8.147   1.306   5.163  0.3619  1.1765  0.6898
37508SOL     OW16979  10.836   7.263   8.254 -0.6515  0.3272  0.2590
37508SOL    HW116980  10.924   7.284   8.284  0.3150 -0.5511 -1.7685
37508SOL    HW216981  10.795   7.348   8.237 -0.3076  0.7493  1.4428
37509SOL     OW16982   4.664   4.047   6.748  0.2139 -0.1061  0.4052
37509SOL    HW116983   4.747   4.001   6.734 -0.0682 -0.3010 -0.7443
37509SOL    HW216984   4.614   4.030   6.668 -0.2494  1.4736  0.3320
37510SOL     OW16985   7.609   9.777   7.047  0.4823 -0.1212  0.5962
37510SOL    HW116986   7.659   9.744   6.971 -0.3692 -0.8658  0.3515
37510SOL    HW216987   7.602   9.871   7.031  3.8453  0.4877  1.8257
37511SOL     OW16988   0.884   0.279  10.675 -0.0154 -0.7604 -0.2015
37511SOL    HW116989   0.811   0.340  10.664  1.7506  1.3065 -1.2451
37511SOL    HW216990   0.906   0.285  10.768 -1.3863 -1.7395  0.2224
37512SOL     OW16991  10.792   0.550   9.131 -0.1079  0.6559  0.4243
37512SOL    HW116992  10.885   0.572   9.144 -0.4178  1.4814  1.3651
37512SOL    HW216993  10.790   0.505   9.047  1.1092  0.9122  0.2388
37513SOL     OW16994   3.214   5.385   3.112  0.6780 -0.9711  0.2838
37513SOL    HW116995   3.216   5.440   3.190 -0.2619 -0.4708 -0.0308
37513SOL    HW216996   3.280   5.425   3.054 -0.0466 -0.1011  0.0286
37514SOL     OW16997   5.059  10.975   2.600 -0.4944 -0.5679 -0.2601
37514SOL    HW116998   4.978  11.021   2.623  0.5003  0.5873  1.0969
37514SOL    HW216999   5.122  11.044   2.581  0.1490 -1.4547 -1.4768
37515SOL     OW17000   0.362   7.060   1.467  0.2508 -0.0666  0.3416
37515SOL    HW117001   0.287   7.117   1.451  1.9724  2.0982 -0.5200
37515SOL    HW217002   0.395   7.088   1.552  1.2138  0.3585 -0.1652
37516SOL     OW17003   2.032   5.310   4.939  0.4199  0.0422 -0.4683
37516SOL    HW117004   2.054   5.262   5.019  0.4596  1.6335  0.5101
37516SOL    HW217005   2.076   5.261   4.869  0.0798 -1.5919  0.4088
37517SOL     OW17006   7.434   4.471   8.681 -0.4644 -0.2398 -0.5699
37517SOL    HW117007   7.464   4.381   8.668 -2.2632 -0.8009 -1.0311
37517SOL    HW217008   7.398   4.472   8.769 -0.2772  0.0934 -0.4944
37518SOL     OW17009   9.643   9.375   6.914 -0.0965 -0.2802  0.2833
37518SOL    HW117010   9.583   9.356   6.842 -0.3186 -1.4397  0.7557
37518SOL    HW217011   9.715   9.313   6.902  0.2453  0.0464  0.6195
37519SOL     OW17012   5.462   0.768   8.295  0.0454  0.6359 -0.3168
37519SOL    HW117013   5.537   0.709   8.309  0.6784  1.3932 -0.4205
37519SOL    HW217014   5.478   0.841   8.354  0.0296  1.3911 -1.2186
37520SOL     OW17015   5.695   4.646   7.271  0.0067 -0.4130  0.1384
37520SOL    HW117016   5.743   4.566   7.249  2.7655  1.7023 -2.3793
37520SOL    HW217017   5.626   4.650   7.205 -1.4897 -1.6451  1.5461
37521SOL     OW17018   0.766   3.241   0.761 -0.5075 -0.0846 -0.2296
37521SOL    HW117019   0.847   3.194   0.779 -0.5232 -0.5008 -1.2348
37521SOL    HW217020   0.760   3.245   0.666 -0.8846  1.3023 -0.1707
37522SOL     OW17021   0.995   5.494   6.850  0.5738 -0.1110  0.1484
37522SOL    HW117022   1.014   5.587   6.858  0.6076 -0.1298  0.2825
37522SOL    HW217023   0.988   5.479   6.755  1.2012 -0.0990  0.1009
37523SOL     OW17024   0.649   4.686   3.837  0.7247 -0.0825  0.2424
37523SOL    HW117025   0.562   4.648   3.852 -0.0558  1.4537 -0.1411
37523SOL    HW217026   0.633   4.780   3.832  2.3432  0.1875 -0.4422
37524SOL     OW17027   9.412   9.102   1.705  0.7037 -0.6917  0.3607
37524SOL    HW117028   9.429   9.026   1.760 -0.9550 -2.2876 -1.2022
37524SOL    HW217029   9.357   9.069   1.634  1.3404  1.6239 -1.3329
37525SOL     OW17030   1.152   8.365  10.886  0.2033 -0.2369  0.7959
37525SOL    HW117031   1.132   8.295  10.948  1.0741 -1.1351  0.0967
37525SOL    HW217032   1.116   8.444  10.926  1.3944 -0.6660  2.7970
37526SOL     OW17033   7.355   4.307   1.144 -0.4311  0.1231  0.2436
37526SOL    HW117034   7.298   4.234   1.117 -1.1514  0.6452  0.3265
37526SOL    HW217035   7.332   4.322   1.235 -1.5898  1.6073 -0.2417
37527SOL     OW17036  10.675   9.652   7.917 -0.9983  0.6205 -0.5122
37527SOL    HW117037  10.709   9.569   7.883 -0.6732  0.4245  0.2480
37527SOL    HW217038  10.750   9.691   7.963 -1.0903  1.4367 -1.0184
37528SOL     OW17039   0.427   7.199   9.165 -0.3035 -0.2463 -0.1690
37528SOL    HW117040   0.517   7.207   9.133 -0.2918  0.8011  0.0991
37528SOL    HW217041   0.400   7.289   9.183 -1.2507 -0.5941  0.1838
37529SOL     OW17042   4.344   4.987   4.246  0.0128 -1.0381 -0.3198
37529SOL    HW117043   4.433   4.983   4.282  0.1866 -1.4008 -0.7807
37529SOL    HW217044   4.295   5.040   4.309  0.5231 -0.9465  0.0062
37530SOL     OW17045   4.111   5.828   6.148  0.2681 -0.1435 -0.6617
37530SOL    HW117046   4.050   5.864   6.213  0.2412  0.8611 -1.2345
37530SOL    HW217047   4.196   5.865   6.172  0.4925 -0.7770 -0.4507
37531SOL     OW17048   2.733   1.721   8.542 -0.5461  0.0751  0.2769
37531SOL    HW117049   2.784   1.641   8.557  0.8552  0.8351 -0.2322
37531SOL    HW217050   2.670   1.723   8.614  0.6728 -0.5067  1.4045
37532SOL     OW17051   8.963   4.158   5.421 -0.5654  1.1033 -0.2508
37532SOL    HW117052   8.895   4.224   5.407 -1.9601 -0.3674 -0.7432
37532SOL    HW217053   9.042   4.196   5.382 -1.9476  1.4068 -3.0583
37533SOL     OW17054  10.289   0.677   9.785  0.1140  0.1316 -0.2807
37533SOL    HW117055  10.235   0.754   9.768  1.8904  1.3470 -0.5752
37533SOL    HW217056  10.312   0.684   9.878  1.2677  0.6437 -0.5864
37534SOL     OW17057   2.641   4.921   6.515 -0.3653  0.1394 -0.1582
37534SOL    HW117058   2.640   4.860   6.588  1.2484 -0.6285 -0.7345
37534SOL    HW217059   2.733   4.943   6.502 -0.7633  1.5181 -0.9513
37535SOL     OW17060   0.847  10.840   2.187  0.0040 -0.0750 -0.4049
37535SOL    HW117061   0.796  10.764   2.215 -0.6432 -0.2191 -1.8934
37535SOL    HW217062   0.885  10.814   2.103 -1.1555  1.6003 -1.5044
37536SOL     OW17063   1.919   7.226   6.129  0.0815 -0.1636  0.3296
37536SOL    HW117064   1.865   7.149   6.146  0.8988 -0.5883  1.0918
37536SOL    HW217065   1.918   7.236   6.034 -1.8189  0.2103  0.3390
37537SOL     OW17066   7.632   2.343   7.884  0.2066  0.0626 -0.0747
37537SOL    HW117067   7.565   2.310   7.823  0.5340  0.4421 -0.6535
37537SOL    HW217068   7.715   2.324   7.841  0.4679 -0.2277  0.5528
37538SOL     OW17069   9.335   9.135   2.291 -0.3646 -0.6482 -0.0579
37538SOL    HW117070   9.394   9.198   2.249  1.1278 -1.1283  1.2430
37538SOL    HW217071   9.314   9.174   2.376 -2.0132 -0.4607 -0.5124
37539SOL     OW17072  10.222  10.172   8.289  0.0632 -0.2285  0.2592
37539SOL    HW117073  10.238  10.128   8.205  0.4618  0.2670  0.0701
37539SOL    HW217074  10.302  10.221   8.306 -0.6126  0.9694  0.1288
37540SOL     OW17075   6.434   8.793   0.754 -0.2940 -0.0468  0.6270
37540SOL    HW117076   6.430   8.853   0.679  0.2884 -0.0511  0.5869
37540SOL    HW217077   6.479   8.842   0.822 -2.4888  0.6471  1.6590
37541SOL     OW17078   8.258   2.393   6.665  0.2620  0.2267 -0.0467
37541SOL    HW117079   8.192   2.355   6.724  1.4416 -1.1212  0.4695
37541SOL    HW217080   8.211   2.461   6.617 -1.6434 -1.0111 -0.0538
37542SOL     OW17081  10.896   8.218   3.300 -0.4942 -0.3596 -0.1237
37542SOL    HW117082  10.919   8.130   3.332  0.6285  0.1180  0.4425
37542SOL    HW217083  10.937   8.277   3.362 -0.8377  0.5856 -0.7768
37543SOL     OW17084   3.832   4.259  10.793  0.6965 -0.6774 -0.3189
37543SOL    HW117085   3.795   4.207  10.721  1.6850  0.5103 -1.7675
37543SOL    HW217086   3.758   4.308  10.828  0.2241 -1.1350 -0.6680
37544SOL     OW17087  10.739   0.420   7.400 -0.6175  0.7339 -0.2780
37544SOL    HW117088  10.667   0.376   7.356  0.4661  0.1242 -1.5045
37544SOL    HW217089  10.794   0.350   7.434  0.7709  1.0873 -1.6679
37545SOL     OW17090   9.832   0.132   4.360 -0.2547 -0.7983 -0.2767
37545SOL    HW117091   9.840   0.087   4.276  0.3466 -0.1793 -0.5634
37545SOL    HW217092   9.750   0.100   4.397 -0.7758 -0.7100 -1.3225
37546SOL     OW17093   5.109   5.251   7.477 -0.5982  0.1868 -0.1731
37546SOL    HW117094   5.186   5.226   7.529  0.6397  1.5646 -1.2633
37546SOL    HW217095   5.145   5.290   7.398 -2.3814 -2.8681 -2.7224
37547SOL     OW17096   1.304  10.284   1.419  0.8774 -0.8968  0.2809
37547SOL    HW117097   1.330  10.197   1.449  0.4967 -0.6946  1.2484
37547SOL    HW217098   1.374  10.342   1.449  1.7294 -0.9973 -1.3819
37548SOL     OW17099   2.485   0.334   6.653  0.3342 -0.0437 -0.2168
37548SOL    HW117100   2.447   0.278   6.721 -0.5031  1.2974  0.4603
37548SOL    HW217101   2.424   0.407   6.646  1.2149  0.6069 -1.3367
37549SOL     OW17102   2.458   3.800   7.058  0.5179  0.1157  0.0045
37549SOL    HW117103   2.446   3.891   7.086  0.4234  0.4156 -0.9748
37549SOL    HW217104   2.533   3.769   7.109  0.0632  0.4879  0.9235
37550SOL     OW17105   0.304   5.165  10.795 -0.1772  0.2059 -0.1653
37550SOL    HW117106   0.326   5.251  10.831 -0.7175  0.5347 -0.5924
37550SOL    HW217107   0.269   5.185  10.708 -0.7168 -0.4115 -0.0924
37551SOL     OW17108   7.667   7.652   8.123  0.0764  0.6272  0.2406
37551SOL    HW117109   7.763   7.647   8.120  0.0276 -0.0339 -1.1576
37551SOL    HW217110   7.644   7.620   8.211  1.0175 -2.4081 -0.4798
37552SOL     OW17111   8.636   9.578   3.873 -0.3052  0.4601 -0.4838
37552SOL    HW117112   8.665   9.642   3.937 -4.3477  0.1083  2.0847
37552SOL    HW217113   8.658   9.493   3.912 -0.1863  0.2418 -1.0108
37553SOL     OW17114   6.941   4.516   7.871  0.3199  0.5144  0.1682
37553SOL    HW117115   6.903   4.470   7.796  0.3959 -0.2562  0.5904
37553SOL    HW217116   6.884   4.592   7.885  0.9927  1.3362 -1.4084
37554SOL     OW17117   8.747   9.807   3.633 -0.1145 -0.5628  0.3008
37554SOL    HW117118   8.674   9.817   3.573 -0.8637 -0.5188  1.1984
37554SOL    HW217119   8.747   9.887   3.686 -0.6092 -1.3545  1.5530
37555SOL     OW17120   9.682   9.696   7.330 -0.4766 -0.1710  0.1442
37555SOL    HW117121   9.749   9.751   7.289 -1.9814  0.7646 -1.1735
37555SOL    HW217122   9.726   9.612   7.346  0.4260 -0.3747 -2.7960
37556SOL     OW17123   2.219   2.823   5.294  0.0668 -0.2557  0.8911
37556SOL    HW117124   2.189   2.747   5.344 -0.7513 -0.3083  0.3339
37556SOL    HW217125   2.142   2.878   5.284 -0.2144 -0.9362 -1.5342
37557SOL     OW17126   5.499   0.327  10.508 -0.3455 -0.0108 -0.4629
37557SOL    HW117127   5.570   0.264  10.525 -0.0293  0.3509 -0.4222
37557SOL    HW217128   5.475   0.360  10.595  0.4063  0.9040 -0.5802
37558SOL     OW17129   0.273   0.591  10.323  0.2634  0.1506  0.1942
37558SOL    HW117130   0.352   0.642  10.341  0.6726 -0.5524  0.4315
37558SOL    HW217131   0.303   0.501  10.320 -0.3666 -0.0454 -0.6944
37559SOL     OW17132   5.118   9.858   5.907 -0.5117 -0.6119  0.5892
37559SOL    HW117133   5.142   9.783   5.962  0.1299 -0.1199  0.9976
37559SOL    HW217134   5.025   9.870   5.923 -0.0874  0.4126  2.7454
37560SOL     OW17135   9.575   3.910   5.730 -0.7580 -0.6344 -0.1226
37560SOL    HW117136   9.511   3.844   5.758 -0.1438 -1.4457 -0.5625
37560SOL    HW217137   9.631   3.922   5.806 -1.6411  0.3698  0.3969
37561SOL     OW17138   5.174   0.420   2.694 -0.6530  0.2500  0.1053
37561SOL    HW117139   5.160   0.340   2.743 -0.4844 -0.5406 -1.1030
37561SOL    HW217140   5.113   0.415   2.620 -0.9738  1.4534  0.2614
37562SOL     OW17141   3.163   9.142   6.112  0.0033  0.1456  0.4177
37562SOL    HW117142   3.105   9.077   6.073 -0.7946  1.0698  0.0001
37562SOL    HW217143   3.214   9.175   6.038  0.6493 -0.2399  0.6844
37563SOL     OW17144   6.993   4.102   8.119  0.3410 -0.1606  0.1315
37563SOL    HW117145   6.899   4.088   8.112  0.2415  0.7766 -0.6611
37563SOL    HW217146   7.027   4.022   8.159 -0.8429 -0.3213  0.8455
37564SOL     OW17147   0.730   7.252   4.122  0.1605 -0.0551  0.7273
37564SOL    HW117148   0.812   7.204   4.134 -1.0731 -2.2934  0.8142
37564SOL    HW217149   0.739   7.329   4.177  2.2026 -0.2265  0.7082
37565SOL     OW17150   1.275   9.440   5.051  0.5279  0.1823 -0.1129
37565SOL    HW117151   1.189   9.475   5.030 -0.2144 -0.9568  0.9109
37565SOL    HW217152   1.311   9.411   4.967 -0.5204 -0.2790 -0.4143
37566SOL     OW17153   3.224   1.338  10.853 -0.2080  0.4698 -0.4692
37566SOL    HW117154   3.159   1.308  10.916  2.3147 -1.8702  1.2987
37566SOL    HW217155   3.194   1.304  10.769 -1.7494  0.3625  0.1053
37567SOL     OW17156   2.262   6.742   4.147  0.2455 -0.0503 -0.4613
37567SOL    HW117157   2.342   6.697   4.175 -0.7777 -1.7676 -0.1376
37567SOL    HW217158   2.202   6.671   4.124 -0.6008  1.2199 -2.4016
37568SOL     OW17159   9.974   6.190   8.170 -0.3994  0.1317  0.1707
37568SOL    HW117160  10.069   6.186   8.180 -0.3816  0.4965  0.1533
37568SOL    HW217161   9.958   6.271   8.122 -0.7549  0.3443  0.6364
37569SOL     OW17162   0.814  10.784   4.596  0.3651  0.5397 -0.3292
37569SOL    HW117163   0.803  10.787   4.501 -0.9446 -1.6293 -0.3163
37569SOL    HW217164   0.888  10.725   4.609 -0.2115 -0.1186  0.0091
37570SOL     OW17165   5.807   4.931   8.257  0.7072 -0.0430  0.2379
37570SOL    HW117166   5.864   5.005   8.235  0.5823 -0.3032 -1.0371
37570SOL    HW217167   5.819   4.870   8.185 -0.5464 -0.4781  0.3791
37571SOL     OW17168  10.416   2.021   8.462  0.0307 -0.3324 -0.3107
37571SOL    HW117169  10.388   1.970   8.538  1.4811 -2.0656 -0.8763
37571SOL    HW217170  10.399   1.964   8.387 -0.4647  0.9687 -1.2214
37572SOL     OW17171   7.946   3.005   9.407 -0.2658  0.1775 -0.8550
37572SOL    HW117172   8.027   3.036   9.366  0.5700  0.4917  0.9558
37572SOL    HW217173   7.900   3.086   9.432 -0.9991 -0.0072 -1.5476
37573SOL     OW17174   9.289   2.572   6.363  0.4470 -0.4967 -0.0686
37573SOL    HW117175   9.343   2.522   6.302  1.4257 -1.0102  1.1629
37573SOL    HW217176   9.343   2.647   6.387  1.2681 -1.7152  2.2155
37574SOL     OW17177  10.524   2.892   5.817 -0.3759  0.0596  0.0132
37574SOL    HW117178  10.592   2.941   5.864 -1.4661 -0.5184  2.3637
37574SOL    HW217179  10.448   2.951   5.819 -1.0208 -0.7699  0.8326
37575SOL     OW17180   9.459  10.288   0.364  0.4148  0.4161  0.1016
37575SOL    HW117181   9.522  10.348   0.325  1.1240  0.4256  1.2195
37575SOL    HW217182   9.475  10.294   0.458 -0.0830 -0.8691  0.2891
37576SOL     OW17183   3.245   5.654   4.156 -0.0935 -0.1765  0.4803
37576SOL    HW117184   3.281   5.605   4.083  0.5819  0.2650  0.4959
37576SOL    HW217185   3.158   5.681   4.128 -0.6685 -1.7790  0.6680
37577SOL     OW17186   0.094   0.407   8.912 -0.1265  0.0714 -0.4984
37577SOL    HW117187   0.115   0.495   8.943 -1.8860  0.1502  0.5797
37577SOL    HW217188   0.046   0.421   8.831  1.9148 -0.0487 -1.8232
37578SOL     OW17189   4.226   5.601   1.182  0.1331  0.3214  0.1444
37578SOL    HW117190   4.274   5.520   1.165  1.8215  0.7656  2.3143
37578SOL    HW217191   4.148   5.574   1.230  0.0689 -0.1254 -0.2137
37579SOL     OW17192   6.385   6.462   4.658  0.2968  0.2037 -0.5997
37579SOL    HW117193   6.366   6.545   4.702  0.3424  0.1544 -0.4884
37579SOL    HW217194   6.365   6.395   4.723 -1.6914  0.0223 -1.3104
37580SOL     OW17195   4.768   4.507   1.948 -0.0673  0.2336  0.3273
37580SOL    HW117196   4.841   4.467   1.901 -0.7550 -0.6154 -0.0520
37580SOL    HW217197   4.753   4.590   1.903  1.0311  0.7024  0.7854
37581SOL     OW17198   9.639  10.324   4.300 -0.4362  0.5311 -0.8145
37581SOL    HW117199   9.662  10.417   4.310 -1.5797  0.9688 -1.9770
37581SOL    HW217200   9.687  10.296   4.222 -1.2191  0.5621 -1.3216
37582SOL     OW17201   6.977   6.042   2.526  0.0181  0.6036 -0.3674
37582SOL    HW117202   6.985   5.980   2.453  1.2783  0.7548 -0.3762
37582SOL    HW217203   6.967   6.128   2.484 -1.5183  0.4700 -0.3525
37583SOL     OW17204   2.373   5.958   6.334  0.1378 -0.2244 -0.7799
37583SOL    HW117205   2.416   5.961   6.248  2.0837 -1.9695  0.0310
37583SOL    HW217206   2.388   6.045   6.371  1.2398 -0.1355 -1.3662
37584SOL     OW17207   1.850   7.203   5.545  0.4793 -0.0568 -0.3969
37584SOL    HW117208   1.782   7.185   5.609 -0.4293 -1.3531 -1.6336
37584SOL    HW217209   1.883   7.116   5.521  0.8081  0.3779 -1.6266
37585SOL     OW17210   8.263   0.452   7.498  0.1313 -0.1057 -0.1191
37585SOL    HW117211   8.325   0.381   7.514 -1.6325 -2.0589 -1.4669
37585SOL    HW217212   8.286   0.519   7.563  1.7010 -1.9984  1.3821
37586SOL     OW17213   3.905   8.024   5.618  0.1191  0.1069 -0.1153
37586SOL    HW117214   3.810   8.036   5.621  0.0484 -0.5934  0.7109
37586SOL    HW217215   3.933   8.074   5.541 -0.9672 -0.0055 -0.6013
37587SOL     OW17216   4.105   6.265   7.701  0.0607  0.0648  0.2318
37587SOL    HW117217   4.087   6.275   7.607 -1.3558 -0.8892  0.3687
37587SOL    HW217218   4.026   6.296   7.744 -0.2758 -1.7191  0.9964
37588SOL     OW17219   3.878   0.090   8.479 -0.3638 -0.1798  0.3273
37588SOL    HW117220   3.965   0.116   8.448 -0.5625 -2.1167 -2.1178
37588SOL    HW217221   3.896   0.027   8.549  0.1409  0.7105  1.0306
37589SOL     OW17222   8.431   5.818  10.038  0.0963  0.2452  0.1075
37589SOL    HW117223   8.503   5.848   9.982  1.2424 -1.7299  0.4206
37589SOL    HW217224   8.472   5.797  10.122 -0.7943 -0.9990  0.2726
37590SOL     OW17225   6.088   6.846   2.650 -0.7543  0.1196  0.5207
37590SOL    HW117226   6.097   6.793   2.730  1.8881 -1.3482 -0.6195
37590SOL    HW217227   6.153   6.915   2.660 -1.2383  0.6324  0.1503
37591SOL     OW17228   9.439   5.893   7.027 -0.3013  0.4492  0.3598
37591SOL    HW117229   9.463   5.970   6.976 -0.8989 -0.5326 -1.4991
37591SOL    HW217230   9.345   5.881   7.010 -1.1090  1.3068  3.4534
37592SOL     OW17231   6.867   3.377   4.690 -0.1390  0.4931  0.0861
37592SOL    HW117232   6.896   3.414   4.773 -1.1601 -0.3107  0.8298
37592SOL    HW217233   6.941   3.390   4.631  0.1261  2.2253  0.7483
37593SOL     OW17234   0.149   9.130   4.885 -0.2738 -0.1918  0.4272
37593SOL    HW117235   0.062   9.167   4.871 -0.5126 -0.2934  1.5312
37593SOL    HW217236   0.138   9.073   4.961  0.8332  0.0416  0.7763
37594SOL     OW17237  10.722   1.868   9.582  0.6318 -0.1841  0.4385
37594SOL    HW117238  10.708   1.921   9.661  0.1652  2.8124 -1.5129
37594SOL    HW217239  10.816   1.854   9.579  0.6186 -0.6437  1.6984
37595SOL     OW17240   6.652   1.422   2.018 -0.7176  0.0634  0.1988
37595SOL    HW117241   6.633   1.434   2.111 -0.6483 -1.5927  0.4595
37595SOL    HW217242   6.587   1.477   1.973 -0.5018  1.1886  1.2055
37596SOL     OW17243   9.123   1.466   5.774 -0.3605  0.3152 -0.3207
37596SOL    HW117244   9.208   1.502   5.747 -1.2827  1.1816 -2.2913
37596SOL    HW217245   9.102   1.512   5.855  1.7168 -1.0687  1.1135
37597SOL     OW17246  10.086   7.478   4.131 -0.1347  0.4230 -0.0820
37597SOL    HW117247  10.083   7.549   4.195  0.2626 -0.2920  0.7651
37597SOL    HW217248  10.148   7.415   4.169  1.3128  0.6636 -1.9133
37598SOL     OW17249   4.020   9.038   6.470 -0.1560 -0.1293  0.2352
37598SOL    HW117250   4.113   9.043   6.448 -0.7417 -0.1578 -2.6304
37598SOL    HW217251   4.002   9.120   6.518  1.1380  0.3322 -0.0351
37599SOL     OW17252   2.953   2.274   6.859 -0.3558  0.0499  0.0789
37599SOL    HW117253   2.874   2.324   6.881 -0.5928 -0.7498  1.1270
37599SOL    HW217254   3.019   2.305   6.921 -0.6200 -1.1841  1.0210
37600SOL     OW17255   5.221   9.369   1.322 -0.3145 -0.0244  0.8756
37600SOL    HW117256   5.140   9.392   1.369 -1.4428  0.0107 -0.9631
37600SOL    HW217257   5.270   9.451   1.318 -2.1999  1.1288 -1.6361
37601SOL     OW17258  10.354   9.358   5.332 -0.0276 -0.0467 -0.2220
37601SOL    HW117259  10.323   9.384   5.418  0.1822 -1.5089  0.3343
37601SOL    HW217260  10.385   9.268   5.344 -0.3208 -0.4124 -1.8948
37602SOL     OW17261   1.418   1.288   8.390  0.2633 -0.2632 -0.1257
37602SOL    HW117262   1.504   1.324   8.409  1.1314 -2.9531  1.5663
37602SOL    HW217263   1.405   1.219   8.456 -3.1384 -0.0452 -0.3906
37603SOL     OW17264  10.378   0.644   6.762 -0.0877  0.1105 -0.3786
37603SOL    HW117265  10.461   0.607   6.791 -0.1680  1.3637  1.5559
37603SOL    HW217266  10.324   0.567   6.741  1.9980 -0.7339 -3.2677
37604SOL     OW17267   4.862   0.169   5.220  0.3506  0.5030  0.8970
37604SOL    HW117268   4.854   0.229   5.295  0.3429  0.7476  0.7005
37604SOL    HW217269   4.881   0.084   5.260 -1.0268  0.3401  1.2603
37605SOL     OW17270   8.008  10.126   0.921  0.0662  0.2915 -0.0151
37605SOL    HW117271   8.092  10.170   0.932  0.8447 -1.0294 -0.4232
37605SOL    HW217272   8.011  10.053   0.983  0.7292 -1.8372 -2.3514
37606SOL     OW17273   6.675   2.319   6.850 -0.0148 -0.1974 -0.4210
37606SOL    HW117274   6.645   2.409   6.837 -1.9214 -0.5614  1.0032
37606SOL    HW217275   6.741   2.327   6.919 -1.2769 -0.0199  0.8048
37607SOL     OW17276   9.498   2.796   7.157  0.0469 -0.3161  0.2626
37607SOL    HW117277   9.474   2.716   7.205 -0.0823 -0.1449  0.4870
37607SOL    HW217278   9.591   2.807   7.172  0.1505 -0.6593 -0.1206
37608SOL     OW17279  10.360   9.410   3.712 -0.2158  0.3540 -0.0303
37608SOL    HW117280  10.454   9.394   3.715 -0.0619  1.2316  0.0766
37608SOL    HW217281  10.350   9.488   3.657 -0.9930 -0.4690 -1.1167
37609SOL     OW17282   2.250   3.000   9.926 -0.4319 -0.2221 -0.1051
37609SOL    HW117283   2.231   2.907   9.941  1.0208 -0.4257  0.6843
37609SOL    HW217284   2.341   3.010   9.954 -0.9675  1.7262  1.1422
37610SOL     OW17285   7.099   1.528   3.515 -0.6543 -0.1181  0.8038
37610SOL    HW117286   7.192   1.543   3.535 -0.9443  1.4463  1.1393
37610SOL    HW217287   7.095   1.527   3.419 -0.2720 -0.3655  0.7884
37611SOL     OW17288   8.156   3.096   1.495 -0.5631 -0.2717 -0.0303
37611SOL    HW117289   8.063   3.094   1.516 -0.3104 -0.9547  1.1320
37611SOL    HW217290   8.194   3.156   1.559  0.2474 -2.4515  1.6459
37612SOL     OW17291   9.977   4.201   3.908  0.0586  0.0585 -0.2655
37612SOL    HW117292  10.066   4.209   3.941  0.6535 -0.0315 -1.7548
37612SOL    HW217293   9.965   4.107   3.894  0.0623  0.1419 -0.8819
37613SOL     OW17294   7.858   5.902   5.753 -0.8451 -0.6892  0.5159
37613SOL    HW117295   7.948   5.929   5.737 -1.1199 -0.8538 -1.5718
37613SOL    HW217296   7.863   5.851   5.834  0.8865 -0.5190  0.5609
37614SOL     OW17297   8.602  10.720   1.379 -0.1160 -0.5223  0.2894
37614SOL    HW117298   8.672  10.775   1.344  2.5495 -1.9735  2.9786
37614SOL    HW217299   8.593  10.649   1.315  0.6009 -0.1322 -0.2553
37615SOL     OW17300   6.189   7.564  10.911  0.2519  0.5641  0.2524
37615SOL    HW117301   6.270   7.585  10.958 -0.4539  1.9094  0.9361
37615SOL    HW217302   6.198   7.608  10.827  0.6022 -0.0278 -0.0210
37616SOL     OW17303   9.485   5.578   1.198 -0.0708  0.1351  0.0521
37616SOL    HW117304   9.555   5.513   1.210 -0.6192 -0.2982  0.9968
37616SOL    HW217305   9.411   5.543   1.248 -1.4645 -0.1371 -2.0633
37617SOL     OW17306   9.418   9.359  10.494  0.0400  0.0469 -0.5938
37617SOL    HW117307   9.348   9.395  10.548  0.8841  0.8435 -0.0056
37617SOL    HW217308   9.436   9.274  10.532  0.2168  0.3512  0.0179
37618SOL     OW17309   0.266  10.542  10.906  0.1878  0.0138  0.9450
37618SOL    HW117310   0.276  10.584  10.821 -1.4652  0.2673  0.8432
37618SOL    HW217311   0.248  10.615  10.966  0.0764 -0.2788  1.2688
37619SOL     OW17312  10.777   2.804   8.673 -0.0504 -0.3622  0.4168
37619SOL    HW117313  10.790   2.815   8.767 -0.0640  0.2346  0.3496
37619SOL    HW217314  10.865   2.812   8.636  0.0817 -1.4901  0.4589
37620SOL     OW17315   7.356   1.719   0.008 -0.7444  0.0145 -0.3742
37620SOL    HW117316   7.435   1.719  -0.046 -0.0819 -1.0503  0.5525
37620SOL    HW217317   7.380   1.768   0.086 -1.6193  1.3255 -0.8931
37621SOL     OW17318   8.405   6.873  10.507 -0.1548  0.3778  0.1918
37621SOL    HW117319   8.487   6.915  10.533 -0.7005  1.1239  0.7154
37621SOL    HW217320   8.356   6.862  10.588  0.9428 -3.5965  0.5679
37622SOL     OW17321   0.792   2.426   3.911  0.2296 -0.2735 -0.6100
37622SOL    HW117322   0.735   2.412   3.836 -1.4380  0.0885  0.5450
37622SOL    HW217323   0.772   2.354   3.971  1.0837 -0.2174 -0.2407
37623SOL     OW17324   1.646   4.870   3.541  0.4574  0.4690  0.1956
37623SOL    HW117325   1.667   4.806   3.610  1.1830 -0.4507 -0.8313
37623SOL    HW217326   1.711   4.939   3.553  1.2889 -0.2217 -0.2302
37624SOL     OW17327   9.737   1.655   8.885 -0.6603  0.2414  0.3321
37624SOL    HW117328   9.754   1.749   8.894 -0.3697  0.0784  1.6365
37624SOL    HW217329   9.822   1.613   8.898 -0.6281 -0.1837 -1.0629
37625SOL     OW17330   0.408   6.898   2.692 -0.3133 -0.1410 -0.0899
37625SOL    HW117331   0.414   6.899   2.596  0.2949 -0.2836 -0.0534
37625SOL    HW217332   0.378   6.986   2.715 -2.6748 -0.7464 -0.5455
37626SOL     OW17333   1.484   2.054   4.426  0.0846 -0.5396 -0.2198
37626SOL    HW117334   1.412   2.031   4.369  1.1713 -1.9589 -1.0808
37626SOL    HW217335   1.471   2.001   4.505 -0.0936 -0.3925 -0.1488
37627SOL     OW17336  10.112   1.470   9.560  0.1708  0.1493 -1.0018
37627SOL    HW117337  10.197   1.454   9.518  0.3320 -1.5336 -0.1196
37627SOL    HW217338  10.115   1.562   9.586  0.5289  0.9554 -3.5675
37628SOL     OW17339   6.365   4.606   7.409  0.3057  0.2078  0.1584
37628SOL    HW117340   6.372   4.574   7.319  1.6003  1.3517 -0.1826
37628SOL    HW217341   6.346   4.528   7.461 -0.9969 -0.3935 -1.1588
37629SOL     OW17342   7.422   8.902  10.381 -0.4421  0.0094 -0.2235
37629SOL    HW117343   7.492   8.932  10.439  0.2340  0.0860 -1.0806
37629SOL    HW217344   7.442   8.939  10.296 -1.3655 -0.2128 -0.5563
37630SOL     OW17345   9.354   8.380   3.545 -0.0425  0.6869  0.4192
37630SOL    HW117346   9.341   8.285   3.554 -1.6329  1.0383  2.3450
37630SOL    HW217347   9.449   8.391   3.550  0.3969 -0.9651 -2.3136
37631SOL     OW17348   2.192   1.294  10.736  0.0609 -0.5391 -0.6983
37631SOL    HW117349   2.270   1.326  10.691  0.6107  0.6522  0.9643
37631SOL    HW217350   2.124   1.356  10.711  0.5603  0.6220  0.6574
37632SOL     OW17351   1.055   0.654   3.094  0.2578  0.6395  0.0580
37632SOL    HW117352   1.026   0.572   3.054 -1.2200  0.2123  1.8594
37632SOL    HW217353   0.977   0.708   3.097  0.9144  1.6120  0.1260
37633SOL     OW17354   6.042   3.470   8.558 -0.1671  0.0574 -0.1515
37633SOL    HW117355   6.128   3.462   8.598  0.6032  0.1143 -1.7277
37633SOL    HW217356   6.029   3.387   8.513 -1.2594 -0.2190  0.6140
37634SOL     OW17357  10.136   5.454   6.655 -0.6501  0.0803  1.0616
37634SOL    HW117358  10.213   5.421   6.610 -1.3657  1.6187 -1.5000
37634SOL    HW217359  10.154   5.547   6.669 -2.0385  0.4912  0.3133
37635SOL     OW17360   8.513   5.471   1.837  0.2094  0.5915  0.4344
37635SOL    HW117361   8.430   5.424   1.849  1.6085 -1.8957  1.0043
37635SOL    HW217362   8.497   5.529   1.763 -2.3705  1.0473  1.2392
37636SOL     OW17363   1.292   9.783   2.773 -0.0492 -0.4467 -0.4649
37636SOL    HW117364   1.241   9.851   2.729 -0.7009 -0.7121 -0.1314
37636SOL    HW217365   1.383   9.800   2.746 -0.2347  0.3942 -0.5859
37637SOL     OW17366   0.880   0.020   3.211  0.5372  0.5640  0.0854
37637SOL    HW117367   0.969   0.000   3.182  0.0119 -0.2381 -1.0649
37637SOL    HW217368   0.880  -0.001   3.304  1.7558  1.3589  0.2921
37638SOL     OW17369   8.213   4.573   4.659 -0.1765  0.0293  0.0368
37638SOL    HW117370   8.141   4.519   4.625 -0.1496  0.1708 -0.2463
37638SOL    HW217371   8.210   4.560   4.754 -1.3155  0.9660  0.1373
37639SOL     OW17372   5.530   0.799  10.545 -0.0969  0.2457 -0.7962
37639SOL    HW117373   5.514   0.840  10.460  0.0061  0.0886 -0.8933
37639SOL    HW217374   5.611   0.840  10.577 -1.1660  1.7164  0.1215
37640SOL     OW17375   3.297   3.916   1.839  0.1261  0.0292  0.6602
37640SOL    HW117376   3.212   3.879   1.862  0.1319  0.2766  1.0929
37640SOL    HW217377   3.359   3.875   1.899  0.1325  0.7255  1.1431
37641SOL     OW17378   9.010   7.889  10.572  0.8058  0.3842  0.4248
37641SOL    HW117379   9.000   7.969  10.624 -0.8026  1.0559 -0.8354
37641SOL    HW217380   8.943   7.829  10.606  0.6985  0.3031  0.0741
37642SOL     OW17381   9.288   1.514   0.144 -0.0174  0.3743 -0.8084
37642SOL    HW117382   9.338   1.560   0.076  0.1393  0.5865 -0.5546
37642SOL    HW217383   9.355   1.469   0.196 -0.3088 -2.2960 -2.5579
37643SOL     OW17384  10.253   5.439   5.511 -0.2020 -0.1827  0.4618
37643SOL    HW117385  10.316   5.495   5.557  0.0330 -0.9676  1.1178
37643SOL    HW217386  10.307   5.378   5.461 -0.4474 -0.4139  0.4785
37644SOL     OW17387   6.201   9.494   7.081  0.3813 -0.1923 -0.0941
37644SOL    HW117388   6.188   9.417   7.136  0.1973  0.8013  1.2976
37644SOL    HW217389   6.284   9.478   7.036  1.2553 -0.4349  1.5374
37645SOL     OW17390   5.336   4.472   5.725 -1.0808  0.2295  0.4566
37645SOL    HW117391   5.336   4.553   5.674 -3.8316  0.1538  0.1590
37645SOL    HW217392   5.275   4.490   5.797  1.8077 -0.0633  3.1431
37646SOL     OW17393   4.261   4.316   0.734  0.2033  0.1244 -0.1826
37646SOL    HW117394   4.342   4.339   0.778  0.8291 -0.7550 -0.8431
37646SOL    HW217395   4.279   4.232   0.692 -0.2632  1.0536 -2.3582
37647SOL     OW17396  10.272   0.686   5.517 -0.0173 -0.5885  0.2645
37647SOL    HW117397  10.355   0.701   5.472 -0.6511 -0.2546 -0.8314
37647SOL    HW217398  10.293   0.694   5.610  1.0333  0.1996 -0.0237
37648SOL     OW17399   6.163   1.654   4.008  0.4340  0.3930  0.0248
37648SOL    HW117400   6.242   1.705   4.027  0.2982  0.5232  0.2555
37648SOL    HW217401   6.114   1.708   3.945 -0.1945  1.0450  1.0375
37649SOL     OW17402   6.927   9.471   0.577 -0.4680  0.1887  0.3134
37649SOL    HW117403   7.023   9.465   0.576 -0.4579 -0.7850 -2.5809
37649SOL    HW217404   6.908   9.557   0.540 -0.6744 -0.2604 -0.6571
37650SOL     OW17405   3.183   8.087   7.672  0.1435 -0.0481  0.2049
37650SOL    HW117406   3.243   8.019   7.703 -1.2393 -0.6650  1.6282
37650SOL    HW217407   3.240   8.162   7.654  1.2740 -0.1747  2.7570
37651SOL     OW17408   7.760   1.104   0.278 -0.3088  0.5869  0.1476
37651SOL    HW117409   7.838   1.154   0.253  0.0767  0.5790  1.2467
37651SOL    HW217410   7.752   1.037   0.210 -0.3660  1.6369 -0.9078
37652SOL     OW17411   2.811  10.498  11.043 -0.5526  0.2310 -0.1935
37652SOL    HW117412   2.749  10.514  11.114 -1.3673 -0.0175 -0.8242
37652SOL    HW217413   2.787  10.562  10.976  0.6060  0.8754 -0.0051
37653SOL     OW17414   3.807   9.402  11.055 -0.1203  0.1844  0.5361
37653SOL    HW117415   3.824   9.310  11.076  1.8454  0.4563  0.3016
37653SOL    HW217416   3.893   9.444  11.058 -0.0905  1.0284 -4.2311
37654SOL     OW17417  10.956   1.795   3.913 -0.0373  0.0092 -0.0433
37654SOL    HW117418  11.006   1.775   3.992  0.6772  1.4413 -0.0881
37654SOL    HW217419  10.993   1.738   3.846  1.5709  0.9911 -0.0651
37655SOL     OW17420   2.491   7.869  10.606 -0.2429 -0.3512 -0.4141
37655SOL    HW117421   2.528   7.849  10.692  1.2558 -1.9979 -1.3877
37655SOL    HW217422   2.406   7.826  10.605 -0.5963  0.2913  0.4756
37656SOL     OW17423  10.048   7.876   1.263 -0.4850 -0.5596 -0.1777
37656SOL    HW117424  10.059   7.956   1.212 -1.3688 -0.5487 -0.3633
37656SOL    HW217425  10.131   7.867   1.311 -0.8917  1.2959  1.0132
37657SOL     OW17426   3.076  10.485   9.004 -0.1044 -0.1486 -0.2600
37657SOL    HW117427   3.120  10.459   9.084  0.5544 -2.4146 -1.2692
37657SOL    HW217428   3.100  10.577   8.991 -0.5499  0.3801  2.2854
37658SOL     OW17429   4.724   7.445   2.412 -0.0915  1.0048  0.8125
37658SOL    HW117430   4.698   7.356   2.434 -0.8447  0.4308 -2.0127
37658SOL    HW217431   4.782   7.472   2.483 -0.8214 -1.2600  2.3574
37659SOL     OW17432   1.065   7.211   6.477 -0.3003 -0.3171  0.3893
37659SOL    HW117433   1.078   7.284   6.537 -2.0345 -0.1129  0.5730
37659SOL    HW217434   0.995   7.241   6.418 -0.5127 -1.5425 -0.0062
37660SOL     OW17435   2.038   6.964   1.825  0.3783 -0.1526 -0.6519
37660SOL    HW117436   2.019   7.007   1.742 -1.9905  1.9810  0.8529
37660SOL    HW217437   2.067   7.035   1.883 -2.0755 -0.7488  1.4812
37661SOL     OW17438   3.370   9.395  10.689 -0.4713 -0.3257 -0.6484
37661SOL    HW117439   3.289   9.442  10.673  0.9588  2.6968  0.1518
37661SOL    HW217440   3.428   9.421  10.618  0.9418  0.6878  0.7960
37662SOL     OW17441   3.979   1.377   3.827 -0.4256 -0.0032  0.5471
37662SOL    HW117442   3.929   1.320   3.768  0.3763 -0.2990  0.1443
37662SOL    HW217443   4.061   1.395   3.780  0.8039 -1.3233  2.0764
37663SOL     OW17444   1.014   8.967   4.033  0.1875  0.4548 -0.1200
37663SOL    HW117445   1.087   8.907   4.018  0.9669  0.9710  1.4893
37663SOL    HW217446   1.006   9.016   3.951 -0.3013 -1.6146 -1.3832
37664SOL     OW17447  10.382   8.893   9.537  0.1821  0.1818 -0.3671
37664SOL    HW117448  10.350   8.983   9.540 -0.8778 -0.1945  1.3950
37664SOL    HW217449  10.444   8.891   9.464 -1.1457  1.8686 -1.6217
37665SOL     OW17450   3.531   7.252   7.528  0.7061 -0.1637  0.2114
37665SOL    HW117451   3.579   7.182   7.484  2.2980  1.9314 -1.5980
37665SOL    HW217452   3.495   7.304   7.457  0.6524  1.5635  1.4562
37666SOL     OW17453  10.908   7.080   9.581  0.4227  0.3934  0.1394
37666SOL    HW117454  10.877   7.082   9.491 -1.5003 -0.5801  0.7256
37666SOL    HW217455  11.003   7.090   9.574  0.1191  2.8045 -1.8125
37667SOL     OW17456   0.967   7.256   3.755  0.1032 -0.4960  0.5045
37667SOL    HW117457   0.884   7.299   3.774  0.9420  1.9068 -0.7576
37667SOL    HW217458   0.964   7.173   3.802 -2.8083 -0.2868  0.8270
37668SOL     OW17459   2.707  10.499   6.333 -0.0418 -0.3306 -0.1176
37668SOL    HW117460   2.703  10.434   6.263 -1.0619 -0.9628  0.4961
37668SOL    HW217461   2.669  10.578   6.295 -1.2549 -0.8778 -0.0869
37669SOL     OW17462   9.538   0.162   3.490  0.3536 -0.1408 -0.8558
37669SOL    HW117463   9.602   0.107   3.444  0.9937 -0.9522  0.9357
37669SOL    HW217464   9.484   0.198   3.420 -0.2395 -3.1982 -2.1660
37670SOL     OW17465   6.112   9.908   4.412  0.0231 -0.0990 -0.2111
37670SOL    HW117466   6.186   9.961   4.443  0.3254  0.6159 -2.0124
37670SOL    HW217467   6.153   9.834   4.368 -0.3966 -1.1121  1.0445
37671SOL     OW17468   9.296   6.758   5.646  0.0747 -0.3615 -0.8065
37671SOL    HW117469   9.228   6.825   5.656 -1.1453 -1.8490  1.7366
37671SOL    HW217470   9.365   6.786   5.705  1.1996  0.4500 -2.4198
37672SOL     OW17471   3.744  10.197   4.244 -0.1282 -0.0711  0.6024
37672SOL    HW117472   3.715  10.146   4.319 -2.0624  2.6830  1.9439
37672SOL    HW217473   3.787  10.274   4.283  0.5521  0.4905 -1.1683
37673SOL     OW17474   7.981   4.805  10.730 -0.3800 -0.2259  0.2907
37673SOL    HW117475   7.923   4.748  10.680  0.6342  0.1845 -1.4413
37673SOL    HW217476   7.927   4.837  10.802 -2.3081  0.1214 -1.2205
37674SOL     OW17477   0.514   4.881   9.343 -0.1286  0.1313 -0.2926
37674SOL    HW117478   0.477   4.936   9.275  0.2553  1.2590  0.3890
37674SOL    HW217479   0.609   4.886   9.329  0.0179  1.1673  0.8886
37675SOL     OW17480   4.938   9.835  10.037 -0.2369 -0.4176  0.1712
37675SOL    HW117481   4.923   9.838   9.943  1.3475  1.1661 -0.1014
37675SOL    HW217482   5.013   9.777  10.048  0.9264  1.0348  0.1898
37676SOL     OW17483  10.724   6.999   5.221  0.1632  0.1817  0.4733
37676SOL    HW117484  10.734   7.061   5.149  1.0023 -0.7808 -0.2583
37676SOL    HW217485  10.689   7.052   5.293 -1.6530  0.9634 -0.9086
37677SOL     OW17486   2.989   3.995  10.360  0.3640  0.0235  0.4376
37677SOL    HW117487   2.976   4.085  10.333  1.5651  1.1487  3.2530
37677SOL    HW217488   2.984   3.997  10.456  2.9437 -2.4148  0.7626
37678SOL     OW17489   3.808   0.551  10.586  0.5795  0.2750 -0.2634
37678SOL    HW117490   3.746   0.613  10.624  1.3670  1.5848 -1.0406
37678SOL    HW217491   3.797   0.471  10.638 -0.3747  1.0905  0.8401
37679SOL     OW17492   5.512   7.580   1.464 -0.1414  0.9521  0.1427
37679SOL    HW117493   5.595   7.533   1.473  0.2279  1.4410 -0.6673
37679SOL    HW217494   5.503   7.596   1.370 -1.0093  1.1740  0.2532
37680SOL     OW17495   7.061   8.115   0.868  0.2998 -0.0133 -0.1073
37680SOL    HW117496   7.151   8.088   0.886  0.5014  0.4451 -0.4072
37680SOL    HW217497   7.015   8.034   0.845  0.4881 -0.3319  0.6242
37681SOL     OW17498   3.955  10.945   6.543  0.4634 -0.1463 -0.0511
37681SOL    HW117499   3.878  10.976   6.495  0.0000 -2.8335 -1.1922
37681SOL    HW217500   4.014  10.913   6.475  1.7427  0.0176  0.9503
37682SOL     OW17501   8.849   3.499   3.728  0.5509  0.0168  0.1898
37682SOL    HW117502   8.861   3.455   3.812 -1.8773 -0.2983  0.4593
37682SOL    HW217503   8.755   3.491   3.711  1.0363 -0.2965 -2.7827
37683SOL     OW17504   9.576   6.260   2.008 -0.6862 -0.2814 -0.2196
37683SOL    HW117505   9.546   6.251   2.099  2.1483 -1.4590  0.7196
37683SOL    HW217506   9.671   6.247   2.013 -0.0657  2.1529 -3.0453
37684SOL     OW17507   8.954   9.426   0.800  0.3833 -0.3324 -0.1495
37684SOL    HW117508   8.871   9.433   0.755 -0.5831  1.2057  1.6831
37684SOL    HW217509   8.972   9.332   0.805 -1.5367 -0.7399 -0.1174
37685SOL     OW17510   1.534   0.522   7.589 -0.5567 -0.4891  0.4045
37685SOL    HW117511   1.540   0.483   7.502  1.2029  0.9136 -0.1528
37685SOL    HW217512   1.623   0.520   7.623 -0.7266  1.3600  1.0901
37686SOL     OW17513   5.996   9.059   6.089 -1.0330  0.0893  0.1966
37686SOL    HW117514   5.982   9.085   5.998 -1.1537  0.0009  0.1887
37686SOL    HW217515   5.917   9.009   6.112 -0.3566 -1.1778 -0.1169
37687SOL     OW17516  10.876   6.563  10.962  0.3608 -0.4675 -0.9050
37687SOL    HW117517  10.894   6.519  11.045  0.9017  0.5628 -0.4605
37687SOL    HW217518  10.951   6.542  10.907 -0.2923 -1.6685 -1.3695
37688SOL     OW17519   6.584   0.306   6.284  0.0994  0.6864  0.0408
37688SOL    HW117520   6.532   0.298   6.365 -1.3744  0.6082 -0.8720
37688SOL    HW217521   6.630   0.389   6.293 -1.7234  1.7533  0.0649
37689SOL     OW17522   0.107   5.072  10.318  0.1509 -0.4145 -0.4577
37689SOL    HW117523   0.179   5.099  10.374 -0.1061  0.7318 -0.6644
37689SOL    HW217524   0.119   5.121  10.237 -0.6236 -0.5268 -0.6545
37690SOL     OW17525   7.530   9.128   1.404  0.4138  0.0401  0.2993
37690SOL    HW117526   7.439   9.107   1.424  0.3369 -0.5947 -0.6353
37690SOL    HW217527   7.543   9.216   1.438 -0.7108  0.3539 -0.0597
37691SOL     OW17528   3.547   4.998   6.772  0.0272  0.1451  0.7176
37691SOL    HW117529   3.463   4.996   6.726 -0.1590  1.1339  1.0064
37691SOL    HW217530   3.593   5.074   6.737  1.0283 -0.6733  0.1960
37692SOL     OW17531   9.560   8.487   5.099  0.1177 -0.2841  0.2969
37692SOL    HW117532   9.628   8.554   5.086 -0.7151  0.5528  0.1086
37692SOL    HW217533   9.588   8.440   5.177  0.1853  0.9865  1.0718
37693SOL     OW17534   1.435   6.193   8.019 -0.2887  0.0921  0.4201
37693SOL    HW117535   1.452   6.284   7.991 -1.2713  0.0505 -0.3593
37693SOL    HW217536   1.472   6.188   8.107 -0.6048  1.3876  0.6536
37694SOL     OW17537   8.831   4.613  10.512 -0.0973 -0.3271  0.6374
37694SOL    HW117538   8.834   4.703  10.481 -2.7028 -0.0200  1.0020
37694SOL    HW217539   8.843   4.620  10.607  0.0745 -0.3980  0.6205
37695SOL     OW17540   6.483   5.872   0.432  0.2086 -0.1786  0.3054
37695SOL    HW117541   6.482   5.777   0.423  3.8989 -0.4837  1.6562
37695SOL    HW217542   6.477   5.904   0.342  0.2548 -1.7249 -0.2786
37696SOL     OW17543   7.086  10.732   5.354  0.7433 -0.2154 -0.1807
37696SOL    HW117544   7.137  10.705   5.278  0.1079 -1.9470 -0.0368
37696SOL    HW217545   7.102  10.826   5.362  2.8853 -0.4800 -0.8749
37697SOL     OW17546   1.201   0.311   0.286 -0.0905 -0.3391  0.2938
37697SOL    HW117547   1.273   0.250   0.269 -0.3943 -1.1387  1.6824
37697SOL    HW217548   1.244   0.390   0.318  0.1648 -1.5449  3.2150
37698SOL     OW17549   7.148   5.021   4.868 -0.1701 -0.3102 -0.1436
37698SOL    HW117550   7.186   4.943   4.827  1.9373  1.0970 -1.0852
37698SOL    HW217551   7.079   5.048   4.808 -0.1519 -0.8214 -0.4057
37699SOL     OW17552   3.617   4.680   9.135  0.1944  0.2523 -0.0509
37699SOL    HW117553   3.666   4.613   9.183  0.6509  0.9194  0.4383
37699SOL    HW217554   3.570   4.729   9.203  2.5036  2.5745  0.0552
37700SOL     OW17555   8.088   9.274   9.632  0.0530  0.2998 -0.9398
37700SOL    HW117556   8.066   9.360   9.596  0.3304  0.9175  0.2873
37700SOL    HW217557   8.130   9.227   9.561  0.5967  1.4711 -1.4086
37701SOL     OW17558   1.105   0.689   1.090  0.8143  0.6123 -0.2947
37701SOL    HW117559   1.063   0.606   1.066 -0.7313  0.9514  1.0270
37701SOL    HW217560   1.075   0.751   1.023 -2.7473  1.3504  1.7368
37702SOL     OW17561   0.136   9.838   2.642 -0.4315  0.4593 -0.5548
37702SOL    HW117562   0.134   9.889   2.561 -2.1498  0.9601 -0.2389
37702SOL    HW217563   0.068   9.877   2.697  0.4004 -0.1422  0.9779
37703SOL     OW17564   9.625   8.978  10.550  0.6209 -0.8642  0.1550
37703SOL    HW117565   9.602   9.026  10.470  1.0731 -2.4662 -0.9917
37703SOL    HW217566   9.558   9.003  10.613  0.2421  0.4460 -0.7156
37704SOL     OW17567   5.873   3.203   8.223 -0.1113 -0.4791 -0.3397
37704SOL    HW117568   5.862   3.290   8.186  0.1556  0.2498  1.2013
37704SOL    HW217569   5.908   3.150   8.151 -0.4286  0.6382 -1.3449
37705SOL     OW17570   1.905  10.855   2.082  0.0132  0.1463  0.0689
37705SOL    HW117571   1.819  10.898   2.090 -0.6296 -0.5694 -2.0783
37705SOL    HW217572   1.907  10.793   2.154 -1.1816  0.3454  0.3093
37706SOL     OW17573   9.279   3.419   7.684 -0.3317 -0.2038  0.4850
37706SOL    HW117574   9.353   3.360   7.699  0.2693  0.8456  1.9849
37706SOL    HW217575   9.282   3.438   7.590  0.3171 -1.4194  0.2361
37707SOL     OW17576   7.909   3.143   7.079 -0.4387  0.0066  0.3422
37707SOL    HW117577   7.900   3.122   7.172  0.0683  0.0168  0.3935
37707SOL    HW217578   7.955   3.068   7.042 -1.5106 -0.4635 -0.0962
37708SOL     OW17579   2.962   7.603   0.568  0.0254 -0.2228 -0.1074
37708SOL    HW117580   2.871   7.575   0.574 -0.2705  0.9390  1.4220
37708SOL    HW217581   2.958   7.699   0.563  1.1735 -0.0944  0.8925
37709SOL     OW17582   7.017   8.531   9.377 -0.0394 -0.0518 -0.5088
37709SOL    HW117583   7.098   8.514   9.425 -0.7944 -1.4181  0.3857
37709SOL    HW217584   6.999   8.624   9.391 -0.2636 -0.4085  1.9860
37710SOL     OW17585   0.418   8.683   0.052 -0.6403  0.2997  0.3174
37710SOL    HW117586   0.440   8.685   0.145  0.6149  1.4436  0.0212
37710SOL    HW217587   0.326   8.657   0.050 -0.6970  0.2903  1.8768
37711SOL     OW17588   6.632  10.984   4.171  1.0789 -0.5194 -0.0421
37711SOL    HW117589   6.664  10.931   4.099  0.5985  0.0081 -0.6504
37711SOL    HW217590   6.684  11.064   4.168  1.0663 -0.4989  0.2083
37712SOL     OW17591   8.962   5.766   3.776  0.2957  0.1087  0.1735
37712SOL    HW117592   9.057   5.770   3.782  0.4290  0.7575 -1.8472
37712SOL    HW217593   8.944   5.694   3.716 -0.3799  1.1620 -0.9373
37713SOL     OW17594   1.066   1.407  10.053  0.1859  0.0246 -0.6376
37713SOL    HW117595   0.982   1.373  10.022 -0.5451  0.7470  0.4748
37713SOL    HW217596   1.116   1.330  10.077  0.6866 -0.5677 -3.2513
37714SOL     OW17597   0.403   4.934   0.966  0.1637  0.1684 -0.3191
37714SOL    HW117598   0.422   5.028   0.959  0.5073  0.5969  3.7756
37714SOL    HW217599   0.314   4.930   1.002  0.6636 -0.9740  0.8610
37715SOL     OW17600   7.430   6.079   0.772 -0.1485 -0.3052 -0.9371
37715SOL    HW117601   7.449   5.987   0.752 -0.6407 -0.5363 -0.3746
37715SOL    HW217602   7.343   6.094   0.735 -1.3292 -0.9012  1.4232
37716SOL     OW17603   5.781   0.274   9.609 -0.2115  0.6292 -0.1201
37716SOL    HW117604   5.723   0.281   9.533  0.3890 -0.5921 -0.7298
37716SOL    HW217605   5.794   0.364   9.638 -0.4907  1.1229 -1.4485
37717SOL     OW17606   7.828   2.643   4.287  0.2264  0.3797 -0.1961
37717SOL    HW117607   7.883   2.644   4.208  0.0506 -0.7035 -0.3455
37717SOL    HW217608   7.876   2.589   4.349 -0.4283 -0.1755 -0.1588
37718SOL     OW17609   8.804   8.322   2.705  0.0697 -0.1081  1.1311
37718SOL    HW117610   8.723   8.369   2.726  0.6061  1.5831 -0.3613
37718SOL    HW217611   8.792   8.291   2.616  0.9473 -0.0909  0.9946
37719SOL     OW17612   8.949   7.876   7.792 -0.3324 -0.5812 -0.5756
37719SOL    HW117613   8.862   7.847   7.819  0.2513 -0.1646  1.9889
37719SOL    HW217614   8.943   7.971   7.790 -0.2796 -0.5860 -1.7819
37720SOL     OW17615   9.243  10.098   5.869  0.2733  0.1764 -0.3452
37720SOL    HW117616   9.220  10.019   5.821 -0.5513  0.9217 -1.2110
37720SOL    HW217617   9.337  10.109   5.853  0.7136 -1.3324  0.8929
37721SOL     OW17618   3.198   3.178   2.736 -0.4352 -0.3516  0.9488
37721SOL    HW117619   3.223   3.252   2.791  3.0147 -0.2566 -0.5121
37721SOL    HW217620   3.212   3.209   2.647 -1.5773 -1.9422  0.1670
37722SOL     OW17621   8.180   2.387   0.467  0.2574  0.0173  0.0903
37722SOL    HW117622   8.127   2.308   0.464  1.7156 -0.9814 -1.1595
37722SOL    HW217623   8.267   2.358   0.438  0.6065  2.2429 -1.2968
37723SOL     OW17624   5.884   7.032  10.047  0.0099 -0.7693 -0.1310
37723SOL    HW117625   5.962   6.999  10.093 -0.2496 -0.1131  0.8181
37723SOL    HW217626   5.905   7.124  10.028 -1.0248 -0.1642  1.3795
37724SOL     OW17627   1.757   8.775   5.275 -0.0033 -0.2367 -0.4088
37724SOL    HW117628   1.811   8.725   5.214  0.1004 -0.9352  0.2361
37724SOL    HW217629   1.673   8.786   5.229 -0.8802 -3.0728  0.2901
37725SOL     OW17630   7.202   5.723   3.738 -0.3519  0.5666 -0.1836
37725SOL    HW117631   7.159   5.639   3.716  0.3605 -0.1887  1.1993
37725SOL    HW217632   7.230   5.758   3.653  0.9759 -1.5078 -0.6731
37726SOL     OW17633   7.121   3.996   3.925 -0.3383  0.6487 -0.0261
37726SOL    HW117634   7.127   3.972   4.018  1.0265  0.5031 -0.1197
37726SOL    HW217635   7.074   3.923   3.884 -0.6547  0.5542  0.5076
37727SOL     OW17636   4.646   6.021   5.421 -0.3145 -0.2072  0.0489
37727SOL    HW117637   4.680   6.039   5.333 -0.3824  0.9806  0.2475
37727SOL    HW217638   4.620   5.929   5.419  0.6099 -0.4642 -0.8683
37728SOL     OW17639   8.062   3.093   0.508 -0.1784 -0.2353  0.1245
37728SOL    HW117640   8.014   3.124   0.585 -0.6313  0.3768 -0.3943
37728SOL    HW217641   8.119   3.023   0.542 -0.0312  0.3363  1.0897
37729SOL     OW17642   3.118   7.132   5.746 -0.5647 -0.0940  0.5768
37729SOL    HW117643   3.095   7.151   5.655 -0.5976  1.7193  0.9233
37729SOL    HW217644   3.139   7.039   5.746 -1.9264 -0.4488 -0.9885
37730SOL     OW17645  10.098   0.923   3.533 -0.0988  0.2008 -0.4581
37730SOL    HW117646  10.023   0.923   3.592  0.7206 -1.7699  0.6891
37730SOL    HW217647  10.099   0.834   3.496  0.8496  0.6392 -1.5546
37731SOL     OW17648   4.678  10.894   7.359 -0.1375 -1.0273 -0.2834
37731SOL    HW117649   4.650  10.864   7.273  0.3398 -0.6900 -0.5636
37731SOL    HW217650   4.756  10.948   7.341 -0.3251 -0.5514  0.3075
37732SOL     OW17651   9.450   1.226  10.357  0.0812  0.7266  0.0599
37732SOL    HW117652   9.442   1.196  10.267 -0.4935 -2.8083  1.1223
37732SOL    HW217653   9.544   1.239  10.370  0.3299 -0.2950 -0.6430
37733SOL     OW17654   9.758   9.833   7.604 -0.0066  0.0062 -0.0761
37733SOL    HW117655   9.843   9.801   7.634 -0.9391 -3.4964 -0.6626
37733SOL    HW217656   9.775   9.866   7.515  0.6852 -1.1620 -0.3997
37734SOL     OW17657   1.818   8.479   5.629 -0.3469  0.2071 -0.3230
37734SOL    HW117658   1.903   8.516   5.606  0.6357  0.7381  3.4828
37734SOL    HW217659   1.756   8.551   5.618 -0.4810 -0.2295 -3.2856
37735SOL     OW17660   0.270   5.093   3.008  0.5053 -1.0683  0.0631
37735SOL    HW117661   0.247   5.120   3.097  1.4318 -0.3109  0.0935
37735SOL    HW217662   0.263   5.174   2.957 -0.7614 -1.6511 -0.7218
37736SOL     OW17663  10.517   5.729   9.846  0.2649 -0.5050 -0.2892
37736SOL    HW117664  10.598   5.755   9.890 -0.7636 -0.1839  1.5217
37736SOL    HW217665  10.464   5.690   9.916 -0.9963 -1.0519 -1.5184
37737SOL     OW17666  10.402   1.550   0.517 -0.4828 -0.0193  0.3877
37737SOL    HW117667  10.482   1.523   0.471 -0.7919 -0.3531  0.0338
37737SOL    HW217668  10.430   1.617   0.578 -0.4021  2.1003 -1.8539
37738SOL     OW17669   1.759   5.528   9.905 -0.0384 -0.1883 -0.5424
37738SOL    HW117670   1.808   5.456   9.863  0.6652 -0.9542  1.4768
37738SOL    HW217671   1.825   5.574   9.957 -0.8802  0.7248 -0.2646
37739SOL     OW17672   7.814   9.170   6.686  0.0034 -0.1579 -0.0202
37739SOL    HW117673   7.873   9.099   6.711  1.1049  1.0355  0.8844
37739SOL    HW217674   7.792   9.152   6.594 -0.8952 -2.4211  0.5676
37740SOL     OW17675   0.896   2.758   6.845 -0.6131 -0.2969  0.2900
37740SOL    HW117676   0.898   2.675   6.892  0.0694 -0.0023  0.7926
37740SOL    HW217677   0.958   2.747   6.773  0.3097  0.1481  1.0045
37741SOL     OW17678  10.273   4.094   9.520  0.6444 -0.3069  0.6562
37741SOL    HW117679  10.203   4.155   9.544  0.8053  0.4983 -0.8078
37741SOL    HW217680  10.258   4.018   9.575  0.0912  0.8146  2.1380
37742SOL     OW17681   5.106   2.562   8.168 -0.2006  0.0644  0.0457
37742SOL    HW117682   5.193   2.543   8.203  0.2724 -0.4106 -1.3475
37742SOL    HW217683   5.069   2.477   8.147 -0.0849  0.3673 -1.4893
37743SOL     OW17684  10.456   7.877   3.799  0.3870 -0.1666  0.6118
37743SOL    HW117685  10.432   7.894   3.890 -0.3676 -1.6756  0.7340
37743SOL    HW217686  10.380   7.903   3.748  0.2193 -0.7209  0.5678
37744SOL     OW17687   9.313   6.648   9.908  0.4928 -0.2273 -0.4681
37744SOL    HW117688   9.296   6.731   9.862  0.0741  0.2635  0.5346
37744SOL    HW217689   9.306   6.581   9.840 -0.2431  0.4650 -1.0997
37745SOL     OW17690   6.195   5.952   0.368  0.0630 -0.0004  0.4966
37745SOL    HW117691   6.265   5.905   0.415  0.7950 -0.1954 -0.7404
37745SOL    HW217692   6.137   5.883   0.336  1.3704 -0.1710 -1.6914
37746SOL     OW17693   3.782   6.214   4.075  0.4732 -0.6516 -0.7377
37746SOL    HW117694   3.786   6.260   3.991  1.5045 -0.5435 -0.6344
37746SOL    HW217695   3.818   6.127   4.057  0.5324 -0.6900 -0.4428
37747SOL     OW17696  11.045   2.842   3.184  0.4585 -0.1729 -0.7748
37747SOL    HW117697  10.973   2.790   3.148  0.0338  0.6596 -1.1676
37747SOL    HW217698  11.002   2.912   3.233  1.0284 -0.7361  0.5832
37748SOL     OW17699   8.956   2.318   2.055 -0.3312 -0.2090  0.4021
37748SOL    HW117700   9.046   2.311   2.087  0.6137  1.5252 -1.6028
37748SOL    HW217701   8.965   2.348   1.965 -2.9528  1.3112  0.5389
37749SOL     OW17702   2.996   2.258   3.850 -0.5338 -0.1366 -0.0249
37749SOL    HW117703   3.024   2.275   3.940 -1.3848  1.6133 -0.0549
37749SOL    HW217704   2.948   2.175   3.855 -0.1202 -0.3254  1.0234
37750SOL     OW17705  10.012  10.213   0.515  0.2005 -0.2302 -0.0794
37750SOL    HW117706  10.059  10.148   0.462 -0.1136 -0.5094 -0.0259
37750SOL    HW217707   9.966  10.160   0.581  0.8324  0.1341  0.6700
37751SOL     OW17708   6.646   9.522   3.348 -0.0315  0.2724  0.4309
37751SOL    HW117709   6.660   9.565   3.433  0.6628 -1.1945  1.1071
37751SOL    HW217710   6.735   9.508   3.314  0.0556 -3.2471  1.6639
37752SOL     OW17711   9.088  10.274   4.932 -0.0801 -0.4333 -0.1852
37752SOL    HW117712   9.137  10.338   4.983 -1.0600  0.3127 -0.1371
37752SOL    HW217713   9.120  10.284   4.843  1.2216 -1.3233  0.1674
37753SOL     OW17714   9.027   3.723   8.305  0.1544  0.1411 -0.3252
37753SOL    HW117715   8.968   3.774   8.250 -0.3879  0.0121  0.1199
37753SOL    HW217716   9.099   3.783   8.325 -0.2666  0.6046 -0.1530
37754SOL     OW17717   7.717  10.239   7.867 -0.1968  0.2235  0.2011
37754SOL    HW117718   7.683  10.162   7.913 -0.2793  0.1878  0.0784
37754SOL    HW217719   7.801  10.211   7.832 -0.5023  0.0065 -0.3623
37755SOL     OW17720   9.972   5.289   6.115  0.3439 -0.1517 -0.2099
37755SOL    HW117721   9.997   5.281   6.207  0.3154 -0.3801 -0.2209
37755SOL    HW217722   9.881   5.319   6.117  0.7569  1.1208 -0.1713
37756SOL     OW17723   4.980   5.762   1.804  0.0207 -0.1866  0.8367
37756SOL    HW117724   4.971   5.677   1.761  1.3107 -0.2025  0.5350
37756SOL    HW217725   4.941   5.750   1.890  1.4099 -1.5345  1.3276
37757SOL     OW17726   0.683   7.397   3.342  0.5468 -0.0952 -0.2192
37757SOL    HW117727   0.600   7.364   3.378  1.6209 -1.2910  1.3120
37757SOL    HW217728   0.716   7.458   3.409  2.2589 -1.8418  0.6295
37758SOL     OW17729   3.966   8.107   4.841 -0.1732 -0.2397  0.0700
37758SOL    HW117730   3.888   8.095   4.896 -0.4751 -0.5411 -0.4151
37758SOL    HW217731   4.035   8.131   4.903 -0.8654  0.9648  0.3952
37759SOL     OW17732   2.000   5.687   1.983  0.2479  0.0780  0.1149
37759SOL    HW117733   1.951   5.684   2.064  0.8769 -2.3226  0.4860
37759SOL    HW217734   1.934   5.696   1.914 -0.3585  1.0901  0.8178
37760SOL     OW17735   6.846  10.553   9.687 -0.1845 -0.1598  0.4226
37760SOL    HW117736   6.921  10.579   9.633 -1.7350  0.0602 -1.7781
37760SOL    HW217737   6.861  10.461   9.706  0.3769 -0.2856 -0.5254
37761SOL     OW17738  10.596   0.811   3.135 -0.2931 -0.3887  0.3832
37761SOL    HW117739  10.629   0.878   3.194  0.3015 -1.5706  1.4298
37761SOL    HW217740  10.506   0.795   3.163 -0.5378  0.1609 -0.0620
37762SOL     OW17741   3.808  11.040   6.944 -0.5202  0.4300  0.2802
37762SOL    HW117742   3.802  11.123   6.898 -0.7833  0.8904  1.1423
37762SOL    HW217743   3.886  11.048   6.998  3.1952 -2.0925 -3.9562
37763SOL     OW17744   0.752   2.359   1.182  0.3939 -0.9136  0.4260
37763SOL    HW117745   0.724   2.297   1.249 -1.0449 -0.6069  0.1246
37763SOL    HW217746   0.842   2.331   1.161 -0.3974 -3.2815 -0.1280
37764SOL     OW17747   9.398   1.548   2.980 -0.6887 -0.1025 -0.1597
37764SOL    HW117748   9.419   1.616   3.045 -0.6227  0.1645 -0.4596
37764SOL    HW217749   9.303   1.542   2.982 -0.6848 -0.1169 -0.0136
37765SOL     OW17750   6.394   7.297   9.669  0.1398 -0.0087  0.4710
37765SOL    HW117751   6.435   7.349   9.600 -0.5398  1.2728  1.0018
37765SOL    HW217752   6.330   7.242   9.624 -2.0270  2.5057  0.2235
37766SOL     OW17753   1.214   2.743   7.105  0.2094  0.2823 -0.2691
37766SOL    HW117754   1.233   2.708   7.018 -0.9727  0.4485 -0.6036
37766SOL    HW217755   1.137   2.798   7.093 -0.3541 -0.1889  0.9910
37767SOL     OW17756   5.448  11.029  10.511  0.1792 -0.3761  0.3069
37767SOL    HW117757   5.355  11.052  10.518 -0.1940 -1.6942 -0.0173
37767SOL    HW217758   5.483  11.093  10.448 -0.4297  0.3122  0.6439
37768SOL     OW17759  10.214   8.759   5.353 -0.2425  0.3067 -0.1910
37768SOL    HW117760  10.279   8.790   5.290 -0.3058  0.0855 -0.3683
37768SOL    HW217761  10.266   8.728   5.427 -0.2122  1.7502  0.4281
37769SOL     OW17762   3.642   0.657   2.335  0.4024  0.3925 -0.6267
37769SOL    HW117763   3.577   0.710   2.382  1.5696 -0.2644  1.9294
37769SOL    HW217764   3.705   0.720   2.302  1.1205  0.7762  1.3172
37770SOL     OW17765   1.150   5.118   1.385 -0.2371 -0.5695 -0.0310
37770SOL    HW117766   1.090   5.151   1.451 -1.9582  0.3094 -1.9064
37770SOL    HW217767   1.165   5.027   1.409 -1.1119 -0.3813  1.3347
37771SOL     OW17768   9.067   4.224  10.757 -0.1894  0.1978  0.2812
37771SOL    HW117769   8.993   4.168  10.733  0.3917  0.1879 -1.6440
37771SOL    HW217770   9.065   4.227  10.853 -1.4434 -1.4623  0.3509
37772SOL     OW17771   2.916   9.696   2.954 -0.7570 -0.0572  0.3029
37772SOL    HW117772   2.821   9.710   2.956 -0.7023  0.3174  0.4870
37772SOL    HW217773   2.947   9.754   2.884 -0.6761 -0.2514  0.1790
37773SOL     OW17774   7.643  10.749   5.628 -0.1374  0.0238  0.7993
37773SOL    HW117775   7.633  10.661   5.592 -0.2342 -0.2852  1.5645
37773SOL    HW217776   7.726  10.780   5.593  0.9745 -1.2054  2.1989
37774SOL     OW17777   1.958   5.362   9.701  0.0421 -0.6811  0.4551
37774SOL    HW117778   1.906   5.391   9.626 -0.1428  0.0063  0.8409
37774SOL    HW217779   2.019   5.434   9.717  2.0025 -1.9673 -0.7737
37775SOL     OW17780   3.015   5.991   4.604  0.3309  0.0273  0.3056
37775SOL    HW117781   3.049   6.049   4.671  0.5710 -1.9778  2.0354
37775SOL    HW217782   2.940   6.038   4.567  1.0329  1.7621  1.0016
37776SOL     OW17783   1.790   9.479   7.985  0.3895  0.1562  0.0660
37776SOL    HW117784   1.728   9.551   7.974 -0.1794 -0.2250  0.7541
37776SOL    HW217785   1.874   9.522   7.998  0.6266  0.6886 -2.5502
37777SOL     OW17786  10.697   1.715   3.949 -0.1861 -0.5843 -0.0680
37777SOL    HW117787  10.710   1.674   4.034  0.4143 -1.3350 -0.5046
37777SOL    HW217788  10.784   1.744   3.922 -0.1002 -1.6616 -1.0495
37778SOL     OW17789   9.665   3.766   1.423  0.2910  0.5445 -0.5748
37778SOL    HW117790   9.654   3.690   1.366 -0.4473  1.0822 -1.1713
37778SOL    HW217791   9.717   3.734   1.496 -0.5338 -0.6931 -0.5082
37779SOL     OW17792   6.995  10.085   7.190  0.2360 -0.0758  0.6233
37779SOL    HW117793   6.958   9.998   7.196  1.4898 -0.5604  2.0153
37779SOL    HW217794   6.931  10.136   7.140  0.0241 -2.0502 -1.2304
37780SOL     OW17795   4.791   6.601   7.321 -0.0844 -0.4140 -0.0394
37780SOL    HW117796   4.847   6.588   7.399 -1.3522 -0.1346  0.9510
37780SOL    HW217797   4.749   6.516   7.307  0.5576 -0.6212 -0.7801
37781SOL     OW17798   3.404   1.856   6.025  0.5587  0.0405  0.4468
37781SOL    HW117799   3.362   1.832   5.942  1.1587  0.6296 -0.0345
37781SOL    HW217800   3.383   1.948   6.037 -0.3152 -0.2732  1.4394
37782SOL     OW17801   7.017   3.387   7.657 -0.3549 -0.1640  0.0118
37782SOL    HW117802   6.962   3.452   7.700  0.4440  0.7993 -0.3662
37782SOL    HW217803   6.996   3.397   7.564 -3.8246 -3.8234  0.1197
37783SOL     OW17804   1.120   4.349   9.328 -0.3985 -0.5528  0.0921
37783SOL    HW117805   1.168   4.342   9.245 -0.0409 -0.9176  0.3268
37783SOL    HW217806   1.035   4.383   9.303 -0.7035 -1.7513 -0.5858
37784SOL     OW17807   4.593   1.481  10.053  0.3111  0.5516  0.5272
37784SOL    HW117808   4.631   1.393  10.050 -0.0857  0.3948  0.1039
37784SOL    HW217809   4.542   1.489   9.973 -1.4892  0.3364  1.5924
37785SOL     OW17810   1.304   9.191   7.096  0.6207 -0.1957  0.3274
37785SOL    HW117811   1.256   9.242   7.162  1.8959 -0.0645  1.1881
37785SOL    HW217812   1.236   9.160   7.036 -0.4652  0.4804  1.1648
37786SOL     OW17813   8.565  10.492   1.205 -0.0393  0.2025  0.2759
37786SOL    HW117814   8.490  10.457   1.253 -2.0027  1.1266 -1.8894
37786SOL    HW217815   8.628  10.420   1.204 -0.7075 -0.5022  2.4444
37787SOL     OW17816   5.664   3.608   0.435  0.0356  0.2459 -0.1009
37787SOL    HW117817   5.647   3.515   0.421 -1.2523  0.5807 -0.9362
37787SOL    HW217818   5.759   3.617   0.430  0.3167 -1.2415  1.4855
37788SOL     OW17819   8.837   4.784   7.720 -0.2730  0.0254 -0.0625
37788SOL    HW117820   8.844   4.829   7.635 -0.4903 -0.8387 -0.5445
37788SOL    HW217821   8.750   4.807   7.752 -0.5257 -0.3423 -0.4787
37789SOL     OW17822  10.189   7.734   4.124  0.3550 -0.4502 -0.0510
37789SOL    HW117823  10.210   7.645   4.096  0.1425 -0.3479 -0.5416
37789SOL    HW217824  10.256   7.789   4.084 -0.0094 -0.2918 -0.4587
37790SOL     OW17825   0.381   7.022   0.930  0.0415 -0.0064  0.0572
37790SOL    HW117826   0.411   7.021   0.839  3.1876 -0.7416  0.9495
37790SOL    HW217827   0.368   7.115   0.950  0.0601  0.2242 -0.9481
37791SOL     OW17828   5.754   8.056   0.657 -0.4789 -0.1515  0.5157
37791SOL    HW117829   5.664   8.049   0.627 -0.4832 -0.4918  0.6119
37791SOL    HW217830   5.750   8.046   0.752 -0.3607  0.0246  0.5408
37792SOL     OW17831   1.325   5.841   9.579 -0.6014  0.5737  0.2705
37792SOL    HW117832   1.360   5.871   9.663  2.7618  0.3666 -0.9283
37792SOL    HW217833   1.273   5.916   9.547  0.0701  1.5779  1.4521
37793SOL     OW17834   7.824   3.848   3.470  0.1047  0.1010  0.2236
37793SOL    HW117835   7.795   3.771   3.519  1.8605 -0.2870  0.7097
37793SOL    HW217836   7.761   3.855   3.398 -0.3527 -1.5369  0.4196
37794SOL     OW17837   8.526   6.581  11.000 -0.1807 -0.0937 -0.3135
37794SOL    HW117838   8.605   6.585  10.946 -0.4633 -0.3606 -0.7579
37794SOL    HW217839   8.542   6.509  11.061 -0.1034 -0.1829 -0.4383
37795SOL     OW17840   1.993   4.180   2.823  0.6871  0.3549  0.2818
37795SOL    HW117841   1.902   4.210   2.818  0.8049  0.6029 -0.5542
37795SOL    HW217842   2.045   4.260   2.814  0.9970  0.3200  1.5590
37796SOL     OW17843   3.973   0.818   9.111  0.6007  0.1934 -0.2754
37796SOL    HW117844   3.893   0.852   9.071  0.4533  0.4121  0.1983
37796SOL    HW217845   3.967   0.723   9.099 -0.8387 -0.0339  1.6993
37797SOL     OW17846   4.880   5.131   7.414 -0.0609 -0.1799  0.1736
37797SOL    HW117847   4.862   5.110   7.322 -0.4385 -0.2957  0.2751
37797SOL    HW217848   4.965   5.175   7.412  0.9609 -2.0472 -0.0233
37798SOL     OW17849   3.390   0.112   6.912 -0.6836  0.6359 -0.4654
37798SOL    HW117850   3.445   0.142   6.839 -1.0107  2.5093  0.0212
37798SOL    HW217851   3.301   0.127   6.881 -0.8404  4.1264  1.2843
37799SOL     OW17852  10.507   8.202   1.851 -0.3722  0.4093  0.4343
37799SOL    HW117853  10.562   8.223   1.927  0.8671  0.9425 -0.5841
37799SOL    HW217854  10.486   8.287   1.813  0.2725  0.0835 -0.6804
37800SOL     OW17855  10.788   8.314   0.342  0.2572 -0.0964 -0.3290
37800SOL    HW117856  10.884   8.306   0.344  0.3316  0.8836  0.4024
37800SOL    HW217857  10.757   8.224   0.356  1.0601 -0.4699 -0.8404
37801SOL     OW17858   5.920   9.969   3.233 -0.8343 -0.3328  0.3011
37801SOL    HW117859   5.928  10.045   3.290  0.0452 -1.1373  1.2791
37801SOL    HW217860   5.850   9.917   3.272  0.6202 -1.5063  1.4090
37802SOL     OW17861   8.673   0.098  10.873  0.0246 -0.3651 -0.2763
37802SOL    HW117862   8.651   0.040  10.800  1.3907 -0.6481 -0.4982
37802SOL    HW217863   8.633   0.056  10.949 -1.0669 -0.2876 -0.8016
37803SOL     OW17864   5.778   5.706   6.621  0.0907  0.1335  0.0627
37803SOL    HW117865   5.824   5.789   6.621  2.5436 -1.1076  1.1562
37803SOL    HW217866   5.784   5.676   6.712 -0.4682 -1.3416 -0.3641
37804SOL     OW17867   3.092   4.455   8.320 -0.2428 -0.2411  0.4822
37804SOL    HW117868   3.021   4.391   8.309  1.7319 -2.2350 -1.5364
37804SOL    HW217869   3.117   4.479   8.231  2.5429 -0.7035  1.0709
37805SOL     OW17870   0.859   4.156   7.673 -0.0634  0.1752  0.1912
37805SOL    HW117871   0.909   4.232   7.703  0.7910  0.0843 -0.9538
37805SOL    HW217872   0.769   4.176   7.697 -0.0157  2.0758 -1.0726
37806SOL     OW17873   1.482   3.182  10.914  0.2221 -0.1984  0.1663
37806SOL    HW117874   1.456   3.230  10.836  0.0830 -0.0294  0.3136
37806SOL    HW217875   1.400   3.150  10.951  0.3599 -1.0594 -0.2488
37807SOL     OW17876   7.204   5.763  10.348 -0.4293  0.4613  0.4886
37807SOL    HW117877   7.269   5.832  10.332  0.1517 -0.6268 -2.5676
37807SOL    HW217878   7.256   5.688  10.377 -0.3124 -0.1813 -1.2357
37808SOL     OW17879   5.419   3.896   1.584 -0.0362  0.0133  0.1420
37808SOL    HW117880   5.330   3.864   1.598 -0.7009  0.6913 -2.1009
37808SOL    HW217881   5.454   3.838   1.516  2.2487 -1.8785  2.6781
37809SOL     OW17882   7.294   8.655   0.606  0.5855  0.9908 -0.2712
37809SOL    HW117883   7.368   8.650   0.667  1.6881  1.6530 -1.4950
37809SOL    HW217884   7.217   8.646   0.661  1.4859 -4.0698  0.6951
37810SOL     OW17885   6.912  10.309   8.629  0.0466  0.0269  0.6967
37810SOL    HW117886   6.989  10.317   8.573  0.9161  2.4455  2.1091
37810SOL    HW217887   6.867  10.393   8.621 -1.2978 -0.5802  1.5281
37811SOL     OW17888   2.470   2.971   9.463 -0.3111 -0.0354 -0.2745
37811SOL    HW117889   2.515   3.040   9.414  0.3381 -1.2387 -1.4546
37811SOL    HW217890   2.407   3.017   9.517 -1.3173  1.3976 -2.5228
37812SOL     OW17891   1.330  11.061   9.204  0.0333  0.1668 -0.0623
37812SOL    HW117892   1.379  11.037   9.283 -1.9277  0.1857  1.2283
37812SOL    HW217893   1.246  11.093   9.237 -2.9106 -4.2999 -2.1563
37813SOL     OW17894   3.780   4.541   9.959  0.1282  0.3276 -0.1641
37813SOL    HW117895   3.696   4.587   9.950 -1.3509 -2.2478 -0.3242
37813SOL    HW217896   3.770   4.462   9.907  2.5516 -0.2671  0.1599
37814SOL     OW17897   6.646   4.394  10.218  0.5554  0.0310 -0.3965
37814SOL    HW117898   6.661   4.321  10.157  0.3748  1.2652 -1.9873
37814SOL    HW217899   6.687   4.469  10.175  0.3324  0.9735  0.9911
37815SOL     OW17900   6.166   4.665   5.210  0.0186  0.3602  0.3452
37815SOL    HW117901   6.190   4.756   5.230  0.3018  0.8439 -1.9043
37815SOL    HW217902   6.215   4.613   5.273  0.6427  1.7300  1.0319
37816SOL     OW17903   7.910   0.107   7.961  0.3899  0.2544 -0.7407
37816SOL    HW117904   7.987   0.101   7.905  0.6456  0.9273 -0.4656
37816SOL    HW217905   7.896   0.017   7.991  0.7087  0.0248 -1.2640
37817SOL     OW17906   1.854   7.982   3.431  0.2749  0.0890 -0.4580
37817SOL    HW117907   1.921   8.050   3.441  0.1113  0.2057 -0.1166
37817SOL    HW217908   1.885   7.929   3.358 -0.2772  1.3215 -1.6389
37818SOL     OW17909   0.666   9.440   8.713 -0.1295 -0.0295 -0.7611
37818SOL    HW117910   0.722   9.509   8.677  0.0850 -0.9763 -2.3354
37818SOL    HW217911   0.605   9.487   8.770  0.1336  1.4507 -1.6359
37819SOL     OW17912   2.551   1.101   0.234 -0.3799  0.2453  0.4852
37819SOL    HW117913   2.540   1.135   0.323  1.1537  0.3119  0.6647
37819SOL    HW217914   2.468   1.057   0.215 -1.8347  2.6408  0.8699
37820SOL     OW17915   4.098   2.336   5.703  0.3283  0.4185  0.2655
37820SOL    HW117916   4.175   2.280   5.705 -0.4306 -0.6728 -0.1149
37820SOL    HW217917   4.061   2.324   5.615 -0.3829  0.7678  0.5074
37821SOL     OW17918   3.167   3.869  10.833  0.7357  0.9490 -0.2416
37821SOL    HW117919   3.210   3.784  10.821  0.7863  0.8081  0.8872
37821SOL    HW217920   3.078   3.855  10.801  0.3317  0.0616  1.1816
37822SOL     OW17921   8.765   6.158   9.843  0.4343 -0.2635 -0.6179
37822SOL    HW117922   8.733   6.235   9.891 -0.2359  0.1603 -1.6838
37822SOL    HW217923   8.843   6.189   9.797  0.2204 -0.2382 -0.9695
37823SOL     OW17924  10.995   6.362   5.740 -0.1375  0.1606  0.2467
37823SOL    HW117925  11.069   6.348   5.798  0.8205  0.0940 -0.9472
37823SOL    HW217926  10.947   6.280   5.742  0.9240 -0.5029 -0.4585
37824SOL     OW17927   3.768   9.311   3.588  0.9813 -0.3452 -0.0286
37824SOL    HW117928   3.673   9.317   3.599  0.5788  2.0573 -3.2964
37824SOL    HW217929   3.801   9.395   3.621  1.7782 -0.5407 -0.3103
37825SOL     OW17930   3.037   9.280   7.220  0.0933 -0.7272  0.6962
37825SOL    HW117931   3.046   9.353   7.282 -2.2580 -1.6031  2.1703
37825SOL    HW217932   2.989   9.317   7.146  1.8134 -0.0066 -0.1326
37826SOL     OW17933   5.634   2.721   3.868 -0.4147 -0.3777  0.2985
37826SOL    HW117934   5.679   2.715   3.783 -0.3167 -0.2762  0.3418
37826SOL    HW217935   5.547   2.753   3.847 -0.7088 -1.2439  0.1378
37827SOL     OW17936   9.671   1.770  10.383 -0.1588  0.4463 -0.0087
37827SOL    HW117937   9.626   1.835  10.438 -0.4474 -0.1891  0.5250
37827SOL    HW217938   9.649   1.686  10.424 -0.3610 -0.0389 -1.0863
37828SOL     OW17939   4.193   9.674   6.288 -0.3393  0.1120  0.2096
37828SOL    HW117940   4.125   9.624   6.244 -0.5658  1.3769 -0.9379
37828SOL    HW217941   4.152   9.706   6.369 -1.0476  0.6616 -0.3562
37829SOL     OW17942   1.390   3.715   9.574  0.1343 -0.0000 -0.0766
37829SOL    HW117943   1.384   3.661   9.653 -0.6616 -1.6653 -1.2192
37829SOL    HW217944   1.305   3.758   9.567 -0.1281 -0.5773 -0.5051
37830SOL     OW17945   8.334   3.581  10.864  0.2000  0.2981 -0.6094
37830SOL    HW117946   8.328   3.522  10.788  0.1312  0.3723 -0.6614
37830SOL    HW217947   8.418   3.625  10.854  0.5973 -0.3496 -0.1619
37831SOL     OW17948   0.865   0.908   0.949 -0.6883 -0.3670 -0.2372
37831SOL    HW117949   0.799   0.937   0.886  0.6150  1.3284 -0.8835
37831SOL    HW217950   0.936   0.873   0.894  0.2192  0.6098  0.2797
37832SOL     OW17951   8.469   1.619   8.505 -0.6660  0.0906  0.2431
37832SOL    HW117952   8.521   1.540   8.511  0.8292  0.5856 -3.3881
37832SOL    HW217953   8.398   1.597   8.445 -2.0836  0.7079  1.6130
37833SOL     OW17954   6.185   1.843   4.447  0.0363  0.5360 -0.4225
37833SOL    HW117955   6.250   1.773   4.450  2.1700  2.4136  0.7246
37833SOL    HW217956   6.166   1.855   4.354 -0.2653 -1.3892 -0.6559
37834SOL     OW17957   7.542   6.733   0.465  0.4220 -1.0775  0.1909
37834SOL    HW117958   7.519   6.675   0.538 -3.0198 -0.2509 -0.0667
37834SOL    HW217959   7.537   6.821   0.501  0.1563 -0.7223 -0.6898
37835SOL     OW17960   4.997   2.758   6.251  0.8188 -0.2926 -0.2987
37835SOL    HW117961   5.059   2.700   6.208  0.0888  0.1249 -2.0116
37835SOL    HW217962   4.953   2.704   6.315  0.9188 -1.3560 -1.1051
37836SOL     OW17963   3.678   2.072   9.122  0.3192  0.5344  0.2538
37836SOL    HW117964   3.695   2.145   9.062 -0.7792  0.8491  0.3032
37836SOL    HW217965   3.765   2.039   9.145  0.8599  2.1027  0.5844
37837SOL     OW17966   4.921   3.617   0.177  0.5257  0.5808  0.2961
37837SOL    HW117967   4.977   3.686   0.212 -0.2493  1.2193  0.2905
37837SOL    HW217968   4.855   3.602   0.245  1.5986 -1.2905  1.0121
37838SOL     OW17969  10.406   4.898   9.159 -0.9243 -0.1032 -0.7153
37838SOL    HW117970  10.449   4.900   9.074 -0.4233  1.8312 -0.4596
37838SOL    HW217971  10.319   4.935   9.143 -0.6029  0.8720 -0.3057
37839SOL     OW17972   5.587   6.423   3.859 -0.1755 -0.4967  0.4124
37839SOL    HW117973   5.600   6.472   3.940  3.3420 -0.4303 -0.0337
37839SOL    HW217974   5.671   6.379   3.844 -1.1707 -1.6399 -2.4636
37840SOL     OW17975   2.260   2.868   0.001  0.1541 -0.3266 -0.2802
37840SOL    HW117976   2.257   2.953   0.044 -1.0603 -0.3381 -0.3137
37840SOL    HW217977   2.173   2.856  -0.035 -0.0096 -2.0134  0.5643
37841SOL     OW17978   8.716   0.174   0.447 -0.0550 -0.4734 -0.2177
37841SOL    HW117979   8.780   0.224   0.497 -1.2855 -0.3092  1.2628
37841SOL    HW217980   8.749   0.176   0.357 -0.0373  3.0584 -0.2763
37842SOL     OW17981  10.574   7.780   8.114  0.2802 -0.6774  0.2572
37842SOL    HW117982  10.666   7.805   8.129 -0.7718  2.4049  2.9625
37842SOL    HW217983  10.558   7.804   8.023  1.3989  2.0087  0.6532
37843SOL     OW17984   1.570  10.063   7.308  0.3780  0.6108  0.0756
37843SOL    HW117985   1.607   9.982   7.273 -1.0219 -0.0720  0.1068
37843SOL    HW217986   1.524  10.103   7.233 -0.0608  0.6913  0.3843
37844SOL     OW17987   2.953   8.240   6.487  0.8390  0.1559 -0.2975
37844SOL    HW117988   2.923   8.302   6.554 -1.8253  0.2269 -1.4398
37844SOL    HW217989   2.961   8.157   6.534 -1.1577  0.1670  0.1522
37845SOL     OW17990   8.718   6.407   8.544 -0.2775 -0.0032 -0.3522
37845SOL    HW117991   8.802   6.366   8.568  0.4915  0.2818 -2.3619
37845SOL    HW217992   8.741   6.498   8.523 -1.4500  0.6405  0.9580
37846SOL     OW17993   4.955   8.839   3.743 -0.0743 -0.6685  0.1851
37846SOL    HW117994   4.913   8.911   3.790  0.9493  0.0664 -0.0068
37846SOL    HW217995   4.936   8.857   3.651 -1.7604 -1.9050  0.2419
37847SOL     OW17996   4.598  10.725   5.943 -0.0201 -0.5901 -0.0696
37847SOL    HW117997   4.586  10.814   5.911 -2.1366 -0.2746  1.4026
37847SOL    HW217998   4.628  10.675   5.867  1.0433  1.3032 -0.9598
37848SOL     OW17999   4.321   4.566   1.161 -0.4832 -0.5978  0.3058
37848SOL    HW118000   4.305   4.476   1.190 -1.5365 -0.1100  1.3177
37848SOL    HW218001   4.254   4.583   1.095  0.1407 -0.7777 -0.3746
37849SOL     OW18002   9.452   5.109   1.654 -0.0810  0.7427  0.5019
37849SOL    HW118003   9.460   5.073   1.742 -0.2862  0.9587  0.6109
37849SOL    HW218004   9.408   5.193   1.667  0.5966  1.1342  0.2690
37850SOL     OW18005   9.226   9.526   7.664  0.0398 -0.1068  0.5115
37850SOL    HW118006   9.151   9.578   7.691 -0.1359 -0.7641  1.3416
37850SOL    HW218007   9.255   9.565   7.581 -1.5006 -0.1326 -0.0696
37851SOL     OW18008   3.574   4.947   7.437  0.0146 -0.0573  0.0500
37851SOL    HW118009   3.585   5.042   7.428  1.5544 -0.2107  0.0230
37851SOL    HW218010   3.592   4.929   7.529 -2.8919 -0.0538  0.7175
37852SOL     OW18011   3.057   9.202   5.318 -0.5134  0.3303  0.0606
37852SOL    HW118012   3.060   9.233   5.227 -0.2807  1.7549  0.5320
37852SOL    HW218013   3.008   9.120   5.314  0.8071 -0.4418 -1.5681
37853SOL     OW18014   1.378   0.966   4.472 -0.1759 -0.4291 -0.2596
37853SOL    HW118015   1.443   0.910   4.515 -1.7158 -1.5342  0.7275
37853SOL    HW218016   1.319   0.905   4.428 -0.0355  0.5934 -1.9605
37854SOL     OW18017   7.121   6.477   4.951  0.0985 -0.3335 -0.1132
37854SOL    HW118018   7.165   6.421   4.887 -0.0348  0.4248 -0.8840
37854SOL    HW218019   7.030   6.445   4.952  0.5129 -1.5848  1.1254
37855SOL     OW18020   2.987   8.167  10.614  0.6420 -0.5868 -0.3522
37855SOL    HW118021   3.078   8.145  10.593  0.0245 -0.4902 -3.6651
37855SOL    HW218022   2.985   8.262  10.615  0.4855 -0.5834 -0.8147
37856SOL     OW18023   3.871   1.796   8.020 -0.2728  0.8478 -0.2022
37856SOL    HW118024   3.777   1.789   8.008  0.0029  0.4041 -2.4701
37856SOL    HW218025   3.904   1.708   8.003  0.5238  0.8635  1.1300
37857SOL     OW18026   8.464   1.680   8.817  0.3774 -0.1486  0.1985
37857SOL    HW118027   8.477   1.717   8.729 -0.2756  1.4511  0.7423
37857SOL    HW218028   8.507   1.595   8.813  0.8899  0.1420 -1.4912
37858SOL     OW18029  10.317   6.211   0.720 -0.9995 -0.0821  0.7468
37858SOL    HW118030  10.411   6.190   0.716 -0.7842  0.8777  0.4437
37858SOL    HW218031  10.301   6.233   0.811 -0.5265  1.4154  0.5016
37859SOL     OW18032   5.812   6.299   7.405  0.3235 -0.0256  0.4304
37859SOL    HW118033   5.721   6.301   7.373 -0.1429 -0.4440  1.6975
37859SOL    HW218034   5.849   6.382   7.375 -0.1271 -0.3338 -1.0632
37860SOL     OW18035   4.694   7.662   6.454  0.0488  0.0651 -0.4081
37860SOL    HW118036   4.657   7.750   6.452  0.1215  0.0955 -0.4574
37860SOL    HW218037   4.642   7.615   6.519  0.0696  0.1713 -0.3138
37861SOL     OW18038   4.802   6.657   0.064  0.4567  0.0025 -0.5807
37861SOL    HW118039   4.836   6.746   0.071  1.1318 -0.2456 -0.5684
37861SOL    HW218040   4.874   6.602   0.094 -0.6670 -0.4622  1.4212
37862SOL     OW18041   5.658   3.377   1.976 -0.1980 -0.3153 -0.2610
37862SOL    HW118042   5.715   3.365   1.900  1.6016 -1.9652  1.2666
37862SOL    HW218043   5.667   3.470   1.998  1.5372 -0.4399 -0.3490
37863SOL     OW18044   5.429   3.485   7.727  0.2672  0.7453 -0.3040
37863SOL    HW118045   5.337   3.476   7.755  0.2974  0.7659 -0.1969
37863SOL    HW218046   5.427   3.470   7.633  0.2112  0.3200 -0.2403
37864SOL     OW18047   5.608   6.198   5.881  0.1231 -0.0071  0.0286
37864SOL    HW118048   5.659   6.118   5.869 -1.0309 -0.7455 -0.1572
37864SOL    HW218049   5.614   6.216   5.974 -0.4912 -0.9662  0.2814
37865SOL     OW18050   5.208   7.388   9.349  0.1874  0.3890 -0.4104
37865SOL    HW118051   5.283   7.372   9.407 -0.4440 -2.1793 -0.2013
37865SOL    HW218052   5.133   7.394   9.409 -0.3032 -1.0954 -0.8414
37866SOL     OW18053  10.833   4.578   4.313  0.1317 -0.2896 -0.0821
37866SOL    HW118054  10.834   4.671   4.339  0.6599 -0.3253  0.0503
37866SOL    HW218055  10.799   4.578   4.224 -0.4966 -0.0338  0.1513
37867SOL     OW18056   6.631   5.586   3.199  0.1288 -0.2994 -0.0192
37867SOL    HW118057   6.717   5.550   3.222 -0.0772 -0.8300 -0.0682
37867SOL    HW218058   6.649   5.643   3.123  0.8248  1.5309  1.4382
37868SOL     OW18059   6.408   4.165   9.879 -0.4400 -0.1385  0.3569
37868SOL    HW118060   6.353   4.223   9.932 -0.1465  1.4605 -1.0042
37868SOL    HW218061   6.374   4.174   9.790  0.9131 -0.4416 -0.2155
37869SOL     OW18062   6.344   6.170   7.869 -0.9668 -0.3916 -0.2841
37869SOL    HW118063   6.321   6.131   7.785 -0.3899 -0.6639 -0.3165
37869SOL    HW218064   6.261   6.176   7.916 -1.1337 -1.2017 -0.4712
37870SOL     OW18065   0.361   1.744   9.525 -0.0619 -0.1589 -0.6052
37870SOL    HW118066   0.330   1.654   9.534 -0.8090  0.0183 -1.2959
37870SOL    HW218067   0.324   1.790   9.600 -1.0120 -0.0830 -1.1023
37871SOL     OW18068   5.609   4.799   8.438  0.0652  0.0653 -0.2333
37871SOL    HW118069   5.587   4.710   8.410  1.2281 -0.2407 -0.2266
37871SOL    HW218070   5.671   4.830   8.372  1.7803 -0.1524  1.2061
37872SOL     OW18071   9.973   4.609   3.014 -0.1957  0.3408  0.4189
37872SOL    HW118072  10.059   4.644   2.991 -0.7580  0.8705 -1.0065
37872SOL    HW218073   9.914   4.683   3.002 -1.1112 -0.5124 -0.5631
37873SOL     OW18074   7.557  10.240   1.885  0.1313 -0.2674 -1.0111
37873SOL    HW118075   7.558  10.145   1.895 -1.4660 -0.1796  0.4502
37873SOL    HW218076   7.607  10.256   1.805 -1.3709 -2.4976 -2.5249
37874SOL     OW18077   2.764   6.525  10.142 -0.1401 -0.1484  0.2259
37874SOL    HW118078   2.765   6.441  10.188 -2.0487 -0.3155  0.0674
37874SOL    HW218079   2.763   6.591  10.211  1.5599 -0.2209  0.3508
37875SOL     OW18080   5.731   3.480   5.666  0.0453 -0.1931  0.0179
37875SOL    HW118081   5.655   3.477   5.608  0.6672 -2.6709 -0.8007
37875SOL    HW218082   5.695   3.505   5.751 -1.1176  2.0027 -1.0333
37876SOL     OW18083  10.993   7.808   2.797 -0.1347 -0.5769 -0.2531
37876SOL    HW118084  10.935   7.793   2.722 -1.2931 -0.0758  0.5149
37876SOL    HW218085  11.012   7.901   2.795  1.6731 -0.9193 -1.1915
37877SOL     OW18086   2.570   6.507   8.732 -0.2933 -0.5904  0.2029
37877SOL    HW118087   2.547   6.593   8.767 -1.5585 -1.4942  1.7407
37877SOL    HW218088   2.550   6.513   8.638  0.7039  1.1134  0.0650
37878SOL     OW18089   0.796   9.136  10.186 -0.0325 -0.0857  0.0936
37878SOL    HW118090   0.787   9.212  10.242  0.9080 -0.0569  0.2134
37878SOL    HW218091   0.725   9.145  10.122  0.1024  0.9288  0.0644
37879SOL     OW18092   6.789   2.702   3.073 -0.3978  0.4334 -0.7073
37879SOL    HW118093   6.718   2.641   3.051  0.4214 -0.3750 -1.1915
37879SOL    HW218094   6.813   2.742   2.989  1.2640 -1.0313 -0.9818
37880SOL     OW18095   7.295   9.048   6.254 -0.6526 -0.0638  0.0970
37880SOL    HW118096   7.303   9.011   6.166  1.2628 -0.0674  0.2339
37880SOL    HW218097   7.298   8.972   6.312  1.9730  0.1123  0.3104
37881SOL     OW18098   4.767   7.560  10.223  0.7367  0.1701 -0.7412
37881SOL    HW118099   4.780   7.646  10.264 -0.7579  0.2297 -0.3476
37881SOL    HW218100   4.697   7.574  10.159 -1.6235 -1.2944  1.3117
37882SOL     OW18101   3.143   7.779   2.160 -0.0628 -0.6692  0.7243
37882SOL    HW118102   3.212   7.809   2.101 -0.4678 -0.0730  0.5409
37882SOL    HW218103   3.107   7.860   2.197 -1.4441 -0.8827 -0.0795
37883SOL     OW18104   4.963   7.626   8.733 -0.0159 -0.4896  0.1871
37883SOL    HW118105   5.051   7.656   8.709  0.0908 -1.2926 -0.4916
37883SOL    HW218106   4.978   7.549   8.788 -0.2906 -0.4051  0.3832
37884SOL     OW18107   5.667   7.312   1.351 -0.1999 -0.6739  0.3523
37884SOL    HW118108   5.726   7.294   1.278 -1.1026  1.8964 -1.1674
37884SOL    HW218109   5.724   7.315   1.428  1.0464 -1.7968 -0.4935
37885SOL     OW18110  10.296   9.205  10.755 -0.4305 -0.1693  0.6845
37885SOL    HW118111  10.230   9.273  10.744 -0.5548 -0.1634  1.4094
37885SOL    HW218112  10.373   9.251  10.787 -0.0704 -0.1818 -0.1378
37886SOL     OW18113   1.089   3.249   3.998 -0.1146  0.0638 -0.2347
37886SOL    HW118114   1.140   3.311   3.945  0.6739 -0.1914  0.2226
37886SOL    HW218115   1.001   3.253   3.960  0.3247  0.2361 -1.2627
37887SOL     OW18116   2.232   5.388   4.368 -0.7066 -0.5088 -0.2704
37887SOL    HW118117   2.167   5.317   4.370 -2.3112  0.6954 -3.4201
37887SOL    HW218118   2.294   5.362   4.300  0.0619  0.0630  0.1904
37888SOL     OW18119   0.837   4.120   7.302  0.1154  0.1909  0.0760
37888SOL    HW118120   0.854   4.214   7.309 -1.0305  0.3519  0.8665
37888SOL    HW218121   0.742   4.113   7.293  0.3251 -0.8122 -1.8114
37889SOL     OW18122   0.365   3.242   4.691  0.1991  0.0106  0.0865
37889SOL    HW118123   0.318   3.297   4.629  0.5952 -0.8810 -1.0279
37889SOL    HW218124   0.296   3.192   4.735 -0.1984  1.6172  1.3829
37890SOL     OW18125   6.919   4.612   2.842 -0.3997 -0.1421 -0.1715
37890SOL    HW118126   6.975   4.553   2.791 -2.6051 -1.6989 -0.9597
37890SOL    HW218127   6.873   4.554   2.903 -1.8410  0.8923 -0.2323
37891SOL     OW18128   5.673   1.980   5.879 -0.0149 -0.7989  0.3383
37891SOL    HW118129   5.589   1.935   5.864 -1.0167  1.4912 -1.7369
37891SOL    HW218130   5.660   2.028   5.961 -1.5333  0.9908 -0.8612
37892SOL     OW18131   9.348   5.534   9.641 -0.3881  0.3291  0.0661
37892SOL    HW118132   9.376   5.443   9.649  2.7035  0.9226 -2.1380
37892SOL    HW218133   9.382   5.576   9.720  0.0819 -0.0531  0.0758
37893SOL     OW18134   3.489   9.886   3.923 -0.6338 -0.0431  0.0261
37893SOL    HW118135   3.583   9.886   3.938 -0.5897  1.4922 -0.1126
37893SOL    HW218136   3.478   9.916   3.833 -1.3074  3.3309  1.0730
37894SOL     OW18137   0.567   9.676   5.721  0.2407 -0.5622 -0.0907
37894SOL    HW118138   0.541   9.617   5.650 -0.9326 -0.0978 -0.0622
37894SOL    HW218139   0.496   9.739   5.728  0.5655 -0.2940  1.1719
37895SOL     OW18140   4.334   4.152   8.736 -0.4094 -0.0880 -0.0848
37895SOL    HW118141   4.402   4.216   8.714 -1.1507  0.0559 -2.1042
37895SOL    HW218142   4.336   4.149   8.832  2.5070 -0.1863 -0.0379
37896SOL     OW18143   0.887   2.965   7.877 -0.1435 -0.2181  0.8443
37896SOL    HW118144   0.954   3.021   7.838 -0.4199 -0.5034 -0.0603
37896SOL    HW218145   0.818   3.026   7.904 -0.8703 -0.1743 -0.9988
37897SOL     OW18146   4.003   2.130   2.004  0.6176 -0.4336 -0.1192
37897SOL    HW118147   3.917   2.149   2.043  0.1665  2.0148 -2.0621
37897SOL    HW218148   4.064   2.140   2.077 -0.4350  1.4858  0.5882
37898SOL     OW18149   9.273   0.780  10.102  0.3476 -0.0501 -0.1617
37898SOL    HW118150   9.219   0.830  10.163 -1.1175  0.3092 -1.6843
37898SOL    HW218151   9.234   0.693  10.101  0.3479 -0.0503 -0.5780
37899SOL     OW18152  10.615   3.720   3.245  0.0372  0.2321  1.1592
37899SOL    HW118153  10.707   3.718   3.272 -0.0435 -2.3111  1.5081
37899SOL    HW218154  10.600   3.634   3.205 -2.1295  0.6861  0.8672
37900SOL     OW18155  10.231   0.032   5.743 -0.2958 -0.5657 -0.2498
37900SOL    HW118156  10.231   0.036   5.838 -1.9620 -0.3077 -0.2432
37900SOL    HW218157  10.142   0.006   5.719 -0.1359  0.1411 -1.7546
37901SOL     OW18158   6.775   9.644   3.019 -0.2163  0.4877 -0.8520
37901SOL    HW118159   6.861   9.613   2.991 -0.1750  0.1549 -0.3661
37901SOL    HW218160   6.718   9.568   3.012 -0.3259  0.5387 -0.5562
37902SOL     OW18161   8.015   0.211   0.845  0.2190  0.0983 -0.3811
37902SOL    HW118162   8.064   0.156   0.906 -0.0390 -0.0939 -0.3409
37902SOL    HW218163   7.924   0.181   0.854 -0.0790  1.1768  0.3320
37903SOL     OW18164   5.371   4.977   6.145  0.0240 -0.2345  0.1883
37903SOL    HW118165   5.458   5.017   6.154  0.5874 -0.7116 -2.3535
37903SOL    HW218166   5.310   5.051   6.149  0.6165  0.2298  0.8985
37904SOL     OW18167   9.754  10.420   5.551 -0.1295  0.1608  0.5845
37904SOL    HW118168   9.719  10.500   5.511 -0.7513  1.8221  4.0923
37904SOL    HW218169   9.808  10.451   5.624  0.6230 -2.6364  1.3277
37905SOL     OW18170   8.215   7.799   4.632  0.0858 -0.3736  0.5321
37905SOL    HW118171   8.215   7.862   4.704 -0.9051 -0.2390  0.4294
37905SOL    HW218172   8.213   7.713   4.674 -1.1956 -0.2867  0.6846
37906SOL     OW18173   5.994   1.480   5.708 -0.1489  0.3582 -0.4929
37906SOL    HW118174   6.017   1.568   5.738  0.0171  0.1130  0.1211
37906SOL    HW218175   6.031   1.421   5.774 -0.0830 -0.1865 -1.0013
37907SOL     OW18176   9.441   0.009   5.826  0.1710 -0.5693 -0.1366
37907SOL    HW118177   9.441   0.032   5.919 -1.9960  0.6137 -0.3756
37907SOL    HW218178   9.441   0.093   5.780  0.8066 -1.1355 -1.2113
37908SOL     OW18179  10.951   4.926   7.881 -0.6679  0.0796 -0.3443
37908SOL    HW118180  10.954   5.018   7.854 -0.8830 -0.0215 -0.7070
37908SOL    HW218181  10.977   4.877   7.803 -0.5921 -0.1733 -0.1628
37909SOL     OW18182   2.899   3.635   3.050 -0.2845  0.0411  0.3702
37909SOL    HW118183   2.957   3.709   3.031 -1.4638  1.3427  1.6356
37909SOL    HW218184   2.934   3.598   3.131 -0.7629  0.3687  0.7325
37910SOL     OW18185   0.598   7.852   7.925  0.2781 -0.6177 -0.6939
37910SOL    HW118186   0.663   7.782   7.930  0.5654 -0.3978 -1.3197
37910SOL    HW218187   0.552   7.847   8.009  3.0115  1.1076  1.0292
37911SOL     OW18188   7.043   4.587   6.461  0.4766  0.2646 -0.7825
37911SOL    HW118189   6.987   4.661   6.485  1.0385  0.5972 -0.4676
37911SOL    HW218190   7.098   4.621   6.391 -0.2984 -0.3295 -1.7098
37912SOL     OW18191   7.626   2.984   3.036 -0.3364  0.3280  0.2422
37912SOL    HW118192   7.572   2.955   2.962  0.0003 -0.6059  0.3481
37912SOL    HW218193   7.578   2.955   3.114 -0.0065  0.0631  0.3509
37913SOL     OW18194   3.749   3.623   9.292 -0.2184  0.1219  0.2458
37913SOL    HW118195   3.800   3.582   9.222 -0.5311  0.3712 -0.1311
37913SOL    HW218196   3.705   3.550   9.335 -0.6114  0.0388 -0.2916
37914SOL     OW18197   8.979   5.460   5.350 -0.4995  0.3732  0.5485
37914SOL    HW118198   8.982   5.407   5.271  1.1112  1.8038 -0.4044
37914SOL    HW218199   8.895   5.507   5.344  0.8795  2.7916 -1.9792
37915SOL     OW18200   7.245   7.732   2.571  0.0349  0.2226 -0.1768
37915SOL    HW118201   7.224   7.810   2.624 -1.9208 -0.9723  0.9187
37915SOL    HW218202   7.187   7.738   2.496 -1.4114 -1.0153  0.7929
37916SOL     OW18203   8.602   2.364   9.298 -0.1253 -0.2889  0.5854
37916SOL    HW118204   8.542   2.307   9.250  0.1955 -0.6121  0.5583
37916SOL    HW218205   8.549   2.439   9.324 -0.0122  0.4945 -1.3392
37917SOL     OW18206   6.285  10.251   2.519  0.3130  0.0586  0.0977
37917SOL    HW118207   6.346  10.263   2.447 -0.7705 -1.0626 -1.0476
37917SOL    HW218208   6.338  10.210   2.588  0.6766 -1.8406 -1.2326
37918SOL     OW18209   9.488   8.480   4.482  0.4389  0.2621  0.1961
37918SOL    HW118210   9.414   8.527   4.522 -2.5901 -3.1318 -0.8917
37918SOL    HW218211   9.522   8.425   4.553 -1.8718 -2.2375 -0.4378
37919SOL     OW18212   5.787  10.931   7.055  0.2165  0.2906  0.4914
37919SOL    HW118213   5.805  10.869   6.984 -1.0371 -0.2688  0.6187
37919SOL    HW218214   5.696  10.912   7.080  0.0617  1.6801  1.0536
37920SOL     OW18215   8.435   8.468   7.240  0.2310 -0.3891  0.2119
37920SOL    HW118216   8.454   8.406   7.169 -0.3565  0.8748 -1.0975
37920SOL    HW218217   8.354   8.436   7.278  0.8023 -1.3545  0.6700
37921SOL     OW18218   0.660   9.087   7.681  0.1964 -0.1339  0.0561
37921SOL    HW118219   0.696   9.136   7.607  1.3170  0.5264  1.0087
37921SOL    HW218220   0.635   9.155   7.744  3.5606 -0.6810  2.2508
37922SOL     OW18221   6.756   8.941   6.347 -0.1727 -0.1382  0.6217
37922SOL    HW118222   6.719   9.023   6.382  0.6211 -0.5506  2.5898
37922SOL    HW218223   6.805   8.968   6.270  2.8724  1.9303  3.0140
37923SOL     OW18224   9.050   6.912   8.396 -0.2656 -0.1752  0.0722
37923SOL    HW118225   9.077   6.876   8.481  0.5583 -0.7570 -0.4256
37923SOL    HW218226   9.129   6.911   8.343 -1.1177 -1.3735 -1.2409
37924SOL     OW18227   1.664   1.099   7.728  0.3283  0.3413  0.0377
37924SOL    HW118228   1.722   1.111   7.653 -0.9411  2.4853 -0.6908
37924SOL    HW218229   1.685   1.172   7.786  0.4393 -0.6002  1.2248
37925SOL     OW18230   6.424   6.384   7.571  0.5799  0.1515  0.3823
37925SOL    HW118231   6.353   6.435   7.532  0.8587 -0.5313 -1.0858
37925SOL    HW218232   6.467   6.341   7.496  1.4016 -0.8804  1.4051
37926SOL     OW18233   1.253  10.598   9.999 -0.4917 -0.4360 -0.3312
37926SOL    HW118234   1.330  10.638  10.039 -0.9013 -0.0077  0.0356
37926SOL    HW218235   1.227  10.530  10.061 -0.9942  0.0801  0.0317
37927SOL     OW18236  10.449   9.796   5.097 -0.2857 -0.0911  0.7186
37927SOL    HW118237  10.494   9.787   5.181 -0.8738  2.8064  1.4511
37927SOL    HW218238  10.518   9.821   5.035 -0.0939 -0.7809  0.6423
37928SOL     OW18239   2.763   1.012  10.285 -0.6610  0.0988 -0.0454
37928SOL    HW118240   2.675   0.974  10.281 -0.7340  0.3590 -2.9202
37928SOL    HW218241   2.771   1.063  10.205  1.4444  1.7053  1.0775
37929SOL     OW18242   3.257   2.019   4.104 -0.1717  0.2979 -0.3810
37929SOL    HW118243   3.311   2.043   4.029  2.0793 -0.0347  1.0603
37929SOL    HW218244   3.201   1.948   4.071  0.9322 -0.0258 -1.6814
37930SOL     OW18245   5.136   1.739   1.595  0.0970 -0.2144  0.1508
37930SOL    HW118246   5.114   1.673   1.662  0.3028 -1.4191 -0.9272
37930SOL    HW218247   5.232   1.740   1.594  0.0976 -0.5722 -0.4674
37931SOL     OW18248   4.818   0.636   2.545  0.1276  0.0611 -0.5638
37931SOL    HW118249   4.855   0.641   2.457 -0.8818  0.2442 -0.9933
37931SOL    HW218250   4.818   0.543   2.566 -1.3941 -0.2076 -1.5657
37932SOL     OW18251   3.705   1.865   3.184 -0.1807  0.3024 -0.2809
37932SOL    HW118252   3.647   1.850   3.109 -0.0170 -1.5420 -0.0898
37932SOL    HW218253   3.656   1.833   3.259  1.1487 -1.6545 -0.1610
37933SOL     OW18254   6.202   6.931   7.561  0.6625  0.2599 -0.1910
37933SOL    HW118255   6.261   6.913   7.634 -0.6246  1.3289  1.1655
37933SOL    HW218256   6.117   6.900   7.591  0.0769  0.8674 -1.1750
37934SOL     OW18257   5.813   6.432   4.525 -0.4856  0.0240  0.1423
37934SOL    HW118258   5.854   6.468   4.604  1.1974  0.2687 -0.7832
37934SOL    HW218259   5.845   6.488   4.455 -0.1653 -1.5053 -0.9826
37935SOL     OW18260   1.303   0.334   0.929  0.2720  0.1456  0.2109
37935SOL    HW118261   1.279   0.294   1.012  0.1080 -0.6255 -0.1951
37935SOL    HW218262   1.399   0.338   0.930  0.5624 -3.2215 -1.0152
37936SOL     OW18263   7.304  10.050   8.218  0.0183  0.1773 -0.0306
37936SOL    HW118264   7.307  10.059   8.123 -2.1857 -0.4904 -0.2013
37936SOL    HW218265   7.339  10.133   8.251 -0.3974  0.9258 -1.4293
37937SOL     OW18266  10.593   2.662   4.463  0.0897  0.1118 -0.2135
37937SOL    HW118267  10.521   2.599   4.473  0.4775 -0.6100 -1.7258
37937SOL    HW218268  10.635   2.664   4.548  0.1562 -1.8008 -0.1608
37938SOL     OW18269   3.402   6.715  10.247  0.1661 -0.3111 -0.3189
37938SOL    HW118270   3.342   6.671  10.308  1.5389 -1.4539  0.2641
37938SOL    HW218271   3.443   6.644  10.198  0.0727  0.5340 -1.6737
37939SOL     OW18272   9.328   5.232   5.723  0.1428 -0.0182 -0.1424
37939SOL    HW118273   9.259   5.283   5.680  0.3964  0.7667  0.3735
37939SOL    HW218274   9.281   5.174   5.783 -0.2101 -1.0320 -1.3439
37940SOL     OW18275   4.834   7.238   6.339  0.0521 -0.0303  0.7753
37940SOL    HW118276   4.892   7.205   6.408  1.5677  1.2884  0.1861
37940SOL    HW218277   4.870   7.200   6.259 -1.8668 -1.7870  0.6446
37941SOL     OW18278   3.051   2.482   8.654 -0.2613 -0.5414  0.2391
37941SOL    HW118279   3.004   2.423   8.595 -1.7507  2.9251 -2.4160
37941SOL    HW218280   2.983   2.538   8.691  1.2318  0.7884  1.0965
37942SOL     OW18281   2.399   9.262   3.498 -0.0280 -0.0272  0.1318
37942SOL    HW118282   2.328   9.311   3.540  2.3467  4.9829 -0.9716
37942SOL    HW218283   2.458   9.240   3.569 -0.8025 -0.7445  0.5707
37943SOL     OW18284   3.124   4.348   6.304  0.1141 -0.0988  0.5397
37943SOL    HW118285   3.218   4.357   6.320  0.2412  0.5862 -0.5291
37943SOL    HW218286   3.085   4.427   6.341  0.2031  0.5849 -0.7542
37944SOL     OW18287   3.507   5.800   9.191  0.1630  0.5344  0.3764
37944SOL    HW118288   3.581   5.860   9.190  0.3802  0.2732 -0.5591
37944SOL    HW218289   3.504   5.764   9.102 -1.2771  0.7753  0.3003
37945SOL     OW18290   4.191   7.048   8.399 -0.4128 -0.3207 -0.3502
37945SOL    HW118291   4.183   7.071   8.307 -0.6622  0.3019 -0.1795
37945SOL    HW218292   4.253   7.111   8.435 -0.3969 -0.4932 -0.0662
37946SOL     OW18293   1.174   3.328   0.780 -0.3430  0.4154  0.0306
37946SOL    HW118294   1.257   3.290   0.806 -1.0366 -0.5642  0.8655
37946SOL    HW218295   1.189   3.423   0.785  1.6829  0.3954 -2.9627
37947SOL     OW18296   9.804   2.507   4.794 -0.2412  0.4620  0.2123
37947SOL    HW118297   9.712   2.507   4.819 -1.0534 -0.7185 -2.4025
37947SOL    HW218298   9.811   2.579   4.731 -0.1159 -1.1496 -1.7149
37948SOL     OW18299  10.973  10.780   6.813 -0.0094 -0.3225 -0.4025
37948SOL    HW118300  10.903  10.836   6.847  0.4452  0.2984 -0.4706
37948SOL    HW218301  10.930  10.724   6.749 -0.5989 -0.5121  0.1505
37949SOL     OW18302  10.717   3.860   0.156  0.0764 -0.6254 -0.6937
37949SOL    HW118303  10.688   3.911   0.231  1.6623  0.4019 -0.7130
37949SOL    HW218304  10.636   3.832   0.113 -0.8486 -0.0672  0.6108
37950SOL     OW18305   4.798   5.824   0.676  0.2495  0.2963  0.0900
37950SOL    HW118306   4.823   5.804   0.766 -2.4865  1.4838  1.2266
37950SOL    HW218307   4.755   5.744   0.645  2.0643 -0.4749 -0.6116
37951SOL     OW18308   2.464   0.880   5.746 -0.9663 -0.2285  0.1276
37951SOL    HW118309   2.409   0.823   5.799  1.0066 -0.9334  1.5467
37951SOL    HW218310   2.452   0.967   5.783  0.2505 -0.6841  1.6936
37952SOL     OW18311   0.623   3.300   8.461 -0.4921 -0.2367  0.1137
37952SOL    HW118312   0.573   3.373   8.496  0.7955 -0.2834  2.2705
37952SOL    HW218313   0.711   3.312   8.497  0.5815 -1.1434 -2.0457
37953SOL     OW18314   6.571   3.251   0.959  0.4224  0.3108 -0.4449
37953SOL    HW118315   6.496   3.310   0.957  0.1620  0.0852  1.2478
37953SOL    HW218316   6.534   3.165   0.976  0.9605 -0.0260 -0.9287
37954SOL     OW18317   5.000   0.277   6.459 -0.1946  0.3640 -0.2890
37954SOL    HW118318   4.955   0.358   6.482 -1.2513 -0.7994  2.0384
37954SOL    HW218319   4.987   0.268   6.364 -3.1014  1.1468 -0.0555
37955SOL     OW18320   8.743   9.776   6.751 -0.4214 -0.2263  0.3135
37955SOL    HW118321   8.807   9.710   6.779  0.2770 -0.3261 -1.4012
37955SOL    HW218322   8.717   9.749   6.663 -1.1599  1.0357  0.1133
37956SOL     OW18323   4.235   5.668   4.821  1.0925  0.0629  0.8233
37956SOL    HW118324   4.184   5.732   4.772  2.1306  1.1506  1.1050
37956SOL    HW218325   4.245   5.706   4.908  2.7984  0.1672  0.6315
37957SOL     OW18326   3.776   9.139   9.221 -0.5901  0.4585  0.1698
37957SOL    HW118327   3.870   9.141   9.202 -0.7340  0.8119 -0.5286
37957SOL    HW218328   3.737   9.193   9.153 -1.3583 -0.1401  0.1225
37958SOL     OW18329   9.482   5.703   9.882  0.1699  0.2736 -0.4045
37958SOL    HW118330   9.411   5.695   9.946  0.7309 -1.9821  0.0036
37958SOL    HW218331   9.562   5.703   9.934  0.5837 -0.2672 -1.0192
37959SOL     OW18332   5.339   9.330   4.848  0.2598  0.0449  0.5761
37959SOL    HW118333   5.279   9.300   4.916  1.1219 -0.3392  1.1902
37959SOL    HW218334   5.306   9.290   4.768 -1.4112  1.3972  0.5567
37960SOL     OW18335   7.783   9.283   0.849 -0.0621 -0.0120 -0.5066
37960SOL    HW118336   7.820   9.209   0.801  0.4575 -0.7410  0.9350
37960SOL    HW218337   7.695   9.255   0.874 -0.1247  0.1368 -0.5593
37961SOL     OW18338   3.768   1.254   3.327 -0.2226  0.7232 -0.0267
37961SOL    HW118339   3.714   1.332   3.338  1.0889  1.4252  1.8340
37961SOL    HW218340   3.704   1.182   3.323 -1.3654  1.6699  0.5380
37962SOL     OW18341   5.460   4.419   3.348  0.0348  0.1789  0.8227
37962SOL    HW118342   5.405   4.356   3.301  1.1594  0.1953 -0.5943
37962SOL    HW218343   5.404   4.451   3.419 -1.5183 -0.3630 -0.0892
37963SOL     OW18344   8.343   9.189   1.683 -0.2037  0.6093 -0.2439
37963SOL    HW118345   8.281   9.178   1.611  1.8865 -0.9489 -1.9785
37963SOL    HW218346   8.428   9.198   1.639  1.0577  0.5991  2.0330
37964SOL     OW18347   0.954   0.939   4.298 -0.0689 -0.2106  0.1708
37964SOL    HW118348   0.890   0.891   4.350  0.6551 -2.1343 -0.6095
37964SOL    HW218349   0.999   0.995   4.361 -1.3551 -0.0819  1.0193
37965SOL     OW18350   0.071   4.768   6.190  0.1704  0.3319 -0.5773
37965SOL    HW118351   0.005   4.713   6.148  0.6531  0.1909 -1.1615
37965SOL    HW218352   0.037   4.857   6.182  0.1955  0.2930 -1.1505
37966SOL     OW18353   6.885   9.702   6.051 -0.1123  0.0746 -0.1455
37966SOL    HW118354   6.943   9.726   5.979 -0.1368 -2.1048 -0.9774
37966SOL    HW218355   6.839   9.783   6.073  1.2920  1.2383 -1.2661
37967SOL     OW18356   6.458   6.984   2.495 -0.0618 -0.4396  0.0069
37967SOL    HW118357   6.514   7.062   2.496 -0.9304  0.2261 -1.1819
37967SOL    HW218358   6.379   7.010   2.542 -0.1723 -0.7421 -0.0090
37968SOL     OW18359   5.516   8.083   6.286 -0.2996 -0.1314 -0.6424
37968SOL    HW118360   5.533   7.991   6.305  2.3099 -0.3918 -3.4692
37968SOL    HW218361   5.436   8.082   6.233 -1.0871 -0.5556  0.5140
37969SOL     OW18362   9.682   3.324   1.449 -0.2558 -0.1734  0.3165
37969SOL    HW118363   9.728   3.397   1.407 -0.3536 -0.9809 -1.2781
37969SOL    HW218364   9.629   3.365   1.517  0.9010  1.0526  0.5214
37970SOL     OW18365   3.991   8.494   0.965 -0.1696 -0.0459 -0.2721
37970SOL    HW118366   4.078   8.460   0.946  0.2143  0.4294  0.5748
37970SOL    HW218367   3.972   8.554   0.893  0.1042 -0.3145 -0.5721
37971SOL     OW18368   7.748   1.551   8.796 -0.3941 -0.4845 -0.0828
37971SOL    HW118369   7.764   1.628   8.742 -0.8474  0.8902  1.6672
37971SOL    HW218370   7.762   1.581   8.886 -1.4876 -2.2040  0.7074
37972SOL     OW18371   7.165   5.674   0.663 -0.1841  0.0111  0.5885
37972SOL    HW118372   7.198   5.740   0.602  1.0078  0.6624  1.8765
37972SOL    HW218373   7.085   5.712   0.699 -2.0800 -1.2602 -2.0134
37973SOL     OW18374   6.088   7.577   9.057 -0.1833  0.1860 -0.4767
37973SOL    HW118375   6.142   7.635   9.111 -1.2506  2.1112 -1.3517
37973SOL    HW218376   6.138   7.565   8.977 -0.7416  1.5088 -1.0580
37974SOL     OW18377   5.490   8.792   5.505 -0.4026  0.3781 -0.5327
37974SOL    HW118378   5.404   8.758   5.531  0.2092 -1.3083 -0.5840
37974SOL    HW218379   5.521   8.840   5.582 -0.7860 -0.2345  0.0179
37975SOL     OW18380   7.203   8.169   6.273 -0.4122 -0.0962  0.2743
37975SOL    HW118381   7.145   8.245   6.271 -1.0205 -0.5606  0.0930
37975SOL    HW218382   7.172   8.117   6.347  0.9203  0.5285  1.3225
37976SOL     OW18383   2.292   9.353   6.724  0.3576 -0.3763 -0.1652
37976SOL    HW118384   2.329   9.265   6.724  1.9063  0.2328 -0.8753
37976SOL    HW218385   2.357   9.406   6.771 -0.2986  0.4844 -0.2089
37977SOL     OW18386  10.482   0.574   1.411  0.4455  0.1262  0.6425
37977SOL    HW118387  10.534   0.531   1.478  0.9795  0.7390  0.6234
37977SOL    HW218388  10.541   0.638   1.371  0.1595 -0.2724 -0.4542
37978SOL     OW18389   2.829   8.226  10.876  0.1554  0.0815  0.1113
37978SOL    HW118390   2.825   8.280  10.797  1.0975  1.9266  1.2706
37978SOL    HW218391   2.921   8.224  10.900 -0.0093 -1.1318  0.7458
37979SOL     OW18392   1.611   0.146   1.736  0.2463 -0.2839  0.0696
37979SOL    HW118393   1.574   0.197   1.664 -0.6810 -0.1368  0.6259
37979SOL    HW218394   1.534   0.112   1.783  0.7400  1.2242  2.1288
37980SOL     OW18395  10.441   9.611   2.290  0.0284  0.5695  0.5028
37980SOL    HW118396  10.456   9.704   2.271 -1.8562  1.1066  1.4363
37980SOL    HW218397  10.482   9.566   2.217 -1.4263  2.2816 -1.5091
37981SOL     OW18398   0.083   9.808   7.850 -0.2091 -0.0328 -0.1492
37981SOL    HW118399   0.042   9.886   7.887  0.9352  1.7775 -2.4341
37981SOL    HW218400   0.173   9.834   7.831  0.3984 -2.1227 -0.4222
37982SOL     OW18401   4.356   3.883   2.576  0.1999  0.3335 -0.0745
37982SOL    HW118402   4.448   3.887   2.551  0.0916  3.2659 -0.2845
37982SOL    HW218403   4.334   3.972   2.603 -2.3132 -0.5185  0.9987
37983SOL     OW18404   4.233   9.842   3.601  0.1510  0.0597  0.0718
37983SOL    HW118405   4.157   9.867   3.548 -1.3548  1.8731  2.8020
37983SOL    HW218406   4.198   9.780   3.665  0.9111  0.9405  1.3902
37984SOL     OW18407   9.701   3.105   0.490  0.6887  0.1428 -0.1184
37984SOL    HW118408   9.696   3.118   0.585 -0.6910  1.2597 -0.2988
37984SOL    HW218409   9.730   3.014   0.479 -0.1949 -0.3595  1.3870
37985SOL     OW18410   8.937   9.691   0.904  0.0281  0.2663 -0.1944
37985SOL    HW118411   8.926   9.607   0.859 -0.0618  0.3823 -0.3932
37985SOL    HW218412   8.910   9.756   0.839  0.7298  0.4925 -0.2667
37986SOL     OW18413   4.436   3.805  10.081  0.2664  0.1410  0.1020
37986SOL    HW118414   4.467   3.890  10.052 -1.3096  0.6086 -0.2944
37986SOL    HW218415   4.425   3.754  10.001  0.1122 -0.0565  0.2449
37987SOL     OW18416   7.911   4.430   7.314 -0.4593 -0.4070 -0.2249
37987SOL    HW118417   7.929   4.379   7.236  0.5291 -1.1164  0.4406
37987SOL    HW218418   7.967   4.391   7.382 -1.0435  0.3977  0.7491
37988SOL     OW18419   7.143  10.871  10.717  0.5381 -0.0940 -0.1367
37988SOL    HW118420   7.138  10.869  10.813 -1.1964  0.9720 -0.1581
37988SOL    HW218421   7.113  10.785  10.690  0.7162 -0.2880  0.2687
37989SOL     OW18422   5.943   3.406  10.979 -0.0520  0.2663  0.5763
37989SOL    HW118423   6.031   3.414  10.942 -0.1076  0.0670  0.4016
37989SOL    HW218424   5.885   3.439  10.911 -0.0875  0.7441  0.8331
37990SOL     OW18425   0.393   4.992   9.121  0.2463 -0.1922  0.0981
37990SOL    HW118426   0.395   4.899   9.097  0.6299 -0.2222  0.2439
37990SOL    HW218427   0.303   5.019   9.102 -0.5046 -1.1154  1.9921
37991SOL     OW18428   5.908   4.437   7.967 -0.4624  0.1616 -0.4140
37991SOL    HW118429   5.894   4.344   7.985  2.6476 -0.5810 -1.2340
37991SOL    HW218430   5.853   4.455   7.890 -0.0833 -1.3738 -1.0735
37992SOL     OW18431   4.225   0.695  10.263  0.6505  0.0763  0.1533
37992SOL    HW118432   4.166   0.661  10.330  1.4926 -1.7205  0.0365
37992SOL    HW218433   4.284   0.754  10.311 -0.7272  1.3305  0.3879
37993SOL     OW18434   4.072   1.991   9.067 -0.3305 -0.3180 -0.1182
37993SOL    HW118435   4.082   1.945   9.151 -2.0701  0.1522  0.3846
37993SOL    HW218436   4.003   1.943   9.021 -1.3993  1.0925 -0.0574
37994SOL     OW18437   8.656   4.759   0.012  0.0749 -0.0781 -0.3748
37994SOL    HW118438   8.656   4.771  -0.082 -0.3947 -1.4797 -0.5823
37994SOL    HW218439   8.749   4.767   0.037  0.2323  0.0399 -0.9863
37995SOL     OW18440   6.931  10.274   9.444 -0.2063 -0.1384  0.4634
37995SOL    HW118441   6.946  10.182   9.423 -0.2060  0.2197 -1.3222
37995SOL    HW218442   6.889  10.273   9.530 -0.9950 -1.8573  0.1044
37996SOL     OW18443   1.216   9.107   6.392  0.3059 -0.6185 -0.3484
37996SOL    HW118444   1.307   9.126   6.414  0.8529 -1.0962 -2.0425
37996SOL    HW218445   1.194   9.030   6.446  0.4780  0.2445  0.9842
37997SOL     OW18446   2.445   4.622   6.282 -0.4320 -0.1268 -0.8273
37997SOL    HW118447   2.441   4.575   6.365 -2.5402 -0.4570 -1.0404
37997SOL    HW218448   2.434   4.714   6.306  0.5849 -0.0486 -0.6365
37998SOL     OW18449   5.225   2.928   6.697  0.1271  0.6363 -0.1410
37998SOL    HW118450   5.162   2.859   6.675  0.9157  0.0554 -0.6366
37998SOL    HW218451   5.310   2.885   6.693  0.5340  1.2973  0.9709
37999SOL     OW18452   5.337   1.673  10.653  0.1687 -0.1978  0.0928
37999SOL    HW118453   5.355   1.758  10.692 -1.7897  0.2228  0.2200
37999SOL    HW218454   5.311   1.618  10.727 -2.4288  0.2750 -0.3562
38000SOL     OW18455   7.961   1.320   7.618 -0.3808 -0.0836 -0.9563
38000SOL    HW118456   8.019   1.254   7.580 -1.3444 -1.4740 -0.0959
38000SOL    HW218457   7.889   1.270   7.656 -0.1503  1.3074  1.5281
38001SOL     OW18458  10.779   4.682  11.029 -0.5262  0.2949  0.0514
38001SOL    HW118459  10.797   4.728  10.948 -5.8262  0.3850 -1.4291
38001SOL    HW218460  10.817   4.595  11.016  2.8851  1.6654 -0.2973
38002SOL     OW18461  10.774   0.344   0.717 -0.3122 -0.4650  0.0072
38002SOL    HW118462  10.757   0.373   0.806  0.4547 -0.9014  0.3133
38002SOL    HW218463  10.850   0.285   0.725 -1.7480 -2.5212 -0.5561
38003SOL     OW18464   5.658   6.529   3.249  0.2278  0.3206 -0.3875
38003SOL    HW118465   5.574   6.557   3.286  0.9385  1.8232  0.1491
38003SOL    HW218466   5.657   6.563   3.159  0.8651  1.6898  0.0951
38004SOL     OW18467   8.114  10.511   5.057 -0.4771  0.5644  0.3635
38004SOL    HW118468   8.048  10.562   5.010 -1.7464 -0.7701  0.6318
38004SOL    HW218469   8.139  10.441   4.996  0.4436  0.8461  0.3993
38005SOL     OW18470   6.698   5.137   9.082  0.4511  0.1975  0.8923
38005SOL    HW118471   6.659   5.220   9.110  1.8219  1.5492 -0.9376
38005SOL    HW218472   6.659   5.122   8.995  1.5962 -0.0736  0.4161
38006SOL     OW18473  10.218   5.697   6.761 -0.1860  0.2461  0.5481
38006SOL    HW118474  10.260   5.704   6.847 -0.2455  1.4230  0.4977
38006SOL    HW218475  10.289   5.713   6.698 -0.0022 -1.2590  0.3295
38007SOL     OW18476   2.569   3.624   2.273  0.0893  0.4368  0.5060
38007SOL    HW118477   2.532   3.709   2.296  0.2555  0.2817  1.4096
38007SOL    HW218478   2.523   3.561   2.329 -0.4875 -0.1706 -0.6046
38008SOL     OW18479   9.963  10.904   2.094 -0.3580 -0.3049  0.2552
38008SOL    HW118480   9.975  10.944   2.180 -1.9347  1.1042 -0.1307
38008SOL    HW218481  10.003  10.965   2.033  1.5016 -1.6921 -0.0268
38009SOL     OW18482  11.028  10.592   2.112  0.3911 -0.5009 -0.0937
38009SOL    HW118483  10.951  10.599   2.170  0.5811 -1.1404  0.2498
38009SOL    HW218484  11.028  10.673   2.062 -0.6763 -0.6024 -0.2974
38010SOL     OW18485   3.783   1.845   7.411  0.0507 -0.1305  0.1420
38010SOL    HW118486   3.849   1.790   7.452  0.0148 -1.2621 -1.2381
38010SOL    HW218487   3.703   1.827   7.459 -0.2378 -2.2707 -1.0499
38011SOL     OW18488   4.656   3.023   5.902 -0.1715 -0.1974 -0.2088
38011SOL    HW118489   4.585   3.076   5.866 -0.4740 -0.7017 -0.3575
38011SOL    HW218490   4.671   3.061   5.989 -0.9634 -0.3930  0.0257
38012SOL     OW18491   6.894   8.529   7.778  0.7645 -0.3847  0.2259
38012SOL    HW118492   6.983   8.518   7.812  0.6749 -1.0989  0.2479
38012SOL    HW218493   6.881   8.624   7.774  1.7565 -0.2626 -0.3914
38013SOL     OW18494   0.654   2.299   0.919 -0.2831  0.1226  0.5398
38013SOL    HW118495   0.709   2.361   0.870 -3.2696  1.7841 -0.9844
38013SOL    HW218496   0.674   2.318   1.011  1.4667  0.8141  0.0682
38014SOL     OW18497   1.013   1.690   0.010  0.1378 -0.3754  0.0954
38014SOL    HW118498   1.019   1.783  -0.014  0.0663 -0.4701 -0.2919
38014SOL    HW218499   0.955   1.689   0.087 -0.9921 -0.2294 -0.7176
38015SOL     OW18500   0.887   3.299   3.843 -0.4799  0.4550  0.2525
38015SOL    HW118501   0.890   3.318   3.749 -1.1718  0.2482  0.1870
38015SOL    HW218502   0.846   3.213   3.848  0.7640 -0.1276  0.6710
38016SOL     OW18503   0.813   1.822   2.564 -0.0788 -0.0981  0.4302
38016SOL    HW118504   0.798   1.781   2.650 -0.8891 -1.2211 -0.2143
38016SOL    HW218505   0.867   1.759   2.517 -0.5129  0.0192 -0.2413
38017SOL     OW18506   9.397  10.878   2.231 -0.4966 -0.0256  0.1622
38017SOL    HW118507   9.328  10.863   2.167 -1.1917  0.3300  0.8137
38017SOL    HW218508   9.478  10.878   2.180 -0.8466 -1.7607 -0.4308
38018SOL     OW18509   2.182   6.036   7.811  0.0773 -0.7227 -0.7811
38018SOL    HW118510   2.142   5.954   7.841  0.2709 -0.8971 -0.9955
38018SOL    HW218511   2.117   6.103   7.832 -0.1987 -0.9650 -0.8431
38019SOL     OW18512   6.100   3.257   5.857  0.4775  0.0417  0.2198
38019SOL    HW118513   6.011   3.264   5.823  1.1743 -0.0963 -1.8067
38019SOL    HW218514   6.142   3.193   5.799  1.5261 -0.9690  1.9948
38020SOL     OW18515   9.325   4.209   4.464 -0.0046 -0.4091 -0.0355
38020SOL    HW118516   9.245   4.260   4.472 -1.5922 -2.7880  0.0930
38020SOL    HW218517   9.393   4.265   4.502 -1.7627  1.2635  0.8034
38021SOL     OW18518   6.873   0.781   2.899 -1.0599 -0.2016 -0.0544
38021SOL    HW118519   6.943   0.720   2.922 -0.6359  0.0690 -0.5928
38021SOL    HW218520   6.898   0.863   2.943 -1.0910 -0.1339 -0.1625
38022SOL     OW18521  10.503  10.305   1.192 -0.3943  0.2711 -0.4947
38022SOL    HW118522  10.543  10.387   1.164 -1.0119  0.8324  0.2167
38022SOL    HW218523  10.545  10.286   1.276 -1.0128  0.4239 -0.1488
38023SOL     OW18524   1.770   0.853  10.508 -0.1108  0.3817 -0.1657
38023SOL    HW118525   1.736   0.797  10.439  0.3188  1.0137 -0.9076
38023SOL    HW218526   1.700   0.857  10.573 -0.6087 -0.0351 -0.6683
38024SOL     OW18527   6.889   8.632   3.620  0.0968 -0.5330  0.0085
38024SOL    HW118528   6.918   8.546   3.653  1.6393 -0.1492 -0.3034
38024SOL    HW218529   6.968   8.686   3.619 -0.6717  0.6280 -0.6910
38025SOL     OW18530   1.252   9.490   0.161  0.1523 -0.5680 -0.0552
38025SOL    HW118531   1.246   9.453   0.249 -0.6588 -0.9791 -0.2750
38025SOL    HW218532   1.310   9.430   0.114 -0.3045 -0.9774 -0.1073
38026SOL     OW18533   7.931   8.831   5.667 -0.0652 -0.6103  0.5934
38026SOL    HW118534   7.986   8.909   5.662  0.2445 -0.9075 -1.8767
38026SOL    HW218535   7.850   8.861   5.709  0.0423  1.0652 -0.3036
38027SOL     OW18536   8.624   2.727   1.728 -0.2010  0.4113  0.2095
38027SOL    HW118537   8.583   2.721   1.642 -2.0635 -1.3254  1.1199
38027SOL    HW218538   8.590   2.808   1.766  0.8315  1.3141 -0.7495
38028SOL     OW18539   9.110  10.942   5.518 -0.2080 -0.3416  0.1381
38028SOL    HW118540   9.198  10.919   5.488  0.0690  0.5580  0.2327
38028SOL    HW218541   9.090  10.877   5.586  1.2110  0.6436  1.5549
38029SOL     OW18542   2.911  11.025   1.004  0.8901  0.2091 -0.5826
38029SOL    HW118543   3.005  11.044   1.012  0.6759  0.8013  0.6872
38029SOL    HW218544   2.869  11.110   1.015  0.1428 -0.2354  0.0243
38030SOL     OW18545   4.739   3.708   2.019  0.3949 -0.4083 -0.2612
38030SOL    HW118546   4.789   3.758   2.083 -0.9696  1.7593 -0.8093
38030SOL    HW218547   4.804   3.678   1.955  1.4084 -0.4059  0.7443
38031SOL     OW18548   1.054   6.757   4.319  0.1993  0.4347  0.0839
38031SOL    HW118549   0.959   6.744   4.312  0.2467 -0.4453  0.9226
38031SOL    HW218550   1.092   6.686   4.266  0.3912  0.4028  0.2606
38032SOL     OW18551   8.017   4.665   8.542  0.3268 -0.2570  0.2978
38032SOL    HW118552   8.075   4.740   8.552  0.0205  0.2889 -1.6141
38032SOL    HW218553   8.010   4.628   8.630 -0.1372  2.4246  1.4897
38033SOL     OW18554   9.062   2.183  10.053  0.2713  0.2149 -0.4139
38033SOL    HW118555   9.031   2.230   9.976  1.3545  1.3589 -0.1825
38033SOL    HW218556   9.150   2.154  10.031 -0.5317 -2.2793 -0.7545
38034SOL     OW18557   1.671   8.540   2.619  0.1971 -0.5071  0.0477
38034SOL    HW118558   1.641   8.604   2.555  0.8445 -0.3518 -0.1044
38034SOL    HW218559   1.640   8.456   2.586 -1.2449 -0.2258  0.5922
38035SOL     OW18560   9.838   0.131   1.235  0.4069  0.3883 -0.0869
38035SOL    HW118561   9.849   0.165   1.324  3.5097 -2.1818  0.6965
38035SOL    HW218562   9.892   0.189   1.181  1.0926  0.0950  0.2706
38036SOL     OW18563  10.175   4.963   2.065  0.2315 -0.2391  0.1647
38036SOL    HW118564  10.122   4.981   2.142 -0.8625 -1.1802 -0.3442
38036SOL    HW218565  10.145   4.878   2.034  0.0323  0.4929 -1.7997
38037SOL     OW18566   6.044   8.156   5.134 -0.0943  0.1561  0.0960
38037SOL    HW118567   5.999   8.239   5.148  0.2779  0.0009  2.7608
38037SOL    HW218568   5.975   8.090   5.135 -0.1207  0.1940  0.9236
38038SOL     OW18569   4.170  10.540   2.417 -0.8409 -0.3879  0.3164
38038SOL    HW118570   4.173  10.454   2.376  1.2487  0.8103 -2.3709
38038SOL    HW218571   4.262  10.566   2.425 -1.4163  2.4358 -1.0037
38039SOL     OW18572  10.875   6.667   5.765  0.2360  0.4018  0.1119
38039SOL    HW118573  10.904   6.576   5.754  0.6665  0.5273  0.1756
38039SOL    HW218574  10.922   6.714   5.696  0.3128  0.6369  0.3250
38040SOL     OW18575  10.119   7.235   2.795 -0.1774 -0.0416  0.0179
38040SOL    HW118576  10.058   7.171   2.834 -0.0385 -0.2963 -0.1796
38040SOL    HW218577  10.091   7.319   2.831 -1.5605  0.0418 -1.1601
38041SOL     OW18578   9.886   0.346   1.737 -0.6777 -0.4247  0.6443
38041SOL    HW118579   9.814   0.285   1.753 -0.6967 -0.8680 -0.9793
38041SOL    HW218580   9.886   0.404   1.813 -0.7509 -2.3363  2.1885
38042SOL     OW18581   6.424   3.144   2.209 -0.5471 -0.4726  0.0289
38042SOL    HW118582   6.344   3.197   2.206 -0.4159 -0.3010 -0.6201
38042SOL    HW218583   6.487   3.199   2.254 -0.4058 -0.0541 -0.6582
38043SOL     OW18584   2.728   1.427   3.308  0.3787  0.0734 -0.2448
38043SOL    HW118585   2.665   1.459   3.244 -0.2188 -0.9450 -0.1790
38043SOL    HW218586   2.801   1.488   3.302  0.3732 -0.0588 -1.9548
38044SOL     OW18587   7.284   4.677   8.371  0.4185  0.0708  0.2234
38044SOL    HW118588   7.352   4.741   8.353 -0.8791  1.2302 -0.7196
38044SOL    HW218589   7.230   4.718   8.439 -0.5492  0.1035 -0.5420
38045SOL     OW18590   3.662   4.617   1.709  0.1251  0.7915 -1.1086
38045SOL    HW118591   3.727   4.635   1.640 -0.5106 -0.3578 -2.0469
38045SOL    HW218592   3.705   4.553   1.766  0.0926  0.5718 -1.3265
38046SOL     OW18593   0.177   5.363   4.255 -0.4401  0.2223  0.3344
38046SOL    HW118594   0.156   5.285   4.306  0.2438 -0.5725 -0.5656
38046SOL    HW218595   0.273   5.369   4.260 -0.2966 -0.2472 -1.3589
38047SOL     OW18596   5.384   8.458  10.397 -0.3085 -0.6818  0.5772
38047SOL    HW118597   5.463   8.403  10.396 -0.8410 -1.6550  3.0465
38047SOL    HW218598   5.395   8.512  10.475 -1.3567  0.3549  0.0241
38048SOL     OW18599   8.329   0.749   5.714 -0.5059 -0.4965  0.4159
38048SOL    HW118600   8.293   0.744   5.802 -1.0819 -0.8493  0.1590
38048SOL    HW218601   8.258   0.783   5.660  0.3758  1.4708  0.3879
38049SOL     OW18602   2.927   2.519   4.103 -0.1966 -0.1703 -0.2397
38049SOL    HW118603   2.990   2.447   4.110  1.2013  1.1576  2.0374
38049SOL    HW218604   2.843   2.476   4.088  0.8132 -2.1654 -0.5105
38050SOL     OW18605   4.458   6.719  10.582 -0.2309 -0.0706  0.6791
38050SOL    HW118606   4.479   6.690  10.671  1.4553  0.1355  0.3804
38050SOL    HW218607   4.451   6.638  10.532  0.2007 -0.1423  0.7287
38051SOL     OW18608   7.262   2.307   5.442 -0.0201 -0.0536 -0.2772
38051SOL    HW118609   7.306   2.230   5.477 -0.0891  0.9804  2.3591
38051SOL    HW218610   7.331   2.356   5.396 -0.4124 -2.5955 -4.0286
38052SOL     OW18611   5.022  10.720   7.336  0.7535  0.4037 -0.4623
38052SOL    HW118612   4.984  10.807   7.348 -0.2857  0.0389 -0.9706
38052SOL    HW218613   4.948  10.660   7.347  1.4414 -0.4063 -0.2255
38053SOL     OW18614   1.683   5.813   6.905  0.0738 -0.1948  0.2711
38053SOL    HW118615   1.594   5.842   6.926  0.4008 -1.3679  3.9435
38053SOL    HW218616   1.737   5.891   6.917 -0.1531 -0.0493  0.3594
38054SOL     OW18617   5.527  10.404   5.953 -0.1141 -0.2352  0.5140
38054SOL    HW118618   5.610  10.364   5.980 -0.2256 -1.3856 -0.7412
38054SOL    HW218619   5.545  10.444   5.868 -0.7255 -0.0771  0.4502
38055SOL     OW18620   8.971   3.224   0.306  0.4281 -0.6420  0.2022
38055SOL    HW118621   8.975   3.192   0.396  1.3203  1.9299  1.1529
38055SOL    HW218622   9.039   3.290   0.300  0.1191 -0.4381 -2.2798
38056SOL     OW18623  10.577   2.845   9.685  0.1536  0.1832  0.3597
38056SOL    HW118624  10.542   2.916   9.632 -2.3164  0.3222  1.9995
38056SOL    HW218625  10.500   2.806   9.726  1.5298 -2.7593  0.3854
38057SOL     OW18626   4.525   5.981   0.977  0.1604  0.0857 -0.5051
38057SOL    HW118627   4.570   6.059   0.944  0.9758  0.3148  1.0463
38057SOL    HW218628   4.483   6.010   1.058 -1.3040 -0.5865 -0.9924
38058SOL     OW18629   0.276   3.784   2.155 -0.3042 -0.1697  0.3210
38058SOL    HW118630   0.262   3.807   2.063  0.9164  0.2074  0.2076
38058SOL    HW218631   0.198   3.815   2.200 -0.7421 -0.0106 -0.5300
38059SOL     OW18632   6.626   2.640  10.251 -0.0278  0.0925 -0.1694
38059SOL    HW118633   6.684   2.665  10.323 -0.1309  0.5209 -0.2353
38059SOL    HW218634   6.684   2.635  10.175  0.2428 -1.1846  0.0886
38060SOL     OW18635   3.689   7.823   5.810  0.6016 -0.5279  0.5074
38060SOL    HW118636   3.668   7.894   5.750  0.6547  0.4350  1.5812
38060SOL    HW218637   3.647   7.746   5.772 -1.2329  0.4853  0.3643
38061SOL     OW18638   7.623   7.199   3.556  0.4807 -0.0542  0.3030
38061SOL    HW118639   7.653   7.221   3.468 -0.9159 -1.2798 -0.5309
38061SOL    HW218640   7.530   7.223   3.556  0.5804  0.4599  1.6583
38062SOL     OW18641   3.924   1.159   0.886 -0.3456  0.2665 -0.2695
38062SOL    HW118642   3.934   1.064   0.887 -0.3902  0.2617 -0.2930
38062SOL    HW218643   3.888   1.179   0.800  0.5086  0.3903 -0.6163
38063SOL     OW18644   2.052   3.640   2.375  0.3655 -0.9252  0.0825
38063SOL    HW118645   2.056   3.636   2.471  1.8395  0.4742  0.1178
38063SOL    HW218646   1.984   3.576   2.352  0.6967 -2.0645  1.9760
38064SOL     OW18647   2.415   6.134   3.680 -0.3408  0.0787 -0.0300
38064SOL    HW118648   2.354   6.068   3.648  0.8774 -1.7021  1.1607
38064SOL    HW218649   2.380   6.159   3.766 -0.2506  0.2506 -0.0429
38065SOL     OW18650   2.360   0.333   4.808 -0.4698  0.3034  0.1365
38065SOL    HW118651   2.408   0.413   4.786 -2.0082  1.6019  1.2824
38065SOL    HW218652   2.418   0.285   4.867 -0.1391  1.3432  0.6842
38066SOL     OW18653   2.883   3.433   8.054  0.1021  0.5492  0.1362
38066SOL    HW118654   2.883   3.519   8.096  1.0303  0.5726  0.1074
38066SOL    HW218655   2.889   3.452   7.960  0.3881  0.4487  0.1351
38067SOL     OW18656   7.946   1.496   5.591 -0.3183 -0.0231  0.3204
38067SOL    HW118657   8.000   1.461   5.662 -1.7914  1.3920  2.2545
38067SOL    HW218658   7.931   1.588   5.615 -2.6899 -0.0800 -0.6260
38068SOL     OW18659   8.983   7.894   4.066 -0.1235 -0.8099 -0.2501
38068SOL    HW118660   8.952   7.907   4.155  0.1867  0.2466 -0.2835
38068SOL    HW218661   8.904   7.893   4.013 -0.2635 -0.7705 -0.0440
38069SOL     OW18662   5.272   5.577  10.495  0.0017  0.8280  0.6424
38069SOL    HW118663   5.266   5.555  10.402 -1.0201  1.2076  0.6016
38069SOL    HW218664   5.251   5.670  10.498 -1.1255  0.5659  1.3674
38070SOL     OW18665   0.747   6.833   8.361 -0.5117 -0.3850  0.4396
38070SOL    HW118666   0.782   6.922   8.359 -0.2032 -0.4734  1.3178
38070SOL    HW218667   0.719   6.821   8.452 -0.1783 -1.3161  0.4277
38071SOL     OW18668  10.968   4.796   6.958  0.2960  0.7066  0.2380
38071SOL    HW118669  11.023   4.726   6.994  0.4708  0.6143 -0.1979
38071SOL    HW218670  11.029   4.865   6.933  0.0878  1.1765  1.0182
38072SOL     OW18671   1.573   1.098  10.769  0.1232 -0.3378 -0.5109
38072SOL    HW118672   1.478   1.115  10.771 -0.3984 -2.8964  0.1531
38072SOL    HW218673   1.612   1.180  10.800 -1.8872  0.5551 -0.1151
38073SOL     OW18674   3.225   3.858   8.498 -0.7685 -0.4471 -0.1734
38073SOL    HW118675   3.300   3.908   8.466 -0.9567  1.0000  1.4819
38073SOL    HW218676   3.246   3.767   8.478 -0.0024  0.1684 -2.5030
38074SOL     OW18677   4.701   5.541   8.197  0.3158  0.0855 -0.1288
38074SOL    HW118678   4.733   5.536   8.107  0.7911 -0.4014  0.0618
38074SOL    HW218679   4.727   5.628   8.227  0.7404  0.0005 -0.2492
38075SOL     OW18680   6.702   4.242   4.725 -0.0633  0.1114 -0.2246
38075SOL    HW118681   6.685   4.151   4.752  0.2251 -0.7038 -2.5522
38075SOL    HW218682   6.739   4.283   4.803  1.9585 -2.3886  0.2709
38076SOL     OW18683   6.107   5.682   1.380 -0.2046  0.5768  0.3118
38076SOL    HW118684   6.157   5.603   1.403 -2.2829 -0.4096  1.7327
38076SOL    HW218685   6.174   5.751   1.375  1.2834 -0.5096  2.8623
38077SOL     OW18686   2.026   5.300   7.060  0.0723  0.4924  0.0788
38077SOL    HW118687   2.094   5.244   7.098 -0.9150  1.1635  3.1056
38077SOL    HW218688   1.953   5.240   7.043  0.5876  0.1546 -1.0762
38078SOL     OW18689   3.962   0.718   3.093  0.5048 -0.0600 -0.0937
38078SOL    HW118690   3.896   0.692   3.029  1.1744 -0.5034 -0.6147
38078SOL    HW218691   3.968   0.813   3.085 -0.9464  0.1410  0.8305
38079SOL     OW18692   5.044   3.347   6.800  0.5647  0.3930 -0.3526
38079SOL    HW118693   4.973   3.333   6.737  0.8172  1.4685 -0.9009
38079SOL    HW218694   5.101   3.412   6.758  1.7365 -0.2628  0.1960
38080SOL     OW18695   7.302   9.125   1.791 -0.5177 -0.2411  0.0141
38080SOL    HW118696   7.310   9.181   1.714 -0.6993 -1.7235 -1.1261
38080SOL    HW218697   7.212   9.138   1.821 -0.4820  0.2594 -0.0954
38081SOL     OW18698   7.148   3.805   4.122  0.2748 -0.8330  0.0211
38081SOL    HW118699   7.167   3.751   4.044 -0.5720 -2.7047  1.0428
38081SOL    HW218700   7.053   3.804   4.129  0.3173 -0.2062  0.7785
38082SOL     OW18701   5.860   1.258   7.681 -0.5207  0.2811 -0.5146
38082SOL    HW118702   5.809   1.235   7.603 -0.0603  1.8962 -1.3429
38082SOL    HW218703   5.797   1.259   7.752 -1.5697  1.5824 -1.3974
38083SOL     OW18704   8.321   2.886   9.672 -0.0330 -0.0919  0.0155
38083SOL    HW118705   8.256   2.824   9.639  0.8901 -1.7672  1.1454
38083SOL    HW218706   8.292   2.906   9.761  0.3936 -0.0003  0.1374
38084SOL     OW18707   3.278   4.972   2.806 -0.1232 -0.2169 -0.4105
38084SOL    HW118708   3.345   5.040   2.815 -0.5006  0.0172  0.7471
38084SOL    HW218709   3.303   4.924   2.727  2.1784 -1.0096  0.7385
38085SOL     OW18710   4.497   4.733   4.801  0.4180  0.6845 -0.8942
38085SOL    HW118711   4.445   4.789   4.859  0.9321  0.2682 -0.0048
38085SOL    HW218712   4.440   4.716   4.726 -1.5233 -1.2501  0.8523
38086SOL     OW18713  11.032  11.036   7.974 -0.4220  0.2866  0.0141
38086SOL    HW118714  10.947  11.078   7.989 -1.0674 -1.0618  0.2856
38086SOL    HW218715  11.073  11.089   7.905 -0.9440  1.6769  0.7155
38087SOL     OW18716   6.924   0.453   5.535  0.4946 -0.1741 -0.2666
38087SOL    HW118717   6.947   0.397   5.460  0.8188  0.5723 -0.7358
38087SOL    HW218718   6.835   0.481   5.517  1.0909  1.2493 -1.1844
38088SOL     OW18719   0.051   9.546  10.201 -0.2194  0.2189  0.4211
38088SOL    HW118720   0.005   9.464  10.220  0.9740 -1.1002 -1.9000
38088SOL    HW218721  -0.018   9.607  10.177 -1.0003 -0.8189 -0.0652
38089SOL     OW18722   8.438   2.952   2.762 -0.0890 -0.1430  0.2293
38089SOL    HW118723   8.482   2.965   2.678 -0.2091  0.5678  0.2683
38089SOL    HW218724   8.505   2.972   2.827 -0.3894  0.7344  0.2890
38090SOL     OW18725   7.094   9.317   1.436  0.3362  0.4825  0.6917
38090SOL    HW118726   7.015   9.371   1.432 -0.0148 -0.0519 -0.3784
38090SOL    HW218727   7.161   9.373   1.475 -1.3898 -0.1408  5.1009
38091SOL     OW18728   3.560   5.163   5.809 -0.5499 -0.6906 -0.1455
38091SOL    HW118729   3.511   5.179   5.890 -0.5390 -1.3258 -0.0068
38091SOL    HW218730   3.570   5.249   5.770  0.0602 -0.2698  0.8836
38092SOL     OW18731   9.846   9.967   4.957  0.1519  0.6103 -0.0523
38092SOL    HW118732   9.765   9.925   4.984 -1.5472  2.3930 -1.9889
38092SOL    HW218733   9.859   9.940   4.866  0.8613  1.5633 -0.2603
38093SOL     OW18734   6.870   5.473   9.238 -0.1759  0.2296 -0.2044
38093SOL    HW118735   6.905   5.531   9.171  0.6767  0.5564  0.5086
38093SOL    HW218736   6.942   5.460   9.300 -0.4442 -1.3101 -0.1593
38094SOL     OW18737   2.138   6.716   7.236 -0.5503 -0.2659 -0.4461
38094SOL    HW118738   2.171   6.804   7.215 -1.7442  0.4367  0.5093
38094SOL    HW218739   2.195   6.657   7.186  0.5552  1.0177 -0.7737
38095SOL     OW18740   8.377   1.458   3.257 -0.5087  0.1433  0.1630
38095SOL    HW118741   8.301   1.508   3.287 -0.4520 -0.1616  0.8237
38095SOL    HW218742   8.346   1.412   3.179 -0.4682  1.4632 -0.6626
38096SOL     OW18743   2.934   7.746   9.133 -0.8124 -0.1369  0.3389
38096SOL    HW118744   3.019   7.742   9.089 -0.2509 -0.9450  1.4381
38096SOL    HW218745   2.877   7.690   9.081 -0.1358 -1.1556  0.6762
38097SOL     OW18746   7.381   4.552  10.718  0.4311  0.4399  0.3659
38097SOL    HW118747   7.309   4.568  10.657  2.6875  1.6251 -2.1914
38097SOL    HW218748   7.411   4.463  10.697 -0.0954  0.0508  1.2362
38098SOL     OW18749   2.638   0.625   8.022  0.1482  0.6411 -1.1657
38098SOL    HW118750   2.650   0.703   7.968  1.7434 -1.2128 -3.7189
38098SOL    HW218751   2.622   0.554   7.959 -0.5151 -1.2496  0.9790
38099SOL     OW18752   2.687   9.881   7.570  0.1938 -0.3889 -0.0301
38099SOL    HW118753   2.688   9.790   7.602 -0.6040 -0.9467 -1.4773
38099SOL    HW218754   2.614   9.883   7.508 -0.4779  1.5423  0.7450
38100SOL     OW18755   7.984   6.103   2.766 -0.3867 -0.6911 -0.0613
38100SOL    HW118756   8.032   6.158   2.705 -1.8991 -0.1855 -0.8288
38100SOL    HW218757   7.914   6.159   2.800 -0.3633 -1.3536  1.1674
38101SOL     OW18758  10.739   6.193   0.145 -0.4521 -0.2817  0.4721
38101SOL    HW118759  10.812   6.248   0.117 -1.7487  1.4580  0.3134
38101SOL    HW218760  10.710   6.148   0.066  0.8012 -1.4850  0.6586
38102SOL     OW18761   9.572   2.166  10.069 -0.3687  0.2988 -0.2987
38102SOL    HW118762   9.603   2.248  10.032  0.4113  0.0495 -0.2041
38102SOL    HW218763   9.494   2.145  10.017  0.9746 -0.2888 -2.1777
38103SOL     OW18764   3.565   0.199   6.718  0.2286  0.0323  0.4900
38103SOL    HW118765   3.660   0.200   6.725  0.4252  0.9522 -1.7289
38103SOL    HW218766   3.546   0.124   6.662 -0.3182  0.1733  0.4793
38104SOL     OW18767   7.890   2.775  10.600  0.0094 -0.1414 -0.0681
38104SOL    HW118768   7.862   2.746  10.687 -0.4827 -0.8265 -0.4551
38104SOL    HW218769   7.945   2.703  10.567  2.5447  1.2677  0.7918
38105SOL     OW18770   7.387   6.036   8.127 -0.5952  0.1280 -0.0086
38105SOL    HW118771   7.367   6.084   8.207  0.9765  0.0126  0.4896
38105SOL    HW218772   7.430   6.100   8.070 -0.1994 -0.2018 -0.0888
38106SOL     OW18773   4.498   5.816   9.323 -0.4408 -0.3971 -0.1388
38106SOL    HW118774   4.413   5.772   9.312 -1.2159  0.6788  1.2191
38106SOL    HW218775   4.502   5.837   9.417  0.8912  0.4488 -0.3583
38107SOL     OW18776   2.497   9.506   4.180  0.4425  0.8091  0.4899
38107SOL    HW118777   2.409   9.541   4.165 -0.2166 -0.9678  0.0311
38107SOL    HW218778   2.483   9.429   4.235  1.5611 -0.3312 -0.7859
38108SOL     OW18779   7.958   4.785   9.085  0.0570 -0.5277  0.0140
38108SOL    HW118780   7.997   4.759   9.169  0.0831 -0.6187 -0.0263
38108SOL    HW218781   8.011   4.859   9.056 -1.0731  0.7117  0.9762
38109SOL     OW18782   2.159   0.785   2.627  0.2116  0.3388 -0.2644
38109SOL    HW118783   2.176   0.697   2.661 -0.4171  0.4745  0.4141
38109SOL    HW218784   2.235   0.836   2.655 -0.5622  0.5864  1.4665
38110SOL     OW18785   4.931   3.754   1.573  0.2510  0.4903 -0.1035
38110SOL    HW118786   5.007   3.799   1.611 -0.0095  1.2738 -0.4803
38110SOL    HW218787   4.921   3.795   1.487 -0.6703  0.4731 -0.0083
38111SOL     OW18788   9.606   0.786  10.426  0.2356  0.2781  0.2018
38111SOL    HW118789   9.563   0.824  10.349  0.1840 -0.3476 -0.0901
38111SOL    HW218790   9.552   0.710  10.448  0.3556  0.3471  0.7462
38112SOL     OW18791   5.898   6.566   1.969  0.0040 -0.0985 -0.5011
38112SOL    HW118792   5.991   6.579   1.950  0.6810 -1.0979  1.6836
38112SOL    HW218793   5.886   6.471   1.963 -0.5761 -0.0907  0.3503
38113SOL     OW18794   4.908  10.372   1.448 -0.5122 -0.0828  0.7489
38113SOL    HW118795   4.968  10.375   1.373 -1.0017  1.0320  0.3817
38113SOL    HW218796   4.914  10.282   1.480  0.3645 -0.3376 -0.0890
38114SOL     OW18797   3.871   4.933   2.252  0.3714  0.0635  0.1378
38114SOL    HW118798   3.958   4.915   2.218  0.3236 -0.8350  0.4720
38114SOL    HW218799   3.884   5.004   2.315  0.5307  1.4288 -1.3516
38115SOL     OW18800   4.712   5.744   3.804 -0.1407 -0.0613 -0.9292
38115SOL    HW118801   4.647   5.673   3.812  0.5734 -0.7656 -1.2434
38115SOL    HW218802   4.689   5.789   3.723  0.4357 -1.0259 -1.6469
38116SOL     OW18803   3.869  10.947  10.877 -0.5551  0.2347 -0.3873
38116SOL    HW118804   3.797  11.007  10.858 -0.8997  0.0498  0.2891
38116SOL    HW218805   3.826  10.864  10.899 -0.1888  0.3748  0.9662
38117SOL     OW18806   4.221   5.552   5.497 -0.0323 -0.4692  0.3413
38117SOL    HW118807   4.143   5.596   5.530 -0.0688 -0.8195  0.7281
38117SOL    HW218808   4.219   5.567   5.402 -0.8590 -0.9248  0.2757
38118SOL     OW18809   6.253   7.137   9.453  0.1106  0.3645 -0.6142
38118SOL    HW118810   6.246   7.210   9.391 -0.2733  1.8036  1.0680
38118SOL    HW218811   6.209   7.064   9.408 -0.9808  1.6098 -1.6602
38119SOL     OW18812   2.806   7.374   3.565 -0.1367 -0.2283 -0.4125
38119SOL    HW118813   2.787   7.313   3.495  0.3659  1.1928 -1.8564
38119SOL    HW218814   2.782   7.328   3.645  0.2786 -2.2992 -1.4263
38120SOL     OW18815   2.040   7.159   3.795  0.1365 -0.1203  0.1118
38120SOL    HW118816   2.002   7.247   3.794  1.8669  0.7521 -2.4860
38120SOL    HW218817   1.971   7.103   3.760  0.2706  0.9978 -2.1689
38121SOL     OW18818   5.683   6.621   6.832 -0.8711 -0.4264  0.1378
38121SOL    HW118819   5.621   6.674   6.781 -1.2207 -0.2861  0.6981
38121SOL    HW218820   5.684   6.536   6.789  1.8562  0.7738 -2.5676
38122SOL     OW18821   9.379   3.837   6.237 -0.0154  0.5552  0.2850
38122SOL    HW118822   9.473   3.822   6.244 -0.0666 -0.7806 -1.1500
38122SOL    HW218823   9.364   3.922   6.279  1.5166 -0.0994  2.2979
38123SOL     OW18824   6.324   4.264   7.776  0.8054 -0.0117 -0.4295
38123SOL    HW118825   6.315   4.301   7.864  1.9697 -1.3284  0.2716
38123SOL    HW218826   6.307   4.338   7.718 -2.5871  0.3842  0.7878
38124SOL     OW18827   6.044  10.333   6.325 -0.3671  0.2041 -0.2410
38124SOL    HW118828   6.032  10.403   6.261  1.4120  1.1560  0.4127
38124SOL    HW218829   6.118  10.282   6.291 -0.7654 -0.5428 -0.0091
38125SOL     OW18830   8.348   7.924  10.395 -0.4339 -0.2769  0.2436
38125SOL    HW118831   8.265   7.965  10.369 -0.5560  0.1836  1.3018
38125SOL    HW218832   8.410   7.996  10.401  1.1964 -0.9753 -4.3502
38126SOL     OW18833   7.579  10.820   0.510  0.6715  0.2249 -0.8004
38126SOL    HW118834   7.550  10.729   0.505 -1.2120  0.7845 -0.8245
38126SOL    HW218835   7.611  10.830   0.600 -2.9254  0.5279  0.5983
38127SOL     OW18836   0.503   0.482   3.086  0.3177  0.1122 -0.2001
38127SOL    HW118837   0.544   0.543   3.024  0.2898  0.8965  0.5260
38127SOL    HW218838   0.565   0.411   3.095  0.5970  0.2917 -0.6560
38128SOL     OW18839   5.150   1.260   2.092 -0.1512  0.2627 -0.7215
38128SOL    HW118840   5.074   1.317   2.082  0.8037  1.5720 -0.7664
38128SOL    HW218841   5.193   1.261   2.007  0.1741 -0.0961 -0.5669
38129SOL     OW18842   7.534   3.704   8.388  0.1537 -0.1840 -0.0520
38129SOL    HW118843   7.554   3.697   8.294 -1.9243  0.7180 -0.6112
38129SOL    HW218844   7.440   3.684   8.394 -0.0282  1.0081  1.6695
38130SOL     OW18845  10.443   6.250   7.386 -0.0162  0.2437 -0.1376
38130SOL    HW118846  10.376   6.275   7.451  0.0012  2.4744 -0.8642
38130SOL    HW218847  10.443   6.155   7.387 -0.8146  0.1948  2.3112
38131SOL     OW18848  10.483   2.297   0.035  0.1543 -0.1040 -0.7208
38131SOL    HW118849  10.472   2.223   0.095 -1.2010  0.1606 -0.6077
38131SOL    HW218850  10.528   2.259  -0.041 -0.3976 -1.0292 -0.6085
38132SOL     OW18851   6.307  10.794   7.646  0.3009 -0.0253 -0.7531
38132SOL    HW118852   6.222  10.756   7.621 -0.7617  2.6919 -1.6046
38132SOL    HW218853   6.285  10.864   7.708  1.9306  0.7501 -0.9945
38133SOL     OW18854   7.317   9.784  10.314 -0.4157  0.0554  0.2650
38133SOL    HW118855   7.285   9.872  10.295  0.3252 -0.0761 -1.9301
38133SOL    HW218856   7.374   9.763  10.240  0.0052 -1.9962  1.0997
38134SOL     OW18857   3.862   4.911   1.218  0.0186 -0.3673 -0.2205
38134SOL    HW118858   3.894   4.994   1.255  0.4137 -0.9037  0.6549
38134SOL    HW218859   3.852   4.853   1.293 -1.9156 -0.5943 -0.6171
38135SOL     OW18860   9.817   2.830  10.226  0.0499  0.7395  0.6321
38135SOL    HW118861   9.869   2.750  10.228  0.6660  1.1337  1.0389
38135SOL    HW218862   9.781   2.837  10.315 -4.5423 -1.9189 -0.7144
38136SOL     OW18863   4.030   4.556   8.998 -0.6172  0.0495  0.3794
38136SOL    HW118864   3.952   4.607   9.021  0.1689  1.4028  0.1219
38136SOL    HW218865   4.052   4.585   8.910  0.4743  0.0786  0.6445
38137SOL     OW18866   7.243   2.978   7.666 -0.3656 -0.0795  0.3232
38137SOL    HW118867   7.260   3.030   7.745 -3.0953 -0.7655  1.4912
38137SOL    HW218868   7.156   3.007   7.638  0.7454  0.5614 -2.8591
38138SOL     OW18869   4.062   6.820   4.390 -0.1864  0.2946  0.2610
38138SOL    HW118870   4.006   6.755   4.432  0.9812 -0.0206  1.3993
38138SOL    HW218871   4.033   6.904   4.426 -0.9898  0.3178 -0.4059
38139SOL     OW18872   6.146   9.737   3.243 -0.1302 -0.5123 -0.7662
38139SOL    HW118873   6.148   9.831   3.259 -0.6015 -0.2144 -2.3233
38139SOL    HW218874   6.078   9.725   3.177 -1.5556 -2.1939  0.8829
38140SOL     OW18875   7.367   9.818   5.927  0.1451 -0.5773  0.0863
38140SOL    HW118876   7.422   9.878   5.978 -2.4124 -0.6994  3.3363
38140SOL    HW218877   7.398   9.731   5.950 -1.3650 -0.6515  2.0442
38141SOL     OW18878  10.264   9.072   8.332 -0.2129 -0.2936  0.1297
38141SOL    HW118879  10.269   9.150   8.277  2.1156  0.5421  1.3739
38141SOL    HW218880  10.354   9.038   8.333 -0.6639 -1.5381  1.6289
38142SOL     OW18881   8.196   6.516   4.654  0.3185 -0.1355  0.1339
38142SOL    HW118882   8.238   6.444   4.607 -0.3890  0.0814 -0.8688
38142SOL    HW218883   8.224   6.505   4.745  1.2523 -0.9113 -0.2298
38143SOL     OW18884   1.105   3.086   7.351 -0.1857 -0.1983 -0.1535
38143SOL    HW118885   1.181   3.098   7.294 -1.0521 -1.1045 -1.5501
38143SOL    HW218886   1.141   3.088   7.439  0.9906  3.0817 -0.5475
38144SOL     OW18887  10.524   4.322   5.826  0.0095  0.0578 -0.0312
38144SOL    HW118888  10.445   4.337   5.774  0.0142 -0.5558 -0.2201
38144SOL    HW218889  10.510   4.238   5.868 -0.3836  0.9443  1.7080
38145SOL     OW18890   3.169   3.660   8.793 -0.0137 -0.3310 -0.6839
38145SOL    HW118891   3.263   3.638   8.797  0.1545  0.0704 -1.9852
38145SOL    HW218892   3.167   3.755   8.783 -0.5931 -0.2496  0.1681
38146SOL     OW18893   2.132  10.133   7.818  0.0892  0.0415 -0.0629
38146SOL    HW118894   2.077  10.114   7.742 -0.9560  0.7040  0.5064
38146SOL    HW218895   2.214  10.166   7.781 -0.6845  1.0818 -0.9007
38147SOL     OW18896   1.050   7.344   1.595  0.3173  0.1360 -0.0069
38147SOL    HW118897   1.048   7.252   1.569 -1.9068  0.1988 -0.2548
38147SOL    HW218898   1.036   7.343   1.689  2.4552  0.1706  0.3531
38148SOL     OW18899   8.920   2.329   8.366  0.3799 -0.1261 -0.7867
38148SOL    HW118900   8.882   2.343   8.452 -0.0868 -2.4070 -0.5791
38148SOL    HW218901   8.970   2.248   8.374 -0.6501 -1.0444 -2.9441
38149SOL     OW18902   6.387  10.270   7.860  0.0187  0.1406 -0.0036
38149SOL    HW118903   6.394  10.365   7.856 -0.8505  0.2961  1.5315
38149SOL    HW218904   6.423  10.247   7.945 -0.7809 -0.8026  0.0915
38150SOL     OW18905   2.665   8.965   5.354 -0.2360  0.4511 -0.3207
38150SOL    HW118906   2.639   8.882   5.392 -0.4906  0.5310 -0.3177
38150SOL    HW218907   2.595   8.987   5.293 -0.6419  1.1201  0.3741
38151SOL     OW18908   7.237   7.199   6.591 -0.0698  0.3271 -0.0257
38151SOL    HW118909   7.152   7.193   6.635 -0.5067 -2.7145 -1.0000
38151SOL    HW218910   7.238   7.285   6.550 -3.1285  0.1303 -0.7336
38152SOL     OW18911   6.292   9.624   7.509 -0.4971  0.1596 -0.1021
38152SOL    HW118912   6.247   9.676   7.575 -0.6080 -0.3906  0.2575
38152SOL    HW218913   6.261   9.659   7.425 -3.4942 -1.7196  0.0653
38153SOL     OW18914   0.523   7.575   0.974 -0.9155 -0.2648  0.0950
38153SOL    HW118915   0.532   7.670   0.983  1.0328 -0.4244  0.1786
38153SOL    HW218916   0.559   7.540   1.055  0.1155 -1.1228 -0.7185
38154SOL     OW18917   7.742   2.692   6.119 -0.1639 -0.0574 -0.0283
38154SOL    HW118918   7.815   2.721   6.173  0.3230  0.7193 -1.0768
38154SOL    HW218919   7.670   2.752   6.143 -0.4220 -0.6805  0.8368
38155SOL     OW18920   3.588   1.785   1.992 -1.1853 -0.6932  0.0584
38155SOL    HW118921   3.626   1.743   1.916 -2.3937  0.0964 -1.0235
38155SOL    HW218922   3.664   1.813   2.044 -0.2034  1.2867 -2.2571
38156SOL     OW18923   0.065   0.490   7.602 -0.1646 -0.4794  0.0701
38156SOL    HW118924   0.089   0.399   7.581 -0.2945 -0.4134 -0.3948
38156SOL    HW218925  -0.003   0.482   7.669  0.3649 -0.6996  0.5835
38157SOL     OW18926   9.539   5.652   9.012  0.4616  0.1687  0.5287
38157SOL    HW118927   9.496   5.681   9.092 -0.6971  0.1610 -0.0623
38157SOL    HW218928   9.468   5.618   8.957  0.8673  2.2634 -1.4387
38158SOL     OW18929   1.266   2.261   1.518  0.4794 -0.0848  0.2648
38158SOL    HW118930   1.192   2.278   1.459  0.4085 -1.6198 -0.1341
38158SOL    HW218931   1.226   2.225   1.597  0.6879  0.5940  0.6846
38159SOL     OW18932   8.185   7.589   0.402 -0.0912 -0.3879  0.4603
38159SOL    HW118933   8.225   7.617   0.320  0.8787 -1.3486  0.5874
38159SOL    HW218934   8.109   7.538   0.375  0.2592 -0.7532  0.1594
38160SOL     OW18935   4.762   1.119   5.396 -0.0111 -0.0600  0.1197
38160SOL    HW118936   4.749   1.025   5.385  0.9997 -0.1040 -0.9655
38160SOL    HW218937   4.854   1.133   5.375  0.0130  1.0907  0.9138
38161SOL     OW18938   7.232  10.666   2.525 -0.1413 -0.3454  0.2796
38161SOL    HW118939   7.249  10.718   2.447  2.3721 -0.8537  0.4031
38161SOL    HW218940   7.176  10.594   2.494  0.9340 -0.6216 -1.1255
38162SOL     OW18941   7.328   6.011   5.455  0.3683  0.0401  0.3105
38162SOL    HW118942   7.330   5.917   5.437 -0.8870 -0.2595  1.6220
38162SOL    HW218943   7.364   6.051   5.375 -2.2442 -1.3486 -1.7345
38163SOL     OW18944   1.488  10.426   4.746  0.0732 -0.0533  0.7303
38163SOL    HW118945   1.582  10.431   4.766 -0.0763 -1.3058  1.9128
38163SOL    HW218946   1.449  10.495   4.800  0.2359  0.0232  0.7516
38164SOL     OW18947   3.390   5.090   2.520 -0.1198 -0.0837 -0.0162
38164SOL    HW118948   3.383   5.178   2.484  1.7852  0.4678  0.8489
38164SOL    HW218949   3.448   5.043   2.460  2.6606  0.6951  1.8334
38165SOL     OW18950   5.678  10.786   5.976 -0.7356  0.0261  0.6247
38165SOL    HW118951   5.607  10.843   5.945 -1.3437 -1.0686 -0.0809
38165SOL    HW218952   5.727  10.765   5.896 -0.7115 -0.6820  0.8271
38166SOL     OW18953   5.092   5.194   5.966  0.3517 -0.0845 -0.2961
38166SOL    HW118954   5.173   5.225   5.924  1.0200 -1.9280 -0.4988
38166SOL    HW218955   5.091   5.238   6.051  1.5128  0.0861 -0.3470
38167SOL     OW18956   0.098   3.104   8.253  0.9072 -0.0179  0.1525
38167SOL    HW118957   0.173   3.142   8.209 -0.6384 -0.4965 -3.2540
38167SOL    HW218958   0.130   3.021   8.288  2.0538 -0.0532 -0.9175
38168SOL     OW18959  10.517   3.298   8.036 -0.4416  0.2990  0.4595
38168SOL    HW118960  10.526   3.371   8.098 -0.1180 -0.0363  0.8120
38168SOL    HW218961  10.475   3.337   7.959  2.1625  1.4958 -0.4615
38169SOL     OW18962   8.995   9.784   8.820  0.2464 -0.0281  0.1396
38169SOL    HW118963   8.924   9.720   8.809  1.0906 -0.8155 -0.8807
38169SOL    HW218964   9.053   9.769   8.745  0.9369  1.3331  0.3752
38170SOL     OW18965  11.021  10.952   3.153  0.5123 -0.3987  0.2838
38170SOL    HW118966  11.075  10.882   3.189 -0.7363 -0.8397  1.4040
38170SOL    HW218967  11.015  11.016   3.224 -1.6703 -1.0870  0.7875
38171SOL     OW18968   3.370   6.658   4.469 -0.2031  0.5329 -1.0628
38171SOL    HW118969   3.457   6.624   4.489 -0.6157  0.0164 -0.0570
38171SOL    HW218970   3.386   6.741   4.423  0.8101  0.6423 -0.5394
38172SOL     OW18971   3.050   0.251   1.469  0.0632 -0.8798  0.1283
38172SOL    HW118972   3.121   0.296   1.514  0.9537  0.6756 -2.5971
38172SOL    HW218973   3.095   0.186   1.414 -0.9477 -2.5257  1.1911
38173SOL     OW18974   8.331   2.272   0.033 -0.1125 -0.2635  0.7836
38173SOL    HW118975   8.274   2.232  -0.033  0.4645 -1.2915  0.8827
38173SOL    HW218976   8.419   2.262  -0.003  0.1428 -0.1660  1.3768
38174SOL     OW18977   8.721   2.538   3.628 -0.3441 -0.6888 -0.4934
38174SOL    HW118978   8.675   2.562   3.548  0.5603  1.2928 -0.4810
38174SOL    HW218979   8.810   2.572   3.616  1.0068 -3.7759 -0.2255
38175SOL     OW18980   9.454   3.986   6.803 -0.4399  0.3195  0.0260
38175SOL    HW118981   9.385   3.963   6.865 -0.9928  2.7695  0.4437
38175SOL    HW218982   9.525   4.021   6.858  1.4226 -2.5242 -0.3479
38176SOL     OW18983   0.259   5.215   3.631 -0.1853 -0.4078  0.1011
38176SOL    HW118984   0.273   5.191   3.723 -0.4786 -0.2979  0.1779
38176SOL    HW218985   0.308   5.150   3.581 -1.0118 -1.2043  0.3040
38177SOL     OW18986  10.379   5.389   9.149 -0.1324 -0.0852 -0.3443
38177SOL    HW118987  10.360   5.360   9.060  1.3615 -1.5939 -0.2164
38177SOL    HW218988  10.314   5.344   9.204 -0.3587 -0.0048 -0.5440
38178SOL     OW18989   9.465   9.165   3.322  0.9240  0.1081 -0.5939
38178SOL    HW118990   9.540   9.113   3.351  1.3678  0.7260 -0.6240
38178SOL    HW218991   9.491   9.256   3.335  1.2189  0.4546 -3.0057
38179SOL     OW18992   2.764   4.335   0.665  0.3461  0.1707  0.0209
38179SOL    HW118993   2.821   4.280   0.612 -1.0666 -0.6953 -0.6656
38179SOL    HW218994   2.679   4.331   0.621 -1.0740 -1.0716  2.6181
38180SOL     OW18995  10.179   5.797   7.800  0.1936 -0.4472  0.9654
38180SOL    HW118996  10.144   5.864   7.858  1.8516  0.6399  0.7697
38180SOL    HW218997  10.267   5.827   7.778  0.1234 -1.5190 -1.0225
38181SOL     OW18998   0.330   2.439   4.959 -0.0080 -0.1782 -0.3263
38181SOL    HW118999   0.334   2.366   4.897 -2.2091 -0.7030  0.0806
38181SOL    HW219000   0.346   2.398   5.044  2.1176  0.4015 -0.3869
38182SOL     OW19001   8.588   4.788   7.425  0.0330  0.2365  0.0513
38182SOL    HW119002   8.584   4.694   7.405 -1.0714 -0.0891  1.6083
38182SOL    HW219003   8.681   4.806   7.438  0.0883 -1.3752  2.6681
38183SOL     OW19004   8.596   4.252   0.059  0.1255 -0.2415  0.4081
38183SOL    HW119005   8.648   4.332   0.055 -1.5165  0.8611  0.5237
38183SOL    HW219006   8.548   4.250  -0.024 -0.0491 -0.9642  0.5191
38184SOL     OW19007   4.526   0.043   5.423  0.0083 -0.2410 -0.0955
38184SOL    HW119008   4.555   0.102   5.493 -2.5602  1.4748 -0.3277
38184SOL    HW219009   4.525   0.098   5.344 -1.9084 -0.7033 -0.4424
38185SOL     OW19010   3.235   9.736   5.961  0.1325  0.1352 -0.3081
38185SOL    HW119011   3.220   9.669   6.028  0.5839  0.2359 -0.1031
38185SOL    HW219012   3.173   9.713   5.891 -1.7226  1.1408  0.9200
38186SOL     OW19013   4.392   8.904   4.218  0.5640  0.0001 -0.9200
38186SOL    HW119014   4.357   8.815   4.208 -0.4489  0.2784 -0.0168
38186SOL    HW219015   4.328   8.950   4.271  1.2478  1.1903 -1.0696
38187SOL     OW19016   8.602  10.167   4.232 -0.5275 -0.8622  0.0550
38187SOL    HW119017   8.661  10.188   4.160 -0.9504 -0.9676 -0.3290
38187SOL    HW219018   8.568  10.080   4.210 -1.4779 -0.4507 -0.1788
38188SOL     OW19019  10.966   6.917   5.563 -0.6661 -0.1070  0.0294
38188SOL    HW119020  10.954   6.990   5.503 -1.7725 -0.7369 -0.5614
38188SOL    HW219021  11.032   6.947   5.625 -1.3320  1.5123  0.0082
38189SOL     OW19022   7.628   7.199   7.304  0.4215 -0.7869 -0.0826
38189SOL    HW119023   7.640   7.285   7.264 -0.6701 -0.4343  0.3028
38189SOL    HW219024   7.713   7.156   7.294  0.6815 -0.0623 -1.2071
38190SOL     OW19025   6.115   8.077   3.121 -0.1569  0.1235  0.1380
38190SOL    HW119026   6.079   7.989   3.111  2.1250 -0.8087 -0.4114
38190SOL    HW219027   6.111   8.116   3.033  2.4066 -0.9609 -0.5469
38191SOL     OW19028   8.099   0.172   5.301 -0.1133  0.1392  0.0929
38191SOL    HW119029   8.140   0.198   5.218 -0.8312  1.6866  0.1911
38191SOL    HW219030   8.119   0.244   5.361  1.9982 -1.7682  1.8829
38192SOL     OW19031   8.380   6.789  11.018  0.3256 -0.1902 -0.1524
38192SOL    HW119032   8.441   6.715  11.013 -0.6834 -1.0383 -0.1903
38192SOL    HW219033   8.357   6.795  11.111  0.1241 -0.1408 -0.2070
38193SOL     OW19034   1.662  10.040   8.602  0.4631  0.3330  0.3307
38193SOL    HW119035   1.724   9.981   8.646 -0.3919 -0.9653 -0.1495
38193SOL    HW219036   1.588  10.046   8.663 -0.6512 -1.3302 -0.7740
38194SOL     OW19037   7.376   2.650   3.566  0.4771 -0.0397  0.0809
38194SOL    HW119038   7.321   2.698   3.627  1.7015 -1.0378  2.0630
38194SOL    HW219039   7.465   2.683   3.582  1.1798 -2.0970  0.6807
38195SOL     OW19040   1.919   7.752   3.282  0.1100 -0.3289  0.4059
38195SOL    HW119041   1.969   7.723   3.206  1.3963 -1.4746  1.6410
38195SOL    HW219042   1.983   7.760   3.352 -1.1926 -0.3404  1.6519
38196SOL     OW19043   5.770   4.321   5.270 -0.0938 -0.0841 -0.2041
38196SOL    HW119044   5.785   4.308   5.364 -0.5058 -1.9431 -0.3637
38196SOL    HW219045   5.758   4.415   5.261 -0.2187  0.1154  1.6404
38197SOL     OW19046   8.543   2.064   1.138  0.0542  0.2361  0.3821
38197SOL    HW119047   8.589   1.992   1.181 -0.8870 -0.3025  0.4948
38197SOL    HW219048   8.463   2.076   1.188 -1.2921 -0.6968 -1.4519
38198SOL     OW19049   7.127  10.470   0.659 -0.5970  0.1548  0.2149
38198SOL    HW119050   7.077  10.390   0.643  0.9835 -1.1218  1.2193
38198SOL    HW219051   7.073  10.522   0.718 -1.5344 -0.3132 -0.2265
38199SOL     OW19052   4.958   7.853   4.505 -0.1469 -0.1331  0.2483
38199SOL    HW119053   5.048   7.884   4.494 -0.2212 -0.3726 -1.3787
38199SOL    HW219054   4.908   7.933   4.523  0.1526  0.2673 -0.5944
38200SOL     OW19055   7.419  10.195   8.571 -0.2637  0.0191  0.4014
38200SOL    HW119056   7.497  10.252   8.570  0.2113 -0.5249  2.1272
38200SOL    HW219057   7.435  10.134   8.643 -1.7372 -0.9349 -0.0275
38201SOL     OW19058   0.728   9.301   8.941 -0.1896 -0.0570 -0.2323
38201SOL    HW119059   0.640   9.264   8.945 -0.2674 -0.0045 -1.2037
38201SOL    HW219060   0.729   9.351   8.860  0.3961  0.8422  0.3012
38202SOL     OW19061   4.655   8.284   0.751 -0.7053  0.8743  0.7443
38202SOL    HW119062   4.675   8.260   0.841  1.7239  2.2950  0.6755
38202SOL    HW219063   4.650   8.380   0.752  1.6402  1.1022 -0.9453
38203SOL     OW19064   2.192   8.391   4.282 -0.2395  0.0533 -0.3268
38203SOL    HW119065   2.177   8.482   4.254  2.3986  0.6544 -0.0446
38203SOL    HW219066   2.176   8.339   4.203 -0.9094  0.8458 -0.7288
38204SOL     OW19067   4.194   9.602   7.435 -0.5492  0.0425  0.3317
38204SOL    HW119068   4.277   9.568   7.466 -0.2936  0.2294 -0.1492
38204SOL    HW219069   4.217   9.673   7.375 -1.0301 -0.8407 -0.9152
38205SOL     OW19070   5.505   7.383   5.128  0.4552 -0.3076 -0.4215
38205SOL    HW119071   5.522   7.329   5.051 -0.1898 -0.8228 -0.2129
38205SOL    HW219072   5.575   7.362   5.189  0.6750 -0.2846 -0.6686
38206SOL     OW19073   3.840   8.318   1.327 -0.2462 -0.6748 -0.1042
38206SOL    HW119074   3.825   8.350   1.238 -0.6280  0.0791  0.2288
38206SOL    HW219075   3.871   8.228   1.314 -1.2910 -0.9354 -0.9702
38207SOL     OW19076  10.462   6.277   8.642 -0.0167 -0.0025 -0.6505
38207SOL    HW119077  10.431   6.358   8.600 -2.7158 -1.1679 -1.1397
38207SOL    HW219078  10.411   6.272   8.723  2.3208  0.2324  0.9422
38208SOL     OW19079  10.043   9.323  11.006 -0.2071  0.2544 -0.0513
38208SOL    HW119080  10.046   9.382  11.081  1.3175 -0.0959  0.1946
38208SOL    HW219081  10.131   9.288  11.000 -1.2635 -2.7812  0.4300
38209SOL     OW19082   2.813   4.954   6.806  1.1200  0.1762  0.1926
38209SOL    HW119083   2.847   5.031   6.852  0.8618  0.3131  0.1546
38209SOL    HW219084   2.722   4.946   6.835  0.9207  0.3266 -0.3728
38210SOL     OW19085   9.818   5.253   2.562 -0.2345 -0.4844  0.3611
38210SOL    HW119086   9.863   5.226   2.642 -3.5285 -0.7096  2.3347
38210SOL    HW219087   9.777   5.173   2.530 -0.0012 -0.1340 -0.8667
38211SOL     OW19088   0.137   6.561   0.513  0.1656  0.7975 -0.5682
38211SOL    HW119089   0.203   6.506   0.556  0.0653  0.0156 -1.3733
38211SOL    HW219090   0.054   6.522   0.539  0.0264  1.5705  0.1635
38212SOL     OW19091   9.123   5.427   3.057  0.1034 -0.2290  0.6005
38212SOL    HW119092   9.193   5.493   3.067 -0.5134  0.1369  3.2355
38212SOL    HW219093   9.168   5.350   3.022  1.2551  0.8853 -0.5001
38213SOL     OW19094   3.103   6.751   2.442  0.1743  0.3611 -0.1726
38213SOL    HW119095   3.199   6.740   2.443  0.1196 -0.0909  0.0997
38213SOL    HW219096   3.090   6.831   2.391  0.6777  0.1975 -0.5780
38214SOL     OW19097  10.626  10.408   1.439 -0.9663 -0.2146 -0.3810
38214SOL    HW119098  10.641  10.336   1.501  1.0402  0.4618  0.0166
38214SOL    HW219099  10.662  10.485   1.483 -0.5659  0.5056 -1.8903
38215SOL     OW19100   9.354   1.069  10.654 -0.0246 -0.1748  0.7873
38215SOL    HW119101   9.336   1.001  10.589 -1.6335  0.8491  0.1120
38215SOL    HW219102   9.402   1.137  10.606 -2.3513  1.1901  0.2363
38216SOL     OW19103   5.650   0.561   5.522  0.8027 -0.4746 -0.3350
38216SOL    HW119104   5.725   0.559   5.581 -0.1378  0.1740  0.9127
38216SOL    HW219105   5.577   0.526   5.573 -0.6207  2.4099 -0.1762
38217SOL     OW19106   0.948   7.239   9.013 -0.0769  0.3532  0.2486
38217SOL    HW119107   0.936   7.150   8.980  0.7065  0.5707 -0.6571
38217SOL    HW219108   0.860   7.274   9.020 -0.3146 -0.0009 -0.7958
38218SOL     OW19109   8.056   3.002   5.880 -0.3099 -0.1271 -0.6722
38218SOL    HW119110   8.059   3.047   5.796 -0.0917  0.1756 -0.5052
38218SOL    HW219111   7.967   3.017   5.912 -0.7130 -1.1017 -1.3069
38219SOL     OW19112  10.365   3.369   3.511  0.5400 -0.4122 -0.1255
38219SOL    HW119113  10.381   3.456   3.473  0.6755 -0.0530  0.7364
38219SOL    HW219114  10.432   3.360   3.579  0.4089 -1.1191 -0.0809
38220SOL     OW19115   8.472   1.113   0.437 -0.0984  0.0430 -0.1451
38220SOL    HW119116   8.408   1.054   0.477 -0.2637 -0.4149 -1.0598
38220SOL    HW219117   8.556   1.067   0.445 -0.3377 -0.6733 -1.5108
38221SOL     OW19118   4.446   3.160   2.069  0.6181  0.1515 -0.1684
38221SOL    HW119119   4.385   3.208   2.124 -0.0875 -1.7667  0.7935
38221SOL    HW219120   4.403   3.156   1.983  0.6401  1.1259 -0.2292
38222SOL     OW19121   6.623   1.642   0.481  0.4737 -0.2442  0.1278
38222SOL    HW119122   6.633   1.671   0.391 -0.0782  1.6479  0.6371
38222SOL    HW219123   6.698   1.681   0.526 -0.4549  0.7240  0.8911
38223SOL     OW19124   8.164  10.117   4.585 -0.7723 -0.3552  0.0644
38223SOL    HW119125   8.139  10.092   4.674  0.5874 -0.2854  0.4885
38223SOL    HW219126   8.259  10.111   4.584 -0.7270  0.1982 -1.2275
38224SOL     OW19127   5.834  10.756   1.537 -0.8061 -0.1077  0.1508
38224SOL    HW119128   5.900  10.798   1.590 -0.3819 -1.4360  0.7169
38224SOL    HW219129   5.883  10.707   1.471 -1.2459 -0.3261 -0.0243
38225SOL     OW19130   7.045   0.747   6.947  0.2598 -0.7216 -0.5648
38225SOL    HW119131   7.122   0.776   6.899 -0.1828 -0.4598 -1.1286
38225SOL    HW219132   7.021   0.664   6.905  1.4526 -1.8981  0.9614
38226SOL     OW19133  10.374   6.260   1.358  0.1986  0.4047 -0.3321
38226SOL    HW119134  10.435   6.205   1.310  0.1531 -0.6803  0.8008
38226SOL    HW219135  10.383   6.232   1.449 -2.1821 -0.0253 -0.1643
38227SOL     OW19136   7.317   0.365   7.753 -0.0660 -0.5774 -0.1072
38227SOL    HW119137   7.257   0.298   7.721  1.1639 -2.3485  1.0571
38227SOL    HW219138   7.316   0.354   7.848  1.6773 -0.3573 -0.0243
38228SOL     OW19139   7.846   7.898  10.104 -0.3649  0.6750 -0.3479
38228SOL    HW119140   7.881   7.976  10.147  1.1945 -0.3242  0.2756
38228SOL    HW219141   7.832   7.836  10.175 -0.0420 -0.1720 -1.0116
38229SOL     OW19142   0.267   3.874   5.331  0.1708 -0.3712 -0.1131
38229SOL    HW119143   0.180   3.836   5.322 -0.4864  1.0909 -0.1850
38229SOL    HW219144   0.325   3.813   5.285 -0.8492 -1.2033 -0.3243
38230SOL     OW19145   1.539   6.365   5.753 -0.1807 -0.5357 -0.6534
38230SOL    HW119146   1.472   6.432   5.742 -0.6312 -0.9262 -0.3292
38230SOL    HW219147   1.581   6.385   5.836 -0.0785 -0.4489 -0.7261
38231SOL     OW19148   4.554   2.782   8.283 -0.0101 -0.4421  0.2785
38231SOL    HW119149   4.612   2.751   8.213 -0.6591 -2.8188  0.7196
38231SOL    HW219150   4.471   2.739   8.266 -0.6706  0.2621  1.5746
38232SOL     OW19151   6.063   8.477   5.511 -0.0898 -0.1246  0.4186
38232SOL    HW119152   6.011   8.530   5.450  0.2187 -0.4551 -0.1426
38232SOL    HW219153   6.130   8.537   5.544  1.3294 -0.5425 -1.5123
38233SOL     OW19154   8.518   2.133   3.306 -0.0315 -0.2458 -0.1006
38233SOL    HW119155   8.600   2.124   3.354  0.3152  1.3182 -0.3656
38233SOL    HW219156   8.530   2.210   3.251 -0.6302 -1.6310 -2.3122
38234SOL     OW19157   2.297   1.797   0.846 -0.7317 -0.3134  0.4059
38234SOL    HW119158   2.303   1.760   0.934 -0.4776  0.7040  0.8290
38234SOL    HW219159   2.344   1.881   0.852 -1.7524  0.3374 -0.3830
38235SOL     OW19160   0.058   4.765   5.717  0.2501  0.1739 -0.8788
38235SOL    HW119161  -0.024   4.795   5.755 -0.1573 -0.6281 -1.1057
38235SOL    HW219162   0.060   4.804   5.629 -0.2834 -0.4599 -1.1790
38236SOL     OW19163   6.552   3.018   3.070  0.0297  0.2580 -0.4230
38236SOL    HW119164   6.479   2.995   3.128 -0.4463  3.3289  0.3623
38236SOL    HW219165   6.629   2.980   3.111 -0.8946 -2.0724 -0.6611
38237SOL     OW19166   3.035   7.746   2.762 -0.3422 -0.2095  0.7324
38237SOL    HW119167   3.014   7.756   2.669 -1.7982 -1.7472  0.8583
38237SOL    HW219168   3.120   7.702   2.762 -1.8498 -3.4580 -0.0219
38238SOL     OW19169   6.801  10.927   5.493  0.4629  0.0049 -0.1819
38238SOL    HW119170   6.789  10.847   5.440  0.2151  0.0609 -0.2108
38238SOL    HW219171   6.751  10.910   5.573 -0.8677  0.7299 -0.8183
38239SOL     OW19172   3.375   2.302   7.780  0.1929 -0.1074 -0.1295
38239SOL    HW119173   3.370   2.300   7.876 -0.1064 -1.4158 -0.1595
38239SOL    HW219174   3.378   2.395   7.759  0.1843  0.2064  1.1496
38240SOL     OW19175   9.247   4.390   1.237  0.5085 -0.5814 -0.5190
38240SOL    HW119176   9.306   4.322   1.271  1.1784 -0.0018 -0.4962
38240SOL    HW219177   9.282   4.411   1.150 -0.7232 -1.4824 -1.2751
38241SOL     OW19178   4.866   9.799   2.430 -0.4139 -0.5631  0.1134
38241SOL    HW119179   4.778   9.765   2.412 -0.7936  0.2942  0.2847
38241SOL    HW219180   4.869   9.882   2.383  0.9368 -1.3843 -1.3210
38242SOL     OW19181   5.823   4.943   5.001  0.2713  0.3740 -1.0920
38242SOL    HW119182   5.730   4.922   5.002  0.8922 -2.8995  1.3738
38242SOL    HW219183   5.843   4.971   5.090  2.0305 -1.0632 -0.9905
38243SOL     OW19184   5.583   3.642  10.428  0.4658 -0.6055 -0.1136
38243SOL    HW119185   5.617   3.698  10.357 -0.0801 -0.3360 -0.1721
38243SOL    HW219186   5.641   3.658  10.502  0.2389  0.1496 -0.0913
38244SOL     OW19187   7.172   2.368   4.622  0.2354 -0.6022 -0.1474
38244SOL    HW119188   7.131   2.391   4.538 -1.2337 -0.7123  0.5094
38244SOL    HW219189   7.153   2.275   4.634  1.9005 -1.0084 -0.4639
38245SOL     OW19190  10.570   3.547   0.311  0.2148  0.1688  0.1559
38245SOL    HW119191  10.531   3.596   0.239  0.6781  0.6956  0.2550
38245SOL    HW219192  10.552   3.455   0.291 -1.5888  0.4216  0.5094
38246SOL     OW19193   6.229  10.915  10.629 -0.2878 -0.0673 -0.4767
38246SOL    HW119194   6.322  10.913  10.607 -0.3251 -0.9469 -0.6012
38246SOL    HW219195   6.223  10.866  10.712 -0.7889 -1.1637 -1.1334
38247SOL     OW19196   3.866   2.080   1.349 -0.1561  0.0580  0.1254
38247SOL    HW119197   3.862   2.114   1.260  0.1036 -1.1897 -0.3933
38247SOL    HW219198   3.911   1.995   1.341 -1.5864 -0.8618  1.1819
38248SOL     OW19199   7.654   7.153  10.899  0.4684  0.4946 -0.3912
38248SOL    HW119200   7.678   7.238  10.936  2.6217 -0.3927  0.3866
38248SOL    HW219201   7.736   7.105  10.891 -0.5141 -1.0547 -2.0926
38249SOL     OW19202   6.796   4.509   0.990 -0.1191  0.1999  0.6487
38249SOL    HW119203   6.813   4.420   1.018  1.0738  0.2085  0.0239
38249SOL    HW219204   6.710   4.531   1.027 -1.1954 -1.7544 -0.5156
38250SOL     OW19205   1.479   9.955   3.099  0.0850  0.1339  0.2538
38250SOL    HW119206   1.438  10.027   3.052 -0.7107 -0.2327  0.3628
38250SOL    HW219207   1.572   9.976   3.100 -0.0860  0.9304 -0.1014
38251SOL     OW19208   9.937   2.796   1.497 -0.4949  0.2978 -0.0262
38251SOL    HW119209   9.939   2.758   1.584 -0.3945  1.0136  0.2908
38251SOL    HW219210   9.846   2.826   1.486 -0.9429 -1.2195 -0.8119
38252SOL     OW19211   3.499   1.648   4.793  0.4321  0.4861 -0.1164
38252SOL    HW119212   3.437   1.577   4.777 -0.0250  1.0463 -0.9405
38252SOL    HW219213   3.449   1.727   4.772  1.8275  0.8859 -2.2263
38253SOL     OW19214   2.222   0.877   4.383  0.0881  0.2547 -0.5694
38253SOL    HW119215   2.131   0.877   4.354  0.4155  0.3834 -1.6574
38253SOL    HW219216   2.269   0.831   4.313  0.9431  0.7342 -0.3209
38254SOL     OW19217   9.766  10.877  10.137 -0.9217  0.0059 -0.6537
38254SOL    HW119218   9.780  10.961  10.180 -0.5650  0.4645 -1.6359
38254SOL    HW219219   9.799  10.812  10.200 -0.6388  0.6349 -0.1403
38255SOL     OW19220   5.723  10.587   5.004  0.4240  0.2101 -0.4155
38255SOL    HW119221   5.763  10.668   5.036 -0.6424  1.3146 -1.7379
38255SOL    HW219222   5.792  10.544   4.954  0.7440  0.7343 -0.4272
38256SOL     OW19223  10.315   5.695   1.616 -0.2695  0.5793  0.4858
38256SOL    HW119224  10.372   5.620   1.637  1.0703  1.4388  0.0347
38256SOL    HW219225  10.274   5.718   1.699 -0.7679 -0.6841  0.6221
38257SOL     OW19226   6.696   0.331   2.151  0.3853  0.0037  0.0165
38257SOL    HW119227   6.703   0.251   2.203  0.1835 -0.3959 -0.5601
38257SOL    HW219228   6.786   0.356   2.132  0.4764  0.4480  0.9991
38258SOL     OW19229  10.436  10.666   6.916 -1.0280 -0.3876  0.1596
38258SOL    HW119230  10.500  10.595   6.927  1.8018  2.0513  0.7350
38258SOL    HW219231  10.439  10.686   6.822 -1.1088 -0.3963  0.1548
38259SOL     OW19232   3.541   6.876   9.899 -0.5105  0.3473 -0.2556
38259SOL    HW119233   3.545   6.812   9.971 -0.2379  0.5212 -0.1162
38259SOL    HW219234   3.626   6.870   9.856 -0.7999 -0.0180 -0.7975
38260SOL     OW19235   5.708   3.020   3.049 -0.0044  0.5960  0.0999
38260SOL    HW119236   5.626   2.974   3.035 -0.8744  1.8902  0.7402
38260SOL    HW219237   5.747   3.027   2.962 -0.7320  0.2613 -0.2555
38261SOL     OW19238   5.306   8.831   0.858  0.3354  0.0840  0.0487
38261SOL    HW119239   5.269   8.916   0.881  0.1662 -0.4702  2.0535
38261SOL    HW219240   5.399   8.840   0.876  0.6134  0.3742 -1.4785
38262SOL     OW19241   6.949   2.984   5.910 -0.1128 -0.2502 -0.0181
38262SOL    HW119242   6.932   3.058   5.852 -0.1005  0.0013  0.2950
38262SOL    HW219243   7.044   2.988   5.925 -0.1741 -0.0852  0.3249
38263SOL     OW19244   6.327   6.136   1.198  0.2362 -0.3723  0.1677
38263SOL    HW119245   6.327   6.060   1.139 -1.1435 -0.0177 -0.3334
38263SOL    HW219246   6.266   6.197   1.157  1.2452  0.9716  0.6251
38264SOL     OW19247   9.070   2.949  10.495 -0.3535  0.1031  0.0825
38264SOL    HW119248   9.150   3.001  10.495  1.2877 -2.1871  1.8284
38264SOL    HW219249   9.091   2.873  10.441 -1.9296  0.1816 -0.6924
38265SOL     OW19250   1.260   6.699   3.112  0.8225 -0.5225 -0.5991
38265SOL    HW119251   1.208   6.740   3.181  2.5348 -0.5080  0.7637
38265SOL    HW219252   1.293   6.772   3.060  0.5408 -0.4392 -0.6574
38266SOL     OW19253   0.807   0.374   1.710  0.1369 -0.1618  0.3030
38266SOL    HW119254   0.816   0.280   1.695 -0.5019 -0.4845  1.7682
38266SOL    HW219255   0.746   0.404   1.643 -0.1935 -0.9321  0.2529
38267SOL     OW19256   1.571   6.930   1.798  0.6168  0.0431  0.5304
38267SOL    HW119257   1.596   7.000   1.858  0.9088  1.0717 -0.7396
38267SOL    HW219258   1.643   6.868   1.802  2.1818  1.6491 -1.0550
38268SOL     OW19259   8.514  10.392   2.639  0.5020 -0.6535 -0.5029
38268SOL    HW119260   8.488  10.462   2.698  1.0267 -1.5541  0.8569
38268SOL    HW219261   8.438  10.380   2.582  0.1857  0.6067 -0.3740
38269SOL     OW19262  10.867   5.144   6.788  0.3870  0.5731 -0.3148
38269SOL    HW119263  10.951   5.175   6.754  2.3399 -0.3091  3.1664
38269SOL    HW219264  10.847   5.066   6.736  1.7059  0.8477 -1.2855
38270SOL     OW19265   7.398   1.298   4.572 -0.0055 -0.3120  0.0372
38270SOL    HW119266   7.482   1.296   4.526  0.4778 -1.1544  0.9138
38270SOL    HW219267   7.349   1.224   4.535  0.0753 -0.5037  0.3126
38271SOL     OW19268   9.269   3.112  10.943  0.8340  0.2916 -0.0606
38271SOL    HW119269   9.228   3.031  10.911  0.1301  0.2728  0.8518
38271SOL    HW219270   9.241   3.118  11.034  1.0996  1.4359 -0.0486
38272SOL     OW19271   7.779   2.836   1.106  0.2801  0.7432 -0.0619
38272SOL    HW119272   7.751   2.836   1.198 -2.8556  1.9999 -0.8839
38272SOL    HW219273   7.781   2.928   1.082  0.7739  0.4128 -1.3427
38273SOL     OW19274   7.689   0.446   1.974 -0.1416 -0.0217 -0.1774
38273SOL    HW119275   7.749   0.517   1.998 -0.1815  0.3686 -1.1624
38273SOL    HW219276   7.604   0.474   2.008  0.4222 -1.2732  2.5648
38274SOL     OW19277   4.030   7.585   7.937 -0.2282 -0.0882  0.2267
38274SOL    HW119278   3.998   7.504   7.976  0.0257 -0.0270  0.5609
38274SOL    HW219279   4.037   7.647   8.010 -0.7613  0.3466 -0.0794
38275SOL     OW19280   9.967   7.823   4.494  0.2664 -0.8263  0.7178
38275SOL    HW119281   9.971   7.739   4.449 -0.5482 -1.1241  1.1798
38275SOL    HW219282   9.879   7.825   4.533 -0.9640  1.5484 -1.8231
38276SOL     OW19283   3.847   2.801   2.779 -0.1516 -0.1926 -0.5998
38276SOL    HW119284   3.878   2.778   2.691 -1.2773 -0.7223 -0.8770
38276SOL    HW219285   3.869   2.894   2.788  0.2196 -0.1964 -1.3391
38277SOL     OW19286   6.474   2.560   7.392  0.2531  0.3379 -0.1939
38277SOL    HW119287   6.450   2.548   7.484  1.6467 -2.1203 -0.0620
38277SOL    HW219288   6.411   2.624   7.359 -0.8499  0.6216  2.2283
38278SOL     OW19289   0.717   4.330   2.977  0.1174 -0.1488 -0.7590
38278SOL    HW119290   0.746   4.367   3.060 -0.8726 -0.6532 -0.1716
38278SOL    HW219291   0.647   4.388   2.947  0.8571  0.3640 -1.5518
38279SOL     OW19292   8.305   3.515   2.125 -0.0168  0.0707  0.2181
38279SOL    HW119293   8.236   3.509   2.059  0.5017 -2.7069 -0.2120
38279SOL    HW219294   8.383   3.539   2.075 -0.0455  0.1101  0.1915
38280SOL     OW19295   0.044   0.354   5.000  0.0880  0.1888 -0.0815
38280SOL    HW119296   0.069   0.264   5.017 -0.1357 -0.3857 -2.3999
38280SOL    HW219297  -0.043   0.363   5.039 -0.6800 -1.2104 -1.3608
38281SOL     OW19298   8.813   2.294   9.437  0.8451 -0.0755  0.3697
38281SOL    HW119299   8.742   2.308   9.375  1.3774  0.2340 -0.1832
38281SOL    HW219300   8.829   2.380   9.476  0.7989 -0.1808  0.6221
38282SOL     OW19301   6.832   8.374   9.641 -0.7637  0.4376  0.1794
38282SOL    HW119302   6.908   8.330   9.603 -1.2376 -1.4459  1.2517
38282SOL    HW219303   6.777   8.398   9.566  1.0945  2.3969 -0.6643
38283SOL     OW19304   7.035   6.188   1.691  0.8326  0.5350 -0.0963
38283SOL    HW119305   7.023   6.236   1.773  2.3693  0.5997  0.1244
38283SOL    HW219306   7.101   6.121   1.711 -2.1066 -2.6553 -0.0197
38284SOL     OW19307   1.285  10.582   2.228  0.3221 -0.0399  0.6818
38284SOL    HW119308   1.378  10.603   2.221  0.2776 -0.0358  0.0143
38284SOL    HW219309   1.259  10.616   2.313  0.7932  0.5056  0.6116
38285SOL     OW19310   0.503   2.810   0.560  0.2951 -0.4157  0.1583
38285SOL    HW119311   0.520   2.882   0.500 -0.1141  0.1799  0.7441
38285SOL    HW219312   0.547   2.735   0.520 -0.3059 -0.1356 -1.0930
38286SOL     OW19313   0.224   8.194   8.915  0.5031  0.0164 -0.3816
38286SOL    HW119314   0.295   8.258   8.901  1.2911 -1.0686 -1.5708
38286SOL    HW219315   0.168   8.204   8.838 -0.3304  0.4466  0.2649
38287SOL     OW19316   6.956   0.973   2.660  0.0414  0.0066 -0.3994
38287SOL    HW119317   7.029   1.032   2.643  0.3351  0.0615  0.9662
38287SOL    HW219318   6.959   0.957   2.754 -0.6618 -1.3710 -0.5921
38288SOL     OW19319   9.783   1.035   5.098  0.6945  0.1384 -0.2209
38288SOL    HW119320   9.694   1.012   5.073 -0.0491  2.5002 -0.0654
38288SOL    HW219321   9.788   1.130   5.081  2.9689  0.1756  0.3812
38289SOL     OW19322   6.996   7.712   7.626 -0.2496  0.2503  0.0534
38289SOL    HW119323   7.026   7.689   7.714 -0.0590  0.6470  0.0980
38289SOL    HW219324   7.033   7.800   7.611  0.7192 -0.2822 -0.8744
38290SOL     OW19325   6.875   0.789   7.829 -0.1919  0.5223 -0.1976
38290SOL    HW119326   6.919   0.704   7.824  0.0496  0.5599  1.0747
38290SOL    HW219327   6.945   0.853   7.813  0.0499  0.5458  0.8860
38291SOL     OW19328   9.533   5.180   8.488  0.4928 -0.2555  0.1414
38291SOL    HW119329   9.577   5.260   8.515  1.0861 -0.6583  0.4021
38291SOL    HW219330   9.466   5.208   8.426  0.3341  0.4939  0.6351
38292SOL     OW19331   9.795   7.208   4.127  0.4253 -0.5057 -0.0531
38292SOL    HW119332   9.854   7.230   4.199  0.1747  1.2317 -0.3350
38292SOL    HW219333   9.781   7.114   4.136  2.9232 -0.9150  0.2452
38293SOL     OW19334   3.163   5.160   4.149  0.4650 -0.2872  0.0095
38293SOL    HW119335   3.077   5.119   4.139  1.1112 -1.6778 -0.1044
38293SOL    HW219336   3.189   5.184   4.060  0.3468 -0.1851  0.0021
38294SOL     OW19337   1.287   8.194   5.111 -0.4360  0.0848 -0.5976
38294SOL    HW119338   1.278   8.264   5.046  0.5473  0.1124 -0.7199
38294SOL    HW219339   1.305   8.239   5.193 -1.1015  0.0229 -0.4088
38295SOL     OW19340   1.363   6.312   3.940  0.2175  0.3539  0.2629
38295SOL    HW119341   1.369   6.248   3.869  0.4547  0.0766  0.5235
38295SOL    HW219342   1.300   6.377   3.910 -1.3689 -0.9120  0.6869
38296SOL     OW19343   3.869   6.864   2.257  0.5068  0.2538  0.0791
38296SOL    HW119344   3.779   6.899   2.260  0.6811  0.6767  1.0527
38296SOL    HW219345   3.903   6.892   2.172  0.1133  1.1457  0.2007
38297SOL     OW19346   3.576   1.356   8.722 -0.2715 -0.1951  0.0568
38297SOL    HW119347   3.573   1.263   8.700 -0.6630 -0.7069  2.0717
38297SOL    HW219348   3.573   1.401   8.637  0.9302 -2.0097 -1.0066
38298SOL     OW19349   9.706   7.780   7.563  0.1269 -0.2121  0.2617
38298SOL    HW119350   9.655   7.820   7.633  0.4634  2.1203 -0.7342
38298SOL    HW219351   9.789   7.757   7.603 -0.4567 -0.9254  1.0987
38299SOL     OW19352   7.076   6.171   3.321 -0.7606  0.2264  0.8538
38299SOL    HW119353   7.084   6.264   3.343 -2.3967  0.5917  0.0370
38299SOL    HW219354   7.019   6.135   3.389 -1.8543  0.3024  0.0038
38300SOL     OW19355  10.694   9.409   7.026  0.2765 -0.6431  0.4014
38300SOL    HW119356  10.745   9.365   6.957 -0.2970 -1.1286  0.2818
38300SOL    HW219357  10.716   9.361   7.106 -1.0692 -1.8052  0.1261
38301SOL     OW19358   8.846   7.069  10.465 -0.5073  0.1401 -0.2092
38301SOL    HW119359   8.891   7.001  10.515 -0.7745  0.7505  0.8866
38301SOL    HW219360   8.894   7.074  10.382 -0.1400 -0.9821 -0.0801
38302SOL     OW19361   1.492  10.389   5.129  0.6782 -0.9340  0.1254
38302SOL    HW119362   1.416  10.404   5.073 -0.5517 -0.8579  1.7341
38302SOL    HW219363   1.483  10.298   5.157 -0.1550 -0.2798  2.1555
38303SOL     OW19364   4.769   8.673   7.456  0.2509 -0.1176 -0.0710
38303SOL    HW119365   4.827   8.650   7.528 -0.2415 -0.3571  0.2597
38303SOL    HW219366   4.698   8.722   7.497 -0.2366 -0.5914 -0.3337
38304SOL     OW19367   0.091   5.917   5.144  0.3520  0.1483 -0.3101
38304SOL    HW119368   0.150   5.979   5.187  0.0489  0.2353 -0.0149
38304SOL    HW219369   0.100   5.837   5.195 -0.5759  0.4719  0.3984
38305SOL     OW19370   8.755   8.683   4.879  0.0953 -0.4600 -0.1676
38305SOL    HW119371   8.847   8.708   4.865  0.0368  0.3045  0.6479
38305SOL    HW219372   8.707   8.766   4.876 -0.5007 -0.7961 -0.1146
38306SOL     OW19373   0.132   5.256   9.309 -0.8360  0.4869  0.0398
38306SOL    HW119374   0.185   5.200   9.366 -0.2646 -0.0271 -0.9734
38306SOL    HW219375   0.045   5.252   9.347 -0.4660  0.1737  0.8934
38307SOL     OW19376   3.896  10.903   5.471 -0.2734 -0.3611  0.1318
38307SOL    HW119377   3.894  10.811   5.499  1.9711 -0.4915  0.0459
38307SOL    HW219378   3.908  10.899   5.376 -2.0094  0.0713 -0.1412
38308SOL     OW19379  10.335   1.654   6.689  0.2826  0.0443 -0.5839
38308SOL    HW119380  10.281   1.699   6.754 -1.4325 -1.2358 -1.0581
38308SOL    HW219381  10.403   1.611   6.740 -0.7457 -0.5393  0.3498
38309SOL     OW19382  10.292   5.524   0.475 -0.8488  0.5675 -0.6311
38309SOL    HW119383  10.328   5.436   0.490 -1.0905  0.6816  0.7113
38309SOL    HW219384  10.368   5.578   0.452 -0.6302  0.1307 -0.9588
38310SOL     OW19385   8.599   9.460   0.825  0.0652  0.0521 -0.0466
38310SOL    HW119386   8.558   9.378   0.851  1.2028  0.1473  2.3081
38310SOL    HW219387   8.654   9.437   0.750  0.5716 -1.4334  0.7260
38311SOL     OW19388   1.852   1.888   8.181  0.1265  0.2300 -0.3037
38311SOL    HW119389   1.938   1.879   8.222 -0.6401 -1.7745  1.0162
38311SOL    HW219390   1.865   1.855   8.091  0.5390 -1.1199  0.2179
38312SOL     OW19391  10.991  10.607   7.257 -0.4227 -0.0183  0.0334
38312SOL    HW119392  11.058  10.588   7.323  0.3512  2.1939 -0.0459
38312SOL    HW219393  11.038  10.603   7.174 -0.6528  0.4236 -0.1162
38313SOL     OW19394   5.371   1.398   1.592  0.4301 -0.1239  0.1193
38313SOL    HW119395   5.449   1.351   1.619  0.2812  0.7819  2.3083
38313SOL    HW219396   5.300   1.358   1.642 -0.2678  0.0677 -0.6941
38314SOL     OW19397   9.697   0.889   0.997 -0.0046 -0.0075 -0.2104
38314SOL    HW119398   9.792   0.886   0.989 -0.0276  0.6623 -0.8289
38314SOL    HW219399   9.679   0.969   1.046 -0.2730  0.1225 -0.5198
38315SOL     OW19400   3.167   0.026   0.976 -0.0725  0.0958 -0.3670
38315SOL    HW119401   3.162   0.033   0.881  3.5117 -2.2000 -0.9347
38315SOL    HW219402   3.242   0.080   1.000 -2.2342  2.4776  1.6063
38316SOL     OW19403   7.640   0.302   4.422 -0.2609  0.2296  0.0940
38316SOL    HW119404   7.731   0.331   4.413 -0.1083 -0.6343 -1.8154
38316SOL    HW219405   7.638   0.255   4.505  0.3536  2.4610  1.4554
38317SOL     OW19406   4.919   7.619   1.244  0.2736 -0.0424 -0.2629
38317SOL    HW119407   4.936   7.695   1.299 -0.8849  0.3334 -0.3937
38317SOL    HW219408   4.851   7.648   1.183 -0.7120 -1.3862  0.1550
38318SOL     OW19409   1.571   2.527   4.389  0.6035  0.0979  0.3273
38318SOL    HW119410   1.629   2.517   4.313 -0.5371  0.5476 -0.6254
38318SOL    HW219411   1.586   2.618   4.418  2.2994 -0.5681  1.7462
38319SOL     OW19412   8.452   7.823   8.220 -0.4215  0.9532 -0.4812
38319SOL    HW119413   8.451   7.846   8.127 -0.6066 -2.8519 -1.5710
38319SOL    HW219414   8.367   7.780   8.235  1.1907 -2.2476  0.2542
38320SOL     OW19415   3.529   8.046   5.346  0.0392 -0.3864  0.0449
38320SOL    HW119416   3.438   8.040   5.318  0.1122  0.8487 -0.5072
38320SOL    HW219417   3.554   8.137   5.328  0.5471  0.0804  2.7235
38321SOL     OW19418   2.085   9.349   5.867  0.2161 -0.1779  0.3688
38321SOL    HW119419   2.165   9.322   5.912  0.7231 -0.3953 -0.6384
38321SOL    HW219420   2.029   9.271   5.866  0.9629 -0.7319 -0.9837
38322SOL     OW19421   7.875   4.642  10.157 -1.0645  0.1033  0.3706
38322SOL    HW119422   7.940   4.571  10.160  1.3659  2.0939 -1.0654
38322SOL    HW219423   7.836   4.635  10.070 -1.2928  0.1421  0.4698
38323SOL     OW19424  10.867   7.275   9.010  0.1745  0.4100 -0.2393
38323SOL    HW119425  10.873   7.296   9.103  0.4851 -0.2227 -0.1122
38323SOL    HW219426  10.876   7.180   9.006 -0.8820  0.3263 -0.8304
38324SOL     OW19427   8.954   8.161   6.408 -0.2205  0.8282 -0.9277
38324SOL    HW119428   9.015   8.187   6.477 -0.8596  1.2137 -0.4878
38324SOL    HW219429   8.983   8.074   6.381  0.2463  0.8194 -0.4127
38325SOL     OW19430   2.613   3.166   3.482 -0.6817 -0.5190 -0.1714
38325SOL    HW119431   2.525   3.193   3.455 -0.5959 -0.9485 -0.9054
38325SOL    HW219432   2.611   3.170   3.577 -0.6952  2.0217 -0.2007
38326SOL     OW19433   1.529   4.651   2.885 -0.0775 -0.3942 -0.0939
38326SOL    HW119434   1.481   4.706   2.824 -0.0981  0.1505  0.4036
38326SOL    HW219435   1.612   4.697   2.898 -0.2397 -0.2860  0.6063
38327SOL     OW19436   3.309   2.811   8.654  0.1646  0.1567 -0.2245
38327SOL    HW119437   3.227   2.832   8.609  0.5944 -0.8265 -1.5187
38327SOL    HW219438   3.337   2.728   8.616  2.0424  0.7254 -0.2061
38328SOL     OW19439   0.778   8.280  10.751  0.1561 -0.1756  0.0299
38328SOL    HW119440   0.776   8.215  10.821  1.7341 -1.7978 -1.3046
38328SOL    HW219441   0.732   8.239  10.678  1.3864  0.0493 -0.9203
38329SOL     OW19442   3.002   2.872   4.681  0.0046 -0.3249 -0.4764
38329SOL    HW119443   3.015   2.967   4.687  0.3983 -0.4502  1.1875
38329SOL    HW219444   2.915   2.857   4.719  0.8584 -0.8069  1.4126
38330SOL     OW19445   2.196   1.198   5.756 -0.0420  0.7672 -0.5935
38330SOL    HW119446   2.231   1.216   5.669  1.0971  0.8214 -0.1431
38330SOL    HW219447   2.271   1.164   5.805 -1.2014 -1.7194 -0.3468
38331SOL     OW19448   2.657   6.354   4.286  0.0039  0.0659  0.0091
38331SOL    HW119449   2.597   6.281   4.304  0.1229 -0.1588 -0.4881
38331SOL    HW219450   2.658   6.405   4.367 -0.5511 -0.1514  0.1565
38332SOL     OW19451  11.028   4.283   9.782 -0.0637  0.2972 -0.5057
38332SOL    HW119452  10.970   4.274   9.858  0.1186 -0.4817 -0.4494
38332SOL    HW219453  11.103   4.332   9.815 -0.4162  0.7980 -0.4310
38333SOL     OW19454   5.429   7.281  10.415  0.4421 -0.1564  0.0887
38333SOL    HW119455   5.341   7.249  10.435 -0.1803 -0.6624 -2.9663
38333SOL    HW219456   5.415   7.354  10.354  2.0870  2.1731  2.2730
38334SOL     OW19457   2.259   7.194   6.541 -0.1363 -0.7437  0.3201
38334SOL    HW119458   2.327   7.150   6.593  0.7650  1.0823  0.7560
38334SOL    HW219459   2.283   7.287   6.543 -0.8281 -0.4358 -2.2696
38335SOL     OW19460   5.863   4.918   5.303 -0.1329  0.1196  0.0863
38335SOL    HW119461   5.768   4.912   5.293  0.0904 -0.9732 -1.9278
38335SOL    HW219462   5.891   4.827   5.315  0.6938  0.3959  0.2612
38336SOL     OW19463   4.540   6.376   2.606 -0.3701 -0.1317  0.2436
38336SOL    HW119464   4.465   6.322   2.632  0.1375 -1.0027 -0.0409
38336SOL    HW219465   4.587   6.322   2.543  0.6066  0.3225  0.5651
38337SOL     OW19466   7.965   1.091   1.923 -0.0237  0.1192 -0.6294
38337SOL    HW119467   7.909   1.061   1.994  1.2357  0.0535  0.3671
38337SOL    HW219468   7.965   1.020   1.860 -2.3091  0.7528 -1.4318
38338SOL     OW19469   3.769   0.299   1.815  0.0280  0.0312  0.3926
38338SOL    HW119470   3.762   0.355   1.893  0.4081  1.1485 -0.3425
38338SOL    HW219471   3.728   0.217   1.840 -0.6584  0.6837  1.4842
38339SOL     OW19472   7.604   4.755   3.716  0.0417 -0.2373  0.6172
38339SOL    HW119473   7.659   4.677   3.725  0.8401  0.0676 -1.2342
38339SOL    HW219474   7.531   4.727   3.661 -0.5741 -0.0962  1.3448
38340SOL     OW19475  10.672   2.704   9.903  0.5809 -0.2024  0.0225
38340SOL    HW119476  10.653   2.771   9.968 -0.7861 -1.7304  1.2990
38340SOL    HW219477  10.627   2.733   9.824  0.7251  0.7742  0.2880
38341SOL     OW19478   3.273   1.255   2.068  0.2415  0.4579  0.0560
38341SOL    HW119479   3.234   1.168   2.076  1.1915  0.0687  0.7156
38341SOL    HW219480   3.210   1.313   2.110  0.2650 -0.1263  0.9268
38342SOL     OW19481   9.056   3.362   2.848  0.6344  0.2787 -0.2795
38342SOL    HW119482   9.060   3.273   2.813  1.8309  0.7392 -1.4050
38342SOL    HW219483   9.139   3.402   2.821 -0.2964  2.0441 -0.6460
38343SOL     OW19484   3.312   2.749   5.458  0.4429  0.4217  0.8876
38343SOL    HW119485   3.259   2.824   5.483  0.8688  1.0432  0.0185
38343SOL    HW219486   3.397   2.764   5.500  0.5508  0.4700  0.6571
38344SOL     OW19487   7.241  10.102   5.066 -0.0995 -0.4038 -0.3484
38344SOL    HW119488   7.166  10.158   5.045  0.0263  0.2584  0.8507
38344SOL    HW219489   7.289  10.094   4.984 -0.4827  0.7130 -0.7032
38345SOL     OW19490   6.214  10.839   6.909 -0.1312  0.1356 -0.4261
38345SOL    HW119491   6.293  10.893   6.905  0.7452 -0.8982  1.5941
38345SOL    HW219492   6.180  10.853   6.998 -2.7482  1.1940 -1.4967
38346SOL     OW19493   3.612  11.058   4.899 -0.3536  0.1321  0.6419
38346SOL    HW119494   3.678  11.127   4.900 -0.3538  0.3032 -2.2140
38346SOL    HW219495   3.659  10.980   4.928  0.8174  0.4962 -0.2010
38347SOL     OW19496   2.442   6.236   5.058 -0.3075 -0.2597  0.0331
38347SOL    HW119497   2.464   6.325   5.031  0.5293 -0.4655  0.0015
38347SOL    HW219498   2.524   6.188   5.048 -1.2146 -1.5364 -2.0355
38348SOL     OW19499   9.137   0.338   2.792 -0.3616 -0.1161  0.8449
38348SOL    HW119500   9.179   0.255   2.769 -0.0278  0.6622 -1.6900
38348SOL    HW219501   9.043   0.320   2.785 -0.3939  0.4873 -3.7558
38349SOL     OW19502   2.391   0.181   9.043 -0.0605  0.1603 -0.0597
38349SOL    HW119503   2.315   0.149   8.995  0.6194 -0.1504 -0.9682
38349SOL    HW219504   2.445   0.103   9.058  0.6575  0.5446 -0.5370
38350SOL     OW19505   9.231   8.667   3.021 -0.0959 -0.2564 -0.0926
38350SOL    HW119506   9.272   8.648   3.105 -1.0453  0.3766  0.5231
38350SOL    HW219507   9.298   8.643   2.956  0.8409 -0.2514  0.8476
38351SOL     OW19508   5.523   0.017   8.691 -0.0936  0.0173 -0.0812
38351SOL    HW119509   5.582  -0.026   8.753  0.3045 -1.3028 -1.3195
38351SOL    HW219510   5.435  -0.006   8.723  0.0382  1.1989  1.2223
38352SOL     OW19511   8.429   0.984   9.693  0.2050  0.2277 -0.1451
38352SOL    HW119512   8.453   0.980   9.600  0.3058 -0.0732 -0.1095
38352SOL    HW219513   8.348   0.933   9.698  0.0287  0.5098 -0.1195
38353SOL     OW19514   4.641   6.340   6.706  0.2168  0.3663  0.4191
38353SOL    HW119515   4.574   6.394   6.663 -1.6602 -1.1134  1.2996
38353SOL    HW219516   4.668   6.392   6.782 -2.7058 -0.4160  2.1507
38354SOL     OW19517   9.796  10.032  11.027  0.1788 -0.2411  0.8942
38354SOL    HW119518   9.765  10.072  11.108 -0.8942 -0.4996  0.6175
38354SOL    HW219519   9.804   9.939  11.047  1.2818 -0.1143  1.1091
38355SOL     OW19520   1.470   8.388   3.198 -0.3565 -0.0119  0.1257
38355SOL    HW119521   1.412   8.403   3.123 -0.7070  0.7463  0.5352
38355SOL    HW219522   1.537   8.456   3.189  1.1053 -1.5211 -0.9328
38356SOL     OW19523   9.848   0.971   7.375 -0.3945 -0.7681  0.2685
38356SOL    HW119524   9.808   1.034   7.315  0.5013  1.3076  1.7334
38356SOL    HW219525   9.940   0.998   7.381  0.0587 -2.3408  0.8163
38357SOL     OW19526   1.652   9.284  10.532 -0.5239  0.3796 -0.0075
38357SOL    HW119527   1.572   9.251  10.490 -0.5428 -0.0985  0.3981
38357SOL    HW219528   1.644   9.257  10.623 -0.2181  0.9311  0.1876
38358SOL     OW19529   6.440   9.621   0.107  0.2333  0.1230  0.0003
38358SOL    HW119530   6.506   9.614   0.038  0.5763  0.5317  0.2803
38358SOL    HW219531   6.398   9.705   0.092 -0.5426 -0.3359 -0.4493
38359SOL     OW19532   2.168  10.627   1.409 -0.0818 -1.0091  0.7425
38359SOL    HW119533   2.156  10.715   1.446  1.5103 -0.1924 -0.5547
38359SOL    HW219534   2.169  10.569   1.485 -2.0569 -0.0530  1.5722
38360SOL     OW19535   4.454   6.969   2.287  0.2740  0.5819 -0.1547
38360SOL    HW119536   4.462   7.050   2.236  0.4156  1.1624  0.7582
38360SOL    HW219537   4.539   6.926   2.277  0.5785  1.0818  0.2129
38361SOL     OW19538   7.630   3.175   4.568 -0.1736  0.1838 -0.5912
38361SOL    HW119539   7.704   3.202   4.622 -0.8664 -0.8431  0.9575
38361SOL    HW219540   7.591   3.101   4.616 -0.7028 -0.9385 -2.6338
38362SOL     OW19541   3.162   5.356   4.927 -0.6061 -0.4237 -0.6292
38362SOL    HW119542   3.080   5.308   4.921 -1.6556  1.4541 -3.1142
38362SOL    HW219543   3.170   5.401   4.843  1.1952  2.2432  0.8008
38363SOL     OW19544   9.613   6.710   0.392  0.0142  0.5113 -0.6666
38363SOL    HW119545   9.586   6.631   0.439  2.1137 -0.8818 -1.6234
38363SOL    HW219546   9.667   6.758   0.454  1.8721 -0.7718 -1.2143
38364SOL     OW19547   5.675   4.547   0.055 -0.4464 -0.5461 -0.1200
38364SOL    HW119548   5.685   4.638   0.027  0.7339 -1.4370 -2.9930
38364SOL    HW219549   5.684   4.550   0.151  1.1234  2.1665 -0.2470
38365SOL     OW19550   2.973   3.507   2.420 -0.4284 -0.2528 -0.0446
38365SOL    HW119551   3.060   3.500   2.381 -0.2895 -0.4472  0.3040
38365SOL    HW219552   2.958   3.601   2.428 -1.0967 -0.1531 -2.0031
38366SOL     OW19553   0.816   2.084   5.613 -0.3114  0.2048 -0.0366
38366SOL    HW119554   0.753   2.011   5.612 -0.8020  0.6115 -1.0997
38366SOL    HW219555   0.892   2.050   5.565  0.2100 -0.2163  1.0674
38367SOL     OW19556   6.759   5.517   1.426  0.7656  0.0536  0.0390
38367SOL    HW119557   6.830   5.571   1.461 -0.0325  1.5026 -0.4964
38367SOL    HW219558   6.712   5.487   1.504  2.0901 -1.1502  0.4138
38368SOL     OW19559   4.857   9.354  10.633  0.7039 -0.1338 -0.3112
38368SOL    HW119560   4.778   9.300  10.640  0.9837 -0.6614 -1.1193
38368SOL    HW219561   4.841   9.410  10.557  1.0752 -0.1814 -0.4228
38369SOL     OW19562   9.338   2.173   4.821  0.4830 -0.0813  0.2099
38369SOL    HW119563   9.337   2.097   4.879 -3.5059 -0.0676  0.4387
38369SOL    HW219564   9.338   2.248   4.880  2.2197  0.1022  0.0168
38370SOL     OW19565   9.261   6.777  10.285 -0.1446  0.1139  0.1256
38370SOL    HW119566   9.334   6.768  10.224  0.6525 -1.4116  1.2400
38370SOL    HW219567   9.190   6.729  10.243  0.6042 -1.5219  0.6498
38371SOL     OW19568   3.228   2.971  10.813  0.2091 -0.3927  0.1185
38371SOL    HW119569   3.138   3.002  10.817  0.7941  1.3805  0.8410
38371SOL    HW219570   3.258   2.997  10.725  0.6110  0.9224  0.6201
38372SOL     OW19571  10.387   0.600   4.688 -0.4284 -0.3859  0.3025
38372SOL    HW119572  10.344   0.524   4.727 -0.8737 -0.1168  0.3401
38372SOL    HW219573  10.437   0.639   4.759 -1.5492  0.3295  0.7240
38373SOL     OW19574   2.328   0.726   5.533  0.6795 -0.1845  0.5543
38373SOL    HW119575   2.395   0.719   5.600  1.5773 -1.5440 -0.4383
38373SOL    HW219576   2.302   0.818   5.535  2.8467  0.4747  0.7138
38374SOL     OW19577   4.494   4.039   4.048  0.7000 -0.0150 -0.1907
38374SOL    HW119578   4.533   4.099   3.985  2.7878 -0.6468  0.4105
38374SOL    HW219579   4.566   3.982   4.075 -0.6206 -1.1468  1.1588
38375SOL     OW19580   9.131   4.544   0.929  0.0924  0.3108 -0.3861
38375SOL    HW119581   9.212   4.498   0.907 -0.0654 -0.2043  0.0992
38375SOL    HW219582   9.155   4.637   0.927  1.0975  0.1275  1.2531
38376SOL     OW19583   6.474   5.966   4.593 -0.4558  0.3101  0.8990
38376SOL    HW119584   6.476   5.870   4.593 -0.7526  0.2673 -0.9528
38376SOL    HW219585   6.413   5.988   4.663 -2.6303 -0.9859 -0.4436
38377SOL     OW19586  11.013   8.734   5.981 -0.4388  0.6698 -0.1040
38377SOL    HW119587  10.980   8.645   5.975  1.0949  0.0832 -0.1924
38377SOL    HW219588  11.079   8.731   6.050  0.1472  1.5785 -0.6021
38378SOL     OW19589   0.652   6.495   5.232  0.4161 -0.3346 -0.3970
38378SOL    HW119590   0.709   6.565   5.202 -0.8615  1.3077  0.8311
38378SOL    HW219591   0.610   6.462   5.153 -0.6346  1.8454 -0.7985
38379SOL     OW19592   8.516   3.843   3.561 -0.3071  0.3600 -0.1856
38379SOL    HW119593   8.611   3.850   3.551 -0.1017 -0.6159  0.8604
38379SOL    HW219594   8.494   3.759   3.520 -0.7188  0.5935 -0.4428
38380SOL     OW19595   2.343   8.098   7.538 -0.1488 -0.1021  0.0452
38380SOL    HW119596   2.393   8.150   7.601 -0.1156 -1.5510  1.2766
38380SOL    HW219597   2.405   8.080   7.467  0.2853  0.2541  0.3296
38381SOL     OW19598   1.012   9.181   5.010 -0.0145 -0.7090 -0.2681
38381SOL    HW119599   0.927   9.143   5.032  0.4196 -0.9097  1.1687
38381SOL    HW219600   1.076   9.117   5.041  0.7585  1.3117  2.6999
38382SOL     OW19601   4.719   7.463   8.869 -0.3850 -0.4165  0.3220
38382SOL    HW119602   4.677   7.477   8.954 -3.0619  0.4550 -1.0477
38382SOL    HW219603   4.719   7.549   8.827 -0.1636 -1.0438 -1.0178
38383SOL     OW19604   1.680   8.644   3.555  0.3281 -0.3058 -0.0990
38383SOL    HW119605   1.755   8.585   3.562  0.5400 -0.0869 -0.5213
38383SOL    HW219606   1.633   8.633   3.638  0.7159 -0.5940  0.0831
38384SOL     OW19607   6.337   4.167   9.604  0.3445  0.0433 -0.1863
38384SOL    HW119608   6.326   4.162   9.509  0.5559  2.4129 -0.3842
38384SOL    HW219609   6.404   4.102   9.624 -0.5059 -1.3048 -1.4662
38385SOL     OW19610   3.959   3.530   4.811  0.4116  0.3709  0.0580
38385SOL    HW119611   3.945   3.447   4.857 -1.3507  0.3654 -0.4121
38385SOL    HW219612   4.045   3.521   4.770  0.3750 -1.1065  0.2591
38386SOL     OW19613   8.620   0.316   4.516  0.2916  0.0796 -0.0778
38386SOL    HW119614   8.600   0.406   4.539 -1.9563 -0.5084  0.5927
38386SOL    HW219615   8.715   0.314   4.502  0.3354  2.5993 -0.5304
38387SOL     OW19616  10.243  10.753   4.371  0.1297  0.0650 -0.0978
38387SOL    HW119617  10.191  10.689   4.419  0.1890  0.1601  0.0961
38387SOL    HW219618  10.288  10.803   4.440 -0.6427  0.9324 -0.1998
38388SOL     OW19619   7.269   7.336   1.773 -0.2348 -0.1799  0.2692
38388SOL    HW119620   7.293   7.404   1.710 -0.8540 -0.6794 -0.5225
38388SOL    HW219621   7.204   7.283   1.727 -1.8630  0.3461  1.8677
38389SOL     OW19622   9.786  10.409   8.535 -0.2571 -0.3277 -0.5588
38389SOL    HW119623   9.790  10.355   8.614  0.5362 -0.9128 -0.9989
38389SOL    HW219624   9.852  10.477   8.550 -0.3901 -0.2003 -0.5465
38390SOL     OW19625   9.027  10.757   3.623 -0.5739  0.2002 -0.7266
38390SOL    HW119626   9.057  10.801   3.702 -0.3901 -0.2432 -0.5446
38390SOL    HW219627   9.105  10.715   3.587 -1.0150 -1.3711  0.0164
38391SOL     OW19628   6.942   8.439   1.527 -0.1449 -0.1275  0.2090
38391SOL    HW119629   6.908   8.410   1.611 -0.5311  0.7020  0.3481
38391SOL    HW219630   6.877   8.410   1.463  0.1283 -0.7204  0.1956
38392SOL     OW19631   4.027   2.001   3.395  0.0761  0.1096 -0.0568
38392SOL    HW119632   3.985   1.922   3.429  0.5781  0.3756  1.2485
38392SOL    HW219633   4.084   1.969   3.325  0.4372 -0.7299  0.5984
38393SOL     OW19634   6.385   0.663   0.863  0.0697  0.1702  0.7989
38393SOL    HW119635   6.317   0.601   0.888 -0.2361 -0.0239 -0.4336
38393SOL    HW219636   6.384   0.662   0.767  1.7399  0.2362  0.7501
38394SOL     OW19637   1.465   8.206   4.546 -0.0783  0.4803  0.4872
38394SOL    HW119638   1.372   8.188   4.559 -0.1746  1.1858  0.8102
38394SOL    HW219639   1.476   8.297   4.571  0.1848  1.2622 -2.1365
38395SOL     OW19640   5.183   6.699   0.646 -0.0924 -0.1460  0.0974
38395SOL    HW119641   5.190   6.692   0.741  0.4756  2.3960  0.3197
38395SOL    HW219642   5.135   6.780   0.631  0.0577 -0.3592 -1.7806
38396SOL     OW19643   5.473   3.464   8.069  0.3466 -0.1074 -0.5145
38396SOL    HW119644   5.393   3.447   8.018 -0.6258 -1.1123  1.2273
38396SOL    HW219645   5.480   3.388   8.128  1.7887  0.6658  0.3690
38397SOL     OW19646   8.248   2.384   9.426 -0.1579  0.1895 -0.0249
38397SOL    HW119647   8.292   2.330   9.491 -0.4514 -1.3712 -1.0817
38397SOL    HW219648   8.302   2.463   9.419  0.5615 -0.1820  1.1646
38398SOL     OW19649  10.735   5.992   1.019 -0.1418 -0.2579 -0.4881
38398SOL    HW119650  10.712   6.083   1.004  1.1064 -0.3516 -3.6734
38398SOL    HW219651  10.665   5.942   0.976 -1.4741 -0.9390  2.2558
38399SOL     OW19652  10.964   0.851   4.839 -0.7099  0.1431 -0.6395
38399SOL    HW119653  11.048   0.810   4.859 -1.1124  0.0883  1.1394
38399SOL    HW219654  10.969   0.872   4.746  1.3984  0.4205 -0.5229
38400SOL     OW19655   9.888   9.602   7.907 -0.1443 -0.1301 -0.4027
38400SOL    HW119656   9.945   9.679   7.907  0.7823 -0.7640 -2.4015
38400SOL    HW219657   9.944   9.531   7.937 -1.3890  0.1189  2.9646
38401SOL     OW19658   2.512   0.891   8.648 -0.0187  0.3288  0.3375
38401SOL    HW119659   2.436   0.848   8.608 -0.3323 -0.0781  1.3481
38401SOL    HW219660   2.517   0.975   8.603 -1.9923  1.0060  1.2468
38402SOL     OW19661   4.582   7.431   3.225  0.0731 -0.5686 -0.2864
38402SOL    HW119662   4.669   7.391   3.233  2.7584  4.5267  0.5131
38402SOL    HW219663   4.543   7.422   3.311  1.2695 -0.2189  0.3194
38403SOL     OW19664   4.300   7.464   7.667  0.0122  0.2706 -0.9482
38403SOL    HW119665   4.358   7.407   7.717  1.5551  0.6808 -2.1565
38403SOL    HW219666   4.264   7.407   7.599 -1.3629 -0.0786  0.0489
38404SOL     OW19667   6.603   8.592   8.169  0.5629  0.3180  0.0255
38404SOL    HW119668   6.643   8.562   8.088 -0.6891 -0.2346 -0.3978
38404SOL    HW219669   6.554   8.670   8.144  0.2087  0.1710  0.2613
38405SOL     OW19670   4.330   2.294  10.928  0.3168 -0.4206  0.1106
38405SOL    HW119671   4.399   2.360  10.914 -0.7191  0.7158  0.1302
38405SOL    HW219672   4.353   2.251  11.010  0.6960  0.3507  0.4166
38406SOL     OW19673   7.203   8.144   9.055  0.3561  0.7183  0.3610
38406SOL    HW119674   7.113   8.117   9.038  0.1395  0.3240  1.9524
38406SOL    HW219675   7.195   8.212   9.122  1.2370  0.8373  0.3571
38407SOL     OW19676   1.597   9.444   5.775  0.0361 -1.1487 -0.0730
38407SOL    HW119677   1.537   9.486   5.837 -0.0832 -0.5432 -0.5856
38407SOL    HW219678   1.654   9.516   5.745 -1.0417 -1.0412 -1.9956
38408SOL     OW19679   6.981  10.515   4.067  0.2081  0.3768  0.0282
38408SOL    HW119680   6.933  10.432   4.068  0.1667  0.3971  0.9500
38408SOL    HW219681   7.071  10.491   4.046  0.1606  0.1198  0.1194
38409SOL     OW19682   0.370   7.266  11.031 -0.4780  0.1919  0.4247
38409SOL    HW119683   0.274   7.273  11.024 -0.4520 -0.7723 -1.6317
38409SOL    HW219684   0.403   7.327  10.965  0.2028 -1.6933 -1.0688
38410SOL     OW19685   7.081   2.612   4.252 -0.6133 -0.0542 -0.3762
38410SOL    HW119686   7.058   2.656   4.334 -0.4422  1.5201 -1.1513
38410SOL    HW219687   7.052   2.521   4.265 -1.5871  0.4227  0.9938
38411SOL     OW19688   2.309   7.543   2.005  0.5389 -0.6922 -0.4296
38411SOL    HW119689   2.259   7.579   2.078  3.8115  1.5411  0.9887
38411SOL    HW219690   2.275   7.588   1.928 -0.7996 -0.6436  0.1616
38412SOL     OW19691   9.233   8.448  10.641 -0.0033  0.4743  1.4807
38412SOL    HW119692   9.152   8.406  10.612 -0.6026  2.3437  0.2432
38412SOL    HW219693   9.215   8.542  10.634  1.6360  0.9694  3.0688
38413SOL     OW19694   3.387   6.679   3.793  0.0892 -0.3515 -0.1553
38413SOL    HW119695   3.359   6.731   3.868 -0.4510 -0.2701 -0.4082
38413SOL    HW219696   3.433   6.604   3.832  0.7537  0.2319  0.2146
38414SOL     OW19697   1.910  10.435   1.102 -0.5915 -0.0592 -0.3084
38414SOL    HW119698   1.866  10.407   1.181 -1.4934  0.3859 -0.6333
38414SOL    HW219699   1.875  10.523   1.085 -0.3668 -0.1212 -1.1533
38415SOL     OW19700   3.622   8.831   2.302  0.4618 -0.6180 -0.5107
38415SOL    HW119701   3.620   8.927   2.299  0.8084 -0.5754  0.4253
38415SOL    HW219702   3.539   8.806   2.342  0.0496 -0.7508 -1.4271
38416SOL     OW19703   0.438   8.905   4.593 -0.1493  0.0881  0.1208
38416SOL    HW119704   0.518   8.956   4.608  0.8682 -0.6428 -2.3563
38416SOL    HW219705   0.421   8.863   4.677  2.0132  0.3395  0.7570
38417SOL     OW19706  10.613   7.150   9.248 -0.3574  0.8457  0.1640
38417SOL    HW119707  10.567   7.067   9.240 -0.5990  0.8394  1.4455
38417SOL    HW219708  10.591   7.198   9.168 -2.6592  0.8905  0.7837
38418SOL     OW19709   4.759   4.336   8.882  0.2662 -0.6408  0.1964
38418SOL    HW119710   4.847   4.301   8.869 -0.5876 -2.0403 -2.6827
38418SOL    HW219711   4.745   4.331   8.977  3.0084 -0.9573  0.6656
38419SOL     OW19712   6.660   2.446   0.176  0.1247 -0.1007 -0.2943
38419SOL    HW119713   6.571   2.415   0.195 -0.3171 -1.3028 -3.5941
38419SOL    HW219714   6.648   2.536   0.148  0.0546 -0.0186 -0.0020
38420SOL     OW19715   4.676   1.602   4.206  0.9483  0.8443  0.0256
38420SOL    HW119716   4.766   1.593   4.175  0.8119 -1.2239  0.0739
38420SOL    HW219717   4.643   1.680   4.162  1.7506 -0.1889 -2.6714
38421SOL     OW19718   6.803   2.397  10.550  0.4818 -0.8702  0.0326
38421SOL    HW119719   6.796   2.317  10.498 -0.0373  0.2179 -1.6741
38421SOL    HW219720   6.713   2.423  10.566  0.6398 -0.3599  0.1083
38422SOL     OW19721   5.684   1.067   8.717 -0.3803  0.1021  0.2544
38422SOL    HW119722   5.774   1.079   8.688 -0.6970 -0.7596 -1.1958
38422SOL    HW219723   5.692   1.030   8.805  0.7039 -0.7449 -0.1825
38423SOL     OW19724   5.239   7.705   8.669  0.0493  0.1122  0.1387
38423SOL    HW119725   5.313   7.653   8.701 -0.6350 -0.0737  1.4904
38423SOL    HW219726   5.250   7.706   8.574  0.3085 -2.1905  0.0938
38424SOL     OW19727   5.454   0.525   2.716  0.3528  0.1326 -0.0065
38424SOL    HW119728   5.362   0.515   2.692  0.9778 -1.6259 -2.0300
38424SOL    HW219729   5.501   0.471   2.652  2.7997  1.0029  0.9407
38425SOL     OW19730   7.304   3.600   5.005  0.0354  0.5930 -0.4812
38425SOL    HW119731   7.260   3.675   4.965  0.7529  0.8482 -0.8011
38425SOL    HW219732   7.265   3.594   5.093  1.7045  2.9010  0.5198
38426SOL     OW19733   6.730   4.006  10.578  0.2192  0.2756  0.1295
38426SOL    HW119734   6.704   4.098  10.587 -0.3699  0.0628  0.7084
38426SOL    HW219735   6.656   3.957  10.613  0.5764 -0.4192 -0.0752
38427SOL     OW19736   4.559   0.553   2.452 -0.0935  0.6729  0.9301
38427SOL    HW119737   4.649   0.584   2.467 -1.0002  2.8296  2.3822
38427SOL    HW219738   4.551   0.474   2.505  0.9806  0.3455  0.6344
38428SOL     OW19739   6.699  10.331  10.087  0.5655 -0.5608 -0.3369
38428SOL    HW119740   6.680  10.290  10.171 -2.4867  0.1787 -0.5485
38428SOL    HW219741   6.766  10.276  10.048 -0.9270 -3.4132  0.8194
38429SOL     OW19742   0.621   4.573   1.284  0.1588 -0.3604  0.8712
38429SOL    HW119743   0.606   4.632   1.211 -1.5934  0.0628  1.5261
38429SOL    HW219744   0.699   4.523   1.259  0.5848  0.9269 -0.5096
38430SOL     OW19745   8.947  10.535   4.672 -0.8260 -0.3335  0.1577
38430SOL    HW119746   8.858  10.535   4.707 -1.1591  1.3274 -0.5927
38430SOL    HW219747   8.945  10.598   4.600  0.6912 -1.1077 -0.6267
38431SOL     OW19748   3.559   0.226   8.009 -0.1248  0.0467  0.2226
38431SOL    HW119749   3.578   0.241   7.916  0.5334 -0.3905  0.2734
38431SOL    HW219750   3.536   0.133   8.014  1.8259 -0.4722  0.7564
38432SOL     OW19751   6.267   6.844   4.423 -0.0578  0.0501 -0.1086
38432SOL    HW119752   6.309   6.833   4.508 -0.9166  1.9759  0.6281
38432SOL    HW219753   6.194   6.782   4.424  1.5538 -1.9415 -0.6292
38433SOL     OW19754   6.679   0.050   0.515 -0.0767  0.3131 -0.4139
38433SOL    HW119755   6.665  -0.044   0.501 -1.4381  0.2504  1.1314
38433SOL    HW219756   6.721   0.056   0.601 -0.9828  1.1585 -0.0130
38434SOL     OW19757   9.211   3.416   2.450 -0.8520  0.3866  0.4341
38434SOL    HW119758   9.205   3.433   2.356  1.1437  0.2153  0.2311
38434SOL    HW219759   9.149   3.344   2.465 -1.7700  0.9346 -0.5875
38435SOL     OW19760   3.026   2.898   1.417 -0.1921 -0.1293 -0.3210
38435SOL    HW119761   3.029   2.873   1.325 -1.9812 -0.9336 -0.2022
38435SOL    HW219762   2.997   2.818   1.462  2.4383 -0.3333  1.2158
38436SOL     OW19763   2.943   5.805   6.874 -0.0325 -0.2386 -0.0452
38436SOL    HW119764   2.947   5.812   6.969  2.1715 -1.4429  0.0225
38436SOL    HW219765   2.871   5.744   6.858  0.4546 -1.1223  0.9692
38437SOL     OW19766   0.223  10.633   7.970  0.5445 -0.0914  0.3841
38437SOL    HW119767   0.144  10.685   7.984  1.0382  1.6743 -2.5455
38437SOL    HW219768   0.245  10.598   8.057 -0.9996  2.8940  2.1142
38438SOL     OW19769   8.523   9.793   7.782 -0.3398  0.3721  0.7312
38438SOL    HW119770   8.552   9.884   7.784 -1.0496  0.6393 -0.2594
38438SOL    HW219771   8.570   9.751   7.854  2.2008  0.8669 -0.5088
38439SOL     OW19772   8.825   3.449   2.342  0.8114  0.2732 -0.1370
38439SOL    HW119773   8.864   3.523   2.389  0.1468 -0.1163  1.0606
38439SOL    HW219774   8.832   3.375   2.403 -2.9880  0.4691  0.7642
38440SOL     OW19775  10.511   6.294   0.250 -0.4057 -0.0731 -0.3662
38440SOL    HW119776  10.538   6.371   0.301 -1.2527  0.3209 -0.5013
38440SOL    HW219777  10.584   6.278   0.190  0.1088  0.1521  0.1826
38441SOL     OW19778   1.608   5.820   4.913  0.0774  0.7444 -0.3604
38441SOL    HW119779   1.515   5.843   4.923 -0.0121  0.3877 -0.3476
38441SOL    HW219780   1.607   5.725   4.898  0.5026  0.5697  0.6373
38442SOL     OW19781  10.055   4.233   9.167  0.0568 -0.4514  0.1228
38442SOL    HW119782  10.063   4.266   9.078  1.7228 -2.4320 -0.5389
38442SOL    HW219783  10.132   4.266   9.212 -0.6974  0.4077  0.8090
38443SOL     OW19784   8.605  11.060  10.639  0.0711  0.2094 -0.1768
38443SOL    HW119785   8.597  11.111  10.558 -1.3144  1.6318  0.8022
38443SOL    HW219786   8.519  11.021  10.651  1.0823 -2.4070 -0.8602
38444SOL     OW19787   8.219   8.498   0.452  0.2098  0.0825  0.4076
38444SOL    HW119788   8.178   8.432   0.396 -2.1692  1.7810 -0.0112
38444SOL    HW219789   8.154   8.514   0.520  1.1903  1.2689  1.0997
38445SOL     OW19790   1.943   8.753   0.553  0.7021  0.3233  0.3357
38445SOL    HW119791   1.952   8.848   0.559 -0.2492  0.3904  1.0186
38445SOL    HW219792   1.953   8.734   0.460  4.4694  0.6406  0.5063
38446SOL     OW19793   7.872  10.162  10.008 -0.4479  0.4273 -0.6273
38446SOL    HW119794   7.894  10.079  10.051  1.6238  0.7745 -0.9033
38446SOL    HW219795   7.909  10.229  10.065 -2.5210  1.2543 -0.1512
38447SOL     OW19796   2.412   6.160   0.815  0.4973  0.1077  0.6696
38447SOL    HW119797   2.386   6.082   0.766  0.0746  0.0604  0.9594
38447SOL    HW219798   2.419   6.129   0.906  2.6877 -0.1508  0.4561
38448SOL     OW19799   0.170   4.069  10.666 -0.0999 -0.1478  0.0535
38448SOL    HW119800   0.101   4.069  10.731 -1.9081  0.7004 -1.7622
38448SOL    HW219801   0.125   4.079  10.582  2.0187 -2.0975 -1.4622
38449SOL     OW19802   7.609   3.452   8.426  0.0079 -0.1172 -0.2829
38449SOL    HW119803   7.580   3.543   8.434 -1.0564 -0.3364 -1.4704
38449SOL    HW219804   7.538   3.407   8.381  2.0547 -0.6983 -3.2777
38450SOL     OW19805   4.040   9.887   3.256  0.5354  0.0566  0.0518
38450SOL    HW119806   3.953   9.919   3.235 -0.1926 -1.5174  0.5174
38450SOL    HW219807   4.030   9.840   3.338  1.7916 -0.3084  0.0277
38451SOL     OW19808   6.425   1.022   4.984 -0.1364 -0.3284 -0.3332
38451SOL    HW119809   6.425   1.022   5.080 -1.0518 -1.0167 -0.3195
38451SOL    HW219810   6.432   1.114   4.960 -1.6688  0.0120  0.4210
38452SOL     OW19811   9.490   5.907   2.240  0.4439  0.0502  0.2863
38452SOL    HW119812   9.561   5.919   2.177 -0.7934  0.9341 -0.9954
38452SOL    HW219813   9.476   5.813   2.244  0.3718 -0.0040 -0.9739
38453SOL     OW19814   2.325   2.088   8.203  0.0422 -0.0918  0.1058
38453SOL    HW119815   2.414   2.077   8.235  1.1854  0.8089 -2.4796
38453SOL    HW219816   2.329   2.063   8.111 -2.4828 -0.3773 -0.0022
38454SOL     OW19817   4.863   7.059  10.177  0.0459  0.2862  0.4600
38454SOL    HW119818   4.946   7.020  10.152 -0.5008 -0.4588 -0.1966
38454SOL    HW219819   4.807   6.985  10.201 -0.4817  0.7725  0.7643
38455SOL     OW19820   1.071   1.972  11.029  0.1580 -0.3121  0.3737
38455SOL    HW119821   1.074   2.051  11.083  1.2439 -0.4277  0.5024
38455SOL    HW219822   0.999   1.987  10.969  0.1590  0.6500  0.5932
38456SOL     OW19823   7.744   7.950   6.017 -0.1512 -0.0264 -0.0610
38456SOL    HW119824   7.823   7.957   5.963 -0.2396 -0.7795 -0.2989
38456SOL    HW219825   7.672   7.957   5.954 -0.2928  0.9865  0.1927
38457SOL     OW19826   0.942   9.717   1.634  0.6936 -0.4470 -0.4123
38457SOL    HW119827   1.014   9.780   1.643  0.3452 -0.1777  0.6102
38457SOL    HW219828   0.907   9.734   1.547  0.4901  0.9104 -0.0928
38458SOL     OW19829   1.576   6.848   9.861 -0.1323 -0.1823  0.8415
38458SOL    HW119830   1.520   6.774   9.839  1.5303 -0.8434 -1.5441
38458SOL    HW219831   1.557   6.913   9.794 -0.3414  0.9226  1.9210
38459SOL     OW19832   2.734   8.397   2.532 -0.1379 -0.7914 -0.6563
38459SOL    HW119833   2.777   8.312   2.524  1.8874  0.2412 -1.2701
38459SOL    HW219834   2.737   8.417   2.626 -2.4246 -2.2028 -0.1835
38460SOL     OW19835   4.650   0.906   1.448 -0.3434  0.0271 -0.5771
38460SOL    HW119836   4.577   0.943   1.399 -0.2871 -0.7551 -1.2780
38460SOL    HW219837   4.611   0.837   1.502 -0.2308  0.1163 -0.3777
38461SOL     OW19838   7.661   8.982  10.506  0.0802 -0.0947 -0.0555
38461SOL    HW119839   7.655   8.996  10.601 -0.1325 -0.0625 -0.0735
38461SOL    HW219840   7.720   9.050  10.476  0.3892 -0.2934  0.0975
38462SOL     OW19841   5.000  10.681   8.666 -0.4391 -0.4304  0.4176
38462SOL    HW119842   5.082  10.721   8.637 -1.2634  1.1585  0.1226
38462SOL    HW219843   4.997  10.697   8.761 -0.2334 -0.8222  0.4902
38463SOL     OW19844   9.719   1.228   9.293  0.4367  0.0904  0.1687
38463SOL    HW119845   9.674   1.227   9.209  0.3956  0.6735  0.1823
38463SOL    HW219846   9.792   1.289   9.281  1.1075 -0.6884  0.2068
38464SOL     OW19847   9.769   6.810   5.162 -0.8770 -0.0521  0.1225
38464SOL    HW119848   9.760   6.733   5.218  1.2827 -0.8646 -0.5372
38464SOL    HW219849   9.727   6.880   5.211 -0.3686 -1.0496  2.1075
38465SOL     OW19850   9.684   8.760   2.357 -0.1402  0.4711 -0.2366
38465SOL    HW119851   9.607   8.782   2.304 -1.5749 -2.8110  0.2468
38465SOL    HW219852   9.753   8.744   2.292 -0.3686  1.5721 -0.7820
38466SOL     OW19853   4.021   7.150   9.640 -0.0925  0.0412  0.1393
38466SOL    HW119854   4.108   7.184   9.661  0.2237 -0.1831 -0.7285
38466SOL    HW219855   4.016   7.066   9.685  0.0442  0.1659  0.3895
38467SOL     OW19856   4.693   8.321   8.750 -0.5838 -0.2699 -0.2189
38467SOL    HW119857   4.787   8.312   8.762 -0.2436  2.2619 -0.5255
38467SOL    HW219858   4.655   8.279   8.827  0.9000  0.6454  1.0747
38468SOL     OW19859   1.903   3.763   5.355 -0.1272  0.0850  0.6527
38468SOL    HW119860   1.836   3.763   5.424  0.0565 -0.8419  0.8414
38468SOL    HW219861   1.859   3.721   5.280  0.6574 -1.8433  1.2176
38469SOL     OW19862   6.611   0.915   4.021 -0.5879 -0.2799 -0.0621
38469SOL    HW119863   6.577   0.914   3.931  0.4801  1.9828 -0.5648
38469SOL    HW219864   6.537   0.890   4.075 -1.7710  0.0886 -1.4460
38470SOL     OW19865   4.424   6.641   4.218 -0.2641 -0.2795  0.3719
38470SOL    HW119866   4.484   6.698   4.267  0.2310 -1.0322  0.6517
38470SOL    HW219867   4.346   6.636   4.273 -0.9103  1.2890 -0.3251
38471SOL     OW19868   0.833  10.507   2.218  0.1066  0.3695  0.3798
38471SOL    HW119869   0.862  10.421   2.247 -0.1747  0.4098  0.7767
38471SOL    HW219870   0.801  10.550   2.297  1.4009  1.3135  0.4253
38472SOL     OW19871   3.726   4.445   5.579  0.8709 -0.2462 -0.0410
38472SOL    HW119872   3.794   4.506   5.607  2.9952 -2.8979  1.0707
38472SOL    HW219873   3.772   4.384   5.520 -0.8273 -1.4568 -0.1915
38473SOL     OW19874   0.566   6.077   3.263  0.1129  0.2938 -0.3182
38473SOL    HW119875   0.523   5.992   3.250  0.3659 -0.2191  1.8503
38473SOL    HW219876   0.615   6.092   3.183  0.3607 -1.7977 -0.6055
38474SOL     OW19877   3.951   2.990   4.186 -0.1123  0.1285 -0.2173
38474SOL    HW119878   3.860   2.963   4.194 -0.9896  2.3686 -1.6486
38474SOL    HW219879   3.969   3.037   4.268  0.4211 -1.8984  0.8878
38475SOL     OW19880   5.815   0.576   9.600  0.1540  0.3024  0.2317
38475SOL    HW119881   5.898   0.596   9.644 -0.0283  0.9657  0.2890
38475SOL    HW219882   5.770   0.660   9.595  0.5249  0.4407 -1.9717
38476SOL     OW19883   2.309  10.001   8.514  0.5701  0.1014  0.2840
38476SOL    HW119884   2.302   9.905   8.506  0.0977  0.1486  0.1061
38476SOL    HW219885   2.226  10.028   8.552  0.8343  0.4116  0.6424
38477SOL     OW19886   1.388   6.666   5.452 -0.3724 -0.2207 -0.0761
38477SOL    HW119887   1.464   6.683   5.396 -0.0109 -0.4141  0.3454
38477SOL    HW219888   1.314   6.702   5.403 -0.0444 -0.2430 -0.6020
38478SOL     OW19889   1.474   5.015   2.936 -0.4667  0.0034  0.4122
38478SOL    HW119890   1.423   4.960   2.995 -2.0198  0.6822 -0.2405
38478SOL    HW219891   1.445   4.989   2.849 -1.6882  2.1847  0.0937
38479SOL     OW19892   8.593   3.622   4.212  0.4542 -0.5200 -0.2383
38479SOL    HW119893   8.535   3.656   4.143  1.7181  1.7108 -0.2871
38479SOL    HW219894   8.679   3.657   4.191  0.8638  0.3704  2.5367
38480SOL     OW19895  10.476  10.928   1.710  0.1568  0.2157 -0.4748
38480SOL    HW119896  10.502  11.007   1.662 -0.0742  0.0368 -0.9040
38480SOL    HW219897  10.558  10.893   1.744  0.4481 -0.1480 -1.5134
38481SOL     OW19898   7.061   2.296   6.030  0.1256  0.4305 -0.2813
38481SOL    HW119899   7.055   2.287   6.125  0.8438  1.9355 -0.0573
38481SOL    HW219900   7.121   2.370   6.017  0.3450  0.0038 -1.9128
38482SOL     OW19901   8.920   9.465  10.018 -0.0723  0.3344  0.5529
38482SOL    HW119902   8.974   9.515   9.956 -0.7204  1.3608  0.7873
38482SOL    HW219903   8.968   9.384  10.031  0.6999  0.6233 -0.3388
38483SOL     OW19904   0.089   8.747   9.437 -0.6880  0.6031  0.3875
38483SOL    HW119905   0.148   8.731   9.511  0.1935 -1.4787 -0.7051
38483SOL    HW219906   0.041   8.665   9.425 -2.1131  1.4803 -0.2687
38484SOL     OW19907  10.999   7.050   4.685 -0.2122  0.0458  0.0020
38484SOL    HW119908  10.910   7.069   4.657 -0.5749 -1.4021  0.0949
38484SOL    HW219909  10.990   6.986   4.755  0.8155  1.6003  1.6536
38485SOL     OW19910  10.971   9.692   3.307  0.7121 -0.2895  0.4252
38485SOL    HW119911  11.013   9.765   3.352 -0.3484  0.1248  0.7494
38485SOL    HW219912  11.004   9.698   3.217  0.9276  0.3510  0.5392
38486SOL     OW19913   5.647   4.653   0.670 -0.1854  0.4574  0.0100
38486SOL    HW119914   5.635   4.729   0.612  0.3827  1.4826  1.1915
38486SOL    HW219915   5.574   4.658   0.731  0.3831  0.6171  0.6868
38487SOL     OW19916   3.520   6.849   4.264  0.0819  0.4343  0.0914
38487SOL    HW119917   3.513   6.895   4.347 -1.2801 -0.5294  0.5304
38487SOL    HW219918   3.613   6.856   4.241  1.0467 -1.3293  2.9143
38488SOL     OW19919  10.616   4.955   3.364 -0.7830 -0.0176  0.2846
38488SOL    HW119920  10.529   4.939   3.328 -1.9624 -0.3008  3.0288
38488SOL    HW219921  10.612   4.921   3.453  2.2017 -0.1232  0.4853
38489SOL     OW19922   6.361   8.845   4.192 -0.3090 -0.6349 -0.3789
38489SOL    HW119923   6.266   8.829   4.188 -0.8784  2.2771 -0.6169
38489SOL    HW219924   6.384   8.832   4.284 -1.1133 -0.5426 -0.1556
38490SOL     OW19925   7.106   6.702   0.016 -0.0477  0.1568 -0.8391
38490SOL    HW119926   7.101   6.730   0.108  0.8637 -0.1746 -0.6727
38490SOL    HW219927   7.197   6.718  -0.008  0.3353 -1.9233 -0.9686
38491SOL     OW19928   0.523   7.317  10.556  0.1916 -0.3052  0.0654
38491SOL    HW119929   0.519   7.347  10.647  2.3563  0.2501  0.0380
38491SOL    HW219930   0.431   7.308  10.530 -0.5191  1.5295  1.6368
38492SOL     OW19931   2.694   4.844   1.148 -0.5105  0.6605 -0.4991
38492SOL    HW119932   2.712   4.938   1.145  0.4486  0.4688 -1.3179
38492SOL    HW219933   2.613   4.837   1.199 -0.3012  1.8825  0.0466
38493SOL     OW19934   0.110   6.259   0.788 -0.1960 -0.2738 -0.4725
38493SOL    HW119935   0.032   6.306   0.820 -1.6938 -2.1294 -1.1954
38493SOL    HW219936   0.126   6.192   0.855 -0.2154 -0.9064 -1.0857
38494SOL     OW19937   2.300   6.002   4.309  0.2065  0.2035  0.9210
38494SOL    HW119938   2.245   6.080   4.304  0.5930  0.4013 -1.0980
38494SOL    HW219939   2.250   5.935   4.261  2.0420  0.6610 -1.8968
38495SOL     OW19940   5.462   4.069   6.367  0.1555 -0.1896 -0.0537
38495SOL    HW119941   5.540   4.100   6.321 -0.3448  0.2035 -0.6528
38495SOL    HW219942   5.419   4.150   6.397  0.1590 -0.4180  0.5794
38496SOL     OW19943  10.352   5.592  10.059 -0.9169 -0.6934  0.0025
38496SOL    HW119944  10.411   5.517  10.049  0.4363  0.5037 -1.7727
38496SOL    HW219945  10.389   5.642  10.131 -0.1844 -0.3683 -0.5781
38497SOL     OW19946   4.837   1.463   6.954 -0.2569 -0.3801  0.1819
38497SOL    HW119947   4.884   1.380   6.942  1.2993  0.3512  0.9035
38497SOL    HW219948   4.802   1.483   6.867  0.3109 -1.2380 -0.2623
38498SOL     OW19949   3.308   0.615   3.631 -0.4230 -0.2004  0.1171
38498SOL    HW119950   3.249   0.557   3.680 -1.1479 -0.1132 -0.6328
38498SOL    HW219951   3.267   0.702   3.637 -0.2140 -0.0814 -0.1649
38499SOL     OW19952   9.854  10.165   8.686  0.6456  0.2041  1.0933
38499SOL    HW119953   9.911  10.112   8.741  1.0403 -0.2280  0.2777
38499SOL    HW219954   9.910  10.194   8.614 -0.5656 -1.8647 -0.8193
38500SOL     OW19955   4.189  10.640   4.490 -0.2527  0.1283 -0.1366
38500SOL    HW119956   4.202  10.695   4.567 -2.8490  1.4787 -0.5457
38500SOL    HW219957   4.242  10.682   4.422 -0.9942  1.2657 -0.0392
38501SOL     OW19958   0.250   0.890   9.749  0.4270  0.0801 -0.5297
38501SOL    HW119959   0.330   0.850   9.716 -0.3931 -1.0802 -1.1778
38501SOL    HW219960   0.229   0.959   9.686  0.4550 -0.1939 -0.8404
38502SOL     OW19961   8.592   9.153   0.295  0.4955 -0.1352 -0.0205
38502SOL    HW119962   8.630   9.065   0.293  4.9498  1.4866  0.8082
38502SOL    HW219963   8.589   9.175   0.388  0.2067  0.8342 -0.2489
38503SOL     OW19964   4.762   5.006   0.254  0.6337 -0.1337 -0.4714
38503SOL    HW119965   4.684   4.956   0.277  0.9697 -0.7881 -0.7312
38503SOL    HW219966   4.736   5.098   0.264 -0.4961 -0.3008 -1.6123
38504SOL     OW19967   2.058  10.180   9.662  0.5994  0.5636  0.2536
38504SOL    HW119968   2.134  10.123   9.655 -0.6753 -1.0308 -2.0662
38504SOL    HW219969   2.061  10.235   9.583 -1.2811 -0.4616 -0.6046
38505SOL     OW19970   4.800   8.237   2.938  0.0003  0.2678  0.3345
38505SOL    HW119971   4.723   8.289   2.914 -0.3449  0.0187  0.8888
38505SOL    HW219972   4.866   8.302   2.964 -1.3305  0.4661  3.8271
38506SOL     OW19973   8.033   9.716   0.651  0.0937 -0.4031 -0.0981
38506SOL    HW119974   8.058   9.738   0.740 -0.0459 -0.9786  0.0844
38506SOL    HW219975   8.062   9.626   0.639 -0.5432 -0.5766 -0.3853
38507SOL     OW19976   8.793   6.458   1.464 -0.1245 -0.1237  0.3822
38507SOL    HW119977   8.736   6.410   1.403  1.2100  2.3434 -3.1210
38507SOL    HW219978   8.880   6.424   1.446  0.4284  1.3750  0.1146
38508SOL     OW19979  10.505   1.666   2.270 -0.3342 -0.1840 -0.3445
38508SOL    HW119980  10.437   1.720   2.230  1.3516  1.8266 -0.6745
38508SOL    HW219981  10.541   1.615   2.197  0.0140  0.4411 -0.6153
38509SOL     OW19982   0.872   9.379   2.421  0.2028  0.7987  0.1103
38509SOL    HW119983   0.904   9.368   2.511 -0.0531  0.7065  0.1897
38509SOL    HW219984   0.791   9.429   2.431 -0.4593 -0.2352  0.0314
38510SOL     OW19985   1.824   9.813   0.641 -0.2284  0.3021  1.4080
38510SOL    HW119986   1.876   9.828   0.720  1.0191  0.1649  0.6375
38510SOL    HW219987   1.766   9.741   0.664  2.5162 -2.1846  1.1788
38511SOL     OW19988   9.540   8.312   8.560  0.3582 -0.4169 -0.3444
38511SOL    HW119989   9.584   8.278   8.482  2.0105  0.4740  0.1548
38511SOL    HW219990   9.612   8.337   8.618 -0.8278  1.2026  0.4727
38512SOL     OW19991   8.855   8.173   7.125 -0.3608  0.9947  0.0906
38512SOL    HW119992   8.885   8.082   7.136 -1.4483  0.7389  1.1366
38512SOL    HW219993   8.761   8.165   7.112 -0.3843  1.9553 -0.3755
38513SOL     OW19994   1.895   7.486   9.093  0.4028  0.2579 -0.0682
38513SOL    HW119995   1.832   7.453   9.029  0.6091 -1.4071  0.5515
38513SOL    HW219996   1.846   7.552   9.142 -0.1230  0.6803 -1.1092
38514SOL     OW19997   4.334   5.490   3.369  0.2234  0.3518 -0.2381
38514SOL    HW119998   4.289   5.477   3.452 -1.5085  1.5535 -0.9273
38514SOL    HW219999   4.301   5.573   3.336  0.2234 -0.4729 -2.5069
38515SOL     OW20000   1.065   9.318   8.883  0.1089 -0.2444 -0.2946
38515SOL    HW120001   1.115   9.348   8.958 -0.1153 -1.0608  0.2054
38515SOL    HW220002   0.974   9.340   8.904 -0.1779 -1.9644  0.4894
38516SOL     OW20003   5.137   6.489   1.483  0.6664  0.2213 -0.0309
38516SOL    HW120004   5.157   6.550   1.412  0.3430  1.3330  0.8187
38516SOL    HW220005   5.074   6.428   1.444  1.8230 -0.2775 -1.2166
38517SOL     OW20006   4.586   4.249  11.048  0.4962  0.0530  0.0622
38517SOL    HW120007   4.548   4.162  11.065  1.8900 -0.2614  1.8715
38517SOL    HW220008   4.666   4.250  11.100  1.7607  1.5566 -1.8269
38518SOL     OW20009  10.676   2.060   2.545  0.6191  0.1073 -0.3485
38518SOL    HW120010  10.772   2.058   2.550  0.7050 -1.1383 -1.7216
38518SOL    HW220011  10.654   1.990   2.484 -1.1697  0.5089 -0.2187
38519SOL     OW20012   4.271  10.972   0.256  0.0985 -0.0875  0.1842
38519SOL    HW120013   4.251  11.008   0.342  0.3615  1.1519 -0.2493
38519SOL    HW220014   4.251  11.044   0.195 -0.3043 -1.0154 -0.8096
38520SOL     OW20015   3.212   8.759   0.010  0.1235 -0.7320  0.6273
38520SOL    HW120016   3.159   8.838   0.003  1.8873  0.3859 -0.8955
38520SOL    HW220017   3.170   8.696  -0.048  0.3559  0.0880 -0.4461
38521SOL     OW20018  10.038   0.817   1.522  0.3682 -0.0462  0.3256
38521SOL    HW120019  10.055   0.910   1.535  1.6162  0.2404 -2.5700
38521SOL    HW220020  10.123   0.775   1.536 -0.3039 -0.9122  2.2077
38522SOL     OW20021  10.949   1.277   2.222 -0.0250 -0.2812  0.6003
38522SOL    HW120022  10.859   1.298   2.247 -0.9172 -1.6330 -1.2969
38522SOL    HW220023  10.941   1.205   2.160  2.0853  1.9030 -2.4991
38523SOL     OW20024   7.780   3.151   0.129 -0.4436 -0.4420  0.2789
38523SOL    HW120025   7.706   3.127   0.073 -0.0536  1.0485 -0.9242
38523SOL    HW220026   7.819   3.227   0.086  1.1753 -0.5742  1.4429
38524SOL     OW20027   7.568   9.902   6.140 -0.2129 -0.6366 -0.4905
38524SOL    HW120028   7.643   9.854   6.177  0.9456  0.9087 -0.7088
38524SOL    HW220029   7.501   9.897   6.208 -0.7018 -3.7052 -1.0487
38525SOL     OW20030   1.076   6.260   3.069 -0.0351  0.3502 -0.1045
38525SOL    HW120031   0.984   6.279   3.086 -0.6109 -1.4407 -1.0273
38525SOL    HW220032   1.095   6.306   2.987 -0.8421 -1.2858 -1.2459
38526SOL     OW20033  10.546   7.005   2.194 -0.0243 -0.7012 -0.4251
38526SOL    HW120034  10.544   6.913   2.221 -1.4635 -1.0506 -1.5699
38526SOL    HW220035  10.480   7.047   2.250  0.1120 -0.5139 -0.4060
38527SOL     OW20036   1.524   6.101   5.645 -0.2005  0.3749 -0.5517
38527SOL    HW120037   1.602   6.058   5.678 -0.1104 -0.2442 -1.5318
38527SOL    HW220038   1.534   6.193   5.671  0.5109  0.1693 -0.0726
38528SOL     OW20039   7.724   0.002   3.632 -0.0943  0.1752 -0.3599
38528SOL    HW120040   7.815   0.017   3.605  0.2029  0.1165  0.5595
38528SOL    HW220041   7.722   0.029   3.724 -1.3072  1.2724 -0.6850
38529SOL     OW20042   1.446   4.319  10.059 -0.2210 -0.6876 -0.0194
38529SOL    HW120043   1.356   4.348  10.074 -0.5087 -0.3044 -2.2130
38529SOL    HW220044   1.457   4.244  10.118 -1.3828  0.2742  1.5096
38530SOL     OW20045   6.676   5.611   8.325  0.5403  0.0664 -0.1256
38530SOL    HW120046   6.682   5.697   8.367  2.3281 -0.5144  0.9070
38530SOL    HW220047   6.766   5.578   8.324 -0.2704 -2.4219  0.9109
38531SOL     OW20048   8.518  10.666   0.873  0.4460 -0.2982  0.1599
38531SOL    HW120049   8.599  10.717   0.872  0.2371  0.0284 -0.5550
38531SOL    HW220050   8.546  10.577   0.894  0.9423 -0.1048  0.3220
38532SOL     OW20051   6.489   5.164   2.227  0.0400  0.2726  0.2483
38532SOL    HW120052   6.521   5.089   2.277  0.3978  1.1455  1.3815
38532SOL    HW220053   6.465   5.128   2.141  1.1725 -0.9522  0.4100
38533SOL     OW20054   8.889   3.126   4.573 -0.1949  0.3109  0.4137
38533SOL    HW120055   8.867   3.055   4.512  1.7534  0.7189 -0.8399
38533SOL    HW220056   8.895   3.084   4.658 -0.5186 -0.7414 -0.0681
38534SOL     OW20057   3.735   8.454   2.196 -0.2675  0.6917  0.1604
38534SOL    HW120058   3.755   8.532   2.143  0.7369 -0.1897 -0.8249
38534SOL    HW220059   3.672   8.404   2.143 -1.4980  1.1686  1.1288
38535SOL     OW20060   5.980   5.051   0.344  0.4900  0.1547 -0.3585
38535SOL    HW120061   6.007   4.985   0.409 -0.2330 -0.5908 -0.8099
38535SOL    HW220062   6.057   5.059   0.287  0.8243  0.1911  0.0848
38536SOL     OW20063   0.856   7.288   6.303  0.0287  0.1103 -0.6148
38536SOL    HW120064   0.797   7.215   6.285  0.1716  0.0456 -0.8234
38536SOL    HW220065   0.812   7.365   6.268 -0.7691  0.3512  0.8295
38537SOL     OW20066   6.773   8.116   2.060 -0.4829  0.7788  0.1422
38537SOL    HW120067   6.742   8.110   1.970  0.0479  1.4416 -0.0915
38537SOL    HW220068   6.868   8.111   2.053 -0.4876 -0.8419  0.8195
38538SOL     OW20069   4.959   9.984   4.905  0.2488  0.0415 -0.2619
38538SOL    HW120070   4.991   9.895   4.920 -0.6786 -0.3505 -0.5529
38538SOL    HW220071   5.037  10.032   4.878  0.8448 -0.5724  0.3145
38539SOL     OW20072  10.672   6.265   9.108 -0.0012 -0.3365  0.1795
38539SOL    HW120073  10.662   6.197   9.174 -0.8097 -1.0911 -0.6974
38539SOL    HW220074  10.584   6.300   9.095  0.1232 -0.2822 -0.5758
38540SOL     OW20075   9.083   3.505   8.164  0.1246 -0.6063 -0.7297
38540SOL    HW120076   9.046   3.568   8.227  1.0201  0.5808 -1.3456
38540SOL    HW220077   9.168   3.482   8.200 -0.3013 -1.6875 -0.3853
38541SOL     OW20078   8.538   2.032   9.472 -0.3674  0.6982  0.0223
38541SOL    HW120079   8.514   2.072   9.388  0.2959  1.6800  0.2919
38541SOL    HW220080   8.587   1.954   9.448  0.2159  1.2213 -0.5046
38542SOL     OW20081   5.839   4.020   2.989  0.0208 -0.1435 -0.3751
38542SOL    HW120082   5.834   3.971   3.071 -0.9922  0.1889 -0.2325
38542SOL    HW220083   5.864   4.108   3.015 -1.3344  0.2400 -0.2972
38543SOL     OW20084   9.834   9.148   5.754  0.1146 -0.2011  0.4930
38543SOL    HW120085   9.907   9.193   5.796  0.7471  0.4768 -1.2374
38543SOL    HW220086   9.873   9.105   5.678 -1.2080 -0.0869 -0.2905
38544SOL     OW20087   7.676   3.700   9.831 -0.3128 -0.4611  0.0679
38544SOL    HW120088   7.631   3.684   9.914 -1.0822 -0.2216 -0.2981
38544SOL    HW220089   7.759   3.653   9.840 -1.2010 -2.0649  0.2258
38545SOL     OW20090   9.703   6.756   9.310  0.5018  0.4303 -0.0439
38545SOL    HW120091   9.646   6.688   9.276 -0.0188  1.7402 -1.9345
38545SOL    HW220092   9.657   6.790   9.387 -0.2079  0.0169 -0.2832
38546SOL     OW20093   0.822  10.460   5.953 -0.8002 -0.0154  0.4142
38546SOL    HW120094   0.843  10.373   5.921  1.3400  0.1989  1.0891
38546SOL    HW220095   0.802  10.447   6.046  0.5313  0.3153  0.7626
38547SOL     OW20096   1.903   1.774  10.775 -0.1615 -0.4867  0.5484
38547SOL    HW120097   1.877   1.866  10.783 -0.5127 -0.7612  3.2601
38547SOL    HW220098   1.999   1.775  10.780 -0.0965 -0.2357 -0.4143
38548SOL     OW20099   7.108   7.021   1.044 -0.2998 -0.2707  0.0697
38548SOL    HW120100   7.102   7.116   1.041  0.5429 -0.2357 -1.1978
38548SOL    HW220101   7.168   7.003   1.116  0.6316  0.2360 -0.5552
38549SOL     OW20102   0.503   8.107  10.946 -0.7229  0.2791  0.3425
38549SOL    HW120103   0.422   8.157  10.957 -0.3204  1.5626 -1.7300
38549SOL    HW220104   0.475   8.017  10.935 -1.6382  0.2886  2.3170
38550SOL     OW20105   3.980   1.106  10.100 -0.4087  0.6000  0.8538
38550SOL    HW120106   3.995   1.194  10.067 -3.7276  1.4317  1.2186
38550SOL    HW220107   3.887   1.103  10.121 -0.6873 -3.2887  0.0013
38551SOL     OW20108  10.222  10.032   0.408 -0.4166 -0.2143  0.3232
38551SOL    HW120109  10.196  10.031   0.316 -0.7228 -1.4439  0.4116
38551SOL    HW220110  10.208   9.943   0.438  0.4776 -0.0292  1.3476
38552SOL     OW20111   5.268   9.216   3.164  0.0999  0.2806 -0.2960
38552SOL    HW120112   5.215   9.146   3.126  2.2409 -1.8215  0.3476
38552SOL    HW220113   5.220   9.243   3.242 -0.3713 -1.1105 -0.0720
38553SOL     OW20114   2.379   7.484   0.722 -0.1167 -0.4189 -0.2106
38553SOL    HW120115   2.383   7.518   0.633  2.0658 -1.2288 -0.4732
38553SOL    HW220116   2.314   7.413   0.717 -1.3589  0.7100 -0.6835
38554SOL     OW20117   2.864   1.804   9.944 -0.4670 -0.0866  0.1498
38554SOL    HW120118   2.815   1.781  10.022 -0.8495  0.6581  0.1384
38554SOL    HW220119   2.798   1.812   9.875 -0.1096 -0.9311 -0.2946
38555SOL     OW20120   3.596   9.195   8.107  0.1686  0.5182 -0.0380
38555SOL    HW120121   3.630   9.134   8.041 -1.1798  0.3188 -0.5781
38555SOL    HW220122   3.649   9.177   8.185 -0.8065 -2.0677  0.1201
38556SOL     OW20123   4.477   3.648   5.427 -0.4610 -0.2763 -0.2224
38556SOL    HW120124   4.410   3.580   5.432 -0.1273 -0.5289  1.7607
38556SOL    HW220125   4.518   3.647   5.513 -0.2988  2.3080 -0.2011
38557SOL     OW20126   1.830   1.412   6.244 -0.4888 -0.3279 -0.0070
38557SOL    HW120127   1.736   1.429   6.234 -0.6441 -1.0807  0.0953
38557SOL    HW220128   1.844   1.328   6.201  0.2290 -0.0144 -0.4051
38558SOL     OW20129   7.215   4.629   2.392 -0.1618  0.3139 -0.3277
38558SOL    HW120130   7.194   4.676   2.472  0.5965  0.7172 -0.3543
38558SOL    HW220131   7.301   4.590   2.409 -0.1722  0.0760 -0.8058
38559SOL     OW20132   1.267   0.518   0.729  0.1806  0.1240  0.2309
38559SOL    HW120133   1.172   0.509   0.738  0.1236 -0.8950 -1.0109
38559SOL    HW220134   1.303   0.467   0.801 -0.2134 -0.1266  0.2536
38560SOL     OW20135   0.879   3.686   3.783  0.0381 -0.5793 -0.4069
38560SOL    HW120136   0.948   3.642   3.834  0.8563  1.7498  0.6349
38560SOL    HW220137   0.828   3.614   3.745 -1.6929 -2.7613  4.9705
38561SOL     OW20138   3.020   3.873   6.791 -0.5778 -0.1296  0.4177
38561SOL    HW120139   3.073   3.825   6.727  1.8811  1.2467  1.2543
38561SOL    HW220140   2.959   3.924   6.738 -0.6254 -1.2668 -0.6598
38562SOL     OW20141   5.918   0.656   9.060 -0.0084  0.1481  0.0860
38562SOL    HW120142   5.965   0.713   8.999 -1.1847  0.9145 -0.1414
38562SOL    HW220143   5.826   0.683   9.052 -0.4747 -1.2160  0.6108
38563SOL     OW20144   7.003   1.161   4.266  0.1493  0.0882  0.1522
38563SOL    HW120145   6.916   1.179   4.231  0.1091  0.8221  0.5870
38563SOL    HW220146   7.021   1.236   4.323  1.5952  0.5947 -0.9115
38564SOL     OW20147   6.056   2.970   6.008  0.2057  0.1875  0.1098
38564SOL    HW120148   6.047   2.963   5.913  0.5917 -0.4360  0.1083
38564SOL    HW220149   5.983   3.024   6.036 -0.4575 -0.4033 -0.4458
38565SOL     OW20150   8.529   5.421   5.874 -0.4093  0.6054 -0.6211
38565SOL    HW120151   8.510   5.473   5.953 -1.6579 -0.8612  0.1154
38565SOL    HW220152   8.573   5.343   5.907 -1.6826 -0.4164 -1.2387
38566SOL     OW20153   5.771   4.844   7.425  0.0606 -0.2233 -0.3954
38566SOL    HW120154   5.734   4.789   7.356 -1.7359  1.7546 -1.1291
38566SOL    HW220155   5.802   4.783   7.491 -2.3744 -2.1347 -0.8703
38567SOL     OW20156   8.298   5.375   1.976 -0.9817  0.4555 -0.8300
38567SOL    HW120157   8.212   5.332   1.966 -0.7288 -0.3759  0.3031
38567SOL    HW220158   8.335   5.335   2.055  0.9192  0.0068 -1.8860
38568SOL     OW20159   3.412   7.320   2.233  0.3048  0.2024 -0.0014
38568SOL    HW120160   3.380   7.363   2.313 -2.5162 -2.3921  0.4472
38568SOL    HW220161   3.427   7.229   2.260  1.6571 -0.1892 -1.9154
38569SOL     OW20162   1.028   8.334   1.442  0.5526 -0.2032  0.0610
38569SOL    HW120163   1.047   8.332   1.535  1.4324 -0.1644 -0.1029
38569SOL    HW220164   1.016   8.427   1.421  0.5875 -0.1922  0.0910
38570SOL     OW20165  10.234   0.048   4.769 -0.5589 -0.0026 -0.3901
38570SOL    HW120166  10.178   0.029   4.694  1.8046 -2.9310 -1.6337
38570SOL    HW220167  10.304   0.102   4.734 -0.7845  0.8006  0.3649
38571SOL     OW20168   7.440   5.731   0.318 -0.1633  0.3054 -0.4129
38571SOL    HW120169   7.434   5.657   0.378 -2.1158  0.6104 -0.1595
38571SOL    HW220170   7.466   5.692   0.234  0.6334 -0.3936  0.1420
38572SOL     OW20171   5.838   2.842   3.670  0.1247  0.3695  0.6385
38572SOL    HW120172   5.789   2.898   3.610  0.7395  0.9804  0.6985
38572SOL    HW220173   5.864   2.899   3.741 -1.2334 -0.5133  1.8894
38573SOL     OW20174   1.209   1.875  10.708 -0.0864  0.9562 -0.7798
38573SOL    HW120175   1.225   1.950  10.765  0.5068  0.8879 -0.8547
38573SOL    HW220176   1.283   1.816  10.723 -0.5956  0.3372 -0.6502
38574SOL     OW20177   9.691   6.718   5.689  0.0190 -0.2511  0.5630
38574SOL    HW120178   9.718   6.745   5.776  0.0652 -0.2039  0.5342
38574SOL    HW220179   9.734   6.633   5.676 -1.2148 -1.0126  1.1971
38575SOL     OW20180   6.319   4.554   6.878  0.3881 -0.0764 -0.1184
38575SOL    HW120181   6.269   4.629   6.845  0.3199 -0.6841 -1.4338
38575SOL    HW220182   6.410   4.582   6.872  0.3407  0.0795 -0.1202
38576SOL     OW20183   3.337   6.609   3.329 -0.1773 -0.1870 -0.4750
38576SOL    HW120184   3.348   6.691   3.280 -2.0360  1.1316  1.1398
38576SOL    HW220185   3.287   6.552   3.271 -0.7270  0.6453 -0.8409
38577SOL     OW20186   2.309   6.129   8.714  0.3378 -0.2732 -0.4054
38577SOL    HW120187   2.333   6.041   8.686  3.5815  0.0015  1.0097
38577SOL    HW220188   2.393   6.175   8.723 -1.0286  2.1161  1.5136
38578SOL     OW20189   0.586   0.336   0.272  0.4949  0.3792  0.3728
38578SOL    HW120190   0.495   0.310   0.281  1.1195 -2.3882 -0.3105
38578SOL    HW220191   0.635   0.271   0.323  2.1059  1.8213  0.7802
38579SOL     OW20192   5.353   3.693   5.724  0.2839  0.3164  0.2861
38579SOL    HW120193   5.436   3.689   5.678  0.0757  0.4401 -0.1084
38579SOL    HW220194   5.287   3.701   5.654 -0.2460 -1.9301  0.4540
38580SOL     OW20195   4.661   8.835   5.057 -0.2662  0.2553  0.6939
38580SOL    HW120196   4.669   8.882   4.973 -0.4169  0.9393  1.0535
38580SOL    HW220197   4.603   8.762   5.038 -0.7323  0.7098  0.3200
38581SOL     OW20198   0.423   7.806   4.277 -0.1310 -0.1750  0.1441
38581SOL    HW120199   0.390   7.759   4.201 -0.0013  0.7803 -0.5171
38581SOL    HW220200   0.453   7.890   4.243  1.9296 -0.5490  0.8924
38582SOL     OW20201   9.119  10.995   8.028 -0.3074 -0.3031 -0.0361
38582SOL    HW120202   9.102  10.906   8.058 -0.3906 -0.4116 -0.4003
38582SOL    HW220203   9.083  11.051   8.097 -1.1461 -0.5397 -0.2716
38583SOL     OW20204   1.684  10.461   3.041 -0.2128 -0.1463 -0.0775
38583SOL    HW120205   1.635  10.513   2.977 -1.6064 -1.5548 -0.2339
38583SOL    HW220206   1.710  10.382   2.993  2.4327  0.6253 -0.0304
38584SOL     OW20207   5.727   2.369   9.394 -0.3520  0.7854 -0.6348
38584SOL    HW120208   5.646   2.394   9.440 -2.4784 -3.2643 -1.6984
38584SOL    HW220209   5.716   2.405   9.306  0.0191  1.9132 -0.2417
38585SOL     OW20210   9.882   4.598   0.703  0.7505  0.3593 -0.5361
38585SOL    HW120211   9.898   4.579   0.796  1.7491  0.6847 -0.6293
38585SOL    HW220212   9.806   4.545   0.681  0.6887  0.0376  0.3937
38586SOL     OW20213   0.124   4.087   2.093  0.1982 -0.1528  0.5598
38586SOL    HW120214   0.196   4.033   2.061  0.0876 -1.3311  2.1923
38586SOL    HW220215   0.063   4.092   2.019  1.2695 -0.3488 -0.3588
38587SOL     OW20216   5.853   4.513   8.500  0.0956  0.2669  0.2821
38587SOL    HW120217   5.874   4.580   8.435  0.6094 -0.4152 -0.2703
38587SOL    HW220218   5.931   4.458   8.504 -0.3660 -0.3789  0.6193
38588SOL     OW20219   6.782   4.846   4.110 -0.4407 -0.0011  0.1061
38588SOL    HW120220   6.817   4.836   4.198  1.3628  0.9071 -0.4663
38588SOL    HW220221   6.848   4.897   4.063 -2.1447  1.0652 -1.2893
38589SOL     OW20222   1.575   0.171   5.184  0.2202 -0.1262 -0.0350
38589SOL    HW120223   1.516   0.117   5.237 -0.2052  0.1338 -0.2397
38589SOL    HW220224   1.533   0.256   5.180  0.8686  0.2155  0.2516
38590SOL     OW20225   9.731   2.368   8.997  0.1764 -0.4657  0.2189
38590SOL    HW120226   9.750   2.321   8.916  1.0447  0.4427 -0.1201
38590SOL    HW220227   9.653   2.324   9.032  0.9956 -2.1918 -0.0292
38591SOL     OW20228   1.512   9.118   5.037 -0.0693  0.2185 -0.4028
38591SOL    HW120229   1.457   9.039   5.032 -0.8708  0.6033  1.4393
38591SOL    HW220230   1.449   9.190   5.046  0.6679  1.0544 -1.6401
38592SOL     OW20231   8.483   3.906   9.817 -0.1805 -0.3465 -0.3050
38592SOL    HW120232   8.550   3.943   9.874 -0.0525 -1.1772  0.1065
38592SOL    HW220233   8.400   3.933   9.857 -0.0909 -0.1937 -0.2229
38593SOL     OW20234   1.371   5.187   6.683  0.5340 -0.2730 -0.8707
38593SOL    HW120235   1.458   5.190   6.722  0.2703  0.4191 -0.3020
38593SOL    HW220236   1.341   5.098   6.696  0.5322 -0.1027  0.3581
38594SOL     OW20237  10.372   9.681   2.636  0.3232  0.0126  0.5520
38594SOL    HW120238  10.345   9.762   2.594 -1.8651 -1.2357 -0.6636
38594SOL    HW220239  10.359   9.697   2.730 -0.6340  0.8917  0.2885
38595SOL     OW20240   9.486  10.903   1.199  0.4837 -0.5494  0.0079
38595SOL    HW120241   9.473  10.997   1.191  1.0928 -0.2980  1.6350
38595SOL    HW220242   9.523  10.877   1.115 -0.2844  0.5314 -0.7014
38596SOL     OW20243  10.593   3.149   8.486 -0.3556  0.3485  0.7408
38596SOL    HW120244  10.532   3.207   8.440  0.4602  0.4219 -0.2859
38596SOL    HW220245  10.635   3.205   8.551  0.4783  0.9595 -0.2920
38597SOL     OW20246   7.264   7.366   6.957 -0.5854 -0.2182 -0.1459
38597SOL    HW120247   7.335   7.308   6.986 -0.5024 -0.8659 -1.5317
38597SOL    HW220248   7.204   7.308   6.910 -0.5246  0.8076 -1.5462
38598SOL     OW20249   5.359   3.708  10.931  0.3135  0.0475  0.1893
38598SOL    HW120250   5.377   3.749  10.847  0.2689  0.9107  0.5963
38598SOL    HW220251   5.318   3.624  10.908  0.5636  0.1427 -0.6441
38599SOL     OW20252   7.039   2.691   0.839 -0.0789  0.3684 -0.5101
38599SOL    HW120253   7.095   2.739   0.777 -0.1612 -0.1116 -0.9713
38599SOL    HW220254   6.962   2.746   0.850  0.8213  1.4363  0.7748
38600SOL     OW20255   0.573   6.227   8.696  0.5518  0.0964  0.3783
38600SOL    HW120256   0.580   6.292   8.767 -2.3451  3.0795 -1.7478
38600SOL    HW220257   0.657   6.233   8.650  1.0201  0.9887  1.3006
38601SOL     OW20258   4.645   7.258   8.181 -0.3382 -0.8285 -0.0708
38601SOL    HW120259   4.595   7.228   8.105  0.2634  0.6235 -1.0783
38601SOL    HW220260   4.593   7.328   8.219  1.1928  1.2693 -1.6148
38602SOL     OW20261   6.682   4.362   2.411 -0.5435  0.4241  0.0207
38602SOL    HW120262   6.702   4.356   2.318  1.6373  2.3333  0.2619
38602SOL    HW220263   6.622   4.436   2.419  0.5215  1.3083  0.2084
38603SOL     OW20264   5.361  10.800   4.480 -0.2177 -0.0180  0.4243
38603SOL    HW120265   5.320  10.714   4.466 -0.5673  0.0769  0.8279
38603SOL    HW220266   5.455  10.781   4.481 -0.3124 -0.5173  1.2170
38604SOL     OW20267   1.025   7.625   6.601  0.0498 -0.4518 -0.2622
38604SOL    HW120268   1.035   7.537   6.638  0.7713  0.1867  1.1328
38604SOL    HW220269   1.086   7.627   6.526 -0.2893 -1.2636 -0.5720
38605SOL     OW20270  11.021   1.294   5.156  0.2746 -0.1047  0.3585
38605SOL    HW120271  11.037   1.243   5.077  2.8527 -0.0299  0.7208
38605SOL    HW220272  10.926   1.300   5.163 -0.0313 -1.0365 -2.1130
38606SOL     OW20273   0.217   8.241   3.227  0.2313 -0.5048 -0.3637
38606SOL    HW120274   0.210   8.193   3.145  0.6085 -0.1988 -0.5833
38606SOL    HW220275   0.193   8.178   3.294  0.4907 -0.9306 -0.6638
38607SOL     OW20276   9.402   7.745   5.484 -0.1987  0.0538 -0.0167
38607SOL    HW120277   9.465   7.814   5.463 -0.8344  0.6673  0.0669
38607SOL    HW220278   9.405   7.686   5.409 -0.6921  0.9414 -0.7616
38608SOL     OW20279   9.773   1.416   0.706  0.0546  0.1495 -0.2446
38608SOL    HW120280   9.752   1.507   0.684  2.2119  0.6064 -0.5942
38608SOL    HW220281   9.692   1.382   0.745 -0.5167  2.4888  0.8072
38609SOL     OW20282   7.514   1.404  10.196  0.0523  0.2487 -0.0709
38609SOL    HW120283   7.505   1.492  10.159  0.3566 -0.1613 -1.1589
38609SOL    HW220284   7.454   1.350  10.146 -0.2927 -0.1412  0.7364
38610SOL     OW20285   7.882   3.005   7.892  0.3939  0.1303 -0.0002
38610SOL    HW120286   7.804   3.010   7.837  1.0604  0.2746 -0.9668
38610SOL    HW220287   7.860   3.054   7.970 -0.4952  0.1393 -0.2480
38611SOL     OW20288   2.535   9.950   7.175  0.3897 -0.0414  0.0891
38611SOL    HW120289   2.611   9.892   7.173 -0.4991 -1.2186 -1.0059
38611SOL    HW220290   2.492   9.937   7.090  0.0405  2.1001 -0.1323
38612SOL     OW20291   5.539   9.859   1.170  0.6412  0.0648  0.2644
38612SOL    HW120292   5.471   9.841   1.105  1.0397  2.8946 -1.0634
38612SOL    HW220293   5.495   9.908   1.239  1.1332  1.2782 -0.2535
38613SOL     OW20294   6.149   4.602   2.015 -0.1148 -0.2260  0.1369
38613SOL    HW120295   6.181   4.632   2.100  3.2264 -0.4313 -0.9008
38613SOL    HW220296   6.102   4.521   2.034  0.4490 -0.1867  1.7985
38614SOL     OW20297  10.952   8.237   0.886  0.7774 -0.3600 -0.4344
38614SOL    HW120298  10.997   8.312   0.923  0.8014 -0.5491 -0.0818
38614SOL    HW220299  10.930   8.264   0.797  1.1389 -0.0833 -0.4411
38615SOL     OW20300   7.277   2.504   7.600  0.0019 -0.3531  0.1494
38615SOL    HW120301   7.199   2.518   7.655 -0.3808 -2.2447  0.1573
38615SOL    HW220302   7.350   2.522   7.659 -0.4208 -1.3655  1.0305
38616SOL     OW20303   4.236   3.907   3.513 -0.1777  0.3666  0.4491
38616SOL    HW120304   4.169   3.857   3.465  0.7191  0.7103 -1.2172
38616SOL    HW220305   4.301   3.930   3.447  1.7006 -0.1051  2.0642
38617SOL     OW20306   0.361   0.927   1.950 -0.3635  0.6105  0.0626
38617SOL    HW120307   0.442   0.951   1.906  0.5622 -0.7942  0.9280
38617SOL    HW220308   0.345   0.999   2.011 -0.9309  1.9074 -1.5189
38618SOL     OW20309   7.581   7.798   8.601 -0.2604  0.1925  0.3765
38618SOL    HW120310   7.643   7.745   8.551 -0.3965  0.0802  0.3277
38618SOL    HW220311   7.495   7.766   8.575 -0.3684  0.8790 -0.1496
38619SOL     OW20312  10.926   3.075   5.649 -0.8521 -0.0930  0.2163
38619SOL    HW120313  10.999   3.073   5.587 -0.8060 -0.1425  0.2728
38619SOL    HW220314  10.865   3.140   5.612 -0.9472 -0.3148 -0.0167
38620SOL     OW20315  10.366  10.792   3.441  0.7309 -0.0530  0.1053
38620SOL    HW120316  10.438  10.739   3.406  1.1074  1.0368 -0.8312
38620SOL    HW220317  10.292  10.731   3.446  1.2641 -0.7838 -0.5471
38621SOL     OW20318   1.171   7.852   6.927 -0.4084 -0.4173 -0.5541
38621SOL    HW120319   1.174   7.892   7.014  1.6905  0.1824 -0.8472
38621SOL    HW220320   1.226   7.909   6.873  0.7809 -2.4201 -1.5430
38622SOL     OW20321   1.333   9.124  10.871  0.1483 -0.1900 -0.3765
38622SOL    HW120322   1.266   9.185  10.902  1.5830  1.6164 -0.6671
38622SOL    HW220323   1.349   9.066  10.946 -1.5033 -0.4780 -0.2164
38623SOL     OW20324   5.046   7.356   5.689  0.0011  0.2915 -0.4113
38623SOL    HW120325   5.101   7.342   5.612 -1.2594 -0.1455 -1.2726
38623SOL    HW220326   4.973   7.409   5.657  0.5205  1.9560  0.9913
38624SOL     OW20327   1.707   3.954   9.304 -0.1810  0.0682 -0.3799
38624SOL    HW120328   1.737   4.036   9.267 -1.7926  0.5910 -0.6142
38624SOL    HW220329   1.642   3.979   9.369 -0.6930 -1.0053 -0.4511
38625SOL     OW20330  10.590   1.524   3.771 -0.1770 -0.1336 -0.0336
38625SOL    HW120331  10.661   1.519   3.706  0.2422 -2.0685  0.5059
38625SOL    HW220332  10.622   1.587   3.836  0.7327 -0.4117 -0.1881
38626SOL     OW20333   7.159  10.202   6.998 -0.0524  0.6620  0.5849
38626SOL    HW120334   7.206  10.121   6.981 -1.7999  0.1404 -2.4975
38626SOL    HW220335   7.094  10.180   7.065 -1.9514 -1.2069 -1.7187
38627SOL     OW20336   4.627   2.869   9.866  0.1142  0.6162 -0.1807
38627SOL    HW120337   4.698   2.810   9.842 -0.6939 -0.1829 -0.6619
38627SOL    HW220338   4.602   2.842   9.955 -0.9440 -0.4815 -0.7893
38628SOL     OW20339   9.442   8.549   9.606 -0.4815  0.3549  0.2829
38628SOL    HW120340   9.509   8.486   9.632 -0.5129 -0.0588 -0.5764
38628SOL    HW220341   9.365   8.495   9.589 -1.0393  0.8262  1.2689
38629SOL     OW20342   7.699   2.301   4.549  0.1525  0.0341 -0.1886
38629SOL    HW120343   7.711   2.354   4.628 -2.0606  0.7853 -0.3077
38629SOL    HW220344   7.649   2.356   4.489 -0.6363 -1.5192 -1.0291
38630SOL     OW20345   4.423   5.663   1.682  0.1910 -0.0241 -0.2362
38630SOL    HW120346   4.505   5.653   1.633  1.5373  0.8466  1.7024
38630SOL    HW220347   4.438   5.740   1.737 -1.9586  0.1580  0.1601
38631SOL     OW20348   0.933   5.041  10.946 -0.0834  0.5719 -0.3931
38631SOL    HW120349   0.856   5.017  10.998 -1.1747  2.4491 -1.0395
38631SOL    HW220350   0.991   5.084  11.009 -0.2877  0.6020 -0.2222
38632SOL     OW20351   4.755   0.914   6.487 -0.1511  0.3772  0.2571
38632SOL    HW120352   4.710   0.934   6.569 -0.1826  3.0496 -0.3203
38632SOL    HW220353   4.721   0.979   6.424 -0.7519 -2.0846 -2.1560
38633SOL     OW20354   8.474   1.403  10.848  0.8511  0.0605 -0.0145
38633SOL    HW120355   8.409   1.470  10.829  0.5592 -0.6621 -1.7330
38633SOL    HW220356   8.426   1.333  10.891  0.9655  0.5034  0.8575
38634SOL     OW20357   4.080   2.822   6.446 -0.3616  0.9536 -0.0231
38634SOL    HW120358   4.024   2.770   6.388  0.0944 -1.7279  1.7877
38634SOL    HW220359   4.119   2.887   6.388  0.7044 -2.0356 -2.9902
38635SOL     OW20360   5.988   0.497   5.931  0.3954 -0.7555  0.4719
38635SOL    HW120361   5.925   0.465   5.995 -1.6249 -1.8023 -1.9150
38635SOL    HW220362   6.014   0.420   5.881  0.0494  0.3488 -1.5095
38636SOL     OW20363   0.768  11.024  10.479  0.0136  0.4031  0.1450
38636SOL    HW120364   0.674  11.019  10.464  0.1822  1.0699 -1.2815
38636SOL    HW220365   0.805  11.045  10.393  1.4328  0.4971  0.7522
38637SOL     OW20366   2.031   3.082   3.276  0.1301  0.2835  0.4220
38637SOL    HW120367   1.964   3.147   3.253 -0.3305 -0.2467  0.2496
38637SOL    HW220368   2.022   3.070   3.370  0.0549  0.2820  0.4142
38638SOL     OW20369   7.808   8.022   5.049 -0.1278 -0.2907 -0.0720
38638SOL    HW120370   7.871   8.024   5.121 -1.7654 -1.3791  1.4968
38638SOL    HW220371   7.846   7.963   4.984  0.7190 -0.4610  0.5677
38639SOL     OW20372   4.889   1.092   0.425 -0.5454  0.5779  0.2537
38639SOL    HW120373   4.951   1.030   0.387 -1.0899  0.2796 -0.1595
38639SOL    HW220374   4.811   1.039   0.445 -1.2603  1.2401 -0.7048
38640SOL     OW20375   8.656   0.327  10.735  0.1597  0.5221  0.2466
38640SOL    HW120376   8.747   0.316  10.708  0.0888  0.9843 -0.1893
38640SOL    HW220377   8.637   0.249  10.788  0.5428 -0.0143 -0.3900
38641SOL     OW20378   1.524   4.555   5.780 -0.3891 -0.0548 -0.0457
38641SOL    HW120379   1.600   4.505   5.811 -0.5899  0.1961  0.8946
38641SOL    HW220380   1.485   4.500   5.712 -0.6091 -1.2098  0.9644
38642SOL     OW20381   2.814  10.176   9.028 -0.5032 -0.2971 -0.1457
38642SOL    HW120382   2.755  10.117   8.981  0.1326 -0.6471 -0.5067
38642SOL    HW220383   2.784  10.173   9.119 -0.8642 -0.6878 -0.2770
38643SOL     OW20384   0.251   7.923   3.906  0.1332 -0.3137  0.9258
38643SOL    HW120385   0.217   7.918   3.995  0.0770 -0.8364  0.8780
38643SOL    HW220386   0.330   7.868   3.907 -1.0997 -2.2207  0.1030
38644SOL     OW20387   9.754   7.237   1.343 -0.1091  0.5195 -0.9832
38644SOL    HW120388   9.814   7.237   1.417 -0.7630  1.4028 -0.4372
38644SOL    HW220389   9.799   7.286   1.274  0.8430 -0.9957 -1.4822
38645SOL     OW20390   9.092   6.636   7.013 -0.6299 -0.5096  0.6234
38645SOL    HW120391   9.142   6.555   7.001 -1.2713 -0.9943  1.1368
38645SOL    HW220392   9.147   6.690   7.070 -1.2493 -1.5742  2.2859
38646SOL     OW20393   7.340   3.172   8.415 -0.6226 -0.4948 -0.5207
38646SOL    HW120394   7.357   3.260   8.383  0.0306  0.9988  3.3444
38646SOL    HW220395   7.416   3.121   8.388  0.3583  0.8995 -0.4801
38647SOL     OW20396   9.142   9.501   0.609  0.1217 -0.6815 -0.0976
38647SOL    HW120397   9.067   9.472   0.661  0.1240 -0.0999  0.2345
38647SOL    HW220398   9.217   9.489   0.667 -0.0525  1.5032  0.6715
38648SOL     OW20399   0.409   4.100   6.852  0.3576  0.0288 -0.6006
38648SOL    HW120400   0.407   4.053   6.770  0.3314 -0.4133 -0.3470
38648SOL    HW220401   0.473   4.053   6.906  1.9216  1.5038 -1.0785
38649SOL     OW20402   9.039   0.142   9.967  0.6744  0.4457  0.3769
38649SOL    HW120403   8.971   0.096   9.918 -0.3462  1.4458  0.8044
38649SOL    HW220404   9.118   0.133   9.913  1.0584 -3.3546  1.3051
38650SOL     OW20405   3.024   1.723   2.273 -0.0339  0.3225  0.2092
38650SOL    HW120406   3.060   1.811   2.261 -0.2769  0.5728  1.2492
38650SOL    HW220407   3.008   1.716   2.367  1.5571 -1.4513  0.4132
38651SOL     OW20408   9.319   8.043   1.245 -0.3277 -0.3410 -0.1757
38651SOL    HW120409   9.259   7.987   1.293  1.7626 -2.1697  0.4863
38651SOL    HW220410   9.403   7.996   1.247  0.6773  1.1173 -2.7338
38652SOL     OW20411   1.346   0.258  10.805 -0.3958 -0.1054  0.0740
38652SOL    HW120412   1.331   0.169  10.772 -0.1830 -0.3371  0.5921
38652SOL    HW220413   1.259   0.297  10.809 -0.6938 -0.8554  1.4159
38653SOL     OW20414   8.460   5.069   1.721  0.0748 -0.1893  0.0520
38653SOL    HW120415   8.499   5.033   1.641 -2.1466 -0.8601 -0.8254
38653SOL    HW220416   8.418   5.150   1.693  0.7897  0.5096  0.9534
38654SOL     OW20417   5.424   8.236   2.315  0.6385  0.4715 -0.7521
38654SOL    HW120418   5.360   8.307   2.302  1.1068  0.7602 -1.5765
38654SOL    HW220419   5.426   8.223   2.409  1.1780  2.1851 -0.4788
38655SOL     OW20420   9.591   8.622   9.150  0.4304 -0.0948 -0.3677
38655SOL    HW120421   9.522   8.572   9.194  1.1241  0.2295  1.1698
38655SOL    HW220422   9.655   8.557   9.123  0.4873 -0.2031  0.0306
38656SOL     OW20423   8.944   6.911   1.240  0.2292 -0.2364  0.0892
38656SOL    HW120424   9.013   6.849   1.262 -0.0223 -1.3427 -2.0188
38656SOL    HW220425   8.957   6.929   1.147 -1.5266  0.5758 -0.0340
38657SOL     OW20426   2.370   3.660   7.413 -0.1923 -0.3549 -0.0720
38657SOL    HW120427   2.382   3.597   7.483 -0.1510  1.9595  2.1301
38657SOL    HW220428   2.342   3.740   7.457  0.4679  1.4068 -2.6366
38658SOL     OW20429   8.160   5.191   0.472 -0.1076 -0.4682  0.0730
38658SOL    HW120430   8.188   5.123   0.533  1.5617  0.2663  0.2027
38658SOL    HW220431   8.153   5.270   0.526 -0.9808 -0.3036 -0.2651
38659SOL     OW20432   3.986  10.193   2.393  0.4354  0.4467 -0.1872
38659SOL    HW120433   4.069  10.222   2.354  0.8073  0.9525  0.9616
38659SOL    HW220434   3.947  10.136   2.326  1.9440 -0.2099 -0.5424
38660SOL     OW20435   3.046   4.256   7.285  0.2184 -0.5080  0.0977
38660SOL    HW120436   3.046   4.221   7.374 -1.3641 -0.8327  0.0016
38660SOL    HW220437   2.999   4.191   7.233 -2.3525  1.4047 -0.1884
38661SOL     OW20438   5.451   4.274   8.343 -0.2837 -0.1157 -0.5608
38661SOL    HW120439   5.405   4.316   8.416  2.0155 -0.2402  1.0957
38661SOL    HW220440   5.453   4.181   8.367  0.8346 -0.1012 -0.5190
38662SOL     OW20441   3.642   6.309   1.364  0.0741 -0.2047  0.0150
38662SOL    HW120442   3.670   6.246   1.430  0.2586 -0.1069  0.0329
38662SOL    HW220443   3.552   6.285   1.343 -0.2987  0.3039  0.9600
38663SOL     OW20444  10.915   2.900   9.972 -0.1699  0.5433 -0.2468
38663SOL    HW120445  11.005   2.871   9.986  0.6563  2.4343 -1.2651
38663SOL    HW220446  10.895   2.875   9.881 -0.4878  0.6101 -0.1969
38664SOL     OW20447   4.695   5.917   1.473  0.1229 -0.5250 -0.3870
38664SOL    HW120448   4.612   5.933   1.428 -0.1990 -0.1475  0.3325
38664SOL    HW220449   4.695   5.823   1.492 -0.4055 -0.4145  0.1450
38665SOL     OW20450   2.465   7.141   2.600  0.3558  0.1151 -0.1535
38665SOL    HW120451   2.416   7.064   2.630  0.4932 -1.2339 -3.0274
38665SOL    HW220452   2.554   7.109   2.588  0.3941  0.6580 -1.4757
38666SOL     OW20453   9.402  10.783   6.539  0.1276 -0.5619  0.1645
38666SOL    HW120454   9.493  10.815   6.538 -0.1711  0.3354 -0.7476
38666SOL    HW220455   9.349  10.862   6.543 -0.6210 -1.0504  0.0991
38667SOL     OW20456   6.485   0.506   1.148 -0.5512 -0.1863 -0.4148
38667SOL    HW120457   6.532   0.428   1.176 -0.5746 -0.0544 -0.0059
38667SOL    HW220458   6.394   0.490   1.174 -0.6151 -0.1621 -0.6220
38668SOL     OW20459   3.780   0.486   2.622 -0.2047 -0.3906  0.3636
38668SOL    HW120460   3.813   0.480   2.532 -0.6191  0.1029  0.1743
38668SOL    HW220461   3.850   0.448   2.676  0.0923 -0.5876 -0.1544
38669SOL     OW20462   7.789   2.190   6.567 -0.2757 -0.4421 -0.6348
38669SOL    HW120463   7.705   2.216   6.528 -0.4228 -0.2128 -0.1743
38669SOL    HW220464   7.843   2.268   6.562 -0.7505  0.0010  0.8369
38670SOL     OW20465   1.411  10.533   9.644 -0.3241 -0.0266 -0.1846
38670SOL    HW120466   1.321  10.565   9.649 -0.8994 -1.4974 -0.5876
38670SOL    HW220467   1.402  10.440   9.623  1.3245  0.0717 -1.5118
38671SOL     OW20468   9.146  10.989   6.207  0.2217  0.3953 -0.3058
38671SOL    HW120469   9.103  11.068   6.241 -0.2220  0.8338 -1.8356
38671SOL    HW220470   9.112  10.979   6.119 -1.7615 -3.0143  0.6694
38672SOL     OW20471   3.178   4.152   0.982 -0.5273  0.3691 -0.2914
38672SOL    HW120472   3.084   4.134   0.974 -0.1820 -1.9070  0.1141
38672SOL    HW220473   3.202   4.114   1.067  0.8044  0.7779 -0.4685
38673SOL     OW20474   5.741  10.032   4.527  0.8850  0.2577 -0.3230
38673SOL    HW120475   5.826  10.070   4.547  0.6040  0.4711  0.5033
38673SOL    HW220476   5.691  10.103   4.488  0.9018  0.2885 -0.2891
38674SOL     OW20477   0.168   0.614  10.059 -0.1974 -0.6042  0.4583
38674SOL    HW120478   0.133   0.532  10.025  0.0397 -0.1697 -0.9243
38674SOL    HW220479   0.176   0.600  10.153 -1.6835 -1.5908  0.4753
38675SOL     OW20480   9.077   1.845   0.915  0.3219 -0.2233  0.4090
38675SOL    HW120481   9.156   1.818   0.868  3.2725  1.7834  3.7529
38675SOL    HW220482   9.091   1.816   1.005 -3.5181 -1.0321  0.9190
38676SOL     OW20483   2.617   1.447   3.871  0.1056 -0.3136  0.3433
38676SOL    HW120484   2.563   1.434   3.793  1.1997 -0.5371 -0.4017
38676SOL    HW220485   2.591   1.376   3.930  0.6981 -1.4038 -0.6571
38677SOL     OW20486   5.964   0.502   5.415  0.2178  0.5168 -0.3732
38677SOL    HW120487   6.026   0.429   5.415  0.3270  0.5961  0.4275
38677SOL    HW220488   6.007   0.569   5.469 -0.4859  0.6343  0.0573
38678SOL     OW20489  10.165   4.182   2.901  0.3110 -0.2537  0.0891
38678SOL    HW120490  10.081   4.228   2.899 -0.4692 -1.6162 -0.3690
38678SOL    HW220491  10.211   4.213   2.823  0.3468  0.6630  0.4582
38679SOL     OW20492   3.229   6.033   1.601 -0.5047 -0.3226  0.3396
38679SOL    HW120493   3.154   6.069   1.648  0.3929  1.0657  0.7724
38679SOL    HW220494   3.294   6.017   1.669  0.2403  0.2056 -0.2377
38680SOL     OW20495   7.899   5.578   3.183  0.1116 -0.2191 -0.1297
38680SOL    HW120496   7.890   5.586   3.278  1.6633 -1.9171  0.2085
38680SOL    HW220497   7.957   5.650   3.158 -0.5153  0.3948  0.1386
38681SOL     OW20498   9.525   4.979   3.829  0.0332  0.0408  0.4678
38681SOL    HW120499   9.473   5.010   3.756 -0.0377  0.3499  0.6492
38681SOL    HW220500   9.567   5.057   3.864  1.8434 -0.3966 -0.6123
38682SOL     OW20501   6.614   3.538   7.055  0.1811  0.4741 -0.1950
38682SOL    HW120502   6.553   3.507   7.123 -0.5007 -0.8967 -1.3701
38682SOL    HW220503   6.694   3.488   7.070  0.1101  0.3445 -0.2421
38683SOL     OW20504   4.030   4.999   0.643  0.0255  0.6528 -0.5367
38683SOL    HW120505   3.943   5.032   0.663  0.5742  2.8277 -1.4424
38683SOL    HW220506   4.090   5.062   0.683  1.1416  0.9961 -2.6245
38684SOL     OW20507   0.338   3.362   3.509 -0.3292 -0.1866  0.1698
38684SOL    HW120508   0.350   3.449   3.547 -3.5508  1.6646 -2.4483
38684SOL    HW220509   0.378   3.369   3.422 -2.0436 -0.6713 -0.7032
38685SOL     OW20510   0.258   2.994   9.878 -0.0345 -0.3093 -0.4709
38685SOL    HW120511   0.209   3.067   9.916 -0.2882  0.6879 -2.5630
38685SOL    HW220512   0.195   2.921   9.877 -0.4536  0.0439 -0.2534
38686SOL     OW20513   3.489   1.872   0.352 -0.1739 -0.6089  0.6120
38686SOL    HW120514   3.511   1.888   0.444 -0.3654 -0.1304  0.5760
38686SOL    HW220515   3.510   1.779   0.338  0.7906 -0.4357  0.8708
38687SOL     OW20516  11.069   0.927   7.295  0.6738  0.2469 -0.8758
38687SOL    HW120517  10.977   0.906   7.279  0.3832  1.7807 -1.3723
38687SOL    HW220518  11.079   0.923   7.390  0.1530 -0.1412 -0.8372
38688SOL     OW20519  10.996   8.885   8.400 -0.0426 -0.1569 -0.5147
38688SOL    HW120520  11.018   8.793   8.385 -3.0238 -1.1999  0.7053
38688SOL    HW220521  10.949   8.911   8.321 -0.2850 -0.0786 -0.3448
38689SOL     OW20522   8.558   5.032   1.486  0.0463  0.4431  0.3055
38689SOL    HW120523   8.552   5.121   1.450 -1.1464  0.4223  0.4060
38689SOL    HW220524   8.597   4.980   1.415 -0.4230  0.7977 -0.2216
38690SOL     OW20525   4.953   6.458   3.471  0.2104 -0.8253  0.5644
38690SOL    HW120526   4.941   6.479   3.563  1.3068  0.9851  0.3509
38690SOL    HW220527   4.865   6.457   3.435 -0.0853  1.3582  1.0907
38691SOL     OW20528   9.257   1.239   4.776 -0.4415  0.7507 -0.5273
38691SOL    HW120529   9.187   1.239   4.841  1.9231  1.6835  2.2335
38691SOL    HW220530   9.255   1.327   4.739 -0.5527  0.8594 -0.2639
38692SOL     OW20531   0.465   4.518   8.903 -0.3375  0.2284 -0.4985
38692SOL    HW120532   0.480   4.569   8.823  1.3328  0.1656 -0.2654
38692SOL    HW220533   0.451   4.584   8.971  1.0248  0.4012 -0.3496
38693SOL     OW20534   5.101   1.877   4.107  0.0350 -0.1991  0.2642
38693SOL    HW120535   5.040   1.852   4.177 -2.3707  2.0108 -0.8681
38693SOL    HW220536   5.055   1.853   4.026  1.0174  0.8472 -0.6271
38694SOL     OW20537   1.157   9.306   5.321  0.0093 -0.1325  0.4266
38694SOL    HW120538   1.132   9.347   5.238 -1.7217 -0.3286  0.8242
38694SOL    HW220539   1.203   9.374   5.369  1.2596 -0.0924 -0.7770
38695SOL     OW20540   1.838   9.418   8.717 -0.1966  0.0726  0.0082
38695SOL    HW120541   1.812   9.491   8.660 -0.8894 -0.2402 -0.0829
38695SOL    HW220542   1.921   9.447   8.756 -1.2805  1.6543  1.2867
38696SOL     OW20543   2.414   8.341   9.772  0.2060 -0.0603  0.0055
38696SOL    HW120544   2.490   8.291   9.744  0.7238  0.6055  0.1952
38696SOL    HW220545   2.369   8.284   9.834 -0.3109 -1.0810 -1.2611
38697SOL     OW20546   2.705   3.854   5.845  0.0810  0.7415  0.3062
38697SOL    HW120547   2.740   3.827   5.760 -1.2226  1.5277 -0.5276
38697SOL    HW220548   2.703   3.774   5.897  0.5648  0.1722 -0.5292
38698SOL     OW20549   4.806   1.947   6.188 -0.4983  0.5422  0.4463
38698SOL    HW120550   4.806   2.024   6.244  0.5364  0.0120  1.2111
38698SOL    HW220551   4.723   1.951   6.141 -1.7845  0.5874  2.6143
38699SOL     OW20552  10.008  10.455   8.668 -0.2558 -0.3730  0.2280
38699SOL    HW120553  10.077  10.490   8.611 -0.4216  2.1022  1.4445
38699SOL    HW220554  10.049  10.382   8.713  1.1634  0.2328 -0.0413
38700SOL     OW20555   4.578   1.924   7.390 -0.8431 -0.1468  0.1900
38700SOL    HW120556   4.584   1.849   7.448  1.5425  0.5439  0.9925
38700SOL    HW220557   4.653   1.915   7.331 -1.5657  0.6664 -0.9075
38701SOL     OW20558   9.259   0.145   3.012 -0.5885 -0.0209  0.0543
38701SOL    HW120559   9.173   0.108   2.993 -1.7365  2.3553  0.2441
38701SOL    HW220560   9.293   0.170   2.926 -0.3727 -0.3352  0.0454
38702SOL     OW20561   9.814  10.699   8.705  0.1728 -0.2803  0.1230
38702SOL    HW120562   9.884  10.712   8.640  0.5695  1.1455  0.7943
38702SOL    HW220563   9.734  10.726   8.660  0.6245  2.1210  0.5974
38703SOL     OW20564   6.643   7.116   4.447  0.2337 -0.1696  0.4076
38703SOL    HW120565   6.726   7.069   4.438  0.0115 -0.2914 -1.2408
38703SOL    HW220566   6.594   7.094   4.369  0.7242  3.9602 -1.3148
38704SOL     OW20567   0.364   8.352   1.517  0.0126 -0.0508  0.6228
38704SOL    HW120568   0.438   8.413   1.510  0.6393 -0.7473  0.9992
38704SOL    HW220569   0.331   8.364   1.606  2.3246 -2.6220  2.0088
38705SOL     OW20570   6.524   2.144   5.616 -0.5639 -0.1340 -0.1652
38705SOL    HW120571   6.548   2.155   5.708 -1.5376  3.3369 -0.1733
38705SOL    HW220572   6.449   2.084   5.618 -1.5393  1.0550  1.5227
38706SOL     OW20573   5.592   1.207   4.798  0.2883 -0.1450  0.3684
38706SOL    HW120574   5.529   1.276   4.816  0.7215  0.0281  1.2536
38706SOL    HW220575   5.677   1.245   4.820  0.5364 -0.9549  0.8576
38707SOL     OW20576   7.941   3.576   4.300  0.6927 -0.4372  0.2926
38707SOL    HW120577   7.873   3.537   4.355 -0.2237 -0.2255 -0.6490
38707SOL    HW220578   7.944   3.668   4.327 -0.3961 -0.1199 -0.5897
38708SOL     OW20579   3.858   6.006   2.216 -0.0318 -0.6286 -0.3493
38708SOL    HW120580   3.859   6.081   2.157  2.0622 -1.0790 -0.9747
38708SOL    HW220581   3.867   6.044   2.304  1.7269 -0.1046 -0.7043
38709SOL     OW20582   6.690   1.162   1.935 -0.5004 -0.1810  0.4197
38709SOL    HW120583   6.681   1.253   1.962 -1.6815 -0.3286  0.5783
38709SOL    HW220584   6.744   1.165   1.856  0.6115  0.5127  1.1854
38710SOL     OW20585   8.417   4.295   0.283 -0.4559  0.0815 -0.4952
38710SOL    HW120586   8.427   4.204   0.311  0.5079  0.3345  0.0235
38710SOL    HW220587   8.482   4.305   0.213 -1.8125 -0.1209 -1.8434
38711SOL     OW20588  10.265   0.685  10.616  0.2009 -0.3474  0.2592
38711SOL    HW120589  10.234   0.597  10.635 -0.2611 -0.3806 -0.6206
38711SOL    HW220590  10.359   0.682  10.634  0.1893 -1.0215  0.2237
38712SOL     OW20591   0.333   0.162   0.494 -0.0609 -0.2924  0.1324
38712SOL    HW120592   0.249   0.116   0.494  0.6517 -1.6454 -1.1824
38712SOL    HW220593   0.312   0.249   0.459 -0.9898 -0.4753  0.2119
38713SOL     OW20594   2.796   5.383   0.037  0.3397  0.0079  0.8416
38713SOL    HW120595   2.876   5.381   0.090  1.1097  0.9990 -0.2375
38713SOL    HW220596   2.803   5.305  -0.019  1.4965  1.0379 -0.5247
38714SOL     OW20597   5.607   5.640   4.833  0.5408 -0.3476  0.5495
38714SOL    HW120598   5.663   5.564   4.818  0.3421 -0.2246 -0.9201
38714SOL    HW220599   5.668   5.714   4.844  0.7198 -0.6340  1.6196
38715SOL     OW20600   4.872   2.825   5.279 -0.3270 -0.2084 -0.3123
38715SOL    HW120601   4.895   2.916   5.296 -0.7601 -0.0783 -0.4241
38715SOL    HW220602   4.832   2.825   5.192  0.3572 -0.6235 -0.6379
38716SOL     OW20603  10.103   9.490  10.219 -0.5089  0.5710  0.7814
38716SOL    HW120604  10.068   9.415  10.173 -1.1443  1.4381 -0.1804
38716SOL    HW220605  10.131   9.550  10.150  2.2751  0.2245  1.4868
38717SOL     OW20606   3.518  10.592   1.602  0.3368  0.2218 -0.4815
38717SOL    HW120607   3.612  10.593   1.584  0.2453  1.8167 -0.9908
38717SOL    HW220608   3.511  10.556   1.691  1.6296  2.1305  0.4629
38718SOL     OW20609   3.062   3.644   4.213  0.2914  0.2595 -0.1086
38718SOL    HW120610   3.108   3.575   4.165  0.1713  0.1640 -0.0875
38718SOL    HW220611   3.001   3.597   4.270  0.7813  0.3518  0.5036
38719SOL     OW20612   9.911   0.449   2.278 -0.1555 -0.5193 -1.1021
38719SOL    HW120613   9.920   0.358   2.249 -1.3714 -1.0942  0.2448
38719SOL    HW220614   9.818   0.460   2.294  0.1003  0.6799 -0.3318
38720SOL     OW20615   9.887   1.483   9.404 -0.0531  0.0662  0.2533
38720SOL    HW120616   9.925   1.450   9.323 -0.3811 -1.3687  0.6486
38720SOL    HW220617   9.962   1.495   9.463  0.2332  1.5224 -0.3666
38721SOL     OW20618   8.184   7.708   8.297  0.2568  0.3832  0.2395
38721SOL    HW120619   8.101   7.751   8.276  0.0691  0.9063  1.8647
38721SOL    HW220620   8.158   7.626   8.340  0.6004  0.1368 -0.0131
38722SOL     OW20621  10.637   4.852   4.025 -0.0164 -0.1183  0.3397
38722SOL    HW120622  10.670   4.939   4.004  2.2284 -0.4610  2.0582
38722SOL    HW220623  10.625   4.854   4.120 -0.9510 -1.3823  0.2768
38723SOL     OW20624   3.797   9.996   3.226  0.1605  0.5238  0.6153
38723SOL    HW120625   3.781  10.027   3.137  0.3385  0.5959  0.6077
38723SOL    HW220626   3.819  10.076   3.275 -0.4578  0.5589  0.8436
38724SOL     OW20627   9.450   6.960   0.280 -0.4626  0.2838 -0.8687
38724SOL    HW120628   9.496   6.879   0.303 -0.9405 -0.6821 -3.0656
38724SOL    HW220629   9.436   7.004   0.364  0.1953 -1.6915  0.3491
38725SOL     OW20630   6.001   3.211   7.523  0.3169  0.2873  0.1166
38725SOL    HW120631   5.959   3.253   7.598 -0.6282 -1.8664  0.8676
38725SOL    HW220632   5.938   3.220   7.452 -0.0791 -0.2079  0.3965
38726SOL     OW20633  10.716   1.956   5.610 -0.2537 -0.2836 -0.2361
38726SOL    HW120634  10.694   1.974   5.702 -0.7307 -1.0634 -0.1882
38726SOL    HW220635  10.674   1.872   5.592 -0.1236 -0.1538 -1.1593
38727SOL     OW20636   7.936  10.611   9.809  0.4546 -0.1820 -0.4505
38727SOL    HW120637   8.013  10.557   9.791  0.5665 -0.2657  0.2438
38727SOL    HW220638   7.863  10.563   9.769  0.3361 -1.5732  1.2931
38728SOL     OW20639   3.638   4.996   8.589  0.3359  0.0405  0.0427
38728SOL    HW120640   3.674   4.936   8.654 -0.0449  0.6603  0.8470
38728SOL    HW220641   3.585   5.058   8.640  0.2072  0.6726 -0.8327
38729SOL     OW20642   7.367   9.342   2.943 -0.7732  0.4210  0.3370
38729SOL    HW120643   7.325   9.412   2.894 -0.6113 -0.0793 -0.5294
38729SOL    HW220644   7.330   9.349   3.031 -1.4161  1.0285  0.0266
38730SOL     OW20645   8.225   0.009   6.530 -0.4296 -0.3876  0.0568
38730SOL    HW120646   8.284  -0.024   6.463 -0.5326  0.1185 -0.2867
38730SOL    HW220647   8.176   0.079   6.487 -1.3052 -0.8166  0.3232
38731SOL     OW20648   6.318   0.557   4.795  0.0836  0.4994  0.0787
38731SOL    HW120649   6.369   0.610   4.734 -0.1214 -0.3548 -0.8540
38731SOL    HW220650   6.316   0.609   4.875  1.6146  0.9703 -0.1599
38732SOL     OW20651   4.244   1.629   7.178 -0.5817  0.0123  0.2517
38732SOL    HW120652   4.313   1.590   7.231 -1.6110  1.0873  2.4980
38732SOL    HW220653   4.290   1.674   7.108  0.8836 -0.6616  0.7473
38733SOL     OW20654   6.739   4.900   8.735  0.3367 -0.3426 -0.1026
38733SOL    HW120655   6.749   4.831   8.669 -0.3247  0.9875 -1.6665
38733SOL    HW220656   6.824   4.945   8.735  1.5806 -2.3908  2.5268
38734SOL     OW20657   0.597   1.153   8.633  0.2300  0.2018 -0.0835
38734SOL    HW120658   0.505   1.144   8.608 -0.0263 -1.2784  1.1971
38734SOL    HW220659   0.596   1.218   8.703  0.4700  1.7051 -1.4272
38735SOL     OW20660  10.267   3.831   4.493  0.2771  0.2028 -0.4927
38735SOL    HW120661  10.352   3.804   4.527  1.9469  2.8718 -2.2021
38735SOL    HW220662  10.243   3.907   4.546 -0.9992 -0.4023 -0.1558
38736SOL     OW20663   2.052   7.516   9.474  0.4352 -0.0432  0.7650
38736SOL    HW120664   2.032   7.603   9.508  1.0069  0.4508 -0.1048
38736SOL    HW220665   2.139   7.525   9.436  0.5973 -1.0642  0.8751
38737SOL     OW20666  11.010   8.497   6.677 -0.0932 -0.1044  0.0424
38737SOL    HW120667  11.044   8.478   6.589 -0.1643  1.0814 -0.2629
38737SOL    HW220668  11.079   8.550   6.718 -0.4998  0.2026  0.3307
38738SOL     OW20669   6.701   0.391   4.961  0.0645 -0.4737  0.7399
38738SOL    HW120670   6.761   0.363   4.892 -0.3438 -1.3243  0.7168
38738SOL    HW220671   6.614   0.373   4.925 -0.1477 -1.1822  1.5721
38739SOL     OW20672   2.269   2.191   3.216 -0.1244 -0.0937 -0.0203
38739SOL    HW120673   2.276   2.236   3.301  0.1848 -0.5489  0.1977
38739SOL    HW220674   2.174   2.184   3.201 -0.1993 -0.5582  0.5895
38740SOL     OW20675   1.984   4.295   7.862 -0.1899  0.3463  0.5594
38740SOL    HW120676   2.034   4.216   7.841 -1.6252 -0.2631 -0.7425
38740SOL    HW220677   1.895   4.264   7.879 -0.4414  1.5390  1.5831
38741SOL     OW20678   7.641   2.201   6.826 -0.2536 -0.4306  0.5463
38741SOL    HW120679   7.669   2.292   6.827 -1.0998 -0.0763 -1.9016
38741SOL    HW220680   7.708   2.155   6.775  0.0505 -1.1658  1.5683
38742SOL     OW20681   2.112   6.608   3.686  0.2442 -0.1140 -0.7847
38742SOL    HW120682   2.127   6.566   3.601 -0.0221  1.1584 -1.4677
38742SOL    HW220683   2.181   6.675   3.692  2.4050 -2.2960  1.4783
38743SOL     OW20684   1.023   3.174   8.263  0.3978  0.6350 -0.0725
38743SOL    HW120685   1.084   3.195   8.333 -0.5073 -0.6915  1.1902
38743SOL    HW220686   1.066   3.105   8.213  0.3569  0.3831  0.2320
38744SOL     OW20687   3.577   5.074   4.504  0.4051  0.6121 -1.0782
38744SOL    HW120688   3.507   5.012   4.525 -0.2748  1.6004 -0.3531
38744SOL    HW220689   3.653   5.040   4.552 -0.3655  1.1720  0.6333
38745SOL     OW20690   4.587   6.216   8.432  0.1893 -0.3322 -0.1370
38745SOL    HW120691   4.550   6.131   8.408  0.4953 -0.1911 -1.1570
38745SOL    HW220692   4.519   6.279   8.410 -0.2064 -0.3267  1.0172
38746SOL     OW20693   8.354   5.881   2.105 -0.4161  0.0978 -0.1002
38746SOL    HW120694   8.300   5.855   2.030 -1.2849  1.0984  0.1422
38746SOL    HW220695   8.290   5.899   2.175  0.2205  1.2289  0.2226
38747SOL     OW20696  10.380   8.690   5.565 -0.2416  0.0160 -0.5183
38747SOL    HW120697  10.422   8.613   5.604 -0.8692  0.6150  1.4492
38747SOL    HW220698  10.450   8.734   5.518  0.9281 -0.0186  1.0994
38748SOL     OW20699  10.092   6.518   0.152  0.0229  0.5026 -0.0241
38748SOL    HW120700  10.107   6.427   0.127 -0.4372  0.3990  0.0768
38748SOL    HW220701  10.180   6.554   0.165  0.1764 -0.3876  1.6127
38749SOL     OW20702   2.962   4.041   0.363  0.0750  0.3838 -0.0354
38749SOL    HW120703   2.941   4.076   0.449 -0.4880  1.8222 -0.7272
38749SOL    HW220704   2.884   3.990   0.338  1.0218 -1.7730  1.1083
38750SOL     OW20705   3.121   3.057  10.074  0.1839  0.3257 -0.1793
38750SOL    HW120706   3.045   3.031  10.022  0.0707 -0.5921  0.4248
38750SOL    HW220707   3.196   3.040  10.017 -0.0453  1.0758 -0.7149
38751SOL     OW20708   7.031   7.962   7.520  0.0179  0.2405 -0.0403
38751SOL    HW120709   6.966   7.914   7.469  0.0803 -0.4505  0.5082
38751SOL    HW220710   7.092   7.996   7.455 -0.3275  0.0378 -0.4824
38752SOL     OW20711  11.071   5.843   8.430  0.1015  0.4350 -0.2864
38752SOL    HW120712  11.138   5.887   8.482 -0.4247  0.6314  0.2345
38752SOL    HW220713  10.997   5.834   8.489 -0.2445 -0.0050 -0.7831
38753SOL     OW20714  11.052   2.100   9.763 -0.2251 -0.2035 -0.4691
38753SOL    HW120715  11.033   2.038   9.692 -0.6087 -0.1479 -0.4177
38753SOL    HW220716  11.135   2.069   9.799 -0.5753 -0.8934 -0.2273
38754SOL     OW20717   9.325   1.276  10.913  0.0053 -0.1501 -0.1090
38754SOL    HW120718   9.289   1.261  10.826 -1.3628 -0.2813  0.4586
38754SOL    HW220719   9.408   1.321  10.897 -0.0402 -0.5131 -1.4866
38755SOL     OW20720   3.389   8.864   9.094 -0.5999 -0.1988 -0.0203
38755SOL    HW120721   3.295   8.876   9.108 -0.6418 -0.8168  0.2682
38755SOL    HW220722   3.402   8.883   9.001 -0.9438  0.2855  0.0276
38756SOL     OW20723   7.626  10.182   1.122  0.5962 -0.4887  0.4515
38756SOL    HW120724   7.676  10.212   1.046  1.3048 -0.6769  0.8373
38756SOL    HW220725   7.544  10.232   1.118  1.2606  0.6364  0.4194
38757SOL     OW20726   9.011   0.263   1.978  0.3465  0.0760 -0.2026
38757SOL    HW120727   9.078   0.330   1.965 -0.0977  0.2182 -2.0453
38757SOL    HW220728   8.976   0.247   1.890 -0.5558 -1.5375  0.4168
38758SOL     OW20729   2.762   1.827   0.650  0.4320 -0.3906  0.0105
38758SOL    HW120730   2.700   1.787   0.589  0.3332  0.3152 -0.3679
38758SOL    HW220731   2.812   1.754   0.687  1.7346 -0.7217 -2.2518
38759SOL     OW20732   3.558   4.096   1.265  0.0037 -0.0769  0.4608
38759SOL    HW120733   3.606   4.026   1.307  1.1205 -0.2491 -1.0369
38759SOL    HW220734   3.562   4.169   1.327  0.3559 -0.7601  1.2522
38760SOL     OW20735   3.547   4.557   2.460 -0.2914 -0.1779  0.1037
38760SOL    HW120736   3.518   4.597   2.542  0.0562 -1.5974  0.9573
38760SOL    HW220737   3.497   4.603   2.392  0.5575  2.1208  0.9367
38761SOL     OW20738   5.487  10.385   0.725 -0.1193 -0.5316  0.4966
38761SOL    HW120739   5.423  10.407   0.792 -0.1791 -1.2084  0.6676
38761SOL    HW220740   5.448  10.416   0.643 -0.2237 -0.0675  0.7179
38762SOL     OW20741  10.902   6.050   7.331 -0.0880  0.0702 -0.0086
38762SOL    HW120742  10.883   5.983   7.396 -1.7023  2.3393  2.0369
38762SOL    HW220743  10.826   6.109   7.334  0.7477  1.4456 -2.4596
38763SOL     OW20744   2.780   5.417   6.156 -0.1084 -0.4171  0.7851
38763SOL    HW120745   2.731   5.499   6.161  0.0438 -0.3324  0.8923
38763SOL    HW220746   2.790   5.388   6.247  0.5441 -0.1308  0.8121
38764SOL     OW20747   4.309   7.954   0.850 -0.5697  0.0822 -0.1758
38764SOL    HW120748   4.248   8.018   0.889  1.0468  1.7559 -0.2733
38764SOL    HW220749   4.294   7.960   0.756  0.1877  0.9953 -0.2484
38765SOL     OW20750   2.916   6.581   0.359  0.0000  0.0475  0.1372
38765SOL    HW120751   2.829   6.616   0.375  1.3556  3.0301  1.8602
38765SOL    HW220752   2.958   6.578   0.445  1.9570 -0.2374 -0.7518
38766SOL     OW20753   8.610   8.900   4.255  0.2939  0.4278  0.3028
38766SOL    HW120754   8.654   8.954   4.189 -1.7771  1.7185 -0.1358
38766SOL    HW220755   8.517   8.910   4.235 -0.2481 -2.2683  1.0854
38767SOL     OW20756   5.640   3.060   2.529 -0.2441 -0.1329  0.6970
38767SOL    HW120757   5.694   3.063   2.450 -1.0331 -1.5011  0.0560
38767SOL    HW220758   5.570   3.124   2.513 -0.7292 -0.8141  0.0037
38768SOL     OW20759   4.671   0.796   7.435  0.3310 -0.4079  0.3913
38768SOL    HW120760   4.689   0.769   7.525  1.3469  0.9285  0.6081
38768SOL    HW220761   4.753   0.780   7.389  0.1463 -0.0781 -0.0544
38769SOL     OW20762   8.128   7.181   7.490  0.8060 -0.5386 -0.3661
38769SOL    HW120763   8.203   7.144   7.444  0.1459 -1.4339 -0.7455
38769SOL    HW220764   8.159   7.195   7.580  1.1782 -1.7181 -0.2965
38770SOL     OW20765   4.753   6.840   9.797  0.0624  0.0941  0.0306
38770SOL    HW120766   4.797   6.770   9.748 -2.1302 -0.7574 -0.8487
38770SOL    HW220767   4.806   6.918   9.779  0.6041 -0.6463 -1.9014
38771SOL     OW20768   9.182   3.495   3.236 -0.1117  0.0342  0.1121
38771SOL    HW120769   9.141   3.409   3.247 -1.7132  0.7584  0.1951
38771SOL    HW220770   9.253   3.496   3.300 -2.4639  0.1560  2.9123
38772SOL     OW20771   0.254   6.262   8.887 -0.1587  0.1323 -0.0164
38772SOL    HW120772   0.206   6.198   8.940  0.9578 -0.1405  0.6929
38772SOL    HW220773   0.264   6.219   8.802 -0.3558 -0.1894  0.1203
38773SOL     OW20774   2.750   3.873   8.308  0.1975  0.0288 -0.4275
38773SOL    HW120775   2.774   3.966   8.302 -2.2811  1.1014  2.8600
38773SOL    HW220776   2.811   3.837   8.372 -1.3868  0.5955  1.5073
38774SOL     OW20777   2.272   1.947   2.495 -0.0194  0.5115 -0.1818
38774SOL    HW120778   2.313   1.905   2.419 -0.2833  1.7148 -1.0141
38774SOL    HW220779   2.345   1.965   2.555  0.0930 -1.1010  0.1969
38775SOL     OW20780   1.480   2.558   5.847 -0.3513  0.0026 -0.2090
38775SOL    HW120781   1.416   2.539   5.915 -0.0744 -1.1437 -0.2443
38775SOL    HW220782   1.510   2.471   5.817  2.1678  0.4688  0.7308
38776SOL     OW20783   7.805   9.690   5.014 -0.2011 -0.1089  0.0963
38776SOL    HW120784   7.818   9.646   5.099  0.9651 -1.7325 -0.8665
38776SOL    HW220785   7.711   9.687   5.000 -0.1837 -2.4495  0.0482
38777SOL     OW20786   7.743  10.942   5.410  0.2144 -0.1607 -0.4551
38777SOL    HW120787   7.751  11.025   5.362  0.9847  0.3101  0.4473
38777SOL    HW220788   7.786  10.878   5.353  3.1577  0.7898  0.4953
38778SOL     OW20789   3.693   3.027   2.279  0.0491 -0.0738 -0.5649
38778SOL    HW120790   3.656   2.941   2.261 -1.1257  0.4829 -0.9395
38778SOL    HW220791   3.786   3.011   2.293 -0.5629 -1.7896  2.2040
38779SOL     OW20792   7.550   7.475   7.928 -0.2826  0.0052  0.2092
38779SOL    HW120793   7.615   7.422   7.882  1.1708  1.7489  0.1468
38779SOL    HW220794   7.590   7.493   8.013 -1.4923 -0.3864  0.8830
38780SOL     OW20795   7.147   3.927   2.437  0.4357  0.2501 -0.4168
38780SOL    HW120796   7.101   3.903   2.517  0.4514 -0.0935 -0.5122
38780SOL    HW220797   7.206   3.998   2.465 -0.0306  0.5835 -0.2638
38781SOL     OW20798   1.708   9.938   4.396 -0.8722  0.5330  0.0300
38781SOL    HW120799   1.739   9.902   4.313 -2.5714 -0.5520 -0.1957
38781SOL    HW220800   1.704   9.862   4.455 -0.9447  1.0527  0.7105
38782SOL     OW20801   8.914   0.007   1.195  0.2773 -0.1486 -0.5123
38782SOL    HW120802   8.913   0.071   1.266  1.3790 -0.1038 -0.5173
38782SOL    HW220803   8.988   0.033   1.140  1.9230 -2.4003  0.4593
38783SOL     OW20804   0.216   2.239   0.143  0.1579  0.3423 -0.6457
38783SOL    HW120805   0.215   2.145   0.127  0.6580  0.4632 -1.4321
38783SOL    HW220806   0.165   2.250   0.224 -1.1307 -0.4557 -1.3132
38784SOL     OW20807   1.850   1.327   0.724  0.5517  0.6598 -0.2176
38784SOL    HW120808   1.776   1.341   0.784  0.1143 -1.2702 -0.2512
38784SOL    HW220809   1.822   1.367   0.642 -1.4299 -1.8539 -0.8772
38785SOL     OW20810   7.077   5.205   6.977 -0.0557  0.6835  0.3522
38785SOL    HW120811   7.108   5.115   6.971  0.2483  0.7206  1.1587
38785SOL    HW220812   7.116   5.238   7.059 -1.5809  0.9760  1.0010
38786SOL     OW20813   2.640   2.547   4.420  0.0268  0.2442 -0.1856
38786SOL    HW120814   2.636   2.640   4.401 -0.8921  0.1582 -0.4504
38786SOL    HW220815   2.588   2.536   4.500 -0.8349 -0.1982 -0.7943
38787SOL     OW20816   0.915   8.576   8.463 -0.1622 -0.1557 -0.6360
38787SOL    HW120817   0.870   8.649   8.506  0.4700 -0.3689  0.4337
38787SOL    HW220818   0.915   8.599   8.370  0.0900  1.2436 -0.3178
38788SOL     OW20819  10.508   6.284   6.198 -0.3748 -0.2238 -0.0491
38788SOL    HW120820  10.508   6.379   6.204  0.1243 -0.1516 -0.8825
38788SOL    HW220821  10.418   6.261   6.174 -0.6450 -0.0198  0.7387
38789SOL     OW20822   5.178   2.434   5.815 -0.5610 -0.5850 -0.4209
38789SOL    HW120823   5.258   2.468   5.774 -0.6093 -0.6159 -0.5437
38789SOL    HW220824   5.210   2.376   5.884 -0.4773  0.1929  0.2118
38790SOL     OW20825   6.162   6.285   9.134 -0.6803 -0.0630 -0.6312
38790SOL    HW120826   6.083   6.289   9.189  0.0371 -1.0505  0.5384
38790SOL    HW220827   6.165   6.370   9.090 -1.2577  0.8223  0.9355
38791SOL     OW20828  10.609   3.623   7.587  0.1016 -0.4614 -0.1469
38791SOL    HW120829  10.612   3.655   7.497 -0.4306 -0.7034 -0.2561
38791SOL    HW220830  10.517   3.629   7.611  0.1014 -1.2489  0.0687
38792SOL     OW20831   3.429   2.936  10.975  0.7378 -0.3491 -0.1377
38792SOL    HW120832   3.372   2.941  10.899 -0.0724 -0.7153  0.4282
38792SOL    HW220833   3.517   2.951  10.940  0.3978 -0.6341 -1.1598
38793SOL     OW20834   7.952   4.310   0.895  0.5475  0.0114  0.1715
38793SOL    HW120835   8.031   4.262   0.919 -0.2508 -0.9113  1.0848
38793SOL    HW220836   7.982   4.399   0.879  1.5458  0.1172  2.2598
38794SOL     OW20837   2.092   4.714   3.729  0.1960 -0.0201 -0.3005
38794SOL    HW120838   2.099   4.739   3.637 -1.5875  2.4212  0.1261
38794SOL    HW220839   2.112   4.794   3.777 -0.2402 -0.8954  1.4137
38795SOL     OW20840   8.179   3.664   1.655 -0.1130 -0.5027  0.4128
38795SOL    HW120841   8.135   3.739   1.615  0.6712 -0.4715 -0.4301
38795SOL    HW220842   8.160   3.591   1.596  0.0157 -0.7359  0.6582
38796SOL     OW20843  10.235   3.807   6.396  0.0040 -0.5199 -0.7578
38796SOL    HW120844  10.238   3.865   6.472 -1.6751  0.3023 -1.2790
38796SOL    HW220845  10.216   3.865   6.323 -2.2813 -1.7403 -1.2243
38797SOL     OW20846   5.183   3.142   9.066  0.1210  0.8409 -0.3338
38797SOL    HW120847   5.240   3.065   9.075  0.9611  1.5500  0.7604
38797SOL    HW220848   5.094   3.107   9.072  0.4855 -0.0627 -0.0264
38798SOL     OW20849  10.060   8.672   1.971 -0.4204 -0.4774  0.2423
38798SOL    HW120850  10.059   8.692   2.065  0.2003 -0.5468  0.2671
38798SOL    HW220851  10.003   8.595   1.963  0.0649 -0.8917  0.6634
38799SOL     OW20852   4.154   4.258   3.388  0.1090  0.4402 -0.2006
38799SOL    HW120853   4.112   4.263   3.302  0.4933 -1.2350 -0.5226
38799SOL    HW220854   4.247   4.264   3.369  0.1826  0.2733  0.1136
38800SOL     OW20855   6.616   9.595  10.983 -0.1126  0.0589  0.4422
38800SOL    HW120856   6.658   9.667  10.935 -1.5924  0.0362 -0.9635
38800SOL    HW220857   6.685   9.529  10.990  0.4820  0.5183 -0.6965
38801SOL     OW20858   9.204   7.944   3.906 -0.1825  0.2536  0.1425
38801SOL    HW120859   9.126   7.944   3.960 -0.0965  1.5779  0.2801
38801SOL    HW220860   9.205   7.857   3.865 -0.8470 -0.3509  1.3757
38802SOL     OW20861   4.419   3.097   3.220  0.2579 -0.2291 -0.0135
38802SOL    HW120862   4.344   3.058   3.264 -1.4304  2.9867  0.2539
38802SOL    HW220863   4.399   3.092   3.127  1.3251 -2.2341 -0.1954
38803SOL     OW20864   4.795   8.532   8.961 -0.3271  0.5249  0.0392
38803SOL    HW120865   4.702   8.552   8.971 -0.5139 -0.7716  1.1979
38803SOL    HW220866   4.814   8.471   9.032  1.0427 -0.4490 -1.0990
38804SOL     OW20867   0.605   7.288   5.605 -0.5886 -0.3135  0.1324
38804SOL    HW120868   0.519   7.320   5.631 -0.9161 -0.6580 -0.4939
38804SOL    HW220869   0.665   7.320   5.672 -1.3471 -0.8716  1.0964
38805SOL     OW20870   4.429   4.455   9.076  0.2241  1.0262 -0.1161
38805SOL    HW120871   4.467   4.413   9.153  1.1116  3.3412  0.7962
38805SOL    HW220872   4.340   4.421   9.072  0.8330 -0.8066  0.5931
38806SOL     OW20873   9.508   5.018   9.125  0.2041 -0.0493  0.8783
38806SOL    HW120874   9.413   5.026   9.111  0.6234 -0.0508 -3.3873
38806SOL    HW220875   9.538   5.107   9.140 -0.2023  0.3718 -0.6874
38807SOL     OW20876   3.483   8.821  11.025  0.8719  0.0073 -0.4081
38807SOL    HW120877   3.538   8.827  10.947 -0.7669 -1.0114 -1.7226
38807SOL    HW220878   3.395   8.801  10.991  0.3120 -1.5670  1.7319
38808SOL     OW20879   6.279  10.931   7.889  0.2083  0.1911  0.1278
38808SOL    HW120880   6.370  10.937   7.918 -0.1621  0.2672  1.3301
38808SOL    HW220881   6.228  10.967   7.962 -0.7544  0.7070 -0.7662
38809SOL     OW20882   4.261  10.747  10.640 -0.1132 -0.3851  0.0263
38809SOL    HW120883   4.335  10.692  10.616  0.0182  0.0939 -0.6945
38809SOL    HW220884   4.301  10.820  10.688 -0.0822 -0.0194 -0.5421
38810SOL     OW20885   2.352   9.205   8.192  0.0310 -0.1113 -0.3323
38810SOL    HW120886   2.339   9.266   8.265 -3.4597 -1.1324  0.0920
38810SOL    HW220887   2.302   9.127   8.216  1.2195 -1.6716 -2.5436
38811SOL     OW20888   1.693   8.437   9.350  0.5871 -0.0152  0.0967
38811SOL    HW120889   1.661   8.412   9.263  0.7162  1.2937 -0.3422
38811SOL    HW220890   1.677   8.359   9.404  0.8443 -0.9914 -1.1726
38812SOL     OW20891  10.948   6.034   8.891 -0.0957  0.0175 -0.3292
38812SOL    HW120892  10.946   5.939   8.895 -0.0729  0.0603  1.1824
38812SOL    HW220893  11.040   6.056   8.881  0.6563 -0.0671  4.2065
38813SOL     OW20894   8.723   9.506   1.379  0.4816 -0.3031  0.6498
38813SOL    HW120895   8.761   9.519   1.292 -0.3719 -0.3366  0.2621
38813SOL    HW220896   8.636   9.469   1.362 -0.3777  1.2379  1.4251
38814SOL     OW20897   0.478   3.136   6.166 -0.0401 -0.5683 -0.1725
38814SOL    HW120898   0.394   3.167   6.199  0.1973  0.1059 -0.1831
38814SOL    HW220899   0.521   3.214   6.133  0.5612 -0.9199 -0.2404
38815SOL     OW20900   1.097  10.287   8.758 -0.0913 -0.0276 -0.0591
38815SOL    HW120901   1.143  10.369   8.741  1.7362 -0.9621  0.1856
38815SOL    HW220902   1.082  10.251   8.670 -0.0541  0.1194 -0.1269
38816SOL     OW20903   7.371  11.062   7.731 -0.1972  0.0284  0.6285
38816SOL    HW120904   7.344  11.100   7.815 -2.3393 -1.3774  0.6453
38816SOL    HW220905   7.315  10.985   7.720  1.2762 -0.8584 -1.2613
38817SOL     OW20906   9.447   7.047   1.890 -0.1266 -0.2122 -0.6767
38817SOL    HW120907   9.370   6.992   1.905  0.5129 -0.7304  0.8830
38817SOL    HW220908   9.512   6.989   1.851  0.3032 -0.4281  0.3137
38818SOL     OW20909  10.976   5.370   4.413 -0.3169  0.8964  0.6452
38818SOL    HW120910  10.961   5.332   4.499 -0.1018  0.1575  0.3572
38818SOL    HW220911  10.994   5.296   4.356 -0.3670  1.3854 -0.0232
38819SOL     OW20912   4.190   3.697   8.874  0.2029  0.0644 -0.4838
38819SOL    HW120913   4.190   3.618   8.820  1.9510  0.0486 -0.4895
38819SOL    HW220914   4.253   3.755   8.833  0.5109  0.6250  0.7283
38820SOL     OW20915  10.591   3.640   1.879  0.3882  0.1890 -1.0976
38820SOL    HW120916  10.670   3.623   1.929  0.6947 -1.0532 -1.9363
38820SOL    HW220917  10.519   3.625   1.940  0.7786 -0.0710 -0.7009
38821SOL     OW20918  10.269   0.952   3.126  0.0368 -0.0780  0.0502
38821SOL    HW120919  10.243   0.973   3.036  0.3324  0.3635  0.0609
38821SOL    HW220920  10.215   1.010   3.180  1.3811  1.2633  0.0492
38822SOL     OW20921   2.119   3.061   0.552 -0.6792  0.9276 -0.1277
38822SOL    HW120922   2.026   3.083   0.553 -0.9672 -0.2540 -0.1671
38822SOL    HW220923   2.157   3.121   0.487 -1.2594  1.9333  0.4310
38823SOL     OW20924   9.469   6.783  10.105 -0.3298  0.2034 -0.4610
38823SOL    HW120925   9.429   6.720  10.045 -0.7729 -1.4993  1.5219
38823SOL    HW220926   9.557   6.747  10.121 -0.7323 -0.2101  1.0052
38824SOL     OW20927   6.621   6.200   8.989 -0.1166 -0.6287  0.0703
38824SOL    HW120928   6.540   6.235   8.952 -0.4020 -0.5169  0.7671
38824SOL    HW220929   6.652   6.137   8.925 -0.9900 -0.9867 -0.0191
38825SOL     OW20930   3.384   0.755   5.050  0.5327 -0.1190 -0.5273
38825SOL    HW120931   3.348   0.816   5.114 -1.1990 -1.4264 -0.2110
38825SOL    HW220932   3.376   0.801   4.966 -0.2151  0.3152 -0.2268
38826SOL     OW20933   7.361   4.614   1.110 -0.1879 -0.1655 -0.1127
38826SOL    HW120934   7.434   4.644   1.055 -0.8179  1.7090  0.0076
38826SOL    HW220935   7.337   4.529   1.074  0.9109 -0.0086 -1.2710
38827SOL     OW20936   8.728   0.762   3.973 -0.7049 -0.0077  0.1370
38827SOL    HW120937   8.732   0.817   4.051  3.6738 -0.2239  0.3094
38827SOL    HW220938   8.712   0.824   3.901  1.0309  1.1107  0.6621
38828SOL     OW20939   1.693   1.169   1.946  0.1131 -0.2272  0.2270
38828SOL    HW120940   1.648   1.253   1.945 -1.0823 -0.8337  0.9049
38828SOL    HW220941   1.627   1.107   1.977  0.5739 -1.6502 -1.4802
38829SOL     OW20942   5.067   6.812  10.335  0.0661 -0.5380 -0.4534
38829SOL    HW120943   5.142   6.848  10.287  0.7703 -1.9455 -0.4638
38829SOL    HW220944   5.025   6.753  10.273 -0.2516 -0.7856 -0.0060
38830SOL     OW20945   0.135   1.116   9.587 -0.4643  0.3275 -0.3145
38830SOL    HW120946   0.101   1.047   9.530  0.7159 -0.2535 -0.3318
38830SOL    HW220947   0.228   1.121   9.566 -0.1492  0.5803  1.0768
38831SOL     OW20948   9.665   0.142   0.519  0.3346  0.1983 -0.7175
38831SOL    HW120949   9.743   0.144   0.464  0.6848 -0.7056 -0.2803
38831SOL    HW220950   9.668   0.056   0.561  1.1586  1.5557  2.2596
38832SOL     OW20951   3.000   5.775   6.079 -0.0587  0.6610 -0.6160
38832SOL    HW120952   2.974   5.759   6.169  1.8462  0.3392 -0.0893
38832SOL    HW220953   3.044   5.695   6.051 -2.5878 -0.1845 -2.6826
38833SOL     OW20954  10.455   0.849   2.069  0.0784  0.1853 -0.2703
38833SOL    HW120955  10.415   0.771   2.107 -1.1915  1.2641  0.6673
38833SOL    HW220956  10.544   0.821   2.046 -0.1676 -1.3816  0.5492
38834SOL     OW20957   0.355   0.624   1.514 -0.2212  0.4544 -0.1812
38834SOL    HW120958   0.374   0.612   1.607 -0.7279  0.4898 -0.0711
38834SOL    HW220959   0.391   0.547   1.472 -1.3803 -0.3421  0.2382
38835SOL     OW20960   4.255   0.619   6.349  0.2680 -0.7661  0.1256
38835SOL    HW120961   4.334   0.593   6.303  0.6002 -0.4343  0.4955
38835SOL    HW220962   4.209   0.537   6.367 -0.0047 -0.8818 -1.0237
38836SOL     OW20963   6.582   6.151   0.998  0.2757 -0.9220  0.2735
38836SOL    HW120964   6.607   6.059   0.994  1.3472 -0.6108 -0.5487
38836SOL    HW220965   6.559   6.165   1.090 -1.0066 -2.2742  0.2042
38837SOL     OW20966   8.563   5.070   2.384 -0.2511 -0.4882  0.6872
38837SOL    HW120967   8.521   5.111   2.459 -1.4009 -0.8313  0.2586
38837SOL    HW220968   8.575   4.978   2.410 -0.5941 -0.5929  0.4873
38838SOL     OW20969   2.943   6.687   3.454  0.1438 -0.2465 -0.0230
38838SOL    HW120970   2.985   6.695   3.368  1.5564  1.8618  0.7889
38838SOL    HW220971   3.012   6.708   3.517 -0.9730 -1.3114  1.6389
38839SOL     OW20972   4.086   4.068   1.731  0.9567  0.4260  0.4902
38839SOL    HW120973   4.126   4.072   1.644  1.3922  1.3018  0.7254
38839SOL    HW220974   4.030   4.145   1.735  0.3816  0.0083  0.7301
38840SOL     OW20975   2.070   7.949   9.227  0.0600  0.8837 -0.3256
38840SOL    HW120976   2.029   8.029   9.194  0.9235  1.1149 -0.8980
38840SOL    HW220977   2.074   7.891   9.151 -1.4958 -0.1269  0.3258
38841SOL     OW20978   0.024   0.453   3.400 -0.1374  0.0625  0.2687
38841SOL    HW120979   0.012   0.461   3.494 -1.5590 -0.1573  0.1292
38841SOL    HW220980  -0.058   0.487   3.363  0.5257  0.4469 -0.8998
38842SOL     OW20981   4.040   1.739   1.265  0.8630 -0.2005 -0.1869
38842SOL    HW120982   3.971   1.689   1.221  0.1414 -0.7539  1.4662
38842SOL    HW220983   4.116   1.680   1.265  0.3360 -0.9111  0.8084
38843SOL     OW20984   9.373   4.877   9.908 -0.3149  0.0564  1.0793
38843SOL    HW120985   9.310   4.813   9.941 -0.1416 -1.4232 -1.2456
38843SOL    HW220986   9.448   4.870   9.967 -0.8746 -0.8254  1.7102
38844SOL     OW20987   0.827   4.683   1.998 -0.3750  0.2346 -0.1095
38844SOL    HW120988   0.857   4.746   2.064  1.3827 -0.1127 -0.5164
38844SOL    HW220989   0.732   4.691   1.999 -0.5754 -0.6573  3.3644
38845SOL     OW20990   1.799   0.515   7.647 -0.5366 -0.8339 -0.1750
38845SOL    HW120991   1.822   0.569   7.722 -0.9609  0.5571 -1.0133
38845SOL    HW220992   1.872   0.453   7.639  0.3883  0.1589  0.3077
38846SOL     OW20993  10.471   0.026   2.110 -0.0696 -0.0708  0.2039
38846SOL    HW120994  10.408  -0.034   2.070 -2.9846  2.7316  0.1898
38846SOL    HW220995  10.421   0.071   2.179  2.1183  1.8310  0.6741
38847SOL     OW20996   1.647   5.867   6.179  0.4579  0.1087 -0.4507
38847SOL    HW120997   1.661   5.820   6.097  0.2024 -0.2411 -0.2965
38847SOL    HW220998   1.585   5.936   6.157  1.2465  0.7276 -0.8001
38848SOL     OW20999   4.796   1.707   5.534  0.2048  0.5061 -0.1882
38848SOL    HW121000   4.805   1.777   5.598 -0.8277  1.4546 -1.0513
38848SOL    HW221001   4.823   1.746   5.451 -2.2901  0.5546 -1.0610
38849SOL     OW21002  10.087  10.396   2.364  0.5782 -0.0936  0.4847
38849SOL    HW121003  10.154  10.356   2.309 -0.5432 -0.3698 -0.7076
38849SOL    HW221004  10.008  10.344   2.348 -0.5561  1.7164 -0.0006
38850SOL     OW21005   9.946   0.579   2.515  0.3826  0.0555  0.2200
38850SOL    HW121006   9.924   0.542   2.430  0.3423  2.3483 -0.8348
38850SOL    HW221007   9.886   0.535   2.576  0.5975 -1.8121 -0.8398
38851SOL     OW21008   5.066   7.268   1.864 -0.7780  0.0498  0.2115
38851SOL    HW121009   5.146   7.236   1.823 -0.8208 -0.1593  0.2902
38851SOL    HW221010   5.096   7.323   1.937 -0.6978  0.5487 -0.1865
38852SOL     OW21011   7.795   7.350   5.179 -1.0095 -0.7495  0.2201
38852SOL    HW121012   7.823   7.284   5.243  0.0465  0.8259  1.4766
38852SOL    HW221013   7.793   7.304   5.096 -0.8511 -2.4879  1.1350
38853SOL     OW21014   9.080  10.419   7.470 -0.7669  0.0819 -0.3237
38853SOL    HW121015   9.031  10.492   7.510 -0.0449  1.3302 -1.6264
38853SOL    HW221016   9.043  10.411   7.382 -0.1110 -0.4293 -0.5568
38854SOL     OW21017   6.536   0.565   9.727 -0.3321  0.0001  0.4981
38854SOL    HW121018   6.546   0.472   9.706 -2.1763 -0.1090 -0.0761
38854SOL    HW221019   6.544   0.569   9.823  0.8100 -0.5794  0.4410
38855SOL     OW21020   8.783   4.772   9.688 -0.1019 -0.2279  0.0459
38855SOL    HW121021   8.863   4.766   9.739  2.0405  1.4349 -2.8504
38855SOL    HW221022   8.752   4.861   9.702 -1.4514 -0.8215  1.0480
38856SOL     OW21023  10.836   7.040   0.958  0.6233  0.2192 -0.4292
38856SOL    HW121024  10.820   7.028   1.051  0.7379 -0.0066 -0.4375
38856SOL    HW221025  10.783   7.116   0.934 -2.2303 -1.7811 -0.9291
38857SOL     OW21026   8.721   0.531   8.502 -0.4730 -0.4267 -0.0025
38857SOL    HW121027   8.690   0.593   8.435  1.3308  1.0231  0.4447
38857SOL    HW221028   8.803   0.497   8.467 -0.7714 -1.5551  0.3754
38858SOL     OW21029   6.054   5.850   2.937 -0.1768  0.2412 -0.1412
38858SOL    HW121030   5.990   5.874   2.871  0.3238  1.1210 -0.3142
38858SOL    HW221031   6.008   5.862   3.021 -0.0892  1.3414 -0.2437
38859SOL     OW21032   2.470   1.147   8.502  1.1503 -0.4127 -0.0843
38859SOL    HW121033   2.402   1.210   8.526  0.1921 -2.1300  2.1535
38859SOL    HW221034   2.434   1.100   8.427  0.5834 -0.2016  0.0475
38860SOL     OW21035   0.511   0.299   2.367 -0.3848 -0.1320 -0.3784
38860SOL    HW121036   0.492   0.356   2.292  1.4642 -1.1760 -1.7072
38860SOL    HW221037   0.593   0.332   2.403 -0.4701 -0.5846  0.2480
38861SOL     OW21038   9.316   3.074  10.373  0.0504  0.4656  0.5311
38861SOL    HW121039   9.333   3.066  10.467  0.5214 -0.1480  0.4045
38861SOL    HW221040   9.386   3.132  10.341  1.9374 -1.9128  0.0405
38862SOL     OW21041   3.096   1.714   7.604  0.2327  0.5008  0.0034
38862SOL    HW121042   3.185   1.749   7.603  0.5115 -0.1717  0.6201
38862SOL    HW221043   3.107   1.619   7.611 -0.5164  0.2545 -1.7314
38863SOL     OW21044   4.398   4.929   1.722 -0.2929 -0.5198  0.0604
38863SOL    HW121045   4.480   4.944   1.674 -0.1757 -0.6822  0.2068
38863SOL    HW221046   4.354   5.014   1.721 -0.3007 -0.5271 -0.3494
38864SOL     OW21047   0.173  10.155   3.625 -0.6400 -0.0967 -0.3406
38864SOL    HW121048   0.122  10.091   3.576  0.3789 -0.3331 -1.1354
38864SOL    HW221049   0.254  10.109   3.647 -0.3889  0.5469  0.1161
38865SOL     OW21050   3.539   0.500   9.575 -0.0401  0.1608  0.4702
38865SOL    HW121051   3.519   0.433   9.640 -0.0851 -0.5503 -0.2568
38865SOL    HW221052   3.454   0.540   9.555 -0.0099  0.4501  0.9238
38866SOL     OW21053   1.714   1.745   9.171  0.2333  0.1438  0.0896
38866SOL    HW121054   1.745   1.736   9.081  0.4496 -0.2086  0.1978
38866SOL    HW221055   1.753   1.671   9.217 -0.0001  0.2379  0.4395
38867SOL     OW21056   4.017   7.214   2.535 -0.1712  0.3778 -0.1191
38867SOL    HW121057   3.932   7.255   2.520  0.3110  0.9715 -1.2831
38867SOL    HW221058   4.081   7.280   2.510  0.6960  0.5368  2.2791
38868SOL     OW21059   7.793   6.438   3.325 -0.0375  0.1696 -0.9659
38868SOL    HW121060   7.767   6.349   3.300  1.3942 -0.8321  0.8000
38868SOL    HW221061   7.847   6.469   3.253  0.6097 -0.9630 -0.9821
38869SOL     OW21062   2.394   9.219   0.031 -0.6550  0.3553  0.1326
38869SOL    HW121063   2.471   9.261   0.070 -1.3313  1.5494  0.2427
38869SOL    HW221064   2.325   9.228   0.098 -0.8843 -0.7503  0.0635
38870SOL     OW21065   1.706   0.111   4.816  0.2279  0.6390 -0.4194
38870SOL    HW121066   1.728   0.070   4.732 -1.2358  1.3223 -1.1775
38870SOL    HW221067   1.674   0.198   4.792 -1.2362  0.4633  0.7468
38871SOL     OW21068   6.787   5.872   1.878  0.0691 -0.5505 -0.4857
38871SOL    HW121069   6.796   5.855   1.972  0.2972 -0.1103 -0.4273
38871SOL    HW221070   6.695   5.857   1.859 -0.5477  1.8131  0.3167
38872SOL     OW21071  10.027   9.973   2.483  0.4717  0.0049  0.1778
38872SOL    HW121072   9.967   9.899   2.477  1.7013 -1.1371  1.3999
38872SOL    HW221073  10.012  10.022   2.402  0.0637 -1.9171 -0.9810
38873SOL     OW21074   2.969   0.126   7.708  0.1424  0.0363  0.2026
38873SOL    HW121075   2.936   0.099   7.622 -0.2324  0.3918  0.2319
38873SOL    HW221076   3.041   0.066   7.726 -1.1654 -1.4767  0.6318
38874SOL     OW21077   1.544   7.653   5.118  0.3156 -0.3777 -0.4190
38874SOL    HW121078   1.617   7.713   5.101 -2.2021  2.9208 -0.6859
38874SOL    HW221079   1.523   7.615   5.033  1.1620 -0.7109 -0.4869
38875SOL     OW21080   2.303   7.784   0.608  0.3804  0.4581 -0.3731
38875SOL    HW121081   2.303   7.723   0.535 -0.6281 -1.1488  0.8762
38875SOL    HW221082   2.211   7.811   0.617  0.8792  2.5954 -1.1994
38876SOL     OW21083  10.776   7.196   3.098  0.2813  0.0595  0.0055
38876SOL    HW121084  10.707   7.199   3.030  1.9502  0.5273 -1.7548
38876SOL    HW221085  10.836   7.129   3.066  1.2191  0.4462  0.9383
38877SOL     OW21086   2.597   3.796   0.853  0.7260 -0.2632 -0.3246
38877SOL    HW121087   2.662   3.820   0.787 -1.6406 -0.3907 -2.9172
38877SOL    HW221088   2.592   3.701   0.848 -1.1138 -0.1488 -1.8054
38878SOL     OW21089   6.326  10.570   1.190  0.3985  0.0031  0.4905
38878SOL    HW121090   6.312  10.662   1.213 -0.5315 -0.3054  1.2071
38878SOL    HW221091   6.239  10.537   1.170  0.7984 -0.5910 -0.2850
38879SOL     OW21092  11.023   2.821   7.035  0.5540 -0.2377  0.8254
38879SOL    HW121093  11.103   2.775   7.058  0.1345 -1.0681  0.6626
38879SOL    HW221094  10.953   2.760   7.058  0.0150  0.0371 -0.0488
38880SOL     OW21095   9.048   5.938   2.004 -0.3785  0.1136 -0.7618
38880SOL    HW121096   9.118   5.979   2.055  0.5688 -1.1194 -1.0179
38880SOL    HW221097   9.049   5.983   1.920  0.5645 -0.3154 -0.9959
38881SOL     OW21098   2.226  10.599   7.707 -0.3712 -0.9405  0.0657
38881SOL    HW121099   2.252  10.643   7.626 -0.0595 -2.7213 -0.8532
38881SOL    HW221100   2.299  10.540   7.727 -1.7322 -2.7500 -0.0714
38882SOL     OW21101   0.441   4.318   4.390 -0.0063  0.1263  0.0870
38882SOL    HW121102   0.414   4.256   4.457 -0.4375 -1.3957 -1.4036
38882SOL    HW221103   0.535   4.303   4.379  0.6201  2.0929  1.9598
38883SOL     OW21104   5.541   7.944   1.341 -0.4390 -0.0921  0.3368
38883SOL    HW121105   5.483   7.910   1.273 -0.3096  2.0583 -0.9328
38883SOL    HW221106   5.595   8.010   1.296  2.6943 -1.6078  1.5506
38884SOL     OW21107   9.552  10.682   1.791 -0.6221  0.0501  0.0904
38884SOL    HW121108   9.549  10.776   1.775  1.6727  0.2812  0.6760
38884SOL    HW221109   9.585  10.674   1.881  0.7900 -1.2885 -0.4958
38885SOL     OW21110   1.580   1.439   3.044 -0.1302  0.0424 -0.4123
38885SOL    HW121111   1.666   1.451   3.004  0.2507  1.4358  0.7510
38885SOL    HW221112   1.590   1.363   3.101  0.1122 -0.2385 -0.8212
38886SOL     OW21113   9.644   2.766   9.475 -0.0809  0.3665 -0.2433
38886SOL    HW121114   9.557   2.800   9.454  0.6155  1.3829 -1.5982
38886SOL    HW221115   9.648   2.682   9.431 -0.0854  0.6850 -0.8538
38887SOL     OW21116   9.154   3.230   8.753 -0.2190 -0.8181  0.0933
38887SOL    HW121117   9.166   3.250   8.846  1.0738 -1.2891  0.0480
38887SOL    HW221118   9.081   3.168   8.751 -0.4588 -0.5707  0.7579
38888SOL     OW21119   5.918  10.341   9.609 -0.6662 -0.1802 -0.1951
38888SOL    HW121120   5.964  10.320   9.528 -0.8775  0.6873 -0.5566
38888SOL    HW221121   5.923  10.437   9.615 -0.6223 -0.2355  0.8376
38889SOL     OW21122   5.828   8.844   3.375 -0.2457 -0.4820 -0.1061
38889SOL    HW121123   5.890   8.885   3.315 -1.0802 -0.9556 -1.3339
38889SOL    HW221124   5.882   8.808   3.445  0.4582  3.5720  1.6610
38890SOL     OW21125   8.367   3.711   4.826 -0.1269  0.1654 -0.0299
38890SOL    HW121126   8.334   3.653   4.894  1.7201 -0.3245  0.5195
38890SOL    HW221127   8.315   3.791   4.834 -3.9620 -1.8758 -1.9276
38891SOL     OW21128   7.529   0.422  10.312  0.0553  0.7818  0.4067
38891SOL    HW121129   7.556   0.359  10.378  1.7021 -0.4400 -1.3089
38891SOL    HW221130   7.455   0.468  10.351 -0.2614 -1.1904  2.3119
38892SOL     OW21131   8.030   7.402   1.502 -0.2753 -0.1779 -0.0968
38892SOL    HW121132   7.962   7.415   1.437  0.6132  0.7682 -0.8651
38892SOL    HW221133   7.995   7.335   1.561 -2.0836  0.6720 -0.1519
38893SOL     OW21134  10.354   9.175   9.179 -0.5373 -0.8236 -0.3096
38893SOL    HW121135  10.377   9.268   9.184 -0.0124 -0.8883 -1.2491
38893SOL    HW221136  10.268   9.169   9.220  0.8130 -0.4750  2.8545
38894SOL     OW21137   5.598   1.003  10.359 -0.0350 -0.0785  0.2965
38894SOL    HW121138   5.690   1.027  10.344 -0.6170  1.2258 -1.3901
38894SOL    HW221139   5.561   0.994  10.272 -1.6317 -0.1352  0.9596
38895SOL     OW21140  10.661   0.063   7.197  0.2025 -0.6959  0.3702
38895SOL    HW121141  10.724   0.100   7.136  0.6081 -1.3428  0.3923
38895SOL    HW221142  10.621  -0.009   7.149  0.4062 -1.1062  0.8105
38896SOL     OW21143  10.686   1.772  10.995 -0.2186  0.0544 -0.0316
38896SOL    HW121144  10.775   1.806  11.003 -0.1129 -0.3459  0.4866
38896SOL    HW221145  10.693   1.699  10.933  0.0959 -0.9843  1.2037
38897SOL     OW21146   4.881   4.524   4.134 -0.1384  0.0271 -0.0872
38897SOL    HW121147   4.848   4.499   4.220  0.7538 -1.8367 -0.2440
38897SOL    HW221148   4.954   4.464   4.117 -1.6739 -1.2285 -3.1184
38898SOL     OW21149   6.347  11.050   9.174 -0.0040 -0.9972 -0.9269
38898SOL    HW121150   6.330  11.143   9.186 -0.8452 -1.1359 -0.9780
38898SOL    HW221151   6.419  11.046   9.112  1.5849 -0.3336  0.7678
38899SOL     OW21152   1.161   1.457   5.591 -0.0891  0.5959  0.1247
38899SOL    HW121153   1.230   1.513   5.556  0.4384  0.1334  0.3982
38899SOL    HW221154   1.198   1.422   5.672 -0.0413 -0.8512 -0.4963
38900SOL     OW21155  10.920   2.201   4.630  0.3888  0.0675 -0.1692
38900SOL    HW121156  10.942   2.278   4.682  0.5910  0.3348 -0.6398
38900SOL    HW221157  10.846   2.162   4.676  2.0246 -1.0557  1.6454
38901SOL     OW21158  10.778   9.606   6.712  0.3354  0.5307  0.3818
38901SOL    HW121159  10.801   9.520   6.747 -1.8764 -0.4132 -0.3585
38901SOL    HW221160  10.829   9.667   6.766  2.8384 -1.2228  0.2071
38902SOL     OW21161   9.256   0.861   5.033 -0.2317 -0.4877  0.1843
38902SOL    HW121162   9.313   0.864   4.956  0.6509  0.3125  0.8399
38902SOL    HW221163   9.178   0.911   5.008  0.1268 -0.0888 -0.1455
38903SOL     OW21164   0.112   3.125  10.399 -0.0146 -0.3947 -0.3476
38903SOL    HW121165   0.118   3.174  10.481 -0.2362 -1.1440  0.1283
38903SOL    HW221166   0.036   3.068  10.411  0.7446 -1.4732 -0.5537
38904SOL     OW21167   9.373   1.593  10.608 -0.1518  0.4359 -0.0997
38904SOL    HW121168   9.420   1.641  10.676 -0.2310  1.9638 -1.0812
38904SOL    HW221169   9.300   1.552  10.654  1.3439 -0.8911  1.2177
38905SOL     OW21170   9.610   5.532   3.465 -0.0292  0.5461  0.2833
38905SOL    HW121171   9.586   5.447   3.428 -0.5564  0.0736  1.6587
38905SOL    HW221172   9.583   5.596   3.399 -0.1112 -0.3232 -0.5345
38906SOL     OW21173   8.539   8.506  10.773 -0.3919  0.7665  1.2157
38906SOL    HW121174   8.545   8.596  10.805 -1.8144  0.7151  1.7364
38906SOL    HW221175   8.476   8.464  10.832 -2.8245  0.5325 -1.3009
38907SOL     OW21176   5.051   6.482   0.122 -0.0038 -0.2834 -0.1838
38907SOL    HW121177   5.076   6.447   0.208 -3.0632  1.9731  1.8699
38907SOL    HW221178   5.121   6.543   0.100  0.1381  0.2384  1.5252
38908SOL     OW21179   9.328   0.325   9.534 -0.1244 -0.0134  0.0013
38908SOL    HW121180   9.279   0.402   9.563 -0.0250  0.2528 -0.5317
38908SOL    HW221181   9.325   0.265   9.609  0.9144  1.0327  0.9212
38909SOL     OW21182   7.475  10.893   5.278  0.7698 -0.1971 -0.3390
38909SOL    HW121183   7.420  10.964   5.311  0.3349 -0.0846 -1.2615
38909SOL    HW221184   7.560  10.907   5.320  0.4324  0.3206  0.1996
38910SOL     OW21185   2.019   2.790   9.558  0.3160  0.2166 -1.0628
38910SOL    HW121186   1.939   2.843   9.554 -1.2701 -2.0217 -0.7534
38910SOL    HW221187   2.057   2.811   9.643  0.9397  2.4071 -1.8123
38911SOL     OW21188   0.446   4.335   1.221 -0.4588 -0.1902  0.2011
38911SOL    HW121189   0.495   4.267   1.268 -1.1680  0.8100  2.4853
38911SOL    HW221190   0.475   4.417   1.260 -0.7320  0.7536 -1.4831
38912SOL     OW21191   0.349   0.432   3.564 -0.6590 -0.0074 -0.1257
38912SOL    HW121192   0.416   0.474   3.618 -0.9167 -0.0783  0.2564
38912SOL    HW221193   0.383   0.438   3.475 -0.2125  0.0874  0.0450
38913SOL     OW21194   7.084   9.426  10.514  0.3204  0.1456  0.5740
38913SOL    HW121195   7.117   9.366  10.448  0.3689  0.7091  0.0837
38913SOL    HW221196   6.991   9.403  10.522 -0.0071  0.9360 -0.6527
38914SOL     OW21197   2.333   0.505   8.107  0.6924 -0.0849 -0.3685
38914SOL    HW121198   2.241   0.505   8.081 -0.0181 -0.9926  1.9110
38914SOL    HW221199   2.343   0.585   8.158  0.7982 -0.6230  0.4746
38915SOL     OW21200   1.712   5.247   9.542  0.0975 -0.6609  0.3042
38915SOL    HW121201   1.668   5.178   9.494 -0.1421 -1.5964  1.8248
38915SOL    HW221202   1.769   5.289   9.477 -0.5021 -1.6188 -0.8673
38916SOL     OW21203   0.809   8.309   5.826  0.4267  0.4043  0.4590
38916SOL    HW121204   0.766   8.394   5.832  1.1389  0.9376 -1.4000
38916SOL    HW221205   0.902   8.329   5.829  0.5929 -0.4222  1.1089
38917SOL     OW21206   1.876   7.011  10.619  0.1567 -0.5874 -0.0027
38917SOL    HW121207   1.959   6.994  10.663 -1.2620 -2.3061  2.2052
38917SOL    HW221208   1.818   6.942  10.650 -1.3836 -1.1037 -3.6291
38918SOL     OW21209   1.898   2.752   4.583  0.6800  0.0860 -0.3326
38918SOL    HW121210   1.934   2.674   4.624  0.2963 -0.4123 -0.9275
38918SOL    HW221211   1.958   2.823   4.609 -0.1271  0.0281  1.9844
38919SOL     OW21212   0.679   7.157   2.788  0.2366 -0.7475  0.0076
38919SOL    HW121213   0.649   7.100   2.859  0.9992 -1.3369 -0.1240
38919SOL    HW221214   0.600   7.196   2.753 -0.0902  0.2804  1.7856
38920SOL     OW21215   7.900   5.670   4.751 -0.5631  0.7204 -0.0605
38920SOL    HW121216   7.961   5.697   4.819 -1.3888 -0.3422  1.1546
38920SOL    HW221217   7.847   5.747   4.734 -1.6772  0.4884  2.0074
38921SOL     OW21218   5.696   0.917   5.670 -0.3780 -0.3234  0.1790
38921SOL    HW121219   5.666   1.007   5.659  0.3837 -0.0367  0.3400
38921SOL    HW221220   5.684   0.877   5.584  0.0423  0.1772 -0.1186
38922SOL     OW21221   4.723   9.807   4.938  0.0315 -0.1543  0.0844
38922SOL    HW121222   4.719   9.900   4.916 -1.2334 -0.6750 -2.2332
38922SOL    HW221223   4.816   9.789   4.954  0.6028  1.0812 -1.6074
38923SOL     OW21224   4.680   0.987  10.332  0.5394 -0.2563 -0.2431
38923SOL    HW121225   4.765   0.944  10.346  0.9904  0.0575 -1.7870
38923SOL    HW221226   4.700   1.080  10.328  0.3345 -0.2478 -1.7705
38924SOL     OW21227   5.629   7.550   2.328  0.0539 -0.0305  0.3267
38924SOL    HW121228   5.597   7.580   2.243  0.3194 -0.3303  0.1231
38924SOL    HW221229   5.605   7.621   2.388  1.3521  0.9553 -0.2796
38925SOL     OW21230   5.716   8.055   1.163 -0.3275 -0.2175 -0.2679
38925SOL    HW121231   5.765   7.980   1.131 -0.0625  0.1871 -0.8434
38925SOL    HW221232   5.682   8.097   1.083  2.3350  2.1895 -0.3410
38926SOL     OW21233   2.356  10.117   3.493 -0.1559  0.3004  0.1364
38926SOL    HW121234   2.371  10.183   3.561 -0.4660  1.7404 -1.1375
38926SOL    HW221235   2.264  10.127   3.470  0.3682  1.1537 -1.7616
38927SOL     OW21236   0.333   0.519   1.153  0.9700  0.0123  0.5815
38927SOL    HW121237   0.419   0.546   1.187  2.2358 -0.5194 -1.9354
38927SOL    HW221238   0.348   0.431   1.119 -0.3582  0.2131 -0.5952
38928SOL     OW21239  10.709   3.551   5.970  0.0099  0.7127 -0.4356
38928SOL    HW121240  10.746   3.512   6.050 -1.2659  1.1286  0.3856
38928SOL    HW221241  10.714   3.480   5.905 -0.5990 -0.2438  0.5269
38929SOL     OW21242   2.119   4.966   2.226 -0.0787  0.3398 -0.7411
38929SOL    HW121243   2.122   4.943   2.319  0.1632  0.5976 -0.6844
38929SOL    HW221244   2.093   5.058   2.225 -1.9041 -0.1375 -0.9917
38930SOL     OW21245   7.349   6.182   9.191 -0.1083 -0.6944  0.6234
38930SOL    HW121246   7.370   6.138   9.274  1.9110 -1.9850 -0.4818
38930SOL    HW221247   7.425   6.164   9.135 -1.2291  0.4962 -1.3849
38931SOL     OW21248   2.093   4.350   3.904  0.4972 -0.3911  0.0436
38931SOL    HW121249   2.030   4.319   3.839  1.8778  0.8606 -1.9869
38931SOL    HW221250   2.175   4.360   3.857  2.1545 -1.4428  2.4842
38932SOL     OW21251   5.509   9.148   9.411 -0.1067 -0.7714  0.3221
38932SOL    HW121252   5.445   9.085   9.445 -0.2296  0.3209  2.2835
38932SOL    HW221253   5.573   9.158   9.482  1.5358 -0.8309 -1.0773
38933SOL     OW21254   0.350   1.311   4.628  0.0175  0.3492 -0.5567
38933SOL    HW121255   0.393   1.314   4.542 -0.3317  1.2268 -0.7091
38933SOL    HW221256   0.281   1.376   4.622 -0.0363  0.3851  0.3891
38934SOL     OW21257   4.630   1.758  10.055  0.5495  0.7345  0.3969
38934SOL    HW121258   4.535   1.769  10.053  0.6001  1.1984 -1.1067
38934SOL    HW221259   4.642   1.664  10.068 -0.0648  0.8629  2.1452
38935SOL     OW21260   2.693   9.893   2.592 -0.2036  0.0350  0.1676
38935SOL    HW121261   2.758   9.962   2.605 -0.8983  0.3640  2.1706
38935SOL    HW221262   2.688   9.883   2.497  1.3678  1.3278 -0.0980
38936SOL     OW21263   5.803   2.940   0.500  0.0929  0.5548  0.0615
38936SOL    HW121264   5.802   2.879   0.427 -0.4774 -0.1528  0.6471
38936SOL    HW221265   5.762   3.019   0.466  0.1338  0.3456 -0.4769
38937SOL     OW21266   6.126   1.663   2.790 -0.1612 -0.3788 -0.2673
38937SOL    HW121267   6.087   1.610   2.720  3.4293 -2.0123 -1.2699
38937SOL    HW221268   6.160   1.599   2.852 -1.9637  1.0316  2.3704
38938SOL     OW21269   2.337   2.900   6.976 -0.1014 -0.0221  0.1194
38938SOL    HW121270   2.349   2.812   7.009 -0.4112 -0.4648 -0.9036
38938SOL    HW221271   2.369   2.957   7.046  1.0750 -0.9558  0.3709
38939SOL     OW21272   6.979  10.042  10.295  0.3643 -0.3780 -0.6109
38939SOL    HW121273   6.935   9.976  10.241  1.3784  0.3213 -2.3706
38939SOL    HW221274   7.068  10.045  10.261  0.5038  1.4781 -0.1744
38940SOL     OW21275   8.787  10.167   7.061 -0.1725  0.2191  0.4359
38940SOL    HW121276   8.765  10.076   7.081 -1.8346  0.8285  1.5477
38940SOL    HW221277   8.767  10.177   6.969 -0.2828 -0.4475  0.3834
38941SOL     OW21278   1.265   2.763   9.732 -0.0649  0.0686  0.3057
38941SOL    HW121279   1.339   2.777   9.790 -0.3655 -0.7498  0.9031
38941SOL    HW221280   1.201   2.829   9.759 -0.9130 -1.4138  2.1497
38942SOL     OW21281   3.292   2.545   8.553 -0.0500 -0.4626 -0.4714
38942SOL    HW121282   3.327   2.465   8.513 -0.6705 -1.5710  1.1101
38942SOL    HW221283   3.209   2.519   8.592  1.6149 -0.2388  3.7949
38943SOL     OW21284  10.019   3.234  10.047  0.1055  0.1601 -0.7084
38943SOL    HW121285  10.071   3.271   9.976  0.6207 -0.7705 -0.8227
38943SOL    HW221286   9.929   3.256  10.024  0.2800  0.0403 -1.5527
38944SOL     OW21287   9.065   9.909   7.728  0.2650 -0.9588 -0.7485
38944SOL    HW121288   9.133   9.926   7.793 -0.0628 -1.9911 -0.1215
38944SOL    HW221289   9.049   9.994   7.687 -0.9519  0.1974  1.8925
38945SOL     OW21290   3.139   3.969   8.848 -0.0841 -0.2815 -0.4434
38945SOL    HW121291   3.202   3.986   8.918 -1.1166 -0.2021  0.4811
38945SOL    HW221292   3.150   4.044   8.789  1.2790 -0.6958 -0.7606
38946SOL     OW21293   3.728   5.137   6.143  0.6626 -0.3221  0.2148
38946SOL    HW121294   3.727   5.090   6.060  1.5513  0.3284 -0.1825
38946SOL    HW221295   3.749   5.228   6.119  0.7220 -0.0859  1.1249
38947SOL     OW21296   4.784   4.398   2.317 -0.0090 -0.4004 -0.0453
38947SOL    HW121297   4.850   4.448   2.269  0.5590  1.1604  2.1803
38947SOL    HW221298   4.830   4.319   2.346  0.7649  0.3868  0.9648
38948SOL     OW21299   2.105   2.094   8.943 -0.2802 -0.2464  0.4931
38948SOL    HW121300   2.011   2.078   8.949 -0.2500 -0.4948  0.3254
38948SOL    HW221301   2.145   2.024   8.995 -0.1916 -0.0953  0.6285
38949SOL     OW21302   7.658   0.460   4.133  0.0659  0.1990  0.1580
38949SOL    HW121303   7.623   0.457   4.222 -0.6276 -0.7141 -0.1286
38949SOL    HW221304   7.738   0.512   4.140 -0.7699  1.4038  1.0330
38950SOL     OW21305   1.395   5.064   7.570 -0.2833  0.2048 -0.3047
38950SOL    HW121306   1.446   5.077   7.490 -1.9155  0.4563 -1.3503
38950SOL    HW221307   1.412   5.143   7.622  0.7566  0.0604 -0.4034
38951SOL     OW21308   8.099   9.002   6.528  0.5197 -0.0068 -0.3667
38951SOL    HW121309   8.029   8.960   6.479  1.3810  0.9252 -2.5268
38951SOL    HW221310   8.091   9.095   6.507  1.0366  0.4174  1.1739
38952SOL     OW21311   7.542   8.055   7.153  0.7315 -0.3622 -0.2176
38952SOL    HW121312   7.461   8.083   7.111  0.9456  1.0228  0.2494
38952SOL    HW221313   7.598   8.133   7.152  1.9483 -1.2111 -0.2600
38953SOL     OW21314   5.329   7.977   8.252 -0.3070  0.1512  0.4389
38953SOL    HW121315   5.413   7.932   8.252  0.0962  0.8544  1.5975
38953SOL    HW221316   5.317   8.006   8.162  0.3992 -0.4848  0.1350
38954SOL     OW21317   0.889   1.583   5.924  0.5792 -0.3524  0.0315
38954SOL    HW121318   0.978   1.599   5.957  0.2038  1.0354  0.4444
38954SOL    HW221319   0.870   1.492   5.947  2.3140 -1.0454 -1.0777
38955SOL     OW21320   9.347   1.518   4.662 -0.1632  0.0205  0.1454
38955SOL    HW121321   9.371   1.543   4.573  0.2856 -2.5791 -0.5431
38955SOL    HW221322   9.290   1.589   4.692 -1.7585  0.1575 -2.8520
38956SOL     OW21323   6.032   3.298   7.801  0.2146 -0.0421  0.3491
38956SOL    HW121324   6.128   3.291   7.807  0.2245 -0.2334  0.0177
38956SOL    HW221325   6.000   3.258   7.881  0.4513  1.3913  1.1929
38957SOL     OW21326   8.808   3.845   8.165  0.6786 -0.0579 -0.0968
38957SOL    HW121327   8.796   3.760   8.123 -1.8266 -0.2999  0.9555
38957SOL    HW221328   8.751   3.843   8.242 -0.2555  2.9425 -0.5759
38958SOL     OW21329   2.955   9.986  10.334  0.6527  0.7454 -0.4319
38958SOL    HW121330   2.893  10.017  10.400  1.6036 -0.5727  1.1531
38958SOL    HW221331   2.899   9.952  10.264 -0.4129  1.0762  0.2281
38959SOL     OW21332   2.305   8.235   2.703  0.1898 -0.4845  0.2179
38959SOL    HW121333   2.299   8.265   2.612  3.0955 -0.4647 -0.0855
38959SOL    HW221334   2.250   8.296   2.752 -2.0885 -0.9781 -1.5453
38960SOL     OW21335   3.608   7.935   0.476  0.0762  0.0015 -0.0173
38960SOL    HW121336   3.641   7.945   0.387 -0.3523  1.2810 -0.0603
38960SOL    HW221337   3.541   7.867   0.469  0.4195 -0.2898 -0.5607
38961SOL     OW21338   8.281   8.583   8.390  0.0850 -0.6039  0.5555
38961SOL    HW121339   8.306   8.664   8.345 -0.2939 -1.0908 -0.5812
38961SOL    HW221340   8.222   8.539   8.328 -0.2279 -1.4396  1.4282
38962SOL     OW21341   1.460   7.831   3.142 -0.1049  0.2025  0.0350
38962SOL    HW121342   1.530   7.796   3.198 -0.0476  1.5921  0.8893
38962SOL    HW221343   1.465   7.779   3.062  0.5568 -1.0978  0.8771
38963SOL     OW21344   8.412   2.701   5.500 -0.1645 -0.6907 -0.1046
38963SOL    HW121345   8.355   2.690   5.424 -0.4245 -0.7140  0.0894
38963SOL    HW221346   8.353   2.688   5.575 -0.5921  2.3531  0.1830
38964SOL     OW21347   1.712   8.216   6.877  0.0031  0.2822  0.4917
38964SOL    HW121348   1.671   8.187   6.959  0.2562 -0.7750  0.2534
38964SOL    HW221349   1.651   8.188   6.809 -0.1999  1.1449  0.2939
38965SOL     OW21350   6.198   9.731   2.928 -0.3069  0.2019 -0.0826
38965SOL    HW121351   6.247   9.753   3.008 -0.0776  1.9066 -0.6342
38965SOL    HW221352   6.192   9.636   2.929 -0.2641  0.1670  1.9367
38966SOL     OW21353   5.621   0.371  10.804  0.2724  0.0675 -0.0017
38966SOL    HW121354   5.530   0.400  10.800  0.7834  2.0118  0.8902
38966SOL    HW221355   5.626   0.317  10.883  0.1235  0.9863  0.6547
38967SOL     OW21356   1.057   7.361   3.102 -0.2103 -0.3101  0.0947
38967SOL    HW121357   1.020   7.443   3.135  2.9655  0.8061  1.2727
38967SOL    HW221358   0.983   7.316   3.062 -2.3594  2.5525  0.5005
38968SOL     OW21359   1.676   2.044   5.573  0.6750  0.7716 -0.7591
38968SOL    HW121360   1.664   2.042   5.668  0.3698 -1.1586 -0.8015
38968SOL    HW221361   1.771   2.038   5.560  0.6647  0.1459 -0.5738
38969SOL     OW21362   9.818   1.090   4.073 -0.2829 -0.1368 -0.3732
38969SOL    HW121363   9.737   1.088   4.022 -0.7257 -0.5545  0.3310
38969SOL    HW221364   9.820   1.177   4.112 -1.2473 -0.6730  0.9337
38970SOL     OW21365   5.879   8.808   9.609 -0.3084  0.5289  0.2617
38970SOL    HW121366   5.912   8.852   9.687  0.1545  0.2567  0.2215
38970SOL    HW221367   5.787   8.834   9.604  0.2255  2.4439 -0.4183
38971SOL     OW21368   7.595   6.172   6.670 -0.4012 -0.4074  0.1257
38971SOL    HW121369   7.544   6.119   6.731  0.3262  0.8673  1.9149
38971SOL    HW221370   7.554   6.259   6.672  1.4384  0.4971  1.1953
38972SOL     OW21371  10.322   6.838   3.111  0.3772  0.2378 -0.0189
38972SOL    HW121372  10.246   6.869   3.159 -0.6040  0.1852 -1.4923
38972SOL    HW221373  10.392   6.836   3.176 -0.8015  0.5414  1.2988
38973SOL     OW21374   3.044   3.570   8.570 -0.1240  0.1487  0.5109
38973SOL    HW121375   3.109   3.594   8.637 -2.2665 -0.6376  3.0524
38973SOL    HW221376   3.076   3.487   8.534  1.6447  1.1398 -0.3515
38974SOL     OW21377   6.368   4.604  10.980  0.7971 -0.3204 -0.1624
38974SOL    HW121378   6.358   4.584  11.074 -1.0067  0.4080 -0.1646
38974SOL    HW221379   6.279   4.606  10.947  1.3728  0.3517 -1.7227
38975SOL     OW21380  10.364  10.670  10.637 -0.1474  0.1770 -0.6383
38975SOL    HW121381  10.412  10.601  10.592 -0.1751 -1.3004  1.4362
38975SOL    HW221382  10.301  10.623  10.692 -0.4062  1.8688  0.5924
38976SOL     OW21383   0.308   1.719   1.180 -0.1196  0.2527 -0.3610
38976SOL    HW121384   0.397   1.727   1.213 -0.7925  1.3673  1.3418
38976SOL    HW221385   0.286   1.806   1.148 -0.9614  0.2952  0.2875
38977SOL     OW21386   3.302  10.183   2.588  0.1907  0.1400 -0.0671
38977SOL    HW121387   3.344  10.270   2.589 -0.0135  0.2392 -0.1464
38977SOL    HW221388   3.374  10.122   2.572  0.3624  0.2817  0.1553
38978SOL     OW21389   9.121   0.405  10.690  0.2105  0.1631 -0.0361
38978SOL    HW121390   9.212   0.427  10.710  1.2361 -1.0137 -2.9320
38978SOL    HW221391   9.085   0.486  10.653  0.5730  0.1744 -0.3719
38979SOL     OW21392   3.624   9.668   7.338  0.3405  0.6592 -0.4321
38979SOL    HW121393   3.584   9.658   7.251 -1.4597  2.2863  0.1674
38979SOL    HW221394   3.579   9.604   7.393  1.1434 -0.0289 -0.5444
38980SOL     OW21395   5.489   3.840   9.453  0.5302  0.6898 -0.1939
38980SOL    HW121396   5.420   3.907   9.453  0.1184  0.2673 -0.5042
38980SOL    HW221397   5.526   3.843   9.365 -0.5873 -0.6044 -0.7347
38981SOL     OW21398   1.703   0.386   4.795  0.1362 -0.0213  0.3409
38981SOL    HW121399   1.755   0.428   4.726 -1.6149  1.8587  0.0874
38981SOL    HW221400   1.767   0.362   4.862  1.6459 -0.2350 -1.1092
38982SOL     OW21401  10.357   3.568   2.198 -0.8783 -0.3398  0.1791
38982SOL    HW121402  10.262   3.565   2.208 -0.7657 -1.0380  1.2518
38982SOL    HW221403  10.389   3.605   2.281 -0.1082 -2.1676  0.7599
38983SOL     OW21404   3.499   9.314   4.273 -0.3335 -0.4143  0.1814
38983SOL    HW121405   3.575   9.256   4.263  0.3636  0.1313  1.9271
38983SOL    HW221406   3.428   9.268   4.228  0.8411 -1.2857 -0.8642
38984SOL     OW21407  10.285  10.637   9.494 -0.1486 -0.3796  0.5095
38984SOL    HW121408  10.345  10.573   9.457 -1.6863 -1.8769  0.5055
38984SOL    HW221409  10.246  10.681   9.418  0.4916  0.1838  0.4996
38985SOL     OW21410   2.289   4.812   1.229  0.5996  0.0072  0.6987
38985SOL    HW121411   2.219   4.751   1.207  2.0759 -1.1845 -1.0754
38985SOL    HW221412   2.314   4.789   1.318  0.4594 -1.3422  0.4095
38986SOL     OW21413   6.049   3.211   1.494 -0.5782 -0.9902  0.1861
38986SOL    HW121414   6.087   3.138   1.544  1.4761 -0.2475 -0.2045
38986SOL    HW221415   5.984   3.249   1.554  1.4117 -0.4673  2.1764
38987SOL     OW21416   0.217  10.956   4.833 -0.3892  0.0064  0.4774
38987SOL    HW121417   0.234  10.884   4.894  2.2646  0.2925  0.1820
38987SOL    HW221418   0.184  10.914   4.754  1.3862 -0.9839  0.2156
38988SOL     OW21419   3.881   0.834   2.215  0.2430 -0.2387 -0.2467
38988SOL    HW121420   3.945   0.767   2.238 -0.2088 -0.6256 -0.1158
38988SOL    HW221421   3.919   0.877   2.138 -0.1716 -1.6469 -1.2678
38989SOL     OW21422   7.845   4.162   3.787  0.1182 -0.0589 -0.5923
38989SOL    HW121423   7.899   4.094   3.747  0.3567 -1.6067  2.1225
38989SOL    HW221424   7.905   4.210   3.844 -0.4026  1.3802 -1.2251
38990SOL     OW21425   4.037   5.851   3.695  0.0143  0.3744  0.0876
38990SOL    HW121426   4.078   5.787   3.753  0.1685  0.1835 -0.2343
38990SOL    HW221427   4.059   5.936   3.734  2.0040  0.3641 -0.8965
38991SOL     OW21428   8.457   0.701   6.387 -0.2744 -0.5534  0.5125
38991SOL    HW121429   8.398   0.717   6.462 -1.0205 -0.6168 -0.0474
38991SOL    HW221430   8.438   0.610   6.362 -0.7378 -0.2244 -0.3556
38992SOL     OW21431   6.136   7.414   2.152 -0.2174 -0.1683  0.0431
38992SOL    HW121432   6.122   7.376   2.065 -0.1459  1.6374 -0.8035
38992SOL    HW221433   6.058   7.390   2.201  0.2859 -2.2679 -0.0885
38993SOL     OW21434   9.416   4.250   4.022  0.1404  0.2985  0.0475
38993SOL    HW121435   9.374   4.198   4.090 -0.2915 -0.0909 -0.5080
38993SOL    HW221436   9.510   4.239   4.037  0.0999 -1.8218 -0.9167
38994SOL     OW21437   7.457   0.221  10.107 -0.4686  0.6877 -0.1474
38994SOL    HW121438   7.449   0.166  10.185 -0.0313 -0.3190 -0.7923
38994SOL    HW221439   7.471   0.310  10.142 -1.1606  0.4101  0.9104
38995SOL     OW21440  10.937  10.405   6.419 -0.6244 -0.1351  0.6661
38995SOL    HW121441  10.861  10.350   6.440 -0.5061 -0.9712 -0.9691
38995SOL    HW221442  10.963  10.379   6.331  0.2876  1.6224  0.3628
38996SOL     OW21443   9.535   3.357   0.555  0.2369  0.4411 -1.0695
38996SOL    HW121444   9.488   3.405   0.487 -1.2988  1.3787  0.5650
38996SOL    HW221445   9.570   3.280   0.510 -2.2812  0.0582 -2.5683
38997SOL     OW21446   4.155   8.597   1.256  1.1445  0.2842 -0.0681
38997SOL    HW121447   4.146   8.587   1.161  1.4192  1.6115 -0.2462
38997SOL    HW221448   4.192   8.514   1.285 -2.0332 -1.4992 -0.6518
38998SOL     OW21449   7.990   1.617   7.958  0.0254  0.2123  0.3453
38998SOL    HW121450   8.034   1.545   8.003  0.9517  1.7910  2.0791
38998SOL    HW221451   7.906   1.626   8.004  1.2111  2.2031  2.2978
38999SOL     OW21452   5.765   2.467   5.000  0.0278  0.2219 -0.3730
38999SOL    HW121453   5.678   2.497   4.972  0.1129  0.8996  0.0695
38999SOL    HW221454   5.747   2.403   5.070 -0.1000  2.3301  1.6443
39000SOL     OW21455   4.744  11.004   6.484  0.1677 -0.0694 -0.4614
39000SOL    HW121456   4.653  10.978   6.495  0.2406 -1.0185 -1.8592
39000SOL    HW221457   4.747  11.046   6.398  0.3153  3.6125  1.1280
39001SOL     OW21458   6.066   2.470   2.600 -0.4342 -0.1325 -0.2665
39001SOL    HW121459   6.133   2.490   2.666 -0.5819 -0.2378 -0.0832
39001SOL    HW221460   6.057   2.374   2.604 -0.6299 -0.1134 -0.2573
39002SOL     OW21461   8.127   9.061   5.708  0.3779 -0.5406  0.1535
39002SOL    HW121462   8.141   8.999   5.779 -2.6464 -0.6688  0.7988
39002SOL    HW221463   8.108   9.144   5.752  1.8603  0.2463 -0.6360
39003SOL     OW21464  10.421   5.157   8.204  0.1658 -0.2315  1.2787
39003SOL    HW121465  10.369   5.076   8.196 -1.8720  1.1472 -0.6699
39003SOL    HW221466  10.478   5.156   8.128  0.1933  0.1223  1.2955
39004SOL     OW21467   4.752  10.542   3.250  0.4389 -0.2797  0.6216
39004SOL    HW121468   4.702  10.463   3.231  0.7797 -0.7713  1.6752
39004SOL    HW221469   4.737  10.558   3.343 -0.5622  1.5804  0.1938
39005SOL     OW21470  10.530  10.749   8.308 -0.1566 -0.1347 -0.0324
39005SOL    HW121471  10.558  10.802   8.234 -1.7623  2.3368  1.0173
39005SOL    HW221472  10.470  10.685   8.270 -1.5476  1.5671 -0.8451
39006SOL     OW21473   0.669   7.441   5.208  0.0813  0.0934 -0.0825
39006SOL    HW121474   0.680   7.515   5.149 -0.9796  0.2601 -0.0897
39006SOL    HW221475   0.754   7.430   5.250  0.0056  1.9475  0.6373
39007SOL     OW21476   5.022   5.618   9.942  0.9025 -0.2409  0.2552
39007SOL    HW121477   5.028   5.537   9.891 -0.0922  0.4107 -0.9700
39007SOL    HW221478   4.963   5.673   9.890  0.0884  0.5718  1.9875
39008SOL     OW21479   6.362   2.698   5.701 -0.3474  0.7162  0.1592
39008SOL    HW121480   6.377   2.613   5.741 -2.0748  0.5445  0.5476
39008SOL    HW221481   6.312   2.747   5.767  1.6430  2.5074  0.4485
39009SOL     OW21482   1.482   9.131   6.472  0.4000 -0.4324 -0.0318
39009SOL    HW121483   1.468   9.133   6.567 -2.0462  0.6330 -0.3362
39009SOL    HW221484   1.500   9.039   6.452 -0.3811 -0.8989  1.3092
39010SOL     OW21485   9.584   9.124   6.077  0.0763 -0.2253  0.4249
39010SOL    HW121486   9.550   9.085   6.157  0.0966 -1.0058  0.0627
39010SOL    HW221487   9.565   9.060   6.009  0.0030  0.4563 -0.2088
39011SOL     OW21488   6.303   3.398   9.753 -0.2795  0.0410 -0.5919
39011SOL    HW121489   6.300   3.413   9.659 -3.0031 -2.9710 -1.1503
39011SOL    HW221490   6.250   3.468   9.791 -0.5956  0.2918 -1.4742
39012SOL     OW21491   1.451   6.570   1.433 -0.2070 -0.7210  0.3380
39012SOL    HW121492   1.485   6.543   1.347 -0.8874  3.4686 -1.4876
39012SOL    HW221493   1.528   6.606   1.479 -0.2556 -0.8795  0.5446
39013SOL     OW21494   9.046   0.749   4.862 -0.3382 -0.6930  0.6255
39013SOL    HW121495   9.041   0.809   4.787 -2.4773  1.4208  2.3002
39013SOL    HW221496   9.140   0.735   4.875  0.1767  0.9977 -0.8474
39014SOL     OW21497   0.997   3.380   5.637  0.1284 -0.3349 -0.3434
39014SOL    HW121498   1.001   3.378   5.541  2.6272 -1.5379 -0.3000
39014SOL    HW221499   0.972   3.470   5.657  1.0492  0.4043 -2.1497
39015SOL     OW21500   2.543   8.343   3.532 -0.0979  0.5640  0.0591
39015SOL    HW121501   2.534   8.276   3.464  0.1800  1.1582 -0.5736
39015SOL    HW221502   2.575   8.295   3.608 -0.9967 -0.2178 -0.0355
39016SOL     OW21503   4.112  10.155   5.234 -0.3259  0.0748  0.7459
39016SOL    HW121504   4.125  10.183   5.144 -1.0119 -0.0298  0.6093
39016SOL    HW221505   4.050  10.083   5.229 -0.6718  0.3190  1.3341
39017SOL     OW21506   0.897   4.725   3.926  0.1994  0.0886  0.3794
39017SOL    HW121507   0.807   4.696   3.915  0.4187 -1.2018  1.6401
39017SOL    HW221508   0.897   4.817   3.900 -1.2520 -0.1634 -0.6096
39018SOL     OW21509   3.706   4.122   4.902  0.7591 -0.3348  0.4390
39018SOL    HW121510   3.614   4.103   4.884  0.5940  1.4563 -0.8466
39018SOL    HW221511   3.747   4.036   4.909 -0.9888 -1.1691  1.0007
39019SOL     OW21512   3.024   7.064   7.097  0.0828  0.2731  0.3601
39019SOL    HW121513   3.025   7.011   7.177 -0.2238 -1.1686 -0.5546
39019SOL    HW221514   2.952   7.028   7.045 -2.0327  3.3707  0.8181
39020SOL     OW21515   7.050   0.609   8.649 -0.0031  0.4364  0.5752
39020SOL    HW121516   7.036   0.680   8.712 -1.5552  0.6757  0.0210
39020SOL    HW221517   6.998   0.635   8.573  1.3992 -0.1184 -0.5971
39021SOL     OW21518   8.815   0.044   4.671  0.8499  0.0173 -0.1648
39021SOL    HW121519   8.739  -0.013   4.657 -1.3815  3.0658 -1.7218
39021SOL    HW221520   8.858   0.047   4.586  2.1531 -0.8335  0.4359
39022SOL     OW21521  10.983   0.540   7.265  0.7179 -0.0653 -0.1750
39022SOL    HW121522  10.937   0.457   7.269  0.1163  0.2381 -0.7717
39022SOL    HW221523  11.074   0.518   7.284  0.3618 -0.6791  0.8996
39023SOL     OW21524   2.106   7.682   0.178 -0.0140  0.2245  0.0855
39023SOL    HW121525   2.042   7.753   0.169  1.3908  1.3591 -1.6843
39023SOL    HW221526   2.058   7.602   0.158 -0.9608  1.0127 -0.8914
39024SOL     OW21527   0.413   6.525   9.901  0.6454 -0.1134 -0.3258
39024SOL    HW121528   0.465   6.518   9.981 -0.1886 -0.5160  0.1979
39024SOL    HW221529   0.351   6.452   9.906  0.7198 -0.2758 -1.4496
39025SOL     OW21530   6.593   7.629   0.711 -0.0481  0.1404  0.1051
39025SOL    HW121531   6.639   7.712   0.728  0.4392  0.1885 -1.3061
39025SOL    HW221532   6.518   7.654   0.658 -0.6817 -0.1696  0.8418
39026SOL     OW21533   4.679   5.597  10.816  0.3332  0.5809  0.2709
39026SOL    HW121534   4.752   5.552  10.772  0.4059  0.1220  0.8488
39026SOL    HW221535   4.720   5.664  10.870  0.6152 -1.5585  2.8984
39027SOL     OW21536   4.648   6.226   5.621  0.3090 -0.0701  0.7841
39027SOL    HW121537   4.697   6.293   5.574  1.6304 -0.0802  2.0787
39027SOL    HW221538   4.633   6.157   5.556 -0.9022  1.3410 -0.5077
39028SOL     OW21539   4.269   3.560   6.116 -0.3936 -0.2035  0.5946
39028SOL    HW121540   4.189   3.541   6.165 -0.3835  0.5293  0.9065
39028SOL    HW221541   4.339   3.524   6.169 -0.4760 -0.3849  0.5792
39029SOL     OW21542   3.774   0.682   0.083  0.1730 -0.5979 -0.4323
39029SOL    HW121543   3.815   0.726   0.008  1.0273  0.0473  0.3798
39029SOL    HW221544   3.825   0.712   0.159 -1.3773 -0.3060  0.5586
39030SOL     OW21545   4.858   2.192  10.826 -0.1862 -0.0718  0.5542
39030SOL    HW121546   4.820   2.185  10.914 -0.7355  1.5453  0.4691
39030SOL    HW221547   4.829   2.276  10.794 -1.3582 -1.3051 -1.8502
39031SOL     OW21548   9.342   7.569   0.568 -0.0892 -0.6015 -0.4464
39031SOL    HW121549   9.398   7.595   0.641  0.0329 -0.7546 -0.4861
39031SOL    HW221550   9.262   7.536   0.609 -1.0282  1.5404 -0.4028
39032SOL     OW21551  10.213   7.584   5.462  0.3681 -0.5009  0.1919
39032SOL    HW121552  10.138   7.588   5.402  1.1396 -0.0440 -0.7696
39032SOL    HW221553  10.194   7.653   5.526 -0.4595 -0.9806  0.4814
39033SOL     OW21554   0.319   5.242  10.511  0.0106  0.6106 -0.5148
39033SOL    HW121555   0.375   5.188  10.456  1.3939 -0.0974  1.4594
39033SOL    HW221556   0.372   5.318  10.534  0.4569 -0.2746  1.7306
39034SOL     OW21557   6.695   5.996   1.274 -0.3490  0.2103  0.3028
39034SOL    HW121558   6.664   5.972   1.361 -0.8945  0.5810  0.2224
39034SOL    HW221559   6.677   6.090   1.267 -0.6143  0.1233 -0.3211
39035SOL     OW21560   5.787   1.049   4.619  0.4063  0.5841  0.0054
39035SOL    HW121561   5.764   1.089   4.703 -0.1625  4.8875 -1.9434
39035SOL    HW221562   5.859   1.102   4.586 -0.0309 -0.3371 -2.6684
39036SOL     OW21563   5.641   9.275   5.915 -0.2471 -0.2824  0.0692
39036SOL    HW121564   5.608   9.228   5.993 -0.5344  1.6777  1.1880
39036SOL    HW221565   5.563   9.289   5.861 -0.1824 -0.9349 -0.2064
39037SOL     OW21566   8.040   8.567   2.843  0.0801  0.3509 -0.2137
39037SOL    HW121567   7.961   8.594   2.890 -0.3864 -0.5016 -0.4962
39037SOL    HW221568   8.093   8.523   2.910  1.4728  3.0249  0.6070
39038SOL     OW21569   4.907  10.434  10.152 -0.2318 -0.1703 -0.7197
39038SOL    HW121570   4.969  10.376  10.108  0.7205 -0.6939  1.1936
39038SOL    HW221571   4.957  10.514  10.169 -0.5597  0.0045 -0.5604
39039SOL     OW21572   6.669   5.997  10.917  0.0709  0.4352  0.4115
39039SOL    HW121573   6.668   5.901  10.923  1.6817  0.3061 -0.7360
39039SOL    HW221574   6.609   6.016  10.844 -0.0305  0.2803  0.4528
39040SOL     OW21575  10.732   7.348   0.798  0.6933 -0.0134 -0.4251
39040SOL    HW121576  10.722   7.332   0.892  0.1192 -1.2712 -0.6793
39040SOL    HW221577  10.645   7.331   0.762  1.2282 -0.8666 -1.3588
39041SOL     OW21578   9.646   6.865  10.982 -0.0802  0.1287 -0.3916
39041SOL    HW121579   9.629   6.958  10.970  0.6813  0.4615  0.9139
39041SOL    HW221580   9.574   6.834  11.038 -1.0057 -0.3759 -1.7779
39042SOL     OW21581  10.538   1.298   3.493  0.7504 -0.1813 -0.0408
39042SOL    HW121582  10.480   1.368   3.464  0.0186 -0.8923 -0.3222
39042SOL    HW221583  10.482   1.221   3.499  1.5776 -0.7879  0.1020
39043SOL     OW21584   9.354   5.139   7.695  0.3536 -0.2542  0.2238
39043SOL    HW121585   9.437   5.092   7.707  1.6790  1.1230 -2.5985
39043SOL    HW221586   9.322   5.108   7.610 -1.5762 -0.0334  0.8328
39044SOL     OW21587   4.415   6.651   3.611 -0.6318 -0.5247  0.1775
39044SOL    HW121588   4.413   6.587   3.540  0.9201 -0.4272  0.0070
39044SOL    HW221589   4.446   6.602   3.687  0.5620 -0.0237  0.0472
39045SOL     OW21590   3.975   8.184   0.268  0.0107  0.0611 -0.0376
39045SOL    HW121591   3.972   8.280   0.267  0.1117  0.0583 -0.7396
39045SOL    HW221592   3.998   8.163   0.359 -0.8762  0.6669  0.3484
39046SOL     OW21593   4.156   1.848   9.653 -0.3762  0.2214 -0.0953
39046SOL    HW121594   4.125   1.798   9.578  1.7415 -0.7238 -0.3967
39046SOL    HW221595   4.144   1.789   9.728 -1.4812  0.7623  0.1797
39047SOL     OW21596   7.915   5.758   6.797  0.1909 -0.4626 -0.4837
39047SOL    HW121597   7.924   5.684   6.857 -2.3238 -2.8529 -2.7593
39047SOL    HW221598   7.959   5.730   6.717 -0.4305  0.6694 -1.2448
39048SOL     OW21599   8.052   3.874   4.253  0.1035 -0.2774  0.3500
39048SOL    HW121600   8.116   3.937   4.284  1.9559 -0.5201 -2.5399
39048SOL    HW221601   8.035   3.900   4.162 -3.0472 -0.9608  0.6270
39049SOL     OW21602   5.347  10.787   3.145  0.8051  0.4126 -0.1447
39049SOL    HW121603   5.279  10.727   3.115  0.3144  1.3694 -1.0375
39049SOL    HW221604   5.429  10.738   3.136  0.2095 -0.9902  1.5847
39050SOL     OW21605  10.714   3.517   8.901  0.6234 -0.1536 -0.3132
39050SOL    HW121606  10.669   3.441   8.863 -0.4110 -0.0822  0.6972
39050SOL    HW221607  10.660   3.541   8.976  1.5933  0.8538  0.0869
39051SOL     OW21608   2.744   8.311   8.060 -0.6758  0.3363 -0.0643
39051SOL    HW121609   2.768   8.344   7.973 -2.7680  2.8532  0.1941
39051SOL    HW221610   2.705   8.225   8.043  0.4603  0.0446 -1.3777
39052SOL     OW21611   2.350   3.551   4.387  0.6457 -0.4136  0.2617
39052SOL    HW121612   2.333   3.499   4.465  0.3416 -0.4185  0.1945
39052SOL    HW221613   2.332   3.641   4.414 -1.0551 -0.5588 -0.2243
39053SOL     OW21614   7.971   7.379   1.030 -0.3664 -0.3476  0.6523
39053SOL    HW121615   7.979   7.430   0.949 -1.6502 -1.7531 -0.4154
39053SOL    HW221616   8.048   7.404   1.081 -0.2432  1.6240 -0.3862
39054SOL     OW21617  10.898  10.452  10.826  0.3197  0.9409  0.2045
39054SOL    HW121618  10.971  10.433  10.885  2.0100  1.9686 -1.4603
39054SOL    HW221619  10.846  10.372  10.825  0.7411  0.5882  2.3343
39055SOL     OW21620  10.277   5.147  11.006 -0.4244 -0.4158  0.2626
39055SOL    HW121621  10.241   5.098  10.931 -0.6574 -0.3870  0.3541
39055SOL    HW221622  10.269   5.087  11.080  0.7253 -0.8137  0.0788
39056SOL     OW21623   7.045   6.134   0.880 -0.9188 -0.1179  0.3276
39056SOL    HW121624   6.959   6.157   0.843  0.7441  4.1700 -1.5503
39056SOL    HW221625   7.061   6.200   0.947  1.8167  0.7899 -1.0705
39057SOL     OW21626   4.656   9.229   5.353  0.0774  0.3020  0.2308
39057SOL    HW121627   4.591   9.164   5.327  1.8930 -1.4189 -0.3203
39057SOL    HW221628   4.726   9.178   5.394  1.9310  1.7595 -0.8937
39058SOL     OW21629   6.822   6.596   9.628 -0.4832 -0.0103  0.5494
39058SOL    HW121630   6.829   6.634   9.716  0.2347  0.7139  0.1844
39058SOL    HW221631   6.730   6.605   9.605 -0.5516  0.3715  0.9680
39059SOL     OW21632   9.338   9.459   7.274  0.1753 -0.2896  0.2134
39059SOL    HW121633   9.420   9.452   7.226  0.1514  0.2445  0.0806
39059SOL    HW221634   9.354   9.529   7.337 -0.2812  0.0408 -0.0318
39060SOL     OW21635   9.277   9.884  10.989  0.8694  0.3260 -0.1920
39060SOL    HW121636   9.353   9.872  11.046 -0.1101 -1.6895  0.7754
39060SOL    HW221637   9.242   9.970  11.012  1.9161  0.5911  0.4640
39061SOL     OW21638   8.242   6.940   0.946 -0.0190 -0.1230  0.4886
39061SOL    HW121639   8.237   7.032   0.918 -0.1981 -0.2086  0.2328
39061SOL    HW221640   8.332   6.928   0.976  0.5555 -0.3760 -1.2603
39062SOL     OW21641   6.828   0.891   6.912  0.2025  0.2400 -0.4148
39062SOL    HW121642   6.907   0.860   6.956 -0.6144  0.8414  1.5882
39062SOL    HW221643   6.840   0.865   6.821  2.2369 -0.5804  0.0249
39063SOL     OW21644   2.379   8.565   6.133  0.1118 -0.3873 -0.0778
39063SOL    HW121645   2.430   8.484   6.132  3.3716  1.4836 -0.1784
39063SOL    HW221646   2.326   8.560   6.054  0.2179 -2.3833 -0.0878
39064SOL     OW21647   8.709   5.842   0.939 -0.7638  0.0420 -0.4675
39064SOL    HW121648   8.690   5.880   0.853 -1.9252  1.4272  0.3607
39064SOL    HW221649   8.789   5.792   0.925  0.8730  2.7366 -1.7089
39065SOL     OW21650   2.271   9.173   6.429  0.1289  0.0391  0.1234
39065SOL    HW121651   2.204   9.141   6.370 -0.8304  0.9193  0.6974
39065SOL    HW221652   2.324   9.233   6.376 -0.7560  0.8653  0.1596
39066SOL     OW21653   2.960   8.367  10.293 -0.1927  0.8940 -0.2581
39066SOL    HW121654   3.015   8.361  10.371 -0.3878 -0.3520 -0.2072
39066SOL    HW221655   2.871   8.371  10.326 -0.3896 -1.2282 -0.4195
39067SOL     OW21656   6.030   5.618   6.273 -0.0914 -0.2005 -0.0964
39067SOL    HW121657   5.975   5.544   6.247 -1.6177  0.3001  1.4750
39067SOL    HW221658   6.035   5.611   6.369  0.1617  1.4083  0.0348
39068SOL     OW21659   3.385   6.122   2.255 -0.2375  0.5015 -0.8158
39068SOL    HW121660   3.397   6.063   2.329  0.3317  2.2584  0.5814
39068SOL    HW221661   3.298   6.161   2.269  0.1111  1.2720 -0.6996
39069SOL     OW21662   1.029   7.506   3.418 -0.1781 -0.5273  0.2172
39069SOL    HW121663   1.056   7.568   3.486  1.9675  1.5820 -2.3205
39069SOL    HW221664   1.111   7.471   3.385 -1.2506 -2.7204 -0.2669
39070SOL     OW21665   3.504   4.737   6.065 -0.1702 -0.3467  0.0043
39070SOL    HW121666   3.472   4.805   6.006 -0.0012  0.5270  0.8916
39070SOL    HW221667   3.583   4.704   6.023 -0.1863  0.0970 -0.3806
39071SOL     OW21668   1.814   3.104   4.771 -0.2394  0.2515 -0.5912
39071SOL    HW121669   1.767   3.184   4.793 -1.1210 -0.3278 -0.3552
39071SOL    HW221670   1.751   3.050   4.724  0.3773 -0.2774 -0.8397
39072SOL     OW21671   1.468   0.597   1.356  0.2452  0.4118  0.1188
39072SOL    HW121672   1.395   0.591   1.417 -0.2123 -0.4195 -0.4844
39072SOL    HW221673   1.536   0.645   1.404 -1.1089  2.3206  0.2719
39073SOL     OW21674   9.905  10.464   4.168  0.0719 -0.3424 -0.1522
39073SOL    HW121675   9.993  10.425   4.171  1.0345  1.4543 -2.1078
39073SOL    HW221676   9.882  10.477   4.260  2.7336  0.8902  0.4545
39074SOL     OW21677   3.152   0.850   3.574  0.4916 -0.5030  0.2579
39074SOL    HW121678   3.147   0.914   3.645  0.3772  0.9878 -1.0491
39074SOL    HW221679   3.061   0.839   3.545  0.7134  0.1920 -0.7455
39075SOL     OW21680   9.996   4.548   4.160 -0.0708  0.4033 -0.0240
39075SOL    HW121681   9.945   4.629   4.161  0.3521  0.6671  0.8986
39075SOL    HW221682   9.934   4.481   4.133 -0.3650  1.0600 -1.0664
39076SOL     OW21683   9.671   6.561   8.011 -0.2607 -0.5653  0.7468
39076SOL    HW121684   9.619   6.637   7.983  0.2039 -0.1140  1.1027
39076SOL    HW221685   9.698   6.519   7.929 -0.8697 -0.5926  0.5542
39077SOL     OW21686   2.810   7.631   2.933 -0.4713  0.1388 -0.2246
39077SOL    HW121687   2.792   7.545   2.894  0.5456  0.2954 -1.0872
39077SOL    HW221688   2.892   7.658   2.893 -0.3937  1.1863  0.6125
39078SOL     OW21689   2.457   2.302   9.858  0.2885 -0.4065  0.5172
39078SOL    HW121690   2.364   2.324   9.856  0.2998 -0.4159 -0.6200
39078SOL    HW221691   2.499   2.383   9.886  0.0989  0.2610 -1.0374
39079SOL     OW21692  11.047  10.816   1.944  0.0983  0.8276 -0.2360
39079SOL    HW121693  10.991  10.766   1.884 -1.4464  0.5585  1.3551
39079SOL    HW221694  10.998  10.896   1.962  0.6838  1.0502  0.4371
39080SOL     OW21695   8.701   5.983   4.138 -0.2170 -0.5571 -0.5195
39080SOL    HW121696   8.714   5.930   4.060  0.4046 -2.0338  0.5390
39080SOL    HW221697   8.787   5.986   4.181  0.2382  2.7594 -1.3411
39081SOL     OW21698   7.866   2.501   5.597  0.5814 -0.4219  0.1316
39081SOL    HW121699   7.796   2.566   5.605 -1.1333 -2.3220  1.4538
39081SOL    HW221700   7.849   2.457   5.514  1.4470  0.4314 -0.5207
39082SOL     OW21701   5.973   2.026   0.349 -0.3136  0.4198  0.0499
39082SOL    HW121702   5.880   2.007   0.335 -0.2418 -0.8090  1.0939
39082SOL    HW221703   5.986   2.017   0.443  0.8510  0.6488 -0.0712
39083SOL     OW21704   2.372   8.894   8.953  0.1545  0.0351 -0.0499
39083SOL    HW121705   2.421   8.969   8.919 -0.1947  0.2967  0.0073
39083SOL    HW221706   2.284   8.930   8.971 -0.9265 -1.0354 -2.7091
39084SOL     OW21707   7.712   0.437   9.461 -0.1363 -0.4578 -0.0972
39084SOL    HW121708   7.797   0.479   9.445 -0.0994 -0.2467  0.6462
39084SOL    HW221709   7.729   0.372   9.530 -0.6887 -0.0282  0.4553
39085SOL     OW21710   2.782   7.268   4.459  0.5075  0.0951 -0.1651
39085SOL    HW121711   2.754   7.337   4.518  2.6115  0.7207  0.1996
39085SOL    HW221712   2.848   7.219   4.508 -0.4329 -1.7843 -0.6672
39086SOL     OW21713   1.805   0.555   9.616 -0.0101  0.1695 -0.1541
39086SOL    HW121714   1.721   0.519   9.645 -0.3829  1.3782  0.3598
39086SOL    HW221715   1.784   0.605   9.537  0.4892 -0.6447 -0.8253
39087SOL     OW21716  10.455   1.899   1.365  0.5023 -0.5216  0.3053
39087SOL    HW121717  10.476   1.885   1.457  0.3275 -2.0440  0.1375
39087SOL    HW221718  10.367   1.862   1.355  0.7751 -0.9377 -0.6137
39088SOL     OW21719   4.522   4.905   3.968  0.1828 -0.2123  0.3391
39088SOL    HW121720   4.536   4.884   3.876 -0.3030 -3.0434  0.8156
39088SOL    HW221721   4.601   4.951   3.995  1.6581 -1.9308 -0.8280
39089SOL     OW21722   9.179   6.250  10.505 -0.0307 -0.0864 -0.0891
39089SOL    HW121723   9.177   6.321  10.441 -0.6214  0.7306  0.8156
39089SOL    HW221724   9.197   6.293  10.588  1.1922 -1.1800  0.2562
39090SOL     OW21725   0.626   1.073   7.852 -0.3319 -0.0726 -0.4103
39090SOL    HW121726   0.602   1.008   7.786  0.0212  1.2419 -1.8824
39090SOL    HW221727   0.551   1.074   7.911  0.1434 -2.6403  0.3840
39091SOL     OW21728   2.179   8.276   6.568  0.2505 -0.2381 -0.3898
39091SOL    HW121729   2.216   8.286   6.480 -2.7231 -0.3958 -1.7610
39091SOL    HW221730   2.089   8.248   6.553 -0.1334 -1.0084  2.7624
39092SOL     OW21731   0.912   0.392  10.917 -0.2027  0.3364 -0.0104
39092SOL    HW121732   0.902   0.484  10.891 -2.3730  0.2659  0.3761
39092SOL    HW221733   0.942   0.396  11.008  0.4036  0.6472 -0.2213
39093SOL     OW21734   7.475   4.378   0.145  0.0734 -0.3095 -0.2370
39093SOL    HW121735   7.462   4.294   0.101  0.3974 -0.4229 -0.1224
39093SOL    HW221736   7.390   4.422   0.139  0.2195 -0.1481 -1.3288
39094SOL     OW21737   9.757   4.835   3.854  0.2795 -0.1910 -0.2664
39094SOL    HW121738   9.803   4.847   3.937 -0.2761  1.7141 -0.1914
39094SOL    HW221739   9.686   4.899   3.857  0.1957 -0.1578 -2.1718
39095SOL     OW21740   8.790  10.170   9.320 -0.1253  0.4587  0.1229
39095SOL    HW121741   8.835  10.124   9.249  0.1847  1.0997 -0.1048
39095SOL    HW221742   8.709  10.121   9.333  0.9035 -1.1310  0.9833
39096SOL     OW21743   9.872   2.648   8.140  0.6864  0.0010 -0.0732
39096SOL    HW121744   9.867   2.553   8.149  0.6485 -0.1602 -1.4770
39096SOL    HW221745   9.966   2.667   8.138  0.8990 -0.5625 -3.9194
39097SOL     OW21746  10.652   6.617   4.812  0.6729 -0.5178  0.1054
39097SOL    HW121747  10.618   6.551   4.752 -1.3708 -0.1505  0.7678
39097SOL    HW221748  10.645   6.577   4.898  0.2084  0.2359  0.4320
39098SOL     OW21749   7.382   4.464   3.180 -0.2683 -0.4465 -0.5337
39098SOL    HW121750   7.305   4.460   3.237  0.0823 -0.6637 -0.0693
39098SOL    HW221751   7.352   4.512   3.103 -1.1639 -1.4462 -0.8322
39099SOL     OW21752  10.160   8.528   8.859 -0.2498 -0.1107  0.2877
39099SOL    HW121753  10.223   8.598   8.841  1.3272 -1.6532 -0.4029
39099SOL    HW221754  10.075   8.571   8.851  0.6284  1.4848 -1.3568
39100SOL     OW21755   1.187   8.129   9.076 -0.0949 -0.0535  0.4168
39100SOL    HW121756   1.241   8.097   9.147  0.7132  0.5415  0.0895
39100SOL    HW221757   1.098   8.128   9.111 -0.3130 -3.5370  0.1088
39101SOL     OW21758   8.660   2.233   1.378 -0.1744  0.0071 -0.4885
39101SOL    HW121759   8.668   2.157   1.435 -0.7380  0.3268  0.0298
39101SOL    HW221760   8.633   2.197   1.293 -1.8933 -0.2752  0.1359
39102SOL     OW21761   5.559   9.259   1.691 -0.0498 -0.3311  0.2180
39102SOL    HW121762   5.479   9.259   1.744 -0.0894 -3.8478  0.3656
39102SOL    HW221763   5.614   9.191   1.729  2.1221  0.4786 -1.2487
39103SOL     OW21764   3.022   7.180   2.575  0.2350 -0.3774 -0.7551
39103SOL    HW121765   3.035   7.255   2.516 -0.1889 -0.1868 -0.6046
39103SOL    HW221766   3.073   7.203   2.653 -2.0690  1.0389  0.4301
39104SOL     OW21767   7.294   5.252   7.465  0.6042 -0.3937 -0.4456
39104SOL    HW121768   7.373   5.296   7.496  1.1734 -0.9658 -1.0710
39104SOL    HW221769   7.267   5.197   7.539  1.0366 -0.5267 -0.3855
39105SOL     OW21770   0.505   5.276   6.537  0.1212 -0.0441  0.7549
39105SOL    HW121771   0.590   5.233   6.531  0.2219  0.3798 -1.7917
39105SOL    HW221772   0.456   5.242   6.462 -1.2172  1.2705  0.9959
39106SOL     OW21773  10.576   3.510   1.552 -0.3663 -0.1402  0.6097
39106SOL    HW121774  10.646   3.574   1.562 -1.2414  1.0173 -0.3405
39106SOL    HW221775  10.590   3.447   1.623  0.4142  1.2065  1.6909
39107SOL     OW21776   3.981   4.522   3.472  0.1472 -0.2052  0.3788
39107SOL    HW121777   3.887   4.539   3.472 -0.0202 -1.0379  1.3709
39107SOL    HW221778   4.009   4.545   3.560  0.9478  0.3570 -0.0096
39108SOL     OW21779   6.772   0.332   9.745 -0.1618  0.2253 -0.8413
39108SOL    HW121780   6.778   0.394   9.818 -1.1449  1.2356 -1.5710
39108SOL    HW221781   6.714   0.263   9.777  0.5432 -0.0717 -0.1890
39109SOL     OW21782   0.886   7.138   8.670 -0.4453  0.3137  0.2763
39109SOL    HW121783   0.876   7.228   8.701 -1.0922 -0.0917  1.2945
39109SOL    HW221784   0.816   7.090   8.714 -1.2918 -0.3559 -1.6721
39110SOL     OW21785   3.520   8.607   4.129  0.4350 -0.3600 -0.0950
39110SOL    HW121786   3.583   8.564   4.071  1.3665 -1.0309  1.3759
39110SOL    HW221787   3.514   8.551   4.206  0.3056  1.2069  1.0939
39111SOL     OW21788   4.623   4.131   3.213 -0.1751  0.0724  0.0891
39111SOL    HW121789   4.709   4.167   3.235 -0.9324  0.7371  2.1771
39111SOL    HW221790   4.573   4.206   3.180 -0.2227 -0.1439 -0.3474
39112SOL     OW21791   4.896   3.672   6.208  0.2385 -0.1603 -0.3316
39112SOL    HW121792   4.817   3.653   6.157 -1.1644  2.9335  0.4152
39112SOL    HW221793   4.909   3.595   6.263 -1.9595 -0.9876 -0.8615
39113SOL     OW21794   6.356   6.143   4.810 -0.0378 -0.0008 -0.3935
39113SOL    HW121795   6.432   6.147   4.868 -0.2016 -1.2404 -0.0731
39113SOL    HW221796   6.281   6.138   4.868 -0.2138 -1.0702 -0.6955
39114SOL     OW21797   6.275  10.634  10.371 -0.4192  0.1410 -0.1359
39114SOL    HW121798   6.328  10.662  10.296  1.9064 -0.0366  1.3232
39114SOL    HW221799   6.329  10.656  10.448 -3.4421  1.9744  1.6592
39115SOL     OW21800   6.778   7.190   0.841  0.0114 -0.1285  0.3049
39115SOL    HW121801   6.722   7.243   0.784  0.9754  1.6480  0.9394
39115SOL    HW221802   6.867   7.216   0.818  0.5860 -2.1289  0.0619
39116SOL     OW21803   0.042   2.325   8.836  0.6236 -0.5489 -0.1943
39116SOL    HW121804  -0.051   2.313   8.851  0.4788 -1.7271 -1.8093
39116SOL    HW221805   0.083   2.295   8.917 -0.3371 -1.6159 -0.0710
39117SOL     OW21806   7.778   4.818   1.290  0.0866  0.0580 -0.0432
39117SOL    HW121807   7.752   4.771   1.369  0.7180 -0.5845 -0.2093
39117SOL    HW221808   7.871   4.800   1.281  0.5406  1.9499  0.2951
39118SOL     OW21809   3.138   1.816   7.270  0.0752 -0.1688  0.3683
39118SOL    HW121810   3.114   1.757   7.341 -1.7160 -0.1372 -0.1614
39118SOL    HW221811   3.122   1.765   7.190  0.3489  0.3959 -0.0521
39119SOL     OW21812  10.041   1.900   0.429  0.0886  0.0516  0.0099
39119SOL    HW121813  10.019   1.904   0.522 -4.2090 -0.5010 -0.7391
39119SOL    HW221814  10.042   1.807   0.408  0.5430  0.1844 -0.5804
39120SOL     OW21815   1.199   1.275   2.450 -0.1740  0.2780  0.0113
39120SOL    HW121816   1.182   1.185   2.423 -0.4868  0.5994 -0.8914
39120SOL    HW221817   1.115   1.320   2.438 -0.2347  0.5257  1.2062
39121SOL     OW21818   9.888   3.059   6.142 -0.5326  0.4638 -0.4589
39121SOL    HW121819   9.798   3.059   6.174 -1.3977  2.9520 -2.5157
39121SOL    HW221820   9.880   3.068   6.047  1.8680  1.2335 -0.6595
39122SOL     OW21821   2.347   7.839   4.134 -0.3893 -0.3445 -0.0464
39122SOL    HW121822   2.324   7.895   4.208  0.5389 -1.1434  0.8728
39122SOL    HW221823   2.371   7.900   4.065 -0.3937  0.4095  0.5954
39123SOL     OW21824   4.675   1.911   2.762 -0.5751  0.0333 -0.3747
39123SOL    HW121825   4.694   1.992   2.715  0.1741  0.5196  0.7211
39123SOL    HW221826   4.761   1.876   2.784 -0.8552 -1.5630 -1.6176
39124SOL     OW21827   9.419   6.600   6.421  0.9260  0.0373  0.2772
39124SOL    HW121828   9.500   6.577   6.466  0.7924 -1.9402 -0.4128
39124SOL    HW221829   9.357   6.533   6.447 -0.0298  0.6033 -0.4753
39125SOL     OW21830   4.284   3.082   5.048 -0.8321  0.6512 -0.3859
39125SOL    HW121831   4.240   3.155   5.004 -0.3862  0.8771 -0.4653
39125SOL    HW221832   4.350   3.053   4.986  0.5815  1.7238  0.5501
39126SOL     OW21833  10.328  10.162   5.615  0.8882 -0.1408 -0.1495
39126SOL    HW121834  10.373  10.125   5.539 -0.3689 -1.2253 -0.4171
39126SOL    HW221835  10.286  10.242   5.583  1.7533  0.3144 -0.1565
39127SOL     OW21836  10.437   4.145   5.381 -0.1717  1.1124  0.2046
39127SOL    HW121837  10.473   4.092   5.452  1.0620 -2.3688 -2.6743
39127SOL    HW221838  10.348   4.112   5.370 -0.0834  1.0501 -0.3384
39128SOL     OW21839  10.171   4.221   0.674 -0.4213 -0.3021  0.2617
39128SOL    HW121840  10.235   4.251   0.738  0.8234 -0.5246 -0.8373
39128SOL    HW221841  10.206   4.249   0.589 -2.1083  0.1269 -0.3327
39129SOL     OW21842   8.664   7.786   1.589 -0.3400  0.4192  0.1772
39129SOL    HW121843   8.699   7.698   1.603 -0.5061  0.1892 -0.7638
39129SOL    HW221844   8.644   7.789   1.495 -1.3677  1.0821  0.4052
39130SOL     OW21845   0.876   4.469   4.202  0.0323  0.2298  0.6311
39130SOL    HW121846   0.889   4.416   4.123  0.9678  2.3433 -0.7202
39130SOL    HW221847   0.946   4.442   4.261 -0.1506 -0.7566  0.4208
39131SOL     OW21848   9.510   1.269   4.646 -0.7685 -0.2875  0.2175
39131SOL    HW121849   9.515   1.361   4.620  0.8761 -0.5963 -0.6929
39131SOL    HW221850   9.433   1.264   4.703 -0.3022  1.8557  1.1388
39132SOL     OW21851   1.565   6.442   7.082  0.2712 -0.3187  0.6260
39132SOL    HW121852   1.576   6.447   7.177 -0.2208  0.3669  0.6516
39132SOL    HW221853   1.475   6.409   7.070  0.6477 -1.3121  0.3944
39133SOL     OW21854  10.164   4.982   5.883  0.3680  0.1380  0.5088
39133SOL    HW121855  10.123   4.899   5.861 -0.6534  1.1874 -1.9454
39133SOL    HW221856  10.248   4.959   5.923  0.4012 -2.0487 -0.7243
39134SOL     OW21857   6.703   6.173   4.113  0.2164 -0.2167 -0.6843
39134SOL    HW121858   6.689   6.245   4.176 -0.0813  0.6150 -1.6772
39134SOL    HW221859   6.768   6.116   4.156 -1.2431 -0.6074  1.1309
39135SOL     OW21860   6.321   0.987   8.564 -0.4001 -0.9162 -0.2061
39135SOL    HW121861   6.395   0.986   8.625 -1.1027 -0.5166  0.6850
39135SOL    HW221862   6.248   0.952   8.615 -1.4739  1.2271 -0.1726
39136SOL     OW21863   9.848   4.356   2.590 -0.4313 -0.0044 -0.0391
39136SOL    HW121864   9.826   4.449   2.593  0.1312  0.1713 -1.0422
39136SOL    HW221865   9.764   4.313   2.571 -0.7169  0.2784  0.5473
39137SOL     OW21866   0.497   2.937   3.867 -0.0499  0.4114  0.3131
39137SOL    HW121867   0.501   2.871   3.799 -4.4300  0.6915 -0.5135
39137SOL    HW221868   0.513   3.020   3.822 -0.7031  0.4033  0.0597
39138SOL     OW21869   6.379  10.429   7.588 -0.0115 -0.5249 -0.0097
39138SOL    HW121870   6.448  10.474   7.538  0.6310  0.9728  2.0674
39138SOL    HW221871   6.384  10.338   7.560 -0.5205  0.3727 -3.5132
39139SOL     OW21872   6.535  10.464   5.135  1.0105  0.1219  0.0034
39139SOL    HW121873   6.574  10.479   5.221 -0.9291 -2.3274  1.4606
39139SOL    HW221874   6.441  10.461   5.152  0.3513  2.0437 -2.6880
39140SOL     OW21875   6.218   8.709   2.310  0.2363 -0.1661  0.1910
39140SOL    HW121876   6.128   8.710   2.340  0.1294 -0.0807 -0.1253
39140SOL    HW221877   6.233   8.619   2.281 -0.5002  0.3487 -1.9595
39141SOL     OW21878   1.771  10.562   2.172 -0.0460 -0.0082  0.3379
39141SOL    HW121879   1.794  10.546   2.264  0.1276  0.1891  0.3304
39141SOL    HW221880   1.855  10.569   2.128 -0.1082  1.2090  0.3922
39142SOL     OW21881   5.659   3.632   2.776  0.1180  0.9830 -0.8581
39142SOL    HW121882   5.579   3.636   2.829 -0.9936  1.9637 -2.5033
39142SOL    HW221883   5.694   3.721   2.779  1.4582  0.4425  0.2520
39143SOL     OW21884   8.651   0.803   9.563  0.0799 -0.0702  0.1760
39143SOL    HW121885   8.721   0.866   9.577  0.8495 -0.9327  0.2785
39143SOL    HW221886   8.607   0.833   9.483  0.1520  0.8424  0.4760
39144SOL     OW21887   6.882   6.995   7.627  0.9624  0.0716 -0.1033
39144SOL    HW121888   6.891   7.058   7.698  1.0463 -1.9373  1.7797
39144SOL    HW221889   6.956   6.936   7.637  1.2245 -0.0302 -2.1794
39145SOL     OW21890   2.278   4.967   7.511  0.3133  0.4989  0.0355
39145SOL    HW121891   2.340   4.935   7.446 -0.3561 -1.9203  0.4817
39145SOL    HW221892   2.194   4.928   7.486  0.0800 -0.7248  2.4114
39146SOL     OW21893   0.451   0.874   3.863  0.2739  0.2026 -0.6195
39146SOL    HW121894   0.542   0.903   3.855  0.7381 -0.9611  0.2427
39146SOL    HW221895   0.400   0.954   3.851  1.4389  1.0289 -0.2900
39147SOL     OW21896   8.520   7.555   0.106 -0.3430 -0.0081  0.6402
39147SOL    HW121897   8.427   7.544   0.086 -0.0957 -0.2795 -0.4214
39147SOL    HW221898   8.532   7.650   0.110 -0.5729  0.0393  0.2873
39148SOL     OW21899   5.903   7.749   0.279  0.1980 -0.7375 -0.6118
39148SOL    HW121900   5.814   7.781   0.289 -0.0363 -1.3653 -0.6719
39148SOL    HW221901   5.934   7.789   0.198  0.2048 -0.0064 -0.2633
39149SOL     OW21902   1.703  10.331   6.433  0.3768  0.8844  0.7259
39149SOL    HW121903   1.742  10.379   6.360  1.3182  0.1351  0.7242
39149SOL    HW221904   1.650  10.264   6.391  1.9921 -0.4213  0.6866
39150SOL     OW21905  10.200   3.569   9.605 -0.1777 -0.1208 -0.2651
39150SOL    HW121906  10.193   3.569   9.509 -0.9374  0.7648 -0.2186
39150SOL    HW221907  10.110   3.579   9.635  0.0417 -0.5598  0.5544
39151SOL     OW21908   9.596   1.520  10.475 -0.7282  0.0995 -0.1587
39151SOL    HW121909   9.509   1.523  10.515 -0.7001  0.0102 -0.0922
39151SOL    HW221910   9.657   1.528  10.549 -0.6857  2.0633 -0.3313
39152SOL     OW21911   8.578   6.606   9.478 -0.0229 -0.1512 -0.1739
39152SOL    HW121912   8.604   6.568   9.561  3.0991  0.8113 -0.5940
39152SOL    HW221913   8.508   6.669   9.501 -0.5780 -1.2818  1.3821
39153SOL     OW21914   5.457   9.138   8.053 -0.3347  1.1260  0.6761
39153SOL    HW121915   5.400   9.067   8.080  2.3476 -1.3890  0.1661
39153SOL    HW221916   5.498   9.169   8.135 -0.4284  1.1011  0.7318
39154SOL     OW21917   1.556   1.489   4.748 -0.2895 -0.2352  0.1992
39154SOL    HW121918   1.639   1.494   4.703 -0.9234  0.9749 -0.9074
39154SOL    HW221919   1.552   1.570   4.800 -1.2877  0.3311 -0.7242
39155SOL     OW21920   1.225   2.345   2.011 -0.3406 -0.0071 -0.3837
39155SOL    HW121921   1.302   2.337   1.955  0.0892  0.7801  0.0860
39155SOL    HW221922   1.151   2.324   1.953  0.3389 -3.2345 -0.2831
39156SOL     OW21923   9.324  10.669   1.057 -0.0595 -0.4612 -0.9285
39156SOL    HW121924   9.306  10.666   1.151 -1.1607 -1.6253 -1.1600
39156SOL    HW221925   9.419  10.655   1.051 -0.1726 -1.8414 -0.0512
39157SOL     OW21926   5.463   2.146  10.233  0.4073  0.1371 -0.0550
39157SOL    HW121927   5.543   2.144  10.181  0.6347 -2.7866  0.2352
39157SOL    HW221928   5.406   2.079  10.193 -1.3045  1.1002  0.6442
39158SOL     OW21929   6.576   3.976   6.720  0.5569  0.8694 -0.1559
39158SOL    HW121930   6.553   4.051   6.775  1.5217  0.2851  1.1080
39158SOL    HW221931   6.580   3.903   6.781 -0.9797 -0.3703 -1.4700
39159SOL     OW21932   2.955   0.506   5.305  0.5445 -0.0836  0.1653
39159SOL    HW121933   2.914   0.483   5.221  0.7171 -1.4630  0.4294
39159SOL    HW221934   3.035   0.454   5.308  1.5081  1.3717  0.3789
39160SOL     OW21935   4.526   7.825   4.214 -0.2995 -0.8276  0.1976
39160SOL    HW121936   4.498   7.767   4.143  1.4973 -0.2878 -1.0300
39160SOL    HW221937   4.621   7.817   4.215 -0.0064  1.8959  0.1264
39161SOL     OW21938   9.578   6.468   7.363 -0.9040 -0.1397 -0.4535
39161SOL    HW121939   9.615   6.555   7.380  1.7893 -0.6065 -3.1369
39161SOL    HW221940   9.612   6.413   7.434  0.7797  0.2094 -0.9461
39162SOL     OW21941   8.557   1.319   9.899 -0.3270 -0.0740 -0.5808
39162SOL    HW121942   8.598   1.234   9.915  0.1131  0.5101  1.7741
39162SOL    HW221943   8.533   1.317   9.806  1.1957 -2.0890 -1.0008
39163SOL     OW21944   2.186   4.135   4.498 -0.4513 -0.4897 -0.4738
39163SOL    HW121945   2.187   4.170   4.409 -0.4745 -1.4951 -0.8720
39163SOL    HW221946   2.105   4.085   4.504 -1.3824  1.0643  0.7192
39164SOL     OW21947  10.994   2.889   9.428 -0.3029 -0.4011 -0.7009
39164SOL    HW121948  11.035   2.973   9.447  0.6370 -1.1839  0.9526
39164SOL    HW221949  10.955   2.862   9.511  0.6394 -2.2310 -0.7868
39165SOL     OW21950   9.529   7.102   9.313 -0.0824 -0.2927  0.0231
39165SOL    HW121951   9.571   7.136   9.392 -1.2824  0.7241  0.2689
39165SOL    HW221952   9.478   7.026   9.343  0.2440 -0.5011  0.0458
39166SOL     OW21953   6.411   5.655   8.261  0.4867 -0.0533  0.0867
39166SOL    HW121954   6.475   5.602   8.310 -0.2183 -0.8248  0.1899
39166SOL    HW221955   6.391   5.602   8.184 -1.5064 -0.7388  1.0323
39167SOL     OW21956   6.145   6.942   5.390 -0.1580 -0.1570  0.5675
39167SOL    HW121957   6.121   6.932   5.298  1.5495 -2.4458  0.2885
39167SOL    HW221958   6.200   7.020   5.392  0.9139 -0.8360 -0.6502
39168SOL     OW21959   6.602   6.845   2.701 -0.9731  0.5869 -0.0719
39168SOL    HW121960   6.532   6.860   2.637 -0.7755 -0.3690 -0.5361
39168SOL    HW221961   6.593   6.752   2.724  0.1283  0.4526 -0.1380
39169SOL     OW21962   2.469   7.373   2.153 -0.0245  0.1405  0.0707
39169SOL    HW121963   2.443   7.343   2.240  0.8061  0.4343  0.4281
39169SOL    HW221964   2.407   7.443   2.133 -0.9419 -0.6901 -0.0753
39170SOL     OW21965   1.499   0.211   4.422  0.2401 -0.9865  0.2743
39170SOL    HW121966   1.472   0.297   4.392 -2.7965 -2.0232 -0.3621
39170SOL    HW221967   1.418   0.170   4.453  1.7748 -3.1843  1.6984
39171SOL     OW21968   1.457  10.996   4.314 -0.2364 -0.7194 -0.1019
39171SOL    HW121969   1.414  10.993   4.228 -1.6638 -0.5938  0.5664
39171SOL    HW221970   1.447  11.086   4.343  1.6936 -0.3472 -0.4674
39172SOL     OW21971   4.188   6.624  10.836 -0.7058 -0.1397  0.6343
39172SOL    HW121972   4.230   6.569  10.903 -0.4859  0.0031  0.6134
39172SOL    HW221973   4.244   6.701  10.829 -1.0977  0.1630  0.7736
39173SOL     OW21974   0.844   2.514   6.957  0.2684 -0.2887  0.7064
39173SOL    HW121975   0.782   2.490   6.888  1.5722 -0.6877 -0.3700
39173SOL    HW221976   0.789   2.538   7.032 -1.1983  0.7679 -0.6555
39174SOL     OW21977   1.018   0.302   5.312  0.3675 -0.2266 -0.2106
39174SOL    HW121978   1.027   0.358   5.235  0.6896 -0.4910 -0.3673
39174SOL    HW221979   0.934   0.258   5.300 -0.6594  1.3909  0.6874
39175SOL     OW21980   7.252   7.154   7.295  0.3150 -0.1911 -0.0369
39175SOL    HW121981   7.168   7.144   7.250 -0.5115  1.8867  0.9113
39175SOL    HW221982   7.290   7.066   7.294 -2.6916 -1.6557  1.0628
39176SOL     OW21983   4.635   2.918   7.662  0.1840 -0.1817 -0.6772
39176SOL    HW121984   4.556   2.883   7.703 -0.0407 -0.4984 -1.3757
39176SOL    HW221985   4.700   2.918   7.732 -0.2100 -0.6780 -0.3052
39177SOL     OW21986   1.517   9.568   6.923 -0.5578  0.3570  0.5027
39177SOL    HW121987   1.428   9.587   6.951  0.0515  4.4311  0.3955
39177SOL    HW221988   1.518   9.591   6.830  0.9782  2.4676  0.9601
39178SOL     OW21989   1.435   9.027  10.325  0.5201 -0.1087  0.3114
39178SOL    HW121990   1.420   9.098  10.263 -1.5970 -0.5482  0.2629
39178SOL    HW221991   1.365   8.964  10.307 -0.2893 -0.1818  3.2429
39179SOL     OW21992   8.671   7.228  10.285 -0.3793 -0.1661 -0.0624
39179SOL    HW121993   8.754   7.266  10.255  0.8697 -0.6099  2.5428
39179SOL    HW221994   8.621   7.302  10.319  0.5574 -0.2949  1.7247
39180SOL     OW21995   6.072   0.878   4.339  0.4472 -0.2507 -0.0534
39180SOL    HW121996   6.166   0.861   4.336  0.1476 -2.1027 -0.5143
39180SOL    HW221997   6.065   0.973   4.346  2.3498 -0.1283  1.0123
39181SOL     OW21998   6.678   8.241   5.989  0.1008 -0.1430  0.0148
39181SOL    HW121999   6.682   8.270   5.898 -2.3499  1.3292  0.2917
39181SOL    HW222000   6.767   8.211   6.008  1.4296  2.1184 -2.0135
39182SOL     OW22001   0.825   0.608   5.739 -0.3863  0.0972 -0.4273
39182SOL    HW122002   0.822   0.694   5.781  1.0147  0.1145 -0.3036
39182SOL    HW222003   0.905   0.568   5.773  0.1437 -0.3890 -2.1266
39183SOL     OW22004   4.885   8.319   3.477 -0.5965  0.1350  0.1580
39183SOL    HW122005   4.860   8.389   3.417  0.6497  0.2287 -0.2711
39183SOL    HW222006   4.921   8.250   3.421  0.5382  0.2069  0.7731
39184SOL     OW22007   6.984   7.595   9.714  0.1184  0.1430  0.2477
39184SOL    HW122008   6.939   7.512   9.731  0.1830  0.1464  0.4439
39184SOL    HW222009   6.965   7.615   9.623 -0.0217 -0.0123  0.2434
39185SOL     OW22010  10.975   7.497   0.465 -0.3242 -0.0110  0.1372
39185SOL    HW122011  10.950   7.583   0.499 -0.5740  0.7770 -1.8662
39185SOL    HW222012  10.893   7.449   0.458 -0.3901  0.1366 -0.1273
39186SOL     OW22013   5.241   3.610   3.879  0.0702 -0.1494  0.5789
39186SOL    HW122014   5.289   3.532   3.907  1.1948  1.0955  2.2690
39186SOL    HW222015   5.209   3.650   3.960  0.8405  1.9546 -0.0782
39187SOL     OW22016   1.884  10.772   3.724 -0.2861 -0.4543  0.2408
39187SOL    HW122017   1.922  10.690   3.695  1.3201  0.7198 -1.2126
39187SOL    HW222018   1.932  10.839   3.675 -1.5782  1.3461  1.3132
39188SOL     OW22019   8.818  11.010   2.068 -0.0112  0.0385 -0.4746
39188SOL    HW122020   8.819  11.041   1.978  0.5611 -3.4839 -1.8565
39188SOL    HW222021   8.726  10.991   2.087 -0.3022  1.8920  0.2186
39189SOL     OW22022  10.489   2.472   9.709 -0.0352 -0.2352 -0.0687
39189SOL    HW122023  10.466   2.403   9.770  2.0981 -0.6195  0.3954
39189SOL    HW222024  10.451   2.552   9.746 -1.9149 -1.0177 -0.2429
39190SOL     OW22025   3.536   3.902  11.009 -0.8091 -0.3422 -0.2710
39190SOL    HW122026   3.631   3.910  11.001 -0.8738  0.3704 -0.3699
39190SOL    HW222027   3.518   3.810  10.989 -0.2172 -0.3005 -1.0278
39191SOL     OW22028   3.019   2.130   5.477 -0.2978  0.5921  0.6058
39191SOL    HW122029   2.988   2.064   5.414 -2.3147  1.0272  1.0831
39191SOL    HW222030   2.994   2.214   5.438  1.4856  1.0805  0.4172
39192SOL     OW22031   8.905   6.410   6.845  0.2505  0.8252 -0.3728
39192SOL    HW122032   8.941   6.321   6.843  0.5271  0.8967  0.5184
39192SOL    HW222033   8.863   6.417   6.931 -0.8146  1.1715 -0.9019
39193SOL     OW22034   4.163   4.055   5.316  0.4726  0.0256 -0.4389
39193SOL    HW122035   4.211   4.099   5.386  1.1756 -0.5465 -0.5462
39193SOL    HW222036   4.231   4.014   5.263 -0.1668 -1.4039 -0.1926
39194SOL     OW22037  10.601   3.233   0.456 -0.2830 -0.4881  0.0611
39194SOL    HW122038  10.506   3.234   0.465 -0.4812  0.2634 -1.7388
39194SOL    HW222039  10.617   3.241   0.362  1.5794  1.3854  0.4423
39195SOL     OW22040   8.802   4.090   2.691  0.1078  0.6882  0.5237
39195SOL    HW122041   8.725   4.147   2.684 -0.6637 -0.1180  2.0705
39195SOL    HW222042   8.807   4.046   2.606 -0.2005  1.8878 -0.1449
39196SOL     OW22043   8.266   1.949   9.828  0.3334 -0.0872 -0.1442
39196SOL    HW122044   8.272   2.011   9.900 -0.6394  1.1508 -1.0650
39196SOL    HW222045   8.345   1.964   9.776  0.6182 -0.3690  0.2134
39197SOL     OW22046   0.112   0.571   1.653  0.1124 -0.4126  0.6323
39197SOL    HW122047   0.071   0.555   1.568 -0.3700 -0.2817  0.8324
39197SOL    HW222048   0.165   0.649   1.640 -2.0411  1.2242  1.1033
39198SOL     OW22049   2.394   1.943   8.458  0.0500 -0.7586  0.3451
39198SOL    HW122050   2.402   1.905   8.546  1.5284 -0.5320  0.3415
39198SOL    HW222051   2.346   2.024   8.471  0.8801 -0.3635  1.0884
39199SOL     OW22052   0.103   2.013  10.513  0.0080 -0.2167  0.2507
39199SOL    HW122053   0.035   2.080  10.503  0.3715  0.4931  2.2003
39199SOL    HW222054   0.072   1.940  10.459 -1.7915  0.4534  0.2999
39200SOL     OW22055   8.728   0.824   4.257 -0.6609  0.1369  0.0385
39200SOL    HW122056   8.782   0.903   4.267 -0.2244 -0.2616  1.0173
39200SOL    HW222057   8.742   0.776   4.339 -3.6675  0.7217  1.0321
39201SOL     OW22058   3.958   2.946   3.173  0.0876  0.4157 -0.3443
39201SOL    HW122059   3.918   2.979   3.253  1.3611  1.1657  0.0118
39201SOL    HW222060   3.884   2.931   3.113 -0.7985  0.6526  0.6634
39202SOL     OW22061  10.655   1.236   7.045  0.5105  0.0236 -0.5770
39202SOL    HW122062  10.587   1.228   6.978 -2.7197 -0.9986  2.5347
39202SOL    HW222063  10.730   1.189   7.008 -0.7655  0.2606 -3.7711
39203SOL     OW22064   8.218   8.655   9.207 -0.2183  0.3483  0.4945
39203SOL    HW122065   8.189   8.564   9.219  1.0102 -0.2041 -0.4446
39203SOL    HW222066   8.314   8.650   9.211 -0.1434  1.6258  0.5218
39204SOL     OW22067   6.261   7.780   9.185  0.4497 -0.0732 -0.0179
39204SOL    HW122068   6.271   7.818   9.272  0.4633 -0.9997  0.3965
39204SOL    HW222069   6.200   7.839   9.140 -0.7849 -0.4207  1.1399
39205SOL     OW22070   4.477   7.412  10.092 -0.2617  0.2255 -0.1224
39205SOL    HW122071   4.457   7.323  10.062 -0.0109 -0.2449  1.0728
39205SOL    HW222072   4.563   7.431  10.056 -0.1800 -0.1362 -0.1149
39206SOL     OW22073   4.307   2.154   6.397 -0.4105  0.0367  0.8474
39206SOL    HW122074   4.236   2.203   6.438 -0.1693 -0.3841  1.8179
39206SOL    HW222075   4.324   2.199   6.315 -1.1340  0.7264  1.0664
39207SOL     OW22076   0.012   9.622   1.344 -0.3998 -0.0798 -0.0205
39207SOL    HW122077  -0.042   9.545   1.360  0.3462 -0.5701  0.1674
39207SOL    HW222078  -0.050   9.695   1.340 -1.1221 -0.7126 -0.3539
39208SOL     OW22079   5.247   8.035  10.332  0.0542 -0.2660  0.5127
39208SOL    HW122080   5.184   8.014  10.401 -0.2099  0.1744  0.4081
39208SOL    HW222081   5.200   8.095  10.274  0.5064 -0.0886  0.3264
39209SOL     OW22082   6.731   9.197   3.962  0.2362 -0.7878 -0.6764
39209SOL    HW122083   6.676   9.273   3.943  1.5925  0.4592  0.1848
39209SOL    HW222084   6.701   9.167   4.047 -0.5667 -1.4950 -1.1924
39210SOL     OW22085   5.960   9.063   7.760  0.2358 -0.3773  0.0395
39210SOL    HW122086   5.919   9.101   7.683 -0.4206 -0.6046  0.2671
39210SOL    HW222087   5.916   8.979   7.772 -0.7740  0.3158  1.5561
39211SOL     OW22088   7.063   3.839   3.707  0.3853 -0.0928 -0.4028
39211SOL    HW122089   7.143   3.794   3.734  0.5395  1.5988  2.3896
39211SOL    HW222090   7.003   3.769   3.682  1.9860 -1.5284 -0.3957
39212SOL     OW22091   3.242   8.997   3.538 -0.2639 -0.1493 -0.0754
39212SOL    HW122092   3.219   8.997   3.445  0.5139  0.5436 -0.2765
39212SOL    HW222093   3.277   9.085   3.554  2.8125 -1.2806  0.0489
39213SOL     OW22094  10.630  10.741   6.469  0.1105 -0.7473  0.4283
39213SOL    HW122095  10.678  10.824   6.478 -0.9297 -0.1958  1.1982
39213SOL    HW222096  10.669  10.699   6.393  0.9095  0.2883  0.2334
39214SOL     OW22097   4.573   6.868   4.348  0.0954 -0.2636  0.3661
39214SOL    HW122098   4.500   6.929   4.343 -1.2912 -1.8543  0.1665
39214SOL    HW222099   4.614   6.887   4.433 -0.4697  0.7476  0.4273
39215SOL     OW22100   4.421   2.357   6.152 -0.1746 -0.2890  0.1952
39215SOL    HW122101   4.382   2.434   6.112 -0.0510 -0.2326  0.1835
39215SOL    HW222102   4.391   2.284   6.098  0.0440 -0.2067 -0.0355
39216SOL     OW22103   6.556   7.222   7.178  0.4341 -0.0474 -0.0327
39216SOL    HW122104   6.503   7.299   7.196  0.4991 -0.1499  0.6183
39216SOL    HW222105   6.618   7.250   7.111  0.5749  0.5172  0.3315
39217SOL     OW22106   1.243   3.733   9.895  0.1193 -0.1274 -0.3525
39217SOL    HW122107   1.336   3.729   9.916  0.1593  0.8881 -0.2485
39217SOL    HW222108   1.235   3.811   9.839 -0.6443 -0.2894 -0.4773
39218SOL     OW22109   1.238   0.468   5.358 -0.4069 -0.0201  0.4464
39218SOL    HW122110   1.188   0.390   5.333 -0.4579  0.4712 -1.1265
39218SOL    HW222111   1.188   0.507   5.430 -1.1519 -0.6710  0.2913
39219SOL     OW22112   9.635   4.331   0.935 -0.0796 -0.1430  0.2552
39219SOL    HW122113   9.650   4.372   1.020  0.6105  1.2582 -0.5055
39219SOL    HW222114   9.717   4.286   0.915 -0.0880 -0.0994  0.1257
39220SOL     OW22115   3.050   7.557   1.026 -0.1172 -0.3699 -0.2385
39220SOL    HW122116   3.078   7.617   0.957 -1.6265 -0.8630 -1.3303
39220SOL    HW222117   3.073   7.602   1.108 -0.1245  1.1430 -1.0359
39221SOL     OW22118   1.710   3.313   4.088 -0.0078  0.7121 -0.3088
39221SOL    HW122119   1.779   3.292   4.026  0.3899  0.2492  0.2773
39221SOL    HW222120   1.667   3.391   4.051 -0.7040 -0.3660 -1.8797
39222SOL     OW22121   0.807   9.176   1.536  0.2112  0.1530 -0.4856
39222SOL    HW122122   0.896   9.206   1.521 -0.0832  0.2567 -2.4037
39222SOL    HW222123   0.753   9.235   1.482 -0.6652 -1.9095 -2.0041
39223SOL     OW22124   9.250  10.843   1.994 -0.2846 -0.1087  0.4084
39223SOL    HW122125   9.265  10.753   2.024  0.9905 -1.4517 -3.6166
39223SOL    HW222126   9.178  10.835   1.931 -0.1127  1.6765 -0.0515
39224SOL     OW22127   7.409   0.988  10.844  0.2559  0.1051  0.0347
39224SOL    HW122128   7.340   0.982  10.777 -1.5124 -2.6732  1.8578
39224SOL    HW222129   7.363   1.011  10.924  1.6953 -0.2465  1.0053
39225SOL     OW22130   2.923   5.711   9.669  0.3067 -0.1063 -0.1335
39225SOL    HW122131   2.844   5.669   9.636  0.3005  0.3855 -0.7748
39225SOL    HW222132   2.956   5.653   9.737  0.8682 -1.6727 -1.6738
39226SOL     OW22133  10.822   2.390   4.909 -0.2705 -0.1271 -0.4287
39226SOL    HW122134  10.864   2.418   4.828 -2.1088  0.5200 -1.2145
39226SOL    HW222135  10.778   2.468   4.942 -0.7671 -0.7382  0.3976
39227SOL     OW22136   4.634   6.355   3.283  0.2899 -0.1218 -0.3837
39227SOL    HW122137   4.595   6.424   3.229  0.4567 -0.2070 -0.6139
39227SOL    HW222138   4.727   6.357   3.261  0.3929 -0.0160  0.0572
39228SOL     OW22139   0.307   3.731   3.434  0.7591 -0.9649 -0.0656
39228SOL    HW122140   0.361   3.657   3.462 -0.8558 -2.9455 -1.8562
39228SOL    HW222141   0.239   3.737   3.501  1.6299 -0.2044  0.7763
39229SOL     OW22142   0.293   9.747   3.773 -0.1120  0.3586  0.1596
39229SOL    HW122143   0.301   9.821   3.713 -0.1912  0.7434  0.6221
39229SOL    HW222144   0.199   9.741   3.792 -0.3198 -0.7893 -1.0272
39230SOL     OW22145   9.439  10.210   7.321 -0.6254 -0.4010 -0.5618
39230SOL    HW122146   9.345  10.206   7.341 -0.4116 -0.8952  0.3747
39230SOL    HW222147   9.457  10.128   7.274 -0.6882 -0.2320 -0.8854
39231SOL     OW22148   4.928   8.563   3.770 -0.5680 -1.3117  0.1506
39231SOL    HW122149   4.910   8.655   3.749  0.7511 -0.7162  1.4726
39231SOL    HW222150   4.906   8.555   3.863 -0.9210 -2.4182 -0.0138
39232SOL     OW22151   9.984   5.927   9.699 -0.1899  0.0370 -0.4422
39232SOL    HW122152  10.058   5.876   9.666  0.1371  0.9592 -1.1714
39232SOL    HW222153   9.941   5.869   9.762  1.3959 -0.3604  0.3129
39233SOL     OW22154   0.651  10.204   0.231  0.2309  0.1354  0.1107
39233SOL    HW122155   0.623  10.208   0.323 -0.4710  2.6674 -0.1393
39233SOL    HW222156   0.746  10.201   0.236  0.3231  2.4120  0.9905
39234SOL     OW22157   3.276   6.926   9.797 -0.0480 -0.4815  0.1197
39234SOL    HW122158   3.355   6.888   9.835 -0.7096 -1.2602  0.7491
39234SOL    HW222159   3.275   6.893   9.707 -0.0581 -1.1066  0.3449
39235SOL     OW22160   4.047  10.115   9.453 -0.1595 -0.1252 -0.7841
39235SOL    HW122161   4.114  10.183   9.454 -0.3366  0.0583  1.1466
39235SOL    HW222162   3.966  10.161   9.475 -0.4464 -0.7917 -0.4175
39236SOL     OW22163   1.550   7.048   3.096 -0.0283 -0.2991  0.3198
39236SOL    HW122164   1.636   7.034   3.135 -0.3798 -0.2417  1.1320
39236SOL    HW222165   1.488   7.016   3.162 -0.7610  2.3739  1.0398
39237SOL     OW22166   7.343   3.632   1.373 -0.5824 -0.1280  0.7394
39237SOL    HW122167   7.290   3.711   1.387 -1.5529 -0.6601  0.1604
39237SOL    HW222168   7.409   3.635   1.443 -0.2919  1.4432  0.4446
39238SOL     OW22169   4.890   9.890   6.239 -0.0456  0.0748  0.5905
39238SOL    HW122170   4.891   9.985   6.249  0.0637  0.3479 -1.5451
39238SOL    HW222171   4.980   9.864   6.253  0.2326  0.4949 -0.3647
39239SOL     OW22172  10.442   6.918   6.951  0.5470 -0.1830  0.4954
39239SOL    HW122173  10.460   6.868   6.872 -0.0352  0.2992  0.0508
39239SOL    HW222174  10.380   6.985   6.924  0.7422  0.3201  1.2452
39240SOL     OW22175   1.413   5.780   7.449  0.2522  0.0280  0.8086
39240SOL    HW122176   1.367   5.698   7.433  0.0317  0.1202  0.9661
39240SOL    HW222177   1.460   5.765   7.531 -0.7282  0.4535  1.4734
39241SOL     OW22178   8.849   0.372   5.533 -0.5923  0.0707 -0.5136
39241SOL    HW122179   8.894   0.379   5.617 -0.6081  1.6534 -0.6172
39241SOL    HW222180   8.783   0.441   5.535 -1.6484 -0.8850 -1.2071
39242SOL     OW22181   1.580   3.460  10.090 -0.0257 -0.2286 -0.1347
39242SOL    HW122182   1.529   3.513  10.151  0.7194 -0.4195  0.6616
39242SOL    HW222183   1.669   3.462  10.125  0.0612 -1.8191 -0.2123
39243SOL     OW22184   7.430   5.243  10.912  0.6163  0.3211 -0.2683
39243SOL    HW122185   7.346   5.277  10.942  0.9408  1.2163 -0.3303
39243SOL    HW222186   7.451   5.296  10.835  2.6889  2.3047  1.5288
39244SOL     OW22187   6.762   2.715   9.201 -0.2726 -0.1548 -0.2126
39244SOL    HW122188   6.758   2.810   9.191 -2.1424 -0.3983 -3.1996
39244SOL    HW222189   6.676   2.690   9.235  0.7953 -0.7212  2.2502
39245SOL     OW22190   0.505  10.683   7.838  0.0571  0.7072  0.1508
39245SOL    HW122191   0.563  10.626   7.887 -0.4659 -0.1478 -0.1936
39245SOL    HW222192   0.439  10.711   7.901 -2.5616 -2.9866 -0.5863
39246SOL     OW22193   0.290   8.568   4.087  0.4000  0.4706 -0.3572
39246SOL    HW122194   0.293   8.505   4.159 -1.5077 -0.4478 -1.0065
39246SOL    HW222195   0.355   8.537   4.024  0.6825  0.1531  0.0851
39247SOL     OW22196   6.455   8.029  10.749 -0.3181  0.0848 -0.3455
39247SOL    HW122197   6.498   8.114  10.756 -1.3343  0.5447  0.8793
39247SOL    HW222198   6.383   8.044  10.688 -1.8382  0.7556  1.5131
39248SOL     OW22199   5.062   1.307   5.930  0.3517 -0.0145  0.3716
39248SOL    HW122200   5.052   1.282   5.838 -0.9615  0.1020  0.4690
39248SOL    HW222201   5.003   1.248   5.977  0.6194  0.2797  1.0930
39249SOL     OW22202   8.887   1.462   9.655 -0.4572 -0.3110 -0.2154
39249SOL    HW122203   8.930   1.530   9.602  1.4529  0.9522  2.7000
39249SOL    HW222204   8.830   1.511   9.714 -1.5680 -1.5726 -0.1935
39250SOL     OW22205   7.481   8.856   2.973 -0.6203  0.0684  0.0464
39250SOL    HW122206   7.526   8.860   3.058 -0.9709  1.1183  0.1926
39250SOL    HW222207   7.414   8.924   2.978  0.3187  1.1833 -1.6390
39251SOL     OW22208  10.498   7.045   2.511  0.1127  0.1273 -0.4639
39251SOL    HW122209  10.566   7.091   2.560  0.2232 -1.5798  1.1433
39251SOL    HW222210  10.419   7.097   2.526  0.1466 -0.3081  1.6278
39252SOL     OW22211   6.812   8.001  10.909 -0.2821 -0.2225  0.2920
39252SOL    HW122212   6.895   8.048  10.920 -0.8316  0.6983  0.7171
39252SOL    HW222213   6.805   7.946  10.987  0.0438 -0.4833  0.1357
39253SOL     OW22214   6.701   3.625   6.100  0.7392  0.3889 -0.0884
39253SOL    HW122215   6.788   3.640   6.062  0.5874  0.1678 -0.5412
39253SOL    HW222216   6.641   3.668   6.038  0.6226  1.9398  1.0477
39254SOL     OW22217   2.430  10.963   4.691  0.1041  0.3123 -0.3368
39254SOL    HW122218   2.390  10.996   4.611 -0.2624  2.7690  0.7623
39254SOL    HW222219   2.524  10.967   4.675  0.0488 -1.4405 -1.4063
39255SOL     OW22220   9.920   2.621   7.257  0.1136 -0.3749 -0.0727
39255SOL    HW122221  10.006   2.637   7.296 -0.6491 -0.0785  1.5573
39255SOL    HW222222   9.862   2.606   7.331 -1.1331 -1.2070 -1.1728
39256SOL     OW22223   8.497   8.168   3.864  0.5373  0.4666 -0.0586
39256SOL    HW122224   8.483   8.079   3.833  1.1349  0.9260 -1.7588
39256SOL    HW222225   8.454   8.171   3.950 -0.5130 -1.1052 -0.4935
39257SOL     OW22226   9.681   9.447   0.261 -0.3779  0.1341 -0.2130
39257SOL    HW122227   9.649   9.366   0.221  0.1302 -0.6656  0.9381
39257SOL    HW222228   9.617   9.514   0.235 -1.5605 -0.9128 -0.0617
39258SOL     OW22229   7.988   6.724  10.018 -0.0508  0.2767 -0.0144
39258SOL    HW122230   7.946   6.695  10.100 -0.0795 -1.4202 -0.5782
39258SOL    HW222231   7.928   6.694   9.949  1.1307 -0.4613 -0.7463
39259SOL     OW22232   0.448   9.244   7.446 -0.1585  0.1000  0.0337
39259SOL    HW122233   0.538   9.223   7.470 -0.2896 -0.8427 -0.2355
39259SOL    HW222234   0.436   9.335   7.473  0.0462 -0.5387  2.5260
39260SOL     OW22235  11.066   5.281   5.266 -0.4589 -0.3589 -0.1418
39260SOL    HW122236  11.127   5.338   5.221  0.3583 -0.2371  1.0563
39260SOL    HW222237  10.981   5.322   5.254 -0.2509 -0.2526 -1.4017
39261SOL     OW22238   5.129   0.187   8.828 -0.3002 -0.3234 -0.0534
39261SOL    HW122239   5.210   0.210   8.784 -1.4944  1.5312 -1.4110
39261SOL    HW222240   5.141   0.096   8.854  1.5216 -0.6461 -1.8008
39262SOL     OW22241   7.143   4.492   2.708 -0.6033 -0.4263  0.3869
39262SOL    HW122242   7.193   4.411   2.704  0.7642  0.4399 -2.4470
39262SOL    HW222243   7.205   4.560   2.682 -2.4116  1.1686 -0.0018
39263SOL     OW22244  10.294   3.817   0.360  0.3808  0.4800 -0.1372
39263SOL    HW122245  10.334   3.898   0.392 -1.8965  1.2757  0.8463
39263SOL    HW222246  10.286   3.762   0.438 -0.5495  0.3992 -0.2773
39264SOL     OW22247   0.353   9.112   9.397 -0.0888  0.0021 -0.1100
39264SOL    HW122248   0.426   9.113   9.459 -0.6334  1.5745  0.5667
39264SOL    HW222249   0.381   9.053   9.327  1.4796 -0.0600  0.5406
39265SOL     OW22250   6.341   4.315   8.057  0.2834 -0.3588  0.3209
39265SOL    HW122251   6.251   4.315   8.091 -1.2346  0.3670 -3.2451
39265SOL    HW222252   6.376   4.400   8.083  0.2232 -0.8493  2.1945
39266SOL     OW22253   2.096   4.449  10.770  0.1927  0.1698  0.0426
39266SOL    HW122254   2.021   4.407  10.727  1.0594 -1.5415  0.1070
39266SOL    HW222255   2.056   4.514  10.828 -1.2431 -0.4822 -0.1480
39267SOL     OW22256   0.945   0.902   5.312 -0.2327 -0.1471 -0.0359
39267SOL    HW122257   0.954   0.992   5.344  0.5777  1.5140 -4.2365
39267SOL    HW222258   0.872   0.906   5.251  1.4077 -1.6289 -2.2520
39268SOL     OW22259   0.653   2.691   9.056  0.5060 -0.4656  0.2693
39268SOL    HW122260   0.646   2.784   9.078 -1.0629 -0.3453 -0.6250
39268SOL    HW222261   0.563   2.659   9.056  0.9720 -1.8438 -0.0571
39269SOL     OW22262   7.702   6.412  10.718  0.7382 -0.3253 -0.2201
39269SOL    HW122263   7.785   6.422  10.765 -0.0776 -2.4575  1.9315
39269SOL    HW222264   7.654   6.492  10.738  1.3478 -0.1527  0.6402
39270SOL     OW22265   3.798   6.189   8.708 -0.3797  0.0629 -0.1073
39270SOL    HW122266   3.759   6.215   8.624 -0.1705 -0.4150 -0.3531
39270SOL    HW222267   3.842   6.106   8.690  0.2594  0.3018  0.3049
39271SOL     OW22268   1.063   1.521   9.049  0.3364 -0.1293  0.2007
39271SOL    HW122269   1.130   1.563   9.102  1.7675 -1.8193 -0.1501
39271SOL    HW222270   0.989   1.510   9.109  0.6562  1.0637  0.8413
39272SOL     OW22271   0.128   6.204   2.275  0.6078  0.2674  0.3814
39272SOL    HW122272   0.156   6.141   2.342  0.4330 -0.8721 -0.5848
39272SOL    HW222273   0.148   6.289   2.313  1.6061 -0.3882  1.4074
39273SOL     OW22274   8.832   1.130   6.613 -0.3662  0.1978  0.1618
39273SOL    HW122275   8.756   1.183   6.590 -1.0940 -1.3526 -1.1774
39273SOL    HW222276   8.803   1.080   6.689 -0.5274 -0.0610 -0.0697
39274SOL     OW22277   4.703   3.873   1.675 -1.2130  0.5843  0.2955
39274SOL    HW122278   4.722   3.963   1.649  0.9856  0.6179  1.7261
39274SOL    HW222279   4.782   3.824   1.653 -1.7136 -0.6275  1.0691
39275SOL     OW22280   5.073   2.745   5.657 -0.6373 -0.6389 -0.3525
39275SOL    HW122281   4.998   2.800   5.633 -2.8808 -2.7956  1.2543
39275SOL    HW222282   5.063   2.668   5.602  0.9921 -0.5821 -0.7560
39276SOL     OW22283   8.643   7.026   1.861  0.5372  0.0965 -0.1164
39276SOL    HW122284   8.553   7.048   1.886  0.2439  0.1171 -1.1076
39276SOL    HW222285   8.637   7.005   1.768  1.4823 -0.3962 -0.0798
39277SOL     OW22286   2.693   4.678   3.825 -0.2553 -0.1713  0.2016
39277SOL    HW122287   2.659   4.767   3.826 -1.7258 -0.6930  1.5424
39277SOL    HW222288   2.778   4.685   3.783 -0.6774  1.7266 -0.4410
39278SOL     OW22289   1.350   2.680   8.054  0.2298 -0.0108 -0.4467
39278SOL    HW122290   1.387   2.681   7.965  0.0490 -0.3392 -0.5267
39278SOL    HW222291   1.279   2.744   8.050  1.0426  0.9296 -0.1779
39279SOL     OW22292   4.826   2.185   8.349 -0.1841 -0.1609  0.1160
39279SOL    HW122293   4.844   2.103   8.396 -2.1139  0.4289  2.0352
39279SOL    HW222294   4.818   2.251   8.418 -1.2142  1.1471 -1.2114
39280SOL     OW22295   9.153  10.543   8.775 -0.6641 -0.0607  0.5509
39280SOL    HW122296   9.119  10.480   8.839 -1.1871 -0.8739 -0.4885
39280SOL    HW222297   9.109  10.625   8.796 -0.9244 -0.3527  1.1599
39281SOL     OW22298   6.046   2.249   7.951 -0.1108  0.0030  0.1093
39281SOL    HW122299   6.094   2.166   7.942  0.1042 -0.0752  1.6839
39281SOL    HW222300   5.957   2.223   7.972 -0.6212  0.1695 -1.6892
39282SOL     OW22301   6.028   4.825   7.195 -0.0845  0.2643 -0.9414
39282SOL    HW122302   5.992   4.905   7.157  1.6489  2.2064  1.2390
39282SOL    HW222303   5.951   4.773   7.219 -1.2815  1.6611 -1.6055
39283SOL     OW22304   4.407   2.389   7.761  0.0698  0.1684 -0.0037
39283SOL    HW122305   4.469   2.322   7.791 -0.9918 -1.0637 -0.4464
39283SOL    HW222306   4.341   2.393   7.829  0.3290  1.0711  0.2015
39284SOL     OW22307   6.461   5.244   8.603  0.4987  0.0333 -0.1554
39284SOL    HW122308   6.491   5.299   8.530 -1.0588  0.6927 -0.3429
39284SOL    HW222309   6.386   5.196   8.567  0.4904 -0.5788  0.6530
39285SOL     OW22310   6.973   2.607   3.265  0.3925 -0.7360 -0.1595
39285SOL    HW122311   7.011   2.523   3.242  1.1440 -0.5079  0.2212
39285SOL    HW222312   6.936   2.640   3.182 -1.3084 -2.1133 -0.0135
39286SOL     OW22313   6.965   6.375   1.903  0.4577 -0.0043  0.2261
39286SOL    HW122314   6.889   6.432   1.887 -0.5851 -1.5973 -0.7342
39286SOL    HW222315   7.040   6.431   1.884 -0.5479  0.8337 -1.6144
39287SOL     OW22316   1.843   6.854   2.415 -0.2248  0.5095 -0.1228
39287SOL    HW122317   1.763   6.901   2.392  0.6115  1.3874 -1.3165
39287SOL    HW222318   1.855   6.790   2.345  1.2892  1.8920 -1.1945
39288SOL     OW22319  10.828   0.757   7.261 -0.4444 -0.3834  0.0501
39288SOL    HW122320  10.833   0.783   7.169 -0.2702 -0.0212  0.1590
39288SOL    HW222321  10.901   0.696   7.272 -2.1705 -2.7333 -0.7593
39289SOL     OW22322   4.702   0.675   7.912  0.1994  0.2573 -0.5629
39289SOL    HW122323   4.704   0.612   7.839  2.6334  2.1317 -2.2980
39289SOL    HW222324   4.789   0.668   7.952 -0.2100  1.0952  0.5139
39290SOL     OW22325   3.249   1.435   4.896  0.9317 -0.0121  0.0447
39290SOL    HW122326   3.226   1.495   4.826  1.3453 -1.0580 -1.0266
39290SOL    HW222327   3.186   1.363   4.889  0.0087  0.5783  1.7416
39291SOL     OW22328   2.987   0.220   3.856 -0.2861 -0.2221  0.3195
39291SOL    HW122329   2.994   0.270   3.774 -0.4591  1.8094  1.4758
39291SOL    HW222330   3.065   0.247   3.906 -1.2048  0.1220  1.6041
39292SOL     OW22331   5.272   4.047   1.199  0.7032 -0.0078  0.3837
39292SOL    HW122332   5.300   3.975   1.143  0.6368  2.2305 -2.8508
39292SOL    HW222333   5.177   4.035   1.208  0.6765 -0.2757 -0.2196
39293SOL     OW22334   3.975   0.953   7.818 -0.2354 -0.4309  0.0788
39293SOL    HW122335   4.023   1.035   7.809  0.6588 -1.0456 -1.1029
39293SOL    HW222336   4.000   0.902   7.741 -1.2639 -1.5631  0.4603
39294SOL     OW22337   4.801   7.194   9.239 -0.4687 -0.1462  1.0525
39294SOL    HW122338   4.817   7.128   9.307 -0.8356  0.7868  2.0761
39294SOL    HW222339   4.721   7.238   9.268 -0.8872 -0.0210 -0.2368
39295SOL     OW22340   4.411   2.016   3.944 -0.0851  0.1357  0.5546
39295SOL    HW122341   4.389   2.102   3.980 -0.9710 -0.1990  0.8361
39295SOL    HW222342   4.355   2.008   3.867  0.2269 -0.0683  0.3465
39296SOL     OW22343  11.014   3.625   7.468 -1.0226  0.2010  0.3107
39296SOL    HW122344  11.016   3.640   7.374 -2.4224 -0.5415  0.1358
39296SOL    HW222345  10.936   3.570   7.482 -1.7188  1.5390  2.0619
39297SOL     OW22346   0.673   2.827   8.270 -0.5422  0.5614  0.0932
39297SOL    HW122347   0.709   2.915   8.283  0.3410  0.3044 -0.4908
39297SOL    HW222348   0.641   2.802   8.357 -1.3428  1.6803  0.1332
39298SOL     OW22349   3.218   7.624   8.748 -0.2681 -0.0503  0.0417
39298SOL    HW122350   3.266   7.585   8.674 -0.9915 -3.8223  1.3423
39298SOL    HW222351   3.153   7.681   8.707  0.4199 -0.7189 -2.1480
39299SOL     OW22352   1.724   6.527   3.177 -0.2094  0.6528 -0.1203
39299SOL    HW122353   1.765   6.596   3.126  1.4414 -0.4757 -0.4145
39299SOL    HW222354   1.796   6.468   3.199 -1.7356 -1.6893 -1.0351
39300SOL     OW22355   3.656   4.664   7.607 -0.1586 -0.4346  0.2462
39300SOL    HW122356   3.715   4.589   7.614  1.1427  0.4630 -0.5720
39300SOL    HW222357   3.653   4.701   7.695  2.0410  0.5893 -0.0485
39301SOL     OW22358   9.973  10.906   2.556  0.1275 -0.2414 -0.3010
39301SOL    HW122359   9.970  10.895   2.651  0.0359  1.1596 -0.1190
39301SOL    HW222360   9.884  10.887   2.526 -0.2284  0.7517  0.0863
39302SOL     OW22361   6.698   6.671   0.702  0.1937 -0.4017 -0.1603
39302SOL    HW122362   6.699   6.607   0.772  1.0468 -0.5556 -0.3035
39302SOL    HW222363   6.736   6.750   0.741 -0.8033  0.0233  0.0016
39303SOL     OW22364   1.048   7.757   1.920 -0.0049 -0.2527  0.4781
39303SOL    HW122365   1.064   7.755   1.825 -1.9370  2.1880 -0.0106
39303SOL    HW222366   1.102   7.830   1.951 -0.6368  0.0167  0.9613
39304SOL     OW22367   0.751   5.514   6.018 -0.0959  0.2171  0.0716
39304SOL    HW122368   0.784   5.466   5.942  0.3607 -0.2029  0.5280
39304SOL    HW222369   0.829   5.533   6.070 -0.1508  2.1320 -0.4569
39305SOL     OW22370  10.571   8.453   6.934  0.5585 -0.3132  0.1959
39305SOL    HW122371  10.634   8.501   6.880 -0.3414  0.3060 -0.3405
39305SOL    HW222372  10.524   8.397   6.872 -0.0302 -0.0897  0.4271
39306SOL     OW22373   9.342   6.006   0.897 -0.2928  0.0554 -0.1252
39306SOL    HW122374   9.313   6.096   0.907  0.7712  0.5275 -1.1124
39306SOL    HW222375   9.406   5.993   0.967 -0.2784  0.1349 -0.1242
39307SOL     OW22376   4.252   2.255   9.272  0.3190 -0.0427 -0.6065
39307SOL    HW122377   4.295   2.292   9.195 -0.6729  2.2689 -0.1416
39307SOL    HW222378   4.164   2.235   9.242  0.0236  0.5809 -0.1798
39308SOL     OW22379   7.399  10.784   1.808  0.1358 -0.0554  0.0470
39308SOL    HW122380   7.438  10.834   1.880  0.8400 -0.4675 -0.0405
39308SOL    HW222381   7.411  10.839   1.731 -1.5210  0.8428  0.3896
39309SOL     OW22382   4.697   5.269   0.295 -0.2133  0.1070  0.2071
39309SOL    HW122383   4.723   5.338   0.356 -1.7403  0.2692  0.6988
39309SOL    HW222384   4.607   5.247   0.320  0.4004 -2.4806  0.4481
39310SOL     OW22385  10.642   7.688   5.466 -0.4548 -0.3831 -0.4419
39310SOL    HW122386  10.569   7.737   5.503  0.0372 -0.9768  1.4167
39310SOL    HW222387  10.697   7.754   5.424 -1.1785  0.2942 -0.3335
39311SOL     OW22388   9.817   3.444  10.078 -0.0277  0.4124  0.2636
39311SOL    HW122389   9.758   3.458  10.152 -1.0866  0.2506 -0.5297
39311SOL    HW222390   9.762   3.452  10.001  0.3459 -2.4835 -0.4483
39312SOL     OW22391   6.570   4.378   6.727  0.0949 -0.5195 -0.2140
39312SOL    HW122392   6.523   4.302   6.760  0.5907 -0.2460  1.1681
39312SOL    HW222393   6.660   4.365   6.756  0.1012  0.8042  0.4075
39313SOL     OW22394   4.597   9.148   8.814 -0.0381 -0.1329  0.0143
39313SOL    HW122395   4.543   9.072   8.834  1.7524 -1.4673  0.0614
39313SOL    HW222396   4.629   9.132   8.726  1.7900 -0.3684  0.6835
39314SOL     OW22397   9.273   6.014   6.073 -0.0345 -0.5080 -0.1106
39314SOL    HW122398   9.222   5.959   6.014 -0.1744 -2.5544  1.8044
39314SOL    HW222399   9.333   5.954   6.116  0.9794  1.1375  0.8542
39315SOL     OW22400   6.893   4.829  10.319  0.1324 -0.3603  0.6628
39315SOL    HW122401   6.803   4.819  10.286  0.8633  0.2945 -1.7657
39315SOL    HW222402   6.889   4.907  10.375 -0.5166  0.7843 -0.8819
39316SOL     OW22403   6.347   6.973   8.219 -0.3509  0.6146 -0.0665
39316SOL    HW122404   6.351   6.878   8.209 -0.6084  0.6582 -0.5691
39316SOL    HW222405   6.327   7.006   8.132 -1.8097  1.0384  0.4086
39317SOL     OW22406   0.574   5.851   0.069 -0.0472  0.1543 -0.2535
39317SOL    HW122407   0.548   5.790   0.000 -2.6422  0.3198  0.4605
39317SOL    HW222408   0.512   5.924   0.061  0.7815  1.0561  1.0959
39318SOL     OW22409   7.546   3.363   5.348  0.0216 -0.2414 -0.2028
39318SOL    HW122410   7.600   3.427   5.394  0.2302  0.2640 -1.1174
39318SOL    HW222411   7.603   3.287   5.339  0.2334 -0.0781 -0.2620
39319SOL     OW22412   2.001   1.499   0.163  0.5336  0.3085  0.1357
39319SOL    HW122413   1.957   1.581   0.186 -1.4266 -1.0241  1.4964
39319SOL    HW222414   2.074   1.492   0.224  0.5144  0.9037  0.2237
39320SOL     OW22415  10.210   4.459  10.537 -0.0961  0.2436 -0.1462
39320SOL    HW122416  10.252   4.462  10.623 -0.1133  1.9480 -0.1667
39320SOL    HW222417  10.119   4.436  10.556  0.0529 -0.0815  0.2075
39321SOL     OW22418  10.801   2.660   7.088  0.0100 -0.1691  0.4721
39321SOL    HW122419  10.779   2.619   7.172 -0.5636  0.3917  0.6040
39321SOL    HW222420  10.724   2.713   7.066  0.3730  0.1175 -0.1398
39322SOL     OW22421  10.214   2.457   3.974 -0.8569  0.3334  0.6932
39322SOL    HW122422  10.258   2.484   3.893 -2.6109  0.1591 -0.3747
39322SOL    HW222423  10.269   2.386   4.008 -0.6612 -0.3666 -0.9631
39323SOL     OW22424   6.191   4.497   3.565  0.3207  0.5491  0.0970
39323SOL    HW122425   6.102   4.501   3.530  0.1832  1.2951  0.5037
39323SOL    HW222426   6.183   4.534   3.653  0.6377 -1.3495  0.9657
39324SOL     OW22427   9.683   1.234   9.001 -0.6541  0.0738  0.0675
39324SOL    HW122428   9.779   1.244   9.002 -0.6066 -0.3807  0.2785
39324SOL    HW222429   9.667   1.165   8.936 -0.7078 -1.0773  1.2617
39325SOL     OW22430   4.090   7.150   6.155  0.0863  0.4286  0.3187
39325SOL    HW122431   4.056   7.231   6.117 -1.8851 -0.2872  0.4362
39325SOL    HW222432   4.034   7.134   6.232  1.0899 -0.5172  0.8781
39326SOL     OW22433   7.453   5.323  10.208  0.1362  0.0726 -1.0597
39326SOL    HW122434   7.384   5.319  10.142  0.6704 -2.2893 -1.5775
39326SOL    HW222435   7.534   5.334  10.158  0.4038 -0.2722 -0.7110
39327SOL     OW22436   7.401   8.140   5.764  0.3141 -0.1486  0.5701
39327SOL    HW122437   7.354   8.141   5.847 -2.2805 -1.3084 -0.7604
39327SOL    HW222438   7.443   8.054   5.761 -0.5517 -0.5682  0.2166
39328SOL     OW22439   8.386   0.449   8.564 -0.2922 -0.3640 -0.1943
39328SOL    HW122440   8.309   0.393   8.558  0.3222 -1.6265  2.5798
39328SOL    HW222441   8.359   0.523   8.618  0.4213 -0.8434  0.8505
39329SOL     OW22442  11.001   3.332   6.731 -0.3946 -0.0756  0.0895
39329SOL    HW122443  10.962   3.376   6.655  1.2303 -1.7257 -1.8528
39329SOL    HW222444  11.090   3.367   6.735  0.4765 -2.0765 -0.6462
39330SOL     OW22445   5.160   5.735  10.775  0.3645  0.1156  0.4278
39330SOL    HW122446   5.190   5.657  10.822 -1.8998  0.3197  2.4126
39330SOL    HW222447   5.169   5.806  10.838 -1.2306  0.7201  0.0114
39331SOL     OW22448   8.796   5.549   1.889  0.6493 -0.4236 -0.1933
39331SOL    HW122449   8.787   5.634   1.933 -0.1633 -0.6629  0.1057
39331SOL    HW222450   8.708   5.514   1.886  0.8321 -0.8181 -1.2250
39332SOL     OW22451   6.561   5.097   9.334  0.4606  0.0278 -0.2306
39332SOL    HW122452   6.580   5.113   9.241  1.2145 -1.6328 -0.4028
39332SOL    HW222453   6.466   5.097   9.340  0.4110  0.3974 -0.9573
39333SOL     OW22454  11.052   8.852   8.986  0.2188  0.1937 -0.2828
39333SOL    HW122455  11.124   8.878   8.928  2.0928  2.8031  2.8717
39333SOL    HW222456  11.096   8.810   9.060 -1.5970  0.8356  1.2186
39334SOL     OW22457   0.061  10.694   8.739  0.0316 -0.1017  0.0474
39334SOL    HW122458   0.074  10.782   8.703  1.1393 -0.1393  0.3193
39334SOL    HW222459   0.013  10.709   8.820 -0.7191  0.1534 -0.4329
39335SOL     OW22460   0.831   6.119   6.731  0.8325  0.2604  0.2668
39335SOL    HW122461   0.846   6.101   6.638  1.2469  1.5927  0.0645
39335SOL    HW222462   0.738   6.099   6.744  1.2389 -2.0152  0.0918
39336SOL     OW22463   7.968   0.205   2.766 -0.3609 -0.7906 -0.9780
39336SOL    HW122464   8.019   0.283   2.784 -0.1575 -1.1791  0.1815
39336SOL    HW222465   8.032   0.142   2.732 -0.2385 -0.9586 -0.4417
39337SOL     OW22466   3.459   9.680   8.541 -0.1185  0.1754 -0.0436
39337SOL    HW122467   3.506   9.655   8.621 -0.6178 -3.1174 -0.6130
39337SOL    HW222468   3.371   9.643   8.553 -0.9394  1.6742 -1.1615
39338SOL     OW22469   9.526   1.965  10.526 -0.1050  0.8454 -0.2963
39338SOL    HW122470   9.591   1.962  10.596  1.2484 -2.0935 -1.5196
39338SOL    HW222471   9.538   2.052  10.487  0.1062  1.9834  2.1338
39339SOL     OW22472   6.554  10.298   6.879 -0.3139  0.0502  0.2201
39339SOL    HW122473   6.602  10.247   6.815  0.8263 -0.7361  1.6356
39339SOL    HW222474   6.608  10.376   6.894  0.0173 -0.3329  1.0632
39340SOL     OW22475   3.361   1.103   9.358  0.0039 -0.2331 -0.1071
39340SOL    HW122476   3.380   1.192   9.389  1.6845  0.0996 -1.8666
39340SOL    HW222477   3.285   1.113   9.301  0.3664  0.1617 -0.5342
39341SOL     OW22478   3.849   8.184   0.804  0.1080 -0.3213  0.1747
39341SOL    HW122479   3.832   8.277   0.786  0.3574 -0.0853  1.0609
39341SOL    HW222480   3.862   8.144   0.718 -2.8415 -0.1426 -0.4461
39342SOL     OW22481   1.834   1.445   0.481  0.2208  0.0261  0.3488
39342SOL    HW122482   1.759   1.400   0.442  0.8841 -0.9394  0.1509
39342SOL    HW222483   1.823   1.536   0.456 -0.4878 -0.2319 -0.3072
39343SOL     OW22484   3.827   3.455   1.482 -0.2130 -0.3088 -0.2993
39343SOL    HW122485   3.809   3.453   1.388  1.1571 -1.2424 -0.5680
39343SOL    HW222486   3.770   3.524   1.516  0.8478  1.6405 -2.1904
39344SOL     OW22487  10.252   0.680   9.028  0.7107  0.3984 -0.2382
39344SOL    HW122488  10.206   0.764   9.027  1.0379  0.5923 -1.5444
39344SOL    HW222489  10.304   0.681   8.947  2.1129 -0.3006  0.6193
39345SOL     OW22490   5.378   5.797  10.117 -0.5065  0.5612  0.6106
39345SOL    HW122491   5.442   5.735  10.082  0.3690  2.5742 -1.6724
39345SOL    HW222492   5.318   5.743  10.169  1.1343 -1.8948  0.1413
39346SOL     OW22493   6.009  10.537   5.838 -0.2059 -0.0442 -0.0405
39346SOL    HW122494   6.042  10.447   5.843 -0.4793 -0.0933  2.3511
39346SOL    HW222495   5.926  10.529   5.791  0.2834 -0.8586 -0.8037
39347SOL     OW22496   1.472   8.317   4.837 -0.1417  0.3242  0.3566
39347SOL    HW122497   1.492   8.334   4.929  1.7347 -0.4541  0.1429
39347SOL    HW222498   1.557   8.298   4.797 -0.7737  1.5901 -1.7617
39348SOL     OW22499   6.168   3.936   4.441  0.0340  0.0688 -0.3811
39348SOL    HW122500   6.201   4.013   4.487 -0.8467 -0.4776  1.2152
39348SOL    HW222501   6.104   3.971   4.379  1.9899  0.9239 -2.0566
39349SOL     OW22502   1.098   3.310   6.575  0.2126  0.4233  0.0831
39349SOL    HW122503   1.103   3.216   6.593 -2.5651  0.5813  2.2556
39349SOL    HW222504   1.024   3.319   6.515  0.7722  1.2250 -0.5109
39350SOL     OW22505   0.000   8.306   0.613 -0.0649  0.0306 -0.2219
39350SOL    HW122506  -0.013   8.264   0.528  0.1117 -1.3613  0.4234
39350SOL    HW222507  -0.087   8.336   0.639 -0.1078  0.5314 -0.9173
39351SOL     OW22508   9.020   2.298   5.758  0.0178 -0.0780  0.5788
39351SOL    HW122509   9.055   2.235   5.695 -0.5496  1.8779 -1.8187
39351SOL    HW222510   8.943   2.254   5.795  0.6498 -1.4716  0.3015
39352SOL     OW22511   8.830   0.505   1.110  0.1973 -0.1049 -0.8481
39352SOL    HW122512   8.820   0.414   1.084  0.9817 -0.3683 -0.2747
39352SOL    HW222513   8.914   0.508   1.156 -0.0059  0.8286 -0.5076
39353SOL     OW22514  10.036   6.319   3.475  0.1775  0.3406  0.1527
39353SOL    HW122515  10.026   6.292   3.566 -1.2566  0.3082  0.0015
39353SOL    HW222516   9.996   6.248   3.425  0.7371  0.4738 -0.4992
39354SOL     OW22517   2.391   8.438   1.214 -0.1992  0.1238  0.1792
39354SOL    HW122518   2.406   8.367   1.151 -0.1020  1.2170 -1.0650
39354SOL    HW222519   2.474   8.485   1.218  0.1307 -0.5228  1.9488
39355SOL     OW22520   4.404   1.539   5.642  0.2263  0.1547 -0.5897
39355SOL    HW122521   4.395   1.445   5.652  3.0172 -0.1273  0.1849
39355SOL    HW222522   4.387   1.574   5.730 -0.2308  0.3306 -0.7445
39356SOL     OW22523  11.032   2.594   0.905 -0.3293  0.0734 -0.2632
39356SOL    HW122524  11.043   2.517   0.961  0.5078  1.0354  0.9581
39356SOL    HW222525  10.954   2.575   0.853 -1.1229 -0.8959  1.1966
39357SOL     OW22526   5.264   4.930   1.281  0.6080 -0.4775  0.3794
39357SOL    HW122527   5.194   4.871   1.254  1.6491 -1.3671 -0.4977
39357SOL    HW222528   5.223   4.992   1.341 -0.9914 -0.7506 -0.4021
39358SOL     OW22529  10.625   9.550  10.033 -0.0442 -0.2862  0.4068
39358SOL    HW122530  10.640   9.543  10.127 -0.0718 -0.7607  0.3800
39358SOL    HW222531  10.701   9.506   9.994  0.5636  0.9408  0.1814
39359SOL     OW22532   9.085   6.757   0.341  0.2792  0.1185 -0.6074
39359SOL    HW122533   9.147   6.802   0.398  0.4433 -1.8448  0.8876
39359SOL    HW222534   9.066   6.819   0.271 -0.1223  2.7606  1.6983
39360SOL     OW22535   7.297   4.851   5.501 -1.4434  0.1136  0.6667
39360SOL    HW122536   7.240   4.839   5.424 -0.6050  1.2464 -0.1734
39360SOL    HW222537   7.348   4.929   5.480  1.5220 -1.6760  0.6828
39361SOL     OW22538   9.054   7.595   7.061  0.1939 -0.6751 -0.0293
39361SOL    HW122539   9.001   7.535   7.114  0.7728 -2.0462 -0.9543
39361SOL    HW222540   9.113   7.538   7.012  0.9493  0.6825 -0.7489
39362SOL     OW22541   1.078   0.716   5.115 -0.3445 -0.8267  0.3539
39362SOL    HW122542   1.124   0.636   5.140  3.0986  1.1748  1.0253
39362SOL    HW222543   1.049   0.754   5.198  1.1788  0.2864  0.4184
39363SOL     OW22544   8.223   2.255   9.167 -0.7786 -0.0831 -0.5722
39363SOL    HW122545   8.258   2.332   9.123 -1.9130  0.0605 -1.2803
39363SOL    HW222546   8.196   2.287   9.253 -1.1709  0.3031 -0.8338
39364SOL     OW22547   1.225   7.265   5.402  0.1459 -0.3677 -0.1042
39364SOL    HW122548   1.305   7.284   5.450  0.4502 -1.5290 -0.1329
39364SOL    HW222549   1.246   7.189   5.347 -0.8927 -0.5502 -0.2816
39365SOL     OW22550  10.660   0.583   0.562 -0.0591  0.0917 -0.4753
39365SOL    HW122551  10.714   0.520   0.610 -0.9079 -1.1503 -1.0990
39365SOL    HW222552  10.593   0.530   0.519 -0.7174  1.4121 -1.1535
39366SOL     OW22553   9.116   2.088   8.682 -0.0086 -0.4256 -0.9042
39366SOL    HW122554   9.032   2.134   8.681  1.8831  3.5705 -3.3178
39366SOL    HW222555   9.160   2.122   8.761  0.9730  1.2535 -2.1054
39367SOL     OW22556   5.964   6.855   2.275 -0.1720  0.0113 -0.1560
39367SOL    HW122557   6.049   6.851   2.230 -0.3612 -0.8843 -0.4589
39367SOL    HW222558   5.947   6.948   2.286  0.7057  0.2061 -0.3762
39368SOL     OW22559   1.567   5.577   7.611 -0.1929  0.3422  0.4559
39368SOL    HW122560   1.570   5.529   7.694 -3.0634  1.1975  1.1477
39368SOL    HW222561   1.567   5.508   7.544 -0.1658 -0.4506  1.2495
39369SOL     OW22562   9.599   7.341   8.337  0.2306 -0.6996 -0.6681
39369SOL    HW122563   9.610   7.404   8.266 -0.2508  0.3728  0.1823
39369SOL    HW222564   9.504   7.332   8.347  0.2951 -1.5189 -0.7445
39370SOL     OW22565   6.730   8.746   0.631 -0.0092 -0.3573  0.2568
39370SOL    HW122566   6.666   8.740   0.702  0.2563  0.0447  0.5335
39370SOL    HW222567   6.779   8.664   0.636 -0.0480 -0.3666  0.4850
39371SOL     OW22568   4.952   9.576   1.333 -0.4358 -0.4573 -0.3477
39371SOL    HW122569   4.940   9.484   1.356 -1.4802  0.1732  1.8713
39371SOL    HW222570   4.864   9.611   1.328 -0.0153  0.6892  0.0454
39372SOL     OW22571   5.962   4.588  10.061 -0.1249  0.0386 -0.2158
39372SOL    HW122572   6.027   4.533  10.106 -1.7652 -0.2129  2.0046
39372SOL    HW222573   6.012   4.663  10.029  1.4005 -0.5226  0.7368
39373SOL     OW22574  10.127   9.585   2.139 -0.5874  0.5460 -0.0096
39373SOL    HW122575  10.150   9.677   2.154 -2.7262  0.9585  0.9804
39373SOL    HW222576  10.079   9.586   2.056 -1.2461  0.4462  0.3661
39374SOL     OW22577   6.695   8.870   1.224 -0.1702  0.8683 -0.3069
39374SOL    HW122578   6.759   8.923   1.273 -0.6276  0.5029  0.7033
39374SOL    HW222579   6.636   8.836   1.291  0.6142 -1.6682 -0.7783
39375SOL     OW22580   5.958   7.119   2.172  0.0410 -0.0889  0.3793
39375SOL    HW122581   5.893   7.113   2.102  0.0231  0.8417  0.3035
39375SOL    HW222582   5.944   7.204   2.211  0.7778 -0.1492  0.8042
39376SOL     OW22583   0.916   9.284   9.788 -0.1323 -0.0407  0.5630
39376SOL    HW122584   0.859   9.276   9.864 -1.4551 -0.9353 -0.4729
39376SOL    HW222585   0.878   9.224   9.723  2.2246 -0.9846 -0.0484
39377SOL     OW22586   7.624   8.507   3.837  0.4131 -0.3683  0.5622
39377SOL    HW122587   7.614   8.421   3.877 -0.2644 -0.1435  0.8855
39377SOL    HW222588   7.714   8.533   3.858 -0.1844  0.1461  2.7800
39378SOL     OW22589   1.896   8.229   6.174  0.7758  0.1769  0.2196
39378SOL    HW122590   1.874   8.227   6.267 -0.3665  1.8097  0.0301
39378SOL    HW222591   1.883   8.321   6.148 -2.5794 -0.8178 -2.3418
39379SOL     OW22592   6.132   1.931   2.639  0.6556  0.2506 -0.3191
39379SOL    HW122593   6.069   1.859   2.645  0.4477  0.3275 -1.3646
39379SOL    HW222594   6.193   1.916   2.712 -1.5658  1.1677  1.8658
39380SOL     OW22595   4.509   6.810   9.603 -0.4189 -0.0160 -0.2977
39380SOL    HW122596   4.572   6.823   9.673 -0.4080 -0.1386 -0.2846
39380SOL    HW222597   4.448   6.883   9.612  0.8445  1.2647 -1.5331
39381SOL     OW22598   0.855   4.275   4.012 -0.5237  0.0129 -0.3705
39381SOL    HW122599   0.914   4.212   4.053  0.5090  0.3317 -1.3150
39381SOL    HW222600   0.877   4.272   3.919 -0.3591  1.8342 -0.4275
39382SOL     OW22601  10.238   9.920   3.539  0.5713 -0.0412  0.6494
39382SOL    HW122602  10.309   9.977   3.567  0.5135  1.4373 -1.9206
39382SOL    HW222603  10.164   9.947   3.594  2.0212 -2.2489  4.0395
39383SOL     OW22604   9.037   5.358   6.138 -0.0385 -0.2337  0.1312
39383SOL    HW122605   8.946   5.385   6.142  0.2880  0.8136  1.2249
39383SOL    HW222606   9.066   5.384   6.050 -0.7544 -0.4282 -0.1595
39384SOL     OW22607   6.972   1.896   1.840  0.1349 -0.1489  0.4390
39384SOL    HW122608   6.897   1.861   1.888  0.0553 -1.0218 -0.2849
39384SOL    HW222609   7.043   1.834   1.857 -0.5429 -1.9490 -2.4872
39385SOL     OW22610   6.832   3.368   1.525  0.3421  0.7067 -0.2474
39385SOL    HW122611   6.823   3.319   1.607 -0.4513  1.3190  0.0477
39385SOL    HW222612   6.775   3.322   1.463  0.5512  0.5421 -0.3202
39386SOL     OW22613  10.869   1.025   3.648 -0.1190  0.4142  0.1568
39386SOL    HW122614  10.914   0.995   3.569  1.2703  0.3944  0.9183
39386SOL    HW222615  10.829   0.946   3.685 -1.4037  0.5500 -0.8955
39387SOL     OW22616   8.743   1.106   1.144  0.0316  0.3825 -0.2181
39387SOL    HW122617   8.817   1.087   1.201 -0.2709  0.9613  0.3693
39387SOL    HW222618   8.737   1.029   1.087 -0.5999 -0.9029  1.5160
39388SOL     OW22619   1.933   4.464   5.568  0.1348 -0.0079  0.0410
39388SOL    HW122620   1.969   4.492   5.483  0.9539 -0.1536  0.3264
39388SOL    HW222621   2.006   4.417   5.609 -0.7117 -1.2054  0.2164
39389SOL     OW22622   4.516   0.162   2.356 -0.1721 -0.2785  0.0174
39389SOL    HW122623   4.499   0.072   2.328  1.0895 -0.3640 -0.5415
39389SOL    HW222624   4.466   0.216   2.295 -0.8234 -0.5869  0.2688
39390SOL     OW22625   9.986   5.143   2.777  0.8893  0.2248 -0.0818
39390SOL    HW122626  10.025   5.132   2.864 -3.3669  0.9983  2.1928
39390SOL    HW222627   9.979   5.054   2.743  2.9121 -0.0629  0.1219
39391SOL     OW22628   7.342  10.461   3.220  0.3170 -0.3908 -0.0800
39391SOL    HW122629   7.352  10.484   3.128 -0.5412 -0.5172 -0.2078
39391SOL    HW222630   7.339  10.546   3.265  1.1884 -0.3317 -0.1044
39392SOL     OW22631   2.702   4.844   8.228 -0.0790 -0.4329  0.0396
39392SOL    HW122632   2.731   4.859   8.138  0.7724 -1.2087  0.1760
39392SOL    HW222633   2.675   4.752   8.229  1.3599 -0.8777  0.9363
39393SOL     OW22634  10.277   8.410   2.203 -0.6951  0.0920 -0.1184
39393SOL    HW122635  10.216   8.374   2.139 -1.3287  1.1165 -0.1076
39393SOL    HW222636  10.224   8.469   2.257  0.4219  1.5003 -0.4989
39394SOL     OW22637   2.685   8.899   2.032 -0.2470 -0.1265 -0.2379
39394SOL    HW122638   2.599   8.880   2.071  1.1220  0.1106  3.2895
39394SOL    HW222639   2.696   8.994   2.044  0.3255 -0.0762 -1.1039
39395SOL     OW22640   4.709  10.917   0.576 -0.1530  0.7049 -0.3178
39395SOL    HW122641   4.717  10.972   0.499  0.4743 -1.3713 -1.8246
39395SOL    HW222642   4.799  10.901   0.604 -0.2628 -0.2623 -0.4689
39396SOL     OW22643   8.122  10.319   9.412  0.2131 -0.3445  0.4749
39396SOL    HW122644   8.130  10.382   9.483 -0.8153 -0.0621  0.3534
39396SOL    HW222645   8.147  10.236   9.451 -0.0162 -0.1360  1.0788
39397SOL     OW22646   8.833   6.799   0.039 -0.0931  0.1566 -0.3015
39397SOL    HW122647   8.824   6.744   0.116  0.3695 -0.0906 -0.4208
39397SOL    HW222648   8.901   6.862   0.062  0.0721  0.0610 -0.5178
39398SOL     OW22649   7.240   7.381   3.512  0.3546  0.5979  0.0244
39398SOL    HW122650   7.193   7.412   3.589  2.2209 -0.4061  1.6724
39398SOL    HW222651   7.289   7.458   3.481  2.0112  0.3298  1.7900
39399SOL     OW22652   2.968   9.301   5.034 -0.3035 -0.1797  0.1790
39399SOL    HW122653   2.918   9.327   4.956 -3.2245 -1.0554  1.6265
39399SOL    HW222654   2.922   9.225   5.069  1.4047 -0.3490  2.3043
39400SOL     OW22655   8.360   0.373   2.197 -0.0457 -0.2584 -0.3733
39400SOL    HW122656   8.420   0.447   2.185 -0.9444  0.5575  0.0766
39400SOL    HW222657   8.294   0.404   2.258 -0.3630 -1.4947 -0.0497
39401SOL     OW22658   0.154   1.571   6.019  0.0203  0.3477  0.2608
39401SOL    HW122659   0.097   1.499   6.046  0.3458  0.4714  1.3509
39401SOL    HW222660   0.205   1.536   5.946 -1.2715  0.1588 -0.5918
39402SOL     OW22661   9.386   7.739   6.341 -0.0887  0.3664 -0.1015
39402SOL    HW122662   9.317   7.673   6.345  0.4145 -0.1292  3.2294
39402SOL    HW222663   9.364   7.801   6.411  0.2651  2.9916 -2.1621
39403SOL     OW22664   9.152   5.651   1.117 -0.2432  0.1095  0.0603
39403SOL    HW122665   9.150   5.567   1.162 -1.9160  0.3443  0.5056
39403SOL    HW222666   9.197   5.710   1.177 -1.8159  0.2488  1.1762
39404SOL     OW22667   9.656   8.946   5.825 -0.0940 -1.1033  0.1327
39404SOL    HW122668   9.737   8.975   5.866 -1.3884  0.8172  1.5205
39404SOL    HW222669   9.640   9.010   5.755 -1.0501 -0.6623  0.7299
39405SOL     OW22670   4.548   3.663   1.577 -0.1703 -0.1332 -0.1724
39405SOL    HW122671   4.605   3.738   1.596  0.0885  0.3305 -2.5272
39405SOL    HW222672   4.577   3.595   1.639  0.0992  1.4243  1.4993
39406SOL     OW22673   5.828  10.117   6.389 -0.2323 -0.1868  0.1530
39406SOL    HW122674   5.889  10.188   6.372  1.0698 -1.6978 -1.9311
39406SOL    HW222675   5.820  10.072   6.306 -1.6595 -2.0101  1.2025
39407SOL     OW22676   6.999   7.293   7.420  0.1382 -0.0035 -0.1506
39407SOL    HW122677   7.068   7.226   7.410  0.5262  0.4910 -0.8344
39407SOL    HW222678   7.038   7.358   7.478 -0.6333 -0.8781  1.3989
39408SOL     OW22679  10.528   3.872  10.912 -0.3754  1.0037 -0.1910
39408SOL    HW122680  10.460   3.879  10.845  0.4118  2.8364 -0.8948
39408SOL    HW222681  10.603   3.834  10.865 -0.8459 -0.9671  0.5677
39409SOL     OW22682   4.697   2.274   6.035 -0.1085  0.3890 -0.1642
39409SOL    HW122683   4.775   2.329   6.035  1.0346 -1.1649 -0.5954
39409SOL    HW222684   4.640   2.314   6.100  1.8765  0.4199  1.6601
39410SOL     OW22685   5.054   1.208   9.554  0.1353 -0.3994 -0.0637
39410SOL    HW122686   5.031   1.260   9.631  2.7887 -2.3549  2.2159
39410SOL    HW222687   5.124   1.257   9.512 -1.0452  0.4652 -1.1285
39411SOL     OW22688  10.295   9.942   2.571 -0.0705  0.1650 -0.1149
39411SOL    HW122689  10.324  10.032   2.563 -0.6058  0.5563  1.9342
39411SOL    HW222690  10.205   9.943   2.540 -0.5172  0.6428  1.1305
39412SOL     OW22691   8.516   4.263   6.419  0.2744 -0.2400 -0.2469
39412SOL    HW122692   8.519   4.312   6.502  2.2969  3.8919 -2.4368
39412SOL    HW222693   8.568   4.185   6.436 -2.0280 -1.2569  3.1439
39413SOL     OW22694  10.911   1.219   7.417  0.6155  0.2060 -0.0753
39413SOL    HW122695  10.874   1.294   7.464 -0.2079 -1.5111  2.2464
39413SOL    HW222696  10.845   1.196   7.352 -0.4650 -0.1481  1.0919
39414SOL     OW22697   1.603   8.529   7.523 -0.3822  0.4078  0.5791
39414SOL    HW122698   1.585   8.622   7.507 -0.5383 -0.1760 -3.8887
39414SOL    HW222699   1.526   8.483   7.489  0.7752 -1.4237  0.2666
39415SOL     OW22700   8.013   4.473   6.080  0.0497 -0.3067 -0.3547
39415SOL    HW122701   8.038   4.421   6.004  1.7131  0.0972 -0.1353
39415SOL    HW222702   7.978   4.555   6.044  0.0965 -0.4346 -0.6897
39416SOL     OW22703   5.229   5.005   7.862  0.1472  0.8827  0.3645
39416SOL    HW122704   5.144   5.050   7.864 -1.0142 -1.1603  0.0246
39416SOL    HW222705   5.293   5.076   7.860 -1.5697  2.5313 -1.0724
39417SOL     OW22706   4.656   6.701   7.637  0.0656 -0.2257  0.5947
39417SOL    HW122707   4.730   6.641   7.632  1.2480  1.2168 -0.1846
39417SOL    HW222708   4.596   6.673   7.567  0.7370 -0.3391  0.0567
39418SOL     OW22709   9.068   6.823   7.995  0.1247  0.2369  0.3326
39418SOL    HW122710   9.051   6.729   8.005 -1.4741  0.4477 -0.1906
39418SOL    HW222711   9.137   6.842   8.059  0.0326 -1.1678  0.8825
39419SOL     OW22712   9.348   2.415   9.041 -0.1010 -0.1349  0.3796
39419SOL    HW122713   9.359   2.508   9.022 -0.7013  0.0622  0.9484
39419SOL    HW222714   9.338   2.411   9.136  0.4083 -0.8355  0.4128
39420SOL     OW22715   8.080   7.689  10.439 -0.4939  0.7138  0.3625
39420SOL    HW122716   8.165   7.689  10.394 -0.7060  0.8400 -0.0492
39420SOL    HW222717   8.060   7.782  10.452 -0.2702  0.6676  1.0405
39421SOL     OW22718  10.518   7.607  10.346 -0.1134  0.4986 -0.5167
39421SOL    HW122719  10.539   7.520  10.381 -0.1259 -0.0409 -1.7778
39421SOL    HW222720  10.593   7.628  10.290 -1.8078 -0.5001 -3.3767
39422SOL     OW22721  10.964   8.805   0.293 -0.1596 -0.2342  0.3430
39422SOL    HW122722  10.980   8.877   0.232 -1.2816  0.3115  0.6568
39422SOL    HW222723  10.922   8.737   0.239  0.8856 -0.6614  0.0500
39423SOL     OW22724   3.236   9.617   8.034  0.5422  0.2708  0.4366
39423SOL    HW122725   3.307   9.556   8.056 -0.0250 -0.9185 -0.8450
39423SOL    HW222726   3.258   9.697   8.080  1.9578 -0.5288  1.2274
39424SOL     OW22727   6.921   3.384   9.131  0.4517  0.0855 -0.2067
39424SOL    HW122728   6.982   3.431   9.074 -0.1937 -2.4745 -3.2653
39424SOL    HW222729   6.939   3.292   9.116 -3.1927 -0.7999 -0.2794
39425SOL     OW22730   4.121   4.947   4.085 -0.0492 -0.2197  0.2314
39425SOL    HW122731   4.068   4.881   4.130  0.2330 -0.7489 -0.2001
39425SOL    HW222732   4.205   4.946   4.132  0.0414 -0.3455  0.0652
39426SOL     OW22733   5.809   8.107   9.601  0.2574 -0.0861 -0.5547
39426SOL    HW122734   5.879   8.047   9.625  0.7386  0.6121 -0.1709
39426SOL    HW222735   5.773   8.137   9.685 -0.5238 -0.4581 -0.7460
39427SOL     OW22736   6.282   2.362   9.119  0.0432  0.2785 -0.5316
39427SOL    HW122737   6.294   2.457   9.110  0.3301  0.1554 -1.5669
39427SOL    HW222738   6.369   2.330   9.143  0.0646  0.2224 -0.6828
39428SOL     OW22739   1.959   7.931   4.742 -0.1426  0.3240  0.1641
39428SOL    HW122740   1.910   7.903   4.664  1.5015  0.5348 -0.9879
39428SOL    HW222741   2.007   7.852   4.769  1.5136  0.9780 -0.7789
39429SOL     OW22742   8.729   0.514   5.125  0.9312 -0.1749  0.2316
39429SOL    HW122743   8.738   0.598   5.079 -0.6799 -1.1975 -2.1058
39429SOL    HW222744   8.682   0.536   5.206 -2.3220  0.8595 -1.7592
39430SOL     OW22745   6.140   9.575   8.462 -0.9437 -0.0668  0.2214
39430SOL    HW122746   6.197   9.546   8.390 -1.4325  1.2702 -0.7375
39430SOL    HW222747   6.100   9.494   8.495 -2.9008 -0.5403 -2.8938
39431SOL     OW22748   2.015   8.580   1.530 -0.3275 -0.1100  0.1789
39431SOL    HW122749   2.091   8.545   1.578  0.0854 -0.3683 -0.6372
39431SOL    HW222750   1.939   8.545   1.576  0.0472 -0.0652  0.8522
39432SOL     OW22751   0.703   9.303   3.588  0.3905  0.1631  0.1332
39432SOL    HW122752   0.666   9.369   3.647  1.9982 -0.4069  1.9162
39432SOL    HW222753   0.637   9.234   3.586 -0.5845  1.0814 -0.4120
39433SOL     OW22754  10.945   0.163   2.086 -0.2726  0.7569 -0.0110
39433SOL    HW122755  11.028   0.116   2.082 -1.7945 -2.0878 -0.7880
39433SOL    HW222756  10.909   0.141   2.173 -0.9929  0.4237 -0.3780
39434SOL     OW22757   5.159   5.171   6.703  0.2881  0.0706 -0.5250
39434SOL    HW122758   5.200   5.257   6.715 -1.7641  1.3245 -1.7896
39434SOL    HW222759   5.221   5.123   6.648  1.0266  1.1171 -0.6511
39435SOL     OW22760   5.215  10.185   2.888 -0.0259  0.2360 -0.2916
39435SOL    HW122761   5.144  10.158   2.830  0.6184 -0.5065 -0.7475
39435SOL    HW222762   5.265  10.249   2.837  0.0413  0.2245 -0.2416
39436SOL     OW22763   3.767   7.624   8.690 -0.7466  0.2539  0.1542
39436SOL    HW122764   3.799   7.539   8.662 -0.6452  0.8267 -1.6229
39436SOL    HW222765   3.836   7.658   8.748 -0.2095 -0.3589 -0.1110
39437SOL     OW22766   0.506   5.196   3.169  0.1488 -0.1781 -0.0902
39437SOL    HW122767   0.498   5.204   3.074  0.6015  0.5022 -0.0782
39437SOL    HW222768   0.419   5.218   3.203 -0.0010 -0.3823 -0.3405
39438SOL     OW22769   9.704  10.654   1.293 -0.4224 -0.4484  0.2909
39438SOL    HW122770   9.630  10.707   1.262 -0.8394 -0.4227  1.2984
39438SOL    HW222771   9.752  10.712   1.352 -0.2293 -0.8253  0.5080
39439SOL     OW22772   9.835   7.472   6.515 -0.1714  0.1193 -0.0031
39439SOL    HW122773   9.845   7.523   6.435 -1.4456  1.0882  0.4164
39439SOL    HW222774   9.749   7.499   6.550  0.4743 -0.0552  1.8335
39440SOL     OW22775   2.489   3.398   6.028  0.3409  0.2679 -0.5046
39440SOL    HW122776   2.519   3.321   6.076 -1.0441 -0.1145 -0.2165
39440SOL    HW222777   2.466   3.364   5.941  1.1174  0.6362 -0.8682
39441SOL     OW22778   4.961   5.169   5.225 -0.6771  0.2703  0.1105
39441SOL    HW122779   5.008   5.086   5.215 -1.3457 -0.3219  1.5873
39441SOL    HW222780   4.948   5.178   5.320 -1.6378  1.4897 -0.1093
39442SOL     OW22781  10.083   6.823   5.891 -0.0736 -0.7825 -0.2501
39442SOL    HW122782  10.154   6.887   5.900 -0.9868  0.0983  0.9343
39442SOL    HW222783  10.100   6.781   5.806  0.2888  1.3602 -1.3096
39443SOL     OW22784   8.261   9.769  11.000  0.5855  0.7161 -0.4791
39443SOL    HW122785   8.337   9.827  11.008  1.3891 -0.3881  0.2515
39443SOL    HW222786   8.247   9.735  11.088 -0.1820  0.1920 -0.7885
39444SOL     OW22787   4.004   1.720   6.946  0.8874 -0.2001 -0.2254
39444SOL    HW122788   3.981   1.747   7.035  0.7046 -0.3539 -0.2235
39444SOL    HW222789   4.036   1.630   6.956 -0.5411 -0.7658 -0.4946
39445SOL     OW22790   9.707   3.357   6.376 -0.1826 -0.3666  0.5726
39445SOL    HW122791   9.705   3.415   6.452 -0.9195  0.6464 -0.1857
39445SOL    HW222792   9.748   3.277   6.408  0.6145  0.4644  1.7295
39446SOL     OW22793   5.946  10.621   4.499 -0.1208 -0.2729  0.6713
39446SOL    HW122794   5.851  10.622   4.504 -0.0728  0.3117  1.8760
39446SOL    HW222795   5.968  10.681   4.428 -0.6371 -0.0401  0.7078
39447SOL     OW22796   9.334   0.732   7.542 -0.6681 -0.1566  0.1017
39447SOL    HW122797   9.407   0.781   7.504 -0.0132 -2.3121 -1.6076
39447SOL    HW222798   9.337   0.754   7.635  1.8577  0.2366  0.0111
39448SOL     OW22799   6.385   3.976   0.664 -0.1094  0.1789  0.2013
39448SOL    HW122800   6.308   4.032   0.670 -0.3673 -0.0481 -0.7535
39448SOL    HW222801   6.351   3.888   0.681  0.5291  0.4163  3.0907
39449SOL     OW22802   4.514   4.875   3.659  0.2901  0.6224  0.2835
39449SOL    HW122803   4.575   4.948   3.665 -0.3048  1.0731  1.0516
39449SOL    HW222804   4.552   4.816   3.593  1.5407  0.8837  0.7612
39450SOL     OW22805   8.296   2.356   2.517 -0.8169  0.3985 -0.6083
39450SOL    HW122806   8.280   2.450   2.521  2.8062  1.1310 -0.4931
39450SOL    HW222807   8.294   2.328   2.609  0.4706  0.8786 -0.4171
39451SOL     OW22808   4.976   7.924   9.111  0.1987  0.2390  0.5074
39451SOL    HW122809   4.967   7.852   9.173 -2.0511  0.1606  0.1702
39451SOL    HW222810   5.039   7.892   9.046  1.2714 -0.3410  1.7801
39452SOL     OW22811   0.547   1.504   8.640  0.2101 -1.0715  0.1844
39452SOL    HW122812   0.559   1.427   8.696  0.6393  0.0618  1.6869
39452SOL    HW222813   0.456   1.496   8.610 -0.7481 -0.6688  2.7267
39453SOL     OW22814   5.727   2.128   0.641 -0.3728 -0.2655 -0.1157
39453SOL    HW122815   5.771   2.080   0.711  2.4715  0.6437 -1.1133
39453SOL    HW222816   5.677   2.195   0.686  2.6635  1.3522  1.1592
39454SOL     OW22817   6.386   3.759   6.139 -0.0747 -0.7203 -0.3051
39454SOL    HW122818   6.347   3.843   6.114  0.7451 -0.9183 -2.5234
39454SOL    HW222819   6.469   3.757   6.092  1.1713 -1.6552  1.8214
39455SOL     OW22820   1.514   4.861   6.947 -0.7437 -0.2764 -0.6438
39455SOL    HW122821   1.545   4.944   6.911 -0.4510  0.0718  0.3597
39455SOL    HW222822   1.432   4.843   6.901 -1.1631  0.9234 -0.4068
39456SOL     OW22823   5.412   6.402   6.495  0.7231  0.2874 -0.0041
39456SOL    HW122824   5.462   6.337   6.544  0.1784  0.7638  1.2249
39456SOL    HW222825   5.410   6.479   6.551  1.1622  1.3120 -1.3393
39457SOL     OW22826   9.942   8.317   3.072  0.2000  0.1521  0.2136
39457SOL    HW122827   9.973   8.281   2.989 -0.7787  1.7492 -0.8997
39457SOL    HW222828  10.017   8.309   3.131  0.5435 -2.1299 -0.4154
39458SOL     OW22829   3.594   4.037   7.368  0.4932  0.1735 -0.0908
39458SOL    HW122830   3.666   4.009   7.426  1.0538  1.0035 -0.3700
39458SOL    HW222831   3.516   4.028   7.422  0.3727 -3.2983 -0.5620
39459SOL     OW22832   7.010   2.395  10.752 -0.7736 -0.6459  0.1063
39459SOL    HW122833   6.951   2.375  10.825 -0.5543  0.3336  0.5620
39459SOL    HW222834   6.955   2.389  10.674 -1.5236  0.3637  0.5340
39460SOL     OW22835   6.253   8.036   1.149  0.0327 -0.4085 -0.2717
39460SOL    HW122836   6.205   8.092   1.210 -1.8560 -0.9451 -1.2044
39460SOL    HW222837   6.198   8.032   1.071  0.8558 -2.3033 -0.8173
39461SOL     OW22838   6.701   7.896   0.427  0.0534 -0.3576  0.0714
39461SOL    HW122839   6.617   7.851   0.433 -0.0958  0.0960  2.4697
39461SOL    HW222840   6.681   7.987   0.448  1.0400 -0.0884 -0.0930
39462SOL     OW22841  10.410   3.734   2.402  0.0694 -0.0837  0.2288
39462SOL    HW122842  10.350   3.807   2.391  1.9477  1.4618 -0.1530
39462SOL    HW222843  10.488   3.772   2.440  1.1870 -1.8693 -0.1592
39463SOL     OW22844   2.987   2.539  10.887 -0.1631  0.2464  0.0609
39463SOL    HW122845   3.009   2.467  10.946  2.0149  1.9110  1.4681
39463SOL    HW222846   3.065   2.595  10.887 -1.6743  2.5341 -1.0565
39464SOL     OW22847   5.680  10.293   0.885  0.5890  0.1847 -0.3542
39464SOL    HW122848   5.704  10.204   0.860 -0.5894 -0.2070 -0.1771
39464SOL    HW222849   5.612  10.318   0.823  0.1668  0.5594  0.2468
39465SOL     OW22850  10.819   1.275   3.497 -0.1438  0.0403  0.1769
39465SOL    HW122851  10.727   1.284   3.474 -0.7042 -0.1682  2.1989
39465SOL    HW222852  10.825   1.190   3.541  0.8042  0.5291  1.0302
39466SOL     OW22853   5.072   5.825   3.695  0.1793 -0.1999 -0.7837
39466SOL    HW122854   5.040   5.845   3.783 -0.5008 -1.1571 -0.7992
39466SOL    HW222855   5.069   5.908   3.649 -1.1006 -0.0072 -0.3982
39467SOL     OW22856   8.994   2.826   9.232 -0.0544  0.8070 -0.4080
39467SOL    HW122857   9.023   2.768   9.302 -1.2162  1.2872  0.5134
39467SOL    HW222858   9.048   2.802   9.156  0.8959 -0.0491  0.5132
39468SOL     OW22859   5.644   0.771   4.798  0.0605 -0.1595  0.1207
39468SOL    HW122860   5.663   0.807   4.711 -1.3978 -1.2417 -0.6979
39468SOL    HW222861   5.640   0.847   4.855  1.2295  0.5613 -0.7168
39469SOL     OW22862   4.275   1.007   9.463  0.4264 -0.3997  0.7249
39469SOL    HW122863   4.183   1.007   9.491  0.4787 -2.2003  1.0054
39469SOL    HW222864   4.323   0.970   9.536  1.4777  0.9550  0.7619
39470SOL     OW22865  10.960   5.119   4.967 -0.4956 -0.2221  0.0011
39470SOL    HW122866  10.882   5.146   4.918  0.1362 -1.0693 -1.5430
39470SOL    HW222867  10.926   5.090   5.052 -1.9142 -0.7963 -0.7232
39471SOL     OW22868   9.180   5.231   1.112 -0.1025  0.0514 -0.0914
39471SOL    HW122869   9.107   5.254   1.055 -1.5115  0.9637  1.9335
39471SOL    HW222870   9.238   5.178   1.058 -1.9029 -0.0904 -1.9945
39472SOL     OW22871   1.649   9.223   1.549  0.3696  0.4024 -0.1206
39472SOL    HW122872   1.567   9.189   1.583  0.4513  1.5828  1.3697
39472SOL    HW222873   1.644   9.318   1.563  0.3567  1.0713 -3.6173
39473SOL     OW22874   0.468   3.904   8.580  0.4538  0.2626  0.3877
39473SOL    HW122875   0.553   3.949   8.577  0.4752  0.1850 -0.1605
39473SOL    HW222876   0.439   3.915   8.671  0.8423  0.6734  0.4660
39474SOL     OW22877   2.996   4.099   1.561  0.1689  0.4329  0.2593
39474SOL    HW122878   2.989   4.007   1.535 -1.8186  0.2622  1.2325
39474SOL    HW222879   3.066   4.099   1.627  0.8886 -0.1728 -0.4755
39475SOL     OW22880   0.559   5.354   5.555 -0.1487  0.4619 -0.0619
39475SOL    HW122881   0.589   5.349   5.464  1.1086 -3.6229  0.3601
39475SOL    HW222882   0.639   5.356   5.607 -0.7294 -0.9371  0.9639
39476SOL     OW22883   2.372   4.281   5.140  0.8050  0.0745 -0.4960
39476SOL    HW122884   2.328   4.363   5.121 -0.1458 -0.5821 -1.2044
39476SOL    HW222885   2.369   4.273   5.235 -2.6945 -1.0184 -0.5686
39477SOL     OW22886   0.121   5.392  10.343 -0.2438 -0.1302 -0.4375
39477SOL    HW122887   0.116   5.484  10.370 -1.9912 -0.7016  1.4724
39477SOL    HW222888   0.141   5.345  10.424  1.5837 -1.4053 -1.5590
39478SOL     OW22889   1.168   1.271   8.845 -0.0712 -0.4708 -0.3615
39478SOL    HW122890   1.134   1.186   8.872 -0.8548 -0.1887 -0.4303
39478SOL    HW222891   1.114   1.335   8.892  2.0590  0.0023  1.5994
39479SOL     OW22892   5.147   1.365  10.373  0.1597 -0.2653  0.1332
39479SOL    HW122893   5.179   1.299  10.435  2.0154 -0.0776 -0.5488
39479SOL    HW222894   5.062   1.391  10.407  0.1266 -1.8184  1.3252
39480SOL     OW22895   1.254   5.915   8.081 -0.2257 -0.1741  0.3579
39480SOL    HW122896   1.256   5.842   8.143 -0.0041 -1.4003 -1.0310
39480SOL    HW222897   1.344   5.946   8.077 -0.0196 -0.8278 -0.1713
39481SOL     OW22898   2.650   6.931   2.895 -0.2964  0.1177  0.2837
39481SOL    HW122899   2.701   6.850   2.905 -1.3861 -0.4152  2.2512
39481SOL    HW222900   2.695   6.980   2.827  0.7887 -1.8633 -0.5132
39482SOL     OW22901   5.658   3.057   4.341  0.0645  0.2246  0.1247
39482SOL    HW122902   5.709   3.028   4.265  1.4321  0.8785  0.7768
39482SOL    HW222903   5.603   3.128   4.308  0.5132  0.3763 -0.2998
39483SOL     OW22904   2.365   0.735  10.910 -0.2371  0.5663 -1.0196
39483SOL    HW122905   2.313   0.773  10.839 -0.6072 -0.1017 -1.1101
39483SOL    HW222906   2.447   0.784  10.908 -0.9323  1.7756 -0.7433
39484SOL     OW22907   8.467   2.484   6.087  0.7244 -0.4308 -0.5199
39484SOL    HW122908   8.516   2.439   6.156  0.7634 -0.9327 -0.8690
39484SOL    HW222909   8.421   2.414   6.041  0.1294 -0.0230 -0.5558
39485SOL     OW22910   2.502   8.004   9.518 -0.2965 -0.0630 -0.1221
39485SOL    HW122911   2.418   7.970   9.487 -0.4998  0.5987 -0.3167
39485SOL    HW222912   2.521   8.077   9.459  0.9421 -0.8583 -0.7722
39486SOL     OW22913   2.402   1.418  10.602  0.1572  0.5613 -0.5656
39486SOL    HW122914   2.382   1.460  10.519 -1.8203  0.5176 -0.1628
39486SOL    HW222915   2.442   1.487  10.655 -0.3105  1.1092 -0.9191
39487SOL     OW22916   7.606   5.975   4.992  0.0557 -0.4578 -0.1785
39487SOL    HW122917   7.566   5.985   5.079  0.4829 -0.1836 -0.0152
39487SOL    HW222918   7.575   6.051   4.943 -1.7082 -1.5356 -0.8730
39488SOL     OW22919   2.654  10.133   9.720  0.2896  0.0870  0.3827
39488SOL    HW122920   2.652  10.041   9.746  0.7480  0.0490  0.2865
39488SOL    HW222921   2.746  10.160   9.730  0.6536 -0.1333 -1.8472
39489SOL     OW22922   3.864   8.659   9.748  0.0923  0.2976  0.5459
39489SOL    HW122923   3.913   8.739   9.764 -0.2340  0.3856  1.1328
39489SOL    HW222924   3.925   8.588   9.768  0.9291  0.3560 -1.5735
39490SOL     OW22925   8.681   3.906   8.410  0.1501  0.8741  0.5115
39490SOL    HW122926   8.653   3.990   8.374 -0.7926 -0.7391 -2.9672
39490SOL    HW222927   8.621   3.889   8.482 -1.5301  1.9204 -0.5817
39491SOL     OW22928   7.671   3.374   0.407  0.3855  0.7575 -0.2471
39491SOL    HW122929   7.683   3.457   0.361 -0.4546  1.2475  0.3783
39491SOL    HW222930   7.749   3.323   0.386  0.6316  1.4757 -1.1235
39492SOL     OW22931   2.369   4.046   5.713 -0.2903  0.5094 -0.6950
39492SOL    HW122932   2.413   3.968   5.746 -1.7663 -0.3799 -0.7268
39492SOL    HW222933   2.362   4.104   5.788 -2.3145 -0.8878  0.2845
39493SOL     OW22934   3.925   1.347   8.215 -0.3027  0.3630  0.1594
39493SOL    HW122935   3.979   1.343   8.294  0.2036  0.0559 -0.1990
39493SOL    HW222936   3.941   1.265   8.170 -0.1228  0.7814 -0.5635
39494SOL     OW22937   3.497  10.801   0.717  0.6069  0.1708 -0.6223
39494SOL    HW122938   3.510  10.865   0.647 -0.2847  1.1726  0.1040
39494SOL    HW222939   3.584  10.791   0.756  0.8291  0.6654 -0.9708
39495SOL     OW22940   1.641   0.282   9.485 -0.0854 -0.0415  0.1943
39495SOL    HW122941   1.619   0.210   9.544 -0.0809 -0.2859 -0.0997
39495SOL    HW222942   1.580   0.353   9.509  2.3186  1.2429  3.0250
39496SOL     OW22943   2.492   6.912   7.414  0.5511  0.6896 -0.1310
39496SOL    HW122944   2.535   6.832   7.445  1.9410  1.4803  0.0242
39496SOL    HW222945   2.465   6.957   7.494  0.2124  0.6174 -0.2034
39497SOL     OW22946  10.002   2.008   0.709  0.3716 -0.0780 -0.2558
39497SOL    HW122947   9.975   1.999   0.800  0.1740 -0.0841 -0.3153
39497SOL    HW222948   9.990   2.101   0.689  1.4169  0.1411  0.0422
39498SOL     OW22949   1.115  10.415   9.554  0.2966  0.2499  0.2815
39498SOL    HW122950   1.075  10.430   9.640 -0.2203  0.3167  0.0311
39498SOL    HW222951   1.118  10.501   9.513  1.3478  0.3694  0.5665
39499SOL     OW22952   6.809   8.160   4.133 -0.3266  0.2509 -0.0488
39499SOL    HW122953   6.721   8.126   4.148 -0.2497 -1.6074 -2.9252
39499SOL    HW222954   6.801   8.254   4.144 -3.2030  0.3718 -2.0289
39500SOL     OW22955   3.385   3.275   1.121 -0.1357  0.1997 -0.1585
39500SOL    HW122956   3.305   3.236   1.157 -0.5599  0.1964 -1.0725
39500SOL    HW222957   3.446   3.201   1.114  0.3999  0.4199  1.6884
39501SOL     OW22958   6.710   5.040   7.319 -0.1094 -0.7263  0.1881
39501SOL    HW122959   6.801   5.036   7.288 -0.0032 -1.9588  0.6357
39501SOL    HW222960   6.671   4.957   7.291 -0.9455 -0.4415  0.4808
39502SOL     OW22961   0.533   2.265   1.838 -0.3769 -0.1735 -0.3086
39502SOL    HW122962   0.474   2.335   1.869 -0.5127 -0.0868 -0.7456
39502SOL    HW222963   0.618   2.308   1.830 -0.2755 -0.2751  0.2365
39503SOL     OW22964   4.144   2.662   4.321 -0.4618 -0.0897  0.2685
39503SOL    HW122965   4.194   2.607   4.381  0.3508  0.1451 -0.1829
39503SOL    HW222966   4.135   2.746   4.367  2.7850  1.1584 -1.0568
39504SOL     OW22967   1.050   0.785   0.777 -0.6469 -0.1384 -0.1081
39504SOL    HW122968   1.020   0.704   0.735  0.6462 -0.3853 -0.5843
39504SOL    HW222969   1.112   0.823   0.715 -1.3309  1.3011  0.0474
39505SOL     OW22970   0.816   4.842   0.541 -0.0378  0.1501  0.2815
39505SOL    HW122971   0.802   4.859   0.634  0.1247 -1.1190  0.5589
39505SOL    HW222972   0.727   4.839   0.504 -0.0611  1.8049  0.1559
39506SOL     OW22973   2.843   9.391   7.058  0.2798 -0.0894  0.5344
39506SOL    HW122974   2.773   9.444   7.095 -0.6186 -0.9378  0.0723
39506SOL    HW222975   2.815   9.374   6.968  0.5209 -1.3923  0.6926
39507SOL     OW22976   7.924   4.634   3.448  0.4816 -0.1868  0.5075
39507SOL    HW122977   7.879   4.717   3.463 -0.7009 -0.3839 -1.5206
39507SOL    HW222978   7.987   4.653   3.378 -0.1399 -1.0651 -0.3214
39508SOL     OW22979   9.047  10.319   0.705  0.6799 -0.1341  0.1677
39508SOL    HW122980   9.007  10.246   0.751  0.0627 -0.9795 -1.6170
39508SOL    HW222981   8.984  10.391   0.714 -0.6498 -1.0338 -1.4175
39509SOL     OW22982   2.114   5.032   1.581  0.1921 -0.2743  0.1871
39509SOL    HW122983   2.082   5.070   1.499  1.6362 -0.7877 -0.6522
39509SOL    HW222984   2.094   4.938   1.573  0.3827 -0.3334  0.3953
39510SOL     OW22985   3.762   4.494   3.939 -0.1095 -0.1082 -0.4386
39510SOL    HW122986   3.682   4.478   3.989  0.0708  1.8202  0.5905
39510SOL    HW222987   3.828   4.511   4.006  0.5913  0.6221 -1.2876
39511SOL     OW22988   9.098   5.744   4.557 -0.0156  0.3518 -0.0847
39511SOL    HW122989   9.018   5.753   4.609  0.1563 -2.6308  0.8857
39511SOL    HW222990   9.162   5.798   4.604 -0.4827 -0.3672  1.4645
39512SOL     OW22991   0.974   1.092   9.953 -0.0352  0.2728  0.1624
39512SOL    HW122992   0.915   1.017   9.952  0.8614 -0.5464 -2.5393
39512SOL    HW222993   1.060   1.054   9.968  0.3241  0.8236 -0.4313
39513SOL     OW22994   8.309   3.352   1.164  0.5691  0.1578 -0.4223
39513SOL    HW122995   8.341   3.440   1.143  1.7857 -0.2597 -0.4332
39513SOL    HW222996   8.230   3.342   1.112  1.3562  0.6151 -1.7683
39514SOL     OW22997   5.755   7.688   8.101 -0.3560 -0.6187 -0.1382
39514SOL    HW122998   5.851   7.693   8.096 -0.2338 -2.3809 -0.2345
39514SOL    HW222999   5.736   7.595   8.106 -2.1039 -0.3214 -0.4963
39515SOL     OW23000   7.308   3.907   1.524 -0.2605  0.3878 -0.6701
39515SOL    HW123001   7.275   3.883   1.611  0.4196 -0.0128 -0.5164
39515SOL    HW223002   7.372   3.976   1.541  1.5382 -1.2011 -0.5982
39516SOL     OW23003   9.406   0.181   2.375  0.2767  0.0102  0.6362
39516SOL    HW123004   9.379   0.244   2.442 -1.0297  1.7759 -1.4118
39516SOL    HW223005   9.386   0.095   2.413 -1.6979  0.9981  1.9799
39517SOL     OW23006   7.005   3.676   4.955 -0.0295  0.5096 -0.3165
39517SOL    HW123007   7.018   3.765   4.922 -0.2345  0.4922 -0.4509
39517SOL    HW223008   6.917   3.678   4.993  0.8905  1.0292  1.9029
39518SOL     OW23009   0.669   6.363   4.991  0.0261  0.1279  0.2736
39518SOL    HW123010   0.652   6.270   5.008  0.8155 -0.0090  0.3581
39518SOL    HW223011   0.761   6.375   5.015  0.2275  0.6992 -0.7450
39519SOL     OW23012  10.001   0.510   4.731  0.7567 -0.1066 -0.1272
39519SOL    HW123013   9.975   0.444   4.665 -1.1310  0.4282  0.0197
39519SOL    HW223014  10.083   0.477   4.767  1.7757 -0.5175 -2.6113
39520SOL     OW23015   4.262   2.357   7.416  0.2642 -0.0614  0.0006
39520SOL    HW123016   4.342   2.405   7.395  0.9524 -1.4178 -0.5877
39520SOL    HW223017   4.281   2.316   7.500 -0.6475  1.3512  0.9365
39521SOL     OW23018   1.738   4.896   4.668 -0.3491 -0.1821 -0.1570
39521SOL    HW123019   1.827   4.919   4.641 -0.6563  0.0043 -1.0283
39521SOL    HW223020   1.750   4.857   4.755  0.7280 -1.2590 -0.7500
39522SOL     OW23021   3.550  10.246   5.331  0.7433 -0.1834 -0.2523
39522SOL    HW123022   3.468  10.257   5.380  1.1711  1.0004  0.2191
39522SOL    HW223023   3.556  10.151   5.317 -0.6930 -0.2997 -0.2856
39523SOL     OW23024   2.113   1.048   2.025 -0.0662  0.3481  0.1164
39523SOL    HW123025   2.033   1.033   2.076  0.4569 -0.7684  0.6516
39523SOL    HW223026   2.113   1.142   2.006 -2.0316  0.2265 -0.7864
39524SOL     OW23027   3.572   2.810   7.757 -0.1289  0.2500 -0.5315
39524SOL    HW123028   3.590   2.718   7.738 -0.5780  0.2751 -1.1005
39524SOL    HW223029   3.573   2.815   7.853 -0.7332 -0.4755 -0.4800
39525SOL     OW23030   6.636   5.118   1.593 -0.3323  0.2150 -0.5964
39525SOL    HW123031   6.710   5.153   1.542  1.2355 -0.6709  0.9755
39525SOL    HW223032   6.631   5.174   1.670 -0.0359 -0.8533  0.2334
39526SOL     OW23033  10.620   0.778   9.899 -0.0701  0.2028  0.4907
39526SOL    HW123034  10.633   0.694   9.942 -2.0643 -0.6415 -0.4263
39526SOL    HW223035  10.585   0.835   9.968  1.2407  0.3049  1.0987
39527SOL     OW23036   9.709  10.097   6.405 -0.0819 -0.0101  0.1056
39527SOL    HW123037   9.757  10.019   6.432 -1.5794 -0.8442  0.4242
39527SOL    HW223038   9.769  10.141   6.343  0.4264 -1.8798 -0.8211
39528SOL     OW23039   5.156   9.552   7.295  0.4087 -0.0172  0.4844
39528SOL    HW123040   5.205   9.474   7.270 -1.1872 -1.4673  1.6092
39528SOL    HW223041   5.221   9.611   7.333  1.6648 -0.7454 -0.5113
39529SOL     OW23042   3.151   3.168   7.735  0.0605  0.3512  0.0450
39529SOL    HW123043   3.232   3.119   7.747 -1.0179 -2.1093 -1.9748
39529SOL    HW223044   3.086   3.120   7.786 -0.6724  0.6786 -0.5628
39530SOL     OW23045  10.744   2.752   2.080  0.4520  0.0706 -0.0958
39530SOL    HW123046  10.715   2.664   2.104 -0.5138  0.9182  2.0978
39530SOL    HW223047  10.664   2.804   2.078  1.0249  0.9652 -1.2345
39531SOL     OW23048   6.218   2.397  10.411 -0.0797  0.1429 -0.3689
39531SOL    HW123049   6.170   2.459  10.465  0.2774  0.0318  0.0832
39531SOL    HW223050   6.206   2.313  10.455  0.8662  0.1828 -0.0274
39532SOL     OW23051   3.487   6.084   2.778  0.4134 -0.2167 -0.2520
39532SOL    HW123052   3.504   6.157   2.838  1.2340  0.0957 -0.8583
39532SOL    HW223053   3.455   6.014   2.835  0.7419  0.2246  0.4912
39533SOL     OW23054   1.857   4.008   5.540 -0.4235  0.0451  0.2983
39533SOL    HW123055   1.913   3.942   5.582 -0.7886 -1.2751 -1.2057
39533SOL    HW223056   1.779   4.012   5.595 -0.5003 -0.9631  0.2747
39534SOL     OW23057   7.883  11.007   5.682 -0.3025  0.4039 -0.5187
39534SOL    HW123058   7.961  10.960   5.653 -1.2046 -2.2416  1.0143
39534SOL    HW223059   7.815  10.981   5.620 -1.0102 -1.1773  0.8207
39535SOL     OW23060   4.186   4.973   2.490  0.2938  0.2025 -0.2268
39535SOL    HW123061   4.139   4.974   2.573  2.7254  0.3165  1.2170
39535SOL    HW223062   4.135   4.912   2.435 -2.0639  1.0729  0.8390
39536SOL     OW23063   4.169  10.325   2.708 -0.7708 -0.1870  0.4476
39536SOL    HW123064   4.152  10.250   2.651 -0.3438  0.7895 -1.0192
39536SOL    HW223065   4.087  10.338   2.755 -1.7424  0.0650 -1.2581
39537SOL     OW23066   1.170   1.682   6.692  0.0340  0.1515  0.7664
39537SOL    HW123067   1.079   1.697   6.665  0.4320 -3.3566 -3.8135
39537SOL    HW223068   1.218   1.754   6.651 -0.3897  0.4157  0.7175
39538SOL     OW23069   3.398   1.486   0.952  0.3086  0.0418 -0.2777
39538SOL    HW123070   3.442   1.514   0.873 -0.1279  1.9464  0.1095
39538SOL    HW223071   3.325   1.547   0.963 -1.5532 -2.0616 -0.0683
39539SOL     OW23072   2.949   9.366   4.547  0.0114 -0.3635 -0.0001
39539SOL    HW123073   2.927   9.350   4.456 -2.3213  0.8522  0.2514
39539SOL    HW223074   2.905   9.296   4.595 -0.0276 -0.1494  0.2773
39540SOL     OW23075   7.547   4.958   3.080 -0.1324 -0.3686 -0.7703
39540SOL    HW123076   7.590   5.040   3.056  0.2496 -0.4930 -0.5139
39540SOL    HW223077   7.460   4.985   3.110  0.5754  0.1237  0.9693
39541SOL     OW23078   5.171   7.652   4.287 -0.0562  0.0858  0.0790
39541SOL    HW123079   5.096   7.619   4.336 -0.4165 -0.2670 -0.7005
39541SOL    HW223080   5.195   7.581   4.229 -0.7754  1.1146 -1.5596
39542SOL     OW23081   1.644   7.993   5.589 -0.5118 -0.0722  0.0937
39542SOL    HW123082   1.637   8.002   5.494 -0.8035 -0.8204  0.0361
39542SOL    HW223083   1.555   8.010   5.620 -1.1894 -2.7740 -0.0477
39543SOL     OW23084   7.715   2.184  10.603  0.7192  0.3587 -0.4113
39543SOL    HW123085   7.778   2.197  10.532 -0.1388 -0.8669 -1.4498
39543SOL    HW223086   7.700   2.089  10.605 -0.8605  0.5862 -0.0052
39544SOL     OW23087   3.087   0.190   8.950 -0.1660 -0.1054 -0.3936
39544SOL    HW123088   3.052   0.135   8.880  2.5650 -2.4933 -0.0808
39544SOL    HW223089   3.054   0.150   9.031 -0.2688  0.3322 -0.2156
39545SOL     OW23090   6.981   8.715   8.134 -0.3106  0.6277  0.4004
39545SOL    HW123091   7.046   8.765   8.084 -1.1891  1.7408  0.3194
39545SOL    HW223092   7.004   8.623   8.119  0.9634  0.9881  0.0206
39546SOL     OW23093   6.653   8.355   2.605 -0.1003 -0.2882  0.3402
39546SOL    HW123094   6.566   8.341   2.641  0.3076 -3.2923  0.4472
39546SOL    HW223095   6.711   8.350   2.681  0.3376 -0.8539 -0.0250
39547SOL     OW23096   2.801   2.961   2.747  0.5569 -0.3831 -0.2457
39547SOL    HW123097   2.759   2.894   2.693  0.9842 -1.8965  1.2302
39547SOL    HW223098   2.884   2.923   2.773  1.0653  0.9592  0.1970
39548SOL     OW23099   7.709  10.223   8.892 -0.1811  0.4399 -0.0994
39548SOL    HW123100   7.727  10.284   8.964 -3.7049  0.4340  0.9812
39548SOL    HW223101   7.613  10.226   8.881 -0.3679 -3.6113 -1.1729
39549SOL     OW23102   5.744   0.057   9.311 -0.4320 -0.3428 -0.6375
39549SOL    HW123103   5.721   0.141   9.270 -1.1100 -0.6764 -0.9633
39549SOL    HW223104   5.837   0.046   9.294 -0.2445  0.5301 -0.2555
39550SOL     OW23105  10.401   2.257   5.099  0.4149  0.0754 -0.7399
39550SOL    HW123106  10.419   2.278   5.008 -1.8636  0.1594 -1.2215
39550SOL    HW223107  10.346   2.178   5.096 -0.4869  0.6164  0.4993
39551SOL     OW23108   3.599   2.193   0.896 -0.6092  0.3467  0.1123
39551SOL    HW123109   3.555   2.112   0.869 -0.9455  0.2207  0.9828
39551SOL    HW223110   3.538   2.234   0.958 -0.1159  0.8890  0.2499
39552SOL     OW23111   1.260   9.630   9.671  0.4424  0.4902  0.3271
39552SOL    HW123112   1.190   9.677   9.626 -0.8475 -1.2160  0.4405
39552SOL    HW223113   1.337   9.641   9.615 -0.0483  1.9080 -0.1060
39553SOL     OW23114   8.697   1.869   3.466  0.5548 -0.1177  0.6266
39553SOL    HW123115   8.684   1.804   3.396 -1.0715  1.6950 -0.8693
39553SOL    HW223116   8.723   1.949   3.420 -2.9365  1.8453  1.6812
39554SOL     OW23117   4.553  10.146   4.331 -0.0486  0.0963 -0.6597
39554SOL    HW123118   4.605  10.153   4.251  0.9238 -0.3359 -0.0981
39554SOL    HW223119   4.574  10.059   4.365  2.2874  1.4778  1.8402
39555SOL     OW23120   6.874   4.536   4.233 -0.1190  0.3932  0.1878
39555SOL    HW123121   6.814   4.468   4.202  0.1972  0.6718 -1.0726
39555SOL    HW223122   6.868   4.531   4.329 -2.5496  0.7460  0.1188
39556SOL     OW23123   7.169   7.727   9.245 -0.1903  0.2163 -0.2032
39556SOL    HW123124   7.094   7.674   9.218  0.5788 -0.5970 -0.8137
39556SOL    HW223125   7.209   7.677   9.316 -0.2116  0.6394  0.1103
39557SOL     OW23126   2.019   4.292   7.589 -0.2485  0.4241 -0.6696
39557SOL    HW123127   2.003   4.269   7.680 -0.6629  0.4046 -0.7462
39557SOL    HW223128   1.984   4.381   7.580 -2.6780 -0.5276 -1.4656
39558SOL     OW23129   1.483   8.174   3.754 -0.3658  0.6077  0.1455
39558SOL    HW123130   1.501   8.268   3.749  0.9732  0.4600  1.3466
39558SOL    HW223131   1.519   8.138   3.673 -1.3281  1.1816 -0.5449
39559SOL     OW23132   6.285   0.732   5.768  0.1319  0.0502  0.1216
39559SOL    HW123133   6.360   0.677   5.742  0.5292  0.7700 -0.2784
39559SOL    HW223134   6.264   0.702   5.857 -0.7831 -1.9501 -0.6986
39560SOL     OW23135   6.549   0.040   6.226  0.0868  0.1169 -0.0832
39560SOL    HW123136   6.631   0.009   6.266  2.5132  2.3173 -2.9577
39560SOL    HW223137   6.549   0.134   6.241 -0.6168  0.5047 -2.2731
39561SOL     OW23138   9.362   1.322   0.615  0.3310 -0.4293 -0.1470
39561SOL    HW123139   9.343   1.279   0.532  1.9103  0.2733 -0.9155
39561SOL    HW223140   9.403   1.405   0.590  2.3950 -0.9454  1.3423
39562SOL     OW23141   5.460   3.884   2.174  0.1416  0.0426 -0.1794
39562SOL    HW123142   5.506   3.858   2.254 -3.2308 -1.7455  1.3890
39562SOL    HW223143   5.428   3.973   2.191 -5.0302 -1.9848  3.0819
39563SOL     OW23144   0.117   5.214   5.760  0.1228 -0.9273  0.3815
39563SOL    HW123145   0.105   5.285   5.824 -0.5085 -0.4803 -0.2117
39563SOL    HW223146   0.044   5.225   5.699  0.6522 -1.4093 -0.3548
39564SOL     OW23147   2.604   1.019   6.787  0.6332  0.3651  0.0008
39564SOL    HW123148   2.552   0.959   6.840 -1.6153  2.6666  0.5945
39564SOL    HW223149   2.680   1.041   6.842  1.3717 -1.6177 -0.1341
39565SOL     OW23150   5.789   7.315   9.759 -0.5817  0.2920  0.1972
39565SOL    HW123151   5.880   7.319   9.729 -0.8958  0.8938 -0.7441
39565SOL    HW223152   5.774   7.223   9.777 -0.7611 -0.4062 -2.9098
39566SOL     OW23153   1.041   6.183   5.933  0.1511  0.3483  0.3451
39566SOL    HW123154   0.964   6.167   5.988  0.4661  0.4906  0.8229
39566SOL    HW223155   1.111   6.132   5.973  0.3216  0.2475 -0.0719
39567SOL     OW23156   4.779   8.192  10.826  0.3184 -0.1040 -0.4662
39567SOL    HW123157   4.721   8.167  10.898  0.9835  0.6666  0.3617
39567SOL    HW223158   4.732   8.263  10.782  0.1305 -0.2389 -0.4834
39568SOL     OW23159   1.072   8.225   7.140  0.2641 -0.1844  0.0444
39568SOL    HW123160   1.052   8.315   7.165  1.1304 -0.1435  0.6367
39568SOL    HW223161   1.091   8.230   7.046  2.1247  0.6042  0.4114
39569SOL     OW23162   8.200   4.777  10.342  0.1141 -0.3801 -0.3744
39569SOL    HW123163   8.105   4.780  10.352  0.2724  1.7130  1.3579
39569SOL    HW223164   8.226   4.869  10.334  2.0418 -0.8667 -0.2737
39570SOL     OW23165   1.789   7.637   2.921  0.4348 -0.3688 -0.1545
39570SOL    HW123166   1.774   7.556   2.872 -1.0655  0.5852 -1.3710
39570SOL    HW223167   1.881   7.657   2.908  0.3637 -0.8332 -1.4868
39571SOL     OW23168   7.485   5.507   0.133  0.1848 -0.7669  0.0809
39571SOL    HW123169   7.569   5.463   0.121  0.5900 -0.0596  0.3088
39571SOL    HW223170   7.425   5.436   0.159  0.7075 -1.2702 -0.0679
39572SOL     OW23171   2.394   6.267   6.378  0.3766 -0.5229  0.1918
39572SOL    HW123172   2.318   6.281   6.321 -0.8169 -0.3301  1.7391
39572SOL    HW223173   2.468   6.302   6.329 -0.7493  0.5411 -0.8155
39573SOL     OW23174   8.595   5.558   4.939 -0.2129 -0.7741  0.0986
39573SOL    HW123175   8.539   5.577   5.015 -0.1414  0.3349 -0.1151
39573SOL    HW223176   8.550   5.600   4.866  2.3067  2.7994  0.3489
39574SOL     OW23177   9.626  10.112   0.695  0.9224 -1.1916 -0.6305
39574SOL    HW123178   9.567  10.053   0.647 -0.1031  0.2014 -1.1519
39574SOL    HW223179   9.712  10.094   0.658  0.3429 -1.0393 -2.1586
39575SOL     OW23180   7.235   2.513   0.881  0.6515  0.2250 -0.5782
39575SOL    HW123181   7.177   2.581   0.846  0.0245  0.5967  1.1145
39575SOL    HW223182   7.190   2.431   0.859 -1.2858  0.5310  1.8357
39576SOL     OW23183   8.780   3.897   3.565  0.3559  0.5254 -0.6548
39576SOL    HW123184   8.855   3.839   3.579  1.0508  1.6808  0.5610
39576SOL    HW223185   8.805   3.979   3.607 -2.2208  0.4594  1.1783
39577SOL     OW23186   4.322   6.469   6.896 -0.6756  0.3184  0.3294
39577SOL    HW123187   4.329   6.384   6.853 -2.6630  1.2484 -2.0996
39577SOL    HW223188   4.386   6.524   6.850 -1.9926  1.0279 -0.7060
39578SOL     OW23189   1.186   7.920   3.591 -0.4951 -0.2760 -0.0163
39578SOL    HW123190   1.104   7.969   3.598 -1.6863 -2.0098 -1.1317
39578SOL    HW223191   1.185   7.882   3.503  0.6436 -1.8048  0.5777
39579SOL     OW23192   6.834   4.097   8.563 -0.1057 -0.0626 -0.4290
39579SOL    HW123193   6.798   4.083   8.650 -1.8989  2.3167 -0.6947
39579SOL    HW223194   6.873   4.184   8.566 -1.2325  0.5618 -2.2719
39580SOL     OW23195   3.580   1.257   2.869 -0.6203 -0.1321  1.0325
39580SOL    HW123196   3.534   1.252   2.785  0.4605  0.7275  0.3436
39580SOL    HW223197   3.581   1.350   2.890  1.3967 -0.0059  0.6263
39581SOL     OW23198   0.038   7.721   0.260 -0.1911  0.0287 -0.4805
39581SOL    HW123199   0.078   7.798   0.300 -0.1138  0.9007 -2.1499
39581SOL    HW223200  -0.056   7.730   0.279 -0.2810  0.9425 -1.2567
39582SOL     OW23201   3.788   3.541   7.676 -0.0231 -0.1630 -0.1225
39582SOL    HW123202   3.789   3.446   7.684  1.3110 -0.2174 -0.6076
39582SOL    HW223203   3.854   3.571   7.740 -0.2065  0.4085 -0.1963
39583SOL     OW23204   5.602  10.537   5.261  0.0919  0.4547 -0.2139
39583SOL    HW123205   5.601  10.442   5.274  0.5609  0.5575  0.6476
39583SOL    HW223206   5.614  10.548   5.167  1.1040 -0.3440 -0.1951
39584SOL     OW23207   0.429   7.596   8.272  0.7664 -0.4043 -0.7203
39584SOL    HW123208   0.487   7.672   8.267  0.4647 -0.1104  0.1647
39584SOL    HW223209   0.357   7.616   8.212  0.2006  0.4421  0.2222
39585SOL     OW23210   9.832   7.489   9.628 -0.2352 -0.0699 -0.0312
39585SOL    HW123211   9.828   7.400   9.661 -1.1415  0.0169  0.0913
39585SOL    HW223212   9.762   7.495   9.563  0.9525  0.0181 -1.3793
39586SOL     OW23213   7.085   6.747   4.130 -0.2568  0.0096  0.0054
39586SOL    HW123214   7.141   6.799   4.188 -0.9926  0.7441  0.0841
39586SOL    HW223215   7.018   6.710   4.189 -1.0457  0.8084 -0.3708
39587SOL     OW23216   6.891   9.656   2.302  0.6727  0.3404  0.1683
39587SOL    HW123217   6.938   9.735   2.326  1.3259  0.7280 -2.1264
39587SOL    HW223218   6.828   9.684   2.235 -1.5512 -0.5061  1.7839
39588SOL     OW23219   3.643   7.839   6.104 -0.4294 -0.2777  0.1475
39588SOL    HW123220   3.643   7.834   6.008 -1.3220 -2.2299  0.1939
39588SOL    HW223221   3.563   7.792   6.130  0.2018 -0.4544  1.8692
39589SOL     OW23222   9.706   1.820   4.211 -0.2701 -0.0793 -0.0083
39589SOL    HW123223   9.664   1.858   4.288 -0.7866 -1.6843  0.5224
39589SOL    HW223224   9.791   1.865   4.206 -1.8353  3.0835 -1.0049
39590SOL     OW23225   2.560   1.103   8.151 -0.1923 -0.3356 -0.1755
39590SOL    HW123226   2.481   1.094   8.097  0.8106 -2.1380 -1.4165
39590SOL    HW223227   2.583   1.013   8.175  1.4858  0.1551  0.1805
39591SOL     OW23228   5.040   9.190   9.176 -0.5108 -0.0052 -0.0241
39591SOL    HW123229   4.944   9.190   9.172 -0.5103  0.1833 -0.0461
39591SOL    HW223230   5.066   9.116   9.121 -0.6916 -1.0964  1.3090
39592SOL     OW23231   2.000   6.370   1.245  0.2215  0.5106 -0.0033
39592SOL    HW123232   1.904   6.377   1.237  0.4112  3.1152 -1.1788
39592SOL    HW223233   2.019   6.410   1.329  0.3058  0.7038 -0.1124
39593SOL     OW23234   0.047   6.128   8.131  0.0416 -0.4350 -0.0917
39593SOL    HW123235   0.123   6.176   8.097  0.9379 -2.5229 -1.2347
39593SOL    HW223236  -0.010   6.117   8.055  0.0927 -1.5626  0.0116
39594SOL     OW23237   9.630  10.196   0.938 -0.0408 -0.5133  0.0186
39594SOL    HW123238   9.616  10.163   0.850  0.7502  0.0365 -0.3199
39594SOL    HW223239   9.674  10.124   0.984 -1.5825 -1.2895  0.3597
39595SOL     OW23240   9.666   5.076   5.982  0.4522 -0.3593 -0.4174
39595SOL    HW123241   9.670   4.981   5.969 -0.7138 -0.3045 -1.3737
39595SOL    HW223242   9.753   5.107   5.957  2.3717 -1.5264  3.8895
39596SOL     OW23243  10.172   8.669   4.475 -0.2255 -0.4485  0.2604
39596SOL    HW123244  10.095   8.630   4.435 -0.4617  0.4709 -0.1949
39596SOL    HW223245  10.225   8.700   4.401  0.8869 -1.6058  0.5311
39597SOL     OW23246   6.380   1.581   1.629  0.0111  0.2330 -0.0472
39597SOL    HW123247   6.324   1.567   1.553  0.8356 -0.4994 -0.5402
39597SOL    HW223248   6.359   1.670   1.659 -2.3336 -0.4639  0.5760
39598SOL     OW23249   1.811   0.986   9.204  0.3254  0.3195  0.6901
39598SOL    HW123250   1.737   0.939   9.164  0.7378  1.0148 -0.9740
39598SOL    HW223251   1.786   0.994   9.296 -0.9034 -0.9257  0.5156
39599SOL     OW23252   0.390  11.003   8.341  0.2261  0.2214 -0.0757
39599SOL    HW123253   0.334  10.960   8.276 -1.6670  1.4793  0.6152
39599SOL    HW223254   0.358  10.971   8.425  1.3454  0.0969  0.3135
39600SOL     OW23255   3.736   5.399  10.911 -0.4828  0.3969 -0.2251
39600SOL    HW123256   3.797   5.394  10.984 -0.3790  0.9286 -0.2753
39600SOL    HW223257   3.778   5.456  10.847 -1.0792  0.8615 -0.2110
39601SOL     OW23258   3.576   7.139   9.175 -0.0988 -0.3464 -0.0539
39601SOL    HW123259   3.650   7.197   9.189 -1.8075  1.7404  1.0852
39601SOL    HW223260   3.597   7.060   9.226  1.4457  0.0547 -0.0272
39602SOL     OW23261   6.789   3.036   4.019  0.1152 -0.5783  0.0007
39602SOL    HW123262   6.753   2.948   4.025 -0.4240 -0.5198 -1.7745
39602SOL    HW223263   6.737   3.079   3.951 -0.3767  1.5091  1.5922
39603SOL     OW23264   7.679   3.723   5.696  0.0503 -0.0616 -0.1668
39603SOL    HW123265   7.666   3.813   5.665 -0.5589 -0.8067 -2.2453
39603SOL    HW223266   7.769   3.722   5.728 -0.1996  1.4800  0.7156
39604SOL     OW23267   8.384   1.626   5.679  0.4552  0.3367 -0.1949
39604SOL    HW123268   8.309   1.598   5.627  0.6774  1.9632 -1.4856
39604SOL    HW223269   8.348   1.639   5.767 -0.6420  0.4821 -0.6442
39605SOL     OW23270   3.850   4.235   3.409  0.3637 -0.5732  0.7241
39605SOL    HW123271   3.800   4.305   3.366 -0.8347 -1.3779  0.7354
39605SOL    HW223272   3.787   4.195   3.468  0.1141 -3.4439 -1.2591
39606SOL     OW23273   1.848   5.886   4.790  0.4691  0.6307  0.2377
39606SOL    HW123274   1.753   5.874   4.802  0.4490  0.7595  0.2082
39606SOL    HW223275   1.864   5.976   4.817  0.5808  0.6147  0.2231
39607SOL     OW23276   2.453   8.607   5.326  0.0038 -0.0293  0.0785
39607SOL    HW123277   2.529   8.614   5.269  0.2919  1.1996  0.5806
39607SOL    HW223278   2.404   8.532   5.292  1.2036 -0.5713 -0.5161
39608SOL     OW23279   1.890   9.770   7.129  0.5330 -0.4029  0.9858
39608SOL    HW123280   1.927   9.685   7.153  0.4826 -0.5081  0.6939
39608SOL    HW223281   1.797   9.762   7.150  0.2200 -0.9812 -0.5237
39609SOL     OW23282   0.215   6.347   3.758 -0.4586  0.0392 -0.3313
39609SOL    HW123283   0.230   6.262   3.718  1.0941  0.2767 -0.2955
39609SOL    HW223284   0.223   6.409   3.685  0.7523  0.3404  0.0463
39610SOL     OW23285   9.690   5.901   2.697  0.1335  0.7464 -0.0350
39610SOL    HW123286   9.770   5.911   2.747  0.6563 -1.6486 -0.2413
39610SOL    HW223287   9.719   5.871   2.611 -0.9392  0.2135 -0.2340
39611SOL     OW23288   4.114  10.797   6.896 -0.3153  0.2785  0.0562
39611SOL    HW123289   4.181  10.825   6.833  0.3765  0.1286  0.7049
39611SOL    HW223290   4.032  10.801   6.847  0.3745 -1.3237 -1.3220
39612SOL     OW23291   6.708  10.270   3.581  0.0362 -0.1634  0.3746
39612SOL    HW123292   6.799  10.276   3.553  0.5172  1.8790  2.1345
39612SOL    HW223293   6.710  10.288   3.675 -2.3906  2.2869  0.0857
39613SOL     OW23294   9.731  10.859   2.448 -0.5714  0.0355  0.1583
39613SOL    HW123295   9.646  10.859   2.492 -0.5307 -1.0298  0.2582
39613SOL    HW223296   9.735  10.944   2.405 -1.6863  0.1082  0.1647
39614SOL     OW23297   9.712   5.120   9.580 -0.0462  0.1260 -0.2182
39614SOL    HW123298   9.778   5.121   9.510 -0.2650  3.0228 -0.5132
39614SOL    HW223299   9.631   5.097   9.535  0.4089 -1.7771 -0.1587
39615SOL     OW23300   0.786   2.999   4.591  0.0457  0.1513  0.2975
39615SOL    HW123301   0.798   2.994   4.496 -0.7413 -0.2278  0.2124
39615SOL    HW223302   0.735   2.921   4.613  1.5193 -0.6122  1.2532
39616SOL     OW23303   9.254   2.874   7.110  0.3943 -0.1089  0.2160
39616SOL    HW123304   9.343   2.844   7.133  0.2800  0.1527  1.0229
39616SOL    HW223305   9.259   2.894   7.016  0.5774 -2.3014 -0.3023
39617SOL     OW23306   5.626   4.507   5.571  0.0341 -0.1612  0.0807
39617SOL    HW123307   5.573   4.486   5.494  0.3160  0.6715 -0.3484
39617SOL    HW223308   5.594   4.447   5.638 -0.9042 -0.2212 -0.3971
39618SOL     OW23309   7.384   4.346   4.086  0.2680 -0.3317  0.1819
39618SOL    HW123310   7.430   4.367   4.167 -0.6491 -0.3961  0.7301
39618SOL    HW223311   7.448   4.364   4.017  1.1053 -0.4235  0.9222
39619SOL     OW23312   0.261   1.519   8.642 -0.2653 -0.5694  0.0689
39619SOL    HW123313   0.250   1.528   8.737 -0.6818 -1.9001  0.1705
39619SOL    HW223314   0.200   1.582   8.605 -0.9299 -0.8212  0.7017
39620SOL     OW23315   1.902   9.444   9.438  0.2450  0.3803  0.3487
39620SOL    HW123316   1.859   9.433   9.523 -0.8918  0.1887 -0.2264
39620SOL    HW223317   1.990   9.474   9.459 -0.1987  0.8860  1.5750
39621SOL     OW23318   7.526   4.233   7.684  0.3081  0.1181  0.3108
39621SOL    HW123319   7.602   4.290   7.696  0.4106  0.4033 -1.4111
39621SOL    HW223320   7.470   4.282   7.623  0.2039 -1.4230 -0.8873
39622SOL     OW23321   1.126   5.437   6.118 -0.1276  0.2766 -0.1820
39622SOL    HW123322   1.103   5.490   6.194 -1.2833  1.3600 -1.2429
39622SOL    HW223323   1.221   5.426   6.125 -0.4129 -1.4967  2.5295
39623SOL     OW23324   3.258   1.111   8.891 -0.1009 -0.1698 -0.2978
39623SOL    HW123325   3.172   1.145   8.868  0.6055  2.6535  0.7447
39623SOL    HW223326   3.282   1.053   8.819 -2.3230 -0.0359 -1.2096
39624SOL     OW23327   2.008   9.017   3.071 -0.0788  0.3003 -0.0107
39624SOL    HW123328   1.995   8.926   3.097 -0.5056  0.0198 -1.1277
39624SOL    HW223329   2.006   9.067   3.153  2.2512 -0.8917  0.8736
39625SOL     OW23330   5.437   2.286   2.007 -0.3993  0.2465  0.1016
39625SOL    HW123331   5.510   2.233   1.973 -1.0231 -0.4309 -0.2143
39625SOL    HW223332   5.385   2.224   2.059 -1.2478  0.5005 -0.4321
39626SOL     OW23333   1.495  10.534   5.365 -0.2173  0.1588 -0.0634
39626SOL    HW123334   1.464  10.480   5.293 -1.4846 -0.3952  0.8673
39626SOL    HW223335   1.424  10.596   5.382  0.9360  1.7353 -0.6765
39627SOL     OW23336   6.029   7.213   6.158  0.5826 -0.0885  0.1575
39627SOL    HW123337   6.032   7.190   6.065  0.3046 -1.6590  0.4969
39627SOL    HW223338   6.110   7.177   6.194  0.5541  0.2552  0.5682
39628SOL     OW23339   6.593   0.037   4.558  0.2183 -0.1308 -0.5632
39628SOL    HW123340   6.550   0.109   4.512  3.3884  1.6865 -0.9834
39628SOL    HW223341   6.611   0.072   4.646 -0.5384 -1.4348  0.1463
39629SOL     OW23342  10.360   0.659   5.795 -0.0015  0.2292 -0.0440
39629SOL    HW123343  10.269   0.641   5.821 -0.5680  0.1997 -1.9249
39629SOL    HW223344  10.402   0.690   5.875 -1.5179 -0.3102  1.0007
39630SOL     OW23345   5.529   4.298   3.022 -0.4034 -0.1834  0.1690
39630SOL    HW123346   5.559   4.266   3.107 -0.2738 -0.3189  0.0735
39630SOL    HW223347   5.490   4.384   3.041  0.2292  0.0865  0.2631
39631SOL     OW23348   9.702  10.516   8.850 -0.0882 -0.7640 -0.4245
39631SOL    HW123349   9.615  10.514   8.812 -0.5808  0.5339  0.5685
39631SOL    HW223350   9.747  10.586   8.803 -0.7368  0.9280  1.3467
39632SOL     OW23351   8.725   3.314   4.649 -0.2110  0.1146  0.2562
39632SOL    HW123352   8.766   3.238   4.609 -0.9765 -0.5421  0.6852
39632SOL    HW223353   8.683   3.360   4.576  0.1679  0.0697  0.0099
39633SOL     OW23354   1.326   5.401   7.286  0.3637 -0.3004 -0.6783
39633SOL    HW123355   1.272   5.460   7.339 -0.7040 -1.1687 -0.7690
39633SOL    HW223356   1.352   5.455   7.211 -0.6355  0.0600 -0.7829
39634SOL     OW23357   2.718   4.102   3.229  0.0279 -0.1126 -0.0489
39634SOL    HW123358   2.638   4.141   3.263  0.4485 -0.4876  1.4557
39634SOL    HW223359   2.766   4.175   3.190 -0.0918  0.5246  0.9615
39635SOL     OW23360  10.825   0.440   5.986  0.3448  0.0848  0.1589
39635SOL    HW123361  10.869   0.524   6.001  0.8498 -0.0552 -0.4784
39635SOL    HW223362  10.732   0.460   5.994  0.4424  0.8052 -0.3880
39636SOL     OW23363   7.358   1.104   1.553  0.0795 -0.0289  0.0650
39636SOL    HW123364   7.286   1.042   1.547 -1.9683  2.2202 -0.2464
39636SOL    HW223365   7.349   1.143   1.640  0.4976  0.7281 -0.2183
39637SOL     OW23366   0.998   5.966   5.283  0.2846  0.1766 -0.1599
39637SOL    HW123367   0.996   6.062   5.283 -0.5699  0.1741 -1.0395
39637SOL    HW223368   0.982   5.942   5.192  0.8863 -0.8093 -0.0245
39638SOL     OW23369   7.622   8.542   6.967 -0.3261  0.3402  0.4490
39638SOL    HW123370   7.534   8.560   7.000  0.2158  2.5213  0.8665
39638SOL    HW223371   7.680   8.581   7.033  0.9136  0.1688 -0.5094
39639SOL     OW23372   6.446   6.998   5.082  0.2495 -0.6369 -0.1169
39639SOL    HW123373   6.507   6.926   5.094 -0.6734 -1.2679  0.9122
39639SOL    HW223374   6.446   7.014   4.987  0.8815 -1.6089 -0.2850
39640SOL     OW23375   3.961   1.652   0.583 -0.4556 -0.0349 -0.4753
39640SOL    HW123376   4.003   1.566   0.578  0.7823  0.5621 -0.7387
39640SOL    HW223377   3.872   1.636   0.553 -1.4678 -1.9714  2.9541
39641SOL     OW23378   7.679   8.581   1.018 -0.2031  0.0434  0.0427
39641SOL    HW123379   7.737   8.656   1.030 -0.0342 -0.1955  0.7673
39641SOL    HW223380   7.618   8.586   1.092  1.0952 -1.6789  1.3170
39642SOL     OW23381   4.376   3.023   7.788  0.1238 -0.6278  0.1619
39642SOL    HW123382   4.385   3.044   7.881 -0.0518  0.2994 -0.0168
39642SOL    HW223383   4.284   3.000   7.777  0.5193 -2.5897  0.5491
39643SOL     OW23384   8.507   8.454   5.803  0.2758  0.7581 -0.7692
39643SOL    HW123385   8.529   8.361   5.806 -0.4739  0.5622 -1.0830
39643SOL    HW223386   8.555   8.493   5.876 -0.8485 -0.1938  0.5184
39644SOL     OW23387   8.739   2.560   1.929 -0.1655  0.1766 -0.2730
39644SOL    HW123388   8.696   2.485   1.888  0.4026 -1.0622  1.3172
39644SOL    HW223389   8.717   2.634   1.872  1.0772 -1.5150 -3.1252
39645SOL     OW23390   7.418   3.827  10.596 -0.1805 -0.5156 -0.2141
39645SOL    HW123391   7.337   3.784  10.571  0.4942 -0.9902 -1.6930
39645SOL    HW223392   7.402   3.920  10.580 -1.5233 -0.1210  2.6750
39646SOL     OW23393  10.762   7.664   6.634  0.0506  0.0796  0.8452
39646SOL    HW123394  10.820   7.659   6.710  0.2120 -0.2815  0.7000
39646SOL    HW223395  10.790   7.743   6.587 -0.4426  0.6483  1.4776
39647SOL     OW23396   5.602   4.418   2.193  0.6661 -0.0836 -0.5225
39647SOL    HW123397   5.553   4.426   2.111 -2.3565  0.9727  1.2202
39647SOL    HW223398   5.587   4.502   2.238  3.6937  0.0744  0.4373
39648SOL     OW23399  10.548   1.815   2.903 -0.2436  0.3494  0.0372
39648SOL    HW123400  10.642   1.819   2.916 -0.4246 -0.5786  1.9848
39648SOL    HW223401  10.511   1.833   2.989 -1.7396 -2.8434  0.2001
39649SOL     OW23402   6.609   1.210   8.088  0.2143 -0.1175 -0.2067
39649SOL    HW123403   6.645   1.267   8.019 -2.4594  0.7859 -0.9903
39649SOL    HW223404   6.536   1.165   8.046  0.5901 -2.1276  1.1714
39650SOL     OW23405  10.527   7.357  10.992  0.0203  0.1267  0.1534
39650SOL    HW123406  10.596   7.422  10.980 -0.3740  0.6848  0.8697
39650SOL    HW223407  10.553   7.284  10.935 -0.4711  1.6234 -2.1206
39651SOL     OW23408   4.145   4.325   0.212  0.3158 -0.0272 -0.1039
39651SOL    HW123409   4.136   4.231   0.197 -1.3743  0.1864 -0.5508
39651SOL    HW223410   4.228   4.333   0.259  0.4882 -1.7373 -0.0426
39652SOL     OW23411   8.815   1.850   3.933  0.2433 -0.0525  0.0515
39652SOL    HW123412   8.750   1.790   3.970 -0.2868  0.4728 -0.0085
39652SOL    HW223413   8.829   1.819   3.844  0.5084 -0.5128  0.2523
39653SOL     OW23414   4.947   2.311   8.699  0.1391  0.1498 -0.2190
39653SOL    HW123415   5.039   2.335   8.686  0.6250 -1.3407  0.2654
39653SOL    HW223416   4.902   2.349   8.623  1.5457 -1.0880 -1.7471
39654SOL     OW23417   3.327   3.332   1.640 -0.2486  0.0544  0.1190
39654SOL    HW123418   3.249   3.386   1.655 -1.0792 -1.0430 -0.1529
39654SOL    HW223419   3.380   3.344   1.718 -0.8637  0.5186  0.4746
39655SOL     OW23420   1.180   3.083   8.976 -0.0298  0.3752 -0.1786
39655SOL    HW123421   1.212   3.167   8.943 -0.1901  0.0118 -1.2900
39655SOL    HW223422   1.258   3.029   8.984 -0.1180  0.1254 -0.9837
39656SOL     OW23423   4.513   4.582   0.054 -0.3867  0.2348 -0.1104
39656SOL    HW123424   4.581   4.581   0.121  1.4831 -0.2422 -1.9161
39656SOL    HW223425   4.474   4.495   0.057 -0.7939  0.4311  0.7557
39657SOL     OW23426   7.912   4.897   0.217 -0.1922  0.7022 -0.0245
39657SOL    HW123427   7.912   4.805   0.189 -0.2207  0.4356  0.8353
39657SOL    HW223428   7.976   4.939   0.159 -1.2224  0.4463 -1.3834
39658SOL     OW23429   6.042  10.656   9.772 -0.1360  0.2542  0.4875
39658SOL    HW123430   5.980  10.691   9.836  0.0638  0.1013  0.7696
39658SOL    HW223431   6.093  10.592   9.822 -0.6777 -0.6444 -0.0785
39659SOL     OW23432   2.012   0.556   3.596  0.3117 -0.3008  0.4500
39659SOL    HW123433   2.081   0.608   3.556  0.8785 -1.0432  0.4382
39659SOL    HW223434   2.026   0.467   3.563 -2.3305 -0.0229 -1.7788
39660SOL     OW23435   5.700   8.031   7.507  0.1273 -0.9275 -0.2439
39660SOL    HW123436   5.617   8.060   7.545  0.1245  0.2247 -1.0744
39660SOL    HW223437   5.742   7.981   7.577 -1.8261 -2.7029 -0.2218
39661SOL     OW23438  10.184   0.421  10.651  0.4333  0.1146 -0.3039
39661SOL    HW123439  10.203   0.377  10.568  1.3704 -0.2954  0.1071
39661SOL    HW223440  10.100   0.384  10.679  0.4791 -0.3035 -0.7038
39662SOL     OW23441   1.143   6.302   8.136  0.1573 -0.2727  0.1218
39662SOL    HW123442   1.144   6.273   8.228  0.7724  0.3803  0.3385
39662SOL    HW223443   1.197   6.238   8.091  1.2823  0.3375  0.5471
39663SOL     OW23444   0.915   4.128  10.540  0.2289 -0.0523  0.1185
39663SOL    HW123445   0.886   4.211  10.578 -2.0092 -1.4781  1.8485
39663SOL    HW223446   0.955   4.081  10.613 -1.6056 -1.7489  0.1382
39664SOL     OW23447   4.064   8.331   2.586  0.1795  0.5321  0.1638
39664SOL    HW123448   4.093   8.252   2.541 -1.2065 -0.1965  0.4675
39664SOL    HW223449   4.139   8.390   2.583  0.5292  0.0617 -2.0250
39665SOL     OW23450   7.842   1.878   9.875  0.3684  0.4839  0.3281
39665SOL    HW123451   7.794   1.960   9.871  2.3778  1.8592  2.0639
39665SOL    HW223452   7.825   1.845   9.964  0.6417 -0.2910  0.1035
39666SOL     OW23453   4.431   2.568   8.958 -0.3878 -0.7423 -0.1529
39666SOL    HW123454   4.504   2.609   9.005 -1.7476  0.5815  0.9008
39666SOL    HW223455   4.427   2.479   8.992  0.1671 -0.5468  0.4397
39667SOL     OW23456   9.616   2.982   5.304 -0.2220  0.2095  0.6983
39667SOL    HW123457   9.591   3.074   5.296  2.4737  1.0826  1.4789
39667SOL    HW223458   9.551   2.945   5.365 -1.7423  1.3573 -0.1420
39668SOL     OW23459   1.527   7.217   4.116  0.1723 -0.6707  0.2968
39668SOL    HW123460   1.444   7.205   4.162 -0.6510 -0.3160 -1.0360
39668SOL    HW223461   1.552   7.308   4.132  0.2992 -0.7744  0.6851
39669SOL     OW23462   0.008   0.758   2.055 -0.5097  0.5747 -0.0814
39669SOL    HW123463   0.091   0.736   2.099 -0.4542  0.3804 -0.2819
39669SOL    HW223464   0.015   0.851   2.037 -0.9777  0.8916  1.2694
39670SOL     OW23465   1.332   0.463   8.811 -0.3386 -0.0100 -0.2916
39670SOL    HW123466   1.278   0.436   8.885  0.3060 -0.9504 -0.1506
39670SOL    HW223467   1.275   0.520   8.760 -0.5588  1.2327  1.2815
39671SOL     OW23468  10.208  10.349   7.383 -0.0622 -0.1485 -0.3563
39671SOL    HW123469  10.175  10.392   7.462 -2.0363 -0.5713 -0.8838
39671SOL    HW223470  10.154  10.385   7.312 -1.0283 -2.5891 -0.9665
39672SOL     OW23471   5.061  10.293   3.169  0.3149 -0.8023  0.3269
39672SOL    HW123472   4.970  10.286   3.139 -0.4226 -0.9672  2.3759
39672SOL    HW223473   5.112  10.250   3.101 -1.1760 -0.9872 -0.7374
39673SOL     OW23474   0.265   6.058   2.950  0.7115 -0.5450 -0.2569
39673SOL    HW123475   0.172   6.058   2.927  0.7004 -1.3163 -0.2357
39673SOL    HW223476   0.279   6.143   2.990 -0.2956 -0.9161  0.9604
39674SOL     OW23477   6.252   8.295   7.707  0.0830 -0.0567 -0.6497
39674SOL    HW123478   6.338   8.327   7.679  0.3260  0.8142  0.9865
39674SOL    HW223479   6.195   8.311   7.631  1.1064  0.4566 -1.3381
39675SOL     OW23480   0.165   8.151   6.709  0.1295  0.3878 -0.2049
39675SOL    HW123481   0.130   8.182   6.793 -1.7481  0.2590 -0.8849
39675SOL    HW223482   0.222   8.078   6.732 -1.9867 -1.0247  0.8922
39676SOL     OW23483   4.355  10.509   6.253 -0.2049 -0.0529  0.2610
39676SOL    HW123484   4.403  10.489   6.173 -0.1645  0.0289  0.2648
39676SOL    HW223485   4.276  10.455   6.248 -2.3145  2.9057 -1.8596
39677SOL     OW23486   2.809   6.253   0.768  0.2260 -0.6525 -0.0916
39677SOL    HW123487   2.787   6.172   0.815 -3.3092  0.0643 -0.2153
39677SOL    HW223488   2.728   6.278   0.723  1.6224  2.1497 -1.3539
39678SOL     OW23489   2.580   9.370   5.588 -0.4788 -0.3658 -0.2898
39678SOL    HW123490   2.625   9.386   5.670 -1.6747 -0.2654  0.3791
39678SOL    HW223491   2.639   9.402   5.520  0.0673  0.5579  0.6024
39679SOL     OW23492   1.479   4.205   0.503 -0.5230  0.0608  0.6298
39679SOL    HW123493   1.454   4.244   0.420  0.2165 -0.2581  0.2516
39679SOL    HW223494   1.428   4.124   0.507  1.3656 -1.2996 -0.7901
39680SOL     OW23495   3.425   3.850   3.415  0.3394  0.2660 -0.2324
39680SOL    HW123496   3.491   3.902   3.370  2.0038 -0.6175  1.1126
39680SOL    HW223497   3.407   3.898   3.496  0.1930 -0.0989 -0.0477
39681SOL     OW23498   9.735   4.225   1.986  0.7160  0.2464 -0.0177
39681SOL    HW123499   9.774   4.152   2.034  1.8523 -0.1294 -1.4523
39681SOL    HW223500   9.706   4.186   1.903 -2.0466  0.6815  0.6430
39682SOL     OW23501   7.326   7.445   6.451 -0.7666  0.5655 -0.2274
39682SOL    HW123502   7.402   7.453   6.393 -1.7257  0.9400 -1.4824
39682SOL    HW223503   7.354   7.483   6.534  0.6628 -0.0223 -0.4219
39683SOL     OW23504  10.249   6.263   6.745 -0.1524  0.3868 -0.3275
39683SOL    HW123505  10.304   6.320   6.691 -1.9688  0.1952 -2.4749
39683SOL    HW223506  10.179   6.234   6.687 -1.6010 -0.7395  1.8479
39684SOL     OW23507   4.408   3.510  10.505  0.7270 -0.6065 -0.4749
39684SOL    HW123508   4.380   3.500  10.596  0.7102 -0.3761 -0.4537
39684SOL    HW223509   4.503   3.502  10.509  0.6814 -1.2040 -0.5222
39685SOL     OW23510   7.140   5.061   4.561  0.3207  0.0194 -0.0482
39685SOL    HW123511   7.204   5.011   4.610 -0.1266 -1.0460 -0.5179
39685SOL    HW223512   7.182   5.078   4.476 -0.0511 -0.8092 -0.4122
39686SOL     OW23513   6.963   9.481   8.396  0.6999  0.6845  0.7108
39686SOL    HW123514   7.034   9.465   8.458 -0.7287 -0.3473  2.1686
39686SOL    HW223515   6.989   9.433   8.317  0.4850 -1.9666  2.1123
39687SOL     OW23516   3.678   6.077  10.722 -0.0671  0.5820 -0.1023
39687SOL    HW123517   3.697   6.010  10.656 -0.7763  0.7367 -0.4775
39687SOL    HW223518   3.609   6.039  10.776  2.4324 -0.7165  2.3942
39688SOL     OW23519   3.932  11.061   4.141  0.0148 -1.0772 -0.3485
39688SOL    HW123520   3.994  11.035   4.072 -1.2685  0.0368 -1.9872
39688SOL    HW223521   3.865  10.993   4.138 -0.4021 -0.6503 -0.6823
39689SOL     OW23522   4.533   1.160   3.593  0.0575  0.1483 -0.0053
39689SOL    HW123523   4.579   1.076   3.596  0.8748  0.6124  0.5252
39689SOL    HW223524   4.595   1.224   3.627 -0.6106  0.9562 -0.2576
39690SOL     OW23525  10.270  10.218   6.325 -0.4311  0.5219 -1.4360
39690SOL    HW123526  10.327  10.143   6.312  1.3337  1.8754 -1.9663
39690SOL    HW223527  10.224  10.228   6.241 -1.6791 -0.7127 -0.9296
39691SOL     OW23528   3.108   5.752   4.619  0.7386  0.7208 -0.2715
39691SOL    HW123529   3.052   5.830   4.610 -1.4164 -0.6127  0.8369
39691SOL    HW223530   3.063   5.684   4.569  2.2468 -0.0066 -0.6806
39692SOL     OW23531   7.668   5.513  10.767  0.6477  0.2325  0.3834
39692SOL    HW123532   7.719   5.543  10.842 -2.5020  0.7390  2.4720
39692SOL    HW223533   7.660   5.591  10.711  0.6802  0.6338  0.9274
39693SOL     OW23534   0.539   8.164   2.133  0.6285  0.1070 -0.6400
39693SOL    HW123535   0.630   8.178   2.108  0.3770  1.0130 -1.1133
39693SOL    HW223536   0.513   8.246   2.176  0.2216 -0.3811  0.0636
39694SOL     OW23537   5.197   4.800  10.460 -0.7288 -0.1340 -0.0501
39694SOL    HW123538   5.149   4.869  10.506 -0.7408 -1.2615  1.7285
39694SOL    HW223539   5.255   4.762  10.526  0.9784 -0.3269 -1.5690
39695SOL     OW23540   5.870   2.036   5.694  0.2382  0.5416  0.5123
39695SOL    HW123541   5.795   2.022   5.752  0.4464  1.8483  1.1423
39695SOL    HW223542   5.852   2.121   5.653  1.2799  0.7829  0.5338
39696SOL     OW23543   6.334   3.829   2.498 -0.0467 -0.2096  0.4143
39696SOL    HW123544   6.404   3.878   2.454 -0.5514  0.9212  0.8529
39696SOL    HW223545   6.258   3.886   2.493 -0.9961 -1.4807 -0.1573
39697SOL     OW23546   0.086   6.537   7.888 -0.0390  0.1878 -0.5846
39697SOL    HW123547   0.099   6.442   7.892  0.4185  0.2719  0.2412
39697SOL    HW223548   0.063   6.555   7.797  2.5305 -0.4118 -1.4365
39698SOL     OW23549   4.194   3.723   1.418 -0.2608 -0.5437 -0.0023
39698SOL    HW123550   4.132   3.662   1.457 -0.1289 -0.4468  0.3634
39698SOL    HW223551   4.169   3.808   1.453 -0.5680 -0.3574 -0.6670
39699SOL     OW23552   5.253   0.867   3.442  0.2831 -0.1097 -0.4442
39699SOL    HW123553   5.206   0.784   3.437 -1.5384  0.8848 -0.7689
39699SOL    HW223554   5.185   0.932   3.459  1.4927  1.4625 -1.3095
39700SOL     OW23555   8.448   2.059   7.912 -0.0242 -0.2453  0.2884
39700SOL    HW123556   8.441   2.153   7.894 -1.6602 -0.5591 -0.9338
39700SOL    HW223557   8.368   2.039   7.962  0.1106 -1.0610  0.1786
39701SOL     OW23558   3.730   3.968   5.767  0.4679 -0.4855 -0.1955
39701SOL    HW123559   3.652   3.912   5.769  1.3030 -1.6945  0.2947
39701SOL    HW223560   3.702   4.048   5.724 -1.1415 -0.7440  0.2999
39702SOL     OW23561   9.695   1.262   3.225 -0.3984  0.0006 -0.3955
39702SOL    HW123562   9.601   1.277   3.233 -0.3857 -0.6757  1.5535
39702SOL    HW223563   9.728   1.269   3.315  1.7665  2.2778 -1.2644
39703SOL     OW23564   3.671   2.187   6.852 -0.1895 -0.1048 -0.0400
39703SOL    HW123565   3.682   2.112   6.793  1.3685 -0.6853  0.9243
39703SOL    HW223566   3.582   2.178   6.886 -0.1499 -1.3333 -0.2097
39704SOL     OW23567   2.007   9.963   1.111  0.2618  0.3699 -0.4188
39704SOL    HW123568   2.000  10.043   1.060 -0.7394 -0.0452 -0.9829
39704SOL    HW223569   1.982   9.989   1.200  0.8768  0.8659 -0.3857
39705SOL     OW23570   5.462   2.980   8.795 -0.0812 -0.1828  0.2277
39705SOL    HW123571   5.537   2.928   8.764  0.0894  1.1044 -1.6315
39705SOL    HW223572   5.439   3.036   8.721 -2.5739 -0.1639  0.9429
39706SOL     OW23573   6.440   6.511   6.018  0.1333 -0.1276 -0.0264
39706SOL    HW123574   6.359   6.528   6.067  1.0050 -0.8605  1.7477
39706SOL    HW223575   6.429   6.422   5.984  0.6831 -0.7190  1.2904
39707SOL     OW23576   4.141   0.253   7.296  0.2005 -0.6807 -0.3593
39707SOL    HW123577   4.226   0.285   7.267  1.4692 -1.2435  2.3750
39707SOL    HW223578   4.114   0.315   7.364 -0.0743 -2.1522  0.9285
39708SOL     OW23579   1.974   8.021   0.990  0.4020 -0.0006 -0.1057
39708SOL    HW123580   1.881   8.003   1.006 -0.0810  1.4750 -1.0252
39708SOL    HW223581   2.006   8.058   1.072 -0.1256  0.5580 -0.1495
39709SOL     OW23582   2.435   9.212   4.844 -0.3424  0.2638 -0.2895
39709SOL    HW123583   2.483   9.195   4.925 -0.4790  0.4328 -0.1733
39709SOL    HW223584   2.454   9.303   4.823  3.7900 -0.9472 -3.1345
39710SOL     OW23585   1.993   4.971   6.576  0.4973 -0.0443 -0.0882
39710SOL    HW123586   1.935   4.954   6.502  0.8364 -0.5833 -0.2348
39710SOL    HW223587   2.058   5.031   6.542  0.3538  0.1172 -0.0800
39711SOL     OW23588  10.786   7.120   3.980  0.1561 -0.4144 -0.2203
39711SOL    HW123589  10.755   7.075   4.058  0.9485  0.6423  0.7417
39711SOL    HW223590  10.882   7.115   3.985  0.2281  0.1255 -0.8308
39712SOL     OW23591   1.252   1.181   5.132 -0.1856  0.1198 -0.2851
39712SOL    HW123592   1.333   1.154   5.174  0.2161  3.0489  1.0858
39712SOL    HW223593   1.197   1.212   5.204 -1.5953  0.3883 -1.4366
39713SOL     OW23594   1.614   3.996   8.069 -0.0609  0.3468  0.2137
39713SOL    HW123595   1.634   3.919   8.017 -1.1187  0.6249 -0.6421
39713SOL    HW223596   1.594   3.963   8.157  3.2317 -0.0140  0.9500
39714SOL     OW23597   8.974   6.528   3.052  0.2849  0.0422  0.3054
39714SOL    HW123598   9.057   6.554   3.011 -0.2016 -0.6070 -1.1886
39714SOL    HW223599   8.998   6.452   3.106  1.0164  1.1720  1.6208
39715SOL     OW23600   8.772   5.445   1.483 -0.0795 -0.5562  0.4053
39715SOL    HW123601   8.828   5.441   1.560  1.0315  1.2308 -0.2435
39715SOL    HW223602   8.798   5.370   1.430  1.6056  0.1109  0.2151
39716SOL     OW23603  10.166   4.467   6.726 -0.2398 -0.8601  0.4275
39716SOL    HW123604  10.255   4.465   6.759  0.0337  0.6731 -0.1507
39716SOL    HW223605  10.111   4.461   6.804  0.3903  1.2253  1.0908
39717SOL     OW23606   5.251   5.105  10.855  0.1461  0.4937 -0.1493
39717SOL    HW123607   5.228   5.043  10.925 -0.1973 -0.7866 -1.3440
39717SOL    HW223608   5.334   5.073  10.820 -0.5211  0.0863 -1.4344
39718SOL     OW23609   2.104   4.568   9.334  0.2531  0.1816  0.1530
39718SOL    HW123610   2.050   4.608   9.403 -0.5193  1.9424 -1.3933
39718SOL    HW223611   2.042   4.517   9.281  0.8660 -1.2762  0.7820
39719SOL     OW23612   0.969   6.343   8.737 -0.2997  0.1455 -0.0184
39719SOL    HW123613   1.058   6.314   8.719  0.2809  1.0768  1.1708
39719SOL    HW223614   0.980   6.430   8.777 -1.5835 -0.4934  1.8782
39720SOL     OW23615   5.388   5.418   8.377  0.2416 -0.5905  0.1109
39720SOL    HW123616   5.308   5.469   8.360  0.7775  0.3760  0.3748
39720SOL    HW223617   5.374   5.379   8.463  0.7114  0.9872  0.9541
39721SOL     OW23618   9.898   0.138   0.372  0.4218  0.3436 -0.0802
39721SOL    HW123619   9.959   0.070   0.344 -0.5484 -1.3853  1.7693
39721SOL    HW223620   9.940   0.220   0.345  1.0021 -0.9296 -3.6289
39722SOL     OW23621   1.671   3.884  10.430  0.0042  0.1281 -0.1001
39722SOL    HW123622   1.601   3.892  10.365 -2.0370 -0.9371  1.8294
39722SOL    HW223623   1.638   3.932  10.506  1.9520  0.6409  0.4555
39723SOL     OW23624   5.389   8.940   6.401 -0.8974  0.7153 -0.0215
39723SOL    HW123625   5.301   8.966   6.428 -1.1681 -0.9891  0.9133
39723SOL    HW223626   5.416   8.876   6.467  0.8478  0.8338 -0.5715
39724SOL     OW23627   1.673   8.829   0.670 -0.1757  0.3065 -0.8265
39724SOL    HW123628   1.641   8.803   0.583  1.0230 -3.4041 -0.3636
39724SOL    HW223629   1.754   8.778   0.681  0.9955  2.4952  1.5618
39725SOL     OW23630  10.016   1.839   4.743  0.1625 -1.0642 -0.1852
39725SOL    HW123631  10.109   1.856   4.752 -0.2011  0.9717  0.0821
39725SOL    HW223632  10.001   1.759   4.795  1.6460 -1.1263  0.1867
39726SOL     OW23633   9.760   7.376   2.090 -0.4630 -0.1022  0.3770
39726SOL    HW123634   9.772   7.468   2.065  2.4184 -0.4826 -0.0454
39726SOL    HW223635   9.665   7.362   2.088 -1.0260  2.9945  1.0603
39727SOL     OW23636   3.705   9.597   5.854 -0.2673  0.1151 -0.7328
39727SOL    HW123637   3.777   9.554   5.900 -1.0187 -2.4722 -1.8121
39727SOL    HW223638   3.634   9.598   5.918  0.0394  0.6980 -0.3868
39728SOL     OW23639   1.000   5.911   8.998  0.3686  0.0124  0.5389
39728SOL    HW123640   1.007   5.940   9.089  0.0867 -0.7206  0.8062
39728SOL    HW223641   0.963   5.822   9.004  0.2885 -0.0207 -0.2911
39729SOL     OW23642   8.014   7.046   0.505 -0.0854  0.3208 -0.7696
39729SOL    HW123643   8.063   7.001   0.573 -2.0373  0.1087  0.5777
39729SOL    HW223644   7.956   6.978   0.469 -1.0250  1.0739 -0.7070
39730SOL     OW23645  10.839   3.017   1.571 -0.1089  0.5370  0.3601
39730SOL    HW123646  10.784   2.939   1.561  0.1354  0.2029  1.5158
39730SOL    HW223647  10.893   3.018   1.492  0.5459 -1.0131  0.7543
39731SOL     OW23648   8.380   8.941   7.171  0.5891  0.1437  0.2423
39731SOL    HW123649   8.436   9.000   7.222 -0.9237  0.5856  1.4624
39731SOL    HW223650   8.323   8.999   7.120  1.9269 -0.2925 -1.8959
39732SOL     OW23651   1.366  10.667   4.132 -0.2237 -0.5310 -0.4335
39732SOL    HW123652   1.314  10.729   4.081  2.6900  1.3864 -1.2886
39732SOL    HW223653   1.317  10.658   4.214 -2.3533  0.3925 -1.5188
39733SOL     OW23654   0.617   1.629   0.013 -0.0847 -0.6372 -0.2752
39733SOL    HW123655   0.639   1.669   0.098  0.9342 -0.7016 -0.4962
39733SOL    HW223656   0.532   1.589   0.027 -0.7156  0.8152  0.2293
39734SOL     OW23657   4.708   7.232   0.758  0.4485 -0.2286 -0.1246
39734SOL    HW123658   4.759   7.184   0.823  0.9809 -1.2375 -1.2380
39734SOL    HW223659   4.767   7.301   0.727 -0.0343  0.6661  0.9025
39735SOL     OW23660   2.843   1.387   2.054  0.3522  0.3865  0.1624
39735SOL    HW123661   2.798   1.396   1.970  0.1353  1.2237  0.3598
39735SOL    HW223662   2.825   1.469   2.100 -2.0183 -1.2039  2.2710
39736SOL     OW23663   9.396   6.323   8.447  0.0391  0.3019 -0.3958
39736SOL    HW123664   9.342   6.248   8.474 -0.6455 -0.9205 -4.4740
39736SOL    HW223665   9.485   6.289   8.442  0.0864  0.3904 -0.1629
39737SOL     OW23666   9.246   8.240   7.112 -0.5535  0.2303 -0.2570
39737SOL    HW123667   9.232   8.315   7.169  0.0994 -0.3758  0.7199
39737SOL    HW223668   9.210   8.165   7.159 -1.4270 -0.0550 -1.3285
39738SOL     OW23669   6.243   1.924   1.046  0.4377  0.3234  0.0037
39738SOL    HW123670   6.268   1.996   0.987 -0.6503  0.3225 -0.5018
39738SOL    HW223671   6.257   1.845   0.994  1.1421  0.1922  0.3790
39739SOL     OW23672  10.768   0.607   3.930  0.1358  0.0368  0.1754
39739SOL    HW123673  10.804   0.601   4.018  2.8181  0.0153 -0.8290
39739SOL    HW223674  10.701   0.676   3.936  0.2544  0.0260  2.2077
39740SOL     OW23675   8.874   7.684   0.964 -0.1965  0.1081 -0.5250
39740SOL    HW123676   8.783   7.675   0.936 -0.5463 -0.1263  0.6237
39740SOL    HW223677   8.924   7.691   0.882 -1.2705  0.5504 -1.1597
39741SOL     OW23678   5.316   0.145   2.816 -0.0726  0.2258 -0.1517
39741SOL    HW123679   5.358   0.123   2.733  0.2218 -0.7430  0.2391
39741SOL    HW223680   5.241   0.085   2.821  0.6589 -0.6424  0.8690
39742SOL     OW23681   4.634  10.088   9.659  0.7688  0.9051 -0.5722
39742SOL    HW123682   4.595  10.168   9.694  2.1064  1.6505 -0.7363
39742SOL    HW223683   4.715  10.117   9.617 -0.3695 -0.0111 -3.6952
39743SOL     OW23684   2.039  10.632   3.562 -0.1654 -0.1531  0.3020
39743SOL    HW123685   2.049  10.726   3.545  0.1305 -0.1443  0.5188
39743SOL    HW223686   2.041  10.592   3.475 -0.1050  0.0244  0.2212
39744SOL     OW23687   5.153   5.475   1.427  0.2379 -0.1728 -0.1891
39744SOL    HW123688   5.162   5.546   1.490 -1.1927  0.5594 -0.7688
39744SOL    HW223689   5.233   5.423   1.438  0.1858  0.1042  1.9862
39745SOL     OW23690   3.441   9.109   5.631  0.0833  0.5099  0.2010
39745SOL    HW123691   3.529   9.109   5.670  0.2034  1.0952 -0.0502
39745SOL    HW223692   3.391   9.169   5.687 -0.8174 -1.5271  1.7261
39746SOL     OW23693   5.581   7.634   5.815 -0.0210  0.4573  0.0519
39746SOL    HW123694   5.576   7.543   5.845  2.8463  0.4871  0.9123
39746SOL    HW223695   5.638   7.631   5.738  2.1700  1.7015  1.4977
39747SOL     OW23696   4.403   7.374   8.262  0.8841 -0.5879 -0.6748
39747SOL    HW123697   4.374   7.332   8.181  0.3843 -0.1353 -0.7373
39747SOL    HW223698   4.330   7.431   8.287  2.2642  1.7613 -1.6510
39748SOL     OW23699   3.323  11.013   0.221 -0.1131 -0.1689  0.2848
39748SOL    HW123700   3.235  11.049   0.229 -0.0870 -0.1804  0.6078
39748SOL    HW223701   3.312  10.933   0.169 -0.3761 -0.4967  0.8383
39749SOL     OW23702   0.421   6.531   8.381  0.0789  0.5127 -0.4627
39749SOL    HW123703   0.491   6.466   8.386  1.1848  1.3953 -3.0111
39749SOL    HW223704   0.466   6.615   8.392 -1.0560  0.9905  0.8220
39750SOL     OW23705   8.291   8.618   0.799 -0.1355  0.7453  0.2649
39750SOL    HW123706   8.213   8.614   0.855 -1.0172  1.6248 -0.8333
39750SOL    HW223707   8.272   8.688   0.737  0.3138 -0.8730 -1.8243
39751SOL     OW23708  10.613   2.422   0.514  0.2333  0.1790  0.0825
39751SOL    HW123709  10.640   2.504   0.474  0.0690  0.1154 -0.1645
39751SOL    HW223710  10.641   2.355   0.452 -0.7794  0.1349 -0.3471
39752SOL     OW23711   8.674  10.464   7.023 -0.7372  0.3642 -0.0010
39752SOL    HW123712   8.677  10.404   6.948 -0.1066  0.6158 -0.1795
39752SOL    HW223713   8.765  10.489   7.038 -1.0243  1.5931 -0.1834
39753SOL     OW23714   3.927   8.615   0.718  0.1571  0.5739 -0.5937
39753SOL    HW123715   3.877   8.688   0.684  0.7442  0.9894 -0.5832
39753SOL    HW223716   3.950   8.563   0.641 -1.6468 -0.5207 -0.4522
39754SOL     OW23717   0.472   9.747   0.856  0.1459  0.0206 -0.3543
39754SOL    HW123718   0.558   9.721   0.824  0.1836 -1.1673  0.6601
39754SOL    HW223719   0.486   9.831   0.901  0.9509 -0.6224  0.6160
39755SOL     OW23720   0.166   5.036   8.781 -0.0104  0.0957  0.9725
39755SOL    HW123721   0.110   5.024   8.857 -1.7143  0.7094 -0.1215
39755SOL    HW223722   0.123   5.106   8.731  2.3545  1.4022  0.6351
39756SOL     OW23723   1.730   0.444  10.983 -0.5091 -0.1460 -0.6814
39756SOL    HW123724   1.646   0.415  11.019 -0.9067  2.5901  0.7748
39756SOL    HW223725   1.713   0.531  10.948  1.9236  0.9283  0.5887
39757SOL     OW23726   7.639   3.967   6.947 -0.5745  0.0279  0.0212
39757SOL    HW123727   7.696   3.921   7.009  3.4961  5.1702  0.7633
39757SOL    HW223728   7.682   3.954   6.862 -0.6710  0.6186 -0.1181
39758SOL     OW23729  10.979   9.936   4.211  0.2475 -0.5294 -0.0888
39758SOL    HW123730  11.045   9.867   4.201  0.2887 -0.4025 -0.7326
39758SOL    HW223731  10.903   9.904   4.162  0.3650 -0.0026 -0.6391
39759SOL     OW23732   4.948   8.153   4.995 -0.6587 -0.2623  0.3381
39759SOL    HW123733   4.932   8.210   4.920 -0.0287  1.4748  1.4592
39759SOL    HW223734   5.041   8.165   5.015 -0.8211 -0.6738  1.4197
39760SOL     OW23735   4.747   2.190   3.790  1.0314  0.4626  0.5524
39760SOL    HW123736   4.731   2.128   3.860 -0.2054 -1.7493 -1.5344
39760SOL    HW223737   4.726   2.142   3.710  0.0215  3.5799 -1.2299
39761SOL     OW23738   9.188   7.256   8.765 -0.0708  0.0477  0.1838
39761SOL    HW123739   9.250   7.192   8.731 -1.3111 -0.8824 -0.4017
39761SOL    HW223740   9.123   7.265   8.696 -0.9828  0.4414  1.0739
39762SOL     OW23741   3.860   8.835   5.160  0.1782  0.6547 -0.1963
39762SOL    HW123742   3.812   8.771   5.213  0.6865  0.1564 -0.3272
39762SOL    HW223743   3.951   8.827   5.190  0.5274  0.1567 -1.3511
39763SOL     OW23744   8.071   0.785  10.762 -0.3307  0.0188  0.2370
39763SOL    HW123745   8.135   0.854  10.780  1.0622 -0.8240 -1.1420
39763SOL    HW223746   8.060   0.787  10.667 -1.5522 -0.5792  0.3416
39764SOL     OW23747  10.605   2.395   4.189  0.2341 -0.0154 -0.3508
39764SOL    HW123748  10.662   2.343   4.132 -0.2867 -0.8561 -0.1173
39764SOL    HW223749  10.650   2.396   4.273  0.2799 -0.0164 -0.3748
39765SOL     OW23750   7.754   8.573   4.149  0.0958 -0.3068  0.2634
39765SOL    HW123751   7.734   8.505   4.084  0.7515 -0.1547 -0.0997
39765SOL    HW223752   7.737   8.530   4.234  0.3821 -0.8853  0.0347
39766SOL     OW23753   2.874  10.281   8.596 -0.3202 -0.4259  0.1690
39766SOL    HW123754   2.781  10.270   8.612 -0.5936  1.6128  0.2718
39766SOL    HW223755   2.889  10.375   8.605  1.6356 -0.6258 -0.4463
39767SOL     OW23756   7.951   5.090   1.469 -0.1635  0.0918 -0.3706
39767SOL    HW123757   7.954   4.995   1.454 -2.3059 -0.2552  0.9191
39767SOL    HW223758   8.030   5.109   1.520 -0.8702 -1.4706  1.4376
39768SOL     OW23759   9.345   5.458   6.897 -0.3026  0.2988  0.0181
39768SOL    HW123760   9.258   5.487   6.868 -0.6918 -0.7086  0.1411
39768SOL    HW223761   9.392   5.539   6.915 -1.6597  0.8573  1.2528
39769SOL     OW23762   1.260   9.200   3.855 -0.3178  0.2869 -0.3203
39769SOL    HW123763   1.276   9.293   3.867  0.1017  0.1295  0.3857
39769SOL    HW223764   1.347   9.161   3.846 -0.4559 -0.1189  0.0547
39770SOL     OW23765   8.485   4.215   3.445 -0.4374 -0.4338  0.2446
39770SOL    HW123766   8.450   4.137   3.402  0.6537  0.8727 -3.4253
39770SOL    HW223767   8.427   4.286   3.416  1.4770  0.8107 -0.7541
39771SOL     OW23768   7.236   6.306   4.103  0.1283 -0.5193  0.6077
39771SOL    HW123769   7.201   6.221   4.079 -0.7548 -0.5219  1.8354
39771SOL    HW223770   7.322   6.309   4.061 -0.7965 -1.0094 -1.4371
39772SOL     OW23771   3.515  10.923   4.148 -0.4596  0.5147 -0.0013
39772SOL    HW123772   3.451  10.862   4.185 -1.2622  0.2349 -1.7281
39772SOL    HW223773   3.591  10.868   4.128 -0.6876  0.3280 -0.3630
39773SOL     OW23774   1.018   6.770   0.930 -0.9878 -0.5542 -0.4372
39773SOL    HW123775   0.992   6.849   0.882  1.4991  0.6193 -0.0159
39773SOL    HW223776   1.078   6.725   0.870 -0.2541 -0.6694  0.3677
39774SOL     OW23777   5.767   6.249   6.900 -0.3592 -0.2814  1.1210
39774SOL    HW123778   5.777   6.170   6.953 -0.6278  0.2466  1.9804
39774SOL    HW223779   5.681   6.283   6.924  0.0141  0.6127  1.2470
39775SOL     OW23780   2.574   1.603   8.729  0.3217  0.0440  0.2859
39775SOL    HW123781   2.603   1.512   8.738  0.4566 -0.1451 -1.6404
39775SOL    HW223782   2.494   1.597   8.676  0.2386  1.0381  0.2857
39776SOL     OW23783   7.224  11.051   5.442 -0.4479  0.0638  0.2037
39776SOL    HW123784   7.169  11.095   5.506 -0.7603 -0.5452  0.3666
39776SOL    HW223785   7.264  10.979   5.491  0.1278  0.2204 -0.0307
39777SOL     OW23786   1.446   7.746   8.907  0.0795 -0.0656 -0.2309
39777SOL    HW123787   1.389   7.754   8.984  0.5630  0.3591  0.0906
39777SOL    HW223788   1.533   7.728   8.944 -0.1472 -2.6537 -0.7487
39778SOL     OW23789   5.670  10.635   3.587 -0.4605 -0.2883 -0.6465
39778SOL    HW123790   5.613  10.671   3.518  0.4736 -0.2121 -1.4098
39778SOL    HW223791   5.616  10.634   3.665 -1.5513 -0.3451 -1.3815
39779SOL     OW23792   7.120   0.796   0.814 -0.4584 -0.2089  0.1400
39779SOL    HW123793   7.196   0.766   0.864  0.1180  1.0835  0.0811
39779SOL    HW223794   7.072   0.716   0.793  0.8615 -1.0578  0.2186
39780SOL     OW23795   5.766   1.933   4.203  0.0510 -0.5910 -0.3127
39780SOL    HW123796   5.766   1.872   4.129 -2.8593 -1.0881 -0.0062
39780SOL    HW223797   5.748   1.878   4.279  0.9136  0.2156  0.4949
39781SOL     OW23798   7.496   6.440   6.126 -0.0987  0.4226 -0.1555
39781SOL    HW123799   7.457   6.523   6.155  0.8127  0.9792 -0.4610
39781SOL    HW223800   7.461   6.374   6.185 -2.4716  0.6932 -1.1744
39782SOL     OW23801   3.338   2.864   9.893 -0.0815  0.4332 -0.0199
39782SOL    HW123802   3.418   2.814   9.878 -1.1461 -1.2200 -0.4287
39782SOL    HW223803   3.366   2.939   9.946  1.5374 -0.7209  0.8488
39783SOL     OW23804   5.699   1.375   5.697  0.5939  0.1821 -0.1954
39783SOL    HW123805   5.707   1.418   5.782  0.5584 -0.1917 -0.0008
39783SOL    HW223806   5.789   1.353   5.673  0.6391  0.6014 -0.4212
39784SOL     OW23807   3.273   7.876   4.601 -0.2228 -0.1552  0.1164
39784SOL    HW123808   3.282   7.971   4.606  0.8503 -0.1637 -1.1645
39784SOL    HW223809   3.329   7.842   4.671 -1.4799  0.1419  1.3224
39785SOL     OW23810   6.448   2.295   5.168 -0.1121 -0.6282 -0.0293
39785SOL    HW123811   6.484   2.220   5.120  0.0239 -0.4528 -0.1999
39785SOL    HW223812   6.395   2.341   5.104  0.6931  0.0462 -0.2286
39786SOL     OW23813   2.748   5.318   5.097 -0.3959 -0.4239 -0.1160
39786SOL    HW123814   2.735   5.401   5.143  1.7458  2.3436 -3.8851
39786SOL    HW223815   2.829   5.283   5.133  0.0837  0.5563 -0.1899
39787SOL     OW23816   4.985   4.517   9.625 -0.7791 -0.0230 -0.9762
39787SOL    HW123817   4.960   4.607   9.603  0.8231  0.7549  0.2077
39787SOL    HW223818   4.975   4.513   9.721  1.9895 -0.1237 -0.6221
39788SOL     OW23819   4.344   7.137   1.003  0.2946 -0.1385  0.0005
39788SOL    HW123820   4.391   7.062   0.966  0.4940  0.1550 -0.3447
39788SOL    HW223821   4.391   7.158   1.084  0.5974 -0.0113 -0.2101
39789SOL     OW23822   0.417   9.327   2.019 -0.2927 -0.0385  0.0652
39789SOL    HW123823   0.491   9.342   1.961 -0.7121  1.3537 -0.1485
39789SOL    HW223824   0.348   9.384   1.985 -1.2972 -0.9071  0.5715
39790SOL     OW23825  10.711   7.723   4.121 -0.3305 -0.0791 -0.1037
39790SOL    HW123826  10.660   7.740   4.042 -1.2271 -1.3063  0.1828
39790SOL    HW223827  10.682   7.636   4.150  0.9118 -0.1997  0.8576
39791SOL     OW23828  11.024   8.193   7.269 -0.0304 -0.5343 -0.7237
39791SOL    HW123829  10.965   8.119   7.284  1.4851 -1.6518 -0.0503
39791SOL    HW223830  10.974   8.269   7.300 -1.6630 -1.2302 -1.5206
39792SOL     OW23831   7.000   5.445  10.035 -0.4753 -0.3851  0.0545
39792SOL    HW123832   6.941   5.510   9.999 -0.4330 -1.3348 -1.8749
39792SOL    HW223833   7.071   5.496  10.075 -0.3940  0.7659 -1.4748
39793SOL     OW23834  10.201   4.957  10.520  0.2599 -0.2224  0.3189
39793SOL    HW123835  10.282   5.006  10.537 -1.1114  2.2593  0.1864
39793SOL    HW223836  10.196   4.951  10.425 -0.0371  0.2743  0.2972
39794SOL     OW23837   4.074   4.476   8.067 -0.3368  0.2762  0.1422
39794SOL    HW123838   4.163   4.442   8.077 -0.6723 -0.1800  1.7241
39794SOL    HW223839   4.064   4.487   7.972  1.1373 -0.3647 -0.1193
39795SOL     OW23840   0.417   4.369   5.234  0.3560 -0.0848  0.4749
39795SOL    HW123841   0.445   4.358   5.144  0.4383  0.9965  0.3523
39795SOL    HW223842   0.432   4.284   5.275  3.0757  0.1913  0.2012
39796SOL     OW23843   8.015   3.385   6.963 -0.0359  0.2562  0.5800
39796SOL    HW123844   7.969   3.305   6.988 -1.1460  1.1298  1.3869
39796SOL    HW223845   7.993   3.398   6.871  2.0362 -1.5981 -0.2694
39797SOL     OW23846   2.776   1.288   2.567 -0.0852  0.8966  0.0626
39797SOL    HW123847   2.774   1.358   2.502 -1.5503  0.7637 -0.0760
39797SOL    HW223848   2.739   1.212   2.523  1.6491 -0.0577  0.1602
39798SOL     OW23849   7.933   7.026   5.759 -0.0621  0.0202  0.1645
39798SOL    HW123850   7.884   7.029   5.841  0.5520  0.7549  0.5283
39798SOL    HW223851   8.025   7.020   5.786  0.0412 -1.8764 -0.5019
39799SOL     OW23852  10.634   8.154   8.575  0.3471 -0.3927  0.0797
39799SOL    HW123853  10.706   8.137   8.515  0.0352 -1.2637 -0.0579
39799SOL    HW223854  10.556   8.159   8.519 -0.0579 -1.9605  0.4669
39800SOL     OW23855   1.739   7.877   4.115 -0.0284  0.3424 -0.1828
39800SOL    HW123856   1.735   7.844   4.205 -3.3336  1.5228  0.2498
39800SOL    HW223857   1.740   7.798   4.061  0.7310 -0.3876  0.8517
39801SOL     OW23858   1.510   3.732   4.884  0.2245 -0.1239 -0.0969
39801SOL    HW123859   1.558   3.711   4.804 -0.3331 -0.9446 -0.2367
39801SOL    HW223860   1.507   3.649   4.932  0.3310  0.3031  0.6550
39802SOL     OW23861   0.005   8.802   6.954  0.0815  0.3400  0.2558
39802SOL    HW123862  -0.079   8.763   6.976  0.6441 -0.6284  0.7182
39802SOL    HW223863   0.070   8.747   6.996  0.8785  2.7281  2.4109
39803SOL     OW23864   0.243  10.020   4.604  0.0476 -0.6106 -0.2781
39803SOL    HW123865   0.182   9.978   4.543  0.3577 -1.8366  0.2167
39803SOL    HW223866   0.288   9.947   4.647 -1.7841  0.0620  3.1283
39804SOL     OW23867   1.096   5.256   7.948 -0.9024  0.3110  0.0686
39804SOL    HW123868   1.153   5.327   7.918  0.4787 -0.6492  0.3146
39804SOL    HW223869   1.010   5.296   7.957 -0.2516  1.8389 -0.2246
39805SOL     OW23870   1.613   3.629   1.070 -0.0929 -0.2628  0.5629
39805SOL    HW123871   1.641   3.691   1.003  0.5183 -0.7723  0.3419
39805SOL    HW223872   1.605   3.545   1.024 -0.3318 -0.4752  0.9818
39806SOL     OW23873   5.149  10.714   8.939  0.6642  0.0593 -0.2542
39806SOL    HW123874   5.231  10.737   8.895  2.2811 -1.9653  1.5148
39806SOL    HW223875   5.158  10.622   8.961 -1.4261  0.1940  1.4678
39807SOL     OW23876  10.231   0.770   7.481 -0.2857  0.0480  0.3425
39807SOL    HW123877  10.219   0.675   7.489  0.2881  0.0302  1.0539
39807SOL    HW223878  10.180   0.807   7.553  0.1370  0.2309  0.5519
39808SOL     OW23879   1.510   0.842   9.721 -0.4109 -0.1027 -0.2953
39808SOL    HW123880   1.488   0.920   9.671  0.9749 -0.4440 -1.5111
39808SOL    HW223881   1.521   0.773   9.656  1.0502 -0.6566  0.4676
39809SOL     OW23882   4.290   1.630   1.280  0.3983 -0.3627 -0.6648
39809SOL    HW123883   4.354   1.701   1.289  1.7955 -1.5674 -0.9305
39809SOL    HW223884   4.284   1.593   1.368 -0.3778  0.0797 -0.5141
39810SOL     OW23885   2.961   2.041   1.070  0.0514 -0.1844  0.0418
39810SOL    HW123886   2.911   1.971   1.027 -2.3034  1.4575 -0.0584
39810SOL    HW223887   2.916   2.054   1.154 -1.3678  2.9838 -1.0509
39811SOL     OW23888   1.013   7.563   3.738 -0.2674 -0.2712  0.2478
39811SOL    HW123889   0.972   7.563   3.825  0.5286  0.2767  0.6375
39811SOL    HW223890   1.037   7.471   3.723 -1.5765 -0.5922  0.0255
39812SOL     OW23891   7.684   8.275   7.071  0.0853  0.3741 -0.1610
39812SOL    HW123892   7.647   8.356   7.106 -0.7131 -0.3737  0.7895
39812SOL    HW223893   7.770   8.267   7.113 -0.8762 -0.5342  1.7629
39813SOL     OW23894   1.599   6.065  10.865 -0.2012  0.9020  0.2572
39813SOL    HW123895   1.642   6.150  10.852 -1.7403  1.9612  1.6390
39813SOL    HW223896   1.530   6.083  10.929 -0.8193 -1.3340  0.2966
39814SOL     OW23897   4.737   8.787   4.716 -0.0832  0.4595  0.2619
39814SOL    HW123898   4.769   8.732   4.787  2.0035  1.0776 -0.1188
39814SOL    HW223899   4.716   8.871   4.758 -0.1689  0.3915  0.3554
39815SOL     OW23900   7.081   7.228   7.982  0.8238 -0.1139 -0.4519
39815SOL    HW123901   7.143   7.174   8.031  1.2444 -0.6272 -1.5240
39815SOL    HW223902   7.109   7.220   7.891 -0.9391 -0.5234 -0.9929
39816SOL     OW23903   9.903   3.812   9.272 -0.0459 -0.4216 -0.1163
39816SOL    HW123904   9.899   3.849   9.183  1.2120  0.5279  0.1761
39816SOL    HW223905   9.995   3.820   9.296 -0.1925 -1.5925  0.9093
39817SOL     OW23906   8.871   2.699   3.134 -0.3572 -0.1160  0.7639
39817SOL    HW123907   8.813   2.751   3.189 -0.5001 -0.5980  1.0746
39817SOL    HW223908   8.919   2.643   3.196  0.2640  0.1067  0.4944
39818SOL     OW23909   9.528   4.683   1.434 -0.0100 -0.0027 -0.0524
39818SOL    HW123910   9.493   4.708   1.348  0.5536 -1.4222 -0.7392
39818SOL    HW223911   9.621   4.670   1.419  0.3975  1.2817  1.1759
39819SOL     OW23912   2.509   2.136   0.437  0.3255  0.2645 -1.1744
39819SOL    HW123913   2.431   2.083   0.453  1.5860 -1.6047 -0.9477
39819SOL    HW223914   2.480   2.203   0.376 -1.2106 -1.0628 -1.9800
39820SOL     OW23915   9.450   9.912   1.777  0.3353  0.1715  0.1256
39820SOL    HW123916   9.527   9.855   1.777  0.4347  0.1636  3.2832
39820SOL    HW223917   9.485  10.000   1.764  0.6592  0.0016 -0.1827
39821SOL     OW23918   7.838   0.660   2.064  0.1857 -0.5453 -0.2671
39821SOL    HW123919   7.908   0.724   2.080  0.6872 -0.5997 -1.9645
39821SOL    HW223920   7.776   0.674   2.135  0.4192  1.6581 -0.3980
39822SOL     OW23921   2.129   9.858   6.051  0.2339 -0.1333 -1.2796
39822SOL    HW123922   2.112   9.833   5.960  0.0989 -0.7321 -1.0957
39822SOL    HW223923   2.055   9.822   6.100  1.6407 -2.2340 -0.5565
39823SOL     OW23924   5.157   1.477   0.465  0.1051  0.1525 -0.5304
39823SOL    HW123925   5.244   1.500   0.498 -1.0514  1.2633  1.9809
39823SOL    HW223926   5.115   1.431   0.537 -1.8136  0.6604 -1.2667
39824SOL     OW23927   0.590   2.562   5.601 -0.7627 -0.2050 -0.2883
39824SOL    HW123928   0.607   2.650   5.569 -1.7570  0.3435  0.6435
39824SOL    HW223929   0.551   2.517   5.525  2.6010 -0.8832 -1.8038
39825SOL     OW23930   9.868   8.397   8.164  0.3031 -0.5448  0.1688
39825SOL    HW123931   9.961   8.420   8.166  0.1346  0.1624  1.8435
39825SOL    HW223932   9.862   8.319   8.220  0.1529 -1.8851 -1.6191
39826SOL     OW23933   8.377   3.036   7.817 -0.2014  0.0436 -0.3842
39826SOL    HW123934   8.431   3.086   7.756  0.9292  0.3996  0.8602
39826SOL    HW223935   8.302   3.094   7.834  0.1308  0.4977 -0.4373
39827SOL     OW23936   8.375   4.425   9.399 -0.2367 -0.6692 -0.0397
39827SOL    HW123937   8.463   4.462   9.407 -0.8198  0.4753  1.3591
39827SOL    HW223938   8.387   4.332   9.420  0.3626 -0.1644  2.0772
39828SOL     OW23939   4.464   9.478   0.141 -0.1763  0.1629 -0.4694
39828SOL    HW123940   4.380   9.433   0.133  0.7395 -1.5242 -1.0624
39828SOL    HW223941   4.445   9.570   0.121 -2.0161 -0.0262  0.2699
39829SOL     OW23942   5.948   2.714   2.929 -0.6168 -0.4000 -0.2328
39829SOL    HW123943   5.879   2.746   2.988 -0.3850 -0.1419 -0.0951
39829SOL    HW223944   5.948   2.777   2.857 -0.1478 -0.0779  0.0462
39830SOL     OW23945   8.576   7.423   3.118  0.2517  0.0140  0.2206
39830SOL    HW123946   8.494   7.374   3.117  0.2086  0.0888 -0.4245
39830SOL    HW223947   8.625   7.389   3.043  0.5040  0.4813  0.1697
39831SOL     OW23948   1.594   0.882   7.575  0.3051  0.2876 -0.8176
39831SOL    HW123949   1.595   0.956   7.635 -0.0745  1.2895 -2.0187
39831SOL    HW223950   1.686   0.855   7.570  0.1962 -0.6553  1.1737
39832SOL     OW23951   6.219   0.655   7.616  0.9391 -0.2462  0.4121
39832SOL    HW123952   6.195   0.580   7.670 -0.0425  0.7769  1.4452
39832SOL    HW223953   6.180   0.730   7.660  1.4764  0.8253 -0.8632
39833SOL     OW23954   9.833   0.397   0.184 -0.4270 -0.0292 -0.4303
39833SOL    HW123955   9.813   0.430   0.271 -1.2323 -2.2912  0.2986
39833SOL    HW223956   9.759   0.424   0.130  0.8147  2.7737 -0.8874
39834SOL     OW23957   8.302  10.121  10.594  0.5495 -0.0383  0.1321
39834SOL    HW123958   8.248  10.069  10.535  0.5255  0.8236 -0.6233
39834SOL    HW223959   8.239  10.159  10.656  0.2686  0.9496 -0.7362
39835SOL     OW23960   0.802   2.723   3.467  0.1443 -0.4520 -1.1092
39835SOL    HW123961   0.828   2.686   3.383 -1.8392  0.4533 -2.1992
39835SOL    HW223962   0.866   2.690   3.530  1.0558 -2.0116 -2.7927
39836SOL     OW23963   9.081   0.384   8.711  0.3480 -0.0555  0.2019
39836SOL    HW123964   9.144   0.414   8.646  0.4829  1.8014  1.1097
39836SOL    HW223965   9.050   0.465   8.753 -1.7860 -0.9882  0.5647
39837SOL     OW23966   0.400   9.196   2.628  0.1886  0.0941  0.4597
39837SOL    HW123967   0.486   9.234   2.649  0.1068  0.6139 -0.1069
39837SOL    HW223968   0.415   9.147   2.547 -0.0823  0.3451  0.2528
39838SOL     OW23969   4.943   9.306   2.693 -0.0362  0.4311 -0.4141
39838SOL    HW123970   4.992   9.256   2.759  0.1466 -0.8764 -1.4900
39838SOL    HW223971   4.880   9.357   2.744  1.7505  1.4244  0.9419
39839SOL     OW23972   2.894   0.661   3.517  0.2130 -0.1632 -0.1032
39839SOL    HW123973   2.838   0.733   3.488 -0.8621 -1.3273 -1.0272
39839SOL    HW223974   2.838   0.584   3.511  1.1007 -0.9844  1.6017
39840SOL     OW23975  10.397   3.646  10.771  0.1673  0.1490 -0.9391
39840SOL    HW123976  10.352   3.730  10.760 -0.2847 -0.0513 -0.6410
39840SOL    HW223977  10.354   3.605  10.846  1.1354  0.1324 -0.3779
39841SOL     OW23978   6.628   1.301   0.893 -0.2034  0.4435  0.5935
39841SOL    HW123979   6.635   1.371   0.827  0.9279 -0.3944 -0.2059
39841SOL    HW223980   6.718   1.286   0.921 -0.0252 -2.5503 -1.2490
39842SOL     OW23981   1.408   1.316   7.545  0.8747  0.5640 -0.1524
39842SOL    HW123982   1.355   1.257   7.599 -0.2572  0.9346 -0.8173
39842SOL    HW223983   1.496   1.280   7.548  0.3982 -0.5885  0.2561
39843SOL     OW23984   2.635   4.635   4.156 -0.1853  0.2393 -0.3455
39843SOL    HW123985   2.618   4.723   4.190  0.2451  1.0374 -2.0335
39843SOL    HW223986   2.567   4.622   4.090 -0.2358 -0.6963 -0.1153
39844SOL     OW23987   1.941   3.275   3.930  0.4175 -0.4290  0.6591
39844SOL    HW123988   1.958   3.324   3.849 -1.2805 -0.2436  0.3792
39844SOL    HW223989   1.997   3.198   3.924  0.9411  0.0028 -0.2850
39845SOL     OW23990   6.968   8.059   8.499 -0.2075  0.4068 -0.2183
39845SOL    HW123991   6.966   7.985   8.438  0.3388  0.6563 -0.5552
39845SOL    HW223992   7.060   8.087   8.498 -0.3168  0.7857  0.2725
39846SOL     OW23993   0.327   2.078  10.809  0.0995 -0.3753  0.1857
39846SOL    HW123994   0.365   2.152  10.855 -0.7381 -0.0293  0.3505
39846SOL    HW223995   0.387   2.059  10.738  0.3649  0.4047  0.2017
39847SOL     OW23996   7.837   1.999   8.548 -0.7841  0.6966 -0.3090
39847SOL    HW123997   7.880   1.935   8.491  1.7827 -0.1140  2.2849
39847SOL    HW223998   7.747   2.002   8.517 -0.0433 -1.2093 -3.0200
39848SOL     OW23999   1.332   7.898   1.603 -0.0131 -0.3428 -0.0229
39848SOL    HW124000   1.294   7.943   1.528 -0.4839 -0.7029 -0.0115
39848SOL    HW224001   1.257   7.853   1.643  0.6062 -2.0566 -0.6992
39849SOL     OW24002   5.743   3.643   7.501  0.2814 -0.4150  0.2514
39849SOL    HW124003   5.792   3.570   7.539  1.4958  0.0631 -0.3353
39849SOL    HW224004   5.693   3.604   7.430  2.6746 -0.3949 -1.5739
39850SOL     OW24005   0.989   6.241   5.667  0.8394  0.0100 -0.4432
39850SOL    HW124006   1.022   6.176   5.605  2.0766  0.1669  0.0252
39850SOL    HW224007   1.023   6.212   5.752  2.9756  2.2100 -0.4474
39851SOL     OW24008   9.258   7.196   9.576  0.3961  0.5880  0.3974
39851SOL    HW124009   9.193   7.163   9.638  0.6689  1.9657  1.4544
39851SOL    HW224010   9.210   7.205   9.494 -0.4841  0.6064  0.9043
39852SOL     OW24011   0.637   5.912  10.004 -0.4870 -0.1009  0.3863
39852SOL    HW124012   0.596   5.880   9.923  0.4749  0.0347 -0.1735
39852SOL    HW224013   0.729   5.886   9.996  0.2671  2.3898  0.0904
39853SOL     OW24014   7.334   2.689   1.069 -0.7323  0.4451 -0.6522
39853SOL    HW124015   7.302   2.632   0.999  2.7329 -0.1772 -1.8893
39853SOL    HW224016   7.354   2.771   1.026  0.6551  0.3305 -0.2651
39854SOL     OW24017   5.293   9.611   7.003 -0.4314  0.6502  0.0122
39854SOL    HW124018   5.317   9.540   7.062 -3.6269 -1.4261 -0.9384
39854SOL    HW224019   5.376   9.635   6.960  0.9507 -1.8287  1.0559
39855SOL     OW24020   2.931   5.925   6.539  0.4786  0.2695  0.3398
39855SOL    HW124021   2.877   5.875   6.600 -0.0286 -0.6005 -0.7834
39855SOL    HW224022   3.017   5.931   6.581  0.7403 -2.0936  0.2837
39856SOL     OW24023  10.719   4.836   4.849  0.5664 -0.4282  0.0091
39856SOL    HW124024  10.792   4.786   4.886  0.8650 -1.5752 -1.9731
39856SOL    HW224025  10.674   4.773   4.793  1.1503  1.5469 -2.8841
39857SOL     OW24026  10.393   6.531   4.397  0.1065  0.3253  0.3168
39857SOL    HW124027  10.403   6.441   4.367 -1.4214  0.6810 -1.5016
39857SOL    HW224028  10.335   6.525   4.473  1.7830 -0.3679  1.5957
39858SOL     OW24029   2.207   2.938   2.834 -0.2381 -1.1362  0.5974
39858SOL    HW124030   2.252   2.859   2.865  3.1579  0.3194 -0.1876
39858SOL    HW224031   2.210   2.998   2.908  0.4317 -0.5494  0.1128
39859SOL     OW24032   8.383   0.051   1.673 -0.3413 -0.0987 -0.4844
39859SOL    HW124033   8.290   0.034   1.655 -0.6687  0.5718  0.5004
39859SOL    HW224034   8.399   0.139   1.640 -0.6835  0.7246  1.3875
39860SOL     OW24035   8.931   7.845   7.523  0.2579  0.0015 -0.0827
39860SOL    HW124036   8.872   7.770   7.520  0.4315 -0.1083 -0.9365
39860SOL    HW224037   8.934   7.870   7.616 -1.6437  0.4341 -0.1096
39861SOL     OW24038   5.103   3.480   2.896 -0.1302  0.6347  0.7238
39861SOL    HW124039   5.141   3.470   2.983 -0.7413 -2.1189  0.7838
39861SOL    HW224040   5.174   3.454   2.836 -0.9917 -1.9701  0.7106
39862SOL     OW24041   5.186   8.705   6.982  0.4561 -0.0036 -0.5968
39862SOL    HW124042   5.259   8.751   7.024  0.7329 -0.5438 -0.4777
39862SOL    HW224043   5.148   8.770   6.923 -0.2533  0.9384  0.8200
39863SOL     OW24044   5.124   4.507   3.048 -0.2044 -0.0953  0.1066
39863SOL    HW124045   5.068   4.557   2.989 -1.4267  1.7423  2.6249
39863SOL    HW224046   5.149   4.570   3.117  2.3433 -1.7132  0.8019
39864SOL     OW24047   7.337   2.717   6.790  0.2126 -0.4843 -0.3642
39864SOL    HW124048   7.420   2.730   6.837  0.2432  0.0282 -0.5528
39864SOL    HW224049   7.351   2.636   6.740  0.6626 -0.3151 -0.5215
39865SOL     OW24050   6.261   4.963   9.765  0.3054  0.3718 -0.3775
39865SOL    HW124051   6.187   5.003   9.811  0.9589  0.4276  0.6841
39865SOL    HW224052   6.223   4.922   9.688 -1.0507 -0.8048  0.8658
39866SOL     OW24053   7.289   6.753  10.078 -0.0800  0.3539 -0.0824
39866SOL    HW124054   7.322   6.663  10.081 -1.8871 -0.3444  0.5583
39866SOL    HW224055   7.301   6.779   9.987  0.3749 -0.5809 -0.3105
39867SOL     OW24056   0.262   7.258  10.498 -0.0939  0.0298  0.0804
39867SOL    HW124057   0.190   7.283  10.440 -0.8780  1.3563  1.5557
39867SOL    HW224058   0.221   7.205  10.566  0.7687 -1.2707 -0.3777
39868SOL     OW24059   4.535   8.093   3.945 -0.5079 -0.0899  0.5449
39868SOL    HW124060   4.630   8.106   3.954 -0.6342  0.0042  1.8019
39868SOL    HW224061   4.527   8.008   3.902  0.1442  0.0210  0.1818
39869SOL     OW24062   8.136  10.803   3.827 -0.2959  0.2166 -0.2343
39869SOL    HW124063   8.203  10.867   3.802  0.7985 -0.4301  0.9237
39869SOL    HW224064   8.154  10.726   3.774  1.0824 -0.6144  1.3511
39870SOL     OW24065   6.339   1.010   6.683 -0.7011 -0.2390 -0.4473
39870SOL    HW124066   6.367   0.966   6.603 -1.1540  0.2889 -0.9019
39870SOL    HW224067   6.404   0.984   6.749 -0.7054 -1.2212 -0.8133
39871SOL     OW24068   8.165   6.906   3.332 -0.0872  0.2902  0.4171
39871SOL    HW124069   8.083   6.925   3.378  0.3398  1.1750  0.8584
39871SOL    HW224070   8.209   6.841   3.386 -1.1541 -1.3719 -0.6202
39872SOL     OW24071   1.515   3.270   3.698  0.4962  0.3344 -0.5140
39872SOL    HW124072   1.522   3.359   3.661  0.4139  0.0146 -1.3227
39872SOL    HW224073   1.459   3.223   3.636  0.9468 -0.4221 -0.3566
39873SOL     OW24074   3.428   6.338   6.793 -0.3504  0.8237  0.3205
39873SOL    HW124075   3.472   6.417   6.825 -0.6280  1.5330 -0.9567
39873SOL    HW224076   3.478   6.313   6.715 -1.2028  0.6799 -0.1952
39874SOL     OW24077   8.617   7.755   2.834 -0.1176  0.1958 -0.0434
39874SOL    HW124078   8.533   7.727   2.870  0.5524 -0.5019  1.0142
39874SOL    HW224079   8.660   7.674   2.806  1.0978  0.2849  1.4247
39875SOL     OW24080   1.597   3.305   3.343 -0.5850 -0.3063 -0.0555
39875SOL    HW124081   1.534   3.234   3.356  1.3176 -1.6928  2.4684
39875SOL    HW224082   1.548   3.384   3.365 -1.7716 -1.2071  0.7080
39876SOL     OW24083   5.323   3.979   8.615 -0.9892  0.0844 -0.1529
39876SOL    HW124084   5.343   3.886   8.607 -0.4445  0.2507 -0.7842
39876SOL    HW224085   5.352   4.018   8.533 -0.8967  0.8707  0.2366
39877SOL     OW24086   1.486   9.459   8.944 -0.6915  0.3144  0.6496
39877SOL    HW124087   1.454   9.486   9.030 -0.3960  0.5722  0.6807
39877SOL    HW224088   1.576   9.430   8.959 -1.5653 -2.5451  0.9559
39878SOL     OW24089   7.004   8.960   9.714  0.2120  0.7302  0.4688
39878SOL    HW124090   6.927   8.950   9.769 -1.1711  1.7931 -1.1919
39878SOL    HW224091   7.071   8.906   9.757 -0.7921  1.4182  3.0822
39879SOL     OW24092   6.163  10.046   1.516 -0.7658  0.4075 -0.2572
39879SOL    HW124093   6.228   9.985   1.552 -0.9859 -0.4471 -1.2597
39879SOL    HW224094   6.079  10.005   1.534 -0.9051  0.2562 -1.1799
39880SOL     OW24095   2.378   5.430   4.637  0.1386 -0.1700  0.0146
39880SOL    HW124096   2.334   5.350   4.662 -0.5218  0.0616 -0.3735
39880SOL    HW224097   2.466   5.422   4.673 -0.0071 -0.9434  0.2079
39881SOL     OW24098   4.377   2.075   9.835  0.1630  0.3589  0.1511
39881SOL    HW124099   4.350   2.111   9.751 -3.0655  0.2239  0.9785
39881SOL    HW224100   4.396   2.152   9.889 -1.8937  0.7157  0.4574
39882SOL     OW24101   6.644   6.694   2.141  0.5345  0.4305  0.1959
39882SOL    HW124102   6.680   6.610   2.168  0.9284  0.9768  1.5027
39882SOL    HW224103   6.567   6.706   2.198 -0.1060  0.5199 -0.6634
39883SOL     OW24104   5.552   6.803  10.376 -0.3761  0.0347 -0.2859
39883SOL    HW124105   5.633   6.800  10.326 -0.8230  0.3407 -1.0586
39883SOL    HW224106   5.528   6.711  10.390  0.7248 -0.0839  1.0314
39884SOL     OW24107   7.909   0.718   7.343 -0.1235 -0.0329  0.2542
39884SOL    HW124108   7.833   0.708   7.287 -1.5976  3.1709  1.4414
39884SOL    HW224109   7.882   0.680   7.427 -0.0327  0.2472  0.4101
39885SOL     OW24110   3.472   7.186   8.416  0.4569 -0.6648  0.2362
39885SOL    HW124111   3.534   7.134   8.467 -0.5096 -0.5796  1.5474
39885SOL    HW224112   3.469   7.271   8.460 -2.0521 -1.2857  1.4943
39886SOL     OW24113   1.321  10.904  10.372 -0.0643 -0.3499  0.5119
39886SOL    HW124114   1.227  10.912  10.359 -0.4677  0.3390  3.3191
39886SOL    HW224115   1.348  10.835  10.311 -2.4695 -0.9903  0.0774
39887SOL     OW24116   7.840   3.200   8.806  0.6219  0.1095  0.1462
39887SOL    HW124117   7.769   3.264   8.800  1.2004  0.8729  1.0844
39887SOL    HW224118   7.796   3.116   8.818 -0.1462  0.6744  1.5657
39888SOL     OW24119   9.389   5.103  10.099  0.0139  0.7004 -0.3779
39888SOL    HW124120   9.387   5.008  10.085  1.1151  0.7084 -0.7480
39888SOL    HW224121   9.412   5.113  10.191  0.6943  0.5848 -0.5236
39889SOL     OW24122   3.753   6.992   2.994 -0.3732  0.2099 -0.4298
39889SOL    HW124123   3.711   7.005   2.909 -0.3560  2.5983 -0.1455
39889SOL    HW224124   3.735   7.072   3.043  0.3572 -0.7371  1.5242
39890SOL     OW24125   0.508   0.197   9.526  0.3844 -0.1057 -0.0593
39890SOL    HW124126   0.458   0.119   9.502 -0.2548  0.6803 -1.3899
39890SOL    HW224127   0.599   0.175   9.507  0.3055 -0.7755  0.3016
39891SOL     OW24128   6.727   9.272   2.369  0.2771 -0.0375 -0.0146
39891SOL    HW124129   6.741   9.243   2.459  0.6671  0.5974  0.1288
39891SOL    HW224130   6.635   9.300   2.366  0.1334 -0.4867  0.0591
39892SOL     OW24131   1.395   0.102   5.499 -0.0522  0.0662 -0.2002
39892SOL    HW124132   1.454   0.176   5.515 -0.4913  0.8934 -2.0850
39892SOL    HW224133   1.309   0.133   5.527  0.3166 -1.1688  2.6237
39893SOL     OW24134  10.376   6.017   5.220 -0.2063  0.5160 -0.5047
39893SOL    HW124135  10.460   6.048   5.185  0.6328 -0.0267  0.9464
39893SOL    HW224136  10.359   5.935   5.172  0.7765 -0.0681  0.1112
39894SOL     OW24137   1.805   3.131   2.320  0.9938  0.0402  0.5583
39894SOL    HW124138   1.806   3.080   2.239 -2.7989  0.9559 -0.2392
39894SOL    HW224139   1.888   3.180   2.318  1.2780 -0.3671 -2.5101
39895SOL     OW24140   0.433   9.728   7.638  0.8660  0.6468 -0.2979
39895SOL    HW124141   0.401   9.788   7.706  0.0823 -0.5183  0.4018
39895SOL    HW224142   0.384   9.752   7.560 -0.5075  0.0283  0.3319
39896SOL     OW24143   7.838   0.680   5.396 -0.4258 -0.1097  0.1828
39896SOL    HW124144   7.788   0.715   5.322 -0.7403 -1.4870 -0.2779
39896SOL    HW224145   7.856   0.589   5.373  1.2499 -0.0103  0.8891
39897SOL     OW24146   0.360   0.903   5.080 -0.2814 -0.1167  0.1977
39897SOL    HW124147   0.319   0.970   5.136 -1.7587 -0.7801 -0.0494
39897SOL    HW224148   0.449   0.936   5.065 -0.5243  1.0968  1.2261
39898SOL     OW24149   0.661   1.451   3.738 -0.0446  1.2236  0.0679
39898SOL    HW124150   0.702   1.467   3.653 -0.6660  2.1363 -0.0866
39898SOL    HW224151   0.695   1.366   3.767  0.1031  0.8665 -1.1288
39899SOL     OW24152   2.151   9.098   4.152 -0.1598  0.7100 -0.4034
39899SOL    HW124153   2.080   9.059   4.203 -0.4327 -0.5171 -1.6363
39899SOL    HW224154   2.121   9.186   4.132  0.4081  1.6355  2.3615
39900SOL     OW24155   6.767   1.580   7.367 -0.3188  0.0214  0.0558
39900SOL    HW124156   6.814   1.603   7.287 -1.8209  0.6000 -0.6971
39900SOL    HW224157   6.823   1.516   7.411  0.4570 -0.4304 -1.5469
39901SOL     OW24158   8.235   7.558   3.803 -0.0397  0.2922 -0.1884
39901SOL    HW124159   8.174   7.589   3.870  0.4656  2.0027 -0.4609
39901SOL    HW224160   8.322   7.581   3.838  0.3010  0.0546 -0.8596
39902SOL     OW24161   0.663   9.008   2.189 -0.7276 -0.1919  0.1201
39902SOL    HW124162   0.573   8.976   2.192 -0.6106 -0.5128  0.2047
39902SOL    HW224163   0.682   9.038   2.278 -1.1786  1.0670 -0.1881
39903SOL     OW24164   3.587   5.496   3.689  0.5993 -0.4685  0.2964
39903SOL    HW124165   3.668   5.480   3.738  1.3123 -0.4520 -0.8344
39903SOL    HW224166   3.597   5.585   3.654 -1.2018  0.7178  2.5138
39904SOL     OW24167   6.398   8.749   4.467  0.3098 -0.5601 -0.2399
39904SOL    HW124168   6.388   8.655   4.459  0.1286 -0.5853  0.2225
39904SOL    HW224169   6.481   8.760   4.514 -0.9106 -0.5962  2.0731
39905SOL     OW24170   6.807   4.986   7.678  0.0105  0.1603 -0.1783
39905SOL    HW124171   6.732   4.954   7.628  1.1096  0.5337 -2.2035
39905SOL    HW224172   6.773   5.060   7.728 -1.2532 -0.5203  0.0012
39906SOL     OW24173   6.210  10.166   8.788  0.7311 -0.3229 -0.2960
39906SOL    HW124174   6.185  10.088   8.838  1.1881  0.7313  1.6879
39906SOL    HW224175   6.294  10.144   8.748  0.7874 -0.9000  0.1277
39907SOL     OW24176   4.816   7.307  10.308  0.1210 -0.2613  0.4993
39907SOL    HW124177   4.815   7.236  10.244 -1.4019 -0.5232  0.7686
39907SOL    HW224178   4.812   7.387  10.256  1.4469 -0.3652  0.2064
39908SOL     OW24179   5.837   7.018   6.436 -0.1264  0.0775 -0.3564
39908SOL    HW124180   5.914   7.075   6.441 -1.2507  1.5351  1.2030
39908SOL    HW224181   5.862   6.941   6.488  0.5008  0.2519 -0.3829
39909SOL     OW24182   0.940   6.698   1.953  0.3909  0.8015  0.4918
39909SOL    HW124183   0.938   6.615   1.904  0.5732  1.8231 -1.3273
39909SOL    HW224184   1.014   6.689   2.012  0.7453 -0.1476 -0.0677
39910SOL     OW24185   4.738   1.319   3.649  0.2257 -0.0403  0.9650
39910SOL    HW124186   4.805   1.375   3.611  2.4200 -1.6382  2.2412
39910SOL    HW224187   4.678   1.379   3.693  1.3447  1.3856  0.6037
39911SOL     OW24188   8.716   5.991   1.173  0.5662  0.3256 -0.0204
39911SOL    HW124189   8.777   6.064   1.164  0.0051  0.7925 -0.1014
39911SOL    HW224190   8.735   5.934   1.099  0.7717  0.5679 -0.1554
39912SOL     OW24191   8.188   6.006   2.283  0.3404  0.1527 -0.2815
39912SOL    HW124192   8.114   6.041   2.233  0.8408  0.5646 -0.7469
39912SOL    HW224193   8.238   6.084   2.310  0.6025 -0.1226  0.0361
39913SOL     OW24194   3.932   7.347   4.138  0.0465  0.4730  0.3973
39913SOL    HW124195   3.901   7.281   4.076  2.3491 -0.0590 -0.2891
39913SOL    HW224196   3.978   7.411   4.083 -0.5424  1.6739  1.2564
39914SOL     OW24197   4.422   4.462   0.343  0.0135 -0.0565 -0.4201
39914SOL    HW124198   4.494   4.481   0.403 -0.9996 -2.3835  1.6926
39914SOL    HW224199   4.353   4.523   0.368  0.4838  0.7526 -1.0408
39915SOL     OW24200  10.595   5.893   8.550 -0.2414  0.2109  0.0061
39915SOL    HW124201  10.576   5.975   8.503  3.2028  0.7769 -0.6340
39915SOL    HW224202  10.629   5.921   8.635  1.8928 -0.4212 -0.5770
39916SOL     OW24203   3.338   9.267   3.093  0.1700  0.2972  0.2708
39916SOL    HW124204   3.332   9.173   3.112  0.0310  0.2988  0.2369
39916SOL    HW224205   3.262   9.305   3.137  0.7431  0.5298  1.0816
39917SOL     OW24206   1.419   6.227   6.355 -0.1117 -0.1196 -0.3652
39917SOL    HW124207   1.409   6.132   6.359 -0.5705 -0.0310  1.1126
39917SOL    HW224208   1.332   6.260   6.336 -0.6241  0.1083  2.0042
39918SOL     OW24209   4.254   8.442   2.850  0.0736 -0.6286  0.3764
39918SOL    HW124210   4.317   8.496   2.897  1.0377 -1.0638 -0.3856
39918SOL    HW224211   4.271   8.460   2.758 -0.7827 -0.9090  0.1584
39919SOL     OW24212   3.416   9.854  10.275 -0.0204 -0.1468 -0.3604
39919SOL    HW124213   3.407   9.826  10.184 -1.3985 -0.1279 -0.2462
39919SOL    HW224214   3.433   9.948  10.269 -0.8446 -0.0058 -0.5862
39920SOL     OW24215   0.273   8.214   9.389 -0.0156  0.5045  0.4935
39920SOL    HW124216   0.180   8.197   9.404 -0.0802  0.7570  0.3839
39920SOL    HW224217   0.286   8.304   9.420 -0.0811  0.9284 -0.6618
39921SOL     OW24218   5.976   4.118   6.066  0.4236  0.6686  0.4062
39921SOL    HW124219   6.023   4.196   6.039 -1.3321  1.0915 -1.7366
39921SOL    HW224220   5.887   4.149   6.086 -0.4955 -0.7814 -1.1238
39922SOL     OW24221   8.410   4.961   9.949 -0.8905  0.1395 -0.2702
39922SOL    HW124222   8.360   5.033   9.988  0.2505  0.4569  0.6539
39922SOL    HW224223   8.455   4.919  10.022  1.9155  1.2218 -1.2264
39923SOL     OW24224   4.043   5.979   7.471 -0.0332 -0.0019 -0.2195
39923SOL    HW124225   4.102   5.912   7.436 -0.4661 -0.9689  0.8314
39923SOL    HW224226   4.041   5.963   7.565  1.5011  2.8557  0.3974
39924SOL     OW24227   8.530   1.806   9.055  0.1228 -0.0189 -0.2178
39924SOL    HW124228   8.538   1.766   8.968 -0.5094  0.0210 -0.2954
39924SOL    HW224229   8.436   1.818   9.067  0.2269  0.2093  0.3683
39925SOL     OW24230   5.908   8.687   2.680 -0.1350  0.5076 -0.5727
39925SOL    HW124231   5.921   8.605   2.633 -1.7755  0.4398 -0.9699
39925SOL    HW224232   5.843   8.666   2.747 -0.6174  1.4941 -0.7210
39926SOL     OW24233   7.389   0.823   8.652  0.3335  0.0795  0.2663
39926SOL    HW124234   7.439   0.905   8.650 -0.2644  0.4518  0.1963
39926SOL    HW224235   7.338   0.825   8.571 -0.3340  0.0609  0.6756
39927SOL     OW24236   1.026   3.622   0.812 -0.2194  0.9793  0.2067
39927SOL    HW124237   1.077   3.702   0.822 -0.0752  1.1161 -1.4023
39927SOL    HW224238   0.962   3.642   0.743  0.4346 -0.5674 -0.9176
39928SOL     OW24239   0.721   0.564   3.905 -0.5690 -0.0647  0.0593
39928SOL    HW124240   0.742   0.635   3.966 -0.7271 -0.6911  0.8573
39928SOL    HW224241   0.782   0.494   3.927 -1.0186 -0.5182 -0.1056
39929SOL     OW24242   8.122  10.129   2.452  0.0847  0.3652 -0.7833
39929SOL    HW124243   8.107  10.198   2.387  0.4307  0.9860 -0.2124
39929SOL    HW224244   8.108  10.171   2.536 -2.5480 -0.9667 -0.4546
39930SOL     OW24245   5.339   7.993   1.698 -0.0077  0.1083  0.3255
39930SOL    HW124246   5.401   7.923   1.675  0.8320  1.2324 -0.9455
39930SOL    HW224247   5.375   8.031   1.778 -0.0090 -0.3339  0.5445
39931SOL     OW24248   9.929   7.636   9.349 -0.3186  0.1272 -0.1256
39931SOL    HW124249   9.907   7.618   9.441 -0.8665  1.3051 -0.0057
39931SOL    HW224250   9.985   7.714   9.353  1.3843 -0.9961 -0.6682
39932SOL     OW24251   1.541   5.519   0.112 -0.1336 -0.3029 -0.5014
39932SOL    HW124252   1.517   5.553   0.026 -2.4492 -0.0276  0.1750
39932SOL    HW224253   1.468   5.461   0.136  0.4486 -0.3709  1.2869
39933SOL     OW24254   5.913   0.213   7.250 -0.2807  0.1326  0.0228
39933SOL    HW124255   5.959   0.195   7.333 -0.4432 -0.6076 -0.0345
39933SOL    HW224256   5.974   0.266   7.200 -0.1136  0.4541  0.5561
39934SOL     OW24257   4.253   8.847   1.287 -0.3110 -0.2828 -0.0437
39934SOL    HW124258   4.224   8.756   1.278  0.0462 -0.2782 -1.5023
39934SOL    HW224259   4.232   8.887   1.202 -1.1737  1.2075  0.8395
39935SOL     OW24260   1.257   9.724   6.567 -0.1097  0.1201  0.0368
39935SOL    HW124261   1.281   9.810   6.603  0.3938  0.2898 -0.6717
39935SOL    HW224262   1.328   9.666   6.594  0.0347  0.1455 -0.2780
39936SOL     OW24263   3.753   7.601   3.931  0.3281  0.0431 -0.4923
39936SOL    HW124264   3.791   7.615   3.845  0.5045 -1.4962 -0.6966
39936SOL    HW224265   3.659   7.591   3.915 -0.1218  2.9140 -0.0957
39937SOL     OW24266   0.327   1.718   0.661  0.0748  0.1791 -0.1315
39937SOL    HW124267   0.393   1.716   0.592  2.2620 -1.4229  1.7994
39937SOL    HW224268   0.378   1.704   0.742 -2.3758  1.4384  1.7660
39938SOL     OW24269  10.578   2.560   7.695 -0.2373 -0.5743  0.0516
39938SOL    HW124270  10.492   2.523   7.716 -1.0549  2.2251  2.2411
39938SOL    HW224271  10.638   2.521   7.758 -0.0103 -1.8698 -0.9197
39939SOL     OW24272   7.540   6.264  10.949  0.0162 -0.3121  0.1337
39939SOL    HW124273   7.593   6.286  10.873 -0.4354 -1.7465 -0.6467
39939SOL    HW224274   7.463   6.220  10.913 -0.0220 -1.3874  1.4198
39940SOL     OW24275   4.015   1.735   4.026  0.0492 -0.0936 -0.0122
39940SOL    HW124276   3.992   1.805   3.965 -0.9281 -0.4098 -0.0342
39940SOL    HW224277   3.955   1.664   4.004 -0.6272 -0.0584  1.5960
39941SOL     OW24278   4.092   3.558   0.840  0.0016  0.1405 -0.1968
39941SOL    HW124279   4.159   3.567   0.773  0.3547 -0.4995  0.0577
39941SOL    HW224280   4.050   3.645   0.845  0.7211  0.5072 -0.4463
39942SOL     OW24281   9.054   4.452   1.674  0.2128  0.0531 -0.4798
39942SOL    HW124282   9.120   4.477   1.610  0.1300 -1.0037 -1.0166
39942SOL    HW224283   9.100   4.393   1.734 -0.2058 -0.6145 -0.8021
39943SOL     OW24284   3.423   1.357  11.046  0.0831 -0.1293  0.2693
39943SOL    HW124285   3.360   1.327  10.980 -0.4770 -0.7834  1.0757
39943SOL    HW224286   3.477   1.422  11.001 -0.1121 -0.7608 -0.8997
39944SOL     OW24287   7.124   6.969   3.631 -0.0824  0.0091  0.2594
39944SOL    HW124288   7.029   6.963   3.617  0.1192 -0.5713 -0.9503
39944SOL    HW224289   7.148   6.884   3.667  0.1368 -0.2593 -0.4988
39945SOL     OW24290  10.441   4.517   9.925 -0.1781 -0.0138 -0.2514
39945SOL    HW124291  10.461   4.445   9.986  0.9984  1.3023  0.9781
39945SOL    HW224292  10.513   4.516   9.862  0.1974  0.4893  0.1629
39946SOL     OW24293  10.500  10.699   4.993 -0.0609  0.8380  0.1300
39946SOL    HW124294  10.577  10.689   5.047  1.5001  4.1001 -1.1846
39946SOL    HW224295  10.499  10.622   4.936  1.6648  0.2594  0.8394
39947SOL     OW24296  10.339   8.265   5.484 -0.1675  0.4065  0.2854
39947SOL    HW124297  10.269   8.244   5.423  0.0166  1.4013 -0.2965
39947SOL    HW224298  10.366   8.181   5.520 -1.2502 -0.0517  0.0728
39948SOL     OW24299   3.299   5.227   5.550  0.0793  0.1207  0.4569
39948SOL    HW124300   3.209   5.259   5.557 -0.1576 -0.7670  1.7387
39948SOL    HW224301   3.348   5.278   5.615  0.6724  1.0781 -0.6962
39949SOL     OW24302   4.387   7.638   0.908 -0.9893 -0.0138 -0.3455
39949SOL    HW124303   4.370   7.732   0.913  1.6977  0.5398  0.3155
39949SOL    HW224304   4.399   7.612   0.999 -0.6970 -0.7619 -0.5918
39950SOL     OW24305  10.425  11.067   3.337 -0.1543  0.5921 -0.4215
39950SOL    HW124306  10.416  10.977   3.368 -1.7101  1.2218  1.1063
39950SOL    HW224307  10.519  11.082   3.335  0.0942 -0.6651  0.5626
39951SOL     OW24308   5.115   2.359   9.060 -0.2838  0.1589  0.1011
39951SOL    HW124309   5.191   2.405   9.025  1.8707 -1.3781  2.4063
39951SOL    HW224310   5.040   2.396   9.012  1.7374  2.6196 -1.4102
39952SOL     OW24311   7.715   4.258   4.459 -0.1084  0.0440 -0.7871
39952SOL    HW124312   7.699   4.168   4.429 -0.9841 -0.2230  0.3937
39952SOL    HW224313   7.670   4.312   4.394 -0.0626 -0.4014 -1.1978
39953SOL     OW24314   4.600   2.860   2.734  0.2175  0.4813 -0.2010
39953SOL    HW124315   4.548   2.782   2.751  1.5240 -0.2180  0.7607
39953SOL    HW224316   4.583   2.917   2.810 -1.1522  1.4212 -1.1512
39954SOL     OW24317   5.232   6.313   7.728 -0.4306  0.0365 -0.2589
39954SOL    HW124318   5.253   6.233   7.776 -0.4279 -0.0601 -0.4242
39954SOL    HW224319   5.222   6.379   7.797  0.5580  0.1208 -0.1845
39955SOL     OW24320   4.618   2.032   4.909  0.1326  0.3597  0.0901
39955SOL    HW124321   4.534   1.988   4.920  0.6606 -0.7503 -0.1664
39955SOL    HW224322   4.659   2.027   4.996  0.3399  0.0186 -0.0248
39956SOL     OW24323   9.780   4.510   1.995 -0.5092 -0.4382 -0.0134
39956SOL    HW124324   9.818   4.541   1.912  0.6938 -0.2700  0.5768
39956SOL    HW224325   9.771   4.415   1.982 -1.1754 -0.2945 -0.6568
39957SOL     OW24326   5.394   0.702   0.892  0.0200 -0.0081 -0.1091
39957SOL    HW124327   5.396   0.763   0.818  0.4293 -1.1313 -1.0672
39957SOL    HW224328   5.317   0.648   0.876  0.1825 -0.3375  0.2159
39958SOL     OW24329   8.073   9.245   2.803  0.4466  0.1917  0.8106
39958SOL    HW124330   8.158   9.249   2.758  0.3390  0.4093  0.6277
39958SOL    HW224331   8.095   9.252   2.896  0.6861 -0.4673  0.8077
39959SOL     OW24332   0.786   3.701   6.575  0.0438 -0.1438 -0.4003
39959SOL    HW124333   0.784   3.795   6.562  0.3511 -0.0968 -0.1372
39959SOL    HW224334   0.775   3.690   6.670  0.3732 -0.3497 -0.3808
39960SOL     OW24335   5.896   1.191   7.352  0.1021  0.0866  0.6738
39960SOL    HW124336   5.867   1.271   7.309  2.9847  0.5459 -0.6373
39960SOL    HW224337   5.912   1.129   7.281 -0.0798 -0.9510  1.5105
39961SOL     OW24338   0.195  10.965   7.698  0.1146 -0.9907 -0.2157
39961SOL    HW124339   0.130  10.897   7.683  0.8870 -2.0488  0.9999
39961SOL    HW224340   0.270  10.940   7.643  0.6594 -1.5311  0.7461
39962SOL     OW24341   4.831   5.065  10.196 -0.0677  0.5294 -0.1339
39962SOL    HW124342   4.831   4.972  10.221  2.0231  0.4625 -0.2053
39962SOL    HW224343   4.785   5.109  10.267 -0.1633 -0.4347  0.4280
39963SOL     OW24344   7.196   3.741  10.793  0.2469  0.1213 -0.3402
39963SOL    HW124345   7.160   3.818  10.748  0.9829  1.0602  0.6323
39963SOL    HW224346   7.123   3.679  10.796 -0.5744  1.0529 -0.5104
39964SOL     OW24347   5.155   7.746   4.730 -0.4251 -0.2219 -0.6703
39964SOL    HW124348   5.245   7.737   4.697 -0.0710  0.9350 -0.0589
39964SOL    HW224349   5.111   7.799   4.664 -0.6268 -0.6459 -0.8834
39965SOL     OW24350   9.308   6.479   8.666 -0.1281  0.0284 -0.0762
39965SOL    HW124351   9.335   6.413   8.603  0.0456  0.7176 -0.7371
39965SOL    HW224352   9.231   6.441   8.709 -0.1201 -0.5387 -0.5537
39966SOL     OW24353   0.310   1.504   2.077 -0.0252  0.1750  0.2151
39966SOL    HW124354   0.303   1.599   2.088 -0.2858  0.2672 -0.6458
39966SOL    HW224355   0.400   1.483   2.101  0.4686  0.8554 -0.9382
39967SOL     OW24356   0.877  10.864   6.489 -0.2813  0.4745 -0.0980
39967SOL    HW124357   0.881  10.791   6.427 -0.6925  0.8308 -0.5509
39967SOL    HW224358   0.822  10.833   6.560 -0.3459  0.2995 -0.2262
39968SOL     OW24359  10.691   5.025   8.331  0.0726  0.3206 -0.2240
39968SOL    HW124360  10.742   4.948   8.304  1.6233  0.7898  1.1793
39968SOL    HW224361  10.691   5.082   8.255  1.7096  0.3075 -0.2807
39969SOL     OW24362   2.907   8.423   5.650 -0.1217 -0.3254 -0.6325
39969SOL    HW124363   2.956   8.465   5.720 -2.1048  0.5843  0.2965
39969SOL    HW224364   2.959   8.440   5.571  0.7499  1.1208  0.1967
39970SOL     OW24365   3.152   9.651   3.732  0.6625  0.3480  0.0469
39970SOL    HW124366   3.128   9.705   3.807 -0.0587 -0.1612  0.1993
39970SOL    HW224367   3.104   9.690   3.659  1.6762  1.0858 -0.2470
39971SOL     OW24368   4.922   7.854   1.379 -0.3872  0.0137  0.1083
39971SOL    HW124369   4.902   7.857   1.472 -0.5874 -0.5963  0.0863
39971SOL    HW224370   4.955   7.942   1.359 -0.8759  0.3266  0.6322
39972SOL     OW24371   0.637   8.885   7.234  0.4289 -0.6128  0.5442
39972SOL    HW124372   0.606   8.973   7.211  4.0023  1.1957  1.8397
39972SOL    HW224373   0.613   8.830   7.160 -0.8787  1.7156 -0.8576
39973SOL     OW24374  10.122   9.483   0.553 -0.1402 -0.2141 -0.1248
39973SOL    HW124375  10.061   9.443   0.492 -0.2666 -2.1459  1.1704
39973SOL    HW224376  10.203   9.434   0.542  0.0683 -0.0734  0.6804
39974SOL     OW24377   7.225   6.143   2.287 -0.7843 -1.0540 -0.3773
39974SOL    HW124378   7.232   6.143   2.382 -0.9318 -1.0661 -0.3661
39974SOL    HW224379   7.131   6.135   2.270 -0.7071 -1.7423 -0.5232
39975SOL     OW24380   2.921   1.237   8.433 -0.2590 -0.4971 -0.1486
39975SOL    HW124381   3.009   1.199   8.427 -0.2362 -0.5300  0.3416
39975SOL    HW224382   2.883   1.223   8.346 -0.5443 -2.3903  0.2390
39976SOL     OW24383   7.391   9.639   7.719 -0.2746  0.0291 -0.0983
39976SOL    HW124384   7.307   9.627   7.763  0.1986  1.6285  1.3402
39976SOL    HW224385   7.378   9.715   7.662  0.4429  1.0150  0.9792
39977SOL     OW24386   6.579   1.068   5.482 -0.3359  0.2626 -0.1663
39977SOL    HW124387   6.520   1.009   5.530  0.1728  0.8498  1.2374
39977SOL    HW224388   6.591   1.143   5.540 -0.3496  1.4210 -1.5907
39978SOL     OW24389   8.262   8.623   3.407  0.3844  0.4116  0.0649
39978SOL    HW124390   8.313   8.542   3.411  1.0404  0.6643 -2.0233
39978SOL    HW224391   8.171   8.594   3.400  0.5682 -0.1419 -0.0580
39979SOL     OW24392   1.263   9.254   5.752 -0.4271 -0.5566 -0.0500
39979SOL    HW124393   1.276   9.305   5.672 -1.7195 -0.9550 -0.5416
39979SOL    HW224394   1.351   9.228   5.778  0.2339  1.4665 -0.0730
39980SOL     OW24395   5.900   7.421   2.285  0.2546 -0.2381  0.8190
39980SOL    HW124396   5.818   7.444   2.243  2.0334  0.8418 -2.4013
39980SOL    HW224397   5.928   7.501   2.329  0.6208  0.1110 -0.0241
39981SOL     OW24398   6.676   2.142   4.008 -0.7249  0.5228 -0.4890
39981SOL    HW124399   6.656   2.149   4.102  0.7467 -0.8631 -0.0299
39981SOL    HW224400   6.644   2.056   3.982  1.2985 -0.2670 -0.5525
39982SOL     OW24401  11.012   3.297   8.015 -0.3700 -0.3664 -0.1817
39982SOL    HW124402  11.088   3.350   7.992  0.0909 -0.0934  1.7978
39982SOL    HW224403  10.942   3.361   8.027 -0.1617 -0.3100  0.8349
39983SOL     OW24404   7.531   7.980   5.059 -0.8228 -0.0989 -0.6407
39983SOL    HW124405   7.593   7.907   5.062  0.2451  0.8116  1.2377
39983SOL    HW224406   7.450   7.944   5.095 -0.0951 -0.2385  0.9764
39984SOL     OW24407   8.592  11.063   2.953  0.6624 -0.3236  0.1255
39984SOL    HW124408   8.589  11.025   2.865  1.7424  1.5605 -0.7717
39984SOL    HW224409   8.662  11.016   2.997  0.6107 -0.7763 -0.2644
39985SOL     OW24410   1.830   6.226   5.916  0.3469  0.1468  0.8969
39985SOL    HW124411   1.840   6.278   5.836 -1.8865  0.5010  0.7764
39985SOL    HW224412   1.913   6.235   5.962  1.0143  1.4673 -0.5001
39986SOL     OW24413   4.414   7.378   7.212  0.2890  0.6845  0.0226
39986SOL    HW124414   4.449   7.340   7.132  1.7639  1.1811  0.4079
39986SOL    HW224415   4.319   7.363   7.207  0.6333 -1.4863 -0.6364
39987SOL     OW24416   0.304   4.157   1.732  0.2221  0.4216 -0.1621
39987SOL    HW124417   0.337   4.245   1.751 -0.1289  0.2816  1.2293
39987SOL    HW224418   0.306   4.112   1.816  1.4226 -1.2852 -1.0495
39988SOL     OW24419   2.427   6.493   9.264 -0.1655 -0.4349  0.1282
39988SOL    HW124420   2.409   6.522   9.175  1.0008 -1.0515 -0.3351
39988SOL    HW224421   2.518   6.516   9.279 -0.2691 -0.5853  1.0630
39989SOL     OW24422   8.593  10.755   2.328 -0.0896 -0.6057  0.0603
39989SOL    HW124423   8.606  10.671   2.372 -0.5693 -0.4005  0.6216
39989SOL    HW224424   8.540  10.806   2.390  2.5019  1.1349  1.0120
39990SOL     OW24425   0.332   5.936   1.120 -0.2456 -0.0444 -0.1415
39990SOL    HW124426   0.350   5.943   1.027  3.6823 -0.4754  0.4088
39990SOL    HW224427   0.286   5.853   1.130  0.5384 -0.6837 -1.5826
39991SOL     OW24428   6.595   9.790   3.198 -0.1440  0.3416 -0.3252
39991SOL    HW124429   6.653   9.778   3.273  0.0470  3.1748  0.0764
39991SOL    HW224430   6.653   9.793   3.122  0.0664  1.3468 -0.1303
39992SOL     OW24431   9.989  10.108   5.424  0.1859  0.2110 -0.0231
39992SOL    HW124432  10.055  10.174   5.403  0.1030  0.6347  1.0090
39992SOL    HW224433  10.040  10.027   5.437  0.8987  1.0122  3.2154
39993SOL     OW24434  10.525   2.431   7.360 -0.4134 -0.0858  0.2048
39993SOL    HW124435  10.558   2.348   7.325 -1.0761 -0.9754  1.5750
39993SOL    HW224436  10.470   2.405   7.435 -0.6223  1.5947  0.6766
39994SOL     OW24437   9.962   6.981   1.052 -0.3192 -0.1401 -0.1545
39994SOL    HW124438   9.942   6.888   1.048 -0.4662 -0.0716 -1.2165
39994SOL    HW224439  10.019   6.997   0.977  0.4581  0.4536  0.5410
39995SOL     OW24440   0.673  10.915   3.874 -0.4698  0.2419 -0.3525
39995SOL    HW124441   0.661  10.947   3.964 -0.6635  0.5616 -0.4883
39995SOL    HW224442   0.714  10.989   3.828  2.4655 -0.9304  0.1739
39996SOL     OW24443   9.397   9.351   5.454 -0.1201 -0.5317  0.0101
39996SOL    HW124444   9.353   9.329   5.372  1.7281  0.6415 -1.3752
39996SOL    HW224445   9.453   9.275   5.472 -1.9163 -1.6243  1.2821
39997SOL     OW24446   6.675   2.050   1.098 -0.7820 -0.1867 -0.2146
39997SOL    HW124447   6.707   1.960   1.092 -1.3162 -0.3421 -0.8463
39997SOL    HW224448   6.702   2.092   1.017  0.5727  0.6119  0.6157
39998SOL     OW24449   3.801  10.282   8.544  0.2891  0.4252  0.5189
39998SOL    HW124450   3.786  10.375   8.526 -2.2702 -0.1371 -0.6446
39998SOL    HW224451   3.714  10.245   8.554  1.1727 -2.1348 -0.4789
39999SOL     OW24452   2.184   0.614   8.961 -0.2115 -0.2212  0.0405
39999SOL    HW124453   2.143   0.698   8.942 -3.4184 -0.6919  3.6537
39999SOL    HW224454   2.239   0.632   9.037 -2.7727 -1.5837  2.4050
40000SOL     OW24455   5.952  11.068   7.773 -0.4602  0.2024  0.5722
40000SOL    HW124456   5.908  11.033   7.696  0.0203  1.3943 -0.2783
40000SOL    HW224457   6.040  11.089   7.743  0.2243 -0.7201  1.8548
40001SOL     OW24458   7.409   3.776  10.293 -0.0223  0.0816  0.1085
40001SOL    HW124459   7.429   3.711  10.361  2.1545  0.5413 -0.0361
40001SOL    HW224460   7.324   3.811  10.319 -0.1537 -1.1495  1.5081
40002SOL     OW24461   9.198   4.863   8.765  0.0717  0.2532 -0.9187
40002SOL    HW124462   9.114   4.909   8.760 -1.0524 -1.4873  0.5600
40002SOL    HW224463   9.183   4.781   8.717  0.7238 -0.3206 -0.1758
40003SOL     OW24464   2.368   4.988   1.840  0.3836  0.5594  0.1644
40003SOL    HW124465   2.273   4.996   1.848 -0.2278 -3.3988 -1.0295
40003SOL    HW224466   2.401   5.002   1.929 -1.1889  2.5356  0.4993
40004SOL     OW24467  10.915   2.622   6.589  0.2552  0.0066 -0.2318
40004SOL    HW124468  10.875   2.618   6.676 -0.4795  1.5676 -0.4603
40004SOL    HW224469  10.919   2.531   6.560  0.8439 -0.5727  1.5688
40005SOL     OW24470   8.707   7.655   3.163  0.1934 -0.3287 -0.2577
40005SOL    HW124471   8.762   7.600   3.219 -0.3654  0.3252  0.9737
40005SOL    HW224472   8.647   7.593   3.121 -0.8512 -0.6567  1.5913
40006SOL     OW24473   4.533   0.483   6.520  0.0917  0.2546 -0.3650
40006SOL    HW124474   4.627   0.494   6.508  0.2580  2.1879  2.0728
40006SOL    HW224475   4.497   0.491   6.432  2.2545 -2.1000 -1.5943
40007SOL     OW24476   6.542   5.726   5.142 -0.2818  0.6618  0.4060
40007SOL    HW124477   6.448   5.741   5.130 -0.2413  0.7991  0.2576
40007SOL    HW224478   6.572   5.694   5.058 -0.4598 -0.7543  0.8543
40008SOL     OW24479   0.076   1.814   8.785 -0.9262  0.0695 -0.5106
40008SOL    HW124480   0.058   1.808   8.692  1.6065 -0.9554 -1.0034
40008SOL    HW224481   0.074   1.908   8.804 -2.3843  0.2399 -1.3369
40009SOL     OW24482   8.363   1.408   1.564  0.1459 -0.1814  0.4502
40009SOL    HW124483   8.292   1.432   1.505  1.7389 -0.7813 -1.8364
40009SOL    HW224484   8.397   1.491   1.596  0.7566  0.3121 -1.3934
40010SOL     OW24485   3.112   1.455   0.851 -0.1344 -0.2592 -0.5982
40010SOL    HW124486   3.097   1.419   0.939  2.1104  0.8386  0.2957
40010SOL    HW224487   3.136   1.546   0.866  1.3763 -0.3414 -2.2486
40011SOL     OW24488   3.607   5.483   4.207 -0.3942 -0.3532 -0.0214
40011SOL    HW124489   3.566   5.569   4.210  1.5179  0.7117 -1.7720
40011SOL    HW224490   3.668   5.483   4.281 -0.8929 -0.5048  0.3973
40012SOL     OW24491   5.662   7.517   9.129  0.4007 -0.4486 -0.3423
40012SOL    HW124492   5.680   7.546   9.040  0.3071 -1.3866 -0.6827
40012SOL    HW224493   5.747   7.521   9.173  0.1310  1.8136  0.1039
40013SOL     OW24494   5.914   5.487   5.864  0.1739 -0.7876 -0.4464
40013SOL    HW124495   5.975   5.414   5.865 -0.0136 -1.2947  4.9933
40013SOL    HW224496   5.966   5.563   5.890 -0.7543 -0.4612  0.5644
40014SOL     OW24497   5.491   9.224   6.389 -0.0191  0.1240  0.1087
40014SOL    HW124498   5.471   9.131   6.379  0.4457 -0.1217  1.2571
40014SOL    HW224499   5.585   9.226   6.408 -0.5044  0.5670  2.9048
40015SOL     OW24500   7.484   3.805   2.177  0.0224  0.0884 -0.0133
40015SOL    HW124501   7.396   3.794   2.215  0.0023 -0.3020 -0.1632
40015SOL    HW224502   7.509   3.716   2.151  0.9741 -0.0233  1.1653
40016SOL     OW24503   8.461   8.941   9.839  0.2419 -0.8521  0.0690
40016SOL    HW124504   8.447   8.998   9.764 -2.3604 -2.6468 -0.9930
40016SOL    HW224505   8.528   8.879   9.811  0.7344 -0.2963  0.0100
40017SOL     OW24506   5.600   2.109   7.676  0.1157  0.3364 -0.0886
40017SOL    HW124507   5.675   2.145   7.722 -2.5660  0.8575  4.5202
40017SOL    HW224508   5.606   2.014   7.691  0.1447  0.3105 -0.2594
40018SOL     OW24509   5.551  10.253   6.315  0.2649  0.3540 -0.3568
40018SOL    HW124510   5.631  10.303   6.302  0.3282 -0.4098 -3.9675
40018SOL    HW224511   5.544  10.199   6.236 -3.2214 -0.4188  0.3337
40019SOL     OW24512   5.929   6.447   4.767 -0.1264  0.5043 -0.4371
40019SOL    HW124513   6.024   6.435   4.759  0.0043  2.0594 -1.9565
40019SOL    HW224514   5.915   6.473   4.858  0.9785  0.7875 -0.3341
40020SOL     OW24515   6.273   4.904   5.270  0.1409 -0.3161  0.7050
40020SOL    HW124516   6.231   4.989   5.285 -0.2346 -0.2655 -0.5099
40020SOL    HW224517   6.363   4.925   5.248  0.5845 -0.3678  2.3582
40021SOL     OW24518  10.249   9.078   8.752 -0.5663 -0.9164 -0.1951
40021SOL    HW124519  10.167   9.077   8.802  0.5461  0.1240  1.7707
40021SOL    HW224520  10.286   9.164   8.769  1.6297 -1.8673  0.1491
40022SOL     OW24521  11.070   7.963   5.110  0.2270  0.5477  0.1979
40022SOL    HW124522  11.050   7.878   5.151 -1.2623  1.0768  0.6622
40022SOL    HW224523  11.050   7.950   5.017  1.1673  0.0578  0.0591
40023SOL     OW24524   3.255   0.787   0.276  0.0850  0.6179 -0.0126
40023SOL    HW124525   3.234   0.697   0.253 -1.4279  0.9958 -0.2238
40023SOL    HW224526   3.351   0.792   0.268  0.2339 -1.0382  0.3411
40024SOL     OW24527   1.212   0.018  10.724  0.3469  0.7868  0.2389
40024SOL    HW124528   1.185  -0.074  10.725 -0.4014  1.0016  0.3776
40024SOL    HW224529   1.158   0.058  10.655  0.6906  1.1185  0.1561
40025SOL     OW24530   4.937   6.858   2.881 -0.4031 -0.0765  0.3129
40025SOL    HW124531   4.969   6.821   2.799  1.5313  1.5800  0.2300
40025SOL    HW224532   4.978   6.804   2.949 -0.4075 -0.2420  0.1839
40026SOL     OW24533   2.027   3.873   6.689 -0.2974 -0.5510  0.0294
40026SOL    HW124534   2.063   3.935   6.625  0.8984 -0.6553  0.5816
40026SOL    HW224535   1.932   3.878   6.676 -0.0817 -0.9993 -2.1629
40027SOL     OW24536   6.669   3.200   2.903  0.4814  0.9381 -0.5477
40027SOL    HW124537   6.617   3.150   2.966  1.9735  1.5766  1.2924
40027SOL    HW224538   6.760   3.181   2.927  1.0972  3.0405 -0.9814
40028SOL     OW24539   1.707   2.139   0.190  0.3304  0.1022  0.1550
40028SOL    HW124540   1.674   2.207   0.248 -1.3568  0.3593 -1.0276
40028SOL    HW224541   1.686   2.170   0.102 -1.3998 -2.3458 -0.4094
40029SOL     OW24542   7.536   3.689   9.567  0.0189 -0.4673  0.4649
40029SOL    HW124543   7.481   3.611   9.557  2.2986 -1.9007 -1.8207
40029SOL    HW224544   7.574   3.680   9.655 -0.0309 -1.7507  0.3710
40030SOL     OW24545   3.001  10.569   2.812  0.0047 -0.3350 -0.5436
40030SOL    HW124546   2.918  10.578   2.859  1.0737  0.3343  1.3000
40030SOL    HW224547   3.047  10.498   2.857  0.9452  0.1179 -0.7684
40031SOL     OW24548  10.822   5.227   7.487  0.4552 -0.1610  0.8472
40031SOL    HW124549  10.733   5.261   7.476  0.2755 -0.9444 -0.3297
40031SOL    HW224550  10.876   5.305   7.500 -0.1350  0.5013 -0.4660
40032SOL     OW24551   8.432   1.958   0.530 -0.5424 -0.1873 -0.0260
40032SOL    HW124552   8.344   1.995   0.541 -0.5321 -0.7343  2.4000
40032SOL    HW224553   8.487   2.034   0.510 -1.1787  0.5485  0.9070
40033SOL     OW24554   1.006   4.579   6.504  0.5001 -0.3297  0.1007
40033SOL    HW124555   0.951   4.507   6.472 -1.0114  1.5809 -1.8107
40033SOL    HW224556   1.055   4.608   6.428  0.6353  1.0661  0.6956
40034SOL     OW24557   0.023   5.291   1.335 -0.3773 -0.0295 -0.6705
40034SOL    HW124558   0.085   5.354   1.372  0.1447 -0.0371 -1.5141
40034SOL    HW224559   0.029   5.214   1.392 -0.2562  0.2896 -0.2483
40035SOL     OW24560   0.027   7.864   7.993  0.1705  0.2083  0.4734
40035SOL    HW124561   0.003   7.818   7.913  1.5475  0.6683 -0.2342
40035SOL    HW224562  -0.046   7.923   8.010  0.2823  0.8048 -0.9938
40036SOL     OW24563   6.669   9.257   5.538  0.0226  0.1978  0.1010
40036SOL    HW124564   6.619   9.230   5.461 -0.2696 -0.3870  0.4842
40036SOL    HW224565   6.654   9.186   5.601  0.2140  0.6977  0.7085
40037SOL     OW24566  10.744   2.595   1.710  0.4218  0.1914 -0.2450
40037SOL    HW124567  10.836   2.582   1.689  0.4796  0.8049 -0.4125
40037SOL    HW224568  10.735   2.560   1.799  0.9672  0.6987  0.0218
40038SOL     OW24569   8.734   9.276   5.679  0.2300 -0.0071  0.4573
40038SOL    HW124570   8.708   9.203   5.623  0.3218  0.1004  0.2737
40038SOL    HW224571   8.806   9.318   5.632 -0.3422  0.6838  0.1706
40039SOL     OW24572   8.098   7.393   9.946  0.0026  0.2983  0.4841
40039SOL    HW124573   8.060   7.454   9.883 -1.6591  0.2864  1.4241
40039SOL    HW224574   8.178   7.361   9.904 -1.0998  0.2063 -1.6548
40040SOL     OW24575   6.937   6.953   1.921 -0.2756 -0.2674  0.0575
40040SOL    HW124576   6.850   6.928   1.953 -0.7450  0.2483 -0.7669
40040SOL    HW224577   6.933   7.048   1.913  0.1556 -0.2932 -0.5634
40041SOL     OW24578   5.664   8.210   4.385  0.2780  0.1886 -0.0076
40041SOL    HW124579   5.602   8.138   4.388  1.4303 -0.8039  2.0553
40041SOL    HW224580   5.687   8.218   4.292 -0.9545 -1.1203 -0.4619
40042SOL     OW24581   8.850   4.567  10.799 -0.0116  0.5039  0.3285
40042SOL    HW124582   8.788   4.500  10.827  0.9961 -1.5001 -1.8844
40042SOL    HW224583   8.930   4.547  10.848  0.6494 -0.7419 -1.1774
40043SOL     OW24584   0.915   5.731   8.318  0.3808  0.3280  0.4730
40043SOL    HW124585   1.002   5.745   8.281  0.0352 -0.4906 -0.7106
40043SOL    HW224586   0.906   5.799   8.385  1.3766  1.3123 -0.3525
40044SOL     OW24587  11.057   6.347   4.432 -0.1254 -0.5057  0.4909
40044SOL    HW124588  10.997   6.273   4.442 -1.3174  0.3865  0.1714
40044SOL    HW224589  11.002   6.424   4.441  1.1533  0.3670  1.1609
40045SOL     OW24590   7.061   5.920  11.051  0.9493  0.2770 -0.3922
40045SOL    HW124591   7.050   5.842  10.996  1.1440  0.3981 -0.6019
40045SOL    HW224592   7.155   5.932  11.058  0.9300  0.0109  0.3250
40046SOL     OW24593   9.015   9.775   3.029 -0.0030 -0.9286  0.3039
40046SOL    HW124594   8.974   9.689   3.033  0.7236 -1.2852  0.3132
40046SOL    HW224595   8.993   9.809   2.942 -0.8527 -0.8285  0.5516
40047SOL     OW24596   5.104   7.922   9.646  0.2040  0.6010 -0.0971
40047SOL    HW124597   5.012   7.944   9.635  0.4840  0.9301 -2.3046
40047SOL    HW224598   5.113   7.899   9.738 -1.6805  2.3820  0.5926
40048SOL     OW24599   3.517   6.354   1.775 -0.6384 -0.4282 -0.3888
40048SOL    HW124600   3.570   6.320   1.703 -2.7230 -0.6144 -1.9072
40048SOL    HW224601   3.567   6.428   1.808  0.8599 -0.9692 -1.3411
40049SOL     OW24602   2.202   6.482   9.999  0.0325  0.4194 -0.2257
40049SOL    HW124603   2.132   6.419  10.018  0.0655  0.2380 -0.6968
40049SOL    HW224604   2.271   6.461  10.063  0.1794 -0.2469 -0.5950
40050SOL     OW24605   5.125   3.971   2.950  0.0037 -0.6543  0.6336
40050SOL    HW124606   5.081   3.887   2.943  0.5518 -0.8881 -0.0580
40050SOL    HW224607   5.056   4.036   2.933  0.0018 -1.0302 -0.9758
40051SOL     OW24608   2.954   5.432   1.447 -0.3841 -0.1599  0.0308
40051SOL    HW124609   2.865   5.433   1.483  0.3388 -2.1044  2.1541
40051SOL    HW224610   3.009   5.463   1.519  0.8288 -0.5834 -0.6841
40052SOL     OW24611   1.571   7.566   0.517  0.0672  0.7277 -0.0014
40052SOL    HW124612   1.575   7.517   0.599 -0.6231  0.3054 -0.2062
40052SOL    HW224613   1.630   7.520   0.458  0.8541  1.2543  0.3653
40053SOL     OW24614   8.707   4.976   6.781 -0.2051  0.0610  0.9624
40053SOL    HW124615   8.730   4.891   6.743  0.8440 -0.1694  2.0315
40053SOL    HW224616   8.699   4.958   6.874  0.2771  1.1879  1.2267
40054SOL     OW24617   9.739   5.610   4.347  0.3094  0.1122 -0.4290
40054SOL    HW124618   9.675   5.580   4.411  2.6369 -2.3924  0.8986
40054SOL    HW224619   9.776   5.689   4.386  0.8353 -0.7002  0.7651
40055SOL     OW24620   4.960   0.966   9.684  0.5951  0.3742 -0.3626
40055SOL    HW124621   4.997   1.039   9.633  0.7015  1.2978  0.9625
40055SOL    HW224622   4.995   0.980   9.772 -0.2046 -0.7154  0.1421
40056SOL     OW24623   9.176   4.532   5.165 -0.8785  0.1551 -0.9401
40056SOL    HW124624   9.189   4.613   5.115  2.1545 -0.4799 -1.3968
40056SOL    HW224625   9.208   4.553   5.253 -1.1559 -0.2248 -0.7496
40057SOL     OW24626   4.380  11.050   9.444 -0.7439 -0.5618 -0.0463
40057SOL    HW124627   4.291  11.083   9.433  0.1945  1.9687 -0.7717
40057SOL    HW224628   4.436  11.125   9.424  1.6196 -2.6693 -2.0942
40058SOL     OW24629   2.125  10.622   8.739 -0.1637 -0.1382  0.0614
40058SOL    HW124630   2.143  10.711   8.708 -1.1465 -0.4527 -1.5278
40058SOL    HW224631   2.211  10.580   8.742  0.1325  0.3844 -0.7699
40059SOL     OW24632   5.264   0.491   7.336 -0.1563 -0.8599  0.1860
40059SOL    HW124633   5.255   0.585   7.352 -1.7253 -0.8613 -0.4462
40059SOL    HW224634   5.331   0.484   7.268 -0.7667 -0.0915 -0.5212
40060SOL     OW24635   0.573   5.706   1.358 -0.0440  0.2937 -0.2480
40060SOL    HW124636   0.510   5.755   1.411  0.4449 -0.5248  1.1569
40060SOL    HW224637   0.520   5.641   1.312 -0.3705  0.3598  0.0285
40061SOL     OW24638   1.499   5.021   1.871  0.1196  0.1391 -0.4416
40061SOL    HW124639   1.418   5.039   1.822 -0.5978 -2.8733 -0.5505
40061SOL    HW224640   1.569   5.050   1.812 -0.8174 -0.6115 -1.9928
40062SOL     OW24641   0.840   9.838   3.960  0.5802  0.9976  0.0773
40062SOL    HW124642   0.812   9.928   3.977  0.0377  1.2093 -1.6807
40062SOL    HW224643   0.921   9.847   3.910  0.6042  0.5108  0.0257
40063SOL     OW24644  10.372   6.324   3.287 -0.2949 -0.1569 -0.1217
40063SOL    HW124645  10.444   6.388   3.278 -0.5652  0.3504  1.1803
40063SOL    HW224646  10.298   6.366   3.245 -0.1184 -0.2154 -0.4979
40064SOL     OW24647   5.699   9.298   3.313  0.6919 -0.3740 -0.1205
40064SOL    HW124648   5.622   9.340   3.274  0.3439 -1.2099 -0.3586
40064SOL    HW224649   5.669   9.210   3.337  1.1068 -0.1574  1.3294
40065SOL     OW24650   5.689   1.395   7.108 -0.0504 -0.4424 -0.2596
40065SOL    HW124651   5.698   1.419   7.200 -2.1072  1.0668 -0.3620
40065SOL    HW224652   5.682   1.479   7.062 -1.9261 -1.1630 -1.4100
40066SOL     OW24653   5.429   9.051   3.612 -0.2885 -0.2295  0.3211
40066SOL    HW124654   5.351   9.024   3.661 -1.6778 -0.0080 -1.6427
40066SOL    HW224655   5.448   9.139   3.643  0.3515 -0.9633  2.1394
40067SOL     OW24656  10.100   2.460   2.285 -0.1135 -0.0305  0.3293
40067SOL    HW124657  10.176   2.495   2.331  0.4437 -1.4976  0.5909
40067SOL    HW224658  10.096   2.368   2.312 -1.3365 -0.2536 -0.5251
40068SOL     OW24659   2.227   0.308   5.936  0.0637 -0.0442 -0.3692
40068SOL    HW124660   2.235   0.304   6.032  0.9983 -1.2230 -0.4845
40068SOL    HW224661   2.138   0.342   5.921  0.0337  0.4969  0.9077
40069SOL     OW24662   7.906   3.172   8.490 -0.4405  0.0711  0.4561
40069SOL    HW124663   7.902   3.226   8.410 -2.7360 -0.4851  0.1226
40069SOL    HW224664   7.879   3.231   8.560 -0.6453 -0.0215  0.4566
40070SOL     OW24665   9.215   3.283   8.469 -0.2508 -0.0147  0.2537
40070SOL    HW124666   9.226   3.259   8.560 -3.3895 -0.9936  0.4910
40070SOL    HW224667   9.144   3.227   8.437 -0.4156  1.4637 -2.2967
40071SOL     OW24668   2.177   3.130   1.425  0.4496  0.1566  0.2784
40071SOL    HW124669   2.196   3.141   1.519  0.3580 -1.4534  0.5137
40071SOL    HW224670   2.260   3.151   1.382  0.7646 -0.0073  0.7916
40072SOL     OW24671  10.446   7.092   8.594 -0.1594 -0.3160  0.2097
40072SOL    HW124672  10.455   7.051   8.508 -1.8069  1.0381 -0.6847
40072SOL    HW224673  10.528   7.139   8.608 -0.3387  0.4860 -1.2388
40073SOL     OW24674   6.358   1.390   8.001  0.1919 -0.0092  0.1704
40073SOL    HW124675   6.300   1.375   8.076  0.7906 -0.4681  0.5493
40073SOL    HW224676   6.313   1.457   7.949  0.1257  0.8848  1.3360
40074SOL     OW24677   5.721  10.141   7.039  0.0514 -0.4897  0.0265
40074SOL    HW124678   5.627  10.161   7.032  0.2813  1.0939  0.8954
40074SOL    HW224679   5.762  10.201   6.976  0.5775 -0.0965  0.7327
40075SOL     OW24680   0.911  10.807   5.278  0.0400  0.1146 -0.5038
40075SOL    HW124681   0.986  10.762   5.318 -0.8246 -0.2527  0.7536
40075SOL    HW224682   0.921  10.790   5.184  0.4271 -1.6524 -0.1807
40076SOL     OW24683   5.820   1.494   4.065  0.5581 -0.1104  0.3244
40076SOL    HW124684   5.787   1.438   4.135  0.4338  0.6496  0.8922
40076SOL    HW224685   5.880   1.554   4.109 -0.1190  0.8910 -0.0762
40077SOL     OW24686   2.054   6.266   7.848 -0.1769 -0.4452  0.1530
40077SOL    HW124687   2.019   6.329   7.912 -1.2558 -0.3795 -0.4844
40077SOL    HW224688   2.001   6.278   7.770  0.5943 -1.1028 -0.4991
40078SOL     OW24689   8.178   9.149   9.398  0.3549  0.0831  0.1532
40078SOL    HW124690   8.271   9.174   9.396  0.0676  1.4341  1.3925
40078SOL    HW224691   8.154   9.139   9.306  1.8709 -0.9251 -0.1712
40079SOL     OW24692   6.524   4.208  10.848  0.2863 -0.2674  0.3687
40079SOL    HW124693   6.603   4.227  10.898  0.9361 -1.2506 -0.2575
40079SOL    HW224694   6.524   4.272  10.777  0.1978  0.1188  0.7158
40080SOL     OW24695   0.877   7.568   7.475  0.1535 -0.2085  0.3885
40080SOL    HW124696   0.972   7.575   7.482  0.3219 -1.5026 -0.3678
40080SOL    HW224697   0.844   7.647   7.519  1.5904  0.8623 -0.3804
40081SOL     OW24698   2.383   7.497   0.065  0.0962  0.8367  0.1366
40081SOL    HW124699   2.353   7.533  -0.019  0.2225 -1.6891 -1.0942
40081SOL    HW224700   2.304   7.459   0.104  0.5022 -0.4157 -0.1974
40082SOL     OW24701   2.060   5.800   0.263  0.1908 -0.0093  1.2861
40082SOL    HW124702   2.019   5.789   0.177  2.3100  2.0271 -0.1023
40082SOL    HW224703   1.986   5.810   0.323 -1.5929  3.8702 -1.1347
40083SOL     OW24704   5.226   4.062   7.566  0.0720 -0.3067 -0.3050
40083SOL    HW124705   5.187   4.126   7.624  2.5296  1.0216 -0.0021
40083SOL    HW224706   5.153   4.004   7.543 -1.1357 -0.6998  3.7067
40084SOL     OW24707   4.297   1.339   5.264  0.1940 -0.0524  0.2810
40084SOL    HW124708   4.390   1.340   5.288  0.2328 -0.4247  0.1579
40084SOL    HW224709   4.255   1.292   5.335 -0.0518  0.9852  0.8400
40085SOL     OW24710   6.850   2.660   3.709 -0.6989 -0.4831 -0.3907
40085SOL    HW124711   6.821   2.590   3.767 -0.0910  0.1723  0.7503
40085SOL    HW224712   6.903   2.717   3.765  0.8951 -0.4397 -1.8605
40086SOL     OW24713   7.169   8.269   0.198 -0.0814  0.1548 -0.1629
40086SOL    HW124714   7.081   8.239   0.221  0.6849 -2.4106 -0.2452
40086SOL    HW224715   7.164   8.284   0.103 -0.7768  1.5390  0.0583
40087SOL     OW24716   5.023  10.064  10.552 -0.7333  0.1323 -0.1413
40087SOL    HW124717   5.111  10.026  10.551 -0.2537  1.1864 -0.2317
40087SOL    HW224718   5.004  10.082  10.459 -0.5052  1.0502 -0.0237
40088SOL     OW24719  10.528  10.828   3.101  0.4923 -0.2756  0.3757
40088SOL    HW124720  10.592  10.776   3.053  0.2864  0.3062 -0.5647
40088SOL    HW224721  10.571  10.912   3.115 -0.3015  0.3630 -0.8918
40089SOL     OW24722   4.850  10.934   5.011 -0.1672  0.3682 -0.1254
40089SOL    HW124723   4.908  10.988   4.958  2.2124 -2.3583 -0.5034
40089SOL    HW224724   4.811  10.872   4.950  0.7821 -1.2905  0.8827
40090SOL     OW24725   7.319   3.817   9.309 -0.1967 -0.2273 -0.8313
40090SOL    HW124726   7.391   3.763   9.275 -0.5164 -0.6861 -0.7906
40090SOL    HW224727   7.240   3.774   9.276 -0.4702 -0.0140 -0.4541
40091SOL     OW24728   6.645   8.513   7.897  0.0799  0.5755  0.5360
40091SOL    HW124729   6.729   8.541   7.862 -0.1925 -0.4553 -1.0608
40091SOL    HW224730   6.581   8.538   7.830 -0.6512 -0.2679  0.8921
40092SOL     OW24731   2.798   4.553   8.697 -0.2836  0.1073  0.3390
40092SOL    HW124732   2.806   4.531   8.790  0.5897 -0.2335  0.1981
40092SOL    HW224733   2.739   4.486   8.662 -1.8868  1.1671  0.9374
40093SOL     OW24734   4.177   0.596   5.067 -0.0678  0.1069 -0.1064
40093SOL    HW124735   4.083   0.588   5.086 -0.1553  1.2317  0.0056
40093SOL    HW224736   4.186   0.684   5.030  0.5159 -0.9851 -2.8137
40094SOL     OW24737   5.982   7.666   2.393 -0.3292 -0.0785  0.1023
40094SOL    HW124738   5.947   7.738   2.446  3.5979  1.0445  1.5799
40094SOL    HW224739   6.020   7.709   2.317 -0.5696 -0.9946 -0.5524
40095SOL     OW24740   0.719   8.043   7.161  0.6060  0.6519 -0.0980
40095SOL    HW124741   0.652   8.088   7.213 -0.2525  1.5424 -1.8842
40095SOL    HW224742   0.747   8.107   7.096  0.4489 -0.8901 -1.7759
40096SOL     OW24743   1.788   7.258   7.115  0.1250 -0.0372  0.0766
40096SOL    HW124744   1.746   7.322   7.172 -1.6958 -1.8243  0.8397
40096SOL    HW224745   1.744   7.267   7.031  1.0459  0.8332 -0.3342
40097SOL     OW24746   3.039   8.869   2.073 -0.2564  0.0046  0.4644
40097SOL    HW124747   3.112   8.897   2.128 -0.2886  0.4088  0.3111
40097SOL    HW224748   2.961   8.894   2.123 -0.2939 -0.8330  0.8292
40098SOL     OW24749   3.666   9.446   2.631  0.2521  0.0868 -0.4357
40098SOL    HW124750   3.742   9.505   2.634 -0.5478  1.2313 -1.7532
40098SOL    HW224751   3.667   9.409   2.543  0.0702 -0.9958 -0.0017
40099SOL     OW24752   5.943   9.258   1.305  0.0727  0.1075 -0.6754
40099SOL    HW124753   6.010   9.191   1.320 -0.0482  0.3780  1.3265
40099SOL    HW224754   5.867   9.209   1.273 -0.4553 -0.9930  1.9902
40100SOL     OW24755   7.660   3.946   8.827 -0.2080  0.6750  0.1231
40100SOL    HW124756   7.610   3.873   8.791  0.9069  0.4618 -1.0573
40100SOL    HW224757   7.731   3.960   8.764  1.7413  0.3972  2.1406
40101SOL     OW24758   3.674   0.082   9.304 -0.3191 -0.3792 -0.6860
40101SOL    HW124759   3.749   0.118   9.257 -0.5800  1.6089  0.3421
40101SOL    HW224760   3.712   0.048   9.385 -0.5034  0.5585 -0.1999
40102SOL     OW24761   1.674   7.395   5.743 -0.3996 -0.4485 -0.0599
40102SOL    HW124762   1.742   7.431   5.687 -1.2347 -1.6447 -1.9621
40102SOL    HW224763   1.720   7.333   5.800  0.1056 -1.6436 -1.6830
40103SOL     OW24764   8.864   9.661   7.199 -0.0220 -0.1571  0.0554
40103SOL    HW124765   8.924   9.696   7.265  1.9153 -0.3184 -1.5123
40103SOL    HW224766   8.820   9.588   7.243  0.5042  0.3341  1.4513
40104SOL     OW24767   9.485   4.851   5.311 -0.0918  0.0083 -0.2454
40104SOL    HW124768   9.574   4.823   5.332  0.0185  0.8919  0.5125
40104SOL    HW224769   9.480   4.942   5.342 -1.4744 -0.2561  0.3842
40105SOL     OW24770  10.274   2.018   7.536  0.1121  0.2333 -0.2778
40105SOL    HW124771  10.239   1.942   7.582 -1.9996  1.8527  0.9576
40105SOL    HW224772  10.260   1.998   7.443  0.9018 -1.4562 -0.0617
40106SOL     OW24773   5.450   4.681   6.238 -0.1158  0.5785 -0.2467
40106SOL    HW124774   5.542   4.673   6.214 -0.7991 -0.6894 -2.7786
40106SOL    HW224775   5.429   4.773   6.222  0.2302  0.4272 -1.7056
40107SOL     OW24776   7.922   5.340  10.326  0.7594 -0.4495  0.4178
40107SOL    HW124777   7.857   5.372  10.262 -1.2356 -0.9092  2.0967
40107SOL    HW224778   7.928   5.246  10.309  0.9889 -0.4098  0.2744
40108SOL     OW24779   5.751   6.658   0.044  0.3451  0.3362  0.5146
40108SOL    HW124780   5.809   6.624  -0.024 -0.7805  0.3134 -0.4609
40108SOL    HW224781   5.798   6.734   0.079 -0.4168  2.4539 -2.6002
40109SOL     OW24782  10.014   3.128   4.536 -0.1740 -0.1918 -0.3623
40109SOL    HW124783   9.955   3.204   4.536 -1.8625 -1.3688 -2.7275
40109SOL    HW224784   9.961   3.057   4.573  0.6302 -0.6961 -0.1713
40110SOL     OW24785   6.947   6.349   9.781 -0.5890 -0.2046 -0.2295
40110SOL    HW124786   6.862   6.323   9.818  0.6775 -3.0585  1.0522
40110SOL    HW224787   6.933   6.348   9.686 -2.4218  1.2925 -0.0366
40111SOL     OW24788   6.562   1.000  10.192  0.1696 -0.1333  0.1027
40111SOL    HW124789   6.627   0.941  10.229  1.1823  0.8258 -0.1081
40111SOL    HW224790   6.606   1.042  10.118 -1.1753 -0.5560 -0.9917
40112SOL     OW24791   9.851   2.057   7.901 -0.2662 -0.1223  0.5830
40112SOL    HW124792   9.767   2.102   7.899 -0.6219 -0.8039 -0.4352
40112SOL    HW224793   9.901   2.098   7.829 -0.9848 -2.0311 -1.0996
40113SOL     OW24794   6.783   5.566  10.292  0.2018  0.2084  0.3455
40113SOL    HW124795   6.728   5.493  10.265  1.4439 -0.5048 -0.2801
40113SOL    HW224796   6.765   5.576  10.386 -2.5869  1.3866 -0.2039
40114SOL     OW24797   8.207   3.151   0.283  0.2431  0.5801 -0.1141
40114SOL    HW124798   8.148   3.127   0.354 -2.0924  0.7157 -1.8856
40114SOL    HW224799   8.233   3.068   0.244 -0.1968  0.5759 -0.4032
40115SOL     OW24800   5.223   2.838   0.658  0.6355 -0.2632 -0.0776
40115SOL    HW124801   5.308   2.870   0.629  0.4228  1.3634  0.9278
40115SOL    HW224802   5.241   2.753   0.698  1.5428 -0.6182 -1.2089
40116SOL     OW24803   4.005   7.565   8.834  0.4162  0.2286 -0.7970
40116SOL    HW124804   4.067   7.506   8.791  1.1920 -0.1549  0.7527
40116SOL    HW224805   4.053   7.647   8.845  1.1552 -0.4177  1.4362
40117SOL     OW24806   0.764   0.760   7.315  0.7062  0.4613 -0.1206
40117SOL    HW124807   0.750   0.666   7.301 -1.0193  0.3113  2.0493
40117SOL    HW224808   0.858   0.768   7.333  0.6689 -1.0905  0.9740
40118SOL     OW24809   9.244   0.385  10.346  0.3717  0.5851 -0.3168
40118SOL    HW124810   9.329   0.361  10.311 -0.0510 -0.5993 -0.5834
40118SOL    HW224811   9.262   0.456  10.408  1.3099  1.6527 -1.7588
40119SOL     OW24812   4.685   7.790   7.212 -0.5408  0.3666  0.2710
40119SOL    HW124813   4.780   7.790   7.199 -0.4737 -1.0705  0.6183
40119SOL    HW224814   4.673   7.761   7.303 -1.3116  0.4191  0.1921
40120SOL     OW24815   5.567  10.290   5.466  0.1761 -0.0824 -0.3307
40120SOL    HW124816   5.658  10.315   5.452 -0.0553  0.1494 -1.5399
40120SOL    HW224817   5.563  10.263   5.558  1.3862  0.2033 -0.1809
40121SOL     OW24818   0.416   9.718   8.222 -0.0286  0.5963 -0.1146
40121SOL    HW124819   0.460   9.687   8.143 -0.3646  2.2674 -1.0120
40121SOL    HW224820   0.324   9.726   8.197 -0.2978  0.2992  0.7319
40122SOL     OW24821   0.784   6.445   5.783  0.5022  0.1025  0.4644
40122SOL    HW124822   0.728   6.378   5.744  0.6023 -0.8604  1.9074
40122SOL    HW224823   0.864   6.442   5.731 -0.0474  0.1326 -0.4007
40123SOL     OW24824   2.804   4.423   3.677 -0.1034  0.0446  0.2055
40123SOL    HW124825   2.889   4.393   3.707 -0.7170 -1.0187  0.9473
40123SOL    HW224826   2.744   4.403   3.749 -1.0958  0.1574 -0.5629
40124SOL     OW24827   4.480   7.549   1.192 -0.4744  0.1313 -0.5250
40124SOL    HW124828   4.558   7.600   1.173  0.3553 -0.4123  1.2338
40124SOL    HW224829   4.507   7.487   1.259 -2.3694 -0.1678  0.0310
40125SOL     OW24830   8.244  10.050   9.335  0.6334 -0.3030  0.0335
40125SOL    HW124831   8.251   9.994   9.257 -2.2001 -1.3413  0.4145
40125SOL    HW224832   8.248   9.989   9.409 -0.3869  0.2409  0.5512
40126SOL     OW24833   1.578   3.982   9.554 -0.1647 -0.5743  0.3176
40126SOL    HW124834   1.516   3.919   9.590  2.5436 -2.8961  1.2888
40126SOL    HW224835   1.527   4.062   9.542 -3.2593 -2.2734  1.1263
40127SOL     OW24836  10.598  10.815   1.017 -0.3969  0.3411 -0.0165
40127SOL    HW124837  10.529  10.830   0.952  0.7449 -0.5318 -1.4793
40127SOL    HW224838  10.572  10.734   1.062 -0.4301  0.1311 -0.4151
40128SOL     OW24839   0.557   1.249   3.075 -0.3924  0.4095 -0.3071
40128SOL    HW124840   0.477   1.238   3.023  0.1965 -1.5027 -0.8847
40128SOL    HW224841   0.605   1.167   3.063  0.5857  0.5892  1.8861
40129SOL     OW24842  10.299   1.289   0.691  0.4305  0.2745 -0.1491
40129SOL    HW124843  10.206   1.292   0.669  0.1251 -0.9598  0.8623
40129SOL    HW224844  10.344   1.272   0.608 -0.3594 -0.3831 -0.4490
40130SOL     OW24845   0.881   6.273   2.108 -0.2045 -0.1490  0.2337
40130SOL    HW124846   0.912   6.256   2.019  1.4640  1.1540  0.5124
40130SOL    HW224847   0.915   6.360   2.129 -2.6033  0.6218  1.2816
40131SOL     OW24848   9.332  11.014   1.789 -0.4754 -0.4724 -0.2088
40131SOL    HW124849   9.316  10.950   1.859  1.6096 -1.3538 -0.4509
40131SOL    HW224850   9.257  11.004   1.731 -0.4553 -2.4056  0.0085
40132SOL     OW24851   3.519   0.097   3.185  0.2183  0.0199  0.0252
40132SOL    HW124852   3.495   0.164   3.249 -0.5786  1.0312 -1.2926
40132SOL    HW224853   3.561   0.029   3.238 -1.3319  0.3208  1.7929
40133SOL     OW24854  11.044   9.495   4.558 -0.5841 -0.1072  0.3397
40133SOL    HW124855  11.139   9.511   4.559 -0.6403  0.3778 -0.6329
40133SOL    HW224856  11.022   9.489   4.465 -1.6913  0.9767  0.5012
40134SOL     OW24857   6.094   7.103   3.233 -0.0133  0.0329  0.2139
40134SOL    HW124858   6.009   7.139   3.258 -0.6202 -0.1863 -1.3839
40134SOL    HW224859   6.158   7.157   3.279 -0.9035  2.7620 -1.5593
40135SOL     OW24860   3.283   6.030   3.706  0.2278 -0.4492  0.5073
40135SOL    HW124861   3.227   6.099   3.671 -0.3446 -0.0877  2.0502
40135SOL    HW224862   3.307   6.060   3.794 -0.5817 -2.4920  1.5065
40136SOL     OW24863   8.758   0.649   7.992 -0.4312  0.2984 -0.6320
40136SOL    HW124864   8.783   0.724   7.937 -0.4784  1.9483  1.4368
40136SOL    HW224865   8.815   0.578   7.963  0.1336  1.3410 -2.2092
40137SOL     OW24866   2.863  10.141   7.744 -0.5261  0.2283  0.0775
40137SOL    HW124867   2.816  10.206   7.797 -1.3066  1.5971 -2.1563
40137SOL    HW224868   2.794  10.098   7.693  0.2246 -0.8180 -0.0700
40138SOL     OW24869   7.523  10.973   1.236 -0.3708 -0.2627 -0.5017
40138SOL    HW124870   7.616  10.994   1.250 -0.2828 -1.2349  0.6055
40138SOL    HW224871   7.515  10.883   1.267 -1.6076 -0.3257 -0.9719
40139SOL     OW24872   5.354   8.353   7.735 -0.4388 -0.3371 -0.2831
40139SOL    HW124873   5.293   8.423   7.711 -1.0509  0.0312  2.1020
40139SOL    HW224874   5.428   8.399   7.775 -0.0773 -0.9718 -0.2192
40140SOL     OW24875   7.717   2.878   9.429 -0.1659  0.0759 -0.0447
40140SOL    HW124876   7.684   2.913   9.347  0.9588 -1.1682 -1.0914
40140SOL    HW224877   7.804   2.917   9.438 -0.1733 -0.0113  0.4055
40141SOL     OW24878   3.986   7.045   3.980 -0.4776 -0.3740  0.2052
40141SOL    HW124879   3.899   7.086   3.975 -0.0843  0.5965  1.0495
40141SOL    HW224880   3.974   6.972   4.041 -0.8070 -0.5384 -0.0524
40142SOL     OW24881   3.743   3.004  10.070 -0.0981  0.0620 -0.0014
40142SOL    HW124882   3.833   3.030  10.092  0.0371  0.7227 -1.2576
40142SOL    HW224883   3.745   2.988   9.976 -1.0435 -1.0283  0.1481
40143SOL     OW24884   4.947   4.222   2.430 -0.2196 -0.1426  0.5414
40143SOL    HW124885   5.030   4.217   2.383 -0.6879  1.8614 -0.6463
40143SOL    HW224886   4.914   4.133   2.430  2.0115 -1.0392  1.2614
40144SOL     OW24887   3.970   8.763   3.089  0.0725  0.1128  0.3576
40144SOL    HW124888   3.933   8.840   3.046 -1.3097 -0.1745  0.9732
40144SOL    HW224889   3.969   8.695   3.022 -1.1251 -0.0611  0.5451
40145SOL     OW24890   4.665   6.217   2.439 -0.1243 -0.4419 -0.6253
40145SOL    HW124891   4.733   6.226   2.373  2.0152  0.1535  1.5395
40145SOL    HW224892   4.709   6.182   2.516 -2.0954  0.6169  1.1088
40146SOL     OW24893  10.507   0.769   5.413  0.1583  0.7354  0.1514
40146SOL    HW124894  10.593   0.765   5.371  0.7340 -1.9593  1.3931
40146SOL    HW224895  10.526   0.782   5.505 -0.5868 -1.6063  0.7069
40147SOL     OW24896   1.358  10.345   7.838  0.2246  0.1847 -0.2098
40147SOL    HW124897   1.351  10.254   7.809  0.9158  0.1938 -0.4301
40147SOL    HW224898   1.394  10.339   7.926 -0.6524  0.2125  0.1615
40148SOL     OW24899   9.646   5.492  10.261 -0.4292 -0.5024  0.1196
40148SOL    HW124900   9.631   5.480  10.355 -0.6773 -1.0798  0.0127
40148SOL    HW224901   9.560   5.514  10.226 -0.8040 -2.4542 -0.2884
40149SOL     OW24902   3.184   2.717  10.893  0.5861  0.7728  0.4040
40149SOL    HW124903   3.207   2.802  10.857 -1.2378  1.2148  0.2150
40149SOL    HW224904   3.130   2.736  10.969  1.5205 -0.2197  1.3641
40150SOL     OW24905   8.144   6.422   7.637 -0.0884 -0.0708 -0.1265
40150SOL    HW124906   8.055   6.391   7.655 -0.1408  1.0745  1.9357
40150SOL    HW224907   8.144   6.513   7.669  2.1138 -0.4100  1.0444
40151SOL     OW24908   8.611   1.547   9.565  0.2627 -0.4582  0.0022
40151SOL    HW124909   8.545   1.487   9.529  0.6972 -0.4943 -0.7613
40151SOL    HW224910   8.689   1.493   9.576  0.8514  0.0935 -1.3079
40152SOL     OW24911   3.933   6.546   5.521  0.1888 -0.0983 -0.2458
40152SOL    HW124912   3.960   6.566   5.611 -1.2931  0.1708  0.1697
40152SOL    HW224913   3.953   6.453   5.510  2.4730  0.3499 -0.4525
40153SOL     OW24914   3.916   5.976   1.436  0.0575  0.9220  0.1973
40153SOL    HW124915   3.936   5.900   1.491  0.5184  0.5371 -0.4834
40153SOL    HW224916   3.821   5.987   1.442  0.1448  1.1239  1.3654
40154SOL     OW24917   2.888   3.102   6.951  0.3866 -0.0449  0.3563
40154SOL    HW124918   2.853   3.086   6.864  1.4975 -0.2196 -0.0772
40154SOL    HW224919   2.961   3.162   6.936 -0.6700  1.5764  1.4014
40155SOL     OW24920   9.458   8.713   5.707 -0.0175 -0.3421  0.3052
40155SOL    HW124921   9.449   8.666   5.789  0.0989 -0.8150  0.0499
40155SOL    HW224922   9.550   8.740   5.704 -0.4621  1.4457  1.2721
40156SOL     OW24923   3.489   3.512   1.274 -0.0301  0.0951  0.1561
40156SOL    HW124924   3.424   3.571   1.236 -1.2190 -0.3714  1.3866
40156SOL    HW224925   3.469   3.426   1.237  0.3501  0.0722 -0.0071
40157SOL     OW24926   5.053   6.108  10.054  0.5855 -0.2898 -0.0471
40157SOL    HW124927   5.002   6.189  10.049 -1.0524 -1.1128  1.7526
40157SOL    HW224928   5.143   6.137  10.067 -0.1192  1.2862  1.7915
40158SOL     OW24929   5.886   3.694   1.691  0.2593  0.1824 -0.5041
40158SOL    HW124930   5.896   3.604   1.721  0.0828  0.8481  1.7641
40158SOL    HW224931   5.793   3.713   1.704  0.1251  0.4777 -1.7232
40159SOL     OW24932   1.201   9.682   9.931  1.3697  0.3979 -1.0264
40159SOL    HW124933   1.111   9.713   9.934  1.4336  0.5448 -0.2148
40159SOL    HW224934   1.216   9.657   9.840 -0.1556 -1.5854 -0.8168
40160SOL     OW24935   4.099   7.976   2.674  0.0134 -0.3418 -0.1252
40160SOL    HW124936   4.102   8.035   2.749  0.9673 -1.2872  0.6060
40160SOL    HW224937   4.186   7.937   2.671 -0.5610 -1.6093 -0.6760
40161SOL     OW24938   7.556   1.591  10.779 -0.1160 -0.1480 -0.2658
40161SOL    HW124939   7.613   1.611  10.705 -1.0237 -0.4216 -1.0577
40161SOL    HW224940   7.584   1.651  10.848  0.4688  0.4018 -0.9639
40162SOL     OW24941   1.979   5.465   6.849 -0.4230  0.0116 -0.1750
40162SOL    HW124942   1.995   5.387   6.797 -0.3258  0.8025 -1.3793
40162SOL    HW224943   1.981   5.435   6.940  0.2642 -1.2552 -0.5916
40163SOL     OW24944   6.052   9.149  10.356  0.2714 -0.1825  0.8191
40163SOL    HW124945   6.132   9.197  10.376  0.6338 -0.0398 -0.8370
40163SOL    HW224946   6.072   9.058  10.377  1.0235 -0.2061  0.0438
40164SOL     OW24947   8.261   6.500  10.926  0.5704 -0.3118  0.3385
40164SOL    HW124948   8.355   6.505  10.941  0.5135  0.7085  0.4484
40164SOL    HW224949   8.222   6.529  11.009  0.1030 -2.6562  1.0173
40165SOL     OW24950   5.520   2.006   3.117  0.0568  0.3116  0.3674
40165SOL    HW124951   5.612   2.007   3.092 -0.1751  1.7460 -0.5996
40165SOL    HW224952   5.520   2.028   3.210  0.6952  0.2768  0.3801
40166SOL     OW24953   8.126  10.088   0.282  0.5472  0.5712 -0.1269
40166SOL    HW124954   8.073  10.164   0.257  1.2099  0.7387 -1.0828
40166SOL    HW224955   8.216  10.120   0.280  0.7187  0.2926  1.4980
40167SOL     OW24956   5.502   5.942   4.141 -0.0111 -0.1696 -1.0390
40167SOL    HW124957   5.535   5.904   4.222 -0.2016 -2.2714 -1.8954
40167SOL    HW224958   5.577   5.992   4.106  0.6500 -0.7586 -0.4923
40168SOL     OW24959   1.540   4.787   9.719  0.2458 -0.0138 -0.4778
40168SOL    HW124960   1.576   4.858   9.773 -0.8416 -0.3419  0.7111
40168SOL    HW224961   1.459   4.762   9.763 -0.0423 -1.1335 -1.6037
40169SOL     OW24962   2.624   2.606   7.251  0.0704  0.1019  0.0133
40169SOL    HW124963   2.619   2.689   7.204 -0.5475 -0.7974 -1.5940
40169SOL    HW224964   2.628   2.630   7.344 -1.0641  1.8891 -0.3687
40170SOL     OW24965   6.483   5.039   6.073  0.0926  0.0464  0.1659
40170SOL    HW124966   6.562   5.063   6.025  0.0532 -0.1792 -0.0158
40170SOL    HW224967   6.464   5.114   6.129 -0.2255  0.5855 -0.6522
40171SOL     OW24968   6.364   6.081   2.505 -0.3274  0.1878 -0.1153
40171SOL    HW124969   6.406   6.055   2.423  1.6005 -1.6682  1.3636
40171SOL    HW224970   6.411   6.159   2.532 -2.2350  1.9852 -1.6172
40172SOL     OW24971   6.487   8.698   2.829  0.5075  0.4113 -0.2760
40172SOL    HW124972   6.489   8.773   2.889 -1.8320  0.1192  0.2737
40172SOL    HW224973   6.413   8.715   2.772 -0.7453 -1.9296  0.5280
40173SOL     OW24974   8.939   7.688   6.362  0.2373 -0.5889  0.0903
40173SOL    HW124975   8.987   7.771   6.359 -1.2896  0.3572  0.7295
40173SOL    HW224976   8.882   7.696   6.439 -1.6849 -1.2207 -1.1992
40174SOL     OW24977  10.745   6.315   8.608 -0.3887  0.3845 -0.1126
40174SOL    HW124978  10.652   6.301   8.592 -0.3598 -0.5281  0.4178
40174SOL    HW224979  10.758   6.286   8.698  0.4558  0.2516 -0.2714
40175SOL     OW24980   0.225   4.980   1.325  0.4052  0.0159  0.1590
40175SOL    HW124981   0.248   4.920   1.397  0.2130 -0.1345  0.0961
40175SOL    HW224982   0.306   5.028   1.308  0.9237 -1.0776 -0.6111
40176SOL     OW24983  10.003   6.271   6.618  0.0747  0.3797  0.1615
40176SOL    HW124984   9.982   6.314   6.535 -0.8888 -1.4184 -0.5881
40176SOL    HW224985   9.923   6.226   6.643  0.2122  1.2000  2.3331
40177SOL     OW24986   0.193   9.441   6.043 -0.6365  0.2266  0.4876
40177SOL    HW124987   0.254   9.451   5.970  0.2422 -1.6123  0.8978
40177SOL    HW224988   0.219   9.508   6.106 -0.4233  0.8331 -0.2302
40178SOL     OW24989   5.546   4.422   8.615 -1.0301  0.0853  0.3730
40178SOL    HW124990   5.553   4.346   8.673 -1.0862 -0.4766 -0.3517
40178SOL    HW224991   5.636   4.438   8.586 -1.4445 -2.3491 -2.8035
40179SOL     OW24992   1.118   4.053   4.950  0.1395  0.1805 -0.3785
40179SOL    HW124993   1.116   4.146   4.926 -0.6188  0.5043  0.8153
40179SOL    HW224994   1.194   4.018   4.904  1.5148  1.7946  0.5382
40180SOL     OW24995   6.640   2.071   6.975 -0.0077  0.1016  0.2454
40180SOL    HW124996   6.637   2.142   6.911 -1.0777  0.0537  0.2262
40180SOL    HW224997   6.732   2.065   6.999  0.1857  1.1158 -0.1780
40181SOL     OW24998   2.841   0.795  10.827 -0.0897  0.0564 -0.0427
40181SOL    HW124999   2.902   0.782  10.900 -2.0003  0.1721  1.6621
40181SOL    HW225000   2.839   0.709  10.783  0.8385 -0.1113  0.2107
40182SOL     OW25001   7.552   7.139   9.998 -0.6314 -0.1281 -0.0289
40182SOL    HW125002   7.599   7.058   9.979 -1.6033 -1.3826  2.4711
40182SOL    HW225003   7.465   7.111  10.027 -2.6984  2.0598 -3.3654
40183SOL     OW25004   9.868   2.727   2.061  0.4478 -0.5677  0.2100
40183SOL    HW125005   9.857   2.807   2.010 -2.7330 -0.5061  0.7939
40183SOL    HW225006   9.823   2.660   2.011 -0.6404 -1.0296  1.7403
40184SOL     OW25007   4.225   4.970   7.561  0.1321 -0.6552  0.0894
40184SOL    HW125008   4.151   4.939   7.508  0.7440 -1.0843 -0.5328
40184SOL    HW225009   4.302   4.931   7.520  0.8725  1.0771 -0.2383
40185SOL     OW25010   2.763   6.618   4.880 -0.0578  0.2868  0.3336
40185SOL    HW125011   2.776   6.587   4.790  0.0537  1.0583  0.0803
40185SOL    HW225012   2.844   6.664   4.901  0.0178 -0.1071  0.9260
40186SOL     OW25013   4.316   0.569  10.794 -0.6136 -0.3528  0.1953
40186SOL    HW125014   4.324   0.658  10.761 -0.9805 -0.1518  0.6312
40186SOL    HW225015   4.285   0.517  10.720  0.5452 -0.3147 -0.3345
40187SOL     OW25016   0.162   7.711   2.904  0.2039 -0.0139 -0.4084
40187SOL    HW125017   0.086   7.741   2.854 -0.7210 -0.2333  0.8245
40187SOL    HW225018   0.147   7.617   2.917 -0.6109  0.3714  1.9376
40188SOL     OW25019   8.576   9.250   3.786  0.4795 -0.2121  0.0859
40188SOL    HW125020   8.505   9.311   3.805  0.5660 -0.4432  1.2547
40188SOL    HW225021   8.654   9.293   3.823  0.6314 -0.7686  0.4188
40189SOL     OW25022   9.281   6.886   8.144  0.1950 -0.0704 -0.5852
40189SOL    HW125023   9.338   6.896   8.220 -0.1143  0.7256 -0.4397
40189SOL    HW225024   9.340   6.860   8.073  0.6493  0.1515 -0.2979
40190SOL     OW25025   3.807   8.321   1.054  0.0401  0.0613 -1.0541
40190SOL    HW125026   3.807   8.254   0.986 -0.2704 -0.1578 -0.8411
40190SOL    HW225027   3.860   8.392   1.017  1.0642 -0.6310 -0.9404
40191SOL     OW25028   4.518   4.018   9.888  0.3228  0.0694 -0.6683
40191SOL    HW125029   4.589   3.976   9.839 -0.5365 -0.5853 -1.3922
40191SOL    HW225030   4.446   4.024   9.825 -0.3888  0.4020  0.1519
40192SOL     OW25031   0.982   0.110   7.601  0.0135 -0.2889 -0.2528
40192SOL    HW125032   0.918   0.059   7.551 -1.2757  2.4094 -1.5145
40192SOL    HW225033   1.023   0.045   7.658 -0.3539 -3.0507 -2.8355
40193SOL     OW25034   6.503   1.119   4.632  0.9099  0.1650 -0.3410
40193SOL    HW125035   6.410   1.105   4.652  0.7771 -0.2715 -1.2243
40193SOL    HW225036   6.504   1.198   4.578  1.0090 -0.1080 -0.7338
40194SOL     OW25037   5.153   8.771   2.911 -0.0809 -0.5694  0.5808
40194SOL    HW125038   5.171   8.682   2.941 -1.9613 -1.0442  0.4005
40194SOL    HW225039   5.197   8.777   2.826 -2.3821 -2.3941 -0.8338
40195SOL     OW25040   3.679   6.375   4.896  0.4414 -0.9037  0.3817
40195SOL    HW125041   3.752   6.402   4.841  0.2537 -1.4780 -0.1508
40195SOL    HW225042   3.611   6.345   4.835 -0.8506  1.0291  0.7689
40196SOL     OW25043  10.971   9.382   4.832 -0.5416  0.0439  0.5046
40196SOL    HW125044  10.978   9.431   4.749 -0.5821 -0.7231  0.0417
40196SOL    HW225045  11.040   9.419   4.887  0.8433 -0.7944 -0.5876
40197SOL     OW25046   3.558   6.335   6.379 -0.3084 -0.5228  0.9106
40197SOL    HW125047   3.634   6.314   6.325  0.0777  0.2931  1.1260
40197SOL    HW225048   3.580   6.301   6.466 -1.3798 -2.8225  0.3662
40198SOL     OW25049   0.033   6.013   1.532 -0.5501  0.4145 -0.1841
40198SOL    HW125050   0.111   6.025   1.478  0.3983  0.4708  1.1678
40198SOL    HW225051  -0.024   6.086   1.507 -0.6563 -0.1946 -1.9204
40199SOL     OW25052   1.405   9.222   1.643 -0.2714  0.0956  0.8800
40199SOL    HW125053   1.325   9.169   1.644 -1.1683  1.3783  0.0383
40199SOL    HW225054   1.375   9.311   1.658  0.9106  0.6925 -0.1355
40200SOL     OW25055   4.995   5.213   3.235  0.2334 -0.2602  0.1737
40200SOL    HW125056   5.038   5.279   3.181  0.6383  0.6911  1.5911
40200SOL    HW225057   4.933   5.170   3.177 -1.2599  2.4989 -0.4445
40201SOL     OW25058   2.824   9.699   5.103 -0.3774  0.0661 -0.3540
40201SOL    HW125059   2.851   9.758   5.174  0.3165 -0.1499 -0.4261
40201SOL    HW225060   2.900   9.643   5.090 -0.6855 -0.2157 -0.9406
40202SOL     OW25061   5.812   0.768   1.239  0.6996 -0.6245 -0.1920
40202SOL    HW125062   5.798   0.695   1.179 -4.0555  0.4882 -0.8671
40202SOL    HW225063   5.754   0.749   1.313 -1.2541  2.6153 -0.7067
40203SOL     OW25064   8.416   3.507  10.045 -0.4240 -0.2285 -0.5475
40203SOL    HW125065   8.386   3.586  10.090  1.5380  1.5134 -2.0814
40203SOL    HW225066   8.466   3.460  10.111 -0.9293  0.2266  0.1745
40204SOL     OW25067   1.822   3.630   2.070 -0.5266  0.3595 -0.5251
40204SOL    HW125068   1.800   3.692   2.000 -1.0832 -0.8701 -1.4811
40204SOL    HW225069   1.882   3.568   2.030 -0.7020 -0.2595  0.1402
40205SOL     OW25070   0.819   9.382   5.365 -0.1425 -0.4093 -0.0685
40205SOL    HW125071   0.758   9.340   5.425  0.7674  0.1061  1.2586
40205SOL    HW225072   0.849   9.310   5.308 -0.1871 -1.1433  0.8122
40206SOL     OW25073   2.840   6.023   8.307  0.5581 -0.1868  0.5202
40206SOL    HW125074   2.847   5.963   8.380  0.2869 -2.5241 -1.2635
40206SOL    HW225075   2.747   6.025   8.285  0.7492 -0.2780 -0.3512
40207SOL     OW25076   3.510   9.974   5.315  0.8548 -0.6029  0.1196
40207SOL    HW125077   3.432  10.014   5.278  0.1103  0.7274  2.8743
40207SOL    HW225078   3.519   9.891   5.268 -0.5052  0.4830 -2.2528
40208SOL     OW25079   1.212   3.380   9.560  0.2470  0.2254 -0.0108
40208SOL    HW125080   1.166   3.453   9.519 -0.9961  0.7929  2.2449
40208SOL    HW225081   1.143   3.326   9.600  0.9128 -3.2782 -2.9992
40209SOL     OW25082  10.851   2.270   1.683  0.4024  0.2210  0.4942
40209SOL    HW125083  10.876   2.353   1.724  2.6182  0.1911 -0.6311
40209SOL    HW225084  10.914   2.206   1.718  1.2807 -0.1384 -1.5581
40210SOL     OW25085  10.482  10.415   0.893 -0.4222  0.1678  0.2395
40210SOL    HW125086  10.542  10.343   0.910 -0.5852  0.1860  0.9161
40210SOL    HW225087  10.490  10.431   0.799 -0.8400 -1.1461 -0.0504
40211SOL     OW25088   2.466   5.494   8.370  0.2668 -0.7004 -0.0688
40211SOL    HW125089   2.494   5.573   8.324 -0.2142 -0.9864 -0.8549
40211SOL    HW225090   2.388   5.521   8.418  0.8830 -0.3498  0.7671
40212SOL     OW25091   8.162   6.912   4.170  0.2908  0.0683 -0.2402
40212SOL    HW125092   8.109   6.876   4.100 -0.6991  1.3953 -0.2147
40212SOL    HW225093   8.148   7.007   4.164  0.0201  0.2087  1.8599
40213SOL     OW25094   1.037  10.077   5.006 -0.2126 -0.2790 -0.2243
40213SOL    HW125095   1.090  10.149   4.974 -1.8623  1.3816  0.6110
40213SOL    HW225096   1.075  10.054   5.091 -0.2920  0.3099 -0.0245
40214SOL     OW25097   7.862   6.998   2.869  0.1118 -0.4771  0.1375
40214SOL    HW125098   7.948   6.958   2.877  0.5102  0.5869  1.7990
40214SOL    HW225099   7.868   7.053   2.791  0.4846 -1.4322 -0.5175
40215SOL     OW25100   5.433   6.787   9.980 -0.3989  0.7007  0.5248
40215SOL    HW125101   5.445   6.872  10.024 -0.4861  0.4574  1.0299
40215SOL    HW225102   5.517   6.742   9.993 -0.2219  0.8487 -0.0646
40216SOL     OW25103   0.926   1.227   7.725  0.1631  0.4339  0.1074
40216SOL    HW125104   0.938   1.317   7.696 -1.1319  0.4151 -0.5784
40216SOL    HW225105   0.863   1.190   7.663 -0.3452 -0.5484  1.1624
40217SOL     OW25106   2.755   2.619   5.321  0.1302  0.3341  0.6471
40217SOL    HW125107   2.782   2.551   5.383  2.2535  1.7316  1.3462
40217SOL    HW225108   2.767   2.578   5.235 -0.5674 -0.8301  1.0747
40218SOL     OW25109   4.575   0.817   7.092  0.4846 -0.6542 -0.4968
40218SOL    HW125110   4.665   0.819   7.061  0.7365 -1.0106  0.1902
40218SOL    HW225111   4.529   0.762   7.029  0.7615 -0.5428 -0.7995
40219SOL     OW25112  10.215   3.226   6.450 -0.4281  0.1267 -0.1657
40219SOL    HW125113  10.148   3.242   6.383 -0.0118  1.1022 -0.3668
40219SOL    HW225114  10.243   3.313   6.477 -1.4119 -0.1989  2.1497
40220SOL     OW25115  10.327   3.678   8.945  0.5926  0.2500 -0.0782
40220SOL    HW125116  10.262   3.712   9.006 -0.2230  0.8747 -1.2515
40220SOL    HW225117  10.403   3.658   9.000 -1.3485 -2.9362  1.7737
40221SOL     OW25118   3.642   7.535   3.577  0.3458  0.0770 -0.0722
40221SOL    HW125119   3.571   7.594   3.604  0.0110  0.3419 -1.4218
40221SOL    HW225120   3.680   7.578   3.500  1.6198 -0.3442  0.3111
40222SOL     OW25121   8.188   6.420   0.872  1.1127  0.2765 -0.4171
40222SOL    HW125122   8.201   6.339   0.821  1.5645  0.4061 -0.5148
40222SOL    HW225123   8.114   6.463   0.829  0.5886 -0.2942 -0.0979
40223SOL     OW25124   5.141   5.859   2.105 -0.2715 -0.1953  0.1178
40223SOL    HW125125   5.197   5.785   2.130 -0.6874 -0.7529 -0.5365
40223SOL    HW225126   5.052   5.829   2.126 -0.4965 -0.1211 -0.6926
40224SOL     OW25127   6.441   1.409   6.111  0.6302  0.1163 -0.3267
40224SOL    HW125128   6.442   1.505   6.107 -1.1973  0.1401 -1.8983
40224SOL    HW225129   6.475   1.388   6.198 -1.2493  2.3235  1.0745
40225SOL     OW25130   5.662   5.744   6.929 -0.8071 -0.6038  0.1314
40225SOL    HW125131   5.690   5.666   6.978 -0.1440 -1.6197 -1.7530
40225SOL    HW225132   5.722   5.813   6.958 -0.0854 -1.3050  0.3386
40226SOL     OW25133   1.089   4.605   1.933 -0.2438 -0.6146 -0.7796
40226SOL    HW125134   0.994   4.613   1.943 -0.5731 -1.5118 -2.6633
40226SOL    HW225135   1.120   4.695   1.924 -0.6462 -0.1880  1.5113
40227SOL     OW25136   8.728   9.420   9.057 -0.2049  0.5051  0.5005
40227SOL    HW125137   8.798   9.359   9.034 -0.3311  1.4015 -2.7483
40227SOL    HW225138   8.647   9.375   9.031 -0.6033  0.6543  1.4490
40228SOL     OW25139   4.525   7.822   3.846  0.0628  0.1617 -0.0103
40228SOL    HW125140   4.470   7.746   3.828 -0.3479  0.7751 -1.4456
40228SOL    HW225141   4.614   7.790   3.833 -0.1577  0.1956 -1.7573
40229SOL     OW25142   2.753  11.022   4.717  0.2234 -0.4780 -0.1543
40229SOL    HW125143   2.758  11.091   4.651  0.7045  0.5878  0.9597
40229SOL    HW225144   2.843  10.994   4.730  0.1331 -0.6926  0.0327
40230SOL     OW25145   8.359  11.058  10.787 -0.1824  0.1750 -0.1769
40230SOL    HW125146   8.347  11.020  10.874  0.5486 -0.6431 -0.4238
40230SOL    HW225147   8.307  11.003  10.729 -0.0450  0.2494 -0.3732
40231SOL     OW25148   5.981   4.066  10.542  0.0070 -0.3943 -0.1999
40231SOL    HW125149   5.991   4.141  10.602  1.7567 -1.9530  1.5978
40231SOL    HW225150   6.038   4.087  10.468 -0.9684  0.8540 -0.6363
40232SOL     OW25151   6.155   2.444   4.728 -0.1552  0.1551 -0.4021
40232SOL    HW125152   6.178   2.398   4.648 -0.0343 -1.4339  0.5029
40232SOL    HW225153   6.061   2.427   4.739 -0.0699 -0.0501  0.0345
40233SOL     OW25154   2.177   4.165   0.427 -0.7106  0.3192 -0.0684
40233SOL    HW125155   2.188   4.070   0.434 -1.2027  0.2855  0.2856
40233SOL    HW225156   2.085   4.180   0.448  0.0018  1.1692  2.8593
40234SOL     OW25157   8.936   3.042   3.045  0.2548  0.4267 -0.0572
40234SOL    HW125158   8.925   3.062   2.952  0.2489  0.2034 -0.1054
40234SOL    HW225159   8.978   2.956   3.046 -0.0543  0.2761  0.1484
40235SOL     OW25160   5.796   9.197   8.416  0.1238  0.3797 -0.2344
40235SOL    HW125161   5.803   9.102   8.409  0.3259  0.4128 -0.5090
40235SOL    HW225162   5.875   9.230   8.372 -0.2628  0.6885 -0.7064
40236SOL     OW25163   1.687   9.654   0.908  0.5545 -0.8341 -0.0023
40236SOL    HW125164   1.673   9.676   0.816  0.4673 -1.5093 -0.1579
40236SOL    HW225165   1.782   9.639   0.915  0.1846 -5.0368 -1.0251
40237SOL     OW25166   0.057  11.043   1.096  0.4898  0.3396 -0.0809
40237SOL    HW125167   0.020  11.131   1.104  0.0608  0.0897  0.8628
40237SOL    HW225168   0.015  11.006   1.019  0.1001  0.7003 -0.0481
40238SOL     OW25169   3.581   7.716   6.692  0.8765  0.0559  0.0966
40238SOL    HW125170   3.528   7.761   6.626 -0.6503 -0.6841  0.7515
40238SOL    HW225171   3.621   7.786   6.743  1.0566  0.6389 -0.8169
40239SOL     OW25172   4.455   2.411   1.388  0.4347 -0.1636  0.0010
40239SOL    HW125173   4.370   2.431   1.349  0.6008  0.2165 -0.1824
40239SOL    HW225174   4.436   2.388   1.478  0.1159 -0.2956 -0.0988
40240SOL     OW25175   2.958   5.972   0.958 -0.2886 -0.1431  0.4946
40240SOL    HW125176   3.017   5.982   0.883 -2.7499 -0.9283 -1.7411
40240SOL    HW225177   2.922   5.884   0.948 -1.7479  0.2574  1.7759
40241SOL     OW25178   3.775  10.369   0.156  0.0876 -0.0323 -0.1984
40241SOL    HW125179   3.755  10.335   0.244  2.5125 -0.8902  0.0938
40241SOL    HW225180   3.790  10.462   0.170  0.1089 -0.0988  0.2481
40242SOL     OW25181   4.617   9.366   6.527 -0.2884  0.3467  0.5706
40242SOL    HW125182   4.639   9.403   6.442 -0.0226 -0.0255  0.4750
40242SOL    HW225183   4.522   9.371   6.532 -0.3427 -0.0900  0.0389
40243SOL     OW25184   4.555   9.277   3.153 -0.3077 -0.8911 -0.3053
40243SOL    HW125185   4.598   9.357   3.184  0.1558 -1.1234 -0.3448
40243SOL    HW225186   4.473   9.273   3.203  0.4391 -1.2787  0.9119
40244SOL     OW25187   1.544   6.792  10.757 -0.7757 -0.5410  0.6228
40244SOL    HW125188   1.593   6.780  10.838 -0.7308 -1.5912  0.4654
40244SOL    HW225189   1.611   6.797  10.689 -0.8289 -0.0990  0.6003
40245SOL     OW25190   7.242   3.852   9.984  0.0937 -0.2904 -0.0983
40245SOL    HW125191   7.334   3.854   9.956  0.4790  1.0045  1.1563
40245SOL    HW225192   7.205   3.934   9.953 -0.2129 -0.0963  0.7669
40246SOL     OW25193   2.162  10.108   3.204  0.2640  0.5851 -0.4757
40246SOL    HW125194   2.133  10.162   3.278  2.7017  1.6957 -0.2693
40246SOL    HW225195   2.175  10.170   3.132  1.4917  0.0460 -0.7313
40247SOL     OW25196  10.575   2.710   8.873 -0.4393 -0.3314  0.6050
40247SOL    HW125197  10.614   2.716   8.786  1.2003  0.0644  1.3231
40247SOL    HW225198  10.521   2.631   8.870  0.4741 -0.9528 -0.4506
40248SOL     OW25199   3.635   9.532   0.173  0.3937 -0.2804 -0.7336
40248SOL    HW125200   3.656   9.459   0.232  0.8567 -0.8039 -1.5316
40248SOL    HW225201   3.689   9.517   0.096 -0.7133  0.0055 -1.5904
40249SOL     OW25202   3.733   7.819   9.028  0.3503  0.0963 -0.4650
40249SOL    HW125203   3.794   7.893   9.033 -0.2734  0.5417  0.6699
40249SOL    HW225204   3.778   7.748   9.073  1.0944 -0.3557 -1.8442
40250SOL     OW25205   1.002   9.963   9.248  0.1765 -0.0803  0.3856
40250SOL    HW125206   0.911   9.959   9.276 -0.2743 -0.9114 -1.1125
40250SOL    HW225207   1.025  10.056   9.254 -0.9516  0.2205  0.2316
40251SOL     OW25208   0.558   7.184   8.562 -0.3021 -0.0332  0.1583
40251SOL    HW125209   0.617   7.254   8.591 -1.9563  0.8522  1.5278
40251SOL    HW225210   0.494   7.176   8.632 -1.5324 -1.3254 -1.0520
40252SOL     OW25211  10.861   5.718   6.712  0.4309  0.2147  0.7980
40252SOL    HW125212  10.887   5.775   6.784 -0.8492  2.4275 -0.3896
40252SOL    HW225213  10.773   5.747   6.689  0.0327 -1.7627 -0.3729
40253SOL     OW25214   5.933   4.716   9.435 -0.2895  0.5561  0.1525
40253SOL    HW125215   5.989   4.638   9.433 -1.2767 -0.1689 -1.0878
40253SOL    HW225216   5.992   4.788   9.415  0.6049  0.1203  1.1239
40254SOL     OW25217  10.553   5.300   0.245 -0.0454 -0.3080  0.4412
40254SOL    HW125218  10.622   5.233   0.244 -1.3753 -1.7627  1.5708
40254SOL    HW225219  10.534   5.316   0.153  0.9685 -0.7731  0.1349
40255SOL     OW25220   8.017   4.835   4.724 -0.5126 -0.8404  0.4346
40255SOL    HW125221   7.939   4.878   4.689 -1.2821 -1.9554  0.7471
40255SOL    HW225222   8.087   4.899   4.710 -1.9635  1.5292  2.9211
40256SOL     OW25223   1.946   6.455  10.685  0.2718  0.0390  0.1673
40256SOL    HW125224   1.928   6.389  10.752 -0.1836 -0.7633 -0.7202
40256SOL    HW225225   1.969   6.534  10.734 -1.5540 -0.0769  1.3056
40257SOL     OW25226   6.500   2.583   6.668  0.0592  0.1963  0.0420
40257SOL    HW125227   6.504   2.669   6.708 -0.9671  0.5774 -0.6446
40257SOL    HW225228   6.574   2.582   6.607  0.1217  0.5578  0.1094
40258SOL     OW25229   6.860   2.966   4.330  0.6000  0.4837 -0.5087
40258SOL    HW125230   6.908   2.959   4.412  1.5825  0.2285 -1.0781
40258SOL    HW225231   6.789   2.903   4.338  0.1479  1.1055  0.4839
40259SOL     OW25232   9.292   8.696   4.606  0.4788  0.1489 -0.4441
40259SOL    HW125233   9.289   8.736   4.519  2.4520  0.9980 -0.1797
40259SOL    HW225234   9.316   8.768   4.664 -0.3534 -0.5090  0.7608
40260SOL     OW25235   1.154   1.476  10.674 -0.1318  0.1120 -0.4896
40260SOL    HW125236   1.240   1.451  10.639  0.0760  0.6937 -0.4019
40260SOL    HW225237   1.148   1.430  10.757  0.6176  1.0083  0.0813
40261SOL     OW25238  10.194   5.717   7.077  0.0354 -0.2590 -0.2636
40261SOL    HW125239  10.171   5.640   7.130 -1.6212 -1.7040 -2.8885
40261SOL    HW225240  10.160   5.791   7.127  0.8144 -1.2598  1.8905
40262SOL     OW25241   5.206   4.871   5.774  0.2244  0.3637  0.2589
40262SOL    HW125242   5.295   4.887   5.807 -0.0637  0.5352  0.9497
40262SOL    HW225243   5.186   4.949   5.722  0.5425  0.2461 -0.0464
40263SOL     OW25244   8.463   8.754   8.280  0.2752  0.0089 -0.4515
40263SOL    HW125245   8.487   8.826   8.222  0.2223  0.1707 -0.2718
40263SOL    HW225246   8.483   8.675   8.229  0.1851  0.1490 -0.7093
40264SOL     OW25247  10.880   1.800   7.813 -0.0998 -0.0409 -0.1279
40264SOL    HW125248  10.885   1.881   7.761  0.3680 -0.5452 -0.8771
40264SOL    HW225249  10.905   1.827   7.901 -2.7952  1.2455  0.3510
40265SOL     OW25250   0.818  10.201   5.862  0.0755 -0.2991  0.3308
40265SOL    HW125251   0.786  10.153   5.786 -0.2214 -0.2070  0.3972
40265SOL    HW225252   0.778  10.157   5.937 -1.1618  0.7851  0.3286
40266SOL     OW25253   7.003   8.110   4.832  0.0046  0.0146  0.8197
40266SOL    HW125254   6.956   8.028   4.841  1.3642 -0.8212  0.5759
40266SOL    HW225255   6.977   8.143   4.746 -2.3626  1.0766  1.8645
40267SOL     OW25256  10.254   5.488   1.861 -0.1227 -0.4375 -0.0440
40267SOL    HW125257  10.325   5.499   1.798  0.0628  0.5977  0.3298
40267SOL    HW225258  10.297   5.482   1.946 -0.3785 -1.7358  0.0250
40268SOL     OW25259  10.902   0.359   5.316 -0.0637 -0.7238  0.5926
40268SOL    HW125260  10.922   0.266   5.324 -2.0090 -1.1975  0.6304
40268SOL    HW225261  10.809   0.365   5.341 -0.0192  1.1992  0.4253
40269SOL     OW25262   3.834   0.103  10.736 -0.2661  0.3227  0.3830
40269SOL    HW125263   3.895   0.176  10.729 -0.3777  0.3613 -0.2119
40269SOL    HW225264   3.874   0.033  10.684 -0.8728  0.4492 -0.2729
40270SOL     OW25265   9.222   5.145   9.662 -0.2065 -0.0211 -0.4716
40270SOL    HW125266   9.253   5.056   9.647 -0.7830 -0.3233  0.0685
40270SOL    HW225267   9.301   5.198   9.665  0.1205 -0.4524 -1.1753
40271SOL     OW25268   4.419   1.413   2.728 -0.1323  0.3221 -0.0042
40271SOL    HW125269   4.348   1.351   2.746  0.1560  0.2828  1.0992
40271SOL    HW225270   4.498   1.360   2.729 -0.0256  0.4551 -0.6915
40272SOL     OW25271   3.874   4.788   4.251  0.0596  0.3640  0.1465
40272SOL    HW125272   3.949   4.728   4.254  0.7090  1.1913  1.7563
40272SOL    HW225273   3.904   4.866   4.298 -1.7546  0.7851  0.6708
40273SOL     OW25274   8.199   8.594   2.145  0.0792 -0.6506 -0.6423
40273SOL    HW125275   8.224   8.514   2.190  2.3358 -0.0337 -0.6876
40273SOL    HW225276   8.240   8.664   2.195  0.5771  0.2506 -2.2149
40274SOL     OW25277   6.744   4.880   1.448 -0.5252  0.2069  0.7003
40274SOL    HW125278   6.720   4.971   1.467  1.3165  1.1073 -0.9704
40274SOL    HW225279   6.749   4.876   1.353  1.5853 -1.0189  0.8046
40275SOL     OW25280  10.779   2.763   4.283  0.2004  0.0912  0.1455
40275SOL    HW125281  10.779   2.859   4.287 -2.5801  0.2189 -0.6596
40275SOL    HW225282  10.701   2.737   4.332 -1.5924 -1.4188 -3.1680
40276SOL     OW25283   4.635   5.550   0.635  0.2091 -0.3158 -0.3482
40276SOL    HW125284   4.706   5.523   0.577  0.6625  0.6995 -0.2716
40276SOL    HW225285   4.555   5.528   0.586  0.5444 -1.5751 -0.3848
40277SOL     OW25286   1.489   2.825  10.681 -0.4852  0.0092  0.5853
40277SOL    HW125287   1.527   2.871  10.605  0.5719 -0.4165  0.8372
40277SOL    HW225288   1.541   2.857  10.755 -0.3936 -0.8521  0.8921
40278SOL     OW25289   8.845   3.588   9.198 -0.1963  0.0248  0.0798
40278SOL    HW125290   8.774   3.581   9.134  1.1994  0.4214 -1.5807
40278SOL    HW225291   8.846   3.681   9.223  0.6282  0.3186 -0.9931
40279SOL     OW25292   7.562   1.967   6.921  0.0624  0.1423 -0.3267
40279SOL    HW125293   7.619   1.964   6.998  1.1596 -0.0383 -1.1225
40279SOL    HW225294   7.578   2.053   6.882 -2.0444  1.1099  0.7465
40280SOL     OW25295  10.959   1.540   1.866  0.6572 -0.5889 -0.4890
40280SOL    HW125296  10.917   1.493   1.794  0.4352  0.9562 -1.4168
40280SOL    HW225297  11.021   1.477   1.903  0.4761 -1.5473 -1.7626
40281SOL     OW25298   0.005   8.854   4.433 -0.2013 -0.4952  0.1065
40281SOL    HW125299   0.063   8.883   4.504 -0.0957 -0.7851  0.1436
40281SOL    HW225300  -0.069   8.812   4.478 -0.1044 -0.7349  0.0484
40282SOL     OW25301   0.780   0.156   5.246 -0.8162  0.5984  0.3883
40282SOL    HW125302   0.787   0.074   5.197  1.9820  0.1115  1.4186
40282SOL    HW225303   0.728   0.133   5.323 -0.7579 -0.0119  0.2550
40283SOL     OW25304  10.249   4.902   9.961 -0.9518 -0.5631  0.2107
40283SOL    HW125305  10.229   4.941  10.046  3.2831  0.7019  0.8776
40283SOL    HW225306  10.304   4.826   9.981 -1.2669 -1.2659 -1.3805
40284SOL     OW25307   1.002   0.956   4.983 -0.3193  0.1479 -0.3354
40284SOL    HW125308   1.033   0.870   5.012  0.0131  0.5774  0.6168
40284SOL    HW225309   1.081   1.002   4.956 -0.2420  0.8234  0.9715
40285SOL     OW25310   8.988   1.006   5.301  0.0687 -0.1126  0.6458
40285SOL    HW125311   8.921   0.940   5.282  0.2796 -0.2029  0.2074
40285SOL    HW225312   8.993   1.008   5.397  0.1278 -0.8066  0.6613
40286SOL     OW25313   6.330   3.503   3.660 -0.2733  0.3332 -0.9395
40286SOL    HW125314   6.355   3.511   3.752  1.2092 -1.8358 -1.0739
40286SOL    HW225315   6.403   3.457   3.619 -1.9659 -0.9891 -2.6531
40287SOL     OW25316   3.336   8.374   2.854  0.1711  0.3296 -0.1013
40287SOL    HW125317   3.373   8.425   2.926 -0.1993 -1.0477  1.1299
40287SOL    HW225318   3.242   8.373   2.871 -0.3762  2.7207 -2.4865
40288SOL     OW25319   3.934   2.421   2.088 -0.7194  0.1542 -0.1781
40288SOL    HW125320   3.966   2.511   2.078 -0.2676  0.0619  0.3905
40288SOL    HW225321   3.994   2.381   2.151  0.0770 -1.0495 -1.6323
40289SOL     OW25322   0.771   0.931   8.490 -0.5285  0.2695  0.7061
40289SOL    HW125323   0.776   0.838   8.470 -0.9341  0.4227 -0.1614
40289SOL    HW225324   0.723   0.969   8.416 -0.0040  1.2288  0.8401
40290SOL     OW25325   1.158   0.068   9.962 -0.0148  0.2054  0.0842
40290SOL    HW125326   1.194  -0.019   9.946  0.0014  0.1908  0.2014
40290SOL    HW225327   1.193   0.093  10.047 -0.7049 -0.0274  0.4371
40291SOL     OW25328   4.430   3.700   6.814  0.3957 -0.3244 -0.0907
40291SOL    HW125329   4.373   3.689   6.738  0.5809  1.0291 -0.4493
40291SOL    HW225330   4.516   3.720   6.778  0.8785 -1.3366  0.4611
40292SOL     OW25331   0.557   3.985   2.394  0.0388  0.4273  0.1358
40292SOL    HW125332   0.537   3.979   2.487  0.9139  0.6579  0.3475
40292SOL    HW225333   0.497   4.052   2.361 -0.5182  0.0970  0.4525
40293SOL     OW25334   4.969   0.490   7.336 -0.1428 -0.0824  0.3705
40293SOL    HW125335   4.964   0.461   7.427 -1.0929  1.2512  0.7751
40293SOL    HW225336   5.061   0.481   7.313  0.0154 -0.9556  1.2809
40294SOL     OW25337   3.037   3.321  10.176  0.2078  0.1557 -0.1029
40294SOL    HW125338   3.120   3.356  10.210 -0.4923  0.9767  0.7864
40294SOL    HW225339   3.059   3.231  10.151  1.6669  0.7431 -1.0429
40295SOL     OW25340   9.176   0.242   3.774  0.1370  0.2374  0.0130
40295SOL    HW125341   9.172   0.168   3.714  0.2932  0.1659  0.0905
40295SOL    HW225342   9.233   0.213   3.845  4.0463  1.9304 -2.0904
40296SOL     OW25343   0.147   6.657   9.849  0.1389 -0.4231 -0.2025
40296SOL    HW125344   0.182   6.569   9.841  0.5413 -0.1986 -1.0176
40296SOL    HW225345   0.140   6.689   9.759 -0.7975  0.0708  0.0244
40297SOL     OW25346   8.739   8.916   2.968 -0.4993 -0.0512  0.2302
40297SOL    HW125347   8.797   8.852   3.010 -1.4548 -0.5557  0.8340
40297SOL    HW225348   8.666   8.926   3.030 -0.5169  1.4104  0.0095
40298SOL     OW25349   9.544   0.475   4.124  0.1791  0.0334  0.3418
40298SOL    HW125350   9.473   0.524   4.082  0.8721  0.1950 -0.6884
40298SOL    HW225351   9.502   0.397   4.160 -0.2529 -1.0020 -2.1504
40299SOL     OW25352   2.804   4.269   1.560  0.1533 -0.3268 -0.1677
40299SOL    HW125353   2.881   4.215   1.543 -0.6673 -0.9752 -2.0568
40299SOL    HW225354   2.805   4.281   1.655  1.6511 -1.7071  0.0519
40300SOL     OW25355   3.624   2.663   6.701  0.0395 -0.3200  0.0767
40300SOL    HW125356   3.699   2.715   6.671 -0.5034  0.6137  0.3023
40300SOL    HW225357   3.634   2.659   6.796  0.1291 -0.7151  0.0515
40301SOL     OW25358   0.164   4.383   6.835 -0.4798 -0.2190  0.2438
40301SOL    HW125359   0.141   4.439   6.910 -0.6868 -0.5827  0.4552
40301SOL    HW225360   0.260   4.379   6.836 -0.4442  0.4480 -0.0079
40302SOL     OW25361  10.237   7.021   6.421  0.0365  0.9122  0.2066
40302SOL    HW125362  10.307   7.059   6.369  0.0581  0.8605  0.1988
40302SOL    HW225363  10.206   7.093   6.476 -0.6933  1.2503 -0.6217
40303SOL     OW25364   1.571   3.593   1.333 -0.3514 -0.4430 -0.2149
40303SOL    HW125365   1.576   3.622   1.242 -1.0774 -2.4476 -0.9552
40303SOL    HW225366   1.513   3.516   1.331  0.9607 -1.5760  1.6637
40304SOL     OW25367   5.062   1.453   1.194  0.0687 -0.8746  0.0599
40304SOL    HW125368   5.136   1.502   1.228  0.2282 -1.6207  0.8161
40304SOL    HW225369   5.067   1.463   1.099 -1.2203  2.4753  0.2165
40305SOL     OW25370   1.557   2.696   5.001 -0.4910 -0.5691 -0.1318
40305SOL    HW125371   1.628   2.632   4.999 -1.5528 -1.7758 -0.3413
40305SOL    HW225372   1.492   2.658   5.061 -1.5181 -0.1111 -0.9265
40306SOL     OW25373  10.898   8.572   3.284 -0.4329 -0.2062 -0.4208
40306SOL    HW125374  10.895   8.636   3.212 -0.2967  1.5045  1.0160
40306SOL    HW225375  10.990   8.547   3.290 -0.7476 -1.9805 -2.1386
40307SOL     OW25376   5.682   7.588   0.952 -0.4341  0.1945 -0.2774
40307SOL    HW125377   5.665   7.554   0.864  0.2499 -0.0132 -0.3378
40307SOL    HW225378   5.762   7.640   0.943 -0.4446  0.2988  0.1903
40308SOL     OW25379   5.958  10.711   4.946  0.1699  0.3902  0.5438
40308SOL    HW125380   6.021  10.719   4.874  0.8213  2.0048  1.2404
40308SOL    HW225381   6.010  10.683   5.021 -0.3935 -0.6584  0.5608
40309SOL     OW25382   1.513   1.737   2.668  0.3173  0.1495  0.0944
40309SOL    HW125383   1.524   1.787   2.749  1.5993 -0.1538  0.1315
40309SOL    HW225384   1.589   1.678   2.666 -0.8400 -1.3876 -0.2313
40310SOL     OW25385   9.949   1.877   2.770 -0.1368  0.3246 -0.1052
40310SOL    HW125386   9.999   1.813   2.821 -0.4837 -0.2078 -0.4245
40310SOL    HW225387   9.919   1.941   2.834 -2.2039 -1.3573  0.7141
40311SOL     OW25388   2.583  10.944   9.942  0.3119  0.5998 -0.8350
40311SOL    HW125389   2.579  10.861   9.894 -2.0420 -0.3274  0.7767
40311SOL    HW225390   2.590  11.011   9.874 -0.7479 -0.7680 -2.3628
40312SOL     OW25391   2.527   9.308   3.265 -0.2038 -0.3151  0.0204
40312SOL    HW125392   2.565   9.235   3.215  0.6588  0.2321 -0.1456
40312SOL    HW225393   2.479   9.265   3.336 -1.9035 -1.1356 -1.5365
40313SOL     OW25394   0.605   0.570  10.189  0.7736 -0.7260  0.1166
40313SOL    HW125395   0.553   0.648  10.208  0.4641 -1.1273  0.9892
40313SOL    HW225396   0.594   0.556  10.095  3.7492  2.3355 -0.8825
40314SOL     OW25397   7.395   5.836   4.587 -0.3174  0.1238  0.2472
40314SOL    HW125398   7.351   5.752   4.578  0.2133 -0.0654 -0.6673
40314SOL    HW225399   7.389   5.876   4.500 -0.3814  0.9502  0.6146
40315SOL     OW25400   6.492   6.974   9.542  0.3320 -0.6340  0.2567
40315SOL    HW125401   6.408   7.018   9.524  0.0460 -1.3907 -0.2967
40315SOL    HW225402   6.484   6.889   9.498  1.0572 -1.0561  0.9265
40316SOL     OW25403  10.136  10.501   7.112  0.6842  0.2770  0.6023
40316SOL    HW125404  10.144  10.545   7.027 -1.3099  1.1492  0.8201
40316SOL    HW225405  10.142  10.572   7.176 -0.1037 -0.0736  1.0747
40317SOL     OW25406   4.279   7.059   6.441  0.2950  0.1068 -0.1668
40317SOL    HW125407   4.354   7.105   6.477  0.9302 -1.2084  0.2621
40317SOL    HW225408   4.314   7.015   6.363 -0.2090  0.1036 -0.3920
40318SOL     OW25409   0.224   3.853   4.495  0.2650 -0.3476  0.3827
40318SOL    HW125410   0.153   3.812   4.446  1.1214 -2.1156  0.5455
40318SOL    HW225411   0.188   3.866   4.583  0.3059 -1.8141  0.6383
40319SOL     OW25412   3.150   9.771   0.867  0.1663  0.1328  0.2147
40319SOL    HW125413   3.084   9.840   0.876  1.3230  1.2942  0.1651
40319SOL    HW225414   3.160   9.761   0.773  0.3918  0.3000  0.2199
40320SOL     OW25415   7.615  10.372  10.555 -0.4649 -0.1993 -0.0061
40320SOL    HW125416   7.662  10.364  10.638 -3.0880 -0.0752  1.6358
40320SOL    HW225417   7.572  10.458  10.561 -1.6511 -0.7063 -0.9366
40321SOL     OW25418   9.209   7.110   4.854  0.2917 -0.5185  0.0553
40321SOL    HW125419   9.199   7.144   4.944 -0.5492 -1.0947  0.1965
40321SOL    HW225420   9.123   7.074   4.833  1.2410 -3.0053  0.0873
40322SOL     OW25421   6.995   8.841   1.618  0.3907 -0.4557 -0.6009
40322SOL    HW125422   7.018   8.761   1.570  1.0029 -0.4644 -0.2927
40322SOL    HW225423   7.062   8.850   1.684 -0.4440 -0.4275  0.2641
40323SOL     OW25424   1.429   0.658   2.100 -0.0758  0.0224 -0.3459
40323SOL    HW125425   1.475   0.655   2.184  1.2546  2.2123 -0.9100
40323SOL    HW225426   1.372   0.734   2.107  0.5490  0.6414 -1.6280
40324SOL     OW25427   3.639   9.649   5.577  0.6255  0.2827 -0.2922
40324SOL    HW125428   3.665   9.642   5.669 -1.7891 -0.6816  0.3939
40324SOL    HW225429   3.632   9.558   5.547 -0.3526  0.5460 -0.8885
40325SOL     OW25430   2.510   0.472   2.999  0.7022 -0.2347  0.6180
40325SOL    HW125431   2.578   0.537   2.984  0.9003 -0.9769 -2.1708
40325SOL    HW225432   2.432   0.523   3.018  1.0438  0.8345 -0.6833
40326SOL     OW25433   2.487   9.473   4.791 -0.1130  0.0979  0.5892
40326SOL    HW125434   2.523   9.542   4.845 -0.3738  2.7928 -2.3755
40326SOL    HW225435   2.540   9.474   4.711 -3.7473  1.1492 -2.0662
40327SOL     OW25436   0.864   3.486   1.567 -0.1108 -0.1358  0.1373
40327SOL    HW125437   0.958   3.473   1.557 -0.1557 -0.8776  0.6305
40327SOL    HW225438   0.844   3.450   1.653 -0.7496  0.5632  0.2976
40328SOL     OW25439   9.046   9.072   0.431  0.1129  0.6872  0.2088
40328SOL    HW125440   9.077   8.987   0.398  0.4834  0.3370  1.4116
40328SOL    HW225441   9.011   9.116   0.354 -3.2308 -1.8954 -0.0005
40329SOL     OW25442   5.759   5.286   5.190  0.2427 -0.1946 -0.3536
40329SOL    HW125443   5.836   5.341   5.204  0.9545 -1.7046  2.4190
40329SOL    HW225444   5.686   5.339   5.223  0.0800  1.0167 -2.4734
40330SOL     OW25445   5.786   6.719   5.512  0.3643 -0.2926 -0.0918
40330SOL    HW125446   5.830   6.641   5.545  1.3166  0.0272 -0.5897
40330SOL    HW225447   5.724   6.685   5.446 -0.9374 -0.8426  1.3482
40331SOL     OW25448   2.979   0.199   0.591  0.1194  0.2503  0.3700
40331SOL    HW125449   2.970   0.285   0.551 -1.7025 -0.7884 -1.6435
40331SOL    HW225450   2.889   0.166   0.597  0.8140 -1.7003  0.6075
40332SOL     OW25451   0.262   2.186   4.355  0.3189 -0.2183 -0.3654
40332SOL    HW125452   0.180   2.198   4.403 -0.0427 -4.3414  0.4126
40332SOL    HW225453   0.235   2.168   4.265  0.1625 -2.5066  0.0732
40333SOL     OW25454   3.961   0.832   5.335 -0.1348 -0.3121  0.0277
40333SOL    HW125455   3.991   0.878   5.257 -2.2561 -0.5495 -0.9918
40333SOL    HW225456   3.950   0.741   5.308  0.2513 -0.6453  0.9425
40334SOL     OW25457   4.128   4.842   3.822 -0.2014  0.5178 -0.3115
40334SOL    HW125458   4.095   4.880   3.903  2.6078  1.6585  0.4072
40334SOL    HW225459   4.156   4.754   3.846  0.2111  0.6955 -0.1266
40335SOL     OW25460   1.155  10.145   7.134 -0.3109  0.0861  0.2842
40335SOL    HW125461   1.135  10.057   7.102 -1.8805  0.3395  0.5178
40335SOL    HW225462   1.153  10.136   7.229 -1.4372  0.5696  0.3131
40336SOL     OW25463   6.012   0.044   9.248 -0.1944  0.1143 -0.1326
40336SOL    HW125464   6.089   0.078   9.202  0.2096  1.3324  1.3915
40336SOL    HW225465   6.015  -0.051   9.232  1.2350  0.2243 -0.6570
40337SOL     OW25466   2.971   1.826   8.122 -0.3796 -0.0179  0.4646
40337SOL    HW125467   2.990   1.768   8.048  0.8075 -1.0824  1.5746
40337SOL    HW225468   3.056   1.846   8.159 -0.8047  2.0221  0.4626
40338SOL     OW25469   6.988   8.046   1.304 -0.5375 -0.2376 -0.2356
40338SOL    HW125470   7.035   7.968   1.330  0.5713  1.3944  3.2847
40338SOL    HW225471   6.896   8.021   1.308 -0.1883 -1.5106  0.2563
40339SOL     OW25472   2.259   5.598   0.152 -0.1103 -0.0770 -0.3908
40339SOL    HW125473   2.346   5.632   0.134  0.4128 -0.4217  1.2705
40339SOL    HW225474   2.214   5.668   0.200 -0.4314 -0.2360 -0.4513
40340SOL     OW25475   2.423   1.732   2.714 -0.3859 -0.7393 -0.3241
40340SOL    HW125476   2.336   1.694   2.703 -0.8980  0.2778  0.0348
40340SOL    HW225477   2.458   1.739   2.626 -0.4159 -1.7153 -0.4218
40341SOL     OW25478   2.125   1.948   4.770  0.6050  0.5620  0.1629
40341SOL    HW125479   2.128   2.021   4.832  0.7580 -0.2177  1.0925
40341SOL    HW225480   2.195   1.967   4.708  0.2588  1.5062  0.0355
40342SOL     OW25481   5.921   9.914  10.997 -0.3039  0.7906  0.1687
40342SOL    HW125482   6.011   9.925  10.966  0.1567 -0.3619  1.0263
40342SOL    HW225483   5.878   9.996  10.974  0.0394  0.1641 -3.2199
40343SOL     OW25484   4.689   9.680   7.294  0.2470  0.3955 -0.0861
40343SOL    HW125485   4.711   9.771   7.274  0.9074  0.6359  1.5894
40343SOL    HW225486   4.773   9.639   7.313 -0.0188 -0.6588 -1.0887
40344SOL     OW25487   2.653   9.961   3.069 -0.3122  0.6477  0.3373
40344SOL    HW125488   2.651   9.889   3.006  0.9909  1.2116 -0.3927
40344SOL    HW225489   2.591   9.935   3.138  1.2071 -1.9015  0.8786
40345SOL     OW25490   5.163   1.277   8.389 -0.5704 -0.2884  0.2441
40345SOL    HW125491   5.133   1.187   8.401  1.9778 -0.9791  2.2063
40345SOL    HW225492   5.137   1.321   8.470  0.4647  0.0389  0.4088
40346SOL     OW25493  10.554  10.866   7.095 -0.0198 -0.2250 -0.3246
40346SOL    HW125494  10.508  10.832   7.018  0.2562  1.5622 -1.3213
40346SOL    HW225495  10.486  10.907   7.148  0.0589  0.2453 -0.5822
40347SOL     OW25496   5.532   1.954   6.398 -0.4504  0.1756  0.1220
40347SOL    HW125497   5.466   1.932   6.464 -0.6908 -1.7426 -0.6738
40347SOL    HW225498   5.615   1.941   6.443 -0.6139 -0.6696  0.1979
40348SOL     OW25499   1.914   1.749   9.607  0.2797 -0.2630 -0.4456
40348SOL    HW125500   2.002   1.744   9.645  1.0678 -0.9928 -2.2417
40348SOL    HW225501   1.857   1.769   9.682  1.9062 -0.1123  0.8282
40349SOL     OW25502   0.012   8.042   7.628  0.2423 -0.0812  0.1213
40349SOL    HW125503   0.015   8.138   7.629  0.8559 -0.0843 -0.7169
40349SOL    HW225504   0.077   8.017   7.563 -0.7135 -1.0365 -0.4867
40350SOL     OW25505   3.124   3.528   3.552 -0.5897  0.9685 -0.2677
40350SOL    HW125506   3.053   3.510   3.613 -0.1481  1.6107  0.4578
40350SOL    HW225507   3.084   3.518   3.465 -0.9055 -1.2687  0.0637
40351SOL     OW25508   8.852   8.763   2.212  0.4451 -0.0747 -0.0703
40351SOL    HW125509   8.778   8.750   2.270  0.1506  1.6543 -0.0216
40351SOL    HW225510   8.831   8.841   2.161  1.4406 -0.5769 -1.3284
40352SOL     OW25511   6.885  11.002   7.570 -0.3289  0.0951  0.9454
40352SOL    HW125512   6.839  10.928   7.609 -0.0969 -1.1146 -0.9180
40352SOL    HW225513   6.816  11.066   7.550 -1.3133 -1.5999 -1.6126
40353SOL     OW25514   3.689   6.515   6.984  0.4400 -0.1194  0.2976
40353SOL    HW125515   3.707   6.547   6.895 -3.1103  1.9408  0.1405
40353SOL    HW225516   3.672   6.594   7.035 -2.2541 -1.3909  1.5824
40354SOL     OW25517   8.756   6.695   2.212  0.1345  0.0610  0.0050
40354SOL    HW125518   8.765   6.782   2.174  1.1030 -0.0959 -0.1686
40354SOL    HW225519   8.744   6.637   2.136 -0.7297  0.0617  0.1333
40355SOL     OW25520   4.584   3.583  10.193  0.1132 -0.6710 -0.2118
40355SOL    HW125521   4.659   3.589  10.134 -1.3681 -1.3480 -2.2472
40355SOL    HW225522   4.529   3.658  10.172  0.1588 -0.1684  1.2797
40356SOL     OW25523   3.747   8.764   5.641  0.0448  0.0200 -0.5358
40356SOL    HW125524   3.811   8.830   5.614 -0.6085  0.2856 -1.4802
40356SOL    HW225525   3.798   8.683   5.648  0.6032  0.3560 -0.6352
40357SOL     OW25526   6.623   8.469   2.938  0.2117 -0.7651 -0.4304
40357SOL    HW125527   6.592   8.462   3.028 -0.4623  0.8736 -0.5138
40357SOL    HW225528   6.582   8.548   2.904  1.3554 -0.7296 -1.8217
40358SOL     OW25529   4.674   0.922   3.637 -0.4629  0.2827  0.3539
40358SOL    HW125530   4.635   0.840   3.668  1.0695 -1.0185 -1.0008
40358SOL    HW225531   4.750   0.895   3.586  0.3473  2.5883  0.2169
40359SOL     OW25532   9.410   3.660   2.744  1.0261  0.3595  0.7683
40359SOL    HW125533   9.369   3.747   2.752  1.8317  0.9314 -0.8962
40359SOL    HW225534   9.501   3.675   2.768  1.8997  0.6973 -2.3486
40360SOL     OW25535   6.541   6.585   9.708  0.0383  0.0536 -0.2537
40360SOL    HW125536   6.469   6.614   9.652  0.2887  0.8637 -0.1630
40360SOL    HW225537   6.501   6.518   9.764 -0.9857  1.3518  0.6318
40361SOL     OW25538   9.196   4.811   7.875  0.2397 -0.1193 -0.0359
40361SOL    HW125539   9.282   4.848   7.893  0.8769 -1.6868  0.2882
40361SOL    HW225540   9.179   4.834   7.784  0.8326  0.5355  0.0121
40362SOL     OW25541  11.008   6.011   0.721  0.1971 -0.4742 -0.1939
40362SOL    HW125542  10.962   5.987   0.640 -2.0851 -1.1666  1.1902
40362SOL    HW225543  10.977   6.099   0.740 -1.2003 -1.1851  1.0885
40363SOL     OW25544   3.319   4.517   0.053  0.0347 -0.0121  0.4045
40363SOL    HW125545   3.406   4.548   0.027 -0.4226  1.0094  0.0264
40363SOL    HW225546   3.326   4.422   0.051  0.4899  0.0126 -1.9733
40364SOL     OW25547   2.970   5.164   5.156  0.5056  0.4848  0.0338
40364SOL    HW125548   3.057   5.155   5.196  0.0394  0.5723  1.1062
40364SOL    HW225549   2.959   5.086   5.103  0.6359 -0.2771  1.1041
40365SOL     OW25550   9.661   1.809   0.262 -0.3947  0.1554  0.0167
40365SOL    HW125551   9.594   1.867   0.299 -1.9331 -1.1449 -0.6032
40365SOL    HW225552   9.678   1.846   0.175 -0.9207  0.0433 -0.1395
40366SOL     OW25553   8.466   7.143   7.541 -0.0327 -0.3118 -0.3661
40366SOL    HW125554   8.509   7.201   7.478 -1.8381  1.2234 -0.2777
40366SOL    HW225555   8.530   7.134   7.612  1.0173  0.0444 -1.2325
40367SOL     OW25556   4.857   9.837   8.006  0.2058 -0.2984  0.5915
40367SOL    HW125557   4.855   9.922   7.962  0.0494 -0.2009  0.7845
40367SOL    HW225558   4.847   9.773   7.936 -0.4749 -0.1342  0.5302
40368SOL     OW25559   1.399   0.410   9.355  0.0498 -0.3940  0.4767
40368SOL    HW125560   1.344   0.452   9.422 -0.9898 -0.1309 -0.5040
40368SOL    HW225561   1.357   0.326   9.339  0.7973 -0.8328  0.7586
40369SOL     OW25562   8.480   8.278   5.517 -0.1602  0.0426  0.0327
40369SOL    HW125563   8.439   8.323   5.443  2.1916  4.5263  1.0574
40369SOL    HW225564   8.468   8.339   5.591  1.9168 -1.8531  2.0777
40370SOL     OW25565   6.729   7.491   3.238  0.1072 -0.0458 -0.2789
40370SOL    HW125566   6.775   7.425   3.290 -0.2675  0.4448  0.6943
40370SOL    HW225567   6.647   7.449   3.213 -0.8202  0.4967  1.6012
40371SOL     OW25568   9.739   8.922   5.271 -0.0092  0.4264  0.4479
40371SOL    HW125569   9.735   8.884   5.359 -0.7825 -0.0594  0.2134
40371SOL    HW225570   9.832   8.940   5.257  0.2021 -0.0913  1.1169
40372SOL     OW25571   8.498   1.138   1.264 -0.5039 -0.1381  0.1382
40372SOL    HW125572   8.581   1.147   1.217 -0.2755 -1.5371  0.2260
40372SOL    HW225573   8.434   1.180   1.207  0.0805 -0.0660 -0.4776
40373SOL     OW25574   4.867   1.959   0.153  0.2975  0.0521 -0.0755
40373SOL    HW125575   4.907   2.043   0.178 -0.3641  0.6774 -1.0094
40373SOL    HW225576   4.791   1.984   0.101  0.9955 -1.1197 -1.7824
40374SOL     OW25577   6.738  10.041   9.068 -0.0572 -0.0157  0.0448
40374SOL    HW125578   6.685   9.967   9.040  0.5256 -0.7872  0.9034
40374SOL    HW225579   6.795  10.006   9.137  0.8068  1.0332 -0.0909
40375SOL     OW25580   1.619   9.461   3.814  0.3327  0.9573 -0.2739
40375SOL    HW125581   1.678   9.534   3.795  0.9388  0.2141 -1.2662
40375SOL    HW225582   1.655   9.422   3.894  1.1414  0.5468 -0.8371
40376SOL     OW25583   2.216   6.719   5.775 -0.0919  0.0227  0.0839
40376SOL    HW125584   2.279   6.690   5.709  1.7346  0.8312  1.4147
40376SOL    HW225585   2.194   6.809   5.750  2.5576  1.2909  1.8360
40377SOL     OW25586   2.609   0.079   3.388  0.5584 -0.0247  0.0547
40377SOL    HW125587   2.597   0.119   3.475  1.4123  0.4027 -0.0102
40377SOL    HW225588   2.704   0.077   3.376  0.4976 -1.2288 -0.3526
40378SOL     OW25589   8.527   4.864   6.033  0.1746 -0.6571  0.2748
40378SOL    HW125590   8.472   4.905   6.099  0.3566  0.1723 -0.0620
40378SOL    HW225591   8.567   4.789   6.077  0.4309 -0.0179  1.1690
40379SOL     OW25592   6.212   5.517   3.923  0.0152 -0.2786  0.0204
40379SOL    HW125593   6.143   5.485   3.982  0.1855  3.0403  2.2966
40379SOL    HW225594   6.164   5.552   3.848 -0.7690  1.1021  1.1231
40380SOL     OW25595   4.294   3.889   6.984 -0.2365  0.1077 -0.2782
40380SOL    HW125596   4.255   3.937   6.912  1.2864  0.3776 -0.9752
40380SOL    HW225597   4.363   3.836   6.943  0.2180 -0.2357  0.8807
40381SOL     OW25598   7.518   7.999   9.891 -0.0452  0.4144 -0.0091
40381SOL    HW125599   7.503   8.064   9.823 -0.9157 -1.1066 -1.3493
40381SOL    HW225600   7.441   8.003   9.947 -0.0319  0.6222 -0.0065
40382SOL     OW25601   3.358   2.905   0.895  0.2666  0.0886 -0.0844
40382SOL    HW125602   3.394   2.855   0.968  0.7465 -0.3465 -0.6095
40382SOL    HW225603   3.289   2.848   0.860  0.8174 -0.2135 -0.6868
40383SOL     OW25604   5.001   2.738   6.653  0.6493  1.1303 -0.2847
40383SOL    HW125605   4.947   2.796   6.707  1.1062  1.8821 -0.6285
40383SOL    HW225606   4.950   2.726   6.573  0.0393  0.1341  0.2308
40384SOL     OW25607   6.681   0.950   7.987  0.3695  0.0207  0.1933
40384SOL    HW125608   6.696   1.039   7.956  1.8171 -0.7527 -1.5156
40384SOL    HW225609   6.767   0.907   7.982 -0.0689 -1.1998  1.9909
40385SOL     OW25610   5.780   0.319   9.211  0.0687 -0.2661 -0.1010
40385SOL    HW125611   5.784   0.414   9.214 -2.0902 -0.0816 -0.7173
40385SOL    HW225612   5.743   0.300   9.124  2.1008 -1.7850 -0.7051
40386SOL     OW25613   1.173   1.842   4.622 -0.3654  0.2944  0.0403
40386SOL    HW125614   1.124   1.843   4.540  1.1483  2.7798 -0.9657
40386SOL    HW225615   1.192   1.750   4.638 -2.0145 -0.3829 -1.5394
40387SOL     OW25616   5.201   9.006   8.122  0.4813  0.0810  0.0043
40387SOL    HW125617   5.157   9.091   8.118  1.5460  0.6341 -0.2308
40387SOL    HW225618   5.138   8.944   8.085  0.6140  1.1521 -2.1196
40388SOL     OW25619  10.197  10.460   0.749  0.5893 -0.3403  0.4767
40388SOL    HW125620  10.157  10.381   0.786 -1.1338  0.5312  0.5406
40388SOL    HW225621  10.142  10.482   0.674 -0.0866  1.8478  1.5531
40389SOL     OW25622   7.124   5.575   8.008  0.1187  0.3898  0.2183
40389SOL    HW125623   7.163   5.542   7.927 -1.9839  1.3873 -1.3140
40389SOL    HW225624   7.171   5.656   8.027 -0.7938  1.3359 -1.3343
40390SOL     OW25625  10.154   6.810   1.730  0.1637  0.1163 -0.1850
40390SOL    HW125626  10.135   6.717   1.717 -0.8576  0.3849 -0.7206
40390SOL    HW225627  10.177   6.817   1.823 -0.9389 -0.4862  0.1491
40391SOL     OW25628   3.984   2.930   1.382  0.1948  0.1704 -0.2237
40391SOL    HW125629   3.969   2.842   1.418 -0.5439  0.0506 -0.7915
40391SOL    HW225630   4.076   2.948   1.399  0.5250 -0.9949 -0.6962
40392SOL     OW25631   8.763   9.154   0.812 -0.5645  0.1680  0.1793
40392SOL    HW125632   8.673   9.170   0.784 -0.8236 -0.8098  0.4074
40392SOL    HW225633   8.762   9.167   0.907 -0.1245  1.5528  0.0265
40393SOL     OW25634   1.573   2.215   9.045  0.5985 -0.3600 -0.2591
40393SOL    HW125635   1.625   2.296   9.049  1.3618 -0.7595 -1.3301
40393SOL    HW225636   1.523   2.223   8.964 -2.6938  0.9382  1.7408
40394SOL     OW25637   2.686   1.919   0.893 -0.2257  0.1663 -0.0097
40394SOL    HW125638   2.734   1.893   0.814 -0.8142  1.0843 -0.6866
40394SOL    HW225639   2.645   1.838   0.923  1.7884 -0.6681  0.6437
40395SOL     OW25640  10.118   6.180   6.243  0.1124  0.5309 -0.8112
40395SOL    HW125641  10.176   6.167   6.168 -0.1983 -0.2045 -0.9369
40395SOL    HW225642  10.167   6.236   6.302  0.3251  1.2066 -1.6117
40396SOL     OW25643   6.741   9.451   5.042  0.4848 -0.0063  0.0416
40396SOL    HW125644   6.793   9.373   5.062  1.2829 -0.4144 -3.1362
40396SOL    HW225645   6.806   9.520   5.029  0.0516  0.1925 -1.1149
40397SOL     OW25646   8.487   3.955  10.367  0.2767 -0.1118  0.1233
40397SOL    HW125647   8.432   3.985  10.440 -0.3509 -1.9727  0.4737
40397SOL    HW225648   8.530   4.035  10.335  0.1126  0.8546  2.1331
40398SOL     OW25649   6.432   2.758   3.710 -0.1101 -0.1087  0.1050
40398SOL    HW125650   6.516   2.715   3.727  0.7476  0.9618 -1.2427
40398SOL    HW225651   6.383   2.695   3.658 -0.2592 -0.8365  1.0977
40399SOL     OW25652   4.481   5.786   2.795 -0.9655 -0.2519 -0.0342
40399SOL    HW125653   4.431   5.783   2.876  0.6230 -0.0052  0.9856
40399SOL    HW225654   4.432   5.728   2.735 -1.9519 -0.7337  1.1935
40400SOL     OW25655   9.953   4.354  10.241  0.4451 -0.2215  0.1676
40400SOL    HW125656   9.882   4.340  10.303 -1.9809  1.0200 -2.1224
40400SOL    HW225657   9.981   4.266  10.216 -1.1911 -0.7713  0.1683
40401SOL     OW25658   4.310   5.572   9.041  0.0326 -0.2209  0.4498
40401SOL    HW125659   4.242   5.518   9.002 -1.1715  1.9336 -0.6209
40401SOL    HW225660   4.356   5.611   8.967  0.3620  0.7945  1.1472
40402SOL     OW25661   8.238   9.380   1.199 -0.2918 -0.1821  0.3672
40402SOL    HW125662   8.260   9.288   1.185 -1.7389 -0.5571  0.3421
40402SOL    HW225663   8.192   9.406   1.119  0.1485  0.5757  0.3603
40403SOL     OW25664   4.977   3.945   6.463  0.0743 -0.5863 -0.0048
40403SOL    HW125665   4.943   3.921   6.550 -1.1618 -0.9542 -0.5714
40403SOL    HW225666   5.070   3.920   6.466  0.3767  0.5188  1.6107
40404SOL     OW25667  10.243   7.719   4.868 -0.2553 -0.5497 -0.1825
40404SOL    HW125668  10.312   7.676   4.817 -1.0581 -0.8833 -1.0301
40404SOL    HW225669  10.195   7.771   4.803 -0.3618  0.2418  0.5268
40405SOL     OW25670   8.202   7.388   8.666  0.2452 -0.5976  0.0576
40405SOL    HW125671   8.223   7.432   8.749 -0.2392  0.0053 -0.1326
40405SOL    HW225672   8.174   7.458   8.608 -0.7882 -1.1768 -0.1765
40406SOL     OW25673   1.448   1.649   8.104  0.6032  0.0817  0.3363
40406SOL    HW125674   1.420   1.568   8.146 -1.8479 -0.4745 -2.1333
40406SOL    HW225675   1.500   1.620   8.029 -0.3300  0.7681 -0.5940
40407SOL     OW25676   6.972   9.056   7.898 -0.6292  0.2607 -0.0334
40407SOL    HW125677   6.967   9.148   7.873 -1.5199  0.3727  0.5138
40407SOL    HW225678   6.995   9.059   7.991  1.3007 -0.1191 -0.4639
40408SOL     OW25679   3.884   9.292   5.229 -0.1142  0.4585  0.0991
40408SOL    HW125680   3.904   9.264   5.319 -0.1758 -1.3958 -0.4116
40408SOL    HW225681   3.792   9.320   5.232 -0.3695 -0.3847  0.4676
40409SOL     OW25682  10.802   8.008   9.946 -0.3763  0.4963 -0.3107
40409SOL    HW125683  10.721   7.969   9.979  0.3072 -0.9092 -0.2433
40409SOL    HW225684  10.864   7.935   9.941  0.6560  1.3933 -1.1227
40410SOL     OW25685   8.313   0.873   5.323  0.7105  0.4430 -0.0442
40410SOL    HW125686   8.390   0.851   5.377  0.4049  1.4253  0.8248
40410SOL    HW225687   8.255   0.919   5.383  0.8135  2.5326 -1.4552
40411SOL     OW25688   9.535   4.967   7.756  0.2080  0.5393 -0.3150
40411SOL    HW125689   9.500   4.945   7.843  0.7267 -0.9084 -0.4375
40411SOL    HW225690   9.619   4.922   7.752 -0.1363 -0.0252 -1.8374
40412SOL     OW25691   9.670   1.185  10.681  0.1722 -0.0628 -0.1187
40412SOL    HW125692   9.677   1.145  10.594 -1.9761 -0.7886 -0.0203
40412SOL    HW225693   9.728   1.133  10.736  0.3452 -0.5975 -0.7906
40413SOL     OW25694   7.393   1.704   5.964  0.6223 -0.4585  0.1201
40413SOL    HW125695   7.386   1.609   5.950 -2.4043 -0.6048  1.7453
40413SOL    HW225696   7.450   1.713   6.040  0.3844 -1.0599  0.3805
40414SOL     OW25697   6.702   1.953   4.575 -0.4252 -0.6206 -0.3767
40414SOL    HW125698   6.656   1.929   4.494 -3.8279  1.7957  0.5972
40414SOL    HW225699   6.662   1.898   4.642  0.2811 -0.5795  0.0781
40415SOL     OW25700  10.976   9.565   8.218 -0.4443 -0.1157 -0.1031
40415SOL    HW125701  10.997   9.641   8.273  2.4264  0.9134 -2.3324
40415SOL    HW225702  11.029   9.494   8.255  2.0981  0.7652 -1.7285
40416SOL     OW25703   0.469   0.809   4.442  0.0120 -0.2930 -0.3217
40416SOL    HW125704   0.449   0.793   4.350 -1.0147  0.2892 -0.2178
40416SOL    HW225705   0.405   0.757   4.490  1.0103 -1.1738  0.0851
40417SOL     OW25706  10.966   0.004   9.006 -0.1099 -0.2802  0.4693
40417SOL    HW125707  11.005   0.089   8.985  0.9592 -0.1456  2.6638
40417SOL    HW225708  10.999  -0.055   8.937  0.9771  0.6202  0.1809
40418SOL     OW25709  10.799   3.221   6.961 -0.1425  0.4307 -0.9300
40418SOL    HW125710  10.872   3.244   7.019  0.0309  0.3800 -1.1305
40418SOL    HW225711  10.722   3.219   7.019  0.3339 -1.6073 -0.3006
40419SOL     OW25712   5.460   8.092   1.913 -0.1029  0.0086  0.0456
40419SOL    HW125713   5.449   8.082   2.007 -0.4046  2.2410  0.3169
40419SOL    HW225714   5.542   8.139   1.903  1.5165 -2.8445 -1.0589
40420SOL     OW25715   9.351   8.041   9.709  0.0287 -0.1383 -0.4463
40420SOL    HW125716   9.301   8.048   9.790  0.1624  0.6903 -0.4324
40420SOL    HW225717   9.340   7.950   9.682  1.4470 -0.9311  1.4374
40421SOL     OW25718   7.852   0.850   1.394 -0.4292  0.2466 -0.4411
40421SOL    HW125719   7.804   0.883   1.319  1.3202  0.5469 -1.4906
40421SOL    HW225720   7.913   0.785   1.358 -0.8133 -0.9743  0.9838
40422SOL     OW25721   6.626   3.175   3.840  0.4689 -0.2036 -0.2357
40422SOL    HW125722   6.561   3.117   3.800  1.4082 -0.2625 -1.7591
40422SOL    HW225723   6.600   3.263   3.814  1.2749 -0.2663 -1.3414
40423SOL     OW25724  10.306   3.684   1.089 -0.4031 -1.0837 -0.3230
40423SOL    HW125725  10.254   3.762   1.110 -0.5294 -1.5318  1.1273
40423SOL    HW225726  10.324   3.643   1.174  3.3109 -0.3812 -0.6197
40424SOL     OW25727   9.829   5.088   9.305  0.5039 -0.0099  0.4340
40424SOL    HW125728   9.848   5.019   9.241  0.7722  1.4709 -1.1609
40424SOL    HW225729   9.822   5.168   9.253 -0.1955  1.1244  2.1725
40425SOL     OW25730   2.335   9.297   5.963 -0.3381 -0.0521 -0.3760
40425SOL    HW125731   2.359   9.299   6.055 -0.8902  1.3008 -0.2391
40425SOL    HW225732   2.398   9.237   5.923 -0.2919 -0.9040  0.9179
40426SOL     OW25733   3.128   7.356   1.464  0.2368  0.3027  0.4588
40426SOL    HW125734   3.087   7.270   1.465  2.4112 -0.8223 -0.5169
40426SOL    HW225735   3.222   7.337   1.460  0.7859  2.7338  0.5914
40427SOL     OW25736   4.161   4.173   5.742  0.1098 -0.6526 -0.6960
40427SOL    HW125737   4.082   4.219   5.769  0.8900  0.9129 -0.9687
40427SOL    HW225738   4.153   4.086   5.781 -1.2074 -0.1471  0.2164
40428SOL     OW25739  10.983   0.197   1.084  0.6984  0.3716  0.3098
40428SOL    HW125740  10.965   0.280   1.129 -0.7260  1.5766 -2.2522
40428SOL    HW225741  10.901   0.148   1.091  0.8611  0.0576  0.0541
40429SOL     OW25742   1.714   2.782   2.281  0.7437  0.6577  0.4500
40429SOL    HW125743   1.789   2.815   2.330  1.8497  0.6266 -1.1183
40429SOL    HW225744   1.721   2.687   2.287  2.2820  0.5558 -1.5992
40430SOL     OW25745   4.209   1.229   2.058  0.3490 -0.1744 -0.4844
40430SOL    HW125746   4.295   1.188   2.047  0.1056 -1.2754  1.3069
40430SOL    HW225747   4.154   1.185   1.994  1.1489  0.7434 -1.8498
40431SOL     OW25748   3.950   7.297   2.820  0.5891 -0.4551 -0.2934
40431SOL    HW125749   3.966   7.218   2.872 -0.1723 -1.3364 -1.3484
40431SOL    HW225750   3.943   7.266   2.730 -0.0968  0.7654 -0.6936
40432SOL     OW25751   6.909   7.995   5.900 -1.0635  0.5159 -0.0901
40432SOL    HW125752   6.937   7.915   5.945 -0.3139  0.7729 -0.1032
40432SOL    HW225753   6.814   7.983   5.889 -1.3214  0.5084  1.7086
40433SOL     OW25754   1.540   3.006   8.298 -0.0359  0.1391 -0.3993
40433SOL    HW125755   1.530   2.911   8.287 -0.2000  0.3624 -2.7700
40433SOL    HW225756   1.629   3.024   8.267 -0.6765  0.9491 -1.8752
40434SOL     OW25757   0.856   6.899   6.911 -0.2332  0.0144  0.9363
40434SOL    HW125758   0.859   6.931   6.821 -0.8819  1.2816  1.3427
40434SOL    HW225759   0.851   6.978   6.964 -1.1557 -0.7518  2.0276
40435SOL     OW25760   5.569   3.470   4.583  0.5172  0.4969  0.2898
40435SOL    HW125761   5.579   3.503   4.494 -1.4634  0.1050 -0.1478
40435SOL    HW225762   5.653   3.431   4.604  0.7760 -0.1820 -1.7654
40436SOL     OW25763   4.479   7.728   9.026 -0.6793  0.3295  0.0704
40436SOL    HW125764   4.552   7.781   8.995 -0.9201 -0.4661 -2.0390
40436SOL    HW225765   4.401   7.780   9.007 -0.8566 -0.3419 -1.1481
40437SOL     OW25766   6.143   3.123   2.386  0.4143  0.1852 -0.3839
40437SOL    HW125767   6.158   3.066   2.461 -1.4801 -1.2167 -0.9853
40437SOL    HW225768   6.182   3.207   2.411  1.3981 -0.7477  1.4006
40438SOL     OW25769   2.253   9.322  10.614  0.4005  0.0126  0.1594
40438SOL    HW125770   2.244   9.309  10.519 -0.1257 -0.2533  0.2481
40438SOL    HW225771   2.322   9.388  10.622 -0.0182  0.5308 -0.4349
40439SOL     OW25772   1.485   2.105   6.071  0.3942 -0.1986  0.0853
40439SOL    HW125773   1.427   2.153   6.011  0.5182  1.5835  1.2939
40439SOL    HW225774   1.530   2.174   6.120  0.4808 -1.5701  2.0472
40440SOL     OW25775   1.675   1.738   0.033 -0.2903 -0.1638 -0.8041
40440SOL    HW125776   1.597   1.793   0.029  1.4963  2.6917  0.3319
40440SOL    HW225777   1.679   1.707   0.123  0.6272  0.9984 -0.4145
40441SOL     OW25778  10.641   0.334   9.273  0.4826 -0.0098  0.0243
40441SOL    HW125779  10.545   0.327   9.273  0.5790 -1.7588  0.5255
40441SOL    HW225780  10.660   0.401   9.206 -1.0761  0.3958 -0.0526
40442SOL     OW25781   5.643   2.202   6.531  0.2825  0.3006 -0.5342
40442SOL    HW125782   5.651   2.188   6.625 -0.7246 -0.2223 -0.5093
40442SOL    HW225783   5.556   2.168   6.509  1.4478 -1.9133 -2.0714
40443SOL     OW25784   9.174   6.837   5.004  0.3196  0.2601  0.4096
40443SOL    HW125785   9.130   6.773   4.948 -0.6843  0.8880  0.4577
40443SOL    HW225786   9.245   6.872   4.950  0.6384 -0.5966  0.2542
40444SOL     OW25787   6.516   0.683   0.175 -0.0555 -0.4343  0.3766
40444SOL    HW125788   6.543   0.614   0.236  0.2729 -3.9681 -3.3591
40444SOL    HW225789   6.592   0.697   0.118 -0.3044  2.7848  0.6488
40445SOL     OW25790   5.448   8.337  10.767  0.2069 -0.1158 -0.3139
40445SOL    HW125791   5.371   8.382  10.803  0.9059  1.2559 -0.4652
40445SOL    HW225792   5.518   8.402  10.772  1.5305 -1.5217  0.3802
40446SOL     OW25793   9.573   9.453   3.774  0.2971  0.2210 -0.4835
40446SOL    HW125794   9.554   9.362   3.796  1.2943 -0.1005 -0.8710
40446SOL    HW225795   9.668   9.460   3.782  0.3557  0.9223 -1.5755
40447SOL     OW25796   1.882   4.827   4.339  0.1125  0.9492  0.0065
40447SOL    HW125797   1.965   4.848   4.381  0.3077  0.3137 -0.0527
40447SOL    HW225798   1.876   4.732   4.342 -0.4861  0.9683 -0.2368
40448SOL     OW25799   4.972  10.762   2.108 -0.1249  0.0624  0.4100
40448SOL    HW125800   5.049  10.724   2.151  1.0655 -0.1874 -1.7869
40448SOL    HW225801   4.991  10.855   2.101  1.4336 -0.3399 -2.6366
40449SOL     OW25802   0.483   3.519  10.129 -0.0442  0.3007  0.3824
40449SOL    HW125803   0.456   3.430  10.108  0.2760  0.4692 -0.8015
40449SOL    HW225804   0.568   3.529  10.087 -0.1401  1.2000  0.3807
40450SOL     OW25805   6.040  10.110   8.084  0.2027 -0.3201  0.3812
40450SOL    HW125806   6.101  10.043   8.055  1.1568  0.1353  1.2220
40450SOL    HW225807   6.085  10.193   8.065 -0.3923  0.0398  0.5079
40451SOL     OW25808   0.205   8.054   3.427 -0.3476 -0.4614 -0.8032
40451SOL    HW125809   0.237   7.969   3.397  2.4138 -0.7209  2.2911
40451SOL    HW225810   0.157   8.033   3.508  1.1554  0.9084  0.5014
40452SOL     OW25811   3.400   3.317   8.473  0.2439  0.0636  0.3132
40452SOL    HW125812   3.316   3.282   8.501 -0.1284  0.0640 -0.7346
40452SOL    HW225813   3.449   3.331   8.554 -0.6103 -0.3155  0.9114
40453SOL     OW25814   1.382   7.360   9.954 -0.2781 -0.0287  0.4988
40453SOL    HW125815   1.468   7.388   9.922 -1.5096  2.2403 -1.0718
40453SOL    HW225816   1.401   7.320  10.039  2.2463  1.1097  0.5760
40454SOL     OW25817   0.549   2.104   3.044 -0.3275 -0.0720 -0.9948
40454SOL    HW125818   0.597   2.092   2.962  0.9992  0.0062 -0.2622
40454SOL    HW225819   0.600   2.055   3.109 -1.0437  0.3259 -0.1154
40455SOL     OW25820   1.322   7.520   6.208 -0.6082 -0.0537  0.2273
40455SOL    HW125821   1.399   7.542   6.156 -0.1339 -1.0330  0.4882
40455SOL    HW225822   1.265   7.474   6.146 -0.0903 -1.1239  0.5284
40456SOL     OW25823  10.463   7.139   1.344 -0.0865 -0.1804  0.6755
40456SOL    HW125824  10.413   7.066   1.381 -0.1992 -0.7479 -0.5401
40456SOL    HW225825  10.539   7.097   1.303  0.8601  0.5800  1.5998
40457SOL     OW25826   4.524   7.865   2.350 -0.1674  0.1370 -0.3184
40457SOL    HW125827   4.452   7.884   2.409  0.4360 -0.0593  0.5087
40457SOL    HW225828   4.574   7.796   2.395 -0.8852 -1.5814 -2.0432
40458SOL     OW25829   0.268   0.718   3.559  0.1162  1.2211 -0.1063
40458SOL    HW125830   0.339   0.736   3.621  0.3258 -1.5068  0.5587
40458SOL    HW225831   0.302   0.649   3.503 -1.6629  0.5380 -0.4032
40459SOL     OW25832   4.284   6.383   8.065  0.0800  0.0824 -0.7382
40459SOL    HW125833   4.312   6.347   7.981  0.1600 -2.4325  0.2710
40459SOL    HW225834   4.327   6.327   8.130 -0.0949  1.8631  0.9944
40460SOL     OW25835   5.053   8.613   2.322  0.1107 -0.3769 -0.0422
40460SOL    HW125836   5.005   8.693   2.345 -0.5967 -0.3962 -1.3615
40460SOL    HW225837   5.011   8.544   2.374  0.8227  0.0991  1.2210
40461SOL     OW25838   4.685   3.204   1.921 -0.4637 -0.6440 -0.1377
40461SOL    HW125839   4.600   3.181   1.960 -0.8300 -0.3523 -0.7571
40461SOL    HW225840   4.710   3.127   1.870  1.7368 -2.5534  3.3969
40462SOL     OW25841   2.449   4.809   8.484  0.2654 -0.1936 -0.3375
40462SOL    HW125842   2.522   4.811   8.546 -0.7334  1.6877  0.9048
40462SOL    HW225843   2.412   4.721   8.493  2.4110 -1.2335 -1.1125
40463SOL     OW25844   2.768   3.135   5.538  0.2682  0.2752  0.0617
40463SOL    HW125845   2.726   3.203   5.592 -0.8607 -0.4568  0.1337
40463SOL    HW225846   2.856   3.127   5.574 -0.9484 -1.3842  2.9853
40464SOL     OW25847  10.495   8.448   9.015 -0.3626  0.2823 -0.1049
40464SOL    HW125848  10.457   8.521   8.966 -1.7709  0.2885  0.9177
40464SOL    HW225849  10.489   8.475   9.107 -1.4759 -1.3493  0.3445
40465SOL     OW25850   8.067   8.079   9.981 -0.8351 -0.1064 -0.0955
40465SOL    HW125851   8.013   8.037   9.913 -0.2834 -1.8640  0.5214
40465SOL    HW225852   8.125   8.010  10.013  1.2443  1.5114 -0.1366
40466SOL     OW25853   0.434   8.339   7.086  0.1715  0.0311 -0.2523
40466SOL    HW125854   0.428   8.296   7.000 -0.2053  0.7392 -0.5929
40466SOL    HW225855   0.511   8.396   7.079 -0.2429  0.5917 -0.3640
40467SOL     OW25856   6.713   2.159   2.975 -0.1255 -0.0760  0.2042
40467SOL    HW125857   6.761   2.235   2.943 -1.5502  0.4662 -0.7402
40467SOL    HW225858   6.626   2.168   2.937 -0.2141 -2.4196 -0.3036
40468SOL     OW25859   6.663   5.897   1.538 -0.8485  0.3416  0.2825
40468SOL    HW125860   6.677   5.969   1.600  0.7336  0.1120  0.2283
40468SOL    HW225861   6.750   5.862   1.522 -1.4089 -0.5492 -0.9613
40469SOL     OW25862   2.125   9.273   0.804 -0.3604 -0.8155  0.2305
40469SOL    HW125863   2.061   9.201   0.797 -1.6422  0.3123 -0.1247
40469SOL    HW225864   2.192   9.252   0.739 -2.0255 -0.4507 -1.7145
40470SOL     OW25865  10.557   7.577   5.819  0.2692 -0.5886 -0.5313
40470SOL    HW125866  10.629   7.514   5.814  0.4346 -0.3878 -0.7175
40470SOL    HW225867  10.600   7.663   5.815  0.3157 -0.3526  2.7163
40471SOL     OW25868   9.642   9.450   2.581 -0.4701  0.0147  0.0590
40471SOL    HW125869   9.576   9.427   2.646 -0.6859  0.6353  0.0727
40471SOL    HW225870   9.665   9.368   2.538 -2.9270  0.0693 -1.5436
40472SOL     OW25871   2.668   5.130   3.019  0.0191 -0.1928 -0.0880
40472SOL    HW125872   2.712   5.160   2.939  0.8948  1.1961  0.8760
40472SOL    HW225873   2.619   5.206   3.049 -0.7544 -0.8748  0.4051
40473SOL     OW25874  10.931   0.029   0.468 -0.1547  0.3146  0.0532
40473SOL    HW125875  10.938   0.078   0.550 -0.8417  1.0202 -0.3045
40473SOL    HW225876  10.855   0.066   0.423 -0.4074 -0.7577 -0.4449
40474SOL     OW25877   9.333  10.456   5.040  0.3138 -0.6438 -0.3383
40474SOL    HW125878   9.348  10.472   5.133  0.0299 -0.1375 -0.3760
40474SOL    HW225879   9.420  10.454   5.001  0.4038 -0.1750 -0.1678
40475SOL     OW25880   5.717   4.801   3.418  0.1947 -0.2310  0.4237
40475SOL    HW125881   5.732   4.720   3.370 -1.1207 -1.0271  1.2837
40475SOL    HW225882   5.802   4.824   3.455  0.6920 -0.9319 -0.2560
40476SOL     OW25883   1.013   4.385   7.730  0.0719 -0.5177  0.0195
40476SOL    HW125884   1.015   4.371   7.824  1.6792 -3.8757 -0.3798
40476SOL    HW225885   1.093   4.343   7.697 -1.2495 -0.9735 -2.9822
40477SOL     OW25886   9.200   5.013  10.440 -0.3566  0.1463  0.5563
40477SOL    HW125887   9.213   5.100  10.403  1.4438  0.8571  2.6732
40477SOL    HW225888   9.275   4.962  10.409 -0.8152 -0.3408  0.2311
40478SOL     OW25889   0.148   6.318   2.693  0.3920  0.2123 -0.1190
40478SOL    HW125890   0.118   6.255   2.758  1.8269  0.2335  0.6059
40478SOL    HW225891   0.224   6.277   2.652  0.4778  0.8766 -0.6485
40479SOL     OW25892  10.159   9.557   0.951 -0.2439  0.6731 -0.6780
40479SOL    HW125893  10.140   9.594   1.037  2.3673  1.5365 -0.3888
40479SOL    HW225894  10.186   9.467   0.970  0.2149  0.8268 -0.5802
40480SOL     OW25895   0.836   7.596   1.673 -0.4025  0.3680  0.0780
40480SOL    HW125896   0.879   7.583   1.758 -0.4449  1.4408  0.2776
40480SOL    HW225897   0.795   7.511   1.654  1.9015 -0.7516 -0.1950
40481SOL     OW25898   4.274   1.478   1.558 -0.0500  0.2589  0.3902
40481SOL    HW125899   4.345   1.484   1.622  0.9061  1.5116 -0.7520
40481SOL    HW225900   4.301   1.409   1.497  0.2536  0.8145 -0.1103
40482SOL     OW25901   9.915   6.242   2.535 -0.1234 -0.0314 -0.0278
40482SOL    HW125902   9.889   6.334   2.536 -2.5806 -0.6407 -0.0199
40482SOL    HW225903   9.860   6.202   2.468  0.8862 -1.5000 -0.0256
40483SOL     OW25904   2.800   9.294   4.282 -0.4012  0.3437  0.3804
40483SOL    HW125905   2.773   9.210   4.320  0.7805 -0.8446 -1.2553
40483SOL    HW225906   2.826   9.272   4.192  2.5970  1.9480  0.7255
40484SOL     OW25907   7.250   1.866   0.799  0.1293  0.3617 -0.1494
40484SOL    HW125908   7.317   1.924   0.836 -2.5027  1.5138  3.4281
40484SOL    HW225909   7.194   1.924   0.748  0.7878 -0.2668 -1.6428
40485SOL     OW25910   7.737   4.089   0.553 -0.0934  0.1601 -0.0967
40485SOL    HW125911   7.725   4.173   0.598  1.2161  1.4805 -2.0361
40485SOL    HW225912   7.786   4.035   0.615 -0.1350  1.1672  0.8402
40486SOL     OW25913   1.866   3.216   0.834 -0.0099 -0.2088 -0.6571
40486SOL    HW125914   1.824   3.266   0.763 -0.4748  1.0776  0.4948
40486SOL    HW225915   1.813   3.136   0.841 -2.8974  1.6836  1.2452
40487SOL     OW25916   5.347   4.621   9.238 -0.0291  0.2031 -0.5049
40487SOL    HW125917   5.341   4.669   9.321  0.8346 -0.2395 -0.1762
40487SOL    HW225918   5.424   4.659   9.194  1.8665 -2.0963  0.6033
40488SOL     OW25919   6.600   5.163   4.470  0.7757 -0.2722 -0.0995
40488SOL    HW125920   6.508   5.167   4.445  1.0474 -0.6710 -1.2320
40488SOL    HW225921   6.609   5.225   4.542 -0.8111 -1.7110  1.4449
40489SOL     OW25922   3.504   0.358   6.013 -0.3167 -0.0235 -0.6093
40489SOL    HW125923   3.409   0.351   6.022 -0.2978 -0.1519 -0.5047
40489SOL    HW225924   3.527   0.434   6.066 -0.2755 -0.4268 -0.0455
40490SOL     OW25925   2.727   4.227   7.303  0.1929  0.5362  0.4403
40490SOL    HW125926   2.815   4.190   7.311 -0.2511 -1.0409 -1.4047
40490SOL    HW225927   2.713   4.274   7.385  1.1145 -2.7091  2.6041
40491SOL     OW25928   6.525   2.738   8.359  0.2313  0.1176  0.0184
40491SOL    HW125929   6.499   2.784   8.279  0.4339 -0.1201 -0.1849
40491SOL    HW225930   6.461   2.667   8.367  1.8069 -1.5932 -1.4700
40492SOL     OW25931   1.189   3.794   0.015  0.3290 -0.7018 -0.7378
40492SOL    HW125932   1.240   3.712   0.016  1.7797  0.1377  1.4107
40492SOL    HW225933   1.234   3.850   0.078 -1.8480  1.0288 -0.6416
40493SOL     OW25934  10.853   6.853   1.333 -1.1012  0.1363  0.1432
40493SOL    HW125935  10.876   6.803   1.255  1.8376 -1.2534  1.7152
40493SOL    HW225936  10.798   6.794   1.384 -1.1799  0.1678  0.0942
40494SOL     OW25937   9.709   9.570  10.783  0.4381  0.1316  0.3198
40494SOL    HW125938   9.656   9.649  10.779  0.1101 -0.1247 -0.9381
40494SOL    HW225939   9.790   9.597  10.826  0.4452  1.2173 -0.3568
40495SOL     OW25940   2.405   6.162   1.632 -0.1030  0.3031  0.1016
40495SOL    HW125941   2.483   6.107   1.627 -1.1412 -1.5119  2.2367
40495SOL    HW225942   2.333   6.104   1.610 -1.2765  0.6089  2.7496
40496SOL     OW25943   5.840   1.577  10.010  0.3440 -0.0834 -0.1458
40496SOL    HW125944   5.780   1.529   9.953  1.0844 -0.4057 -0.6674
40496SOL    HW225945   5.892   1.631   9.950 -0.7487  1.7477  0.4372
40497SOL     OW25946   7.515   2.898   3.268 -0.5820  0.0942  0.3676
40497SOL    HW125947   7.600   2.870   3.302  1.0049  5.4178  1.7946
40497SOL    HW225948   7.458   2.902   3.344 -1.3234 -0.8882 -0.1170
40498SOL     OW25949   1.911   9.495   1.335 -0.1148  0.6545  0.2300
40498SOL    HW125950   1.966   9.430   1.292  1.0762  1.8533 -0.1155
40498SOL    HW225951   1.917   9.474   1.428 -0.9146 -0.5795  0.0412
40499SOL     OW25952  10.503   0.184   5.410 -0.4297  0.2412 -0.7522
40499SOL    HW125953  10.419   0.176   5.456 -0.7830  1.2636 -1.1993
40499SOL    HW225954  10.504   0.110   5.349 -0.4547 -0.4714  0.0844
40500SOL     OW25955   5.984   1.762   5.787 -0.0746  0.2726  0.2555
40500SOL    HW125956   5.920   1.788   5.853  0.1335 -1.4711  1.1946
40500SOL    HW225957   6.069   1.780   5.827  0.1065 -2.5824  1.3539
40501SOL     OW25958   6.517   7.349   3.896 -0.5094 -0.3915  0.9844
40501SOL    HW125959   6.609   7.345   3.923  0.5008 -0.3384 -2.1452
40501SOL    HW225960   6.506   7.436   3.859 -1.7684 -0.4974  1.0465
40502SOL     OW25961   6.897   8.654   4.513  0.6915  0.6231  0.7455
40502SOL    HW125962   6.874   8.570   4.552 -0.8015  1.3883  1.6388
40502SOL    HW225963   6.967   8.634   4.452  0.4825 -1.2376  1.0511
40503SOL     OW25964   5.305   1.183   0.483  0.4675  0.2738 -0.6792
40503SOL    HW125965   5.227   1.195   0.538  0.1580 -0.9068 -0.8244
40503SOL    HW225966   5.360   1.259   0.502 -0.3759  0.7314  0.0125
40504SOL     OW25967   1.776   3.107   4.239  1.0203  0.2814 -0.2787
40504SOL    HW125968   1.732   3.184   4.203  0.7117  0.5690  0.6767
40504SOL    HW225969   1.705   3.047   4.262  1.0518  0.9730  1.7724
40505SOL     OW25970   9.753   1.723   2.675 -0.0148 -0.1368 -0.0129
40505SOL    HW125971   9.809   1.778   2.729 -0.3296 -0.1662  0.3430
40505SOL    HW225972   9.668   1.723   2.719  0.0368 -1.0805  0.1124
40506SOL     OW25973   8.239   8.136   0.089 -0.5872  0.1805  0.1463
40506SOL    HW125974   8.329   8.146   0.120 -0.6999 -0.8804  0.8610
40506SOL    HW225975   8.205   8.060   0.136 -1.4894 -0.1482 -0.9816
40507SOL     OW25976   9.668   0.115   4.605 -0.1997 -0.0353 -0.0495
40507SOL    HW125977   9.697   0.049   4.669  0.8601  0.1113 -0.3652
40507SOL    HW225978   9.672   0.198   4.653 -0.0611 -0.0115 -0.1014
40508SOL     OW25979   3.317   3.894   5.046 -0.3992 -0.8968 -0.3345
40508SOL    HW125980   3.378   3.950   4.998 -1.6713  0.1914 -0.7456
40508SOL    HW225981   3.303   3.939   5.129  1.0829 -2.3052  0.7163
40509SOL     OW25982   2.036   4.468   6.863  0.2379 -0.0932 -0.4504
40509SOL    HW125983   1.978   4.479   6.939 -1.0020  1.8605 -1.6093
40509SOL    HW225984   2.049   4.373   6.857 -2.0964 -0.5322  0.4186
40510SOL     OW25985   8.649   4.360   2.800  0.0393  0.0675 -0.4746
40510SOL    HW125986   8.584   4.301   2.838  0.2488 -0.8390 -1.4765
40510SOL    HW225987   8.638   4.351   2.705  1.4117  0.1166 -0.6629
40511SOL     OW25988   3.611   0.928   9.575  0.0059 -0.0464 -0.2535
40511SOL    HW125989   3.646   0.841   9.558 -0.5673 -0.2759 -0.2716
40511SOL    HW225990   3.530   0.932   9.523 -0.3014  0.2637  0.2453
40512SOL     OW25991   2.534   3.084   4.288  0.7959 -0.3162  0.1011
40512SOL    HW125992   2.444   3.079   4.258  1.5836  0.0855 -2.5717
40512SOL    HW225993   2.549   2.999   4.331 -1.1729  0.1287  1.8473
40513SOL     OW25994   8.360   7.681   4.999 -0.1479  0.1838 -0.2389
40513SOL    HW125995   8.444   7.650   5.033  0.1266 -0.3315 -1.3478
40513SOL    HW225996   8.374   7.774   4.982 -0.4620  0.5967  1.5169
40514SOL     OW25997   0.116   3.951   0.018 -0.2764 -0.2694  0.3714
40514SOL    HW125998   0.032   3.983  -0.015  0.4852 -0.5728 -2.0201
40514SOL    HW225999   0.118   3.858  -0.004 -0.2353 -0.8316  2.4986
40515SOL     OW26000   7.197   4.693   0.595  0.4402 -0.0302 -0.5684
40515SOL    HW126001   7.129   4.760   0.606  0.0100 -0.4474 -0.6641
40515SOL    HW226002   7.217   4.694   0.502  0.5811  0.1038 -0.5377
40516SOL     OW26003   3.568   7.274   7.055 -0.4111  0.1052  0.0295
40516SOL    HW126004   3.487   7.244   7.015  0.0234 -2.5283  0.9303
40516SOL    HW226005   3.542   7.304   7.143 -0.7335  1.7713 -0.6002
40517SOL     OW26006   1.241   2.483   1.692  0.0519 -0.2106  0.1497
40517SOL    HW126007   1.150   2.511   1.692 -0.5077 -1.9174  0.3174
40517SOL    HW226008   1.248   2.422   1.619  0.8286 -0.7870  0.6816
40518SOL     OW26009  10.208   1.278   1.905  0.9827 -0.1855  0.2820
40518SOL    HW126010  10.298   1.289   1.937  0.9096  0.2542  0.3371
40518SOL    HW226011  10.207   1.319   1.819  0.5360  0.8753  0.7760
40519SOL     OW26012   0.924   9.934   8.693 -0.3691 -0.0941 -0.1372
40519SOL    HW126013   0.985   9.932   8.767  0.4957 -1.2243 -0.8318
40519SOL    HW226014   0.929   9.846   8.656 -0.6762  0.4823 -1.6245
40520SOL     OW26015   8.676   7.042   4.461  0.2369 -0.1589  0.6318
40520SOL    HW126016   8.604   7.024   4.400 -0.4139  2.7824  0.3551
40520SOL    HW226017   8.739   7.092   4.409  1.2528 -0.4351  1.5570
40521SOL     OW26018   2.775   8.004   7.418 -0.1659  0.5687  0.6724
40521SOL    HW126019   2.858   8.037   7.385 -0.4364 -1.2677 -2.1464
40521SOL    HW226020   2.794   7.914   7.445 -1.2552  0.0392 -0.2391
40522SOL     OW26021   6.107   3.014   7.676 -0.3261 -0.2461 -0.2713
40522SOL    HW126022   6.045   2.958   7.722 -0.1963 -0.2311 -0.0773
40522SOL    HW226023   6.059   3.097   7.664 -0.6832 -0.5493 -0.9733
40523SOL     OW26024   2.117   5.365   0.095 -0.1791  0.1498 -0.4468
40523SOL    HW126025   2.028   5.374   0.131 -0.3454 -0.6567 -0.6387
40523SOL    HW226026   2.163   5.443   0.125 -0.7553  0.2313  0.2538
40524SOL     OW26027   4.311   0.433   7.191  0.1032 -0.0986 -0.5208
40524SOL    HW126028   4.378   0.502   7.189  0.2191 -0.1631  0.7165
40524SOL    HW226029   4.239   0.469   7.139  1.4976 -0.4965 -2.8839
40525SOL     OW26030  10.523   1.667   9.122 -0.0337  0.1952  0.3432
40525SOL    HW126031  10.594   1.679   9.185  0.3537 -1.0891  0.1677
40525SOL    HW226032  10.550   1.718   9.046  0.8289 -0.4969  0.1805
40526SOL     OW26033   2.930   6.222   7.698  0.2571  0.0286 -0.3270
40526SOL    HW126034   2.841   6.191   7.680  0.6004 -0.3782 -1.3888
40526SOL    HW226035   2.976   6.144   7.731  0.0538  0.4001  0.8908
40527SOL     OW26036   4.538  10.602  10.528 -0.1400 -0.4454 -0.2637
40527SOL    HW126037   4.567  10.690  10.507  0.5455 -0.3488  1.0203
40527SOL    HW226038   4.617  10.555  10.553 -0.7790 -0.7782  1.2432
40528SOL     OW26039   1.801   5.763   1.785 -0.3446  0.3055 -0.0853
40528SOL    HW126040   1.738   5.715   1.732 -0.7795  0.5918  0.1693
40528SOL    HW226041   1.797   5.853   1.753  1.6990 -0.0981 -1.7283
40529SOL     OW26042  10.344   6.397  11.061 -0.0239 -0.6302  0.4546
40529SOL    HW126043  10.434   6.389  11.029  0.6162  0.3283  1.9048
40529SOL    HW226044  10.354   6.419  11.154 -1.7688 -2.5841  1.1852
40530SOL     OW26045  10.835   1.484   5.950  0.2440 -0.2832 -1.2993
40530SOL    HW126046  10.812   1.549   6.016  1.1247  1.2777 -2.4568
40530SOL    HW226047  10.915   1.443   5.984 -1.4235 -2.3320  0.4285
40531SOL     OW26048   0.765   1.648   9.945  0.1418  0.7524 -0.0945
40531SOL    HW126049   0.804   1.616   9.864  0.7296  0.9207  0.1204
40531SOL    HW226050   0.772   1.743   9.939  1.9512  0.7337  0.9944
40532SOL     OW26051   4.470   7.702  10.656 -0.3786 -0.1235 -0.1936
40532SOL    HW126052   4.493   7.614  10.685  2.8241 -0.0623 -2.0466
40532SOL    HW226053   4.513   7.760  10.719  1.7704 -0.0038 -1.6480
40533SOL     OW26054   6.422  10.524   8.727  0.4989 -0.4368  0.3189
40533SOL    HW126055   6.466  10.608   8.713 -0.6420  0.0029 -0.7695
40533SOL    HW226056   6.358  10.541   8.796  1.1905 -0.7763  1.0619
40534SOL     OW26057   5.227   8.724   3.725  0.0533 -0.0686 -0.5830
40534SOL    HW126058   5.235   8.646   3.671  0.3367  0.0330 -0.6874
40534SOL    HW226059   5.132   8.735   3.738  0.0358 -0.7342 -0.1091
40535SOL     OW26060   6.427   8.909  10.307 -0.3062  0.2813  0.2696
40535SOL    HW126061   6.477   8.898  10.226 -1.5099  0.4930 -0.5262
40535SOL    HW226062   6.492   8.937  10.372  0.5273  0.9690 -0.8303
40536SOL     OW26063   7.428   5.231   6.883 -0.3948 -0.4473  0.1890
40536SOL    HW126064   7.404   5.200   6.796 -1.1673  1.8875 -0.4852
40536SOL    HW226065   7.516   5.266   6.873 -0.9931  1.0450  0.0005
40537SOL     OW26066   7.677  10.251   6.454  0.0831  0.3233  0.2669
40537SOL    HW126067   7.591  10.289   6.437 -1.2202 -2.5161 -0.0705
40537SOL    HW226068   7.685  10.249   6.549  0.4834  1.9524  0.2916
40538SOL     OW26069   8.508   8.658   8.811 -0.2017 -0.0184  0.1538
40538SOL    HW126070   8.429   8.713   8.807 -0.1585  0.1728  1.6048
40538SOL    HW226071   8.494   8.593   8.742 -0.9368  0.8998 -0.6066
40539SOL     OW26072   6.940   5.530   8.258  0.0346 -0.2618  0.2846
40539SOL    HW126073   6.934   5.509   8.165  0.7327  0.0237  0.1662
40539SOL    HW226074   6.961   5.446   8.300 -0.2065 -0.3770  0.1777
40540SOL     OW26075   1.006   6.217   1.858  0.1164  0.0277 -0.1876
40540SOL    HW126076   0.982   6.125   1.855  1.2355 -0.3193 -3.9671
40540SOL    HW226077   1.092   6.218   1.898 -0.3740 -0.3892  0.9126
40541SOL     OW26078  10.466   7.037   0.063  0.6165  0.3749  0.6055
40541SOL    HW126079  10.451   6.996  -0.022  0.2120 -0.4870  1.0840
40541SOL    HW226080  10.434   7.126   0.052  1.2888  0.5176 -0.3786
40542SOL     OW26081   0.972   9.876   3.329 -0.0092 -0.3284  0.2465
40542SOL    HW126082   0.989   9.783   3.310 -0.2703 -0.6987  1.6790
40542SOL    HW226083   1.020   9.924   3.262 -0.5750 -1.5155 -1.0461
40543SOL     OW26084   8.844   4.628   8.177 -0.0477  0.0085  0.7429
40543SOL    HW126085   8.882   4.571   8.243  0.4023 -0.9989 -0.3557
40543SOL    HW226086   8.919   4.662   8.128 -0.3897  0.4777  0.5291
40544SOL     OW26087   5.070   3.836   2.596  0.3728  0.4767  0.2293
40544SOL    HW126088   5.128   3.862   2.524 -1.1453  1.5245 -0.6709
40544SOL    HW226089   5.067   3.912   2.654 -1.3160  1.0702 -0.5747
40545SOL     OW26090   7.014   0.034   1.662  0.3419 -0.3697  0.0408
40545SOL    HW126091   7.070   0.101   1.622  1.8247 -1.7103 -0.2371
40545SOL    HW226092   7.048   0.023   1.750 -0.6666  0.0669  0.4994
40546SOL     OW26093   2.941   7.183   6.117 -0.1538  0.0888  0.2204
40546SOL    HW126094   3.000   7.249   6.082  1.4339 -1.3770  0.0209
40546SOL    HW226095   2.865   7.184   6.059 -1.9690  4.2132  2.2469
40547SOL     OW26096   8.678   8.537   7.365 -0.1807  0.6108 -0.2989
40547SOL    HW126097   8.617   8.520   7.293 -1.3902  0.6794  0.6737
40547SOL    HW226098   8.764   8.535   7.324 -0.6990 -1.1630 -1.4443
40548SOL     OW26099   7.298   3.391   7.425  0.3587  0.3309 -0.1029
40548SOL    HW126100   7.291   3.406   7.519 -0.3102  0.1692 -0.1249
40548SOL    HW226101   7.262   3.303   7.411  0.5949  0.2907 -0.4910
40549SOL     OW26102   0.687   0.865   7.554  0.5095  0.0226  0.1280
40549SOL    HW126103   0.599   0.833   7.573  0.7906 -0.0390  1.3908
40549SOL    HW226104   0.718   0.810   7.483  0.5141 -1.7369  1.4324
40550SOL     OW26105   4.265   2.496   3.837  0.0396 -0.4771  0.0094
40550SOL    HW126106   4.246   2.551   3.761  2.7599  0.6058 -0.0045
40550SOL    HW226107   4.258   2.555   3.912  3.8385  0.3458 -0.0749
40551SOL     OW26108   8.032   6.178   3.218  0.1135 -0.8000 -0.1098
40551SOL    HW126109   8.037   6.200   3.311  0.2182 -0.8807 -0.0962
40551SOL    HW226110   7.992   6.091   3.216 -0.2784 -0.6222 -0.1621
40552SOL     OW26111   0.113   3.710   3.837  0.1839 -0.7866 -0.4749
40552SOL    HW126112   0.162   3.688   3.917  1.7406  1.0737 -0.8602
40552SOL    HW226113   0.131   3.802   3.822 -3.8151  0.1827 -0.4586
40553SOL     OW26114   1.613  10.217   2.897 -0.5149  0.4739  0.2351
40553SOL    HW126115   1.654  10.151   2.841 -2.5307 -0.7351  0.1015
40553SOL    HW226116   1.569  10.276   2.836 -2.5656 -0.7455  0.4098
40554SOL     OW26117   3.308   0.317   1.570  0.1417 -0.2683 -0.5260
40554SOL    HW126118   3.370   0.260   1.615 -0.4265 -0.6362 -0.1918
40554SOL    HW226119   3.348   0.333   1.484  1.3859  0.6946  0.1980
40555SOL     OW26120   0.242   2.394  10.199 -0.0014  0.4565  0.2446
40555SOL    HW126121   0.302   2.323  10.179  0.3054  1.2146 -1.7534
40555SOL    HW226122   0.177   2.391  10.129 -1.9039  0.1156  1.9561
40556SOL     OW26123   8.436   3.380   5.847 -0.1368  0.4437 -0.0276
40556SOL    HW126124   8.464   3.345   5.931  0.0774 -0.7404 -0.5651
40556SOL    HW226125   8.501   3.448   5.826  0.3866  0.0564  0.3077
40557SOL     OW26126   0.315   8.698  10.848 -0.3050  0.4475  0.1282
40557SOL    HW126127   0.385   8.692  10.914 -0.3152 -0.8026  0.0412
40557SOL    HW226128   0.333   8.627  10.787 -2.1993 -0.5282  0.6330
40558SOL     OW26129   4.265  10.886   1.176  0.2458 -0.1938 -0.2748
40558SOL    HW126130   4.297  10.838   1.253 -2.8755 -1.6495  0.2385
40558SOL    HW226131   4.223  10.964   1.212 -0.6952 -0.5735 -0.5279
40559SOL     OW26132   7.542   8.197   4.852  0.5077 -0.1075  0.1969
40559SOL    HW126133   7.583   8.256   4.788 -3.4890  2.1542 -0.5904
40559SOL    HW226134   7.499   8.130   4.798  0.9679 -0.9597  0.8604
40560SOL     OW26135   5.147   5.393  10.863 -0.7273  0.0510 -0.6198
40560SOL    HW126136   5.117   5.399  10.773 -2.3842 -1.2663 -0.2062
40560SOL    HW226137   5.180   5.304  10.872  0.9816  0.6776 -0.3390
40561SOL     OW26138   2.889   3.329   4.986  0.8488 -0.0681  0.5819
40561SOL    HW126139   2.972   3.348   4.942  1.2394 -0.1861  1.2497
40561SOL    HW226140   2.878   3.400   5.048 -0.5301  0.9964 -0.8194
40562SOL     OW26141   0.193   8.112   5.968 -0.1958  0.2967 -0.4882
40562SOL    HW126142   0.172   8.195   6.011  0.5289  0.7574 -1.0094
40562SOL    HW226143   0.169   8.126   5.876  0.6924  0.2087 -0.7340
40563SOL     OW26144   3.787   1.488   7.746  0.4243  0.3206 -0.2287
40563SOL    HW126145   3.757   1.512   7.833 -2.0870 -0.0643 -0.9144
40563SOL    HW226146   3.878   1.517   7.743  0.1304  1.6803  1.9886
40564SOL     OW26147   4.532   9.405   2.489  0.2607  0.0165 -0.2529
40564SOL    HW126148   4.469   9.377   2.423 -2.4125  2.7745  0.8486
40564SOL    HW226149   4.509   9.356   2.567 -0.0261  0.4366 -0.0667
40565SOL     OW26150  10.448   6.617   9.105  0.0650  0.4190  0.1160
40565SOL    HW126151  10.486   6.539   9.146  0.5922 -1.7236 -3.9541
40565SOL    HW226152  10.356   6.595   9.090  0.0059  0.9398 -0.3383
40566SOL     OW26153   2.464   6.763   3.233  0.2843 -0.5000  0.0148
40566SOL    HW126154   2.435   6.843   3.190 -1.0719  0.6095  2.7180
40566SOL    HW226155   2.557   6.778   3.252 -0.2998  1.2748  1.9306
40567SOL     OW26156  10.686   5.492  10.794 -0.1951 -0.4645  0.4668
40567SOL    HW126157  10.681   5.489  10.889  0.7249  0.4345  0.5651
40567SOL    HW226158  10.663   5.582  10.772  2.5272  0.2429  0.1021
40568SOL     OW26159   3.778   2.334   0.720 -0.4834 -0.2778 -0.3595
40568SOL    HW126160   3.725   2.278   0.777  0.7017 -0.4407  0.6111
40568SOL    HW226161   3.772   2.421   0.759  0.8921 -0.5217  0.4524
40569SOL     OW26162   8.183  11.070   1.923  0.7062 -0.4294 -0.0015
40569SOL    HW126163   8.144  11.137   1.867  0.8317 -1.0607 -0.8622
40569SOL    HW226164   8.244  11.023   1.866  1.4257 -0.5838  0.8693
40570SOL     OW26165   3.505   1.775   9.560  0.3461 -0.1595  0.2034
40570SOL    HW126166   3.585   1.777   9.508 -0.6397  1.6849 -1.3525
40570SOL    HW226167   3.437   1.749   9.498 -0.2712 -1.9692  1.5614
40571SOL     OW26168   1.345   1.634  10.408 -0.0592  0.0552  1.0186
40571SOL    HW126169   1.364   1.555  10.458 -1.6625 -0.7254  0.4594
40571SOL    HW226170   1.255   1.623  10.379  1.0556 -0.0645 -2.9790
40572SOL     OW26171   3.868   8.158   7.035  0.3973 -0.1135  0.2927
40572SOL    HW126172   3.945   8.133   7.085 -0.1108  0.4880  1.4125
40572SOL    HW226173   3.845   8.080   6.986 -0.5959 -1.6379  2.9731
40573SOL     OW26174   1.919   8.770   3.164  0.7990  0.2731 -0.5434
40573SOL    HW126175   1.861   8.694   3.154  0.5401  0.5588 -1.3455
40573SOL    HW226176   1.948   8.767   3.255  1.5426 -1.3133 -0.8069
40574SOL     OW26177   9.777   5.365   7.943  0.5295 -0.0167 -0.2699
40574SOL    HW126178   9.725   5.291   7.972  2.0612 -0.6929  0.8570
40574SOL    HW226179   9.742   5.440   7.991  0.1205 -0.3135 -0.1043
40575SOL     OW26180   2.254   1.504   2.565 -0.1165 -0.0598  0.2187
40575SOL    HW126181   2.201   1.528   2.640  0.8911 -1.6154  1.4804
40575SOL    HW226182   2.260   1.409   2.569  1.6412 -0.0184 -0.6593
40576SOL     OW26183   8.459   0.906   8.267 -0.0111  0.0592 -0.0604
40576SOL    HW126184   8.501   0.881   8.185  0.1039  1.3938 -0.4233
40576SOL    HW226185   8.529   0.942   8.320 -0.1445 -0.5183  0.5220
40577SOL     OW26186   8.674   6.807   8.092 -0.0402  0.0329 -0.1727
40577SOL    HW126187   8.738   6.839   8.156 -0.4461 -1.0610  0.8135
40577SOL    HW226188   8.620   6.745   8.141 -0.2547 -0.9794 -1.6279
40578SOL     OW26189   4.483   3.006   3.681 -0.0782 -0.3873 -0.0075
40578SOL    HW126190   4.455   2.942   3.747  2.2605 -0.2971  1.1718
40578SOL    HW226191   4.567   2.973   3.650  0.2613  1.1212 -0.7689
40579SOL     OW26192   6.013   3.007   4.333 -0.3017 -0.0741 -0.4255
40579SOL    HW126193   5.958   2.931   4.354  0.5692 -0.5958  0.0094
40579SOL    HW226194   6.086   3.002   4.394  0.9643 -0.1814 -1.8838
40580SOL     OW26195   7.051  10.210   6.136  0.1775  0.0647 -0.2396
40580SOL    HW126196   7.006  10.177   6.214  0.8552 -1.4396 -0.4412
40580SOL    HW226197   6.996  10.183   6.063  0.9154 -1.0123 -0.4297
40581SOL     OW26198   2.384   3.011   8.482  0.4032  0.2355 -1.1832
40581SOL    HW126199   2.412   2.925   8.453  0.1937 -0.1336 -0.3432
40581SOL    HW226200   2.311   2.993   8.542  0.2751  0.9991 -1.0975
40582SOL     OW26201   1.062   5.253   1.142 -0.9611  0.2519 -0.4496
40582SOL    HW126202   1.108   5.230   1.223 -1.0569 -1.5365 -0.8467
40582SOL    HW226203   0.969   5.250   1.165 -0.9989 -0.5281 -0.6593
40583SOL     OW26204   6.022   1.919   5.135  0.5495 -0.1299 -0.2477
40583SOL    HW126205   6.032   1.826   5.112 -0.7904  0.0041 -1.4417
40583SOL    HW226206   6.089   1.964   5.083 -0.8705 -0.1028 -2.1372
40584SOL     OW26207   2.414  10.212   8.900 -0.1824  0.1098 -0.2160
40584SOL    HW126208   2.420  10.175   8.812  3.4649 -0.4879  0.1227
40584SOL    HW226209   2.338  10.168   8.939  1.1339 -3.6616 -1.3860
40585SOL     OW26210   5.342   6.461   9.998 -0.3904  0.0324  0.0356
40585SOL    HW126211   5.281   6.535  10.001 -1.0585 -0.4764 -0.6110
40585SOL    HW226212   5.385   6.469   9.913 -0.5004 -0.3374 -0.0585
40586SOL     OW26213   0.250   7.570   3.380 -0.4854 -0.1885 -0.6220
40586SOL    HW126214   0.267   7.591   3.472 -2.1774 -0.3473 -0.2446
40586SOL    HW226215   0.201   7.645   3.347 -0.3829 -0.3889 -1.2368
40587SOL     OW26216   0.238  10.377   2.981  0.0934 -0.5461 -0.2892
40587SOL    HW126217   0.158  10.418   2.947 -0.5448 -0.5595  1.1598
40587SOL    HW226218   0.291  10.451   3.013  0.5668 -0.5635 -0.9921
40588SOL     OW26219   9.276   9.547   3.388 -0.0019 -1.0935 -0.3585
40588SOL    HW126220   9.363   9.509   3.393  0.3199 -0.4433 -0.8438
40588SOL    HW226221   9.283   9.615   3.320  0.3053  2.0552  2.5173
40589SOL     OW26222   2.987  10.706   3.980 -0.2446  0.4607  0.5784
40589SOL    HW126223   3.030  10.696   4.064 -1.0457 -3.5452  0.6722
40589SOL    HW226224   2.896  10.681   3.996 -0.2183 -1.3345 -1.5759
40590SOL     OW26225   1.335   0.960   9.092  0.2750 -0.0656 -0.3815
40590SOL    HW126226   1.377   0.942   9.008  0.4437  0.8828 -0.5183
40590SOL    HW226227   1.242   0.969   9.071  0.1435 -1.0511 -0.2606
40591SOL     OW26228   7.287   5.460   5.008 -0.1065 -0.0922  0.2772
40591SOL    HW126229   7.313   5.383   4.958  0.2344 -1.5178  2.4779
40591SOL    HW226230   7.191   5.459   5.006 -0.1035 -0.5828  0.2825
40592SOL     OW26231   8.894   8.951   9.823 -0.3306  0.7943 -0.1995
40592SOL    HW126232   8.914   8.872   9.873 -1.7843  0.3645 -0.2702
40592SOL    HW226233   8.825   8.995   9.872  0.2427  1.8747 -0.3233
40593SOL     OW26234   6.007   9.151   0.314 -0.1885 -0.2663 -0.5276
40593SOL    HW126235   5.954   9.117   0.241 -0.2729  0.1908 -0.6834
40593SOL    HW226236   6.036   9.073   0.361 -0.7639 -0.5400 -0.6105
40594SOL     OW26237   4.530   1.850   1.248  0.5759 -1.1322  0.0455
40594SOL    HW126238   4.562   1.783   1.187 -0.1047 -0.8735 -0.6126
40594SOL    HW226239   4.569   1.932   1.218  1.9203 -1.2973  1.2316
40595SOL     OW26240   4.339   0.278   2.177  0.3816  0.0283 -0.2218
40595SOL    HW126241   4.366   0.224   2.103  0.9647  0.6152 -0.4393
40595SOL    HW226242   4.325   0.365   2.141 -1.8385 -0.2343 -0.1212
40596SOL     OW26243   5.290   4.629   7.395 -0.1340 -0.3092 -0.0236
40596SOL    HW126244   5.373   4.606   7.435 -0.5203 -2.8550 -0.5512
40596SOL    HW226245   5.226   4.573   7.438 -1.5527  1.2949  0.0772
40597SOL     OW26246   4.176   0.155   6.195 -0.2758 -0.5303 -0.2461
40597SOL    HW126247   4.214   0.067   6.198  1.6560  0.2591  0.1165
40597SOL    HW226248   4.172   0.176   6.102 -2.3777 -1.6128 -0.4566
40598SOL     OW26249   3.357   0.706   3.022 -0.0885 -0.6452  0.0487
40598SOL    HW126250   3.411   0.627   3.026  3.2926  1.3230 -1.9854
40598SOL    HW226251   3.361   0.743   3.110  1.1224 -1.0609  0.1811
40599SOL     OW26252   0.210   5.671   9.249 -0.2892 -0.0191  0.1487
40599SOL    HW126253   0.179   5.617   9.322 -0.5295  0.4953  0.4335
40599SOL    HW226254   0.208   5.613   9.173 -1.7424 -0.0538  0.1994
40600SOL     OW26255   5.351   4.124   3.532 -0.5486  0.0303  0.3923
40600SOL    HW126256   5.381   4.192   3.592 -0.5331 -1.2978  1.9491
40600SOL    HW226257   5.361   4.163   3.445  2.5390  0.9042  1.0079
40601SOL     OW26258   9.454   8.910   1.871  0.2722  0.0590  0.8424
40601SOL    HW126259   9.506   8.946   1.942  1.2808  0.6706 -0.1793
40601SOL    HW226260   9.509   8.842   1.833 -0.1110 -0.0229  0.4256
40602SOL     OW26261   0.774   8.115   4.053  0.1146 -0.2659  0.2839
40602SOL    HW126262   0.798   8.041   3.997 -2.4392 -0.5360 -0.5636
40602SOL    HW226263   0.732   8.075   4.129 -1.0761  0.2776 -0.0711
40603SOL     OW26264   1.442   2.447   3.068  0.7549 -0.0189 -0.3093
40603SOL    HW126265   1.409   2.532   3.039 -0.9492 -0.4745  0.1881
40603SOL    HW226266   1.520   2.468   3.118 -1.6684  1.7038  3.1493
40604SOL     OW26267   4.254   6.626   8.769  0.3412 -0.3244 -0.4055
40604SOL    HW126268   4.276   6.590   8.855 -0.5357  1.5891  0.7090
40604SOL    HW226269   4.327   6.685   8.748 -0.3829  0.7764  0.0473
40605SOL     OW26270   5.989   1.567  10.367  0.0330 -0.1634  0.2062
40605SOL    HW126271   5.996   1.654  10.404  1.9080  0.2045 -0.9032
40605SOL    HW226272   6.043   1.512  10.424 -1.3942 -0.7120  1.0891
40606SOL     OW26273   6.503   7.567   8.105  1.0516 -0.1372 -0.5429
40606SOL    HW126274   6.525   7.475   8.092  0.7351 -0.2096 -0.5781
40606SOL    HW226275   6.414   7.575   8.069  0.9868  0.1277 -0.3229
40607SOL     OW26276   1.830   5.325   9.309 -0.0661 -0.2797 -0.0600
40607SOL    HW126277   1.843   5.409   9.266  1.2863 -0.1022  0.6292
40607SOL    HW226278   1.882   5.263   9.259  0.5734 -0.2967  0.6030
40608SOL     OW26279   9.857   8.785   6.810  0.2674 -0.4709 -0.4361
40608SOL    HW126280   9.830   8.704   6.854 -0.6334 -1.0406 -1.9817
40608SOL    HW226281   9.775   8.828   6.786  0.7441  0.5929 -0.1945
40609SOL     OW26282   4.549   9.348   9.602  0.5490  0.0532 -0.0544
40609SOL    HW126283   4.508   9.424   9.561 -1.5323  0.1138  1.9109
40609SOL    HW226284   4.596   9.384   9.677 -0.9902 -0.5753  1.2755
40610SOL     OW26285  10.271   7.602   8.009 -0.1690  0.4084  0.2786
40610SOL    HW126286  10.319   7.677   7.972  0.2856 -0.1512 -0.2883
40610SOL    HW226287  10.204   7.642   8.065 -0.3613  1.2586 -0.5295
40611SOL     OW26288   7.115   3.573   1.922 -0.3647 -0.0860 -0.2603
40611SOL    HW126289   7.125   3.503   1.987 -0.4333  1.0951  1.0866
40611SOL    HW226290   7.035   3.619   1.948 -1.2376 -0.4738 -2.1032
40612SOL     OW26291   2.764   2.113   2.096 -0.2835 -0.2508  0.2436
40612SOL    HW126292   2.855   2.088   2.085 -0.0494 -0.2733  1.9366
40612SOL    HW226293   2.767   2.203   2.129 -0.7483 -0.8376  2.0140
40613SOL     OW26294   6.349   1.123   0.985 -0.5344 -0.2057  0.4285
40613SOL    HW126295   6.353   1.210   0.945  2.9355 -0.1149  0.7263
40613SOL    HW226296   6.346   1.063   0.911  2.2383  0.0766  0.0144
40614SOL     OW26297   8.334  10.038   7.985  0.1377 -0.1781  0.2864
40614SOL    HW126298   8.282  10.052   8.064  1.9352 -0.3722  1.5495
40614SOL    HW226299   8.404  10.104   7.990 -0.5637  0.8319 -1.9486
40615SOL     OW26300   8.091   2.950  10.388  0.0924  0.1262  0.0508
40615SOL    HW126301   8.176   2.923  10.353 -1.0175 -2.0377 -1.2323
40615SOL    HW226302   8.036   2.963  10.310 -1.1081  0.1659  0.8666
40616SOL     OW26303   7.800   3.772   7.077  0.2429  0.2695 -0.2833
40616SOL    HW126304   7.779   3.709   7.145  0.5844  2.0030  1.5038
40616SOL    HW226305   7.886   3.745   7.044  0.3792 -0.1897  0.4393
40617SOL     OW26306  10.603   5.518   2.850  0.5692 -0.0804 -0.2186
40617SOL    HW126307  10.692   5.508   2.885  0.7993  1.0577 -0.4633
40617SOL    HW226308  10.573   5.428   2.837  1.8740 -0.4772 -0.6156
40618SOL     OW26309   2.915   4.430  10.803  0.2972 -0.4905 -1.1537
40618SOL    HW126310   2.994   4.482  10.815  1.0975 -1.0274 -3.5415
40618SOL    HW226311   2.939   4.343  10.835 -0.8958  0.3307  2.4102
40619SOL     OW26312   8.680   2.604   6.320 -0.8569 -0.2846 -0.4654
40619SOL    HW126313   8.714   2.618   6.231  1.5582 -0.1247  0.3955
40619SOL    HW226314   8.697   2.511   6.336 -0.0730 -0.0264  0.2597
40620SOL     OW26315   7.486   7.118   6.531 -0.4029  0.2409 -0.1073
40620SOL    HW126316   7.522   7.206   6.520  0.4230  0.5615  3.6133
40620SOL    HW226317   7.391   7.132   6.539 -0.4809  0.5248 -1.3887
40621SOL     OW26318   4.103   2.293   2.255  0.5324 -0.4411  0.5604
40621SOL    HW126319   4.193   2.284   2.225  0.3550  0.1938 -0.1880
40621SOL    HW226320   4.106   2.273   2.349  1.8126  1.6141  0.9985
40622SOL     OW26321   4.419  10.133  10.664 -0.3662 -0.6240 -0.3037
40622SOL    HW126322   4.455  10.171  10.584  0.7305 -1.0991 -0.0600
40622SOL    HW226323   4.359  10.200  10.698  1.9202  1.1933  0.4158
40623SOL     OW26324   2.059   5.706   3.326 -0.3149 -0.1830 -0.0783
40623SOL    HW126325   2.081   5.722   3.235 -1.9343 -1.3609 -0.7090
40623SOL    HW226326   2.052   5.793   3.365  1.0039  0.3117 -0.8949
40624SOL     OW26327   9.574   0.932  10.828  0.3435  0.1331 -0.0075
40624SOL    HW126328   9.543   0.992  10.760  1.1253  1.1614  0.5325
40624SOL    HW226329   9.655   0.970  10.860  1.2692 -1.6012 -0.1573
40625SOL     OW26330   7.032   5.434   8.861 -0.0370 -0.2257  0.6998
40625SOL    HW126331   7.118   5.469   8.839  0.1868  0.1540  2.0635
40625SOL    HW226332   7.049   5.346   8.894 -0.4114 -0.9636 -0.9727
40626SOL     OW26333  10.302  10.363   4.661 -0.1522 -0.1896  0.3000
40626SOL    HW126334  10.229  10.315   4.702  0.5783 -0.6173  1.1380
40626SOL    HW226335  10.354  10.295   4.618 -0.0700  0.0766 -0.0252
40627SOL     OW26336   3.412   5.469   0.885  0.3972  0.1085 -0.9812
40627SOL    HW126337   3.356   5.544   0.907  0.3773 -0.0009 -0.6511
40627SOL    HW226338   3.500   5.506   0.881  0.4797  0.0336 -0.1471
40628SOL     OW26339   9.122   2.864   2.411 -0.0599 -0.0307 -0.1627
40628SOL    HW126340   9.212   2.831   2.406  0.2760  0.5706  1.3163
40628SOL    HW226341   9.111   2.917   2.332  1.0625  0.3054 -0.1087
40629SOL     OW26342   0.418   8.497   0.316  0.3745  0.3095  0.8270
40629SOL    HW126343   0.383   8.427   0.261 -1.0990  1.0759  0.7327
40629SOL    HW226344   0.383   8.478   0.404 -2.5259  2.4014  0.2895
40630SOL     OW26345   1.854   0.992   5.602  0.5367  0.0919 -0.3756
40630SOL    HW126346   1.932   1.011   5.654  0.2387 -0.1934  0.1786
40630SOL    HW226347   1.881   1.009   5.512  1.2617 -0.0594 -0.1958
40631SOL     OW26348   0.082   5.430   6.902 -0.6787  0.2018  0.3951
40631SOL    HW126349   0.119   5.518   6.891 -1.2834  0.4686  0.4506
40631SOL    HW226350  -0.012   5.444   6.903 -0.7642 -0.3753  1.0866
40632SOL     OW26351   5.635   2.810   3.364 -0.4463 -0.0282 -0.2750
40632SOL    HW126352   5.554   2.820   3.414  0.1471 -0.9426  0.9081
40632SOL    HW226353   5.690   2.884   3.391  0.6149 -1.5201  1.9687
40633SOL     OW26354   7.244   4.126   5.235 -0.1746  0.1163  0.3530
40633SOL    HW126355   7.184   4.093   5.302 -0.2005 -1.0909 -0.2368
40633SOL    HW226356   7.197   4.200   5.196 -0.3753  0.5014  1.3053
40634SOL     OW26357   2.524   9.204   1.650 -0.2198  0.3450  0.3653
40634SOL    HW126358   2.477   9.120   1.652  1.2051 -0.5008  0.1178
40634SOL    HW226359   2.456   9.269   1.635 -1.2591 -0.8659 -0.4549
40635SOL     OW26360  10.353   4.255   1.989 -0.3463  0.1594 -0.4796
40635SOL    HW126361  10.277   4.246   2.046  0.6314 -1.2540  0.6868
40635SOL    HW226362  10.361   4.169   1.947  0.9105  0.0746 -0.1187
40636SOL     OW26363   0.408   3.257   5.891  0.0069 -0.4016  0.5813
40636SOL    HW126364   0.466   3.279   5.964  0.2943  0.2670  0.1662
40636SOL    HW226365   0.361   3.179   5.920 -0.5445  0.3653  1.8584
40637SOL     OW26366   0.968   2.974  10.333 -0.1143 -0.5588  0.2226
40637SOL    HW126367   1.018   2.904  10.375  0.5524  0.4180  1.1459
40637SOL    HW226368   0.991   3.052  10.384 -1.1326  0.2552 -0.5313
40638SOL     OW26369   6.783   3.736   4.674 -0.0549 -0.2498 -0.1876
40638SOL    HW126370   6.866   3.772   4.703 -0.6923 -0.8445  2.7600
40638SOL    HW226371   6.760   3.671   4.741 -1.8124 -1.7705 -2.0967
40639SOL     OW26372   2.456   5.088   9.402  0.0866 -0.3191  0.7732
40639SOL    HW126373   2.450   5.181   9.382  3.2974 -0.0353  0.6439
40639SOL    HW226374   2.449   5.044   9.318  1.0322  0.0098  0.5107
40640SOL     OW26375   5.488   0.312   0.408  0.0664 -0.6970 -0.2090
40640SOL    HW126376   5.492   0.389   0.351 -0.0548  0.5544  1.4137
40640SOL    HW226377   5.565   0.320   0.464 -0.2383 -1.4782  0.3260
40641SOL     OW26378   9.569   7.307   2.700 -0.4552 -0.3212  0.6206
40641SOL    HW126379   9.548   7.225   2.655 -0.5832 -0.2868  0.6171
40641SOL    HW226380   9.646   7.341   2.654 -1.0365  0.1026 -0.0657
40642SOL     OW26381   1.385   7.387   2.168 -0.2999  0.4036 -0.2596
40642SOL    HW126382   1.325   7.454   2.136 -0.3663 -0.4732 -2.0395
40642SOL    HW226383   1.415   7.341   2.090  2.1785  0.3608  0.6238
40643SOL     OW26384   4.550   1.790   3.927  0.3915  0.2369  0.0417
40643SOL    HW126385   4.515   1.879   3.915  1.8967  0.8301 -0.1241
40643SOL    HW226386   4.472   1.735   3.938 -0.5679  1.8424  2.0239
40644SOL     OW26387   5.924   7.938  10.594 -0.2715  0.0955 -0.5692
40644SOL    HW126388   5.999   7.985  10.558 -0.1942  1.3780  1.1298
40644SOL    HW226389   5.909   7.866  10.533  1.3477  0.7243 -1.7810
40645SOL     OW26390   3.113   1.783   6.223  0.7439 -0.3580 -0.8207
40645SOL    HW126391   3.043   1.720   6.237 -1.0836  2.0413  1.6125
40645SOL    HW226392   3.094   1.821   6.137 -1.0933  0.3483 -0.1472
40646SOL     OW26393   6.241   9.054   0.999  0.1950  0.7677  0.1552
40646SOL    HW126394   6.176   9.116   1.033 -0.9083  0.6474 -1.6092
40646SOL    HW226395   6.319   9.107   0.982  0.7193  0.8691  2.5398
40647SOL     OW26396   4.201   2.858   1.586  0.0838  0.5715 -0.7060
40647SOL    HW126397   4.170   2.917   1.655  1.1950  1.2566 -0.7602
40647SOL    HW226398   4.284   2.824   1.619  0.5496  0.7750 -1.6284
40648SOL     OW26399   1.880   1.157   9.758  0.1790  0.7994 -0.0728
40648SOL    HW126400   1.907   1.076   9.716 -0.1658 -0.0858  1.3586
40648SOL    HW226401   1.939   1.168   9.832 -0.4155  1.3122  0.3446
40649SOL     OW26402   3.197   1.409   0.600 -0.3077 -0.2345 -0.2442
40649SOL    HW126403   3.119   1.428   0.547 -0.6909  1.0984  0.7463
40649SOL    HW226404   3.163   1.395   0.688  0.4553 -1.0603 -0.0728
40650SOL     OW26405   9.049   7.074   1.420  0.6563  0.3036  0.6197
40650SOL    HW126406   9.031   7.010   1.351  0.4670  1.0400 -0.0252
40650SOL    HW226407   9.138   7.053   1.450 -0.0888 -1.4528  1.7449
40651SOL     OW26408   3.012   3.525   7.351  0.0315  0.0427  0.5498
40651SOL    HW126409   3.077   3.557   7.289  0.0945  0.4625  0.8265
40651SOL    HW226410   3.063   3.502   7.429  0.0291 -1.0423  0.2462
40652SOL     OW26411   2.965   2.733   3.860  0.5095 -0.0222 -0.0192
40652SOL    HW126412   2.938   2.656   3.809 -1.6179  0.3876  0.4112
40652SOL    HW226413   2.959   2.705   3.951  2.9306 -0.3052  0.1230
40653SOL     OW26414   6.493   1.823   3.923 -0.6167 -0.1256 -0.3737
40653SOL    HW126415   6.550   1.791   3.853  2.5470  2.9229  0.5766
40653SOL    HW226416   6.491   1.752   3.987  1.1446 -0.7681 -0.9868
40654SOL     OW26417   8.164   1.524   0.326  0.7868  0.1660  0.1047
40654SOL    HW126418   8.158   1.521   0.231 -1.6319  0.6091  0.1795
40654SOL    HW226419   8.084   1.483   0.357  0.9718  1.0677  1.9456
40655SOL     OW26420   7.878   6.288   6.802 -0.1495 -0.2221  0.9764
40655SOL    HW126421   7.853   6.201   6.835  1.7020 -1.7832 -1.3093
40655SOL    HW226422   7.865   6.281   6.707  1.7366  1.3534  0.5428
40656SOL     OW26423   9.625   9.767   3.213  0.2699 -0.2467 -0.1954
40656SOL    HW126424   9.594   9.699   3.154 -1.3038  0.0945  0.1919
40656SOL    HW226425   9.702   9.728   3.255  1.7700 -0.3010 -2.7757
40657SOL     OW26426   4.949   7.714   0.068  0.9052 -0.1144  0.1834
40657SOL    HW126427   4.947   7.734   0.161 -1.8070  1.3571 -0.0760
40657SOL    HW226428   4.970   7.798   0.026 -2.4136  0.4984 -0.5942
40658SOL     OW26429   2.822   1.831  10.813  0.1727  0.4257  0.5511
40658SOL    HW126430   2.753   1.890  10.783 -0.5969 -0.6462  0.1390
40658SOL    HW226431   2.897   1.853  10.757 -0.0594  1.0800  0.4794
40659SOL     OW26432   0.889   7.617   1.412 -0.6494 -0.3432 -0.3196
40659SOL    HW126433   0.885   7.560   1.489  1.8483 -1.4416 -0.8928
40659SOL    HW226434   0.857   7.562   1.341 -0.8008 -0.1120 -0.4292
40660SOL     OW26435   7.491   1.290   0.021 -0.1703  0.2480  0.6228
40660SOL    HW126436   7.435   1.312  -0.053 -1.0797 -0.2440  1.1483
40660SOL    HW226437   7.448   1.217   0.064  1.4774 -0.9135  0.3949
40661SOL     OW26438   9.416   7.305   4.218 -0.2844 -0.6046  0.3961
40661SOL    HW126439   9.487   7.330   4.277 -1.6336  1.4166  1.2771
40661SOL    HW226440   9.336   7.312   4.271 -1.6212  1.7696 -1.6914
40662SOL     OW26441   9.174   7.558   4.844 -0.4608 -0.2992 -0.0491
40662SOL    HW126442   9.161   7.587   4.934 -2.0848 -0.5807 -0.1555
40662SOL    HW226443   9.226   7.627   4.803 -0.0996  0.0516  0.9789
40663SOL     OW26444   6.760   5.406   4.879  0.5236  0.3066 -0.2885
40663SOL    HW126445   6.820   5.381   4.809 -0.4807  0.2942 -1.1683
40663SOL    HW226446   6.789   5.493   4.906  1.7248 -0.2268  0.1952
40664SOL     OW26447   1.135   1.979   2.811  0.1339 -0.6049 -0.0121
40664SOL    HW126448   1.156   2.059   2.763  1.9734 -1.1078 -0.1113
40664SOL    HW226449   1.052   1.998   2.854  0.8903  1.6447  0.5768
40665SOL     OW26450   2.039   3.714   0.256 -0.1500 -0.4915  0.1079
40665SOL    HW126451   2.050   3.776   0.328  0.1126 -1.3683  0.8541
40665SOL    HW226452   2.083   3.755   0.182  0.1056  0.1686  0.6158
40666SOL     OW26453   9.210   9.789   1.274 -0.1579  0.0493  0.4917
40666SOL    HW126454   9.294   9.775   1.319 -0.0246  0.9861  0.5650
40666SOL    HW226455   9.234   9.803   1.183 -0.3835 -1.2925  0.2028
40667SOL     OW26456   0.398   3.929   4.193  0.2419  0.1648  0.1078
40667SOL    HW126457   0.460   3.958   4.260 -1.1236 -0.9864  1.9684
40667SOL    HW226458   0.322   3.987   4.206 -0.0993 -0.1813 -0.3417
40668SOL     OW26459   3.201   1.539   7.983  0.0953 -0.7861  0.4186
40668SOL    HW126460   3.281   1.590   7.970 -1.4299  2.2232  1.7954
40668SOL    HW226461   3.201   1.517   8.076 -0.3703 -1.3407  0.2934
40669SOL     OW26462  11.050   2.920   2.865 -0.0758  0.3132  0.0908
40669SOL    HW126463  11.048   2.856   2.794 -0.6917  1.3722 -0.8787
40669SOL    HW226464  11.102   2.878   2.934 -0.3180 -1.1463 -0.5773
40670SOL     OW26465   2.958   2.744  10.332  0.9060  0.3138  0.0597
40670SOL    HW126466   2.881   2.752  10.276 -0.4370 -1.1210  1.5677
40670SOL    HW226467   2.945   2.811  10.399  1.2307  0.4167  0.0181
40671SOL     OW26468  10.905   1.827   3.107  0.0275 -0.2414 -0.1036
40671SOL    HW126469  10.836   1.870   3.157  1.6505  1.5987  0.6702
40671SOL    HW226470  10.903   1.871   3.022  1.0688  0.7815  0.3711
40672SOL     OW26471   5.723   9.988   5.656  0.0854 -0.3569 -0.2071
40672SOL    HW126472   5.753   9.959   5.569 -0.2145 -0.1817 -0.3708
40672SOL    HW226473   5.679   9.911   5.692  1.0831 -0.7519  0.2076
40673SOL     OW26474   1.927   3.499   0.690 -0.0693  0.1616 -0.2774
40673SOL    HW126475   1.836   3.478   0.668  0.2321 -2.3456  0.4764
40673SOL    HW226476   1.923   3.529   0.781 -0.1521  0.2075 -0.2955
40674SOL     OW26477   3.211   8.704   8.316 -0.3120 -0.1815  0.1071
40674SOL    HW126478   3.305   8.713   8.333 -0.1523 -0.1653 -0.7499
40674SOL    HW226479   3.194   8.761   8.241 -0.9305 -0.4883  0.0043
40675SOL     OW26480   7.564  11.065   0.392  0.2611 -0.0417 -0.4452
40675SOL    HW126481   7.604  11.081   0.306  1.4597 -1.0821 -0.1086
40675SOL    HW226482   7.591  10.976   0.415 -0.0281  0.2295  1.0329
40676SOL     OW26483   3.264   7.867  10.693  0.4186 -0.3153 -0.0949
40676SOL    HW126484   3.183   7.887  10.740  0.2591 -1.5173  0.1847
40676SOL    HW226485   3.235   7.827  10.611  0.7117 -0.8046  0.0313
40677SOL     OW26486   0.448   6.635   2.765  0.1644  0.0850  0.6593
40677SOL    HW126487   0.446   6.717   2.717  1.8615  1.3744  2.5919
40677SOL    HW226488   0.358   6.621   2.793 -0.6316 -0.1054 -1.7664
40678SOL     OW26489   9.145   6.182   6.278  0.0731  0.4028  0.3604
40678SOL    HW126490   9.146   6.100   6.328 -1.6298 -0.3271 -0.7329
40678SOL    HW226491   9.140   6.154   6.187  0.3045  1.7377 -0.0719
40679SOL     OW26492   1.183   8.522   3.251 -0.0470 -0.1780  0.1062
40679SOL    HW126493   1.151   8.455   3.191 -0.1141 -0.6364  0.6491
40679SOL    HW226494   1.238   8.579   3.196  0.6135 -1.0917 -0.2059
40680SOL     OW26495   6.849   4.091   2.013  0.2518  0.1307 -0.3765
40680SOL    HW126496   6.790   4.018   2.033  1.5525 -0.6663  0.6748
40680SOL    HW226497   6.905   4.098   2.090  2.6262 -0.2200 -1.9838
40681SOL     OW26498   3.946   8.106   8.158 -0.4515 -0.3497  0.0769
40681SOL    HW126499   3.989   8.020   8.160 -1.1643 -0.7416 -0.5844
40681SOL    HW226500   3.960   8.142   8.245 -1.4671 -1.8196  0.9001
40682SOL     OW26501   4.155   8.420   3.265  0.0182 -0.6098 -0.5962
40682SOL    HW126502   4.203   8.497   3.237  0.2437  0.1275  1.5793
40682SOL    HW226503   4.072   8.425   3.218  0.5247  0.2842 -1.4199
40683SOL     OW26504   9.993   8.868   9.071 -0.4080  0.3463  0.1126
40683SOL    HW126505   9.926   8.837   9.133 -0.4304  1.9799  0.9564
40683SOL    HW226506   9.989   8.805   8.999  0.4756 -2.3887  2.2764
40684SOL     OW26507   6.468   3.358   2.684 -0.5101  0.4217 -0.8337
40684SOL    HW126508   6.385   3.341   2.728  0.2972  0.1263  0.6324
40684SOL    HW226509   6.522   3.282   2.707  0.7366  1.4429 -0.2950
40685SOL     OW26510   8.346   9.444   5.432 -0.3200 -0.5422 -0.0232
40685SOL    HW126511   8.351   9.367   5.375  2.0140 -0.8331  0.5026
40685SOL    HW226512   8.369   9.411   5.519 -1.6733  0.3330  0.7123
40686SOL     OW26513   4.221   5.944   9.714  0.4318 -0.0177 -0.2860
40686SOL    HW126514   4.129   5.937   9.740  0.8980  0.0748  1.5348
40686SOL    HW226515   4.251   6.025   9.754  0.8561  0.9245 -2.4259
40687SOL     OW26516   6.143   9.197   3.813 -0.3908 -0.2688 -0.5419
40687SOL    HW126517   6.130   9.256   3.739  0.9554  0.6028 -0.1216
40687SOL    HW226518   6.237   9.177   3.811 -0.9124 -3.1662 -1.2252
40688SOL     OW26519   6.239   8.075   3.404  0.0049  0.0755 -0.4695
40688SOL    HW126520   6.316   8.125   3.376  0.3431  0.5084  1.1303
40688SOL    HW226521   6.173   8.094   3.338  0.2928  2.2394 -0.2124
40689SOL     OW26522   7.587   2.155   8.573  0.2957 -0.1194  0.5470
40689SOL    HW126523   7.528   2.199   8.512  4.3676  1.1913 -2.9000
40689SOL    HW226524   7.607   2.221   8.639 -0.9249 -0.1720  1.0111
40690SOL     OW26525   7.072   4.004   9.332 -0.1706 -0.2321  0.0101
40690SOL    HW126526   7.115   4.057   9.266 -1.9088 -1.0828 -1.9169
40690SOL    HW226527   7.135   3.998   9.404  1.8927  0.5145 -1.6578
40691SOL     OW26528   2.398   2.191   7.450  0.1661 -0.6761 -0.5363
40691SOL    HW126529   2.376   2.269   7.399 -1.6277 -0.4312  0.5341
40691SOL    HW226530   2.334   2.125   7.423  0.0420 -0.9648  0.4276
40692SOL     OW26531   3.650   2.294   2.878  0.2033  0.0110 -0.1126
40692SOL    HW126532   3.668   2.206   2.911  0.5849  0.2202  0.2389
40692SOL    HW226533   3.579   2.326   2.933  1.2423  0.5928  0.9329
40693SOL     OW26534   2.195   0.835   1.879  0.6221  0.6607  0.2567
40693SOL    HW126535   2.148   0.908   1.919 -1.7281 -1.8777  2.5564
40693SOL    HW226536   2.159   0.828   1.791 -1.4833  0.4564  1.0764
40694SOL     OW26537   8.463   5.195  10.550  0.0294 -0.0772 -0.4207
40694SOL    HW126538   8.446   5.197  10.644 -2.9525 -1.1834 -0.8170
40694SOL    HW226539   8.505   5.279  10.531  0.1870  0.4002  1.7896
40695SOL     OW26540   1.826   0.509   6.968  0.6180 -0.1136  0.3646
40695SOL    HW126541   1.814   0.557   6.886 -0.7828  2.1901  1.7890
40695SOL    HW226542   1.739   0.475   6.988  0.7182  0.1983  1.3721
40696SOL     OW26543   9.290   6.963   1.495  0.0286  0.0651 -0.8728
40696SOL    HW126544   9.335   6.879   1.495 -0.1646 -0.1202  1.4152
40696SOL    HW226545   9.356   7.026   1.524 -0.4780  0.2207 -0.0035
40697SOL     OW26546   4.801   8.536   0.503  0.5829  0.0148  0.5348
40697SOL    HW126547   4.842   8.574   0.425  3.0279 -2.0356  0.6870
40697SOL    HW226548   4.852   8.571   0.576 -0.1344  0.0469  1.0258
40698SOL     OW26549   1.382   9.173   3.382 -0.2530  0.1505  0.8792
40698SOL    HW126550   1.361   9.104   3.318 -0.4607  0.5210  0.5384
40698SOL    HW226551   1.471   9.200   3.360 -0.8736  1.3620 -0.2853
40699SOL     OW26552   8.324   5.677   8.450 -0.2923  0.3175  0.3551
40699SOL    HW126553   8.394   5.697   8.388  0.3628 -2.7360 -0.0673
40699SOL    HW226554   8.243   5.692   8.401  0.0211  2.6788  0.4474
40700SOL     OW26555   2.724   0.212   3.955  0.2947  0.0600 -0.1681
40700SOL    HW126556   2.710   0.166   4.037 -1.8524 -0.9846 -1.0405
40700SOL    HW226557   2.819   0.225   3.950  0.5172 -0.2316  2.2263
40701SOL     OW26558  10.074   5.664   7.593  0.4736  0.3115  0.1090
40701SOL    HW126559  10.120   5.710   7.664 -0.0163  1.7485 -0.4765
40701SOL    HW226560  10.144   5.629   7.538  0.9401  2.5963 -0.8508
40702SOL     OW26561   6.775   9.737   2.751  0.7163  0.1715  0.7660
40702SOL    HW126562   6.772   9.702   2.840 -1.0086 -3.4128 -0.5023
40702SOL    HW226563   6.817   9.668   2.699 -2.4740 -0.0478 -1.8972
40703SOL     OW26564   6.927   2.869   2.223 -0.1211  0.3110 -0.1239
40703SOL    HW126565   6.888   2.873   2.311  0.9065 -0.6736  0.4131
40703SOL    HW226566   6.862   2.823   2.170 -1.1223  1.6610 -0.1248
40704SOL     OW26567   7.106  10.019   2.756 -0.1220 -1.0510 -1.0072
40704SOL    HW126568   7.108  10.095   2.698  0.9888  0.7382  1.2174
40704SOL    HW226569   7.013  10.005   2.774 -0.3728 -0.6104 -1.8963
40705SOL     OW26570  10.716   9.407   0.829 -0.0003 -0.2421  0.7220
40705SOL    HW126571  10.644   9.435   0.772 -1.5299 -1.0576  2.1670
40705SOL    HW226572  10.775   9.359   0.771 -0.5181  0.5564 -0.5276
40706SOL     OW26573   8.762  10.833   8.848  0.4838  0.2555  0.1166
40706SOL    HW126574   8.706  10.908   8.866 -0.6044 -0.9352  2.1350
40706SOL    HW226575   8.822  10.863   8.780  1.2850  3.5097  2.0523
40707SOL     OW26576   0.838   1.004   6.869 -0.2597  0.1590 -0.3561
40707SOL    HW126577   0.767   0.964   6.820 -1.3258  0.5984  0.7693
40707SOL    HW226578   0.811   0.997   6.960  0.6657  1.2313  0.0269
40708SOL     OW26579  10.731   9.072   8.310  0.3252  0.2135  0.2797
40708SOL    HW126580  10.818   9.068   8.271  0.3077 -2.0540  0.3592
40708SOL    HW226581  10.673   9.090   8.236  0.7240  0.3925  0.0037
40709SOL     OW26582   7.802   6.485   6.943 -0.1169  0.0655  0.2220
40709SOL    HW126583   7.830   6.414   6.886  1.2680  1.3595 -0.7826
40709SOL    HW226584   7.716   6.512   6.910 -0.6683 -1.1210  0.6380
40710SOL     OW26585   8.333   3.031   2.278  0.1389 -0.1754  0.1975
40710SOL    HW126586   8.407   3.070   2.230 -0.5236 -1.5477 -2.1212
40710SOL    HW226587   8.260   3.037   2.217 -1.1860 -0.6496  1.6783
40711SOL     OW26588   7.648   9.221   1.721  0.6635 -0.3875  0.1968
40711SOL    HW126589   7.681   9.303   1.759 -1.5655  0.5401  0.2649
40711SOL    HW226590   7.575   9.248   1.665  0.5041 -2.2585 -0.5567
40712SOL     OW26591   9.431   1.802   5.219 -0.5068 -0.4553  0.1047
40712SOL    HW126592   9.401   1.833   5.304 -0.4213 -1.0216  0.3422
40712SOL    HW226593   9.388   1.717   5.208 -0.6399 -0.3193 -0.4855
40713SOL     OW26594   2.484   2.980   3.214  0.0178  0.1708  0.3988
40713SOL    HW126595   2.537   2.954   3.289 -0.6614 -1.1937  0.4307
40713SOL    HW226596   2.519   2.930   3.141 -1.3876 -1.0107  0.4856
40714SOL     OW26597  10.799   7.098   7.434 -0.2149  0.2540 -0.2806
40714SOL    HW126598  10.836   7.031   7.376  0.3770  0.0779  0.2809
40714SOL    HW226599  10.875   7.140   7.474 -0.6100  0.1206  0.6385
40715SOL     OW26600   2.105   7.125  10.271  0.5818  0.9241  0.1742
40715SOL    HW126601   2.164   7.052  10.290  2.0512  1.9698 -0.2525
40715SOL    HW226602   2.051   7.132  10.349  1.1968  0.1216  0.6949
40716SOL     OW26603   1.600   3.080   6.981  0.6079  0.1348  0.5990
40716SOL    HW126604   1.663   3.116   6.918 -0.4264  2.6929  0.9212
40716SOL    HW226605   1.521   3.066   6.930  0.3793  0.2704  0.9168
40717SOL     OW26606   3.606   7.691  10.996 -0.0393 -0.6371  0.8118
40717SOL    HW126607   3.632   7.783  10.994  1.1405 -0.9489 -1.4640
40717SOL    HW226608   3.676   7.647  11.046 -0.0847 -0.4462  1.0442
40718SOL     OW26609   3.981   2.410   7.394  0.3668  0.1415 -0.3306
40718SOL    HW126610   3.947   2.323   7.410 -1.4255  1.0709  1.4112
40718SOL    HW226611   4.076   2.400   7.400  0.1679 -1.5530  0.6395
40719SOL     OW26612   5.818   6.974   4.944  0.3369  0.1994 -0.2698
40719SOL    HW126613   5.842   7.046   4.886  0.0519  0.2159 -0.3688
40719SOL    HW226614   5.804   6.900   4.885 -2.6554  0.8821 -0.5360
40720SOL     OW26615   3.177   4.882   4.381  0.2718  0.8422  0.3255
40720SOL    HW126616   3.114   4.899   4.311 -0.0218  1.2127  0.6772
40720SOL    HW226617   3.244   4.828   4.339 -0.6043 -0.1194  0.1112
40721SOL     OW26618   9.487   6.535   5.742  0.1813 -0.2568 -0.6971
40721SOL    HW126619   9.401   6.572   5.724  0.8293  0.5874 -2.2353
40721SOL    HW226620   9.545   6.611   5.746  0.8197 -0.7916  0.6159
40722SOL     OW26621   8.046   0.875   2.418 -0.6253  0.2872 -0.4241
40722SOL    HW126622   8.047   0.872   2.322 -1.2986 -0.4520 -0.4178
40722SOL    HW226623   8.022   0.965   2.438  0.9195  0.8523 -0.9178
40723SOL     OW26624   9.853   2.639   6.803  0.2714  0.3801  0.0067
40723SOL    HW126625   9.890   2.706   6.745 -0.2754  1.1149  0.4828
40723SOL    HW226626   9.759   2.657   6.803  0.2545  0.3151  1.0256
40724SOL     OW26627   3.205   5.868  10.747 -0.4190 -0.9404 -0.1031
40724SOL    HW126628   3.293   5.894  10.722 -0.6078 -2.7581 -3.1477
40724SOL    HW226629   3.153   5.948  10.741  0.3630 -0.5220 -2.0619
40725SOL     OW26630   8.780   4.865   5.158  0.8304 -0.0181  0.3560
40725SOL    HW126631   8.831   4.841   5.236  1.8088  1.5182  0.2434
40725SOL    HW226632   8.709   4.920   5.192  0.1158 -0.9142  0.3460
40726SOL     OW26633   8.844   8.698   5.976 -0.1007 -0.4030 -0.3269
40726SOL    HW126634   8.812   8.764   5.915  0.2281 -0.3118 -0.4029
40726SOL    HW226635   8.821   8.614   5.937  1.5405 -0.3943 -1.3870
40727SOL     OW26636   6.490   5.442   5.418 -0.0652 -0.2947  0.1554
40727SOL    HW126637   6.565   5.420   5.362 -1.0064 -0.8593 -0.9117
40727SOL    HW226638   6.423   5.472   5.357 -1.1130 -0.8902  0.9916
40728SOL     OW26639   4.209   9.390   1.701 -0.5833 -0.0409  0.2116
40728SOL    HW126640   4.225   9.484   1.697  1.6485 -0.2727  1.8634
40728SOL    HW226641   4.261   9.359   1.776 -0.1559 -2.7840 -1.0705
40729SOL     OW26642   4.104   5.219   4.477  0.0267 -0.3048  1.0002
40729SOL    HW126643   4.187   5.257   4.446  0.5890 -0.5097  2.1776
40729SOL    HW226644   4.047   5.295   4.490 -0.0170 -0.1728  0.0497
40730SOL     OW26645   5.280   7.205   7.498 -0.1576 -0.0747 -0.3179
40730SOL    HW126646   5.207   7.154   7.462  0.3867 -0.6065 -0.7074
40730SOL    HW226647   5.257   7.219   7.590 -1.9465  1.9555 -0.9969
40731SOL     OW26648   9.608   2.593   5.750 -0.5654  0.2019 -0.1212
40731SOL    HW126649   9.553   2.632   5.818 -1.0384 -0.4847 -0.1030
40731SOL    HW226650   9.638   2.668   5.698 -1.5497  0.5833 -0.1655
40732SOL     OW26651   4.121   9.337   6.275 -0.6240 -0.2538 -0.0411
40732SOL    HW126652   4.097   9.396   6.347 -0.2336  0.9601 -0.8665
40732SOL    HW226653   4.039   9.319   6.230 -0.5256  1.2383 -0.9056
40733SOL     OW26654   1.461   7.129   8.402 -0.1004 -0.2058  0.4283
40733SOL    HW126655   1.482   7.172   8.485 -0.9527 -0.3224  0.7114
40733SOL    HW226656   1.378   7.169   8.374  0.3103  0.0223 -0.5037
40734SOL     OW26657   9.088   2.255   8.071 -0.0796  0.5568  0.0810
40734SOL    HW126658   9.026   2.294   8.011  0.4992  0.2835 -0.7062
40734SOL    HW226659   9.035   2.225   8.145 -1.1826 -1.4587 -1.4379
40735SOL     OW26660   7.021   2.548   2.433  0.2001 -0.0748  0.4365
40735SOL    HW126661   6.946   2.600   2.463  0.6826 -0.1358  1.7902
40735SOL    HW226662   7.007   2.540   2.338 -2.2532 -1.2696  0.8165
40736SOL     OW26663   6.475   1.570   7.403 -0.1713 -0.0646  0.6369
40736SOL    HW126664   6.567   1.569   7.376 -0.1510 -0.3433  0.7188
40736SOL    HW226665   6.477   1.564   7.498 -0.2996 -1.0044  0.5852
40737SOL     OW26666   8.331  10.111   2.155  0.8138  0.4926  0.3683
40737SOL    HW126667   8.308  10.191   2.203 -1.2147  0.5699 -0.6260
40737SOL    HW226668   8.357  10.142   2.068  1.3620  0.1559  0.4108
40738SOL     OW26669   6.875  10.018  10.555  0.4780 -0.0259  0.0507
40738SOL    HW126670   6.931  10.009  10.479 -0.4688 -1.3432 -0.5263
40738SOL    HW226671   6.920   9.970  10.624  0.1161 -1.0284 -0.3927
40739SOL     OW26672   5.739   2.464   8.397 -0.5831 -0.0507 -0.4205
40739SOL    HW126673   5.800   2.397   8.368  0.7325  1.4753 -1.3417
40739SOL    HW226674   5.714   2.511   8.317 -1.7024  0.3841  0.1512
40740SOL     OW26675   3.830   6.406   4.484 -0.2897 -0.1677  0.0873
40740SOL    HW126676   3.736   6.407   4.466  0.0241 -2.6938 -2.3735
40740SOL    HW226677   3.845   6.321   4.526  1.1533 -1.1203 -2.1304
40741SOL     OW26678   2.255   9.792   3.853 -0.0184  1.0383 -0.2806
40741SOL    HW126679   2.322   9.724   3.863 -1.1766  0.0252  1.0506
40741SOL    HW226680   2.294   9.855   3.793  1.7723  0.0484 -0.2401
40742SOL     OW26681   7.586   6.798   3.939 -0.3161 -0.3913 -0.6229
40742SOL    HW126682   7.548   6.853   3.871 -3.4491 -0.2512  1.0396
40742SOL    HW226683   7.605   6.859   4.011 -0.0440 -0.9497 -0.2145
40743SOL     OW26684   9.882   2.497   9.908  0.3026  0.0809 -0.6753
40743SOL    HW126685   9.834   2.564   9.859 -1.7363 -0.3709  0.5663
40743SOL    HW226686   9.813   2.439   9.942  1.6393 -0.0544  2.0532
40744SOL     OW26687   6.008   3.297   9.864 -0.1940  0.4320  0.3704
40744SOL    HW126688   6.078   3.358   9.890 -1.2756  1.7366  0.3685
40744SOL    HW226689   5.928   3.346   9.880 -1.1111 -0.9459  0.1423
40745SOL     OW26690   1.177   4.215   8.145 -0.3144  0.0724  0.6065
40745SOL    HW126691   1.219   4.272   8.081  0.2236 -1.3345 -0.3444
40745SOL    HW226692   1.219   4.130   8.132 -0.0361 -0.2303  2.9617
40746SOL     OW26693   3.975   1.340   9.411 -0.8302  0.7252  0.0132
40746SOL    HW126694   3.988   1.251   9.442 -0.0966  0.7194 -0.2798
40746SOL    HW226695   3.990   1.395   9.488  0.6860  0.6941 -0.2236
40747SOL     OW26696   6.067   6.411   5.238 -0.0568 -0.1809 -0.5207
40747SOL    HW126697   6.108   6.325   5.238  2.7720  1.0609 -0.8613
40747SOL    HW226698   5.989   6.400   5.292 -0.3247 -3.1510 -1.3110
40748SOL     OW26699   4.768   4.785   0.803  0.0525  0.1455  0.6576
40748SOL    HW126700   4.737   4.875   0.794 -0.8240 -0.1239  0.8748
40748SOL    HW226701   4.718   4.750   0.877  0.6477 -0.4087  0.8057
40749SOL     OW26702   4.324   8.169   5.284  0.2167 -0.0204  0.2088
40749SOL    HW126703   4.410   8.147   5.248  1.1045  1.6152  1.1916
40749SOL    HW226704   4.338   8.254   5.326 -2.0991  0.6814 -0.3347
40750SOL     OW26705   0.125  10.413   5.987  0.0032  0.1116  0.0101
40750SOL    HW126706   0.137  10.505   6.010  0.8106 -0.0397  0.2040
40750SOL    HW226707   0.109  10.414   5.893 -2.1808  0.6268  0.3214
40751SOL     OW26708   2.463   9.557   6.538 -0.9490  0.1073  0.1476
40751SOL    HW126709   2.420   9.490   6.485  0.1019 -1.0941  0.7562
40751SOL    HW226710   2.547   9.572   6.495 -0.8689  0.4921  0.4286
40752SOL     OW26711   2.615   5.525   2.587  0.4449 -0.3213 -0.0865
40752SOL    HW126712   2.574   5.513   2.672 -1.9493 -0.7873 -1.2108
40752SOL    HW226713   2.706   5.499   2.600 -0.2979 -2.2917  1.8691
40753SOL     OW26714   7.381   6.939  10.309  0.1907 -0.0561  0.3897
40753SOL    HW126715   7.353   6.893  10.230  1.2870 -1.0196  0.5256
40753SOL    HW226716   7.332   7.021  10.309 -0.1430 -0.2382 -1.0531
40754SOL     OW26717   4.232   1.572  11.032 -0.1983  0.5858 -0.1355
40754SOL    HW126718   4.188   1.640  10.980  0.6053  1.0871 -0.1792
40754SOL    HW226719   4.285   1.524  10.968 -0.0310  0.5301  0.0448
40755SOL     OW26720  10.606   8.942   1.768 -0.2319  0.1201 -0.3247
40755SOL    HW126721  10.668   8.987   1.711 -1.7740 -0.2332 -2.3965
40755SOL    HW226722  10.538   9.007   1.785  0.6902  0.5687  2.0913
40756SOL     OW26723  10.367   4.865   1.194 -0.6603 -0.1166  0.7487
40756SOL    HW126724  10.369   4.800   1.124 -2.4802  0.6421 -0.0577
40756SOL    HW226725  10.376   4.815   1.275  1.9005 -0.9763  0.0116
40757SOL     OW26726   2.401   5.315   2.492 -0.0296  0.0342 -0.0036
40757SOL    HW126727   2.327   5.357   2.449  0.3750  0.3056 -0.4414
40757SOL    HW226728   2.459   5.386   2.516  0.7288 -0.2721 -0.8845
40758SOL     OW26729   0.640   0.593   6.896 -0.1158  0.3793  0.4318
40758SOL    HW126730   0.632   0.670   6.951  1.4482  0.7697  0.1467
40758SOL    HW226731   0.638   0.519   6.957 -1.4456  0.6115  0.7161
40759SOL     OW26732   1.377   8.051   9.532  0.4292  0.0275 -0.7899
40759SOL    HW126733   1.363   7.973   9.586  2.5344 -0.0323 -0.2456
40759SOL    HW226734   1.452   8.095   9.573  0.6116  1.2115 -2.3280
40760SOL     OW26735   6.499   2.118   2.797  0.0650 -0.0307 -0.0042
40760SOL    HW126736   6.554   2.071   2.735  2.1777  0.4247  1.4123
40760SOL    HW226737   6.416   2.071   2.797  0.1011 -0.2415 -2.8586
40761SOL     OW26738   9.139   1.828   6.153  0.0294  0.0027 -0.0380
40761SOL    HW126739   9.121   1.914   6.116  0.7416  1.6936  3.1645
40761SOL    HW226740   9.087   1.824   6.234  0.0899 -2.5614 -0.0228
40762SOL     OW26741   3.456   5.393   1.974  0.5374  0.1606 -0.2781
40762SOL    HW126742   3.462   5.413   1.881 -1.2315  0.8397 -0.2825
40762SOL    HW226743   3.472   5.299   1.979 -2.6984 -0.6273 -1.7574
40763SOL     OW26744   0.437   4.247   3.558 -0.5091  0.2019  0.0308
40763SOL    HW126745   0.530   4.269   3.563 -0.8067  1.8216 -0.8907
40763SOL    HW226746   0.436   4.151   3.554  1.1120  0.1511  0.0813
40764SOL     OW26747  10.815   6.696  10.289 -0.2342 -0.7699  0.1183
40764SOL    HW126748  10.860   6.781  10.292 -0.5450 -0.4493 -2.3351
40764SOL    HW226749  10.723   6.717  10.308 -0.6257 -0.2174 -2.0927
40765SOL     OW26750   6.151   9.754   1.085 -0.2744  0.2575  0.2251
40765SOL    HW126751   6.203   9.816   1.137 -0.3154 -0.8796  1.6710
40765SOL    HW226752   6.071   9.802   1.064  0.5021  1.3463 -0.3408
40766SOL     OW26753   9.530   0.126   6.859 -0.9759 -0.5335  0.4187
40766SOL    HW126754   9.436   0.124   6.844 -1.0465  0.2743  0.6898
40766SOL    HW226755   9.550   0.219   6.874 -0.0317 -0.5973 -0.3242
40767SOL     OW26756  10.036   5.609   4.897  0.0012 -0.2951  0.2315
40767SOL    HW126757   9.955   5.560   4.879 -0.3649  0.8300 -1.3339
40767SOL    HW226758  10.007   5.688   4.942 -0.1069  1.2214 -2.3127
40768SOL     OW26759   8.849   9.764  10.856 -0.0050 -0.3699  0.0563
40768SOL    HW126760   8.803   9.830  10.805  0.6769  1.0158  1.1472
40768SOL    HW226761   8.876   9.810  10.936  0.1820 -2.0708  1.0258
40769SOL     OW26762  10.204   4.143   2.579 -0.5288 -0.1076  0.3442
40769SOL    HW126763  10.208   4.239   2.585 -1.7824 -0.0693  0.6781
40769SOL    HW226764  10.111   4.122   2.587 -0.4661 -1.2486 -1.3706
40770SOL     OW26765   3.594   4.313  10.246 -0.1842  0.3470  0.0360
40770SOL    HW126766   3.535   4.308  10.321 -0.2167 -0.8600 -0.0464
40770SOL    HW226767   3.620   4.222  10.230 -0.4642  0.5337 -1.6477
40771SOL     OW26768   9.046   5.544   5.732  0.2016  0.1246 -0.5357
40771SOL    HW126769   9.000   5.615   5.687  1.1413  0.2223 -1.3764
40771SOL    HW226770   9.122   5.525   5.676 -0.7510 -2.4939 -1.1020
40772SOL     OW26771   4.059   9.676   6.747  0.4483 -0.5949  0.2219
40772SOL    HW126772   4.031   9.723   6.669  0.2289  0.5687  0.9803
40772SOL    HW226773   3.978   9.642   6.785  0.6517 -2.0591 -0.5920
40773SOL     OW26774   9.913   4.232   0.131  0.4894 -0.0063 -0.0810
40773SOL    HW126775   9.896   4.139   0.143 -0.0652  0.0161 -0.6987
40773SOL    HW226776   9.932   4.242   0.038  2.2967  0.2298  0.2716
40774SOL     OW26777   1.908   9.487   6.330 -0.2536 -0.5885  0.0372
40774SOL    HW126778   1.887   9.399   6.298 -0.4818 -0.7312  0.5796
40774SOL    HW226779   2.000   9.482   6.357 -0.9098 -1.3288  2.2961
40775SOL     OW26780   7.196   4.704   0.279  0.0230  0.2908 -0.3551
40775SOL    HW126781   7.135   4.737   0.213  0.3780  0.6244 -0.5154
40775SOL    HW226782   7.278   4.692   0.233  0.2411  0.4077 -0.0014
40776SOL     OW26783   0.778   9.201   7.412  0.3875 -0.4512 -0.1872
40776SOL    HW126784   0.795   9.144   7.336  1.1912  0.3024 -0.5892
40776SOL    HW226785   0.792   9.290   7.379  0.3752 -0.0881  0.7580
40777SOL     OW26786   4.422   1.733   5.106 -0.0845 -0.1148  0.1401
40777SOL    HW126787   4.399   1.818   5.067  1.1759  1.0595  1.7738
40777SOL    HW226788   4.452   1.680   5.032 -0.7029  0.9380 -0.9009
40778SOL     OW26789   3.584   8.495   2.554  0.4876 -0.0912  0.1605
40778SOL    HW126790   3.639   8.417   2.551  1.9856  0.9314 -0.0522
40778SOL    HW226791   3.636   8.559   2.602 -0.5345  0.9035 -0.0213
40779SOL     OW26792  10.852   0.842   6.997  0.4612 -0.5824 -0.2488
40779SOL    HW126793  10.933   0.870   6.954 -0.1015  0.6826 -0.5418
40779SOL    HW226794  10.801   0.923   7.006 -1.0583 -1.4592 -0.6839
40780SOL     OW26795   7.555   8.858  10.985  0.6081 -0.1465  0.0739
40780SOL    HW126796   7.490   8.876  11.052 -0.8127 -0.9446 -1.0308
40780SOL    HW226797   7.619   8.800  11.027  2.4400  3.0444  2.1158
40781SOL     OW26798  10.241   6.891   8.738 -0.1971  0.2433  0.3368
40781SOL    HW126799  10.291   6.812   8.759  0.2692  0.1838 -0.9218
40781SOL    HW226800  10.307   6.958   8.723 -0.5158  0.4133 -0.3608
40782SOL     OW26801   1.140  10.762   9.187 -0.1564  0.0227  0.2967
40782SOL    HW126802   1.235  10.758   9.176  0.0507  0.3967  1.7633
40782SOL    HW226803   1.107  10.693   9.129  0.8324  1.1909 -1.7974
40783SOL     OW26804   0.298   2.743   4.979 -0.0934 -0.5104 -0.2647
40783SOL    HW126805   0.377   2.785   5.012 -0.5106  0.4473 -0.4510
40783SOL    HW226806   0.247   2.723   5.058 -0.1287 -0.1719 -0.1996
40784SOL     OW26807   8.566   7.507   4.585 -0.0585 -0.4613  0.0720
40784SOL    HW126808   8.575   7.560   4.506  0.6293  2.9818  2.2550
40784SOL    HW226809   8.476   7.473   4.580 -1.3882  2.7285 -0.5695
40785SOL     OW26810   0.567   6.720   1.744 -0.6443 -0.0204 -0.0066
40785SOL    HW126811   0.564   6.635   1.786 -0.0090 -0.0125  0.0736
40785SOL    HW226812   0.513   6.711   1.666 -0.3211 -0.5940 -0.1669
40786SOL     OW26813   8.046   5.313   1.984 -0.4681 -0.4257  0.1681
40786SOL    HW126814   8.020   5.223   2.002  0.1242 -0.9359 -1.3888
40786SOL    HW226815   8.070   5.349   2.069 -0.1220 -1.9300  0.7266
40787SOL     OW26816   8.030   0.690   9.121  0.0278 -0.4418 -0.0358
40787SOL    HW126817   8.111   0.645   9.143 -0.5318 -0.6721  1.6617
40787SOL    HW226818   7.974   0.678   9.197 -1.0499  1.0101 -0.5540
40788SOL     OW26819  10.424   8.464   2.859 -0.0573 -0.2536 -0.0902
40788SOL    HW126820  10.418   8.479   2.764  3.0560 -0.0217 -0.3610
40788SOL    HW226821  10.437   8.369   2.867  2.3554  0.0027 -0.1995
40789SOL     OW26822   5.347   0.665   1.949  0.3563 -0.2799 -0.2754
40789SOL    HW126823   5.268   0.675   1.897 -0.1561  2.4272  0.8552
40789SOL    HW226824   5.391   0.749   1.943  1.9661 -0.9664  1.0112
40790SOL     OW26825   0.359   3.332   3.229  0.1225  0.2274 -0.4247
40790SOL    HW126826   0.378   3.401   3.165 -1.4684  0.4650 -0.6952
40790SOL    HW226827   0.271   3.303   3.207  0.3832 -1.2094  0.3253
40791SOL     OW26828   0.924   6.076   6.476  0.3740  0.3085 -0.5104
40791SOL    HW126829   0.999   6.017   6.484  1.3510  1.5273 -0.3444
40791SOL    HW226830   0.920   6.097   6.382  0.9866  1.1539 -0.3582
40792SOL     OW26831   1.851   1.566   8.294 -0.1621 -0.2692  0.6285
40792SOL    HW126832   1.915   1.580   8.364 -0.1512  3.1772  0.1390
40792SOL    HW226833   1.790   1.639   8.303 -1.9407 -1.4471 -1.1202
40793SOL     OW26834  10.718   3.409   0.625  0.1728 -0.1433 -0.7848
40793SOL    HW126835  10.675   3.340   0.575  0.2008  0.0434 -1.0732
40793SOL    HW226836  10.744   3.368   0.707 -2.1633  0.1898  0.1842
40794SOL     OW26837   1.499   7.574   2.962 -0.0944 -0.4414  0.3741
40794SOL    HW126838   1.593   7.591   2.955 -0.2199 -0.3819 -2.6224
40794SOL    HW226839   1.493   7.480   2.978  0.5618 -0.8955 -1.6351
40795SOL     OW26840   7.757   1.007   6.686  0.1065  0.4576 -0.1284
40795SOL    HW126841   7.727   0.933   6.740  1.0281 -1.4131 -2.0401
40795SOL    HW226842   7.677   1.043   6.648 -0.2257 -0.9559 -0.8324
40796SOL     OW26843   0.918   0.802   3.661  0.7537  0.1059 -0.3149
40796SOL    HW126844   0.965   0.759   3.589 -0.6611 -0.3070 -1.0381
40796SOL    HW226845   0.980   0.866   3.695  1.6525 -0.0552 -1.5669
40797SOL     OW26846  10.692   8.532   1.958 -0.4492  0.1739  0.1319
40797SOL    HW126847  10.664   8.577   1.878 -1.2245 -2.5747 -1.2401
40797SOL    HW226848  10.622   8.550   2.021 -0.4387  1.3652 -0.1718
40798SOL     OW26849   8.084   2.660   4.873  1.0477  0.0681  0.1532
40798SOL    HW126850   7.991   2.665   4.853  0.6385 -0.7992  1.6733
40798SOL    HW226851   8.119   2.600   4.807  0.3528 -0.3396  0.1449
40799SOL     OW26852   6.318   4.926  10.786  0.3056 -0.9626 -0.1384
40799SOL    HW126853   6.278   4.861  10.728  1.2371 -1.7729  0.0927
40799SOL    HW226854   6.406   4.893  10.801  0.6082  0.0731  0.4534
40800SOL     OW26855   6.083   6.821   3.234  0.7532  0.6819 -0.2600
40800SOL    HW126856   6.004   6.824   3.180 -0.5107 -2.1625  1.2087
40800SOL    HW226857   6.113   6.912   3.237 -3.4773  2.2868  0.4933
40801SOL     OW26858   3.539   6.493  10.128  0.1251 -0.6041  0.1903
40801SOL    HW126859   3.584   6.473  10.046  0.3759  1.3305 -0.1869
40801SOL    HW226860   3.600   6.465  10.196  0.3161 -1.3601 -0.2729
40802SOL     OW26861   0.830   5.510   4.680 -0.0276  0.1502  0.0339
40802SOL    HW126862   0.736   5.519   4.699 -0.6231 -1.9858 -1.4410
40802SOL    HW226863   0.844   5.565   4.603  0.5909  2.5302  1.7501
40803SOL     OW26864   8.275   4.871   3.438 -0.0860  0.6253 -0.4471
40803SOL    HW126865   8.248   4.829   3.520  0.4438  0.2530 -0.4587
40803SOL    HW226866   8.329   4.805   3.394  0.6866  1.2813 -0.5045
40804SOL     OW26867   0.751   1.302   9.072  0.0030  0.2030 -0.2548
40804SOL    HW126868   0.800   1.338   8.999 -0.3754  2.4251  0.5160
40804SOL    HW226869   0.771   1.360   9.146 -0.8783 -1.0252  1.0138
40805SOL     OW26870   3.806   7.827   3.679  0.2477  0.4292 -0.3922
40805SOL    HW126871   3.823   7.886   3.753 -1.7903  1.1928 -0.4513
40805SOL    HW226872   3.766   7.884   3.613  0.6932 -0.5355 -1.5169
40806SOL     OW26873   2.173   1.017   3.195  0.3366  0.4421 -0.4880
40806SOL    HW126874   2.240   0.952   3.174  1.1608  1.0020  0.3508
40806SOL    HW226875   2.222   1.098   3.209 -0.3147  0.4721  1.9346
40807SOL     OW26876   1.346   1.834   1.427  0.3332  0.3042 -0.1736
40807SOL    HW126877   1.380   1.897   1.492  3.8632 -0.5387 -0.9824
40807SOL    HW226878   1.408   1.840   1.354 -1.5427 -1.2810 -2.0039
40808SOL     OW26879   3.570   7.078   0.828  0.1828 -0.3786  0.4609
40808SOL    HW126880   3.526   7.094   0.912  0.5437  1.2589  0.3670
40808SOL    HW226881   3.582   7.165   0.790 -0.3884 -1.1219 -1.5305
40809SOL     OW26882   7.331   1.024   7.207  0.2865 -0.0034  0.0658
40809SOL    HW126883   7.371   1.062   7.285 -0.2353 -0.7291  0.7057
40809SOL    HW226884   7.287   1.098   7.165 -0.8502  0.1188  1.3817
40810SOL     OW26885   9.355   5.629   9.395  0.7506 -0.1152 -0.5233
40810SOL    HW126886   9.357   5.582   9.478  0.7624 -0.1711 -0.5552
40810SOL    HW226887   9.327   5.564   9.331  0.2577  0.0497 -0.4823
40811SOL     OW26888   3.821   7.090   5.133  0.4083 -0.3140 -0.0748
40811SOL    HW126889   3.780   7.112   5.049 -0.3205 -0.9311  0.1008
40811SOL    HW226890   3.768   7.135   5.198 -0.0640 -1.1806  0.1606
40812SOL     OW26891   5.236   8.576   4.552  0.0622 -0.2647  0.2504
40812SOL    HW126892   5.152   8.553   4.593 -1.1011  0.2337 -1.7031
40812SOL    HW226893   5.299   8.516   4.591 -1.5447 -1.9510  0.4067
40813SOL     OW26894   1.188   6.435   5.920 -0.1992  0.1636  0.4010
40813SOL    HW126895   1.142   6.351   5.916  0.1784  0.0095 -1.4952
40813SOL    HW226896   1.120   6.498   5.942 -1.2646 -0.1431 -1.7851
40814SOL     OW26897   4.419   4.819   7.428 -0.1517 -0.3592 -0.1308
40814SOL    HW126898   4.419   4.752   7.496  2.3780  0.3946  0.7333
40814SOL    HW226899   4.371   4.780   7.355  0.3192 -2.6870  0.7341
40815SOL     OW26900  10.239   4.003   4.725  0.0828 -0.0207 -0.1930
40815SOL    HW126901  10.258   4.083   4.677 -0.0996  0.8959  1.2148
40815SOL    HW226902  10.281   4.015   4.810 -0.1391 -1.3269  0.1214
40816SOL     OW26903   5.805   7.736   1.360 -0.5533 -0.3516  0.2942
40816SOL    HW126904   5.768   7.792   1.429 -0.1343  2.4423 -1.5738
40816SOL    HW226905   5.890   7.776   1.340 -0.5467 -1.2102 -1.6212
40817SOL     OW26906   0.037   9.900   0.461  0.2918  0.0867 -0.2435
40817SOL    HW126907   0.025   9.940   0.374 -0.4251  1.7431  0.5727
40817SOL    HW226908  -0.016   9.820   0.458  0.7738 -0.2094 -1.5289
40818SOL     OW26909   6.679   5.991   3.902 -0.6688  0.5145 -0.2735
40818SOL    HW126910   6.763   6.015   3.862 -0.8132  1.5696  0.0131
40818SOL    HW226911   6.668   6.055   3.972 -0.4147 -1.2813  1.5026
40819SOL     OW26912   6.025  11.075  10.259 -0.5569 -0.0044 -0.2248
40819SOL    HW126913   6.004  11.097  10.168 -0.4526  0.8906 -0.0483
40819SOL    HW226914   6.098  11.132  10.281  0.4136 -1.2897 -0.0311
40820SOL     OW26915   5.546   1.941   2.142  0.1836  0.3467 -0.2678
40820SOL    HW126916   5.617   1.960   2.082  0.8228  0.6462  0.5678
40820SOL    HW226917   5.514   2.027   2.171 -1.2626  0.2550 -1.4656
40821SOL     OW26918   9.853   8.514  10.459  0.2231  0.4880  0.0385
40821SOL    HW126919   9.768   8.554  10.442 -0.2123 -0.0515  0.8774
40821SOL    HW226920   9.862   8.445  10.392 -0.2154  0.2259  0.2495
40822SOL     OW26921   9.610   2.063   8.359 -0.1250  0.0266 -0.1361
40822SOL    HW126922   9.541   2.068   8.294  2.6108 -0.0769 -3.3289
40822SOL    HW226923   9.626   1.970   8.371  0.3175  0.0527 -0.4748
40823SOL     OW26924   9.158   2.621   7.163  0.0132 -0.4100 -0.2776
40823SOL    HW126925   9.133   2.597   7.074 -0.2415 -0.4293 -0.2017
40823SOL    HW226926   9.192   2.710   7.156 -1.2705  0.1085 -0.1855
40824SOL     OW26927   1.399   5.913   9.830  0.1080  0.3137  0.1782
40824SOL    HW126928   1.395   5.893   9.924  2.7504 -1.7301 -0.0201
40824SOL    HW226929   1.448   5.995   9.825 -1.2143  1.1615  0.5824
40825SOL     OW26930  10.497   8.675  10.156  0.0776 -0.7141  0.3797
40825SOL    HW126931  10.510   8.729  10.234  0.1441  1.3593 -0.9621
40825SOL    HW226932  10.437   8.726  10.102 -0.7294 -2.5443 -0.5418
40826SOL     OW26933   3.774   9.231   4.427 -0.4759 -0.0155  0.2416
40826SOL    HW126934   3.835   9.304   4.412 -0.1844 -0.1848  0.5886
40826SOL    HW226935   3.745   9.243   4.517  1.0946 -1.4424  0.9826
40827SOL     OW26936   0.419   1.834   4.822  0.6820  0.2700 -0.3191
40827SOL    HW126937   0.381   1.909   4.868  0.0099 -1.2706  1.8041
40827SOL    HW226938   0.350   1.805   4.763  1.1991  1.6950 -1.6823
40828SOL     OW26939   7.739   5.879   4.704  0.4594  0.6106  0.1203
40828SOL    HW126940   7.666   5.932   4.673 -0.6358 -0.9086 -0.0255
40828SOL    HW226941   7.813   5.939   4.708  0.0934  1.4270 -3.1295
40829SOL     OW26942   8.754   0.264   7.130 -0.1428 -0.0034  0.0407
40829SOL    HW126943   8.833   0.213   7.112 -1.6829 -3.3747  1.9152
40829SOL    HW226944   8.753   0.275   7.225 -1.0738  1.6182 -0.1119
40830SOL     OW26945   6.426   6.097   4.097 -0.0185 -0.0027 -0.5401
40830SOL    HW126946   6.407   6.186   4.068  0.1966  0.6048  1.0781
40830SOL    HW226947   6.512   6.103   4.139  1.4252 -1.6144 -3.0345
40831SOL     OW26948   9.025   6.078   8.914  0.7391 -0.5643  0.3999
40831SOL    HW126949   9.035   6.001   8.970  0.6044  1.0507  2.8139
40831SOL    HW226950   8.934   6.073   8.884  0.5306 -1.0400  1.0665
40832SOL     OW26951   6.568   1.560   8.125 -0.5286  0.3935 -0.1770
40832SOL    HW126952   6.546   1.474   8.087  1.9787  0.0410 -1.0288
40832SOL    HW226953   6.485   1.606   8.129 -2.2620 -2.5283  1.6135
40833SOL     OW26954   7.976   6.145   2.153 -0.1465 -0.3416  0.5182
40833SOL    HW126955   7.995   6.239   2.158  1.7679 -0.6781  0.4151
40833SOL    HW226956   7.904   6.132   2.214 -1.5670  1.4291 -0.6627
40834SOL     OW26957   7.536   2.790   6.438  0.2718  0.3462  0.4738
40834SOL    HW126958   7.549   2.710   6.490 -0.3501  0.4935  0.8525
40834SOL    HW226959   7.531   2.860   6.502 -0.7018  0.5061  0.2276
40835SOL     OW26960   9.425   8.841   8.542  0.6878  0.5760  0.5077
40835SOL    HW126961   9.506   8.797   8.571  1.0364  1.1101  0.3483
40835SOL    HW226962   9.355   8.785   8.575  1.1303 -0.2396  0.1091
40836SOL     OW26963   6.389   1.654   0.600  0.4224 -0.5842  0.6136
40836SOL    HW126964   6.467   1.647   0.545  1.1143  0.8167  1.3852
40836SOL    HW226965   6.350   1.566   0.596  0.0011 -0.3669 -2.6928
40837SOL     OW26966   2.817   8.229   0.778  0.0444 -0.2377  0.4245
40837SOL    HW126967   2.799   8.248   0.870  0.2694  0.2672  0.3641
40837SOL    HW226968   2.913   8.231   0.771  0.0608 -1.0223  0.3386
40838SOL     OW26969   7.597   5.536   5.441 -0.2337  0.5077  0.4359
40838SOL    HW126970   7.523   5.502   5.491 -0.9083 -1.1289 -1.5048
40838SOL    HW226971   7.560   5.557   5.355  1.4872 -0.1228 -0.5034
40839SOL     OW26972   1.236   5.738   3.269 -0.8749  0.0579 -0.1621
40839SOL    HW126973   1.160   5.713   3.216 -0.9897  0.0685 -0.0024
40839SOL    HW226974   1.233   5.834   3.271 -2.2492  0.0370  1.8440
40840SOL     OW26975   9.204   8.422   0.448  0.2241 -0.4554 -0.2880
40840SOL    HW126976   9.219   8.337   0.406 -1.7557 -1.9192  1.7085
40840SOL    HW226977   9.120   8.452   0.413  0.8583  0.6520 -0.8952
40841SOL     OW26978   8.825   5.731  10.498 -0.3068  0.0616  0.3824
40841SOL    HW126979   8.915   5.741  10.528 -0.4480 -1.9536  1.6619
40841SOL    HW226980   8.771   5.748  10.575 -0.9789  0.3755 -0.1479
40842SOL     OW26981   8.131  10.023   4.835  0.2024  0.3253 -0.9435
40842SOL    HW126982   8.196   9.966   4.795  0.2108 -1.1112  0.9723
40842SOL    HW226983   8.047   9.980   4.817  0.0163  0.7592 -1.1339
40843SOL     OW26984   1.810   1.444   5.749 -0.2590 -0.3443 -0.1851
40843SOL    HW126985   1.796   1.421   5.658 -2.0019  1.1297 -0.3579
40843SOL    HW226986   1.752   1.386   5.798  0.4874 -0.9646 -0.0247
40844SOL     OW26987   6.463   2.819   1.445 -0.3883  0.2671  0.2104
40844SOL    HW126988   6.497   2.909   1.439 -1.3890  0.6687  0.4202
40844SOL    HW226989   6.521   2.768   1.389 -0.3919  1.2207 -0.6924
40845SOL     OW26990   9.593   8.720   8.307 -0.4154 -0.0979  0.1944
40845SOL    HW126991   9.608   8.709   8.401  1.4579 -2.8035 -0.2858
40845SOL    HW226992   9.681   8.722   8.270 -1.1228 -0.8893 -1.6344
40846SOL     OW26993   0.819   5.489   3.234  0.3714 -0.2797  0.2572
40846SOL    HW126994   0.763   5.454   3.303 -0.5681  1.6501  0.5524
40846SOL    HW226995   0.787   5.447   3.154 -1.7482  0.9004  0.3892
40847SOL     OW26996   9.835   5.787   5.314  0.1530  0.8507 -0.4307
40847SOL    HW126997   9.850   5.877   5.285 -1.0973  0.7540 -1.3963
40847SOL    HW226998   9.771   5.795   5.384  1.7217  0.8894  1.0912
40848SOL     OW26999   3.026   4.427   7.908 -0.4981 -0.0543 -0.5582
40848SOL    HW127000   2.945   4.438   7.959  0.8878  0.7800  1.6289
40848SOL    HW227001   3.083   4.497   7.939  1.3689 -1.1098 -1.4390
40849SOL     OW27002   8.550  10.028   3.592 -0.4141 -0.8409  0.4638
40849SOL    HW127003   8.624  10.087   3.599 -0.5803 -0.5806  0.1054
40849SOL    HW227004   8.519  10.040   3.502  0.8077 -2.9735 -0.3118
40850SOL     OW27005   0.329   0.041   1.897  0.2047 -0.8809  0.1921
40850SOL    HW127006   0.241   0.077   1.889  1.0555  1.2049 -0.3149
40850SOL    HW227007   0.352   0.013   1.809  0.4085 -0.5241  0.1306
40851SOL     OW27008   6.453   0.092   0.881 -0.8265 -0.0261 -0.0858
40851SOL    HW127009   6.492   0.161   0.829 -0.2009 -0.9503 -0.8705
40851SOL    HW227010   6.447   0.129   0.969 -1.6455  1.4548 -0.7324
40852SOL     OW27011   0.657   6.255   1.060  0.4043 -0.4542 -0.2447
40852SOL    HW127012   0.695   6.269   0.974 -0.0314 -1.0702 -0.5461
40852SOL    HW227013   0.727   6.216   1.112  0.8152  0.3597 -0.1706
40853SOL     OW27014   0.768   1.392   0.167  0.4333  0.1982 -0.4536
40853SOL    HW127015   0.697   1.330   0.187  0.5105  0.0842 -0.5355
40853SOL    HW227016   0.752   1.418   0.076 -1.4209  2.6500  0.4247
40854SOL     OW27017   0.444   9.494   7.828  0.2195 -0.0953  0.0438
40854SOL    HW127018   0.417   9.555   7.760 -0.2471 -0.5604 -0.2009
40854SOL    HW227019   0.368   9.487   7.886  1.2385  1.7220  1.6963
40855SOL     OW27020   1.241   9.803   7.297 -0.0074 -0.1810  0.3136
40855SOL    HW127021   1.283   9.723   7.328  2.0490  0.5263 -0.4646
40855SOL    HW227022   1.227   9.855   7.376  0.5466 -0.4620  0.6018
40856SOL     OW27023   9.127   7.230   6.319  0.2132  0.4391  0.1476
40856SOL    HW127024   9.040   7.251   6.283  0.5064 -1.2028 -1.7025
40856SOL    HW227025   9.188   7.255   6.250  0.9994 -0.7049  0.3976
40857SOL     OW27026   1.057   3.070   9.566 -0.3197  0.2859 -0.2868
40857SOL    HW127027   1.063   3.042   9.658 -1.0762 -0.1243 -0.3504
40857SOL    HW227028   1.043   2.989   9.518 -1.1769  0.6253 -0.6268
40858SOL     OW27029   7.729   2.964   1.364 -0.3224  0.0962  0.1858
40858SOL    HW127030   7.767   3.050   1.349  0.8204 -0.0783  1.7921
40858SOL    HW227031   7.639   2.972   1.334 -0.7067  2.3375  1.6916
40859SOL     OW27032   0.505   8.300   6.798  0.5576  0.1986  0.5454
40859SOL    HW127033   0.597   8.317   6.780  0.4561  0.6219  0.3923
40859SOL    HW227034   0.459   8.332   6.719  0.2047  0.9092  1.0239
40860SOL     OW27035   0.988  11.006   6.198  0.1299 -0.2317 -0.3203
40860SOL    HW127036   0.987  10.989   6.104 -1.7247 -0.1222 -0.3508
40860SOL    HW227037   1.061  10.952   6.231  0.9210 -0.1302 -1.8106
40861SOL     OW27038   0.524   7.538   0.040 -0.0503  0.0967 -0.9324
40861SOL    HW127039   0.453   7.597   0.014 -1.0899 -0.7221 -0.0376
40861SOL    HW227040   0.496   7.451   0.011  0.3007 -0.3257 -0.0470
40862SOL     OW27041   2.575   5.141   6.285  0.2975 -0.8115  0.4350
40862SOL    HW127042   2.624   5.070   6.327  1.5928 -0.2187 -0.0030
40862SOL    HW227043   2.591   5.129   6.191 -0.6965 -0.7943  0.2504
40863SOL     OW27044   3.428   1.704   1.420  0.1327  0.1993  0.0591
40863SOL    HW127045   3.483   1.640   1.374 -0.2884  0.2544 -0.5347
40863SOL    HW227046   3.477   1.787   1.414 -0.3300  0.4091 -1.1028
40864SOL     OW27047   8.896   7.908   5.953  0.2143 -0.4590  0.1084
40864SOL    HW127048   8.902   7.820   5.990  0.3321 -1.0724 -1.3047
40864SOL    HW227049   8.986   7.941   5.955  0.0408  0.0067  1.4483
40865SOL     OW27050   6.022   2.116  10.203  0.1604  0.4515  0.5950
40865SOL    HW127051   6.106   2.154  10.231  0.1230  0.2647  0.9726
40865SOL    HW227052   5.978   2.094  10.285 -0.1085  0.2240  0.3898
40866SOL     OW27053   9.161  10.988   4.616 -0.6603  0.5223  0.4174
40866SOL    HW127054   9.147  11.005   4.523  0.4985 -0.2972  0.0627
40866SOL    HW227055   9.131  10.898   4.629  0.4224  0.1590  0.5159
40867SOL     OW27056   2.718   4.422   2.194  0.0610 -0.1825  0.1222
40867SOL    HW127057   2.749   4.439   2.105 -0.8199  0.1462 -0.1272
40867SOL    HW227058   2.658   4.494   2.213 -0.8253 -1.0001  0.4628
40868SOL     OW27059   5.868   9.450   4.485 -0.1120  0.4063 -0.1378
40868SOL    HW127060   5.932   9.509   4.523 -0.9867  0.6739  0.9757
40868SOL    HW227061   5.916   9.369   4.468  0.6740  0.8401  0.0185
40869SOL     OW27062   5.169   6.364  10.184  0.6853  0.9584 -0.1680
40869SOL    HW127063   5.248   6.395  10.139  0.6092  1.6676  0.1691
40869SOL    HW227064   5.195   6.355  10.275  0.1340  2.1335  0.1240
40870SOL     OW27065   1.800   8.660   1.942 -0.0329 -0.1368  0.3417
40870SOL    HW127066   1.722   8.667   1.887 -1.0975  0.3027  1.8645
40870SOL    HW227067   1.807   8.566   1.961 -1.1391 -0.0088  1.4906
40871SOL     OW27068   3.226   7.328   9.232 -0.0880  0.5248 -0.1216
40871SOL    HW127069   3.264   7.265   9.171  1.7190  0.4500  0.9748
40871SOL    HW227070   3.261   7.413   9.204  0.6018  0.5132  0.6555
40872SOL     OW27071   1.798   6.887   2.815 -0.6014  0.2636  0.7144
40872SOL    HW127072   1.820   6.794   2.816 -0.1443  0.3751  1.2052
40872SOL    HW227073   1.724   6.893   2.754  0.3590 -0.1964 -0.5392
40873SOL     OW27074   0.795   8.793   8.572  0.5281  0.6693  0.0630
40873SOL    HW127075   0.799   8.848   8.650 -1.4081 -0.6564  1.1843
40873SOL    HW227076   0.703   8.796   8.545  0.6161 -1.0126 -0.5636
40874SOL     OW27077   8.543  10.392   0.930  0.0746 -0.4544  0.3302
40874SOL    HW127078   8.637  10.411   0.919  0.2769 -1.0808  0.9525
40874SOL    HW227079   8.521  10.428   1.016 -0.4606  0.4245 -0.1555
40875SOL     OW27080   6.075   9.501   1.351  0.3232  0.2628  0.0493
40875SOL    HW127081   6.051   9.594   1.357  0.3348  0.3781 -1.3934
40875SOL    HW227082   5.992   9.454   1.358 -0.1124  0.5494 -2.2978
40876SOL     OW27083   5.681   5.107   3.265 -0.1285  0.4446  0.5610
40876SOL    HW127084   5.634   5.167   3.208 -3.7884 -0.9475  1.8301
40876SOL    HW227085   5.657   5.133   3.353 -0.3765 -1.7390  1.2028
40877SOL     OW27086   4.036   5.898   7.734  0.2346 -0.6770 -0.1805
40877SOL    HW127087   4.107   5.956   7.764 -0.2595 -0.5623  0.8192
40877SOL    HW227088   4.049   5.817   7.783 -1.3375 -0.0496  1.4020
40878SOL     OW27089   0.810   9.618   4.447 -0.9051 -0.0811  0.1246
40878SOL    HW127090   0.831   9.633   4.355  0.2186 -1.4615  0.1399
40878SOL    HW227091   0.891   9.638   4.494 -1.0699 -0.7120  0.6860
40879SOL     OW27092   4.143   0.839   7.015 -0.1853 -0.3393  0.6083
40879SOL    HW127093   4.129   0.930   6.989 -0.3381 -0.5695 -0.1282
40879SOL    HW227094   4.164   0.794   6.934  0.9869 -0.7637  1.1196
40880SOL     OW27095   8.836   7.856   2.243 -0.5711 -0.1876  0.2201
40880SOL    HW127096   8.850   7.866   2.149  0.1107 -1.3385  0.1757
40880SOL    HW227097   8.760   7.798   2.250  0.2083 -1.2208  0.3435
40881SOL     OW27098   7.446   5.698   6.928 -0.3005  0.1655 -0.3610
40881SOL    HW127099   7.485   5.649   6.856 -2.2043 -1.5307 -0.3488
40881SOL    HW227100   7.454   5.790   6.903 -1.4004 -0.3789 -3.0423
40882SOL     OW27101   6.067   4.335   4.292  0.6457 -0.4465  0.2233
40882SOL    HW127102   6.012   4.266   4.329  0.6139 -0.2139  0.6072
40882SOL    HW227103   6.009   4.410   4.281  1.0169  0.0104  1.2338
40883SOL     OW27104  10.829   2.655   5.494  0.2807  0.1424  0.3297
40883SOL    HW127105  10.834   2.750   5.495  1.3007  0.1009  1.5835
40883SOL    HW227106  10.780   2.632   5.573 -0.3499 -0.3588 -0.1991
40884SOL     OW27107   0.639   1.645   1.920  0.3032  0.4283  0.5081
40884SOL    HW127108   0.635   1.566   1.867 -0.7951  0.3988  0.6158
40884SOL    HW227109   0.709   1.628   1.983 -0.7386 -0.9989  1.3547
40885SOL     OW27110  10.766   8.323   3.079  0.1582 -0.1065 -0.4845
40885SOL    HW127111  10.755   8.264   3.003  1.3274 -1.2183  0.1625
40885SOL    HW227112  10.831   8.279   3.133 -0.5249  0.7623  1.0942
40886SOL     OW27113   6.283   7.526   3.157 -0.5581  0.2492  0.3779
40886SOL    HW127114   6.224   7.575   3.099 -1.1847  1.2502  1.8072
40886SOL    HW227115   6.249   7.542   3.245  0.0082 -1.7422  1.0011
40887SOL     OW27116   4.326   2.796   1.331 -0.2400  0.0850 -0.1173
40887SOL    HW127117   4.299   2.707   1.307 -2.2395  0.4591  0.5428
40887SOL    HW227118   4.305   2.803   1.425 -0.4375  1.3418 -0.2316
40888SOL     OW27119   9.607   8.887   1.389 -0.5795 -0.0977  0.0305
40888SOL    HW127120   9.684   8.854   1.435  0.2901  0.1447 -1.1950
40888SOL    HW227121   9.626   8.980   1.375  0.6731 -0.7187 -3.4840
40889SOL     OW27122   3.543   2.789   5.914  0.0029 -0.0465  0.1147
40889SOL    HW127123   3.610   2.722   5.901 -0.4061 -0.6467  0.9922
40889SOL    HW227124   3.460   2.741   5.909 -0.3062  0.4286  0.5966
40890SOL     OW27125  10.823   3.867   2.370 -0.1926  0.0625  0.1156
40890SOL    HW127126  10.838   3.885   2.277  2.6337 -0.2604  0.4141
40890SOL    HW227127  10.807   3.772   2.373 -1.4656  0.2542 -0.1226
40891SOL     OW27128   8.082   6.414   6.032  0.0276  0.8182 -0.4320
40891SOL    HW127129   8.002   6.439   6.079 -0.4693 -1.9250  0.3695
40891SOL    HW227130   8.153   6.430   6.095 -0.4266 -0.9240  0.5868
40892SOL     OW27131   7.491   4.067   6.014  0.1662  0.5118  0.0697
40892SOL    HW127132   7.570   4.087   6.063 -0.4236  1.2006  0.7834
40892SOL    HW227133   7.495   3.973   5.998  0.6322  0.3627  0.9848
40893SOL     OW27134   6.307   1.551   2.391 -0.4642  0.6641  0.0112
40893SOL    HW127135   6.222   1.596   2.390 -0.7743  0.0790 -0.4182
40893SOL    HW227136   6.286   1.460   2.410 -0.0363  0.3162 -1.1246
40894SOL     OW27137   9.733   1.056   3.692  0.4800  0.0353  0.2274
40894SOL    HW127138   9.738   1.083   3.600 -3.7116  1.4240  0.2114
40894SOL    HW227139   9.794   1.114   3.737  1.5127  0.3332 -1.4617
40895SOL     OW27140   2.589   2.129   8.316 -0.3437  0.1466  0.4827
40895SOL    HW127141   2.634   2.106   8.235 -0.6887  0.8296  0.0939
40895SOL    HW227142   2.641   2.088   8.385 -0.2141 -0.6904 -0.1018
40896SOL     OW27143   3.410   5.453   4.583 -0.1280  0.4206  0.1589
40896SOL    HW127144   3.370   5.517   4.525 -0.3485  2.4458  2.4163
40896SOL    HW227145   3.339   5.423   4.639  0.5663  0.5091  1.1185
40897SOL     OW27146   5.767   2.457   6.041  0.0941 -0.4373 -0.1554
40897SOL    HW127147   5.851   2.412   6.048  0.4225  0.2606  0.5465
40897SOL    HW227148   5.785   2.534   5.988  0.4466  0.8983  1.7736
40898SOL     OW27149   3.539   9.450   1.627 -0.5648  0.5053 -0.2995
40898SOL    HW127150   3.603   9.408   1.570 -0.8534  0.6865 -0.7575
40898SOL    HW227151   3.472   9.484   1.568 -0.1803  1.8861  0.0267
40899SOL     OW27152   8.008   7.047   6.981 -0.1971 -0.0332  0.2103
40899SOL    HW127153   7.958   7.010   7.054 -1.9382 -0.1645 -0.9974
40899SOL    HW227154   8.040   6.971   6.933  0.8933  0.0556  0.7544
40900SOL     OW27155  10.134   3.959   3.288  0.2418 -0.0385 -0.4945
40900SOL    HW127156  10.223   3.929   3.307  0.2069  0.9242  1.3897
40900SOL    HW227157  10.107   3.907   3.212  2.6635  0.1847 -1.6063
40901SOL     OW27158   1.860   1.432   1.035  0.3690 -0.2946 -0.3178
40901SOL    HW127159   1.933   1.383   0.999 -0.7229 -0.9074 -1.8373
40901SOL    HW227160   1.802   1.365   1.072 -0.1757  0.0064 -0.6000
40902SOL     OW27161   2.413   0.494   5.406  0.3670  0.3996  0.2415
40902SOL    HW127162   2.390   0.427   5.471 -1.6961  1.1118  0.3008
40902SOL    HW227163   2.382   0.576   5.444 -0.9149  0.8285 -1.6420
40903SOL     OW27164   9.227   7.056   5.893 -0.2458 -0.2924  0.0903
40903SOL    HW127165   9.179   7.004   5.829  1.7987  1.6447 -3.2820
40903SOL    HW227166   9.319   7.042   5.871  0.5734  0.4519  2.7105
40904SOL     OW27167   6.271   3.705   1.489 -0.0689 -0.0045  0.1171
40904SOL    HW127168   6.206   3.635   1.481 -0.5336  0.4730 -0.3463
40904SOL    HW227169   6.294   3.728   1.399 -0.2795  0.7637  0.2512
40905SOL     OW27170   9.384   4.761   1.740  0.6717 -0.1967 -0.4553
40905SOL    HW127171   9.465   4.811   1.733  2.9021 -3.5035 -0.6906
40905SOL    HW227172   9.398   4.685   1.683 -1.7698 -1.9158  1.0594
40906SOL     OW27173   9.703  10.603   6.151  0.2577  0.2114 -0.0064
40906SOL    HW127174   9.778  10.548   6.132  1.4646  1.4600  0.9566
40906SOL    HW227175   9.628  10.543   6.152  1.3919 -1.2353  0.1560
40907SOL     OW27176  10.477   4.534   0.518 -0.1911  0.2325 -0.0849
40907SOL    HW127177  10.542   4.520   0.587  0.2419  0.1889 -0.4993
40907SOL    HW227178  10.438   4.619   0.538  0.4452  0.5567 -0.1911
40908SOL     OW27179   2.373   0.368  10.474  0.0056 -0.1636  0.2300
40908SOL    HW127180   2.317   0.310  10.525 -1.0717  1.2541  0.7226
40908SOL    HW227181   2.415   0.425  10.539  0.3966  0.1531 -0.2900
40909SOL     OW27182   4.322   3.579   1.967  0.3134 -0.8031  0.3247
40909SOL    HW127183   4.274   3.635   2.028  0.2973  0.9548 -1.2387
40909SOL    HW227184   4.261   3.507   1.948 -0.6824 -0.0063  0.4036
40910SOL     OW27185   3.392   3.566   4.473 -0.6680 -0.6807 -0.1557
40910SOL    HW127186   3.415   3.485   4.426 -0.3427 -0.3879 -0.5083
40910SOL    HW227187   3.471   3.589   4.522 -0.7932 -0.6287  0.0236
40911SOL     OW27188   5.521   2.765   0.344 -0.0651 -0.1098  0.1788
40911SOL    HW127189   5.601   2.720   0.369  0.2218  0.0989 -0.3521
40911SOL    HW227190   5.452   2.700   0.356  0.5191 -1.2770 -2.1777
40912SOL     OW27191   0.844   0.855   8.107  0.0650 -0.4147 -0.2134
40912SOL    HW127192   0.823   0.851   8.013 -2.2393 -1.5978  0.2612
40912SOL    HW227193   0.858   0.763   8.131  0.6960 -0.1098  0.6082
40913SOL     OW27194   1.966   2.654   8.337  0.3293  0.1705 -0.1897
40913SOL    HW127195   2.032   2.599   8.380 -0.2995 -1.4555 -1.1904
40913SOL    HW227196   1.907   2.679   8.407 -0.3263 -1.9111  0.0797
40914SOL     OW27197   7.876   2.578   9.976 -0.0216  0.0712 -0.3326
40914SOL    HW127198   7.952   2.587   9.918  0.1603  0.5254 -0.0302
40914SOL    HW227199   7.832   2.663   9.970 -1.0018 -0.4829 -1.1921
40915SOL     OW27200   7.456   8.150  10.829  0.5028  0.3402  0.2131
40915SOL    HW127201   7.498   8.184  10.750  0.3694 -0.8975 -0.4130
40915SOL    HW227202   7.523   8.157  10.897  1.3029 -0.4294 -0.4770
40916SOL     OW27203   2.900   0.997   4.585 -0.4644 -0.1008  0.7722
40916SOL    HW127204   2.843   0.921   4.576  1.1704 -1.2685 -0.4695
40916SOL    HW227205   2.931   0.993   4.675 -0.1765 -1.1035  0.6458
40917SOL     OW27206   4.253   1.840  10.671 -0.1295 -0.3901 -0.0733
40917SOL    HW127207   4.267   1.817  10.579 -1.4928  1.3208 -0.7861
40917SOL    HW227208   4.161   1.816  10.687  0.1583 -0.8694  0.9254
40918SOL     OW27209   8.999   1.731   7.758  0.0638  0.6890  0.2308
40918SOL    HW127210   9.015   1.725   7.664  0.3693  0.5325  0.2915
40918SOL    HW227211   8.998   1.640   7.788  1.4067  0.7701  0.6121
40919SOL     OW27212   1.280   7.187   2.305 -0.0249 -0.9313 -0.1156
40919SOL    HW127213   1.343   7.257   2.290 -0.5903 -0.2265  0.7375
40919SOL    HW227214   1.197   7.222   2.274 -0.0137 -1.8921 -1.3278
40920SOL     OW27215   9.794   1.276   2.820 -0.1833 -0.0949  0.2723
40920SOL    HW127216   9.827   1.364   2.806 -1.1502  0.2432  0.0570
40920SOL    HW227217   9.702   1.288   2.846  0.1972 -0.9467  2.1833
40921SOL     OW27218   5.955   3.425   3.274  0.2002  0.6924 -0.8050
40921SOL    HW127219   5.892   3.358   3.248  0.6574  0.2675 -0.8358
40921SOL    HW227220   5.994   3.390   3.354  0.1452  1.1188 -0.5898
40922SOL     OW27221   0.604   5.184   4.402  0.2573 -0.3456 -0.4562
40922SOL    HW127222   0.679   5.154   4.453 -0.7377 -2.4571 -0.1355
40922SOL    HW227223   0.625   5.274   4.379  1.9421 -0.2066  1.3972
40923SOL     OW27224   3.624   5.869   2.163  0.3762 -0.5402  0.7522
40923SOL    HW127225   3.707   5.909   2.188 -0.1276  0.4050  0.9751
40923SOL    HW227226   3.588   5.928   2.097 -0.2884 -0.7376  0.9321
40924SOL     OW27227   7.525   7.385   5.258  0.3074 -0.1209  0.0254
40924SOL    HW127228   7.431   7.386   5.278  0.5859 -0.8467  1.5501
40924SOL    HW227229   7.542   7.296   5.229  0.7362 -0.3596  0.9786
40925SOL     OW27230   7.615   4.072   0.947  0.5465  0.2468  0.2727
40925SOL    HW127231   7.659   4.088   1.031  2.5063 -1.0676 -0.4301
40925SOL    HW227232   7.578   4.156   0.923  0.4438  0.8046  2.1644
40926SOL     OW27233   6.554   2.453  10.625  0.1629  0.5320 -0.4788
40926SOL    HW127234   6.538   2.452  10.719 -1.2788  2.3161 -0.6438
40926SOL    HW227235   6.525   2.540  10.597 -0.4208 -0.3290 -2.7285
40927SOL     OW27236  10.633   9.427   4.705  0.2567  0.1007 -0.1487
40927SOL    HW127237  10.595   9.359   4.760  0.5621 -0.3929 -0.5368
40927SOL    HW227238  10.697   9.381   4.650  0.1032  0.6115 -0.7774
40928SOL     OW27239   1.410   1.265   9.548 -0.5579 -0.1999 -0.2700
40928SOL    HW127240   1.333   1.310   9.582 -2.4054 -1.7918 -2.0529
40928SOL    HW227241   1.424   1.303   9.461  1.0507  0.4324  0.2249
40929SOL     OW27242   6.883   2.628   1.790  0.6201  0.1141 -0.0992
40929SOL    HW127243   6.967   2.637   1.745  0.5088 -1.4575 -0.7011
40929SOL    HW227244   6.825   2.587   1.725 -0.3870  0.4584  0.5528
40930SOL     OW27245   0.758   6.003   4.157  0.4469  0.3001  0.1696
40930SOL    HW127246   0.753   6.098   4.167  1.5943  0.4058 -0.0813
40930SOL    HW227247   0.780   5.990   4.064  0.3904 -0.2010  0.2216
40931SOL     OW27248   8.800   0.094   9.160  0.5844 -0.7061 -0.1992
40931SOL    HW127249   8.880   0.047   9.137  1.7375  2.1542 -2.8299
40931SOL    HW227250   8.754   0.105   9.076 -1.0681  0.2772  0.7883
40932SOL     OW27251   7.311  10.158   0.625  0.0536 -0.1257  0.0312
40932SOL    HW127252   7.407  10.164   0.622 -0.0168  1.5205 -0.1405
40932SOL    HW227253   7.289  10.180   0.716 -0.1790 -0.1470 -0.0207
40933SOL     OW27254  10.617   7.267   7.564  1.2357  0.2321  0.0128
40933SOL    HW127255  10.597   7.247   7.656  0.7086  0.2891 -0.0841
40933SOL    HW227256  10.682   7.202   7.539  0.7705 -0.3117  0.1923
40934SOL     OW27257   4.914   4.633   8.467 -0.2464 -0.3577  0.2304
40934SOL    HW127258   4.966   4.563   8.427  0.2913  0.6106 -0.8113
40934SOL    HW227259   4.889   4.598   8.553  2.4240 -0.7336  0.9435
40935SOL     OW27260   3.788   7.695   3.379 -0.3471 -0.0441  0.0730
40935SOL    HW127261   3.795   7.790   3.377 -1.9876  0.1294  0.8652
40935SOL    HW227262   3.875   7.665   3.406 -0.0154  1.2783  0.5271
40936SOL     OW27263   5.824   9.946   8.705  0.1046  0.0288  0.7614
40936SOL    HW127264   5.755   9.884   8.725 -0.8321  0.2341 -1.5369
40936SOL    HW227265   5.875   9.905   8.635  0.9954  0.7958  0.9280
40937SOL     OW27266   0.319   1.189   5.907  0.3490 -0.2787 -0.1021
40937SOL    HW127267   0.257   1.130   5.864  0.1053  0.0460 -0.2032
40937SOL    HW227268   0.397   1.187   5.851  0.0081  0.1966 -0.6035
40938SOL     OW27269   8.260   9.149  10.696  0.1903  0.0606 -0.5707
40938SOL    HW127270   8.255   9.141  10.791 -2.0540 -0.1848 -0.6392
40938SOL    HW227271   8.340   9.199  10.680  2.0487 -2.0827  1.2478
40939SOL     OW27272   8.652   4.115   5.884 -0.8215  0.3216  0.2293
40939SOL    HW127273   8.625   4.123   5.792 -0.6916  0.6642  0.2219
40939SOL    HW227274   8.652   4.020   5.900 -1.8463  0.3007  0.1828
40940SOL     OW27275  10.483   3.679   6.481 -0.0672 -0.1215 -0.4415
40940SOL    HW127276  10.539   3.697   6.406 -0.3266  1.0348 -0.3785
40940SOL    HW227277  10.409   3.739   6.470 -0.2900 -0.2042  0.5428
40941SOL     OW27278   0.252   2.871   7.085 -0.4622 -0.0800  0.9942
40941SOL    HW127279   0.224   2.779   7.085  2.5930 -1.1647 -1.2852
40941SOL    HW227280   0.303   2.880   7.166 -0.4770 -0.4869  1.0500
40942SOL     OW27281   3.809   0.591   4.219 -0.0100  0.1101 -0.1328
40942SOL    HW127282   3.880   0.586   4.155 -0.0712 -0.5730 -0.1593
40942SOL    HW227283   3.803   0.684   4.242  0.4969  0.2544 -0.5714
40943SOL     OW27284  10.882   9.751   5.048 -0.2084 -0.5556 -0.3101
40943SOL    HW127285  10.964   9.798   5.036 -1.5410  1.9325 -0.4206
40943SOL    HW227286  10.878   9.731   5.141 -0.2043  0.7711 -0.0178
40944SOL     OW27287   5.807   6.184   2.537 -0.2175  0.8260 -0.0253
40944SOL    HW127288   5.744   6.228   2.481 -2.1774 -1.0675  0.5799
40944SOL    HW227289   5.798   6.091   2.516 -0.2905  0.1388  2.6457
40945SOL     OW27290   8.588   6.780   3.263  0.0748  0.0624  0.2226
40945SOL    HW127291   8.522   6.722   3.222  2.0375 -0.6513 -2.1870
40945SOL    HW227292   8.570   6.866   3.225  1.0201 -0.3211 -1.1947
40946SOL     OW27293   5.742   4.703   5.713 -0.8756 -0.6563  0.0797
40946SOL    HW127294   5.765   4.637   5.778 -2.5272 -1.3608 -0.0154
40946SOL    HW227295   5.698   4.655   5.643  1.3891 -0.0328 -1.9454
40947SOL     OW27296  10.384   4.247  10.999  0.0928  0.4787  0.2944
40947SOL    HW127297  10.289   4.247  11.016 -0.0744  0.9810 -0.5850
40947SOL    HW227298  10.412   4.157  11.019 -0.0040  1.0468  3.4683
40948SOL     OW27299   1.419   1.497   1.376 -0.0959  0.0758  0.2591
40948SOL    HW127300   1.431   1.582   1.335  0.1020 -0.1649 -0.1919
40948SOL    HW227301   1.452   1.508   1.465 -0.4446  0.5784  0.3273
40949SOL     OW27302   7.180   7.784   5.933  0.1796  0.4405 -0.1736
40949SOL    HW127303   7.101   7.783   5.986  0.2383 -1.8160 -0.0200
40949SOL    HW227304   7.244   7.736   5.986  1.1325  0.7312 -1.0364
40950SOL     OW27305   4.556   5.149   5.315  0.1050  0.0950 -0.2868
40950SOL    HW127306   4.464   5.147   5.291 -0.6206 -2.1659  2.2102
40950SOL    HW227307   4.600   5.101   5.245 -0.7845  0.0887 -0.8495
40951SOL     OW27308   3.629   8.781   0.550 -0.1295 -0.3407  0.2385
40951SOL    HW127309   3.552   8.733   0.519 -1.4773  1.2800  0.9470
40951SOL    HW227310   3.694   8.769   0.481 -1.1831 -1.3309 -0.6246
40952SOL     OW27311   5.572   3.584   6.449  0.0817 -0.1125 -0.1942
40952SOL    HW127312   5.503   3.581   6.382  0.6888 -0.5603 -0.8175
40952SOL    HW227313   5.647   3.543   6.406  0.7636  0.4692  0.4430
40953SOL     OW27314   6.109   6.560   1.592  0.0144 -0.7288  0.4526
40953SOL    HW127315   6.027   6.606   1.612  0.2080 -1.5706  3.7420
40953SOL    HW227316   6.086   6.501   1.520 -1.8647  0.1004  0.3015
40954SOL     OW27317   4.254   3.547   5.078 -0.3730 -0.6749  0.0531
40954SOL    HW127318   4.235   3.480   5.012  0.0934 -0.9148  0.1559
40954SOL    HW227319   4.344   3.574   5.060 -0.7069  0.2664 -0.2702
40955SOL     OW27320  10.682   0.055   5.621  0.7708  0.4898  0.4983
40955SOL    HW127321  10.635  -0.009   5.568 -2.3915  0.9514  2.4989
40955SOL    HW227322  10.675   0.137   5.572 -2.1350  0.9197  1.4885
40956SOL     OW27323   7.677   2.468   6.822 -0.3104  0.0982  0.6070
40956SOL    HW127324   7.746   2.521   6.783 -1.8799  0.9391 -1.2226
40956SOL    HW227325   7.659   2.510   6.906  0.0499  1.0991  0.1951
40957SOL     OW27326  10.708   4.266   2.405 -0.4507 -0.0932 -0.3348
40957SOL    HW127327  10.658   4.185   2.395 -2.4268  1.1638 -1.4159
40957SOL    HW227328  10.651   4.323   2.457  0.4543  0.9461 -0.4540
40958SOL     OW27329   8.355   0.392   8.127  0.1393 -0.4690  1.1351
40958SOL    HW127330   8.329   0.414   8.038  0.6584 -0.9586  0.8522
40958SOL    HW227331   8.330   0.468   8.180  0.1645 -0.0232  0.5126
40959SOL     OW27332   2.022   4.390   9.096  0.6702  0.0533  0.1478
40959SOL    HW127333   2.093   4.339   9.135  0.4856 -2.1967 -2.1647
40959SOL    HW227334   2.037   4.383   9.002 -1.8222  0.7344 -0.3722
40960SOL     OW27335   9.044   2.475   8.996  0.2686 -0.2014 -0.0853
40960SOL    HW127336   8.988   2.477   9.073  1.0547  0.0395  0.4929
40960SOL    HW227337   9.115   2.415   9.020  0.1595 -0.6645 -0.8823
40961SOL     OW27338   7.908   4.965   8.273 -0.0693 -0.2336  0.0473
40961SOL    HW127339   7.879   4.954   8.182  1.8512 -2.1082 -0.4279
40961SOL    HW227340   7.991   5.012   8.266 -0.1082 -0.0300  0.8739
40962SOL     OW27341   1.788   2.638  10.067 -0.3339  0.5480  0.4776
40962SOL    HW127342   1.749   2.660  10.152 -0.7998 -0.2274  0.4803
40962SOL    HW227343   1.801   2.543  10.071  1.9992  0.8082  0.6427
40963SOL     OW27344   7.572   7.615   6.501  0.5723 -0.7652 -0.0747
40963SOL    HW127345   7.593   7.709   6.498  0.7797 -0.8114 -0.0713
40963SOL    HW227346   7.651   7.572   6.469  0.7472 -0.9816  0.6312
40964SOL     OW27347   3.346   4.788   3.646 -0.4752 -0.2346 -0.0494
40964SOL    HW127348   3.430   4.776   3.691 -1.3268 -1.4249  1.3033
40964SOL    HW227349   3.303   4.703   3.654 -1.1614 -0.1468 -2.1482
40965SOL     OW27350   5.552   5.350   1.694 -0.4556 -0.1140 -0.1453
40965SOL    HW127351   5.499   5.337   1.772  0.4383  0.2095  0.5340
40965SOL    HW227352   5.622   5.284   1.701 -1.7612 -1.8289 -1.9754
40966SOL     OW27353   0.735  10.868   7.204  0.2891  0.7008  0.5506
40966SOL    HW127354   0.794  10.793   7.193  2.1017  1.9055  1.5191
40966SOL    HW227355   0.771  10.935   7.146 -0.1711  1.4425  1.1081
40967SOL     OW27356  10.406   7.748   7.843 -0.6202 -0.0104 -0.1277
40967SOL    HW127357  10.488   7.724   7.799  2.1255  1.8398  3.4102
40967SOL    HW227358  10.344   7.763   7.772  2.5272 -0.0402 -3.1671
40968SOL     OW27359   2.170  10.095   9.185 -0.2259 -0.2110 -0.2315
40968SOL    HW127360   2.124  10.015   9.210 -0.4415  0.1585  0.5902
40968SOL    HW227361   2.159  10.100   9.090  1.2877 -2.0679 -0.5842
40969SOL     OW27362   5.765   9.221   5.580  1.0887 -0.2775 -0.3218
40969SOL    HW127363   5.747   9.135   5.619  1.1391 -0.0262  0.2661
40969SOL    HW227364   5.685   9.243   5.533  0.7159 -0.2173  0.3275
40970SOL     OW27365   6.973   0.258   6.660 -1.1248 -0.1698  0.1100
40970SOL    HW127366   7.062   0.223   6.661 -1.5111 -1.1893  0.0859
40970SOL    HW227367   6.953   0.266   6.567 -1.5366 -1.2467  0.0892
40971SOL     OW27368   9.107   6.099   3.084  0.2717  0.2032  0.8255
40971SOL    HW127369   9.025   6.124   3.128 -0.3359  0.4021 -0.3754
40971SOL    HW227370   9.100   6.004   3.074 -0.5370  0.3868 -0.6208
40972SOL     OW27371   5.608   2.382   1.459 -0.6213  0.2932  0.1395
40972SOL    HW127372   5.643   2.380   1.548 -1.2975 -0.2414  0.3942
40972SOL    HW227373   5.547   2.456   1.459  0.3709  1.1562 -0.2758
40973SOL     OW27374   1.975   5.970   6.132  0.9030  0.4758 -0.2048
40973SOL    HW127375   1.987   6.037   6.064  0.4912  0.7405 -0.0193
40973SOL    HW227376   1.982   5.887   6.085  3.5019  0.5842 -0.1092
40974SOL     OW27377   1.831   5.226   7.527  0.0757 -0.4600  0.3534
40974SOL    HW127378   1.797   5.276   7.453  1.7730  1.9472  1.0795
40974SOL    HW227379   1.925   5.217   7.509 -0.0441 -3.0511  0.5188
40975SOL     OW27380   4.949   3.616   2.515  0.1296 -0.1319  0.0614
40975SOL    HW127381   4.993   3.690   2.557 -0.2567  0.0687  0.1145
40975SOL    HW227382   5.000   3.599   2.436 -1.3815  2.0483 -1.5092
40976SOL     OW27383   7.635   9.713   9.907 -0.3161  1.1136 -0.7402
40976SOL    HW127384   7.641   9.618   9.898  1.8844  0.6248  3.3521
40976SOL    HW227385   7.713   9.746   9.862 -0.9661  1.0236 -1.9731
40977SOL     OW27386   9.758   7.475   3.582 -0.2055  0.1659  0.6908
40977SOL    HW127387   9.826   7.524   3.537 -0.8030 -0.1842 -0.6634
40977SOL    HW227388   9.790   7.465   3.671  1.7288 -0.4173 -0.0298
40978SOL     OW27389   3.102   8.295   2.463 -0.0391 -0.1464 -0.0525
40978SOL    HW127390   3.073   8.381   2.493 -0.0251 -0.2905  0.3884
40978SOL    HW227391   3.023   8.254   2.429 -0.2099 -0.2536  0.4594
40979SOL     OW27392   5.647   2.526   5.437 -0.2342  0.4648  0.6283
40979SOL    HW127393   5.561   2.532   5.395  0.1996  1.1025 -0.2010
40979SOL    HW227394   5.702   2.587   5.387  0.6588  0.1801  1.2461
40980SOL     OW27395  10.888   6.790   1.023  0.0907  0.3535 -0.3179
40980SOL    HW127396  10.980   6.807   1.002 -0.1051 -0.4166 -1.9486
40980SOL    HW227397  10.840   6.861   0.980 -0.1651  0.0445 -0.5441
40981SOL     OW27398   8.215   3.559   4.653  0.0464  0.1634  0.0389
40981SOL    HW127399   8.145   3.608   4.696  1.3544  1.5588  0.6623
40981SOL    HW227400   8.293   3.579   4.704  0.7717 -2.0909 -0.0759
40982SOL     OW27401   0.497   6.107   9.814  0.1474 -0.2984  0.2419
40982SOL    HW127402   0.446   6.120   9.894 -1.4688 -1.1141 -0.5897
40982SOL    HW227403   0.482   6.187   9.763  2.6411  1.0225  1.4383
40983SOL     OW27404   0.336   5.176   0.752 -1.0782 -0.1607  0.1100
40983SOL    HW127405   0.416   5.152   0.705  0.6274  0.2550  2.5872
40983SOL    HW227406   0.289   5.093   0.765  0.3066 -0.8433  0.9219
40984SOL     OW27407   1.937   1.357  10.964 -0.3633  0.2420 -0.4769
40984SOL    HW127408   1.985   1.393  11.039  0.0416 -0.7983 -0.2157
40984SOL    HW227409   1.854   1.405  10.963 -0.8515 -0.4655  1.3401
40985SOL     OW27410   0.902   3.353   8.546  0.1249 -0.0473  0.6620
40985SOL    HW127411   0.953   3.272   8.542 -0.6659 -0.5232 -0.1309
40985SOL    HW227412   0.886   3.366   8.640 -1.1985 -1.7702  0.7427
40986SOL     OW27413   2.477   6.897   7.994 -0.2844  0.1853 -0.2639
40986SOL    HW127414   2.410   6.905   8.062  0.2109 -0.0127  0.2502
40986SOL    HW227415   2.429   6.912   7.912 -0.8126  0.7898  0.1458
40987SOL     OW27416   8.602   8.988   2.510 -0.3641  0.3582  0.6223
40987SOL    HW127417   8.651   8.906   2.509 -1.3302 -0.3105  2.3441
40987SOL    HW227418   8.634   9.034   2.587 -0.4060  1.2468  0.1240
40988SOL     OW27419   0.692  10.680   2.421 -0.4029 -0.0570  0.5882
40988SOL    HW127420   0.708  10.712   2.510  0.0323  2.3354 -0.2615
40988SOL    HW227421   0.600  10.702   2.404 -0.3191  0.0394  0.2527
40989SOL     OW27422   1.888   0.972   1.780 -0.0958 -0.1578  0.1623
40989SOL    HW127423   1.859   1.055   1.816 -1.2822  0.4381 -2.0100
40989SOL    HW227424   1.839   0.906   1.829  0.2113  0.4354  1.3107
40990SOL     OW27425   5.922   4.803   9.786 -0.1106  0.4372 -0.2782
40990SOL    HW127426   5.872   4.864   9.732  1.7210  1.1247 -1.2940
40990SOL    HW227427   5.915   4.839   9.875 -1.5274  0.3976 -0.3494
40991SOL     OW27428   4.375   3.518   4.458  0.3056 -0.0785 -0.3585
40991SOL    HW127429   4.343   3.431   4.481 -1.6761 -0.0053 -2.4665
40991SOL    HW227430   4.339   3.575   4.527 -2.1264 -0.3908 -1.2571
40992SOL     OW27431   0.602   2.922  10.773  0.1740 -0.3087 -0.7685
40992SOL    HW127432   0.530   2.982  10.754  2.2092  2.4645 -0.3551
40992SOL    HW227433   0.584   2.845  10.718 -2.2842  0.8629 -1.7563
40993SOL     OW27434   3.839   3.737   2.001 -0.7031  0.7395 -0.0140
40993SOL    HW127435   3.799   3.666   1.951 -2.4205  0.3111  1.8208
40993SOL    HW227436   3.776   3.809   1.996 -0.5174  0.9735  0.8388
40994SOL     OW27437   6.269   5.766   5.089 -1.0079 -0.4444 -0.0298
40994SOL    HW127438   6.209   5.752   5.015 -2.2524 -0.8992  1.0165
40994SOL    HW227439   6.257   5.858   5.112  0.8201  0.2413 -1.5516
40995SOL     OW27440  10.704   6.027   2.216 -0.3737 -0.3200 -0.2827
40995SOL    HW127441  10.774   5.965   2.196  0.6845  0.7248  0.0413
40995SOL    HW227442  10.740   6.112   2.189 -0.3923  0.6399  2.4127
40996SOL     OW27443   5.608   4.958   2.610 -0.3368  0.0070 -0.2072
40996SOL    HW127444   5.650   4.947   2.525 -0.4767 -0.1864 -0.2502
40996SOL    HW227445   5.643   5.041   2.643  0.6331 -0.4984  0.0779
40997SOL     OW27446   7.736   9.160   1.197 -0.2653 -0.4708 -0.1842
40997SOL    HW127447   7.690   9.171   1.114  1.3782 -0.0996 -1.0882
40997SOL    HW227448   7.667   9.165   1.263 -1.3619  1.4023 -1.3728
40998SOL     OW27449   7.908   1.091   9.752  0.7002  0.5985 -0.1596
40998SOL    HW127450   7.827   1.087   9.701  0.5767  2.1623 -0.1301
40998SOL    HW227451   7.978   1.084   9.687  0.5433 -0.0479 -0.2606
40999SOL     OW27452   8.197   1.824  10.324  0.2551  0.2821  0.6335
40999SOL    HW127453   8.205   1.762  10.252  0.7631 -0.0124  0.9373
40999SOL    HW227454   8.110   1.862  10.314  0.2256  0.0565  0.0174
41000SOL     OW27455   2.866   0.210   2.050  0.1086 -0.2920  0.4001
41000SOL    HW127456   2.820   0.284   2.010 -1.1527 -1.1164  0.2551
41000SOL    HW227457   2.932   0.249   2.106 -1.2657  0.9634  1.1859
41001SOL     OW27458  10.914   0.421   3.038  0.2793 -0.4184 -0.7004
41001SOL    HW127459  10.853   0.490   3.064 -1.8879 -2.5246  0.2745
41001SOL    HW227460  10.896   0.407   2.945 -0.9803 -1.1847 -0.3662
41002SOL     OW27461   9.387   7.964   7.934 -0.4333 -0.1234 -0.5414
41002SOL    HW127462   9.466   7.943   7.884  0.3160  1.5210 -0.1339
41002SOL    HW227463   9.320   7.906   7.898  0.7758 -1.0453 -1.4087
41003SOL     OW27464  10.929   8.990   3.356  0.1301  0.0164 -0.0994
41003SOL    HW127465  10.852   8.990   3.413  0.0365 -0.2320 -0.2232
41003SOL    HW227466  10.953   9.082   3.347  0.1117  0.0611  0.2987
41004SOL     OW27467   5.521   6.038   6.197  0.0707  0.4503  0.2040
41004SOL    HW127468   5.497   6.020   6.287 -1.3573  1.4970  0.0605
41004SOL    HW227469   5.455   5.993   6.144  0.1747  0.8571 -0.2843
41005SOL     OW27470   5.487   7.806   5.139  0.8165 -0.1095  0.4256
41005SOL    HW127471   5.408   7.755   5.157  1.5988 -0.4086  3.7074
41005SOL    HW227472   5.558   7.742   5.141  1.3452  0.3931 -0.8797
41006SOL     OW27473   2.198  10.290   3.855  0.1139 -0.1429  0.1504
41006SOL    HW127474   2.118  10.240   3.844 -0.4611  0.7558  0.1474
41006SOL    HW227475   2.251  10.238   3.916 -0.8476 -0.3154  0.8692
41007SOL     OW27476   9.766   5.260   7.673  0.8052 -0.2825  0.8377
41007SOL    HW127477   9.737   5.236   7.761 -2.4927 -0.6826 -0.2141
41007SOL    HW227478   9.747   5.354   7.666  0.2538 -0.4242  0.3089
41008SOL     OW27479   7.554   0.576   9.656 -0.3534  0.1558  0.5077
41008SOL    HW127480   7.616   0.532   9.598 -0.1473  0.7509  0.2717
41008SOL    HW227481   7.609   0.623   9.719 -0.5716  0.0580  0.7726
41009SOL     OW27482   6.431   6.373   3.985  0.3196 -0.1057  0.1038
41009SOL    HW127483   6.395   6.423   3.912 -1.6374 -1.1487  0.2761
41009SOL    HW227484   6.440   6.436   4.056  1.6386  0.7830 -0.8195
41010SOL     OW27485   6.459  10.539   6.766  0.5693  0.2807  0.3968
41010SOL    HW127486   6.493  10.455   6.799 -0.7038  0.1049  1.3198
41010SOL    HW227487   6.394  10.515   6.700 -0.7552  0.4787  1.5962
41011SOL     OW27488  10.728   6.802   5.505  0.8930 -0.1569  0.2845
41011SOL    HW127489  10.726   6.843   5.419 -0.1014  0.2603  0.5036
41011SOL    HW227490  10.819   6.813   5.535  0.7791  1.3968  0.1066
41012SOL     OW27491   7.692   0.297   7.799  0.1554  0.1608  0.1606
41012SOL    HW127492   7.646   0.356   7.740 -0.0556  0.4697  0.6312
41012SOL    HW227493   7.774   0.341   7.820  0.0981  0.1863  0.3341
41013SOL     OW27494   8.342   1.005   4.039  0.1790 -0.0793  0.4608
41013SOL    HW127495   8.251   1.014   4.010 -0.4671 -1.1101  2.0264
41013SOL    HW227496   8.378   0.935   3.985 -0.7286 -1.3505  1.4390
41014SOL     OW27497   4.585   4.003   2.422  0.7973 -0.6233 -0.3440
41014SOL    HW127498   4.520   3.994   2.351 -1.3403 -3.5024  1.7229
41014SOL    HW227499   4.567   4.088   2.460  0.7056  0.1555 -2.0414
41015SOL     OW27500   6.081  10.993   4.066 -0.0180 -0.0600  0.3994
41015SOL    HW127501   6.149  11.059   4.052 -0.2205  0.2598  0.9219
41015SOL    HW227502   6.084  10.939   3.987  1.1842 -0.3573  0.6270
41016SOL     OW27503   2.461  10.407   9.388 -0.8312 -0.0795 -0.5011
41016SOL    HW127504   2.496  10.394   9.300  0.2939  1.5221 -0.3282
41016SOL    HW227505   2.383  10.351   9.392 -0.3324 -0.9303 -2.1578
41017SOL     OW27506   0.312   0.132   8.781 -0.0714  0.1675  0.4201
41017SOL    HW127507   0.226   0.169   8.762  0.2771  0.5760 -0.3776
41017SOL    HW227508   0.308   0.110   8.875 -0.8103  0.7900  0.5446
41018SOL     OW27509   3.858   3.457   1.194  0.1494  0.1428 -0.6963
41018SOL    HW127510   3.941   3.443   1.148  0.5998 -1.0894  0.3976
41018SOL    HW227511   3.801   3.388   1.161  0.3735 -0.5454  0.3042
41019SOL     OW27512   5.897   9.750   7.624 -0.1786 -0.0304  0.1410
41019SOL    HW127513   5.894   9.713   7.535 -1.5710  0.9428 -0.2499
41019SOL    HW227514   5.820   9.806   7.629  0.1568  0.3289  1.8117
41020SOL     OW27515   8.941   4.013   6.728  0.0223 -0.1055 -0.4047
41020SOL    HW127516   8.977   4.050   6.808  1.6489 -0.4533 -0.9491
41020SOL    HW227517   8.903   3.929   6.755 -0.1415  0.1385  0.1292
41021SOL     OW27518   7.296   3.242   7.029  0.1062  0.3554  0.1940
41021SOL    HW127519   7.380   3.216   6.990 -0.1271  0.0596 -0.1085
41021SOL    HW227520   7.280   3.330   6.995 -0.8776 -0.4830 -1.6874
41022SOL     OW27521   6.180   1.198   8.934 -0.4511  0.4047  0.0675
41022SOL    HW127522   6.152   1.253   8.861  0.0053 -0.2127 -0.5890
41022SOL    HW227523   6.198   1.259   9.006 -0.2900  1.0764 -0.5394
41023SOL     OW27524   0.063   1.799   0.286 -0.4871 -0.0970 -0.1991
41023SOL    HW127525   0.048   1.773   0.376 -1.4929 -1.4628 -0.7289
41023SOL    HW227526   0.096   1.889   0.292  0.2863 -0.4698  1.5416
41024SOL     OW27527   8.514   1.937  10.805  0.0388 -0.2201 -0.2265
41024SOL    HW127528   8.452   1.909  10.737 -0.9193  0.7917  0.2022
41024SOL    HW227529   8.463   1.937  10.886  0.5882  0.6207  0.1401
41025SOL     OW27530  10.677   8.917   1.048 -0.4157  0.4970  1.0885
41025SOL    HW127531  10.718   8.949   0.967 -1.6760  0.2614  0.3278
41025SOL    HW227532  10.726   8.958   1.118  1.5040 -0.2183  0.2398
41026SOL     OW27533   1.344   8.367   6.618  0.3582  0.3689 -0.1722
41026SOL    HW127534   1.304   8.443   6.576 -0.1603 -0.5496 -1.4305
41026SOL    HW227535   1.350   8.390   6.710 -1.1935  1.3592 -0.2766
41027SOL     OW27536   6.270   4.552   2.702 -0.4867 -0.1679 -0.2629
41027SOL    HW127537   6.337   4.531   2.768 -0.6441 -0.3116 -0.1457
41027SOL    HW227538   6.280   4.645   2.685 -0.7260 -0.0383  0.2846
41028SOL     OW27539   6.300   2.731   7.290  0.2506 -0.4614 -0.2065
41028SOL    HW127540   6.359   2.788   7.241 -0.7778 -0.0735 -1.0329
41028SOL    HW227541   6.268   2.786   7.361  0.6188 -0.5689  0.0446
41029SOL     OW27542  11.007   9.051   6.281 -0.5708 -0.1280 -0.5485
41029SOL    HW127543  10.950   9.028   6.207 -0.7634 -2.6123  0.2995
41029SOL    HW227544  10.966   9.010   6.357  0.1440  1.5726  0.8339
41030SOL     OW27545   4.611   3.789   6.008 -0.2382  0.1600  0.4967
41030SOL    HW127546   4.607   3.694   6.001  0.9158  0.0945  0.5326
41030SOL    HW227547   4.532   3.813   6.056 -1.6445 -0.5818 -1.3214
41031SOL     OW27548   7.178   5.594   6.671 -0.8296 -0.2028 -0.3550
41031SOL    HW127549   7.182   5.574   6.764 -0.4941 -0.0906 -0.3412
41031SOL    HW227550   7.207   5.685   6.665  0.8183 -0.7091 -0.7193
41032SOL     OW27551   3.695   4.169  10.568  0.4757 -0.0840 -0.8182
41032SOL    HW127552   3.765   4.190  10.506 -0.5438  1.1379 -1.5799
41032SOL    HW227553   3.641   4.247  10.571  0.3720 -0.1781  1.4901
41033SOL     OW27554   5.057   7.164  10.792  0.0734 -0.2020 -0.1622
41033SOL    HW127555   5.015   7.136  10.711 -0.0944  2.5587 -1.1161
41033SOL    HW227556   4.985   7.197  10.846  0.3843 -0.5321  0.4704
41034SOL     OW27557   4.638   4.835   4.321  0.4066  0.8702 -0.3920
41034SOL    HW127558   4.652   4.930   4.328  1.7520  0.8756 -2.4563
41034SOL    HW227559   4.716   4.797   4.361 -0.8137  0.5234  1.8376
41035SOL     OW27560   8.762   4.022   1.570 -0.8740  0.3616 -0.3906
41035SOL    HW127561   8.798   3.948   1.619 -1.0932  1.0832  0.9282
41035SOL    HW227562   8.840   4.069   1.538 -0.7374 -0.8533 -1.9617
41036SOL     OW27563   0.777  10.111   4.119 -0.3846 -0.3726  0.3972
41036SOL    HW127564   0.703  10.052   4.131 -0.4972 -0.0691  1.2811
41036SOL    HW227565   0.813  10.123   4.207  0.9854 -0.8569 -0.0783
41037SOL     OW27566   6.019  10.165  10.061 -0.0254  0.4300 -0.5564
41037SOL    HW127567   5.943  10.128  10.015 -0.1094  1.7882 -1.5766
41037SOL    HW227568   6.091  10.157   9.997  0.8225 -1.1700  0.5247
41038SOL     OW27569   7.326   7.949   6.676 -0.1867 -0.4188  0.2188
41038SOL    HW127570   7.300   7.880   6.737  0.9680  0.1091  1.3437
41038SOL    HW227571   7.399   7.994   6.719 -2.2064  2.9229  0.5838
41039SOL     OW27572   3.353   2.016   6.307  0.1645 -0.1361 -0.6795
41039SOL    HW127573   3.283   1.974   6.357  1.3416 -0.1823  0.9955
41039SOL    HW227574   3.310   2.090   6.265 -0.7183  0.5358  1.2624
41040SOL     OW27575   3.087   9.824   4.747  0.0531 -0.0270 -0.4565
41040SOL    HW127576   3.109   9.864   4.662 -1.2822  0.4405 -0.5975
41040SOL    HW227577   3.038   9.745   4.724 -0.3980  0.1544 -0.1212
41041SOL     OW27578  10.809   4.322   6.340  0.6255  0.1120  0.0718
41041SOL    HW127579  10.783   4.278   6.259 -0.4436 -1.8062  1.3826
41041SOL    HW227580  10.726   4.336   6.387  1.3559 -0.2579  1.5276
41042SOL     OW27581   4.479   0.226   7.255 -0.1937  0.1144  0.4292
41042SOL    HW127582   4.551   0.266   7.207 -0.1817 -2.4149 -1.8989
41042SOL    HW227583   4.401   0.267   7.220 -0.1228 -0.9865 -1.1149
41043SOL     OW27584   5.713   7.509   0.042 -0.0665 -0.7199  0.1534
41043SOL    HW127585   5.775   7.582   0.047 -1.6113  0.6634  0.2899
41043SOL    HW227586   5.767   7.431   0.034  1.6370  0.5739 -1.7314
41044SOL     OW27587  11.053  10.994   8.761  0.7095 -0.1705  0.2622
41044SOL    HW127588  10.970  11.011   8.718  0.1006  0.7812  1.7351
41044SOL    HW227589  11.109  11.068   8.735  0.3410  0.4065  1.0871
41045SOL     OW27590   5.550   0.135   6.967  0.0719  0.4408 -0.4967
41045SOL    HW127591   5.634   0.161   6.929 -0.4513  0.2293 -1.8683
41045SOL    HW227592   5.556   0.161   7.059  2.0841 -0.6524 -0.2701
41046SOL     OW27593   4.134   8.897   4.377 -0.4909  0.2879 -0.5505
41046SOL    HW127594   4.072   8.881   4.448 -0.0108  1.0594  0.0633
41046SOL    HW227595   4.094   8.969   4.327  0.0161  0.9619 -0.0035
41047SOL     OW27596  10.879  10.851   3.679 -0.2940  0.2515  0.8439
41047SOL    HW127597  10.819  10.777   3.684 -0.3291  0.2237  0.0412
41047SOL    HW227598  10.956  10.817   3.634 -0.5821  0.8680 -0.1396
41048SOL     OW27599   7.511  11.039   4.550 -0.5063 -0.4166 -0.1766
41048SOL    HW127600   7.455  11.091   4.492 -0.7502 -0.6701 -0.1700
41048SOL    HW227601   7.586  11.095   4.567 -0.6386 -0.1716 -0.3902
41049SOL     OW27602   2.777  10.218   0.357 -0.6212  0.4054 -0.2976
41049SOL    HW127603   2.747  10.308   0.371 -0.6248  0.1883  1.2811
41049SOL    HW227604   2.822  10.221   0.273 -2.2956  1.4357 -1.2005
41050SOL     OW27605   5.137   4.186   0.452 -0.3281  0.8441 -0.0124
41050SOL    HW127606   5.162   4.190   0.359 -1.0576  0.6963 -0.2190
41050SOL    HW227607   5.129   4.277   0.479  1.8474  0.9427  0.4605
41051SOL     OW27608   4.036   2.167   7.796  0.0846 -0.0283  0.3399
41051SOL    HW127609   3.956   2.180   7.746  0.0126 -0.8342  0.2451
41051SOL    HW227610   4.094   2.117   7.739 -0.4894 -2.1488  1.4864
41052SOL     OW27611   2.233   5.520   8.495 -0.1872  0.0962  0.0780
41052SOL    HW127612   2.186   5.603   8.505  0.2786  0.1169  2.8147
41052SOL    HW227613   2.168   5.461   8.457 -1.1946  1.1456  0.1004
41053SOL     OW27614   5.109   7.844   3.238 -0.3848  0.3031  0.2826
41053SOL    HW127615   5.138   7.754   3.225  2.0647  0.9720  0.4574
41053SOL    HW227616   5.169   7.878   3.305 -0.9071  2.1895 -0.1528
41054SOL     OW27617   1.809   4.716   7.599  0.6883 -0.0536 -0.9227
41054SOL    HW127618   1.870   4.758   7.660 -0.6944  0.1265  0.3807
41054SOL    HW227619   1.768   4.788   7.552  2.2463 -0.2076 -2.6574
41055SOL     OW27620   1.544   0.390   8.644  0.2843 -0.0743 -0.5213
41055SOL    HW127621   1.617   0.442   8.677  1.2357 -1.8849  0.4436
41055SOL    HW227622   1.476   0.399   8.711  0.8959 -0.9604  0.2536
41056SOL     OW27623   8.464   3.812   6.576  0.0832  0.1697  0.0940
41056SOL    HW127624   8.534   3.850   6.522  0.2007 -0.0588  0.0827
41056SOL    HW227625   8.458   3.721   6.546 -0.4584  0.2824 -0.1452
41057SOL     OW27626  10.919   7.709   8.739  0.7006 -0.0856 -0.2214
41057SOL    HW127627  10.892   7.672   8.655  1.9864  0.2857 -0.8210
41057SOL    HW227628  10.984   7.648   8.773  0.3760 -0.1027  0.3937
41058SOL     OW27629   6.966   8.739   8.638  0.0911 -0.1846  0.1587
41058SOL    HW127630   6.941   8.805   8.702  1.5536 -1.2296  1.8757
41058SOL    HW227631   6.980   8.788   8.557  0.5297  1.5268  1.2248
41059SOL     OW27632   0.390   0.060   3.004  0.0159  0.4778 -0.1144
41059SOL    HW127633   0.307   0.108   2.995  0.2292  0.8611 -0.0860
41059SOL    HW227634   0.446   0.120   3.053  0.4600  0.4080 -0.5336
41060SOL     OW27635   8.361   9.477   8.472 -0.1205  0.1322 -0.1233
41060SOL    HW127636   8.320   9.559   8.445  0.8817  0.9806  0.8272
41060SOL    HW227637   8.430   9.462   8.407 -0.2591  0.0718 -0.2581
41061SOL     OW27638   6.052   8.245   9.319  0.0950  0.9085  0.0240
41061SOL    HW127639   5.982   8.182   9.305  0.3556  0.0201  2.2709
41061SOL    HW227640   6.120   8.221   9.256 -0.2800 -0.3477  0.0728
41062SOL     OW27641   5.958   6.227   1.126  0.0919  0.0251 -0.1358
41062SOL    HW127642   5.904   6.195   1.053 -0.0800  2.3007 -1.0804
41062SOL    HW227643   6.048   6.225   1.092  0.3362 -1.2405  0.5083
41063SOL     OW27644   1.676  10.777   6.834 -0.5924  0.0991 -0.1021
41063SOL    HW127645   1.597  10.821   6.866 -0.5254  0.6298 -0.6499
41063SOL    HW227646   1.739  10.848   6.821 -0.2118 -0.2599 -0.2161
41064SOL     OW27647   4.386   5.681   4.242  0.0930 -0.0927  0.2555
41064SOL    HW127648   4.481   5.683   4.250  0.0118  0.8866  1.1739
41064SOL    HW227649   4.357   5.628   4.316 -0.1664  1.3704  1.2431
41065SOL     OW27650   4.646   4.180   3.880 -1.0593  0.4752  0.5662
41065SOL    HW127651   4.738   4.186   3.856 -1.0080 -0.8143  0.4110
41065SOL    HW227652   4.600   4.173   3.796 -1.2787  0.7401  0.6613
41066SOL     OW27653  10.739   3.539   3.559  0.9981 -0.0824  0.6566
41066SOL    HW127654  10.831   3.528   3.535  1.1048  0.5049  0.7872
41066SOL    HW227655  10.741   3.578   3.646  0.6318  0.2092  0.5390
41067SOL     OW27656   2.170   8.968   2.094 -0.0503  0.0622  0.6317
41067SOL    HW127657   2.208   8.973   2.007 -1.4582  0.6664  0.0350
41067SOL    HW227658   2.109   8.894   2.090  2.0348 -1.8827  2.0219
41068SOL     OW27659  10.894   3.998  10.721 -0.7957  0.0939  0.0756
41068SOL    HW127660  10.853   3.916  10.750 -0.5658  0.6463  2.1270
41068SOL    HW227661  10.825   4.042  10.671 -1.4245 -0.6814  0.2293
41069SOL     OW27662   0.923   8.817   2.707  0.2534 -0.3330 -0.3370
41069SOL    HW127663   1.011   8.786   2.685 -0.7373 -1.4669 -3.1211
41069SOL    HW227664   0.874   8.738   2.727 -0.7524  0.0334 -1.2904
41070SOL     OW27665   9.904   0.287   1.438 -0.4284  0.4658  0.3630
41070SOL    HW127666   9.983   0.235   1.426 -2.1965 -2.4095  0.1263
41070SOL    HW227667   9.899   0.301   1.533 -2.1215 -3.9989  1.2115
41071SOL     OW27668   6.497   8.817   8.037  0.2274 -0.1665 -0.5060
41071SOL    HW127669   6.448   8.898   8.053 -0.6810 -0.9916  1.2596
41071SOL    HW227670   6.443   8.768   7.974 -1.6536 -1.2808  1.7755
41072SOL     OW27671   0.685   5.406   8.661 -0.5930  0.7712  0.5262
41072SOL    HW127672   0.672   5.476   8.725 -0.8294  1.3172 -0.1105
41072SOL    HW227673   0.744   5.344   8.705  0.0532  1.6259  0.8969
41073SOL     OW27674   3.618   9.765   7.939 -0.1719  0.1403 -0.0817
41073SOL    HW127675   3.644   9.726   7.856 -2.1850  0.5355 -0.9380
41073SOL    HW227676   3.597   9.856   7.918 -0.3336  0.3586  0.9462
41074SOL     OW27677   6.230   8.946   2.097  0.0291 -0.3844  0.1949
41074SOL    HW127678   6.252   9.039   2.107  3.2161 -0.8258 -1.2801
41074SOL    HW227679   6.278   8.903   2.167  1.0395 -1.1283 -0.9131
41075SOL     OW27680   5.372   1.813   5.094 -0.0939  0.2734  0.3061
41075SOL    HW127681   5.366   1.717   5.095  1.6420  0.0830 -1.4064
41075SOL    HW227682   5.427   1.834   5.169  0.2072 -0.1367  0.2032
41076SOL     OW27683   6.228   0.748   2.799 -0.3434  0.6520  0.2599
41076SOL    HW127684   6.154   0.808   2.805 -2.4155 -1.7135 -0.3236
41076SOL    HW227685   6.219   0.706   2.714  0.9384 -0.6326  0.7109
41077SOL     OW27686   6.320   0.961   4.074 -0.4962 -0.1158 -0.1652
41077SOL    HW127687   6.251   1.011   4.032 -1.6461 -0.1099  1.6385
41077SOL    HW227688   6.302   0.870   4.050 -1.0247 -0.0954  0.1585
41078SOL     OW27689   6.667   3.690   3.212  0.2250 -0.4785  0.0100
41078SOL    HW127690   6.762   3.703   3.205  0.1678 -0.2104 -0.3002
41078SOL    HW227691   6.631   3.733   3.134 -0.1585 -0.5024  0.1702
41079SOL     OW27692   5.589   4.798   4.975  0.2651  0.4381 -0.1893
41079SOL    HW127693   5.581   4.709   5.007 -4.0869  0.3888 -0.8411
41079SOL    HW227694   5.523   4.805   4.906  1.3154  3.8030 -1.0354
41080SOL     OW27695   2.924   8.983   5.220  0.2421 -0.2153  0.1404
41080SOL    HW127696   2.847   8.965   5.273  0.2385 -0.1363  0.1623
41080SOL    HW227697   2.892   9.034   5.146  0.4071  0.5893  0.6119
41081SOL     OW27698   5.788  10.562   2.191 -0.2572 -0.1710  0.2173
41081SOL    HW127699   5.774  10.545   2.285  0.6152 -0.3615  0.3193
41081SOL    HW227700   5.814  10.477   2.155  0.0168  0.0401 -0.0811
41082SOL     OW27701   9.509   2.951   7.671 -0.2158  0.3791 -1.1358
41082SOL    HW127702   9.583   2.895   7.647 -0.0627  0.3397 -0.5927
41082SOL    HW227703   9.456   2.957   7.592  0.7662  1.0378 -1.7674
41083SOL     OW27704   9.811   6.175   3.892 -0.1546 -0.4250  0.4769
41083SOL    HW127705   9.829   6.082   3.882  1.0685 -0.4992  2.8471
41083SOL    HW227706   9.870   6.218   3.830  0.6310 -1.1542  0.7122
41084SOL     OW27707   1.879   9.655   0.007 -0.4348  0.0535  0.0301
41084SOL    HW127708   1.972   9.639   0.026 -0.5161  0.6037  0.9538
41084SOL    HW227709   1.879   9.731  -0.052 -0.1930 -1.5117 -2.1069
41085SOL     OW27710   4.960   9.612   2.872  0.3056 -0.1252 -0.6685
41085SOL    HW127711   4.997   9.525   2.859  2.6065  0.4881  1.1820
41085SOL    HW227712   5.020   9.656   2.932 -1.3431  2.3997 -0.6873
41086SOL     OW27713   9.915   7.589  10.002  0.0173 -0.3803  0.1132
41086SOL    HW127714   9.987   7.528   9.983  1.0989  1.1276 -0.7736
41086SOL    HW227715   9.955   7.657  10.055 -1.2158 -0.4522  1.1937
41087SOL     OW27716   9.310   0.441   7.483  0.2501 -0.9567 -0.2921
41087SOL    HW127717   9.300   0.536   7.475  0.6108 -1.0027 -1.3439
41087SOL    HW227718   9.274   0.422   7.570 -0.8751 -0.0132 -0.5091
41088SOL     OW27719   6.458   2.187  10.589  0.3298 -0.4009 -0.2474
41088SOL    HW127720   6.496   2.269  10.618  2.5917 -1.7786  0.9846
41088SOL    HW227721   6.498   2.170  10.503  1.2187 -1.0009  0.2659
41089SOL     OW27722   5.872   7.391   8.672 -0.1428 -0.2522  0.4745
41089SOL    HW127723   5.947   7.373   8.614 -0.6319  0.9694 -0.5966
41089SOL    HW227724   5.894   7.475   8.713 -0.0125 -0.8928  1.7372
41090SOL     OW27725   5.842   0.104   6.901  0.2335  0.6934 -0.1394
41090SOL    HW127726   5.855   0.082   6.809 -0.2333 -0.7468  0.1034
41090SOL    HW227727   5.824   0.019   6.943  2.5278  0.9989  1.6520
41091SOL     OW27728   2.884   4.259   8.322  0.2934 -0.3202  0.5601
41091SOL    HW127729   2.853   4.214   8.401 -4.5200 -1.4414 -1.6672
41091SOL    HW227730   2.938   4.194   8.277 -3.5117 -2.9129 -0.7680
41092SOL     OW27731  10.700   3.731   0.825 -0.0159 -0.4420  0.3459
41092SOL    HW127732  10.698   3.711   0.731 -4.5687 -1.9604  0.5662
41092SOL    HW227733  10.765   3.670   0.861 -0.2832 -1.8708 -1.4492
41093SOL     OW27734   0.054   0.525   7.991 -0.0531 -0.1847 -0.0930
41093SOL    HW127735   0.115   0.454   8.007  0.5187  0.0579 -1.1162
41093SOL    HW227736   0.014   0.505   7.906 -0.6834  0.1602  0.1080
41094SOL     OW27737   6.926   0.405   3.597  0.9432 -0.5938  0.8353
41094SOL    HW127738   6.908   0.418   3.690  1.0691  2.2410  0.5469
41094SOL    HW227739   7.020   0.421   3.588  1.2882 -2.5340  0.4103
41095SOL     OW27740   0.561   8.496  10.978  0.4161 -0.2954  0.1607
41095SOL    HW127741   0.516   8.576  11.002 -1.9475 -0.7966 -2.1615
41095SOL    HW227742   0.639   8.525  10.930 -0.8163  0.6709 -1.3368
41096SOL     OW27743   3.359  10.229   0.881 -0.2446  0.1064  0.0851
41096SOL    HW127744   3.450  10.201   0.869 -0.2903 -0.0311  0.0647
41096SOL    HW227745   3.366  10.320   0.909 -0.1599  1.1598 -2.9352
41097SOL     OW27746   7.111   3.510   8.962  0.0156  0.2648 -0.0875
41097SOL    HW127747   7.176   3.441   8.950  1.5158  1.5364  0.4778
41097SOL    HW227748   7.071   3.519   8.875  0.5786 -0.5403 -0.4471
41098SOL     OW27749   4.129   4.964   4.873 -0.0571 -0.2033 -0.3251
41098SOL    HW127750   4.036   4.941   4.867  0.2373 -1.8045  0.6100
41098SOL    HW227751   4.166   4.933   4.790 -0.0659 -1.1673  0.0189
41099SOL     OW27752   7.495   3.530   4.417 -0.0422  0.5206 -0.5334
41099SOL    HW127753   7.552   3.583   4.361 -1.0318  0.5661 -1.5121
41099SOL    HW227754   7.455   3.593   4.477 -0.6062  0.7847 -1.1773
41100SOL     OW27755   8.281   5.466   5.714  1.0844  0.0096  0.0521
41100SOL    HW127756   8.268   5.550   5.758 -0.5796 -0.9006  1.4095
41100SOL    HW227757   8.343   5.419   5.770  0.4603 -0.4097  0.4064
41101SOL     OW27758   1.967  10.470   2.904 -0.0025 -0.3703 -0.2755
41101SOL    HW127759   2.005  10.408   2.967  0.1550 -0.7804 -0.7671
41101SOL    HW227760   1.919  10.533   2.958  0.2348 -0.6447  0.2623
41102SOL     OW27761   9.531   3.935   4.387 -0.1102  0.2204  0.2271
41102SOL    HW127762   9.623   3.953   4.368  0.1641 -0.0595  1.2042
41102SOL    HW227763   9.534   3.868   4.455 -1.0487 -0.0368  0.0258
41103SOL     OW27764   0.554   8.199   7.301  0.1694  0.1422 -0.0304
41103SOL    HW127765   0.477   8.189   7.358  0.1700  0.6874  0.0730
41103SOL    HW227766   0.532   8.274   7.245  1.0373  0.9534  0.6847
41104SOL     OW27767   2.116   4.525   5.347  0.1219 -0.1427 -0.5471
41104SOL    HW127768   2.179   4.454   5.355  0.5426  0.1102 -1.4611
41104SOL    HW227769   2.056   4.497   5.277  1.5352  1.2675 -2.4252
41105SOL     OW27770   0.236   5.874   8.631 -0.2462 -0.0983  0.2452
41105SOL    HW127771   0.187   5.865   8.712  0.1117  1.7331  0.7108
41105SOL    HW227772   0.235   5.787   8.592 -1.3205 -0.7639  1.6913
41106SOL     OW27773   1.799  10.662  10.227 -0.4666  0.3057  0.3410
41106SOL    HW127774   1.703  10.661  10.226 -0.5722 -0.2466  3.2898
41106SOL    HW227775   1.822  10.755  10.227 -1.0058  0.4450 -0.0317
41107SOL     OW27776   6.678   8.703  10.476 -0.6483  0.2636 -0.2482
41107SOL    HW127777   6.748   8.655  10.521 -0.5468  0.6246 -0.0153
41107SOL    HW227778   6.680   8.790  10.515 -1.0108  0.3761 -0.4773
41108SOL     OW27779   7.114   9.145   0.937  0.7507  0.1224 -0.5374
41108SOL    HW127780   7.156   9.059   0.937  0.9810  0.2306  0.1455
41108SOL    HW227781   7.077   9.154   1.025 -0.0155  0.3663 -0.8803
41109SOL     OW27782   9.466   4.689   3.796  0.3135 -0.0684 -0.2499
41109SOL    HW127783   9.540   4.630   3.785  0.9794  0.5427  0.8009
41109SOL    HW227784   9.504   4.776   3.798 -0.3776  0.2314  0.6928
41110SOL     OW27785   2.783   6.872   5.479 -0.1922 -0.2857  0.0140
41110SOL    HW127786   2.774   6.941   5.414 -0.3047 -0.8283 -0.5471
41110SOL    HW227787   2.701   6.823   5.475 -0.0381 -0.5706  0.2714
41111SOL     OW27788   3.054   4.084   2.253  0.6797 -0.5501 -0.2189
41111SOL    HW127789   2.965   4.083   2.217  1.4510 -0.4600 -2.2413
41111SOL    HW227790   3.041   4.095   2.348 -1.4209  0.2788 -0.5441
41112SOL     OW27791   6.099  11.003   4.554  0.1674  0.4186 -0.1728
41112SOL    HW127792   6.168  11.013   4.620  0.9156  0.9694 -1.0139
41112SOL    HW227793   6.032  11.066   4.578  1.1593  1.7604 -0.8202
41113SOL     OW27794   0.021   7.186   9.197 -0.1839  0.0874  0.6613
41113SOL    HW127795   0.059   7.130   9.129 -0.5360 -0.6216  1.0412
41113SOL    HW227796  -0.051   7.135   9.234 -1.8919  1.6088 -0.3954
41114SOL     OW27797   7.311   2.177   1.089 -0.1758 -0.1244  0.0557
41114SOL    HW127798   7.245   2.179   1.158  0.7743 -2.4845  1.1693
41114SOL    HW227799   7.394   2.185   1.136  0.4163  1.1209 -1.1392
41115SOL     OW27800   4.824   3.855   9.255  0.5431 -0.4762 -0.6510
41115SOL    HW127801   4.854   3.935   9.212 -0.3168 -0.2900 -0.9040
41115SOL    HW227802   4.732   3.870   9.275  1.2448  0.0839  2.7103
41116SOL     OW27803  10.040   7.148   6.930 -0.2976  0.5240  0.6471
41116SOL    HW127804  10.004   7.096   6.858  1.8051 -0.7119  0.3647
41116SOL    HW227805   9.964   7.179   6.979 -1.7268 -1.4744 -0.1505
41117SOL     OW27806   8.172   6.420   1.387  0.3966  0.0627 -0.2041
41117SOL    HW127807   8.221   6.376   1.317  0.8725 -3.3109  1.9853
41117SOL    HW227808   8.106   6.356   1.412 -0.0878  1.3747  2.0736
41118SOL     OW27809   2.624   5.574   3.437  0.0217  0.7383 -0.7560
41118SOL    HW127810   2.550   5.582   3.498 -0.4267  0.0441 -1.1884
41118SOL    HW227811   2.597   5.626   3.361  1.0744  2.5519  0.0678
41119SOL     OW27812   1.230   5.242   3.960  0.1926 -0.1614  0.0797
41119SOL    HW127813   1.305   5.198   4.000  0.6687 -0.1511 -0.7851
41119SOL    HW227814   1.237   5.333   3.988  1.3918  0.1781 -1.2314
41120SOL     OW27815  10.289   4.250   1.132  0.1586  0.3774  0.1327
41120SOL    HW127816  10.337   4.167   1.140  3.6311  2.0928 -1.0506
41120SOL    HW227817  10.268   4.257   1.039  0.1672  0.9791  0.1752
41121SOL     OW27818   2.221   2.467   5.272  0.0403 -0.1201 -0.0769
41121SOL    HW127819   2.273   2.547   5.267  0.4257 -0.4592 -2.1169
41121SOL    HW227820   2.137   2.496   5.307  0.0131  1.2787 -1.2247
41122SOL     OW27821   9.501  11.043   9.232 -0.1467  0.1419  0.3666
41122SOL    HW127822   9.424  11.082   9.272 -0.6910 -0.0800 -0.4470
41122SOL    HW227823   9.517  11.095   9.154  0.0548 -0.2992  0.1068
41123SOL     OW27824   6.012   3.485   4.670 -0.1027 -0.4909  0.5040
41123SOL    HW127825   5.940   3.491   4.608  0.0395 -1.2006  0.2524
41123SOL    HW227826   6.035   3.575   4.690 -0.8910 -0.2577  0.3945
41124SOL     OW27827   6.531   5.920   0.153  0.0862 -0.2362 -0.1088
41124SOL    HW127828   6.496   5.849   0.099 -0.4867 -0.7913  0.9569
41124SOL    HW227829   6.625   5.905   0.154 -0.1167 -1.6451  0.9700
41125SOL     OW27830   4.078   2.281   6.542 -0.2162  0.0221 -0.4614
41125SOL    HW127831   4.094   2.258   6.634  1.3836 -0.6411 -0.8772
41125SOL    HW227832   4.019   2.212   6.510  0.0167 -0.3081 -0.1923
41126SOL     OW27833   7.415   8.830   9.436  0.3354  0.2102 -0.3616
41126SOL    HW127834   7.504   8.846   9.407  0.1530  0.2073 -0.9290
41126SOL    HW227835   7.413   8.736   9.456  0.9117  0.5001  1.2742
41127SOL     OW27836   1.718   4.480   3.249  0.1313 -0.0510  0.3863
41127SOL    HW127837   1.624   4.462   3.251 -0.2090  1.5797  0.9971
41127SOL    HW227838   1.724   4.576   3.248  1.7844 -0.1208  0.5995
41128SOL     OW27839   7.224   5.760   5.705  0.3550  0.7483 -0.5187
41128SOL    HW127840   7.197   5.851   5.714  1.3903  1.0559 -0.4191
41128SOL    HW227841   7.300   5.752   5.763  0.4888 -0.0863 -0.7977
41129SOL     OW27842   2.305   9.663   0.899  0.0440  0.3509  0.1144
41129SOL    HW127843   2.301   9.754   0.930  0.2883  0.5078 -0.3101
41129SOL    HW227844   2.220   9.626   0.924 -0.2573  0.8416 -0.1644
41130SOL     OW27845   1.556   7.143   7.297  0.0502  0.2318  0.1603
41130SOL    HW127846   1.558   7.192   7.215  0.5201 -0.2087 -0.0962
41130SOL    HW227847   1.542   7.210   7.364  1.6444  0.8670 -0.0901
41131SOL     OW27848   1.720   8.947   9.203  0.7900 -0.4581 -0.7966
41131SOL    HW127849   1.803   8.908   9.232  0.0391 -1.1041  0.6311
41131SOL    HW227850   1.708   8.913   9.114  2.1565 -0.1604 -1.1207
41132SOL     OW27851   7.348   4.745   2.839  0.1092  0.2089  0.1800
41132SOL    HW127852   7.381   4.819   2.787 -1.1452  0.2213 -0.6204
41132SOL    HW227853   7.417   4.729   2.903  0.9995  1.2066 -0.4951
41133SOL     OW27854   3.923   3.513   5.947  0.3777 -0.0958  0.5709
41133SOL    HW127855   3.952   3.436   5.897  3.5413  1.2953  0.0295
41133SOL    HW227856   3.962   3.502   6.034  0.2166  0.5269  0.7293
41134SOL     OW27857   7.524   6.674   2.254  0.5374 -0.1474 -0.1141
41134SOL    HW127858   7.538   6.722   2.173  1.2401  0.7758  0.5254
41134SOL    HW227859   7.612   6.663   2.291  0.2510 -0.7401  0.4268
41135SOL     OW27860   1.502   3.962   1.022  0.0338 -0.1795 -0.4659
41135SOL    HW127861   1.551   4.044   1.013 -0.6427  0.4285  1.0323
41135SOL    HW227862   1.550   3.899   0.967  2.2381  0.4940  0.5781
41136SOL     OW27863   2.215  10.674   9.060 -0.1574 -0.0946  0.3741
41136SOL    HW127864   2.260  10.675   9.144  0.8925 -0.0932 -0.1671
41136SOL    HW227865   2.281  10.703   8.997 -0.5583 -1.2416 -0.6136
41137SOL     OW27866   6.769   6.096   2.158 -0.0047 -0.3764  0.5827
41137SOL    HW127867   6.827   6.135   2.092 -0.8149  0.7085  0.4706
41137SOL    HW227868   6.826   6.043   2.213  0.9254 -0.1082 -0.1069
41138SOL     OW27869   0.899   1.120   9.247  0.0557  0.5616  0.1329
41138SOL    HW127870   0.892   1.209   9.212 -2.8341  0.7179  0.8927
41138SOL    HW227871   0.872   1.064   9.174 -0.7631  0.5081  0.4744
41139SOL     OW27872   5.432   2.787   8.533 -0.1761  0.2402  0.7759
41139SOL    HW127873   5.423   2.756   8.623 -0.0177 -0.4687  0.5575
41139SOL    HW227874   5.343   2.788   8.498 -0.2658  0.7523  1.0123
41140SOL     OW27875   9.946   6.186   1.736 -0.0692 -0.2851  0.2572
41140SOL    HW127876   9.952   6.104   1.687  0.0916  0.4014 -0.8975
41140SOL    HW227877  10.005   6.246   1.691 -0.0701  0.4288  1.1778
41141SOL     OW27878   9.794   4.480   0.246  1.1973 -0.1622  0.3807
41141SOL    HW127879   9.801   4.524   0.161 -0.8684 -1.2767 -0.4534
41141SOL    HW227880   9.844   4.400   0.237 -0.5959 -1.2366 -0.5400
41142SOL     OW27881  10.522  10.623   9.677 -0.0282  0.2628 -0.4877
41142SOL    HW127882  10.534  10.650   9.768 -0.3658 -0.6660 -0.1556
41142SOL    HW227883  10.457  10.684   9.642 -1.8450 -0.8922  0.6576
41143SOL     OW27884  10.322   6.401   7.171  0.0983  0.0564 -0.1117
41143SOL    HW127885  10.361   6.341   7.233 -0.0445  0.9452  0.8631
41143SOL    HW227886  10.239   6.360   7.146 -0.4260  0.2634  1.2369
41144SOL     OW27887   0.532   3.736   7.058 -0.7849 -0.0209 -0.0386
41144SOL    HW127888   0.463   3.736   6.991 -0.5120  0.0909 -0.3208
41144SOL    HW227889   0.572   3.823   7.051 -2.0397  0.7592  1.6056
41145SOL     OW27890   4.909   4.190   5.964 -0.9175  0.5540 -0.2856
41145SOL    HW127891   4.927   4.221   6.053 -1.1753 -0.7233  0.2318
41145SOL    HW227892   4.842   4.123   5.975 -0.7179  0.1456 -1.4142
41146SOL     OW27893   5.973   1.988   6.523 -0.0828 -0.0511 -0.0918
41146SOL    HW127894   6.015   1.912   6.562 -0.7109 -0.1964  0.3174
41146SOL    HW227895   6.045   2.038   6.484  0.4117 -0.5023  0.2292
41147SOL     OW27896   8.943   7.613   1.964  0.3175 -0.2743 -0.4056
41147SOL    HW127897   8.970   7.555   1.894 -0.6463 -1.2191 -0.0203
41147SOL    HW227898   8.848   7.603   1.969  0.2541  0.4938  0.4060
41148SOL     OW27899   0.972   8.347   9.388 -0.2772 -0.0145  0.0916
41148SOL    HW127900   1.061   8.331   9.418 -0.2228  0.5393  0.2418
41148SOL    HW227901   0.961   8.291   9.311  0.4295  0.4205 -0.3277
41149SOL     OW27902   2.193   9.242   2.883 -0.6404 -0.0838  0.4337
41149SOL    HW127903   2.102   9.221   2.865 -0.1739 -1.8767  0.0262
41149SOL    HW227904   2.225   9.170   2.937  0.3035  0.9742  1.3657
41150SOL     OW27905   9.076   4.385   4.929 -0.1637 -0.8975 -0.1040
41150SOL    HW127906   9.039   4.336   4.855  0.7742 -1.0800 -0.4704
41150SOL    HW227907   9.170   4.377   4.917  0.0327  1.1038 -0.2599
41151SOL     OW27908   3.957   4.664   5.660  0.1992  0.3072 -0.3315
41151SOL    HW127909   3.983   4.756   5.657  0.5103  0.2255 -0.1197
41151SOL    HW227910   4.021   4.619   5.605  0.2331  0.1711 -0.1799
41152SOL     OW27911   9.229   1.756   9.419 -0.2304 -0.1527 -1.2146
41152SOL    HW127912   9.166   1.804   9.366  0.7017  5.0340  1.6775
41152SOL    HW227913   9.314   1.772   9.376  0.1462  1.4142  0.0245
41153SOL     OW27914   1.559   3.264   1.871 -0.6765 -0.0521  0.3520
41153SOL    HW127915   1.495   3.335   1.871  0.5851  1.1332 -0.4774
41153SOL    HW227916   1.512   3.189   1.908 -3.2554  0.1483 -2.1174
41154SOL     OW27917   9.446   2.308   0.144  0.1159 -0.0164  0.5609
41154SOL    HW127918   9.429   2.341   0.056  1.5541 -0.9703 -0.1069
41154SOL    HW227919   9.386   2.234   0.154 -1.6985  1.4635  1.3134
41155SOL     OW27920   6.904   0.304   7.804 -0.1362 -0.9372 -0.1380
41155SOL    HW127921   6.936   0.393   7.814  0.0685 -0.9674 -0.5294
41155SOL    HW227922   6.921   0.281   7.713  0.0424 -1.4662  0.0197
41156SOL     OW27923   9.479   8.621   7.285 -0.0403  0.1461 -0.1441
41156SOL    HW127924   9.496   8.658   7.198  0.0823  1.5434  0.4585
41156SOL    HW227925   9.563   8.586   7.314 -0.0880 -0.3491 -0.5868
41157SOL     OW27926   3.996   4.013   9.697 -0.7007  0.0176 -0.2666
41157SOL    HW127927   3.939   4.049   9.765 -0.1552  0.6314 -0.1192
41157SOL    HW227928   3.957   3.929   9.674 -0.2803 -0.7294  1.6003
41158SOL     OW27929   4.188   2.662  10.764 -0.5433  0.1149 -0.6504
41158SOL    HW127930   4.114   2.706  10.807 -0.1447 -0.7261  0.9711
41158SOL    HW227931   4.164   2.569  10.764  0.3314 -0.1204 -0.4627
41159SOL     OW27932   3.787   6.789   6.129 -0.0896 -0.8404  0.5003
41159SOL    HW127933   3.875   6.796   6.167 -0.0250  2.9907 -0.0252
41159SOL    HW227934   3.728   6.792   6.204  0.1685 -0.5583  0.6918
41160SOL     OW27935   1.683   2.084   3.632 -0.3038  0.3358 -0.1588
41160SOL    HW127936   1.743   2.148   3.671 -0.4144  0.3313  0.0199
41160SOL    HW227937   1.709   2.079   3.540  0.0323  0.2641 -0.0592
41161SOL     OW27938  10.570   2.170   9.403 -0.3148 -0.0482 -0.6737
41161SOL    HW127939  10.493   2.160   9.459 -0.0059 -0.0693 -0.2480
41161SOL    HW227940  10.590   2.263   9.407  0.7105 -0.2989  0.6137
41162SOL     OW27941   5.257   4.106   3.857  0.2440  0.2932  0.5405
41162SOL    HW127942   5.175   4.121   3.811  1.6294 -0.9449 -2.5995
41162SOL    HW227943   5.294   4.193   3.870 -0.8389  0.7524  0.6237
41163SOL     OW27944   8.493   5.028   8.858  0.1753  0.4827 -0.0826
41163SOL    HW127945   8.481   5.114   8.898  1.0877  0.6432 -0.1213
41163SOL    HW227946   8.528   4.973   8.928 -1.5865 -0.2208  0.2852
41164SOL     OW27947   6.464   8.706   7.354 -0.0112  0.0806  0.1681
41164SOL    HW127948   6.388   8.652   7.331  0.6331 -0.3556 -1.0169
41164SOL    HW227949   6.427   8.788   7.384 -0.9513 -0.0852 -0.5089
41165SOL     OW27950   2.347   1.063   7.937 -0.2490  0.2610 -0.2410
41165SOL    HW127951   2.268   1.011   7.923 -1.0281  0.5556  2.4262
41165SOL    HW227952   2.325   1.150   7.905 -0.1853 -0.1569 -1.4884
41166SOL     OW27953   8.721   3.994   7.282  0.0225 -0.3569 -0.1482
41166SOL    HW127954   8.777   4.031   7.350 -0.0362  0.2956 -0.4468
41166SOL    HW227955   8.781   3.955   7.219  0.0650 -1.2484  0.4351
41167SOL     OW27956   3.256   9.066   2.542 -0.2329  0.1814  0.4301
41167SOL    HW127957   3.259   9.130   2.470  0.3570  0.8837  1.0545
41167SOL    HW227958   3.348   9.053   2.566 -0.3345 -1.0565  0.2026
41168SOL     OW27959  11.052   3.573   2.212  0.0612 -0.3505 -0.7132
41168SOL    HW127960  10.960   3.568   2.186 -0.0785 -2.0417 -0.0231
41168SOL    HW227961  11.097   3.515   2.150  0.3080 -1.3201  0.3523
41169SOL     OW27962   2.828   0.771   4.355  0.2350 -0.6323 -0.9414
41169SOL    HW127963   2.861   0.717   4.427  1.6731  1.4574  0.0552
41169SOL    HW227964   2.776   0.839   4.398  1.6907  1.0653 -1.7517
41170SOL     OW27965   2.841   7.089   3.927  0.7888 -0.3219 -0.3111
41170SOL    HW127966   2.854   7.053   4.015  2.2453  1.1865  0.1422
41170SOL    HW227967   2.840   7.012   3.870 -0.2474 -1.3317  1.0174
41171SOL     OW27968   8.457   9.860   3.034 -0.9066  0.1842  0.4188
41171SOL    HW127969   8.393   9.908   3.086 -1.4878  0.8770 -0.8882
41171SOL    HW227970   8.495   9.925   2.976 -2.4609 -1.0005 -2.1394
41172SOL     OW27971   8.739   9.174   1.079 -0.0118  0.1629 -0.6575
41172SOL    HW127972   8.716   9.084   1.104  0.6159 -0.4028 -2.0065
41172SOL    HW227973   8.793   9.206   1.151  1.2163 -1.1764 -0.9353
41173SOL     OW27974   3.299   0.745   9.775 -0.2469  0.0139 -0.0314
41173SOL    HW127975   3.273   0.806   9.706 -2.5752  0.1035  0.8539
41173SOL    HW227976   3.387   0.773   9.799 -0.8864  2.4818 -0.2841
41174SOL     OW27977  11.068   3.263   9.946  0.1030  0.0042 -0.3009
41174SOL    HW127978  11.028   3.343   9.982 -0.5085 -0.5923  0.3632
41174SOL    HW227979  11.125   3.231  10.016 -0.8565 -0.9942  0.0458
41175SOL     OW27980   9.464   9.581   0.179  0.3775 -0.3409 -0.2012
41175SOL    HW127981   9.393   9.638   0.208  1.5197  1.3895 -0.6980
41175SOL    HW227982   9.420   9.515   0.126 -1.2849 -1.4199  2.2822
41176SOL     OW27983  10.882   4.685   9.312 -0.8422  0.0990  0.6804
41176SOL    HW127984  10.887   4.700   9.407  1.4757 -1.1270  0.8338
41176SOL    HW227985  10.889   4.590   9.303 -0.4339  0.2508 -0.7410
41177SOL     OW27986   0.124   4.343   9.209 -0.0810 -0.0689 -0.1295
41177SOL    HW127987   0.116   4.248   9.201  0.2711 -0.1561  0.4370
41177SOL    HW227988   0.157   4.373   9.125  0.6503 -0.5557 -0.0157
41178SOL     OW27989   4.901   5.077   8.393  0.0111  0.0772 -0.6397
41178SOL    HW127990   4.989   5.078   8.430 -0.1146  0.2025 -0.3383
41178SOL    HW227991   4.889   5.165   8.358  0.4373 -0.2863 -1.7202
41179SOL     OW27992  10.456   2.990  10.449  0.1393  0.1026 -0.4594
41179SOL    HW127993  10.435   2.983  10.356  1.8484  0.2703 -0.8982
41179SOL    HW227994  10.496   2.906  10.471 -0.9388 -0.2137  0.3237
41180SOL     OW27995   6.228   0.481   3.545  0.4944  0.1110 -0.4115
41180SOL    HW127996   6.181   0.550   3.499  0.8319  1.3567  1.0393
41180SOL    HW227997   6.317   0.486   3.512  0.1060 -0.9155 -1.6856
41181SOL     OW27998   3.865   8.040   1.299  0.3373 -0.2106  0.1910
41181SOL    HW127999   3.902   8.005   1.379 -2.0945 -0.1186  1.4552
41181SOL    HW228000   3.875   7.969   1.235  1.6227 -0.5728  0.7616
41182SOL     OW28001  10.782   2.123   0.555  0.2760 -0.0289  0.5002
41182SOL    HW128002  10.800   2.031   0.574 -0.2857 -0.3797 -0.5828
41182SOL    HW228003  10.714   2.121   0.488 -0.0409  1.1862  0.7602
41183SOL     OW28004   4.531   3.925   5.781 -0.4386 -0.4254  0.0762
41183SOL    HW128005   4.583   3.882   5.848 -0.1010  1.3826  1.0382
41183SOL    HW228006   4.462   3.861   5.759  2.3990 -3.1643 -1.7090
41184SOL     OW28007   5.372   5.059   8.268 -0.2021 -0.5033 -0.1577
41184SOL    HW128008   5.435   5.080   8.198  0.0566  0.0882  0.2529
41184SOL    HW228009   5.396   4.970   8.294  0.3882 -0.3330 -0.0927
41185SOL     OW28010   9.723   4.758   4.861 -0.2049  0.3465 -0.1119
41185SOL    HW128011   9.678   4.750   4.776  0.3182  0.4270 -0.3998
41185SOL    HW228012   9.674   4.699   4.919 -0.4498  0.1395 -0.5178
41186SOL     OW28013   0.249   0.582   0.171 -0.2119  0.1295  0.1566
41186SOL    HW128014   0.223   0.572   0.080 -0.4225  1.7337  0.0100
41186SOL    HW228015   0.262   0.677   0.183 -1.1997  0.0864  2.0457
41187SOL     OW28016  10.603   8.299   7.888  0.6381  0.0979 -0.1303
41187SOL    HW128017  10.543   8.300   7.962  0.8682  0.6295  0.0548
41187SOL    HW228018  10.610   8.207   7.863  2.2279 -0.3954  1.8702
41188SOL     OW28019   5.975   7.283  10.022  0.1282 -1.0097  0.2287
41188SOL    HW128020   5.903   7.343  10.005  0.0235 -1.0400  0.5700
41188SOL    HW228021   6.053   7.332   9.996 -0.0449 -1.1211 -0.5148
41189SOL     OW28022   5.686   8.172   0.931  0.3580  0.7434 -0.4896
41189SOL    HW128023   5.755   8.237   0.925  0.0128  0.9723 -4.1783
41189SOL    HW228024   5.617   8.204   0.873 -0.5725 -2.0227 -1.0671
41190SOL     OW28025   1.362  10.896   6.547 -0.2704 -0.2856 -0.0008
41190SOL    HW128026   1.271  10.926   6.538  0.1371  0.9833 -0.1265
41190SOL    HW228027   1.414  10.972   6.522  0.8348 -1.0380 -0.0393
41191SOL     OW28028   9.895   0.212   2.166  0.0229  0.3491  0.1188
41191SOL    HW128029   9.818   0.184   2.116  2.0893 -1.2631 -2.4586
41191SOL    HW228030   9.947   0.133   2.176  0.6113  0.9935  3.4335
41192SOL     OW28031   7.396  10.737   6.904  0.4831 -0.2178  0.0690
41192SOL    HW128032   7.446  10.656   6.918 -0.1490 -0.5275  0.5777
41192SOL    HW228033   7.425  10.795   6.975 -0.5151 -0.7154  0.9073
41193SOL     OW28034   3.078   7.830   8.355 -0.5145  0.0027  0.5710
41193SOL    HW128035   3.053   7.739   8.342 -1.9818  0.3582  0.6365
41193SOL    HW228036   3.144   7.848   8.289  0.0422 -1.1974  0.7860
41194SOL     OW28037   9.453   5.542   0.225 -0.0055  0.8261  0.6277
41194SOL    HW128038   9.549   5.540   0.226  0.0735 -1.3374 -1.5923
41194SOL    HW228039   9.428   5.518   0.314  1.5276  0.3096  0.9545
41195SOL     OW28040   3.247   5.679   0.979 -0.5589 -0.0517  0.1617
41195SOL    HW128041   3.321   5.729   0.946  0.3555 -0.9308  0.8103
41195SOL    HW228042   3.210   5.732   1.049  1.1414 -0.7467  1.6652
41196SOL     OW28043   8.978   2.096   2.564  0.1852  0.4842 -0.0793
41196SOL    HW128044   8.921   2.050   2.501  0.7903 -0.4337  0.0256
41196SOL    HW228045   8.976   2.187   2.536  0.4509  0.0910 -1.4596
41197SOL     OW28046  10.581   7.967   4.446  0.0248  0.0934 -0.1188
41197SOL    HW128047  10.491   7.993   4.467  0.1428  0.2443  0.1973
41197SOL    HW228048  10.636   8.027   4.496  0.3044 -0.0296 -0.2756
41198SOL     OW28049   6.128  10.249   3.899 -0.4618 -0.0348  0.2524
41198SOL    HW128050   6.203  10.205   3.938  0.3977  0.7859 -0.4106
41198SOL    HW228051   6.116  10.205   3.814 -0.5090  0.0628  0.2085
41199SOL     OW28052   5.199   0.462  10.026  0.4798 -0.6439  0.2293
41199SOL    HW128053   5.113   0.429  10.002  0.0907 -0.1781  0.9593
41199SOL    HW228054   5.249   0.383  10.049 -0.3058 -0.7765  1.5453
41200SOL     OW28055   8.555   6.304   8.348 -0.0544  0.3547  0.0770
41200SOL    HW128056   8.613   6.331   8.419 -0.5392  3.1411 -0.4694
41200SOL    HW228057   8.479   6.265   8.391  1.1647 -1.3005  0.8679
41201SOL     OW28058   9.885   7.883   8.829  0.1527  0.5414 -0.4084
41201SOL    HW128059   9.960   7.847   8.877 -0.1014 -1.9464 -1.6849
41201SOL    HW228060   9.866   7.817   8.762 -2.7384  1.4181 -0.5887
41202SOL     OW28061   5.670   2.988   6.353 -0.3072 -0.0486  0.6146
41202SOL    HW128062   5.731   3.036   6.296 -0.5838  0.4905  0.7726
41202SOL    HW228063   5.586   3.030   6.339 -0.7163 -0.9885  0.1716
41203SOL     OW28064   5.905   4.449   9.221  0.2464 -0.0703  1.1710
41203SOL    HW128065   5.866   4.521   9.171  1.9010  0.6684  0.8526
41203SOL    HW228066   5.846   4.375   9.207 -0.0324  0.4597 -0.8397
41204SOL     OW28067   4.261   2.641   5.556  0.2911 -0.0595 -0.3608
41204SOL    HW128068   4.276   2.642   5.461 -0.9030  2.7117 -0.6118
41204SOL    HW228069   4.167   2.632   5.565  0.0811  2.2266  0.3982
41205SOL     OW28070   5.791   2.343   5.589 -0.1078  0.1972 -0.4205
41205SOL    HW128071   5.751   2.415   5.541 -0.2097 -0.1160 -0.8122
41205SOL    HW228072   5.719   2.303   5.637 -0.5259 -1.0708 -2.0045
41206SOL     OW28073   2.951   6.252   8.219  0.3988 -0.2235 -0.3939
41206SOL    HW128074   2.942   6.225   8.128  0.2188  0.0839 -0.4692
41206SOL    HW228075   2.909   6.183   8.270 -0.8841  0.3560 -0.6328
41207SOL     OW28076   4.087   2.013   5.401 -0.4778 -0.0764  0.2588
41207SOL    HW128077   4.065   2.103   5.376 -3.2224 -0.5542  0.6242
41207SOL    HW228078   4.107   1.969   5.318  3.0041  1.2502  0.2320
41208SOL     OW28079   7.692   2.694   0.875  0.2311 -0.5140  0.1354
41208SOL    HW128080   7.634   2.744   0.818  1.3672 -0.2845 -0.8762
41208SOL    HW228081   7.703   2.749   0.953  0.3757  0.1908 -0.3718
41209SOL     OW28082   1.051   8.308   0.739 -0.3866 -0.2012  0.4967
41209SOL    HW128083   1.063   8.401   0.758  1.8785 -0.5910  1.2483
41209SOL    HW228084   1.133   8.267   0.766 -0.7840 -2.2321 -1.1089
41210SOL     OW28085   7.572   4.521   9.227  0.4391 -0.2665  0.0816
41210SOL    HW128086   7.514   4.597   9.237  0.2927 -0.5634  1.6893
41210SOL    HW228087   7.638   4.550   9.164  0.5874  1.3541  0.9173
41211SOL     OW28088   1.505  10.210   7.533  0.2678  0.2677  0.6105
41211SOL    HW128089   1.547  10.154   7.468  0.9921  1.5753 -0.0768
41211SOL    HW228090   1.535  10.174   7.617  0.7745 -0.3310  0.1881
41212SOL     OW28091   8.418   7.798   4.400  0.4015  0.0727  0.2802
41212SOL    HW128092   8.408   7.724   4.341 -2.1675  0.8565 -0.3993
41212SOL    HW228093   8.343   7.792   4.459  1.1423  1.1242  1.3928
41213SOL     OW28094   9.390   7.758   4.741  0.2855  0.2131 -0.5786
41213SOL    HW128095   9.422   7.847   4.750  0.2051  0.3322 -1.4249
41213SOL    HW228096   9.332   7.760   4.665 -0.1773 -0.4317 -0.2584
41214SOL     OW28097  10.820   3.290   4.410 -0.3152 -0.5693  0.2600
41214SOL    HW128098  10.726   3.285   4.428 -0.6306 -0.8232 -1.2776
41214SOL    HW228099  10.827   3.356   4.341  0.7366 -0.0168  0.8727
41215SOL     OW28100   6.938   3.289   2.909 -0.3570 -0.8038 -0.0953
41215SOL    HW128101   6.925   3.384   2.914  0.2812 -0.7239  0.1280
41215SOL    HW228102   6.988   3.275   2.829 -0.2151 -0.9198  0.0120
41216SOL     OW28103   7.200   9.263   7.152 -0.2626 -0.4955 -0.0246
41216SOL    HW128104   7.244   9.322   7.090 -1.8361  0.1735 -0.5664
41216SOL    HW228105   7.159   9.197   7.097 -0.9553 -0.3985  0.3675
41217SOL     OW28106   4.096   5.256   5.782 -0.8546 -0.2067  0.2102
41217SOL    HW128107   4.004   5.232   5.791 -0.7729  0.0294  2.1116
41217SOL    HW228108   4.144   5.178   5.811 -0.3952 -0.6927 -1.7169
41218SOL     OW28109   4.565   6.563  10.819 -0.6354 -0.1209 -0.6756
41218SOL    HW128110   4.488   6.512  10.794  0.2143 -0.7571 -2.1251
41218SOL    HW228111   4.623   6.500  10.862 -0.1980 -0.0497 -1.1531
41219SOL     OW28112   1.803   7.631   6.184 -0.1558 -0.2584  0.0872
41219SOL    HW128113   1.859   7.556   6.203  0.4883 -0.3894 -2.0764
41219SOL    HW228114   1.863   7.706   6.186 -0.2004 -0.1968 -0.6517
41220SOL     OW28115   1.275   1.435   8.198  0.2372  0.1927 -0.1781
41220SOL    HW128116   1.313   1.392   8.274  0.6893 -0.3269 -0.6912
41220SOL    HW228117   1.195   1.476   8.232 -0.1763 -0.9894  0.3495
41221SOL     OW28118   7.337   4.696   0.030 -0.3700 -0.1615 -0.2610
41221SOL    HW128119   7.357   4.735  -0.055  1.3070  1.0609  0.6474
41221SOL    HW228120   7.269   4.631   0.011 -0.8823  0.8994 -2.3335
41222SOL     OW28121   8.431   0.293  10.057  0.1767  0.2699 -0.1081
41222SOL    HW128122   8.502   0.293   9.992  3.0437 -0.3632  2.7383
41222SOL    HW228123   8.457   0.360  10.120 -0.4998 -1.5549  2.2378
41223SOL     OW28124   0.159   1.077   4.607  0.3751 -0.2214 -0.2300
41223SOL    HW128125   0.177   1.030   4.688  0.8745  0.4227  0.0404
41223SOL    HW228126   0.222   1.149   4.606  0.6587 -0.4628 -1.3913
41224SOL     OW28127   1.584   7.757   0.330 -0.7517 -0.8309 -0.0996
41224SOL    HW128128   1.563   7.703   0.406  2.0086 -4.0712 -1.4103
41224SOL    HW228129   1.508   7.747   0.272 -2.1948  0.4228  1.4911
41225SOL     OW28130   1.154   0.084   5.801  0.2776  0.1398  0.1991
41225SOL    HW128131   1.178   0.132   5.880  0.0788  0.9357 -0.2203
41225SOL    HW228132   1.150   0.150   5.733 -1.8480 -0.1527 -0.0072
41226SOL     OW28133  10.100   7.326   7.409  0.2486 -0.0479 -0.4563
41226SOL    HW128134  10.128   7.246   7.363  1.5332  0.8070 -1.2301
41226SOL    HW228135  10.006   7.330   7.395  0.0512 -1.7552  0.1454
41227SOL     OW28136   1.575   3.885   1.955  0.3319  0.3525  0.0370
41227SOL    HW128137   1.605   3.886   1.864 -0.8999 -0.7561 -0.4171
41227SOL    HW228138   1.546   3.795   1.970  0.1567  0.6157  1.4122
41228SOL     OW28139   5.596   1.463  10.617  0.5062  0.5865 -0.3948
41228SOL    HW128140   5.658   1.452  10.689 -0.5916  2.1771  0.8893
41228SOL    HW228141   5.570   1.555  10.622 -0.6731  0.3853 -1.9626
41229SOL     OW28142  10.180   9.337   8.225  0.7971 -0.0239  0.3777
41229SOL    HW128143  10.129   9.391   8.285 -1.4920  0.9574 -2.2199
41229SOL    HW228144  10.236   9.400   8.179  0.1684 -0.2180 -0.6996
41230SOL     OW28145   5.581   0.546  10.081 -0.0411  0.0271  0.2517
41230SOL    HW128146   5.656   0.539  10.139  0.3447  0.5624 -0.1698
41230SOL    HW228147   5.510   0.502  10.128 -0.0947  1.5739  1.7257
41231SOL     OW28148   6.227   8.453   2.194 -0.0190  0.8643 -0.3458
41231SOL    HW128149   6.315   8.469   2.162  0.5406  0.0002  0.6818
41231SOL    HW228150   6.200   8.372   2.151  0.9210 -0.5663  1.5758
41232SOL     OW28151   8.783   8.795   3.844  0.0486 -0.2392  0.2360
41232SOL    HW128152   8.825   8.868   3.891 -0.4097 -0.0332  0.3392
41232SOL    HW228153   8.837   8.783   3.766  2.9519 -2.8916  2.3961
41233SOL     OW28154  11.000   9.795   8.378 -0.0362 -0.2102  0.6011
41233SOL    HW128155  11.073   9.770   8.433  1.1095 -0.7137 -1.0876
41233SOL    HW228156  11.004   9.891   8.375 -0.0214 -0.1854  1.2360
41234SOL     OW28157   3.814   9.257   2.057  0.0570  0.0200  0.0506
41234SOL    HW128158   3.889   9.303   2.094 -1.2754  0.8287  1.8745
41234SOL    HW228159   3.758   9.326   2.022 -0.8675 -0.3709  0.7247
41235SOL     OW28160   4.888   0.686   1.736 -0.1519  0.5427  0.4152
41235SOL    HW128161   4.888   0.701   1.641  0.2716 -2.9838 -0.2793
41235SOL    HW228162   4.923   0.598   1.746  1.5530  1.4556  4.0336
41236SOL     OW28163   0.907   2.709   0.586  0.7751 -0.2437  0.5864
41236SOL    HW128164   0.824   2.752   0.604 -0.9130 -2.8672 -0.2512
41236SOL    HW228165   0.930   2.738   0.497  0.2541 -0.1860  0.4650
41237SOL     OW28166   4.601   7.475   5.250  0.1616  0.3297 -0.0833
41237SOL    HW128167   4.514   7.506   5.276  0.4233  1.4645 -0.5040
41237SOL    HW228168   4.584   7.400   5.193 -0.4822 -0.4924  1.1372
41238SOL     OW28169   2.305   7.448   5.377  0.2226  0.1853 -0.6683
41238SOL    HW128170   2.341   7.362   5.353  1.2593  0.5529 -0.4750
41238SOL    HW228171   2.366   7.482   5.443 -0.1979  1.0578 -0.7140
41239SOL     OW28172   8.842   0.697   3.116 -0.2048  0.0059  0.4531
41239SOL    HW128173   8.906   0.762   3.088 -1.3494  1.3765  0.9252
41239SOL    HW228174   8.825   0.645   3.037  0.0779  0.8461 -0.1796
41240SOL     OW28175   2.635   3.136   7.752  0.4283 -0.2880 -0.1020
41240SOL    HW128176   2.590   3.052   7.742  0.5338 -0.5420  1.3389
41240SOL    HW228177   2.706   3.133   7.688 -0.5178 -0.6228 -1.1651
41241SOL     OW28178   0.823   1.334   4.519  0.0542  0.7547 -0.4624
41241SOL    HW128179   0.768   1.380   4.582 -0.5000  2.8362 -2.3488
41241SOL    HW228180   0.897   1.301   4.571 -0.8302  1.5692  1.4067
41242SOL     OW28181   8.670   9.688  10.571 -0.4537  0.0135  0.2980
41242SOL    HW128182   8.723   9.764  10.594 -0.1691 -0.5502  1.6256
41242SOL    HW228183   8.587   9.723  10.540 -0.0267  0.8725  0.1144
41243SOL     OW28184  10.756   1.843   0.603 -0.2642 -0.2018 -0.4060
41243SOL    HW128185  10.755   1.771   0.540  0.4716  0.8776 -1.7003
41243SOL    HW228186  10.750   1.800   0.688  0.1485 -1.7945 -1.1429
41244SOL     OW28187   2.985   3.277   6.352 -0.3432  0.4576  0.3933
41244SOL    HW128188   3.071   3.236   6.342 -0.5410 -0.1079  0.9860
41244SOL    HW228189   2.931   3.236   6.284 -0.6010 -0.4471  1.1264
41245SOL     OW28190   9.506   4.567   5.651  0.0503 -0.5855 -0.5995
41245SOL    HW128191   9.542   4.531   5.732  0.1363  0.8258  0.0196
41245SOL    HW228192   9.493   4.660   5.670 -3.0199 -0.8023 -1.1069
41246SOL     OW28193   7.668   4.615   8.164 -0.0699 -0.3053 -0.2835
41246SOL    HW128194   7.576   4.603   8.185  0.0492 -0.4438  0.1597
41246SOL    HW228195   7.708   4.644   8.246  0.3040 -0.3720 -0.4402
41247SOL     OW28196   0.513  10.635   3.324 -0.1415 -0.8544  0.3572
41247SOL    HW128197   0.566  10.607   3.250  0.4295 -1.0222  0.8244
41247SOL    HW228198   0.524  10.566   3.389 -0.3644 -0.5439  0.7312
41248SOL     OW28199   9.210   8.394   9.558 -0.2973 -0.0807 -0.1576
41248SOL    HW128200   9.266   8.327   9.517  1.6617  0.9694  0.6605
41248SOL    HW228201   9.132   8.397   9.503  0.5551 -1.4470 -1.5237
41249SOL     OW28202   8.355  10.723   9.546 -0.8535 -0.0033  0.3397
41249SOL    HW128203   8.417  10.676   9.490 -1.3300  0.5537 -0.6642
41249SOL    HW228204   8.409  10.784   9.596 -0.5811  0.4841 -0.5333
41250SOL     OW28205  10.005   1.600   0.461 -0.4004  0.2246  0.3755
41250SOL    HW128206  10.072   1.532   0.454  1.0840  1.4116  1.9179
41250SOL    HW228207  10.018   1.637   0.549  0.0902  3.6667 -0.9891
41251SOL     OW28208   5.362   1.882   9.690  0.3248 -0.2836  0.2903
41251SOL    HW128209   5.383   1.955   9.749 -1.3201  0.7619 -0.3303
41251SOL    HW228210   5.269   1.893   9.671  0.4793 -1.4453 -1.3551
41252SOL     OW28211   2.479   7.347   7.801  0.0924  0.5349 -0.2828
41252SOL    HW128212   2.554   7.406   7.797  1.9906 -1.6087  1.1955
41252SOL    HW228213   2.417   7.390   7.860  0.1747  2.2646 -1.3932
41253SOL     OW28214   1.439   0.952   7.336 -0.2124  0.0640 -0.4403
41253SOL    HW128215   1.487   1.020   7.287  0.3706  0.8225  1.1113
41253SOL    HW228216   1.502   0.920   7.400 -1.1717 -0.3901  0.2970
41254SOL     OW28217   8.688   0.978   6.263  0.4909  0.1566  0.5388
41254SOL    HW128218   8.623   1.009   6.200 -1.5888 -1.7696  1.6307
41254SOL    HW228219   8.722   0.898   6.224  0.3837 -0.1712  1.1106
41255SOL     OW28220   5.392   3.302   9.706 -0.2350 -0.0232 -0.0255
41255SOL    HW128221   5.430   3.256   9.632  1.0498 -0.4733  0.8723
41255SOL    HW228222   5.452   3.375   9.723 -1.1324  0.7550 -0.1366
41256SOL     OW28223  10.909   2.582   8.156 -0.1362  0.5729  0.0149
41256SOL    HW128224  10.867   2.578   8.241  0.7700 -0.2463  0.4515
41256SOL    HW228225  10.951   2.496   8.146 -0.1287  0.6928 -1.2076
41257SOL     OW28226   3.179   6.690   1.698  0.2921  0.3162  0.0558
41257SOL    HW128227   3.218   6.617   1.650 -0.0448 -0.5185  1.0136
41257SOL    HW228228   3.092   6.659   1.722  0.8846  0.2258  2.2448
41258SOL     OW28229   4.654   2.454   9.242 -0.0422  0.0609  0.3801
41258SOL    HW128230   4.712   2.420   9.174  2.4268 -1.9055  3.2066
41258SOL    HW228231   4.675   2.547   9.247  1.6561 -0.2783  0.1431
41259SOL     OW28232   4.039  10.730   2.606  0.7331  0.0845 -0.3143
41259SOL    HW128233   4.067  10.821   2.603 -0.9144  0.6223 -0.2120
41259SOL    HW228234   3.994  10.715   2.523 -0.3894 -0.1570  0.3228
41260SOL     OW28235   3.863   9.881   3.987  0.1856  0.7774 -0.4994
41260SOL    HW128236   3.894   9.969   4.009  0.8651  0.0524  1.6993
41260SOL    HW228237   3.926   9.822   4.030 -0.3728 -0.7865 -1.7375
41261SOL     OW28238   7.318   7.309   9.527 -0.0130 -0.0326  0.2907
41261SOL    HW128239   7.389   7.286   9.587 -0.6416 -0.8071  0.7523
41261SOL    HW228240   7.266   7.229   9.520  0.5679 -0.2891 -2.0344
41262SOL     OW28241   7.835  10.142   3.428 -0.0507  0.5869 -0.2894
41262SOL    HW128242   7.806  10.101   3.346 -0.5611  1.6839 -0.6806
41262SOL    HW228243   7.899  10.081   3.464  0.1367  0.0481 -1.4747
41263SOL     OW28244   8.822   6.202   2.268 -0.2088 -0.3129 -0.2159
41263SOL    HW128245   8.808   6.199   2.362 -0.7199  2.7996 -0.0734
41263SOL    HW228246   8.737   6.180   2.230  0.3001 -2.8050 -0.0753
41264SOL     OW28247   3.457   9.936   9.219  0.7157 -0.0488 -0.1190
41264SOL    HW128248   3.403   9.969   9.147  2.6277 -0.2984 -1.7476
41264SOL    HW228249   3.456   9.841   9.209  1.4684 -0.0547 -0.1723
41265SOL     OW28250   7.005   1.290   6.969 -0.2630 -0.1078 -0.0344
41265SOL    HW128251   6.920   1.251   6.984 -0.3885  1.0642  3.1099
41265SOL    HW228252   6.987   1.384   6.959  0.5735  0.0762  0.0859
41266SOL     OW28253   5.192   0.265   3.261  0.1037 -0.7785  0.4940
41266SOL    HW128254   5.229   0.326   3.324 -0.7288  0.0074  0.2522
41266SOL    HW228255   5.223   0.179   3.289  0.6705 -0.3271  1.2925
41267SOL     OW28256   7.816   8.020   2.557 -0.4468 -0.3897 -0.0061
41267SOL    HW128257   7.725   7.994   2.569 -0.3770 -0.8463 -0.4210
41267SOL    HW228258   7.826   8.030   2.463  0.5791 -2.8971 -0.2476
41268SOL     OW28259   0.189  10.046   5.778  0.1039  0.1251 -0.2738
41268SOL    HW128260   0.148  10.054   5.864 -0.0482  1.4597 -0.4383
41268SOL    HW228261   0.259  10.112   5.779  0.0500  0.2082 -1.1832
41269SOL     OW28262   7.262   5.978   7.769  0.1572 -0.0114 -0.0400
41269SOL    HW128263   7.231   6.068   7.760 -0.3533  0.2172  2.8120
41269SOL    HW228264   7.349   5.978   7.729 -0.3958  1.3629 -1.3255
41270SOL     OW28265   1.459   2.279   6.453  0.0104 -0.4149 -0.3207
41270SOL    HW128266   1.491   2.338   6.385  1.1415 -0.4964  0.1108
41270SOL    HW228267   1.453   2.194   6.409 -1.3405 -0.0653 -0.8638
41271SOL     OW28268   2.779   5.246   9.484  0.3159 -0.0418  0.0693
41271SOL    HW128269   2.806   5.212   9.399  0.3011 -1.3359  0.5565
41271SOL    HW228270   2.693   5.285   9.468  0.5955  0.2954 -0.6290
41272SOL     OW28271   5.779   5.074  10.461  0.4899 -0.2246  0.2826
41272SOL    HW128272   5.820   5.145  10.411 -1.0665 -0.3403 -1.2420
41272SOL    HW228273   5.802   5.093  10.552  0.7423  1.8171 -0.1503
41273SOL     OW28274   7.608   9.426   3.268 -0.4043 -0.2388 -0.2521
41273SOL    HW128275   7.534   9.371   3.244 -1.1670  0.5968  0.1225
41273SOL    HW228276   7.602   9.502   3.210 -0.4579  0.3235  0.4710
41274SOL     OW28277   1.683   0.367   4.132 -0.1804 -0.2690  0.0721
41274SOL    HW128278   1.773   0.401   4.139  0.3396 -1.3185 -1.1040
41274SOL    HW228279   1.692   0.273   4.145 -1.0665 -0.4230 -0.3926
41275SOL     OW28280   1.197   2.914   4.425  0.1878  0.5365 -0.3731
41275SOL    HW128281   1.179   2.969   4.349 -1.1695 -0.0187 -0.4801
41275SOL    HW228282   1.147   2.835   4.410 -0.9472  0.8296  1.5629
41276SOL     OW28283   6.290   8.355   9.684 -0.3429  0.0516  0.0187
41276SOL    HW128284   6.221   8.290   9.697  2.2487 -2.7036  1.2086
41276SOL    HW228285   6.313   8.347   9.591 -0.3893 -0.3975  0.0441
41277SOL     OW28286   0.985   4.865   5.412 -0.3833 -0.2852  0.0592
41277SOL    HW128287   0.933   4.785   5.408 -1.7498  0.6079 -1.2140
41277SOL    HW228288   0.950   4.920   5.341 -0.7129  2.1459  1.9564
41278SOL     OW28289   7.467   6.351   7.611  0.0277 -0.0168 -0.5322
41278SOL    HW128290   7.430   6.413   7.547 -1.6669  0.1434  0.5423
41278SOL    HW228291   7.411   6.273   7.604  1.9400 -1.3705 -1.6417
41279SOL     OW28292   3.224   4.435   8.583 -0.0912  0.1811 -0.2828
41279SOL    HW128293   3.197   4.425   8.492  0.9439 -0.5483 -0.5312
41279SOL    HW228294   3.320   4.441   8.578 -0.1234  3.4102  0.4699
41280SOL     OW28295   8.744  10.163   9.714  0.2303 -0.6138 -0.2094
41280SOL    HW128296   8.689  10.152   9.791  0.5781  0.7809  0.2684
41280SOL    HW228297   8.693  10.127   9.642 -1.4061  0.8182  0.1794
41281SOL     OW28298   7.165   6.213   7.666 -0.0169  0.5072  1.0807
41281SOL    HW128299   7.206   6.221   7.580  2.1526  2.0476  2.1549
41281SOL    HW228300   7.145   6.303   7.691  0.6499  0.2291  2.7290
41282SOL     OW28301   4.716   0.468  10.683 -0.1078 -0.0361  0.0666
41282SOL    HW128302   4.712   0.401  10.751 -1.5195  0.2205  0.2709
41282SOL    HW228303   4.640   0.451  10.627  0.6643  0.1566 -1.0758
41283SOL     OW28304   1.720   1.805   6.762 -0.2711 -0.3475 -0.5428
41283SOL    HW128305   1.670   1.882   6.733 -0.4469 -0.0426  0.5288
41283SOL    HW228306   1.711   1.805   6.857  1.1130 -0.7398 -0.3842
41284SOL     OW28307   7.333   4.801   7.300  0.6535  0.2720 -0.4242
41284SOL    HW128308   7.385   4.840   7.229  1.0053 -0.1073 -0.3771
41284SOL    HW228309   7.316   4.874   7.360  0.9137  0.4516 -0.5658
41285SOL     OW28310   8.112   6.412   4.268  0.3299 -0.1516  0.1735
41285SOL    HW128311   8.198   6.430   4.306  0.4016  0.2413 -0.1723
41285SOL    HW228312   8.110   6.317   4.257  0.5534 -0.2045  0.5717
41286SOL     OW28313   7.360   5.118   8.927  0.2634  0.2114  0.2831
41286SOL    HW128314   7.435   5.093   8.874  1.3044  1.4218  1.1432
41286SOL    HW228315   7.397   5.157   9.005 -1.2064 -2.0829  2.2711
41287SOL     OW28316   0.165  10.461   4.067  0.0710 -0.0184 -0.2356
41287SOL    HW128317   0.129  10.396   4.128 -0.7634 -0.5610 -1.2782
41287SOL    HW228318   0.258  10.439   4.061  0.6864  1.3676  2.4575
41288SOL     OW28319   7.560   7.535   8.998  0.3515  0.1127 -0.0172
41288SOL    HW128320   7.518   7.512   8.915  1.1582 -1.1814 -0.0854
41288SOL    HW228321   7.503   7.497   9.065  0.5230 -0.2032 -0.0475
41289SOL     OW28322   5.883   0.013   8.621  0.0804 -0.2633  0.3767
41289SOL    HW128323   5.820   0.077   8.586 -1.0507 -0.6204  1.6747
41289SOL    HW228324   5.877  -0.061   8.560 -0.8259 -0.3266  0.5292
41290SOL     OW28325   4.446   8.922   8.824  0.4501 -0.1992 -0.8480
41290SOL    HW128326   4.419   8.892   8.737  0.2474  0.4659 -1.0152
41290SOL    HW228327   4.469   8.841   8.871 -0.1834 -0.6334 -1.2653
41291SOL     OW28328   2.322   7.646   7.556  0.5215  0.3645 -0.4689
41291SOL    HW128329   2.286   7.559   7.540  0.6990  0.1968  0.0229
41291SOL    HW228330   2.250   7.706   7.537 -0.2439 -0.0032  1.1680
41292SOL     OW28331  10.263   0.095   3.876  0.1758  0.2448  0.2379
41292SOL    HW128332  10.295   0.005   3.870  0.2834  0.2502  0.7086
41292SOL    HW228333  10.338   0.145   3.909 -0.1490  0.3527  0.8235
41293SOL     OW28334  10.894   2.097  10.871  0.5377 -0.7724 -0.8567
41293SOL    HW128335  10.908   2.033  10.801  1.3547 -1.0079 -0.4867
41293SOL    HW228336  10.981   2.136  10.885  0.7293 -1.8103  1.0885
41294SOL     OW28337   1.801   5.472   0.096  0.2252 -0.3441 -0.3140
41294SOL    HW128338   1.850   5.472   0.178  0.3383 -0.5937 -0.3782
41294SOL    HW228339   1.709   5.468   0.122  0.2756 -0.9443 -0.1992
41295SOL     OW28340   6.582   1.784  10.557 -0.1469 -0.4631  0.0591
41295SOL    HW128341   6.646   1.835  10.508 -1.6248  2.0669  0.5574
41295SOL    HW228342   6.633   1.738  10.623  1.4237 -0.7277 -1.2793
41296SOL     OW28343   1.079   6.627   5.054  0.0680 -0.3490 -0.0430
41296SOL    HW128344   1.035   6.710   5.036  0.2484 -0.4434 -0.9198
41296SOL    HW228345   1.079   6.621   5.150  0.2172  0.7455  0.0358
41297SOL     OW28346   3.274   5.888   6.411 -0.5723  0.0169 -0.3015
41297SOL    HW128347   3.248   5.871   6.502 -2.3967 -1.0672 -0.9714
41297SOL    HW228348   3.303   5.804   6.377 -0.5449  0.2713 -0.9308
41298SOL     OW28349   4.486   3.682  10.827 -0.0195 -0.1030  0.2194
41298SOL    HW128350   4.418   3.750  10.824  0.6642  0.5702 -1.0207
41298SOL    HW228351   4.438   3.600  10.816 -0.5683  0.4458 -2.1551
41299SOL     OW28352  10.270   9.138   5.671  0.8095 -0.0920 -0.2891
41299SOL    HW128353  10.362   9.131   5.643  0.9313 -0.0379  0.0829
41299SOL    HW228354  10.224   9.174   5.595  0.6464 -2.3745 -1.3262
41300SOL     OW28355   8.426   8.207   7.599  0.4750 -0.2337 -0.0367
41300SOL    HW128356   8.496   8.244   7.546  0.4677 -1.1958 -0.7390
41300SOL    HW228357   8.466   8.132   7.642  0.4556  0.4701  1.2639
41301SOL     OW28358  10.672   7.815   1.466  0.1884  0.8412 -0.0093
41301SOL    HW128359  10.766   7.828   1.481  0.4043 -1.2741  0.7314
41301SOL    HW228360  10.630   7.859   1.540  0.6429  0.9686  0.1744
41302SOL     OW28361   5.636   4.128   1.595  0.2206  0.1165 -0.0598
41302SOL    HW128362   5.647   4.040   1.630  1.1316  0.3867  0.3688
41302SOL    HW228363   5.562   4.121   1.535  0.9056 -1.1727 -0.7986
41303SOL     OW28364   7.372   3.914   7.483 -0.5756 -0.7366  0.0550
41303SOL    HW128365   7.359   3.841   7.422 -0.7826  0.3579 -1.2380
41303SOL    HW228366   7.327   3.886   7.563  0.2473 -2.4750 -0.0402
41304SOL     OW28367   2.351   5.690   1.494 -0.1846 -0.1396 -0.3505
41304SOL    HW128368   2.272   5.636   1.494  0.8147 -1.6886 -1.9638
41304SOL    HW228369   2.321   5.775   1.459 -1.2106 -0.5684 -0.5586
41305SOL     OW28370   9.891   0.533   1.307 -0.2289 -0.7837  0.3658
41305SOL    HW128371   9.922   0.443   1.319 -1.3799 -0.9996  2.1600
41305SOL    HW228372   9.839   0.530   1.227  1.3343 -1.2305 -0.6747
41306SOL     OW28373  10.121   2.176   1.696  0.5995  0.4716 -0.1566
41306SOL    HW128374  10.087   2.242   1.635  0.1827  1.5644  1.2068
41306SOL    HW228375  10.042   2.130   1.727  0.6327  1.0164  0.7658
41307SOL     OW28376   0.207   2.395   6.281  0.1341  0.4314 -0.1044
41307SOL    HW128377   0.276   2.378   6.346  1.1298 -1.3691 -1.5501
41307SOL    HW228378   0.129   2.409   6.334  1.1138  0.0907  1.5224
41308SOL     OW28379   2.834   2.184   2.516 -0.0479  0.5863  0.6042
41308SOL    HW128380   2.760   2.143   2.472  0.7149 -0.5453  0.3232
41308SOL    HW228381   2.860   2.121   2.583  1.1048  0.6206  0.2202
41309SOL     OW28382   8.780  10.494  11.012 -0.3218 -0.1345  0.3245
41309SOL    HW128383   8.866  10.488  11.053 -0.2553 -2.1348 -0.0019
41309SOL    HW228384   8.718  10.496  11.085 -0.1331 -2.1107  0.5803
41310SOL     OW28385   9.429   7.863   9.206  0.8123 -0.4255  0.1913
41310SOL    HW128386   9.523   7.874   9.219  0.9520 -2.1267  0.8895
41310SOL    HW228387   9.418   7.769   9.191 -0.7581 -0.2300 -0.0244
41311SOL     OW28388   9.113   4.480   8.624  0.8150  0.3835  0.2657
41311SOL    HW128389   9.077   4.543   8.687  0.5376  0.5084 -0.0128
41311SOL    HW228390   9.203   4.465   8.653  0.1177 -1.0702  1.8664
41312SOL     OW28391   1.764  10.740   9.361  0.0331  0.4846  0.2100
41312SOL    HW128392   1.712  10.660   9.359 -0.5282  0.8142  1.0700
41312SOL    HW228393   1.746  10.779   9.446  1.8509  0.5176  0.6333
41313SOL     OW28394  10.933   5.456   1.507  0.1064 -0.0224  0.5064
41313SOL    HW128395  10.999   5.388   1.496  0.0934 -0.6023  3.2341
41313SOL    HW228396  10.980   5.538   1.496  0.3574 -0.3951 -1.6754
41314SOL     OW28397   6.566   2.929   9.951  0.2090 -0.1567 -0.2409
41314SOL    HW128398   6.478   2.966   9.956  0.4045  0.1062  1.6913
41314SOL    HW228399   6.552   2.835   9.958  0.1451 -0.0443  1.4296
41315SOL     OW28400   1.438   2.214   2.541 -0.1338 -0.1517 -0.1652
41315SOL    HW128401   1.372   2.145   2.536 -2.3146  1.6898  1.2697
41315SOL    HW228402   1.397   2.290   2.500  0.3984  1.4817  2.1198
41316SOL     OW28403   1.449   4.569   7.911 -0.3949 -0.1897  0.3649
41316SOL    HW128404   1.455   4.546   8.003 -0.7624 -0.3171  0.3590
41316SOL    HW228405   1.413   4.658   7.911 -0.8878 -0.3870  0.3315
41317SOL     OW28406   9.101   7.426   9.706 -0.3106 -0.0120  0.2415
41317SOL    HW128407   9.085   7.434   9.800 -0.5082  1.1836  0.1224
41317SOL    HW228408   9.079   7.336   9.685  0.9239 -0.6639  1.5596
41318SOL     OW28409   1.107   0.114   8.803  0.4829  0.0112  0.7844
41318SOL    HW128410   1.128   0.188   8.747  1.7711 -1.3515 -0.6252
41318SOL    HW228411   1.011   0.112   8.806  0.4214  2.1950  1.5601
41319SOL     OW28412   9.480   6.267   3.413 -1.0130  0.3673  0.0547
41319SOL    HW128413   9.565   6.281   3.455 -1.7194  1.4062  1.1824
41319SOL    HW228414   9.484   6.176   3.381  0.0952  0.0190  1.1099
41320SOL     OW28415  10.360   4.771   0.596 -0.4933  0.2059  0.3829
41320SOL    HW128416  10.280   4.764   0.650 -0.8644  0.7007 -0.0915
41320SOL    HW228417  10.391   4.860   0.611  0.5316 -0.2844  1.3209
41321SOL     OW28418  10.512   0.918   2.896 -0.1560 -0.0242 -0.3650
41321SOL    HW128419  10.521   0.995   2.951  2.0401 -0.4199 -0.0666
41321SOL    HW228420  10.544   0.846   2.950  1.0661 -0.5838 -1.7356
41322SOL     OW28421   4.871   1.696   9.410  0.0896  0.2087 -0.1942
41322SOL    HW128422   4.870   1.602   9.393  0.3921  0.5984 -2.6977
41322SOL    HW228423   4.963   1.721   9.403 -0.2079  0.9833 -1.6241
41323SOL     OW28424   6.378   1.574  10.563 -0.5987  0.3740 -0.0320
41323SOL    HW128425   6.366   1.522  10.484 -0.7035 -0.7507  0.6907
41323SOL    HW228426   6.456   1.628  10.546 -0.6587  0.1915 -0.9075
41324SOL     OW28427   5.439   4.380   0.785 -0.8211  0.4996  0.2093
41324SOL    HW128428   5.347   4.377   0.810 -1.6442  0.6380 -2.5060
41324SOL    HW228429   5.440   4.352   0.694  1.6170  2.0841 -0.3432
41325SOL     OW28430   1.604   0.980   5.726 -0.0610  0.3740 -0.0830
41325SOL    HW128431   1.623   0.945   5.813 -2.1623  0.5480  0.5021
41325SOL    HW228432   1.690   0.996   5.688  0.9675 -2.1655  0.9176
41326SOL     OW28433   6.705   0.103   4.804  1.0928 -0.2650  0.3127
41326SOL    HW128434   6.743   0.186   4.774  0.7461 -0.1503  0.1906
41326SOL    HW228435   6.769   0.068   4.866  1.5598 -0.2353 -0.1432
41327SOL     OW28436   0.982   8.585   3.815  0.2753  0.2382 -0.2047
41327SOL    HW128437   0.908   8.596   3.874  0.9202 -0.2564  0.7090
41327SOL    HW228438   1.022   8.502   3.841  0.6299  0.0485 -1.2787
41328SOL     OW28439   8.633   9.948   4.876  0.3671 -0.0566  0.1205
41328SOL    HW128440   8.670   9.911   4.957  1.6114  1.5434  0.3290
41328SOL    HW228441   8.703   9.937   4.811  0.2923  0.8116 -0.1160
41329SOL     OW28442   0.975  10.365   6.988  0.7766 -0.3224  0.7150
41329SOL    HW128443   0.931  10.367   7.073 -0.6506 -0.5686  0.0263
41329SOL    HW228444   1.018  10.279   6.985 -1.5745 -1.5762  0.1003
41330SOL     OW28445   8.829   3.794   3.313  0.4561  0.6419 -0.1436
41330SOL    HW128446   8.922   3.819   3.315  1.0968 -1.4592 -1.1346
41330SOL    HW228447   8.789   3.843   3.385  2.6237  0.4641  1.2546
41331SOL     OW28448   5.469   1.310   8.863 -0.6318 -0.2393  0.0639
41331SOL    HW128449   5.514   1.239   8.908 -0.5009  1.5238  2.9756
41331SOL    HW228450   5.483   1.387   8.918 -2.2364  1.6932 -2.0041
41332SOL     OW28451  10.537  10.661   1.872 -0.2817 -0.2394 -0.0874
41332SOL    HW128452  10.527  10.569   1.899  1.4027  0.3272  2.9779
41332SOL    HW228453  10.626  10.665   1.837  0.4124  0.5262  1.6553
41333SOL     OW28454   6.505  10.641   3.534 -0.1285 -0.1046 -0.5083
41333SOL    HW128455   6.580  10.617   3.589  0.0954  0.7432 -0.4277
41333SOL    HW228456   6.461  10.711   3.583  0.1878  0.8068 -1.4739
41334SOL     OW28457   2.536   2.076   6.559 -0.3169  0.6658 -0.4886
41334SOL    HW128458   2.615   2.064   6.612  1.2829 -0.7566 -2.9630
41334SOL    HW228459   2.568   2.082   6.469 -2.9448  1.8291 -1.4558
41335SOL     OW28460   1.381   3.267  10.053  0.5784 -0.6140  0.4521
41335SOL    HW128461   1.452   3.326  10.031  0.0894 -0.1130  0.1860
41335SOL    HW228462   1.377   3.270  10.149  0.5182 -0.1593  0.4405
41336SOL     OW28463   2.411   5.951   1.009  0.2541 -0.1596 -0.1530
41336SOL    HW128464   2.405   5.922   1.100  0.7442 -0.8474 -0.3290
41336SOL    HW228465   2.498   5.923   0.981  1.2261  2.4521 -0.0241
41337SOL     OW28466   0.699   7.837   8.658 -0.0997 -0.2451  0.5081
41337SOL    HW128467   0.741   7.923   8.652  1.6921 -0.9845  1.4346
41337SOL    HW228468   0.745   7.793   8.729 -0.0019 -2.4684 -0.8176
41338SOL     OW28469   5.154   7.962   7.086  0.1559 -0.4941  0.0931
41338SOL    HW128470   5.093   7.983   7.015  0.9104  0.8253 -0.1875
41338SOL    HW228471   5.241   7.975   7.047  0.6211 -1.6516  0.6977
41339SOL     OW28472   2.711   8.096   4.200 -0.3767 -0.0336 -0.4243
41339SOL    HW128473   2.740   8.065   4.114  0.1804  1.5028 -0.8221
41339SOL    HW228474   2.637   8.153   4.181 -0.4156  0.1053  0.1398
41340SOL     OW28475   3.227   9.181   2.781 -0.1263 -1.1460  0.2048
41340SOL    HW128476   3.253   9.150   2.694  0.3900  1.1733 -0.5380
41340SOL    HW228477   3.303   9.231   2.812 -1.0171 -0.3256  1.1376
41341SOL     OW28478   7.404   9.090  10.861  0.4005 -0.0284 -0.2958
41341SOL    HW128479   7.489   9.134  10.858  2.2452 -3.0318  1.8771
41341SOL    HW228480   7.373   9.103  10.951 -1.0233  0.2450 -0.8018
41342SOL     OW28481   3.522   5.309   1.426  0.2515 -0.0311  0.5501
41342SOL    HW128482   3.533   5.375   1.358  0.4167 -0.4300  0.1873
41342SOL    HW228483   3.433   5.324   1.460 -0.4459 -0.8176 -0.8229
41343SOL     OW28484   0.178   7.395   2.685  0.3666  0.3388  0.1136
41343SOL    HW128485   0.233   7.469   2.707  1.0122 -0.3721  0.9495
41343SOL    HW228486   0.094   7.413   2.729  0.4018  0.7414  0.0151
41344SOL     OW28487   6.424   9.161  10.658 -0.3522 -0.7809 -0.7664
41344SOL    HW128488   6.395   9.210  10.581  0.6214  0.3279 -0.4553
41344SOL    HW228489   6.348   9.161  10.716 -0.1994  0.8998 -0.5230
41345SOL     OW28490   8.166   4.335   3.728 -0.0105  0.1223 -0.6595
41345SOL    HW128491   8.245   4.370   3.687  1.1190 -2.7726 -1.2255
41345SOL    HW228492   8.150   4.392   3.804  1.1481  2.2207 -1.9001
41346SOL     OW28493   8.121   3.516   1.881 -0.4400 -0.1206 -0.0380
41346SOL    HW128494   8.150   3.571   1.808  0.6845 -0.4669  0.1349
41346SOL    HW228495   8.085   3.437   1.839  0.2568 -0.3453 -0.2205
41347SOL     OW28496   0.617   5.675   8.074 -0.3258 -0.0821 -0.1690
41347SOL    HW128497   0.668   5.626   8.138 -0.1385 -1.5194 -1.3476
41347SOL    HW228498   0.669   5.753   8.056  0.7344 -0.7698 -0.2132
41348SOL     OW28499   5.435   5.810   6.653 -0.0889 -0.0460 -0.5702
41348SOL    HW128500   5.350   5.766   6.648 -0.4223  0.4457  0.4422
41348SOL    HW228501   5.499   5.739   6.663 -0.4822 -0.3631 -0.3094
41349SOL     OW28502   8.058   5.970   7.572 -0.0282  0.3218 -0.5280
41349SOL    HW128503   8.023   5.985   7.660  1.0557  2.9877 -0.4554
41349SOL    HW228504   8.127   6.036   7.563  0.9591 -0.9370 -2.8097
41350SOL     OW28505   6.567   3.082   8.886 -0.2303 -0.0435  0.1215
41350SOL    HW128506   6.646   3.047   8.928 -1.1101  0.2948  2.1892
41350SOL    HW228507   6.588   3.173   8.867  0.5457 -0.4822 -1.1890
41351SOL     OW28508   8.349   2.369   0.775 -0.1773 -0.2466  0.6002
41351SOL    HW128509   8.440   2.340   0.777  0.3608  1.1072 -1.4270
41351SOL    HW228510   8.352   2.459   0.808 -0.8876 -0.3919  1.0870
41352SOL     OW28511   8.613   8.430   9.480  0.1060  0.0822  0.2145
41352SOL    HW128512   8.573   8.403   9.397  2.5483  0.1699 -1.0641
41352SOL    HW228513   8.639   8.348   9.522 -2.4789 -0.0740  1.7207
41353SOL     OW28514   6.150   5.702   8.137  0.8182  0.4003 -0.2792
41353SOL    HW128515   6.233   5.669   8.171  0.5503  0.6679  0.6794
41353SOL    HW228516   6.175   5.772   8.076  1.3005  0.4356 -0.0453
41354SOL     OW28517   9.330   3.454   9.330  0.1301  0.1696  0.0096
41354SOL    HW128518   9.324   3.419   9.241 -0.5315 -0.8204  0.4239
41354SOL    HW228519   9.410   3.507   9.329 -1.2969  2.5217 -1.9455
41355SOL     OW28520   3.224   9.552   8.573 -0.0936  0.3582 -0.1607
41355SOL    HW128521   3.177   9.634   8.556 -2.6059 -0.5414  1.7576
41355SOL    HW228522   3.175   9.512   8.646  2.0368 -2.0659  0.0544
41356SOL     OW28523   1.718   2.063   7.015 -0.5876 -0.2164  0.2116
41356SOL    HW128524   1.758   1.981   7.043 -0.9121 -0.0520  1.2174
41356SOL    HW228525   1.625   2.043   7.005 -0.7578  0.1324  0.9765
41357SOL     OW28526  10.662   8.715   6.102 -0.3774  0.5607 -0.1974
41357SOL    HW128527  10.673   8.656   6.028  0.6573 -1.3661  1.4014
41357SOL    HW228528  10.570   8.705   6.127 -0.2497 -0.2812 -0.0320
41358SOL     OW28529   5.773   2.092   2.979 -0.2705 -0.1521 -0.1825
41358SOL    HW128530   5.806   2.005   3.001 -0.4326 -0.1534  0.0646
41358SOL    HW228531   5.780   2.097   2.884 -3.9068 -1.9571 -0.7376
41359SOL     OW28532   4.267   2.516   5.079  0.4010  0.2380 -0.3702
41359SOL    HW128533   4.202   2.448   5.060  0.8411  0.2468 -2.0304
41359SOL    HW228534   4.290   2.552   4.993  3.7259 -0.7908 -0.0544
41360SOL     OW28535   9.084   2.254   1.497 -0.8363  0.8109  0.8283
41360SOL    HW128536   9.092   2.295   1.410  0.9455 -0.0147  0.5381
41360SOL    HW228537   9.105   2.324   1.558 -2.3574  1.4686  0.6365
41361SOL     OW28538  10.171   9.355   9.903  0.2679 -0.0835  0.1852
41361SOL    HW128539  10.190   9.441   9.940  1.2354 -0.5045  0.6989
41361SOL    HW228540  10.126   9.308   9.973  0.7253 -0.3623  0.2968
41362SOL     OW28541   0.654   4.767   4.689 -0.4084  0.5890 -0.0308
41362SOL    HW128542   0.590   4.697   4.676 -0.8179  1.2195 -1.6916
41362SOL    HW228543   0.601   4.844   4.710 -0.1426  0.9141 -0.5326
41363SOL     OW28544   7.132   6.728   2.659  0.3643 -0.5037 -0.1215
41363SOL    HW128545   7.171   6.769   2.582 -0.9442 -1.2324 -1.1954
41363SOL    HW228546   7.041   6.713   2.636  0.6018 -3.4327  0.4387
41364SOL     OW28547  10.195   4.529   9.836  0.2226  0.0496  0.2572
41364SOL    HW128548  10.152   4.473   9.900  0.2369 -1.4450 -0.9868
41364SOL    HW228549  10.288   4.519   9.854  0.2304 -0.4369 -0.0388
41365SOL     OW28550   6.459   9.482   0.822  0.5124  0.2425  0.3864
41365SOL    HW128551   6.422   9.553   0.769  0.3915  0.2187  0.4383
41365SOL    HW228552   6.546   9.467   0.785 -1.0310 -2.6343 -2.6205
41366SOL     OW28553   4.568   5.631   2.178 -0.1090  0.3567 -0.2332
41366SOL    HW128554   4.489   5.679   2.203 -1.0095 -0.4233 -1.4485
41366SOL    HW228555   4.535   5.552   2.136  1.3426 -0.4724  0.1371
41367SOL     OW28556   6.502   9.493   4.495 -0.1757  0.1203  0.3539
41367SOL    HW128557   6.456   9.419   4.455  0.1134 -0.4393  1.0495
41367SOL    HW228558   6.457   9.508   4.578  1.0615 -0.6430  1.1984
41368SOL     OW28559   7.236   9.088   1.444  0.0226  0.1260  0.3199
41368SOL    HW128560   7.192   9.173   1.446  1.5376  1.0182 -1.4443
41368SOL    HW228561   7.218   9.053   1.357  0.7662 -0.6182  0.4489
41369SOL     OW28562   1.050   9.922   8.953  0.0119  0.1927 -0.5645
41369SOL    HW128563   1.041   9.997   9.011 -0.7038 -0.3027 -0.0145
41369SOL    HW228564   1.014   9.849   9.003  0.1828 -0.4112 -1.3059
41370SOL     OW28565   2.587   5.819   9.771 -0.6947 -0.0200  0.5412
41370SOL    HW128566   2.630   5.885   9.717 -3.2860  2.7300  1.6106
41370SOL    HW228567   2.638   5.818   9.852 -0.9202  1.0897  0.7127
41371SOL     OW28568  10.393   5.729   4.145  0.2123  0.3301  0.4891
41371SOL    HW128569  10.457   5.741   4.215 -0.6305 -1.1398  1.5686
41371SOL    HW228570  10.312   5.766   4.179  0.3426  1.8461 -0.7257
41372SOL     OW28571   0.005   0.569  10.447 -0.5797 -0.0451  0.1604
41372SOL    HW128572   0.062   0.545  10.373  0.6383 -1.2802  1.4523
41372SOL    HW228573   0.049   0.644  10.487  1.2792 -2.0923  2.2523
41373SOL     OW28574   5.683   6.037   1.599  0.1586 -0.5987  0.1212
41373SOL    HW128575   5.616   6.092   1.557 -0.8846 -2.4536 -0.7658
41373SOL    HW228576   5.732   6.098   1.654 -2.5205  0.7923  1.1832
41374SOL     OW28577  10.983   9.448   6.509  0.3515  0.5673  0.4550
41374SOL    HW128578  10.937   9.420   6.588 -0.4966  2.4588  0.6814
41374SOL    HW228579  11.036   9.373   6.485 -0.1056 -0.4049  2.2708
41375SOL     OW28580   1.683   8.926   2.237  0.4214 -0.3296 -0.2913
41375SOL    HW128581   1.669   8.859   2.303 -0.2887 -0.1475 -0.2524
41375SOL    HW228582   1.771   8.908   2.203  1.1895  0.1354  1.3455
41376SOL     OW28583   3.846   1.507  10.209 -0.0617  0.3002  0.6828
41376SOL    HW128584   3.806   1.592  10.193  0.2204  0.0337 -1.8144
41376SOL    HW228585   3.876   1.511  10.300  0.3643  3.0369  0.4949
41377SOL     OW28586   9.016   2.282   3.936  0.7639  0.4421  0.5864
41377SOL    HW128587   9.058   2.255   3.854 -1.2630  1.1170 -0.7763
41377SOL    HW228588   8.991   2.373   3.921 -1.9484 -0.1574  0.8724
41378SOL     OW28589   3.084   7.400   0.695  0.4141  0.0447  0.4101
41378SOL    HW128590   3.022   7.367   0.759 -0.2034 -1.0868 -0.7410
41378SOL    HW228591   3.046   7.482   0.664  0.5644  0.4380  1.2235
41379SOL     OW28592  10.967   6.121   2.106 -0.4244  0.3469 -0.2413
41379SOL    HW128593  10.989   6.082   2.021  1.2268  1.0899 -0.1880
41379SOL    HW228594  11.052   6.135   2.148 -1.2339 -0.5987  1.8323
41380SOL     OW28595   1.767   6.161   8.507 -0.0755 -0.3663  0.4826
41380SOL    HW128596   1.835   6.101   8.536 -0.6858 -1.6865 -0.7099
41380SOL    HW228597   1.812   6.246   8.500  1.1823 -0.9847  0.7160
41381SOL     OW28598   4.538   6.792   3.988 -0.2447  0.2347 -0.1007
41381SOL    HW128599   4.621   6.748   4.007  0.3796  0.7680 -1.4538
41381SOL    HW228600   4.544   6.876   4.033  0.6554  0.9357 -1.4608
41382SOL     OW28601   5.067  10.445   1.747  0.3941 -0.2451 -0.4802
41382SOL    HW128602   5.157  10.461   1.774 -0.0610  0.3942  0.7639
41382SOL    HW228603   5.067  10.357   1.710  1.4429 -0.4144 -0.0996
41383SOL     OW28604   4.320   3.487   8.383 -0.4396  0.3421  0.5789
41383SOL    HW128605   4.234   3.485   8.341  0.1890 -0.1477 -0.7652
41383SOL    HW228606   4.326   3.575   8.422 -1.3072  0.5941  0.1692
41384SOL     OW28607  10.679   0.527   7.761  0.3258  0.2792  0.6785
41384SOL    HW128608  10.701   0.568   7.678 -0.5509  1.3121  0.9440
41384SOL    HW228609  10.615   0.460   7.739 -1.1943  1.6744  0.6903
41385SOL     OW28610   9.284   3.093   5.140 -0.0335 -0.0671  0.1227
41385SOL    HW128611   9.197   3.085   5.180  0.8166  1.4509  2.5004
41385SOL    HW228612   9.273   3.160   5.073 -0.9785 -0.8938 -0.5752
41386SOL     OW28613   4.985   8.600   5.569 -0.4743 -0.2134 -0.4992
41386SOL    HW128614   4.904   8.638   5.535 -1.2914 -0.3992  1.1543
41386SOL    HW228615   4.974   8.506   5.558 -1.8128 -0.4911  2.3052
41387SOL     OW28616   4.304   8.928   4.910  0.3551 -0.4275 -0.4934
41387SOL    HW128617   4.311   8.882   4.826 -2.1019 -1.0872 -0.4392
41387SOL    HW228618   4.352   8.872   4.971  0.2947 -1.1311 -1.0633
41388SOL     OW28619   1.318   5.074   1.656  0.1992 -0.0088  0.0210
41388SOL    HW128620   1.366   5.036   1.583  0.7934  0.1568  0.3248
41388SOL    HW228621   1.230   5.089   1.620  1.3509  3.3896 -1.8307
41389SOL     OW28622   2.349   0.029   1.095  0.0603  0.1835  0.6432
41389SOL    HW128623   2.433   0.038   1.050  1.6701 -1.8164  2.9195
41389SOL    HW228624   2.305  -0.042   1.048  1.0412 -0.8278  1.1694
41390SOL     OW28625   9.514   9.851   6.903 -0.1018  0.1018  0.7507
41390SOL    HW128626   9.449   9.784   6.880 -0.5798  0.6279  0.5405
41390SOL    HW228627   9.535   9.893   6.820  0.1416  0.2669  0.8950
41391SOL     OW28628   6.483   4.007   0.410 -0.4451  0.0579  0.3962
41391SOL    HW128629   6.458   4.025   0.501  1.1092  3.0707  0.3548
41391SOL    HW228630   6.414   4.047   0.358 -0.5742 -0.3609  0.2416
41392SOL     OW28631  10.198   3.012   1.675 -0.1228  0.2223  0.0207
41392SOL    HW128632  10.245   3.012   1.592  0.7695  0.0106  0.5096
41392SOL    HW228633  10.105   3.012   1.651  0.0096 -3.3621 -1.0192
41393SOL     OW28634   5.565   1.331   7.781 -0.0484  0.0926 -0.1066
41393SOL    HW128635   5.510   1.385   7.724 -0.2449  1.4055  1.2547
41393SOL    HW228636   5.508   1.259   7.808 -0.5696  0.5384 -0.0103
41394SOL     OW28637   3.000   9.737   7.923 -0.5980 -0.3840 -0.4564
41394SOL    HW128638   3.020   9.829   7.910 -0.4515 -0.2657  0.4785
41394SOL    HW228639   3.079   9.701   7.964 -0.8103 -0.8183 -0.4239
41395SOL     OW28640   5.118   7.176   1.523  0.4369 -0.2215  0.2386
41395SOL    HW128641   5.071   7.094   1.507  1.7168 -0.8156 -0.6719
41395SOL    HW228642   5.186   7.153   1.587  1.6856 -0.2525 -1.0392
41396SOL     OW28643   5.370   8.607   3.290  0.2477  0.2083 -0.1297
41396SOL    HW128644   5.432   8.543   3.256  1.3389  1.5124 -0.6989
41396SOL    HW228645   5.334   8.567   3.369  2.1098 -0.4549  0.4283
41397SOL     OW28646  10.379   0.327   9.325 -0.0060 -0.0035 -0.2087
41397SOL    HW128647  10.378   0.331   9.420 -0.0567  0.0491 -0.2114
41397SOL    HW228648  10.373   0.418   9.297 -2.2682 -0.1222 -0.2803
41398SOL     OW28649  10.980   1.953   2.552 -0.2635 -0.2075 -0.2520
41398SOL    HW128650  11.009   1.953   2.643 -0.6494  0.9243 -0.1208
41398SOL    HW228651  10.924   1.876   2.545 -1.9032  0.7955  1.0293
41399SOL     OW28652   4.181  10.527   3.856  0.4675 -0.4878  0.2601
41399SOL    HW128653   4.173  10.475   3.936  0.9216  0.0428  0.6571
41399SOL    HW228654   4.096  10.518   3.813 -0.1238  0.0172  1.2956
41400SOL     OW28655   9.378   1.917   8.711 -0.0269  0.0151 -0.5054
41400SOL    HW128656   9.377   1.862   8.632  0.1258 -1.7118  0.6314
41400SOL    HW228657   9.293   1.960   8.711 -0.9395 -1.6814 -0.5114
41401SOL     OW28658   2.934   0.897   5.072  0.1220  0.8299 -0.2261
41401SOL    HW128659   2.999   0.942   5.126 -0.5365  0.2970  1.0576
41401SOL    HW228660   2.865   0.873   5.134 -0.0792 -0.9228 -1.0907
41402SOL     OW28661   4.176   5.612   0.200  0.0091 -0.2931 -0.0507
41402SOL    HW128662   4.180   5.636   0.293  0.2714 -0.6861  0.0434
41402SOL    HW228663   4.236   5.538   0.192  0.3850  0.0675 -0.6378
41403SOL     OW28664  10.449   5.687   5.460 -0.3699  0.0409  0.3791
41403SOL    HW128665  10.481   5.683   5.370 -0.9042 -2.3201  0.2344
41403SOL    HW228666  10.528   5.690   5.514 -0.0420  0.9455 -0.1252
41404SOL     OW28667   6.931   2.608   6.766  0.0486  0.4614  0.0267
41404SOL    HW128668   7.005   2.553   6.790 -0.3858 -0.6523 -1.0268
41404SOL    HW228669   6.969   2.676   6.711  0.3463  0.0497 -0.2910
41405SOL     OW28670   9.193   1.038   4.231 -0.7715  0.1757  0.0071
41405SOL    HW128671   9.216   1.051   4.323  0.9885 -0.0121 -0.3666
41405SOL    HW228672   9.223   1.118   4.188 -0.6550 -0.1683 -0.5534
41406SOL     OW28673   8.932   5.663   8.128 -0.3096 -0.0940 -0.0126
41406SOL    HW128674   8.995   5.610   8.177  1.1474  0.6096 -1.0917
41406SOL    HW228675   8.984   5.717   8.070 -1.7403  2.5433  0.9818
41407SOL     OW28676   7.680   9.590   0.103  0.1324 -0.4925  0.1013
41407SOL    HW128677   7.650   9.674   0.068 -0.3191 -0.0880  1.3995
41407SOL    HW228678   7.731   9.551   0.032 -0.1033  0.6349 -0.7122
41408SOL     OW28679   8.424   3.641   0.282  0.3402  0.3376  0.0821
41408SOL    HW128680   8.361   3.670   0.348  1.4631  1.4191  0.7275
41408SOL    HW228681   8.483   3.582   0.329 -0.0651 -0.5462 -0.4805
41409SOL     OW28682   9.411   9.529   2.440  1.0157 -0.2776 -0.2654
41409SOL    HW128683   9.358   9.453   2.464 -1.3448  1.6686  1.1683
41409SOL    HW228684   9.486   9.526   2.500 -0.7177  0.1849  2.0835
41410SOL     OW28685   2.754  10.800   4.243  0.2596 -0.8650  0.7448
41410SOL    HW128686   2.706  10.812   4.325 -0.1342  2.0643  0.1947
41410SOL    HW228687   2.824  10.866   4.247  0.3388 -0.7920 -1.1908
41411SOL     OW28688   3.747   2.809   9.244  0.6536  0.0501  0.0696
41411SOL    HW128689   3.827   2.822   9.294  0.5563 -0.2676  0.3069
41411SOL    HW228690   3.722   2.718   9.260 -0.3959  0.4741  0.9297
41412SOL     OW28691   6.188   9.728   1.864 -0.5531 -0.4596  0.0554
41412SOL    HW128692   6.149   9.653   1.819 -2.8847  2.2724 -3.1213
41412SOL    HW228693   6.119   9.759   1.923  0.5891 -1.0689  1.7590
41413SOL     OW28694   6.524   4.162   0.840  0.6205 -0.3811  0.2412
41413SOL    HW128695   6.501   4.104   0.768  0.5063  2.1887 -1.9737
41413SOL    HW228696   6.613   4.191   0.818  0.3285  0.9464  0.7525
41414SOL     OW28697   0.599   9.503   0.586  0.1396  0.1555 -0.1245
41414SOL    HW128698   0.627   9.412   0.594  0.7055  0.2817 -0.5680
41414SOL    HW228699   0.651   9.550   0.651  1.3889  0.4721 -1.3062
41415SOL     OW28700   8.880   1.529   3.925  0.2699  0.5376 -0.2475
41415SOL    HW128701   8.802   1.543   3.979 -0.6646 -0.5660 -1.2582
41415SOL    HW228702   8.868   1.587   3.850  0.4029  0.3411 -0.4203
41416SOL     OW28703   0.854   1.750   3.089  0.2586 -0.2019  0.2621
41416SOL    HW128704   0.879   1.832   3.048  0.0123  0.1077  0.7164
41416SOL    HW228705   0.893   1.682   3.035 -1.3753  0.1206 -1.4280
41417SOL     OW28706   1.342   4.339  10.968  0.4334  0.1161  0.2561
41417SOL    HW128707   1.268   4.324  10.909 -0.7192  0.6412  1.5315
41417SOL    HW228708   1.305   4.335  11.056  1.9869  0.0705  0.9464
41418SOL     OW28709   6.900   8.459  10.872  0.3380  0.5006  0.1508
41418SOL    HW128710   6.960   8.522  10.834  1.3866 -0.7580 -0.3747
41418SOL    HW228711   6.865   8.502  10.949  0.2562  2.0788 -0.7272
41419SOL     OW28712   7.541   7.264   8.862 -0.3679 -0.1734 -0.4864
41419SOL    HW128713   7.583   7.289   8.780 -0.2143  0.2455 -0.2828
41419SOL    HW228714   7.452   7.241   8.837 -0.0877 -0.8339 -0.8835
41420SOL     OW28715  10.331   4.958   3.325 -0.0953 -0.0053 -0.3093
41420SOL    HW128716  10.361   4.991   3.409 -0.1223  0.4629 -0.4804
41420SOL    HW228717  10.274   4.884   3.347  0.7456 -0.5676  0.0370
41421SOL     OW28718   7.369   1.310   5.712 -0.1685 -0.0201 -0.2509
41421SOL    HW128719   7.370   1.305   5.616  0.0527  0.7844 -0.2990
41421SOL    HW228720   7.312   1.385   5.731  0.0422  0.0183  0.2332
41422SOL     OW28721   5.320  10.255   4.254  0.1752 -0.1827  0.9364
41422SOL    HW128722   5.270  10.188   4.208 -0.3563  0.8620 -0.0689
41422SOL    HW228723   5.256  10.324   4.274  0.9738  0.6770  0.6273
41423SOL     OW28724   7.547   4.398   4.300  0.6300 -1.0460  0.6265
41423SOL    HW128725   7.611   4.470   4.303  1.8824 -2.1475  1.6450
41423SOL    HW228726   7.475   4.429   4.355  0.9920 -0.4200  0.7662
41424SOL     OW28727   9.224   7.640   4.476  0.3384  0.3969 -0.3098
41424SOL    HW128728   9.312   7.640   4.514 -0.3499  0.4089  1.3613
41424SOL    HW228729   9.201   7.548   4.467  1.0228  0.3603 -2.0527
41425SOL     OW28730   2.432   2.377   9.029  0.0049 -0.4578  0.0982
41425SOL    HW128731   2.456   2.465   9.058 -1.4739 -0.4724  1.4360
41425SOL    HW228732   2.342   2.386   8.996  0.7381 -0.9606 -2.2674
41426SOL     OW28733   0.098   9.396   8.725 -0.1628 -0.0068 -0.9405
41426SOL    HW128734   0.109   9.425   8.635 -0.5939 -1.9641 -1.6695
41426SOL    HW228735   0.004   9.403   8.741  0.1242  2.4392  0.1760
41427SOL     OW28736   5.490   1.852   0.768  0.9432 -0.0144 -0.2681
41427SOL    HW128737   5.440   1.930   0.795  0.6823 -0.2185 -0.1514
41427SOL    HW228738   5.532   1.821   0.848 -0.9919 -1.4669  0.2754
41428SOL     OW28739   8.694   6.024   7.407 -0.3084 -0.3757 -0.2654
41428SOL    HW128740   8.647   6.077   7.472 -0.6654 -1.0385  0.0304
41428SOL    HW228741   8.670   6.063   7.323 -0.5054 -0.0182 -0.0472
41429SOL     OW28742   3.804   4.975   3.190  0.0954  0.1866  0.1403
41429SOL    HW128743   3.750   4.899   3.213  0.0056  0.2016 -0.0228
41429SOL    HW228744   3.882   4.965   3.244  0.5230 -0.5472 -0.5863
41430SOL     OW28745   7.600   8.932   0.525 -0.6362 -0.2263 -0.1377
41430SOL    HW128746   7.607   9.021   0.490  0.1959 -0.5628 -0.8467
41430SOL    HW228747   7.688   8.896   0.517 -0.8538 -0.9595  0.5928
41431SOL     OW28748   7.073   5.533   3.538 -0.1343  0.4520  0.2990
41431SOL    HW128749   6.987   5.548   3.575 -0.3740  2.4498 -0.9126
41431SOL    HW228750   7.070   5.443   3.504 -1.2557  0.0415  1.4335
41432SOL     OW28751   5.056   7.613   8.227  0.5592  0.1770 -0.1814
41432SOL    HW128752   5.088   7.563   8.153  1.9273 -0.4526  0.7874
41432SOL    HW228753   4.999   7.552   8.274  3.4553 -1.1969  1.8781
41433SOL     OW28754   2.168   9.602   9.366 -0.1008 -0.3546  0.1359
41433SOL    HW128755   2.165   9.611   9.461 -4.1746 -0.2668  0.1787
41433SOL    HW228756   2.198   9.513   9.351 -0.3340 -0.6989  1.5516
41434SOL     OW28757   1.420   3.314   3.952  0.3877  0.6681  0.2430
41434SOL    HW128758   1.413   3.409   3.942  1.6336  0.7962  0.4003
41434SOL    HW228759   1.467   3.285   3.873 -1.7452 -0.1132 -0.8304
41435SOL     OW28760   5.606   7.008  10.052  0.5660  0.1195 -0.2539
41435SOL    HW128761   5.604   7.048  10.139  0.8187  0.1199 -0.2476
41435SOL    HW228762   5.699   7.001  10.031  0.5557 -1.1674  0.0692
41436SOL     OW28763   0.091   3.287   7.648  0.3657 -0.3312 -0.1035
41436SOL    HW128764   0.113   3.345   7.721 -1.5780 -0.6703  0.8056
41436SOL    HW228765   0.138   3.206   7.666 -1.2231 -0.9233  1.5896
41437SOL     OW28766   8.674   6.488   2.038  0.2572  0.6007  0.1994
41437SOL    HW128767   8.627   6.426   2.094 -0.5101  1.1457  0.1702
41437SOL    HW228768   8.757   6.444   2.018  1.5445  1.1946  3.5104
41438SOL     OW28769   4.175   7.689  10.535 -0.1648 -0.0628  0.5183
41438SOL    HW128770   4.265   7.713  10.556 -0.0620 -0.9174  1.1545
41438SOL    HW228771   4.162   7.718  10.445  0.7420  0.0799  0.4255
41439SOL     OW28772   4.980   8.525   6.249  0.1117  0.8580  0.1670
41439SOL    HW128773   4.983   8.620   6.262 -1.2483  1.0200 -0.4481
41439SOL    HW228774   5.007   8.512   6.158  2.1154  0.4539  0.7770
41440SOL     OW28775   5.261   9.246  10.833 -0.3436 -0.1637  0.0674
41440SOL    HW128776   5.209   9.305  10.888 -1.5846  0.1379 -1.3649
41440SOL    HW228777   5.202   9.219  10.763  1.3985  0.1805 -1.6398
41441SOL     OW28778   3.025   8.979   4.849 -0.2965  0.3891 -0.1256
41441SOL    HW128779   3.012   9.073   4.837  0.0486  0.6076  1.0221
41441SOL    HW228780   3.076   8.952   4.773  0.6043  1.3766  0.1013
41442SOL     OW28781   6.131   0.496  10.104 -0.6113 -0.2820 -0.3994
41442SOL    HW128782   6.038   0.519  10.114 -1.0257 -1.9944 -0.0253
41442SOL    HW228783   6.166   0.495  10.193 -0.1853  0.4812 -0.5498
41443SOL     OW28784   8.794   0.043   1.817  0.2803 -0.7914  0.1660
41443SOL    HW128785   8.815  -0.039   1.774  0.3719 -0.9374  0.4904
41443SOL    HW228786   8.850   0.108   1.774  0.8359 -1.0451  0.4945
41444SOL     OW28787   7.405   7.735   4.842  0.4944 -0.1034 -0.1852
41444SOL    HW128788   7.345   7.665   4.864  1.4067 -1.0656 -0.6721
41444SOL    HW228789   7.348   7.810   4.824 -0.6315 -1.2047 -1.4668
41445SOL     OW28790   3.623   2.404   4.664  0.6889 -0.0960  0.8573
41445SOL    HW128791   3.706   2.417   4.619 -0.6189 -0.1165 -1.7376
41445SOL    HW228792   3.577   2.338   4.612 -1.0257  0.0323  2.1040
41446SOL     OW28793   2.045   6.409  11.004  0.3749 -0.1706 -0.1320
41446SOL    HW128794   2.068   6.336  10.946  1.0533  1.7342 -2.4300
41446SOL    HW228795   2.118   6.415  11.066  1.4112 -0.0918 -1.3311
41447SOL     OW28796   1.343   0.875   0.916 -0.2813 -0.2404  0.2170
41447SOL    HW128797   1.337   0.795   0.863 -1.2277 -0.4087  0.5627
41447SOL    HW228798   1.350   0.843   1.006 -1.8640  0.0482  0.4710
41448SOL     OW28799   6.842   8.110  10.644  0.4398  0.6152 -0.9819
41448SOL    HW128800   6.828   8.063  10.726  1.1704 -0.9223 -1.6827
41448SOL    HW228801   6.779   8.182  10.646  0.4582  0.6231  0.9152
41449SOL     OW28802   0.414   5.362   6.216 -0.0369  0.2364 -0.0553
41449SOL    HW128803   0.394   5.285   6.270 -0.2725  1.4192  1.6439
41449SOL    HW228804   0.483   5.333   6.157  2.2502 -0.4463  2.7572
41450SOL     OW28805   4.033   3.887   2.703 -0.0831  0.0835 -0.6055
41450SOL    HW128806   4.092   3.956   2.673  1.8371 -1.0365  0.4596
41450SOL    HW228807   4.009   3.913   2.792  0.1030 -0.2808 -0.4489
41451SOL     OW28808   5.163   3.871   9.745 -0.0171 -0.2800 -0.4580
41451SOL    HW128809   5.242   3.915   9.777 -0.0533  0.7211 -1.6727
41451SOL    HW228810   5.165   3.884   9.650 -1.8723  0.1611 -0.4718
41452SOL     OW28811   7.290   1.942   9.916  0.1966 -0.1747  0.1658
41452SOL    HW128812   7.241   2.018   9.885  3.0025  1.0763 -1.6579
41452SOL    HW228813   7.382   1.966   9.902  1.3664 -2.5795  2.7617
41453SOL     OW28814  10.868   2.291   0.235 -0.2670 -0.1611  0.1831
41453SOL    HW128815  10.909   2.352   0.175 -1.6568  0.5169 -0.1293
41453SOL    HW228816  10.935   2.225   0.253  0.5040  0.1685 -1.3263
41454SOL     OW28817   0.413   7.456   7.325 -0.3176 -0.0610  0.1369
41454SOL    HW128818   0.414   7.543   7.286  1.7570  0.8011  1.9297
41454SOL    HW228819   0.357   7.404   7.266  0.3108  1.8403 -2.3049
41455SOL     OW28820   0.396   2.526   1.390  0.2010 -0.2367 -0.3399
41455SOL    HW128821   0.356   2.446   1.425  0.2376  0.3490  1.0963
41455SOL    HW228822   0.475   2.538   1.442  0.2810  0.6475 -0.6539
41456SOL     OW28823   6.619   8.487  10.839 -0.0388  0.1733 -0.5040
41456SOL    HW128824   6.713   8.500  10.849 -0.0504  0.1682 -0.3877
41456SOL    HW228825   6.609   8.446  10.753  0.0940 -0.1625 -0.3615
41457SOL     OW28826   4.572   9.453   4.797  0.7558 -0.6871 -0.3706
41457SOL    HW128827   4.548   9.380   4.740 -0.1783 -0.2091 -0.6127
41457SOL    HW228828   4.610   9.411   4.874 -0.8381 -1.5270  0.0134
41458SOL     OW28829   1.080   4.991   8.989  0.2500  0.7255 -0.2582
41458SOL    HW128830   1.061   4.906   8.948  1.7698 -1.1342  2.5932
41458SOL    HW228831   0.996   5.018   9.027 -0.2001  0.3870 -0.9911
41459SOL     OW28832   5.037   7.928   7.990 -0.4349  0.1802  0.0701
41459SOL    HW128833   4.960   7.871   7.986 -0.2334 -0.0941  0.0432
41459SOL    HW228834   5.107   7.877   7.949 -0.4512  0.7863 -0.7455
41460SOL     OW28835   1.745  10.137   8.349 -0.0775  0.4918  0.0955
41460SOL    HW128836   1.693  10.119   8.428  0.1325  2.1307  0.6480
41460SOL    HW228837   1.814  10.069   8.350 -2.1483 -1.7735 -0.6937
41461SOL     OW28838   3.028   1.950   8.445  0.2961  0.4448  0.0949
41461SOL    HW128839   3.072   1.867   8.428 -0.4718 -0.0134  0.2696
41461SOL    HW228840   3.032   1.961   8.540  0.2621  0.5318  0.0870
41462SOL     OW28841   4.486  10.613   7.337 -0.2512 -0.1068  0.2855
41462SOL    HW128842   4.418  10.679   7.347 -1.2491 -0.8403 -1.2387
41462SOL    HW228843   4.501  10.609   7.243  0.0645 -1.7480  0.3766
41463SOL     OW28844   7.178   1.037  10.707 -0.0689  0.4246  0.5924
41463SOL    HW128845   7.193   0.989  10.626 -1.2088 -0.1786  0.7123
41463SOL    HW228846   7.154   1.125  10.680 -0.2039  0.2902  0.2721
41464SOL     OW28847   7.817   6.078   3.666 -0.2113 -0.6413 -0.0124
41464SOL    HW128848   7.860   6.007   3.714 -3.5963 -1.4316  2.1725
41464SOL    HW228849   7.849   6.158   3.707  1.0610 -1.0278 -0.2015
41465SOL     OW28850   2.466   4.447   8.349  0.0207 -0.4160 -0.3597
41465SOL    HW128851   2.393   4.398   8.314 -0.4478  0.6924 -0.9891
41465SOL    HW228852   2.426   4.512   8.407  0.3846  0.8511 -1.4698
41466SOL     OW28853   9.661   0.983   9.379  0.4167 -0.1591 -0.5997
41466SOL    HW128854   9.629   0.903   9.337 -2.2252  1.2948 -1.5760
41466SOL    HW228855   9.668   1.047   9.308 -1.7024  1.6524  0.7001
41467SOL     OW28856   9.943   8.960   3.318 -0.0888  0.1377  0.1181
41467SOL    HW128857   9.976   8.945   3.229 -0.5745 -0.0674 -0.0282
41467SOL    HW228858  10.005   9.022   3.356 -0.0090  0.4082 -0.4436
41468SOL     OW28859   9.702   1.557   2.933 -0.5084  0.3139 -0.1400
41468SOL    HW128860   9.624   1.502   2.937  0.3907 -1.0073  0.1351
41468SOL    HW228861   9.693   1.617   3.008 -0.4043 -1.0607  1.0112
41469SOL     OW28862   9.805   3.100   8.954 -0.6284 -0.2560 -0.3962
41469SOL    HW128863   9.762   3.185   8.963  0.4221  0.3435 -0.7724
41469SOL    HW228864   9.808   3.084   8.859  0.3681 -0.0519 -0.4155
41470SOL     OW28865   7.370   5.622   9.946 -0.1204  0.2638 -0.4388
41470SOL    HW128866   7.436   5.566   9.904  0.6156 -0.3432  1.4440
41470SOL    HW228867   7.403   5.711   9.935  1.4290 -0.0745  1.0744
41471SOL     OW28868   3.986   3.170   4.684  0.6437 -0.6870 -0.1616
41471SOL    HW128869   3.964   3.099   4.743  0.2898 -0.8746 -0.5123
41471SOL    HW228870   4.045   3.227   4.734 -1.1518  0.1866  1.0297
41472SOL     OW28871   6.810   9.903   4.952 -0.0936 -0.2630  0.6001
41472SOL    HW128872   6.860   9.849   5.012  1.0070 -0.4113 -0.4271
41472SOL    HW228873   6.864   9.980   4.937  0.2965 -0.8415 -1.2360
41473SOL     OW28874   2.846   4.469   0.277 -0.5078 -0.0103 -0.3766
41473SOL    HW128875   2.799   4.427   0.204 -0.7250 -0.3818 -0.0271
41473SOL    HW228876   2.794   4.547   0.296 -0.8750 -0.3092 -0.1306
41474SOL     OW28877   2.164   0.476   1.475  0.0366 -0.1253 -0.2272
41474SOL    HW128878   2.133   0.399   1.427 -1.7630  0.9393 -0.8823
41474SOL    HW228879   2.242   0.446   1.521 -0.5865 -2.3171 -0.4937
41475SOL     OW28880   4.883   4.626   6.017 -0.3079  0.3513  0.0689
41475SOL    HW128881   4.896   4.720   6.012 -2.3007  0.6416 -0.2485
41475SOL    HW228882   4.859   4.610   6.109 -1.6166  0.4151 -0.2438
41476SOL     OW28883   7.608   3.598   4.013  0.1561  0.4651  0.7075
41476SOL    HW128884   7.646   3.532   3.956 -1.5493  0.0440  0.0045
41476SOL    HW228885   7.653   3.679   3.989  0.3951  0.0454 -0.2986
41477SOL     OW28886  10.941   6.699   9.442  0.0448  0.2750 -0.5623
41477SOL    HW128887  10.966   6.715   9.533 -0.2547 -0.5029 -0.3265
41477SOL    HW228888  11.017   6.726   9.391 -0.5232  2.6787 -0.2659
41478SOL     OW28889   3.802   5.065   1.869 -0.1753 -0.2039 -0.2844
41478SOL    HW128890   3.836   4.989   1.916  0.7875 -0.2497 -1.0267
41478SOL    HW228891   3.871   5.131   1.876 -1.3510  0.9509  1.0963
41479SOL     OW28892   5.564   6.461   5.833 -0.0855 -0.2736 -0.2818
41479SOL    HW128893   5.584   6.369   5.850  1.3611 -0.3629 -2.1741
41479SOL    HW228894   5.636   6.509   5.876 -0.4674 -0.0466  0.1175
41480SOL     OW28895   2.945   1.613   7.929  0.6392  0.3141  0.3317
41480SOL    HW128896   2.916   1.604   7.839  0.4672  2.3048  0.1483
41480SOL    HW228897   3.034   1.577   7.929  0.7121  0.4693 -0.6612
41481SOL     OW28898   9.319   3.165   1.891  0.5826  0.0937  0.2420
41481SOL    HW128899   9.373   3.244   1.894 -0.1830  0.6092  0.5580
41481SOL    HW228900   9.365   3.107   1.830  1.2406  0.7089  0.1424
41482SOL     OW28901   8.697   0.596   2.609  0.1531  0.1597  0.0541
41482SOL    HW128902   8.753   0.668   2.639  1.9794 -1.8592  1.8158
41482SOL    HW228903   8.715   0.590   2.515 -2.4663  3.8911 -0.9482
41483SOL     OW28904   6.990   2.023   9.637 -0.6342 -0.1772 -0.4823
41483SOL    HW128905   6.950   2.009   9.551 -0.0014 -1.5338 -0.5845
41483SOL    HW228906   6.933   1.976   9.698 -0.7942  0.3411 -0.2302
41484SOL     OW28907   0.876   1.179   4.008  0.2401  0.3252  0.0899
41484SOL    HW128908   0.943   1.242   4.033  1.1494 -0.7378  0.4041
41484SOL    HW228909   0.849   1.206   3.920  1.4989  0.4345 -0.2785
41485SOL     OW28910   8.001   8.342  10.030  0.1745  0.2685 -0.0572
41485SOL    HW128911   8.017   8.248  10.017  1.0888  0.5590 -1.1797
41485SOL    HW228912   7.930   8.363   9.970  0.2727  0.3795 -0.1350
41486SOL     OW28913   3.297   4.889   4.009  0.3001 -0.2138 -0.1376
41486SOL    HW128914   3.373   4.925   4.055  1.5764  0.1378 -2.3852
41486SOL    HW228915   3.315   4.795   4.004  0.2169 -0.2360 -0.0251
41487SOL     OW28916   3.122   6.818   7.969  0.2117 -0.5746 -0.4439
41487SOL    HW128917   3.038   6.838   8.011 -0.1051 -0.9003 -0.9115
41487SOL    HW228918   3.118   6.864   7.885  1.3116  1.0232  0.3328
41488SOL     OW28919   0.995   2.530  10.156  0.3235 -0.8875  0.1267
41488SOL    HW128920   0.922   2.473  10.181 -0.1933 -0.1921  0.2200
41488SOL    HW228921   0.954   2.601  10.107  0.8986 -0.3361  0.4356
41489SOL     OW28922   5.776   6.045   6.059  0.1461 -0.3711  0.2510
41489SOL    HW128923   5.829   5.969   6.082  0.2365 -0.0538  1.1496
41489SOL    HW228924   5.706   6.046   6.124 -1.0745 -0.8714 -1.0063
41490SOL     OW28925  10.591   6.928   7.541 -0.0420  0.4595  0.3186
41490SOL    HW128926  10.641   6.991   7.490 -0.9531  0.1538 -0.9874
41490SOL    HW228927  10.527   6.891   7.480  0.4228 -1.7109  1.0328
41491SOL     OW28928   7.561  10.502  10.125  0.5043 -0.3237 -0.2968
41491SOL    HW128929   7.562  10.444  10.049  3.3454 -0.3759 -0.3185
41491SOL    HW228930   7.651  10.501  10.158 -0.5123  0.0286  2.8476
41492SOL     OW28931   7.524   0.852   1.464  0.2169 -0.0100 -0.3148
41492SOL    HW128932   7.620   0.857   1.466  0.1904  0.4440  0.0780
41492SOL    HW228933   7.498   0.856   1.556 -0.0772 -3.1653 -0.1454
41493SOL     OW28934   5.807   8.795   7.805  0.2127  0.1048 -0.6080
41493SOL    HW128935   5.845   8.710   7.786 -0.5660 -0.5116  0.4382
41493SOL    HW228936   5.716   8.789   7.775 -1.0687 -0.9188  2.9595
41494SOL     OW28937   9.171   7.590   8.701 -0.1342 -0.0356 -0.4487
41494SOL    HW128938   9.263   7.579   8.722  0.3087  2.0316 -1.0531
41494SOL    HW228939   9.131   7.621   8.782  0.0003  0.3545 -0.5249
41495SOL     OW28940   6.465  10.579   5.855  0.3171 -0.1264 -0.0636
41495SOL    HW128941   6.449  10.497   5.807 -0.9048 -0.0181  0.1416
41495SOL    HW228942   6.402  10.641   5.819  1.5157  0.8675 -0.5111
41496SOL     OW28943   7.673   2.492   3.818  0.2498  0.6741 -0.6760
41496SOL    HW128944   7.635   2.555   3.756  1.6597 -0.0190 -2.3668
41496SOL    HW228945   7.663   2.533   3.904 -0.2649  2.4964 -1.5476
41497SOL     OW28946   1.967   9.754   0.873  0.0825 -0.4274  0.4966
41497SOL    HW128947   2.032   9.817   0.907 -0.4370 -0.9099  2.4975
41497SOL    HW228948   2.013   9.670   0.873  1.4510  0.0206 -4.0344
41498SOL     OW28949   2.233   5.360   9.907 -0.0886 -0.6822 -0.1847
41498SOL    HW128950   2.281   5.419   9.849 -1.5184  0.2281 -0.4861
41498SOL    HW228951   2.214   5.283   9.852 -1.4892  0.2002 -0.9903
41499SOL     OW28952   4.893   7.668   9.593  0.0407  0.6123 -0.0903
41499SOL    HW128953   4.805   7.638   9.611 -0.2105  1.1567 -0.3713
41499SOL    HW228954   4.950   7.614   9.648 -0.3670 -0.5032 -0.7455
41500SOL     OW28955   9.372   9.622   3.826  0.8149 -0.4632  0.3651
41500SOL    HW128956   9.428   9.560   3.779  0.3910 -1.0865  0.6637
41500SOL    HW228957   9.416   9.637   3.909  1.3600  0.3256 -0.0503
41501SOL     OW28958   6.298   3.727   1.013 -0.1325  0.0528 -0.1937
41501SOL    HW128959   6.280   3.718   0.919  2.0633 -1.6296 -0.5407
41501SOL    HW228960   6.333   3.815   1.023 -0.4103  0.2577 -0.9431
41502SOL     OW28961   5.382  10.540   6.375 -0.6660  0.4762  0.1149
41502SOL    HW128962   5.449  10.555   6.308 -0.7500 -0.0883 -0.1017
41502SOL    HW228963   5.429  10.501   6.448 -0.3212  2.3559  0.9559
41503SOL     OW28964   1.803   1.588   4.683  0.3406 -0.3440 -0.2089
41503SOL    HW128965   1.892   1.564   4.658  1.1190  1.9179  0.2003
41503SOL    HW228966   1.814   1.640   4.762 -1.5641 -1.9464  1.1939
41504SOL     OW28967   0.989  10.810   0.768 -0.2614  0.5367  0.6685
41504SOL    HW128968   0.927  10.820   0.696 -0.9074 -0.0153  1.1361
41504SOL    HW228969   0.961  10.874   0.834 -1.7052 -1.1516  1.7978
41505SOL     OW28970   1.987   1.717   4.871  0.7768  0.1698  0.1172
41505SOL    HW128971   2.020   1.788   4.817 -0.3755  0.5646 -0.1069
41505SOL    HW228972   2.060   1.655   4.878  1.2205  0.5314 -1.1591
41506SOL     OW28973   6.537   0.524   2.691  0.1641 -0.2926  0.0765
41506SOL    HW128974   6.540   0.478   2.775  1.1677  0.4747  0.4850
41506SOL    HW228975   6.539   0.617   2.715  1.4307 -0.0744 -0.8044
41507SOL     OW28976   2.258   3.853   4.369  0.3981 -0.1103  0.4829
41507SOL    HW128977   2.258   3.865   4.464 -1.8915  2.8198  0.2804
41507SOL    HW228978   2.305   3.929   4.336 -0.0697 -0.3376 -0.7428
41508SOL     OW28979   9.166   4.866   9.561  0.2046  0.0202 -0.0818
41508SOL    HW128980   9.219   4.791   9.535  0.2757 -0.4678  1.3768
41508SOL    HW228981   9.112   4.886   9.484 -0.1299 -1.8106 -0.3577
41509SOL     OW28982   5.055  11.060   3.606 -0.0745  0.3948  0.0335
41509SOL    HW128983   5.035  10.983   3.554  1.1253  0.5372 -0.6813
41509SOL    HW228984   5.148  11.052   3.627 -0.3061  0.8560  1.2972
41510SOL     OW28985   7.655   6.490   4.004  0.1888  0.0575 -0.4449
41510SOL    HW128986   7.615   6.577   3.997  0.6259  0.2461 -0.6597
41510SOL    HW228987   7.708   6.495   4.083 -0.4553 -0.2945  0.0109
41511SOL     OW28988   9.560   3.923   0.589 -0.0574  0.6157 -0.5264
41511SOL    HW128989   9.643   3.912   0.637 -0.3877  0.2639 -0.0244
41511SOL    HW228990   9.496   3.943   0.657 -0.5956 -0.1881 -0.7786
41512SOL     OW28991   8.989   2.103   9.730 -0.5970  0.0916  0.2692
41512SOL    HW128992   9.082   2.120   9.717 -0.5645 -0.4716 -0.2617
41512SOL    HW228993   8.960   2.061   9.649 -1.5415  1.1890  0.0035
41513SOL     OW28994   2.490   2.176  10.458  0.3523  0.4123  0.2504
41513SOL    HW128995   2.476   2.271  10.462  0.2859  0.3785  0.9656
41513SOL    HW228996   2.453   2.150  10.374 -1.1880  0.7671  0.7950
41514SOL     OW28997   6.383   5.879   1.556  0.4003  0.3303 -0.5174
41514SOL    HW128998   6.478   5.873   1.557  0.3629 -0.3420  0.5171
41514SOL    HW228999   6.358   5.855   1.467  1.1651 -0.1325 -0.6136
41515SOL     OW29000   6.808   1.546  10.551 -0.3406  0.7037 -0.3818
41515SOL    HW129001   6.827   1.478  10.615  0.7884  0.6176 -0.7933
41515SOL    HW229002   6.872   1.615  10.571 -1.1479  1.4384 -0.2839
41516SOL     OW29003   1.207  11.071   9.500 -0.2944 -0.2872  0.6419
41516SOL    HW129004   1.283  11.017   9.478 -1.6755 -1.9462 -0.2360
41516SOL    HW229005   1.139  11.008   9.524 -3.4353  0.5272 -4.6904
41517SOL     OW29006  10.942   7.632   6.002  0.3533 -0.3080 -0.8636
41517SOL    HW129007  11.011   7.645   6.067 -0.9376  0.2156  0.4688
41517SOL    HW229008  10.888   7.710   6.009 -0.3499 -0.6785 -1.9147
41518SOL     OW29009   2.141   9.147   7.642 -0.1810 -0.7129  0.2738
41518SOL    HW129010   2.055   9.180   7.617 -0.7678 -2.9415 -0.8942
41518SOL    HW229011   2.167   9.201   7.716 -1.7766  1.1845 -0.4800
41519SOL     OW29012   0.279   1.548   9.154 -0.4490  0.3163  0.0397
41519SOL    HW129013   0.199   1.540   9.207  1.0211 -0.2113  2.3119
41519SOL    HW229014   0.249   1.587   9.071 -3.1983 -0.8875  0.3753
41520SOL     OW29015  10.197   4.420   4.296 -0.3298 -0.5055 -0.2545
41520SOL    HW129016  10.122   4.471   4.263 -0.2669 -0.7707 -0.8244
41520SOL    HW229017  10.228   4.372   4.220 -0.9400 -2.0944  0.4631
41521SOL     OW29018   3.086   7.652   6.040 -0.5381  0.7001  0.6908
41521SOL    HW129019   3.072   7.741   6.070  0.8468 -0.0129  3.8668
41521SOL    HW229020   3.151   7.660   5.970 -0.9103  2.1929  0.4872
41522SOL     OW29021   1.401   5.666   7.952  0.0430 -0.0757  0.0624
41522SOL    HW129022   1.455   5.677   8.031  2.8089  1.4140 -1.8506
41522SOL    HW229023   1.383   5.755   7.923 -2.0235 -0.5932 -0.3515
41523SOL     OW29024   7.793   6.718   3.619 -0.5878 -0.0904  0.0079
41523SOL    HW129025   7.818   6.768   3.540  0.3032 -1.4712 -0.6224
41523SOL    HW229026   7.735   6.649   3.586  1.8967 -2.3498  0.0568
41524SOL     OW29027   9.853   0.058   8.350  1.1667  0.2536  0.1401
41524SOL    HW129028   9.806   0.014   8.421 -0.8757  0.6853 -0.9058
41524SOL    HW229029   9.849  -0.004   8.277  1.6502  0.5921 -0.1752
41525SOL     OW29030   4.111   3.131   9.560 -0.2945  0.3559 -0.7823
41525SOL    HW129031   4.196   3.151   9.522 -0.4924  0.3850 -1.2187
41525SOL    HW229032   4.049   3.183   9.510 -0.8856 -1.6843 -2.3105
41526SOL     OW29033   1.647   6.415   6.006  0.0785 -0.2415  0.1550
41526SOL    HW129034   1.701   6.494   5.997 -0.3281 -0.0095 -0.3710
41526SOL    HW229035   1.707   6.343   5.989  0.4335 -0.0385  0.5315
41527SOL     OW29036   1.790   5.326   2.265 -0.2362 -0.2212 -0.9048
41527SOL    HW129037   1.699   5.351   2.282 -0.2411 -0.5186 -0.4845
41527SOL    HW229038   1.787   5.231   2.253  0.0749 -0.2831 -0.5060
41528SOL     OW29039   1.090   7.692   5.558 -0.1044  0.5289  0.2478
41528SOL    HW129040   1.119   7.638   5.486  1.4951  0.0309  1.2224
41528SOL    HW229041   1.093   7.782   5.523 -0.1144  0.2317 -0.5352
41529SOL     OW29042   3.537   9.615   4.223  0.1208  0.3181  0.8623
41529SOL    HW129043   3.551   9.629   4.129 -0.4786  2.6029  1.0519
41529SOL    HW229044   3.528   9.520   4.232 -3.0435  0.1580 -1.8895
41530SOL     OW29045   5.838   6.308   2.020  0.2241 -0.3718  0.4935
41530SOL    HW129046   5.750   6.300   2.056 -0.6258  1.1345 -1.0844
41530SOL    HW229047   5.896   6.296   2.095 -1.2737 -1.9462  1.4757
41531SOL     OW29048   4.117   2.255   0.872 -0.4220  0.2756 -0.5716
41531SOL    HW129049   4.148   2.242   0.782 -2.8830  0.9449 -1.5918
41531SOL    HW229050   4.187   2.305   0.914  0.4397  0.6593 -2.3568
41532SOL     OW29051   2.112   0.556   4.361  0.4638  0.2415 -0.3816
41532SOL    HW129052   2.177   0.554   4.291 -0.2883  2.0528 -1.2103
41532SOL    HW229053   2.160   0.590   4.436  1.5600 -2.7548  0.4106
41533SOL     OW29054   5.587   1.226   1.590  0.4068  0.3205 -0.3294
41533SOL    HW129055   5.642   1.223   1.512 -0.1178  0.1422 -0.6986
41533SOL    HW229056   5.614   1.150   1.642  1.4207  0.9728  0.1271
41534SOL     OW29057   1.064   0.730   6.248  0.1300 -0.1250 -0.6091
41534SOL    HW129058   1.156   0.754   6.240 -0.2693  1.2167 -1.4668
41534SOL    HW229059   1.020   0.782   6.181 -1.2092 -1.0077 -0.4424
41535SOL     OW29060   4.126   1.648   9.396 -0.3596 -0.3116 -0.2994
41535SOL    HW129061   4.211   1.613   9.424 -0.4652  0.1116  0.5970
41535SOL    HW229062   4.064   1.610   9.458 -0.6556  0.3556 -0.1822
41536SOL     OW29063   5.405  10.750   8.859  0.2146 -0.6429  0.2240
41536SOL    HW129064   5.458  10.742   8.779  2.8068  0.0341  1.7528
41536SOL    HW229065   5.385  10.660   8.883  2.5121 -1.0992  0.6688
41537SOL     OW29066   7.155  10.154   4.023 -0.3917 -0.1094  0.8051
41537SOL    HW129067   7.199  10.236   4.002 -0.6817 -0.3933 -1.0272
41537SOL    HW229068   7.226  10.093   4.045  0.1544 -0.4125 -1.5776
41538SOL     OW29069   2.824   4.743   0.919 -0.2801  0.1808  0.6662
41538SOL    HW129070   2.840   4.651   0.939 -2.1024 -0.0880  1.1127
41538SOL    HW229071   2.779   4.776   0.997 -0.3422  1.2446  0.1865
41539SOL     OW29072   8.023   0.697   3.324  0.2292  0.2531  0.1981
41539SOL    HW129073   8.017   0.611   3.282 -1.3167 -0.4393  1.7167
41539SOL    HW229074   8.117   0.717   3.324  0.6443 -1.5187 -0.0069
41540SOL     OW29075   4.355   1.624   5.899  0.1658 -0.4318 -0.0624
41540SOL    HW129076   4.269   1.666   5.896 -1.7681 -4.0534 -0.9798
41540SOL    HW229077   4.349   1.562   5.972  0.8156 -2.8764 -1.9738
41541SOL     OW29078   5.409   3.231   3.054  0.2516 -0.5328  0.2238
41541SOL    HW129079   5.314   3.219   3.049  0.4612 -1.7980 -1.9532
41541SOL    HW229080   5.436   3.172   3.124 -0.5218 -0.5228  0.5448
41542SOL     OW29081  10.026   3.887   0.391 -0.5101 -0.2455  0.1880
41542SOL    HW129082  10.115   3.877   0.356 -1.2431  2.8594 -3.1633
41542SOL    HW229083  10.039   3.919   0.480  1.8970  1.5234 -0.6660
41543SOL     OW29084   4.460   1.345   7.598  0.0509  0.1264  0.0116
41543SOL    HW129085   4.524   1.295   7.547 -0.0885  0.1967 -0.2363
41543SOL    HW229086   4.463   1.307   7.685  1.2233  0.8359  0.3036
41544SOL     OW29087   5.722   2.317   3.122 -0.4934 -0.2052  0.5679
41544SOL    HW129088   5.765   2.303   3.206 -0.8238 -0.1113  0.7551
41544SOL    HW229089   5.742   2.238   3.072  0.6621  0.2321  0.3152
41545SOL     OW29090   9.068  10.043   7.435  0.2173  0.2389  0.3013
41545SOL    HW129091   9.163  10.029   7.438  0.2027  0.1733  0.4623
41545SOL    HW229092   9.058  10.138   7.424  0.3094  0.1774 -0.3267
41546SOL     OW29093   8.252   0.680   2.124 -0.2413 -0.2027  0.2455
41546SOL    HW129094   8.170   0.725   2.144  0.1352  1.7378 -2.1078
41546SOL    HW229095   8.320   0.740   2.153  0.2779  0.0704 -1.4007
41547SOL     OW29096   4.919   1.819   8.443 -0.2377  0.2965 -0.0766
41547SOL    HW129097   4.841   1.779   8.480 -0.0683  0.0383  0.0024
41547SOL    HW229098   4.935   1.896   8.498 -1.2174  1.1187 -0.9238
41548SOL     OW29099   4.167   0.573   8.140  0.3854 -0.3605 -0.8009
41548SOL    HW129100   4.122   0.637   8.086 -0.0702  0.0329  0.0364
41548SOL    HW229101   4.257   0.572   8.107  0.4531  0.8698 -0.6792
41549SOL     OW29102   3.054  10.485   4.641 -0.2060  0.7245 -0.7549
41549SOL    HW129103   3.009  10.426   4.701  2.4267 -0.0876  0.5817
41549SOL    HW229104   3.084  10.428   4.570  0.8446  0.7276 -0.3381
41550SOL     OW29105   4.787   0.844   5.385 -0.3851  0.9820  0.5816
41550SOL    HW129106   4.755   0.760   5.352  0.5105  0.9375 -0.2140
41550SOL    HW229107   4.882   0.833   5.389 -0.2842  1.8812  0.7149
41551SOL     OW29108   7.967   3.777   8.042 -0.4341  0.3455  0.4767
41551SOL    HW129109   7.973   3.869   8.068 -0.1498  0.9514 -1.5805
41551SOL    HW229110   7.890   3.773   7.986 -0.9667 -0.8888  1.2630
41552SOL     OW29111   1.383   3.534   9.004  0.9400  0.4949  0.2557
41552SOL    HW129112   1.374   3.629   9.006  2.7564  0.7186 -0.1198
41552SOL    HW229113   1.335   3.504   9.081 -0.5255  1.6070 -0.1798
41553SOL     OW29114   1.137   4.096   9.427  0.0899 -0.2800 -0.1108
41553SOL    HW129115   1.233   4.102   9.433  0.1261  0.0816 -0.9108
41553SOL    HW229116   1.108   4.186   9.417 -0.3116 -0.4246 -0.2565
41554SOL     OW29117   7.499   2.258  10.772 -0.1007 -0.0120 -0.0830
41554SOL    HW129118   7.458   2.286  10.854  1.0227  1.9988 -0.1222
41554SOL    HW229119   7.588   2.233  10.798 -0.2079 -0.8194 -0.4878
41555SOL     OW29120   0.157   5.695   3.241  0.3787  0.8541 -0.6267
41555SOL    HW129121   0.133   5.736   3.158 -0.4073  0.5092 -0.5774
41555SOL    HW229122   0.128   5.758   3.308  0.2089  0.7397 -0.5906
41556SOL     OW29123   1.380   1.079   0.286  0.1278  0.1988 -0.0627
41556SOL    HW129124   1.305   1.023   0.265 -0.0664  0.5776 -0.3857
41556SOL    HW229125   1.416   1.042   0.367 -0.5216  0.1373  0.2008
41557SOL     OW29126   8.900   8.291   3.450 -0.5103  0.1417 -0.0187
41557SOL    HW129127   8.951   8.220   3.489  0.5716  1.4566  1.1285
41557SOL    HW229128   8.880   8.349   3.524  0.6628  2.1919 -1.1953
41558SOL     OW29129   8.334   0.123   4.348  0.1993  0.3571  0.1453
41558SOL    HW129130   8.271   0.052   4.362 -0.5935  0.7267 -1.3232
41558SOL    HW229131   8.298   0.174   4.276  0.7116  2.3299  1.1903
41559SOL     OW29132   1.116   7.705   5.020 -0.5831  0.2123  0.6049
41559SOL    HW129133   1.069   7.725   5.101  0.8262  0.0600  1.5046
41559SOL    HW229134   1.159   7.787   4.996  0.3116 -0.1414  0.9354
41560SOL     OW29135   2.756   9.884  10.149  0.1432 -0.3235  0.2174
41560SOL    HW129136   2.673   9.917  10.183  0.5188  0.4507  0.3959
41560SOL    HW229137   2.753   9.790  10.165  0.3808  0.0220  2.5330
41561SOL     OW29138   3.276   3.147   0.843 -0.0084 -0.4711 -0.5114
41561SOL    HW129139   3.221   3.168   0.919  2.3248  1.1288  0.8646
41561SOL    HW229140   3.304   3.056   0.858  2.2365  0.5043  1.8773
41562SOL     OW29141   2.415  10.741   1.134 -0.2607 -0.9025  0.4162
41562SOL    HW129142   2.429  10.655   1.095 -0.6050  0.3784 -2.8329
41562SOL    HW229143   2.324  10.763   1.111  0.1950  0.8095  0.1234
41563SOL     OW29144   6.205   3.753   6.780  0.3312  0.1935 -0.0681
41563SOL    HW129145   6.179   3.700   6.705  0.9656 -0.6567  0.2892
41563SOL    HW229146   6.241   3.690   6.842  0.5447  0.9785  0.6206
41564SOL     OW29147   3.339   4.782   9.813 -0.3848  0.3606 -0.4113
41564SOL    HW129148   3.377   4.868   9.797  0.4274  0.0902 -0.0253
41564SOL    HW229149   3.305   4.786   9.902  0.6535 -0.0475  0.0222
41565SOL     OW29150   9.674   8.739   8.889 -0.3124 -0.0409  0.6458
41565SOL    HW129151   9.670   8.691   8.972 -1.1342  0.7853  1.1042
41565SOL    HW229152   9.618   8.816   8.903  0.2124  0.5505 -0.3905
41566SOL     OW29153   7.799   8.634   7.238  0.0426 -0.4092  0.3836
41566SOL    HW129154   7.815   8.567   7.305  0.4685  0.0193  0.7215
41566SOL    HW229155   7.837   8.714   7.275 -0.3473 -0.0087 -0.0687
41567SOL     OW29156   2.520   5.723   9.225  0.2978  0.5026  0.1640
41567SOL    HW129157   2.427   5.702   9.225  0.6351 -1.2522  1.8805
41567SOL    HW229158   2.533   5.773   9.145 -1.2535 -3.2294 -2.7331
41568SOL     OW29159   0.711   1.966  10.608 -0.6000 -0.5263 -0.4086
41568SOL    HW129160   0.631   1.949  10.558  0.3310  0.4290 -2.3277
41568SOL    HW229161   0.780   1.926  10.556  0.4881  1.0634 -0.2602
41569SOL     OW29162   6.964   8.728   2.111  0.2414  0.2056  0.4872
41569SOL    HW129163   6.901   8.708   2.180 -1.7466 -0.0824 -1.3037
41569SOL    HW229164   6.954   8.657   2.048  0.0574  1.7956 -1.3654
41570SOL     OW29165   9.740   7.249  10.454 -0.4851 -0.3665  0.1109
41570SOL    HW129166   9.761   7.270  10.545 -0.5191 -0.5501  0.1610
41570SOL    HW229167   9.793   7.171  10.435  1.0513  0.7884 -0.6374
41571SOL     OW29168   3.183  10.263   2.344 -0.1839  0.2307  0.3403
41571SOL    HW129169   3.235  10.343   2.331  1.0827 -0.3955  1.3695
41571SOL    HW229170   3.220  10.222   2.422 -0.5689 -1.5617 -0.3710
41572SOL     OW29171   7.470   8.575   9.222  0.0732 -0.2715 -0.1092
41572SOL    HW129172   7.416   8.535   9.153  0.4633  0.4973 -0.8848
41572SOL    HW229173   7.560   8.564   9.190  0.3204 -0.7220  0.7281
41573SOL     OW29174   7.039   2.719   4.490  0.3342  0.3203 -0.0475
41573SOL    HW129175   7.029   2.803   4.534  0.8948 -0.3088  1.3195
41573SOL    HW229176   6.989   2.658   4.544 -0.5518 -0.1558 -1.3374
41574SOL     OW29177  10.273   4.409   6.156  0.6877 -0.7138  0.1649
41574SOL    HW129178  10.259   4.356   6.234  0.5751 -1.1654 -0.1531
41574SOL    HW229179  10.214   4.371   6.090  0.2485  0.1042  0.0605
41575SOL     OW29180   8.396   9.203   6.593 -0.1309 -0.3175  0.0731
41575SOL    HW129181   8.385   9.145   6.518 -1.5865  1.8875 -1.5563
41575SOL    HW229182   8.479   9.247   6.578 -0.1556 -0.2783  0.0499
41576SOL     OW29183   7.309   8.931   5.985  0.6429 -0.1059  0.3110
41576SOL    HW129184   7.388   8.878   5.994 -0.1014 -1.4659 -0.7170
41576SOL    HW229185   7.261   8.889   5.913  0.6510  2.7719 -1.5053
41577SOL     OW29186   7.460   7.411  10.405 -0.0036  0.0785 -0.1150
41577SOL    HW129187   7.501   7.358  10.337 -1.5677 -1.1103 -0.1908
41577SOL    HW229188   7.415   7.481  10.357 -1.1010 -0.7551 -0.3133
41578SOL     OW29189   6.386   7.479   7.197  0.3165  0.3922 -0.7644
41578SOL    HW129190   6.474   7.498   7.230  0.4217 -0.4611 -0.5224
41578SOL    HW229191   6.336   7.559   7.215  0.5090  0.1555  0.9915
41579SOL     OW29192   2.530   6.061   0.221 -0.1820  0.2596  0.3368
41579SOL    HW129193   2.558   6.039   0.309  2.1972  1.3745 -0.0405
41579SOL    HW229194   2.604   6.036   0.165 -1.9175 -1.1483 -1.4880
41580SOL     OW29195  10.059   0.601   8.745  0.4144  0.0922 -0.6085
41580SOL    HW129196  10.065   0.691   8.778 -2.2615  0.1801 -0.1160
41580SOL    HW229197  10.123   0.598   8.673  0.9227  2.2402 -0.3345
41581SOL     OW29198   7.165  10.987  10.242  0.5623  0.4858  0.4141
41581SOL    HW129199   7.090  11.016  10.293  0.4154 -0.1654  0.5744
41581SOL    HW229200   7.153  11.029  10.157  0.6171  1.2812  0.7943
41582SOL     OW29201   7.532   2.849   6.163 -0.0513  0.3525 -0.5259
41582SOL    HW129202   7.530   2.848   6.258  1.1199  0.9466 -0.4755
41582SOL    HW229203   7.540   2.941   6.139  2.1877  0.0869 -1.0745
41583SOL     OW29204   9.988   9.181   3.064  0.4072 -0.2511  0.0917
41583SOL    HW129205  10.077   9.195   3.099  0.3763  0.2432 -0.0138
41583SOL    HW229206   9.976   9.087   3.065  1.3491 -0.4001 -0.9171
41584SOL     OW29207   0.125   8.754   9.181  0.7067  0.0039  0.5313
41584SOL    HW129208   0.200   8.703   9.149  2.0183  2.0295  0.2436
41584SOL    HW229209   0.122   8.735   9.275 -0.6153 -2.7257  0.0659
41585SOL     OW29210   1.937   3.309  10.734  0.4111 -0.4371 -0.1703
41585SOL    HW129211   1.985   3.380  10.692 -1.5529 -0.0997 -1.9796
41585SOL    HW229212   1.895   3.350  10.810 -0.6084  0.3620 -1.1339
41586SOL     OW29213   6.599   4.743   9.557 -0.5318  0.3061  0.2815
41586SOL    HW129214   6.575   4.650   9.550 -0.4911  0.3838 -1.2468
41586SOL    HW229215   6.673   4.753   9.496  0.3811  1.0562  1.4672
41587SOL     OW29216   9.029   4.736   1.366 -0.0912  0.1155  0.1009
41587SOL    HW129217   9.007   4.688   1.287 -0.7498 -0.7368  0.7741
41587SOL    HW229218   9.092   4.679   1.411 -0.8085 -0.0958  0.8622
41588SOL     OW29219  10.069  11.011   5.418 -0.0913 -0.2043 -0.2512
41588SOL    HW129220   9.992  11.065   5.397 -0.0668  0.4616  1.2046
41588SOL    HW229221  10.094  11.039   5.506  2.5927  0.5110 -1.1415
41589SOL     OW29222   3.937   9.021   7.805  0.0533  0.9652 -0.3471
41589SOL    HW129223   3.953   9.112   7.782 -0.7838  0.7671 -1.8010
41589SOL    HW229224   3.860   9.023   7.862  1.5409  1.3623  1.7666
41590SOL     OW29225   3.442   5.430  10.909 -0.9212 -0.5306  0.0675
41590SOL    HW129226   3.413   5.402  10.822 -1.3729  1.3618 -0.4296
41590SOL    HW229227   3.537   5.423  10.907 -0.8368  0.6517 -1.0269
41591SOL     OW29228   7.891   9.601   7.284  0.1218 -0.0365 -0.1955
41591SOL    HW129229   7.932   9.547   7.352 -0.6807 -0.9077 -0.3788
41591SOL    HW229230   7.964   9.635   7.233  0.6738 -0.4058  0.3381
41592SOL     OW29231   8.868   3.799  11.048 -0.2655  0.1745 -0.1909
41592SOL    HW129232   8.844   3.710  11.074  0.6058  0.1236  0.5178
41592SOL    HW229233   8.907   3.789  10.961  0.9195 -0.3375  0.3641
41593SOL     OW29234   2.956   2.925   9.859  0.0897 -0.1934 -0.1164
41593SOL    HW129235   3.019   2.853   9.856  0.8453  0.4809 -1.1464
41593SOL    HW229236   2.946   2.952   9.768  1.5101  2.4134  0.3878
41594SOL     OW29237   5.609   8.503   8.996  0.5682  0.0173 -0.3880
41594SOL    HW129238   5.700   8.494   8.968  0.4563 -0.6778 -0.5409
41594SOL    HW229239   5.611   8.480   9.089  0.8166  1.6240  0.0423
41595SOL     OW29240   2.908   9.494   1.773 -0.3595  0.3522  0.1731
41595SOL    HW129241   2.832   9.437   1.790  1.2298 -1.7871  0.5787
41595SOL    HW229242   2.926   9.535   1.857 -1.3216  1.2515 -0.0391
41596SOL     OW29243   3.095   7.324   7.131 -0.0143  0.3202 -0.0955
41596SOL    HW129244   3.180   7.338   7.173  0.2984  0.3598 -0.7445
41596SOL    HW229245   3.076   7.232   7.147  0.1720  0.2976  0.0032
41597SOL     OW29246   8.234   8.130   8.164 -0.1558  0.0779 -0.0572
41597SOL    HW129247   8.264   8.176   8.085  0.8118  1.2368  0.9469
41597SOL    HW229248   8.314   8.110   8.212 -0.7069 -0.9697  0.4699
41598SOL     OW29249   6.351   5.026   4.518 -0.4662  0.1705 -0.5325
41598SOL    HW129250   6.301   4.949   4.544 -0.2056 -0.1403 -0.9356
41598SOL    HW229251   6.300   5.100   4.551 -0.3086 -0.1987  0.5559
41599SOL     OW29252   4.409   1.728   0.575  0.2658  0.2252 -0.3082
41599SOL    HW129253   4.482   1.721   0.636  0.5559 -0.3357 -0.7157
41599SOL    HW229254   4.347   1.660   0.604  0.2310  0.2157 -0.4045
41600SOL     OW29255   0.520  10.244   0.453  0.0858  0.0685 -0.3628
41600SOL    HW129256   0.453  10.225   0.518  0.1533  0.4452 -0.1815
41600SOL    HW229257   0.505  10.336   0.429 -0.2765 -0.2196 -1.2696
41601SOL     OW29258   0.414   2.114   8.314 -0.0213  0.7159  0.0529
41601SOL    HW129259   0.456   2.048   8.369 -1.3346 -0.7095 -0.5681
41601SOL    HW229260   0.435   2.088   8.224 -1.7002  0.2862 -0.2471
41602SOL     OW29261   5.080   8.884   6.813 -0.1309 -0.0682  0.0596
41602SOL    HW129262   5.123   8.932   6.742 -0.3755 -1.0540 -0.7796
41602SOL    HW229263   4.988   8.908   6.806  0.0770  1.2429  1.2153
41603SOL     OW29264   6.266   1.569   4.753 -0.6440 -0.6617  0.3351
41603SOL    HW129265   6.302   1.591   4.667 -0.0538 -1.3745  0.3959
41603SOL    HW229266   6.171   1.583   4.743 -0.3191  2.4472  0.5445
41604SOL     OW29267   4.940   9.031   1.459 -0.3058  0.1227  0.4806
41604SOL    HW129268   4.982   9.048   1.374 -2.4568  0.0313 -0.6883
41604SOL    HW229269   5.008   8.990   1.512  1.1504  0.2891 -1.1613
41605SOL     OW29270  10.396   9.662   7.856  0.2167 -0.1414 -0.5263
41605SOL    HW129271  10.437   9.576   7.866 -1.2275 -0.8028  0.0955
41605SOL    HW229272  10.464   9.725   7.880  0.7598 -1.1963  0.8054
41606SOL     OW29273   9.292  10.968   8.990 -0.0605 -0.2546  0.2899
41606SOL    HW129274   9.289  11.050   9.039 -0.6310 -0.0273 -0.1182
41606SOL    HW229275   9.235  10.909   9.040 -1.8328  0.4127 -0.8578
41607SOL     OW29276   4.803   2.579   5.772 -0.1711  0.1983  0.1207
41607SOL    HW129277   4.805   2.663   5.819  0.3887  0.1987  0.1016
41607SOL    HW229278   4.802   2.604   5.679 -0.9298  0.1930  0.1232
41608SOL     OW29279   8.226   7.578   6.175 -0.1889  0.2371  0.0986
41608SOL    HW129280   8.148   7.624   6.144 -0.6077  1.2416  2.4432
41608SOL    HW229281   8.298   7.619   6.128 -0.8613  0.9039 -0.3740
41609SOL     OW29282   3.779   8.090   2.789  0.4476 -0.1628  0.5260
41609SOL    HW129283   3.685   8.094   2.769  0.2607 -0.2075  1.3461
41609SOL    HW229284   3.805   8.002   2.763  0.8827  0.6911 -2.2087
41610SOL     OW29285   8.981  11.061  10.724  0.1116  0.0075  0.0425
41610SOL    HW129286   8.930  11.132  10.687 -0.5660 -0.8566 -0.7269
41610SOL    HW229287   9.046  11.040  10.656  0.1067 -0.3159  0.1351
41611SOL     OW29288  10.448   6.292   2.604  0.1082  0.7668  0.0496
41611SOL    HW129289  10.386   6.365   2.605  0.8961  1.4540  1.4587
41611SOL    HW229290  10.509   6.313   2.534 -0.5642  0.6455 -0.5967
41612SOL     OW29291   1.520   4.266   1.815  0.2001  0.0903 -0.0797
41612SOL    HW129292   1.441   4.214   1.804 -0.9639  2.0476 -1.8142
41612SOL    HW229293   1.566   4.259   1.731  1.2077  0.0448  0.4541
41613SOL     OW29294   9.849   1.665   5.570 -0.1264 -0.5592  0.3011
41613SOL    HW129295   9.776   1.710   5.613 -0.6953 -1.3032  0.1460
41613SOL    HW229296   9.836   1.684   5.477 -0.6313 -1.3954  0.1919
41614SOL     OW29297  10.798   6.267   8.873 -0.2954 -0.1518 -0.3952
41614SOL    HW129298  10.750   6.291   8.952  1.6377  0.8172  0.5524
41614SOL    HW229299  10.828   6.177   8.890  0.1205  0.0552 -0.0115
41615SOL     OW29300   5.617   2.388   0.717  1.2054 -0.1160  0.4223
41615SOL    HW129301   5.531   2.368   0.754  1.2816 -1.2202  0.0465
41615SOL    HW229302   5.612   2.481   0.694  1.1677  0.6283  3.1592
41616SOL     OW29303   5.312   9.588   4.586  0.4281 -0.3247 -0.0808
41616SOL    HW129304   5.368   9.578   4.663  1.7820  0.2906 -0.9561
41616SOL    HW229305   5.321   9.680   4.561 -0.7425 -0.2896 -0.4262
41617SOL     OW29306   0.020   8.436   4.283  0.8087 -0.0413  0.1445
41617SOL    HW129307   0.075   8.413   4.208  0.5670  1.0081 -0.3701
41617SOL    HW229308  -0.022   8.518   4.258 -0.5408 -0.5064  0.7732
41618SOL     OW29309  10.255   4.432   5.317 -0.9183 -0.7421  0.2504
41618SOL    HW129310  10.335   4.444   5.369  0.4317 -0.4710 -1.7823
41618SOL    HW229311  10.243   4.337   5.312 -0.1081 -0.8210 -0.3043
41619SOL     OW29312   5.698   9.983  10.481 -0.5839 -0.0317  0.4011
41619SOL    HW129313   5.676   9.942  10.564 -1.1358 -0.8138 -0.1178
41619SOL    HW229314   5.621  10.036  10.458 -0.9893 -0.8760 -0.2487
41620SOL     OW29315   2.621  10.874   3.983 -0.3058 -0.7093  0.0877
41620SOL    HW129316   2.681  10.832   4.045  0.8646  0.7376 -0.0122
41620SOL    HW229317   2.559  10.922   4.038  1.1634  1.1671  0.2265
41621SOL     OW29318   4.374   9.837   8.794  0.4031  0.3699 -0.4647
41621SOL    HW129319   4.368   9.791   8.877  0.3018  0.2409 -0.5425
41621SOL    HW229320   4.368   9.930   8.817 -1.8865  0.2930 -0.5109
41622SOL     OW29321  10.980   9.674   3.656  0.3657 -0.0514 -0.5957
41622SOL    HW129322  10.994   9.734   3.582  1.9949 -1.2155 -1.2944
41622SOL    HW229323  10.926   9.604   3.620  0.6043 -0.2827 -0.5080
41623SOL     OW29324   0.656   0.185   7.269  0.3045 -0.1573  0.0786
41623SOL    HW129325   0.637   0.244   7.342  0.7642  0.5448 -0.3560
41623SOL    HW229326   0.715   0.120   7.304  0.3169  0.0275  0.4010
41624SOL     OW29327   4.431   0.899  10.343 -0.0434 -0.4974  0.2685
41624SOL    HW129328   4.404   0.984  10.379  0.5712  0.1916 -0.8448
41624SOL    HW229329   4.526   0.905  10.336 -0.1284 -0.6438 -1.3290
41625SOL     OW29330   9.655   6.177   0.738 -0.2016  0.3843 -0.3454
41625SOL    HW129331   9.721   6.198   0.673  0.6607  2.0466  0.9563
41625SOL    HW229332   9.583   6.237   0.719  0.8666  2.3749  1.3046
41626SOL     OW29333   5.009   9.094   4.923  0.5577 -0.1242  0.2789
41626SOL    HW129334   5.076   9.143   4.970  0.5151 -0.6015  0.8449
41626SOL    HW229335   4.933   9.095   4.981 -0.5441  1.8878 -1.0646
41627SOL     OW29336   5.345   7.622   9.540 -0.2386  0.0256  0.2021
41627SOL    HW129337   5.352   7.541   9.591 -3.0495 -0.1374  0.4864
41627SOL    HW229338   5.434   7.638   9.509  0.7883 -2.0970  1.7510
41628SOL     OW29339   0.185   1.093   3.672  0.4839  0.5055  0.5157
41628SOL    HW129340   0.138   1.010   3.661  0.2669  0.3536  2.2992
41628SOL    HW229341   0.161   1.145   3.595 -1.3228 -0.1806  0.5672
41629SOL     OW29342   7.831   9.550   5.244  0.3185  0.8575 -0.2156
41629SOL    HW129343   7.768   9.489   5.282  0.9901  1.2381  1.6085
41629SOL    HW229344   7.864   9.600   5.319  0.0403  3.2610 -1.5903
41630SOL     OW29345   3.400   6.071   5.596  0.3204  0.2544 -0.3175
41630SOL    HW129346   3.409   6.151   5.545 -0.8497 -0.7701 -2.2539
41630SOL    HW229347   3.486   6.058   5.636  1.4848  0.8444 -2.4827
41631SOL     OW29348   6.504   6.542   4.425  0.1152  0.0712  0.1268
41631SOL    HW129349   6.491   6.630   4.459 -0.1399  0.5794 -1.2199
41631SOL    HW229350   6.462   6.485   4.489 -2.2874  1.1587 -0.3554
41632SOL     OW29351   7.592   3.574   3.203  0.6568  0.2004 -0.0501
41632SOL    HW129352   7.513   3.521   3.199 -0.4494  1.8742 -1.9589
41632SOL    HW229353   7.662   3.514   3.178 -0.0082 -1.1797  1.2063
41633SOL     OW29354   5.613   1.965   9.990 -0.0223 -0.2097 -0.0069
41633SOL    HW129355   5.614   1.869   9.992 -0.8481 -0.3686 -3.0346
41633SOL    HW229356   5.703   1.990  10.009  0.7511 -1.7247 -1.3776
41634SOL     OW29357   9.153   0.561   5.877  0.4965  0.4075 -0.1767
41634SOL    HW129358   9.193   0.504   5.942  2.1737  0.1761 -1.3693
41634SOL    HW229359   9.076   0.512   5.846  0.1689  0.1608  0.9866
41635SOL     OW29360   0.286   2.229   3.439  0.7265 -0.5336  0.4210
41635SOL    HW129361   0.278   2.321   3.415  0.3153 -0.6372  0.1521
41635SOL    HW229362   0.381   2.214   3.446  0.8697 -0.4267 -0.9007
41636SOL     OW29363   4.011   6.786   6.268  0.2782 -0.3363 -0.1818
41636SOL    HW129364   4.066   6.715   6.236  1.5600  0.6308 -0.2295
41636SOL    HW229365   4.056   6.818   6.346 -0.1350  0.5754 -0.2985
41637SOL     OW29366   5.216   7.364  10.732  0.2834  0.0042 -0.7927
41637SOL    HW129367   5.159   7.290  10.750  1.0084 -0.0820  1.4328
41637SOL    HW229368   5.282   7.362  10.801  2.7444  0.3867 -2.9670
41638SOL     OW29369   2.059   2.142   7.436 -0.7014  0.1378 -0.2118
41638SOL    HW129370   2.105   2.168   7.515 -0.2022 -0.4330 -0.3097
41638SOL    HW229371   2.122   2.088   7.388 -1.0218  0.4332 -0.9670
41639SOL     OW29372   5.150   3.847   1.727 -0.4156  0.1312 -0.4705
41639SOL    HW129373   5.100   3.910   1.779 -2.4930 -1.9733  0.2495
41639SOL    HW229374   5.201   3.798   1.791 -0.2478 -0.1621 -0.8229
41640SOL     OW29375   8.761   4.731   5.487  0.4821 -0.0053  0.5218
41640SOL    HW129376   8.675   4.691   5.502 -0.8671  1.7408 -1.9920
41640SOL    HW229377   8.780   4.778   5.569 -1.0373 -0.2942  1.0675
41641SOL     OW29378   3.264   0.903   5.251 -0.1339 -0.1956 -0.2840
41641SOL    HW129379   3.221   0.861   5.325 -0.3983 -2.4113 -1.6160
41641SOL    HW229380   3.242   0.996   5.260 -1.7444 -0.6756  1.3215
41642SOL     OW29381   3.492   3.467   7.032  0.0178  0.8364 -0.5471
41642SOL    HW129382   3.407   3.449   7.072  1.0272 -0.0707  1.3444
41642SOL    HW229383   3.517   3.384   6.992  0.3043  0.9065 -0.5110
41643SOL     OW29384   4.121   9.410   8.134  0.0298 -1.2376  0.1406
41643SOL    HW129385   4.082   9.470   8.070  1.0273  2.3986  2.6364
41643SOL    HW229386   4.047   9.361   8.170 -0.9998 -0.7342 -1.2175
41644SOL     OW29387   9.982   5.159   9.001  0.0603  0.7165  0.4846
41644SOL    HW129388   9.956   5.067   9.010  1.3312  0.3555  0.7067
41644SOL    HW229389   9.909   5.201   8.956 -1.5703  0.0960  2.3723
41645SOL     OW29390   7.039   5.868   8.713  0.4672 -0.1908  0.3661
41645SOL    HW129391   6.968   5.853   8.776  0.2284 -2.3243 -0.3152
41645SOL    HW229392   7.002   5.841   8.629  1.9613 -1.0172 -0.0615
41646SOL     OW29393   8.148   6.872   0.689 -0.1071  0.4369 -0.1444
41646SOL    HW129394   8.231   6.843   0.650 -0.6315 -2.3697  0.6122
41646SOL    HW229395   8.171   6.898   0.778 -0.0992 -1.0725  0.3194
41647SOL     OW29396   6.460   7.095   2.025  0.1789 -0.2833 -0.8931
41647SOL    HW129397   6.547   7.056   2.030  0.6342  0.6574 -1.2404
41647SOL    HW229398   6.434   7.083   1.933 -0.6133 -1.6855 -0.5183
41648SOL     OW29399   6.677   6.595   1.326  0.4438 -1.0690 -0.3426
41648SOL    HW129400   6.678   6.583   1.421 -0.1911 -0.5321 -0.2620
41648SOL    HW229401   6.755   6.549   1.295  0.7577 -1.0863  0.4559
41649SOL     OW29402   9.309   9.387   6.322 -0.4200 -0.2130 -0.2347
41649SOL    HW129403   9.335   9.372   6.231 -0.0853  1.5895 -0.4722
41649SOL    HW229404   9.258   9.309   6.346 -0.8021 -0.5652 -2.0728
41650SOL     OW29405   1.708   3.031   5.871  0.8821  0.0260  0.3073
41650SOL    HW129406   1.641   2.963   5.859  0.6652  0.0970  1.0521
41650SOL    HW229407   1.764   3.023   5.794  0.7118 -0.8388  0.2602
41651SOL     OW29408   0.890   1.505   5.584 -0.5742  0.1832 -0.3151
41651SOL    HW129409   0.985   1.505   5.593 -0.3679  1.9103 -1.8623
41651SOL    HW229410   0.864   1.414   5.601  1.3118 -0.3068  0.2119
41652SOL     OW29411   0.915   7.525   7.011 -0.3479 -0.5545  0.2686
41652SOL    HW129412   0.880   7.447   6.968 -3.5963  0.6773  0.4705
41652SOL    HW229413   0.901   7.596   6.949  1.2275  0.1485  0.6681
41653SOL     OW29414   7.541   3.278   5.901 -0.2600  0.5496 -0.1139
41653SOL    HW129415   7.509   3.227   5.826  2.8412 -0.6964 -0.7207
41653SOL    HW229416   7.502   3.235   5.977  0.8996 -1.7728 -0.7295
41654SOL     OW29417   8.375   2.794   8.921 -0.0430  0.3651 -0.1076
41654SOL    HW129418   8.374   2.712   8.871 -0.3282 -0.0908  0.6216
41654SOL    HW229419   8.307   2.782   8.988 -0.5494  1.4650 -0.3949
41655SOL     OW29420  10.755   7.800   1.967 -0.0668 -0.3493 -0.2681
41655SOL    HW129421  10.839   7.762   1.992 -1.0288 -1.2862  1.7306
41655SOL    HW229422  10.705   7.727   1.931 -0.4058 -0.0417 -0.4294
41656SOL     OW29423   0.108  10.485   8.542 -0.0971  0.2618  0.4522
41656SOL    HW129424   0.202  10.468   8.542 -0.1010  0.1911  1.1432
41656SOL    HW229425   0.096  10.552   8.609 -0.6139 -0.2001  0.8365
41657SOL     OW29426   7.544   4.708   2.992 -0.3285  0.0613 -0.1607
41657SOL    HW129427   7.603   4.641   3.028 -0.2879 -0.7777 -1.7186
41657SOL    HW229428   7.573   4.790   3.032  0.6225 -0.6229  0.5905
41658SOL     OW29429   5.316   3.759   3.433  0.0639  0.2733  0.2661
41658SOL    HW129430   5.394   3.737   3.382 -0.1263  2.1946 -0.9477
41658SOL    HW229431   5.349   3.772   3.522  0.9615  0.0485 -0.0237
41659SOL     OW29432   4.124   3.821   5.035  0.0502  0.2418  0.3205
41659SOL    HW129433   4.209   3.865   5.045  0.4987  0.1871 -2.4510
41659SOL    HW229434   4.146   3.728   5.028 -0.2350  0.2216 -0.3217
41660SOL     OW29435   1.384   3.608   0.859  0.2373  0.3358  0.3565
41660SOL    HW129436   1.377   3.623   0.953  0.4429  1.5497  0.1972
41660SOL    HW229437   1.420   3.520   0.851  0.4268  0.3028  1.4194
41661SOL     OW29438  10.884  10.278   1.433  0.0936  0.1334  0.1789
41661SOL    HW129439  10.828  10.246   1.363 -0.6434  0.6614  0.5170
41661SOL    HW229440  10.965  10.227   1.425 -0.8345 -1.4189  0.3549
41662SOL     OW29441  10.156  10.946   8.520 -0.1182 -0.2776  0.1508
41662SOL    HW129442  10.147  11.036   8.552  1.4214 -0.7032  1.9614
41662SOL    HW229443  10.249  10.926   8.534 -0.7873 -2.7353  1.3845
41663SOL     OW29444  10.727   8.123   6.514  0.2309 -0.0820 -0.2751
41663SOL    HW129445  10.803   8.066   6.501 -0.1564 -0.4678 -0.9089
41663SOL    HW229446  10.757   8.188   6.577  1.3505  0.2626 -1.1196
41664SOL     OW29447  10.748  10.550   7.742  0.0929 -0.2003  0.1636
41664SOL    HW129448  10.689  10.588   7.807  0.8223  0.3384  0.5412
41664SOL    HW229449  10.748  10.613   7.670  1.2506  0.5325  0.7605
41665SOL     OW29450   3.851   7.365   3.677  0.3580 -0.4359 -0.0077
41665SOL    HW129451   3.923   7.422   3.705  0.0350  0.7248 -1.4399
41665SOL    HW229452   3.777   7.424   3.665 -0.3725 -1.3731 -0.2033
41666SOL     OW29453   9.354   1.549   9.171 -0.1877 -0.2347  0.0099
41666SOL    HW129454   9.438   1.521   9.132  0.2754  0.9890  0.0916
41666SOL    HW229455   9.302   1.469   9.174  0.1968 -0.6335 -2.0130
41667SOL     OW29456   4.374   4.865   2.143  0.2222  0.0233 -0.8335
41667SOL    HW129457   4.455   4.886   2.097  0.4421  1.6967  0.2141
41667SOL    HW229458   4.397   4.792   2.201  1.1811  0.8622 -0.1137
41668SOL     OW29459   5.815   0.877  10.011  0.0053 -0.2679 -0.3829
41668SOL    HW129460   5.770   0.941   9.956  0.9525  1.1187  0.4150
41668SOL    HW229461   5.797   0.793   9.968 -0.8805  0.5571 -1.7138
41669SOL     OW29462  10.444   2.248   9.919 -0.6856  0.3492  0.7415
41669SOL    HW129463  10.469   2.157   9.938  1.7830  0.7286 -0.3474
41669SOL    HW229464  10.515   2.300   9.954 -2.2384  1.9666  1.6711
41670SOL     OW29465   3.050   6.469   9.217 -0.1193  0.3590 -0.0814
41670SOL    HW129466   3.089   6.504   9.137 -1.1938  0.2214 -0.6935
41670SOL    HW229467   3.008   6.387   9.189 -0.0298  0.0203  0.7468
41671SOL     OW29468   7.342  10.450   9.511  0.1228  0.8771 -0.0838
41671SOL    HW129469   7.406  10.461   9.440 -1.2125  0.7845 -1.3407
41671SOL    HW229470   7.352  10.530   9.563  1.0817  0.9782 -0.3912
41672SOL     OW29471   4.508   6.678   5.873  0.0030 -0.0176  0.2666
41672SOL    HW129472   4.562   6.625   5.931 -0.8455 -1.7770 -0.4696
41672SOL    HW229473   4.553   6.675   5.788  0.2333  0.9453  0.3354
41673SOL     OW29474   0.423   5.421   8.661 -0.4365  0.0653  0.2166
41673SOL    HW129475   0.434   5.382   8.748  1.9230  2.8173  1.3172
41673SOL    HW229476   0.511   5.423   8.625 -0.7376  2.4756 -0.5611
41674SOL     OW29477  11.046   8.040  10.373  0.3295 -0.4636  0.2251
41674SOL    HW129478  11.014   8.127  10.396  0.4327 -0.0616 -1.0953
41674SOL    HW229479  11.099   8.053  10.295 -1.0444 -1.9128 -1.0371
41675SOL     OW29480   6.705   3.220   3.309 -0.2441  0.0571 -0.3725
41675SOL    HW129481   6.675   3.149   3.253  0.3896  0.2348 -0.9383
41675SOL    HW229482   6.668   3.299   3.270 -0.8557  0.0655  0.1929
41676SOL     OW29483   0.601   2.333   9.239  0.3192  0.1314  0.7264
41676SOL    HW129484   0.566   2.307   9.154 -1.5999  0.0518  1.4968
41676SOL    HW229485   0.538   2.397   9.272  1.2696  0.4974  1.9016
41677SOL     OW29486   1.786  10.824  10.839  0.4991  0.1429  0.1400
41677SOL    HW129487   1.742  10.739  10.843 -1.6028  1.1914  0.2014
41677SOL    HW229488   1.716  10.888  10.836  2.0346  1.9291  0.4103
41678SOL     OW29489   5.716   5.353   7.997  0.1307  0.1022  0.2173
41678SOL    HW129490   5.731   5.259   8.005 -1.3193 -0.0308  2.0165
41678SOL    HW229491   5.682   5.380   8.082  0.9144  2.3657 -0.0978
41679SOL     OW29492   2.970   4.804   1.730 -0.0185  0.2806 -0.1682
41679SOL    HW129493   3.049   4.773   1.687 -0.4563  2.0921 -2.4650
41679SOL    HW229494   2.999   4.877   1.784  0.3202 -1.1754  1.7444
41680SOL     OW29495   7.282   1.865   3.826  0.1864 -0.5509 -0.3963
41680SOL    HW129496   7.253   1.793   3.770 -0.3092 -0.2226 -0.5663
41680SOL    HW229497   7.287   1.827   3.914 -0.7359 -0.6210 -0.3704
41681SOL     OW29498   0.516   2.932   9.863  0.1725 -0.2733 -0.3089
41681SOL    HW129499   0.423   2.954   9.866 -0.0454 -1.1175 -0.4340
41681SOL    HW229500   0.545   2.937   9.953  0.0295  0.0864 -0.2806
41682SOL     OW29501   3.746   4.262   8.637  0.0160 -0.0597  0.3209
41682SOL    HW129502   3.831   4.262   8.681  0.4416 -2.0506 -0.4280
41682SOL    HW229503   3.752   4.193   8.572 -2.5733 -1.0488  1.0102
41683SOL     OW29504   6.051   9.106   5.086  0.1503 -0.2070  0.9173
41683SOL    HW129505   6.134   9.065   5.107  0.7251 -0.0863 -0.9840
41683SOL    HW229506   5.987   9.035   5.092  0.6295 -0.6466  0.9030
41684SOL     OW29507   1.030   7.458   9.241 -0.0926  0.2534  0.0990
41684SOL    HW129508   0.947   7.481   9.283 -0.3987 -0.1425 -0.2761
41684SOL    HW229509   1.046   7.528   9.178  0.1469  0.6204  0.5564
41685SOL     OW29510   2.581   3.501   8.119 -0.1810  0.2912 -0.5827
41685SOL    HW129511   2.661   3.529   8.075  0.0895  0.8345  0.2243
41685SOL    HW229512   2.578   3.406   8.105  1.3456  0.0394  0.5083
41686SOL     OW29513   7.118   0.347   4.151 -0.1310 -0.7078 -0.2873
41686SOL    HW129514   7.112   0.256   4.122 -1.2564 -1.1439  1.1964
41686SOL    HW229515   7.205   0.354   4.190  0.3103 -0.8747 -1.2059
41687SOL     OW29516   8.157   4.592  10.569 -0.0963  0.1962  0.5085
41687SOL    HW129517   8.191   4.658  10.509 -1.2694  1.2315  0.9500
41687SOL    HW229518   8.080   4.633  10.610 -0.3672 -1.1316  1.4057
41688SOL     OW29519   1.171   7.405   8.889  0.5025  0.0003  0.5274
41688SOL    HW129520   1.110   7.365   8.951  0.0344 -1.7226 -0.9374
41688SOL    HW229521   1.257   7.372   8.914  0.3371 -0.5460  0.3916
41689SOL     OW29522   7.233   2.020   8.501  0.6176  0.6676  0.1192
41689SOL    HW129523   7.232   1.940   8.553  0.6265 -0.3543 -1.4183
41689SOL    HW229524   7.325   2.034   8.480  0.6176  1.0959  0.3940
41690SOL     OW29525   6.756   9.603   8.157  0.7116 -0.1390  0.0961
41690SOL    HW129526   6.780   9.658   8.232  1.0904 -1.4993  1.0121
41690SOL    HW229527   6.833   9.549   8.140 -0.1088 -1.3838  0.1603
41691SOL     OW29528   5.827   6.902   0.241 -1.5673  0.5319  0.0812
41691SOL    HW129529   5.901   6.949   0.201 -0.4562 -0.2401  1.1698
41691SOL    HW229530   5.762   6.970   0.257 -0.6347  1.4350  0.1570
41692SOL     OW29531   4.040   7.071   2.961 -0.1170  0.1455  0.5230
41692SOL    HW129532   4.126   7.031   2.957 -0.3538 -0.3354  0.1322
41692SOL    HW229533   4.002   7.041   3.043 -0.6513 -1.1927 -0.1858
41693SOL     OW29534   3.361   5.916   9.389  0.2359 -0.1651  0.5623
41693SOL    HW129535   3.452   5.900   9.362  0.4304  0.6365  0.7116
41693SOL    HW229536   3.309   5.862   9.330  0.7741 -0.1118  0.0270
41694SOL     OW29537   3.958   2.219   3.543 -0.4323  0.2010  0.5030
41694SOL    HW129538   3.870   2.236   3.508 -1.1322  0.1339  2.1245
41694SOL    HW229539   3.973   2.126   3.526 -0.5653  0.2655  0.0131
41695SOL     OW29540   7.840   4.479   7.932  0.4929 -1.1147 -0.3443
41695SOL    HW129541   7.770   4.512   7.988  2.7569 -0.1151  2.1002
41695SOL    HW229542   7.834   4.530   7.852 -0.6287  0.0104  0.4328
41696SOL     OW29543   8.006   8.980   7.908 -0.4287  0.0068 -0.0448
41696SOL    HW129544   7.920   8.945   7.932 -1.3147  1.2927 -1.1946
41696SOL    HW229545   8.031   8.930   7.830 -0.7650  0.5259 -0.4938
41697SOL     OW29546   5.819   1.789   0.194 -0.6723  0.6289  0.0144
41697SOL    HW129547   5.750   1.855   0.191 -1.8756 -0.5951 -1.0519
41697SOL    HW229548   5.844   1.777   0.103  2.0359  2.0528  0.4799
41698SOL     OW29549   0.189   4.411   0.833 -0.1780 -0.1738 -0.1503
41698SOL    HW129550   0.138   4.342   0.874 -2.0120  0.1600 -1.7489
41698SOL    HW229551   0.130   4.451   0.769  1.4931  1.4931 -0.7679
41699SOL     OW29552   7.588   1.506   1.994  0.0894  0.2600 -0.3486
41699SOL    HW129553   7.613   1.438   2.057 -0.0497  1.2282  0.7743
41699SOL    HW229554   7.668   1.555   1.978  0.1307  0.0034 -0.9700
41700SOL     OW29555  10.731   5.870   5.186  0.1487  0.0213  0.1597
41700SOL    HW129556  10.770   5.954   5.164  0.2919 -0.0759  0.0391
41700SOL    HW229557  10.800   5.806   5.168  0.5510 -0.0003  1.6056
41701SOL     OW29558   2.982   5.798   9.398  0.8532  0.0215  0.1881
41701SOL    HW129559   2.986   5.752   9.482 -1.2628  3.8451  2.6311
41701SOL    HW229560   2.905   5.761   9.355  0.0944  0.1490  1.3886
41702SOL     OW29561   0.328   9.833   5.110  0.1932  0.1516 -0.8780
41702SOL    HW129562   0.394   9.802   5.048 -0.1348 -0.4470 -0.9330
41702SOL    HW229563   0.379   9.869   5.182  0.6075 -0.8057 -0.6671
41703SOL     OW29564   8.157   3.819   9.095 -0.1890  0.4092  0.2650
41703SOL    HW129565   8.125   3.763   9.024 -0.2932  0.8295 -0.0177
41703SOL    HW229566   8.139   3.908   9.066 -1.5843  0.5502  1.4747
41704SOL     OW29567   4.508   8.366   3.914  0.2013 -0.0688 -0.4246
41704SOL    HW129568   4.499   8.434   3.846  2.6649 -0.9774 -1.7881
41704SOL    HW229569   4.487   8.285   3.869  0.7689 -0.5629  0.1874
41705SOL     OW29570   0.966   6.822   9.277 -0.3227  0.6938 -0.0964
41705SOL    HW129571   1.020   6.789   9.205 -0.6541  2.5382 -1.2730
41705SOL    HW229572   0.891   6.762   9.281  0.1643  0.0347 -0.6677
41706SOL     OW29573   4.354   9.770   9.053 -0.1168  0.0034  0.3296
41706SOL    HW129574   4.410   9.835   9.094 -0.2610  0.2317  0.1696
41706SOL    HW229575   4.320   9.718   9.125  1.7491 -1.3380  0.3153
41707SOL     OW29576   5.115   1.793   9.787  0.0582  0.3320 -0.0741
41707SOL    HW129577   5.092   1.810   9.879  0.0964  0.1139 -0.0242
41707SOL    HW229578   5.032   1.784   9.742  0.0350  0.7621 -0.1218
41708SOL     OW29579   1.583   4.913   2.547  0.2163  0.0680 -0.3201
41708SOL    HW129580   1.554   4.907   2.456  2.2411  0.3438 -1.0479
41708SOL    HW229581   1.643   4.987   2.548  1.8501 -1.1928  0.7445
41709SOL     OW29582   1.187   0.230   9.314  0.0422 -0.3671 -0.1667
41709SOL    HW129583   1.163   0.155   9.368 -0.9933  0.1549  0.1386
41709SOL    HW229584   1.112   0.242   9.256  0.6663 -0.2325 -0.9611
41710SOL     OW29585  10.396   5.476   2.107  0.3888  0.0553 -0.0674
41710SOL    HW129586  10.382   5.383   2.120 -3.8386  0.4232 -0.5549
41710SOL    HW229587  10.407   5.511   2.196  0.5173 -0.7243  0.2314
41711SOL     OW29588   8.472   7.024   6.092  0.3992  0.3071 -0.4746
41711SOL    HW129589   8.472   7.079   6.013  0.4398  0.6587 -0.2291
41711SOL    HW229590   8.490   7.084   6.164  0.3021 -0.0040 -0.1867
41712SOL     OW29591  11.028   6.340   3.658 -0.5551  0.6518  0.2757
41712SOL    HW129592  11.123   6.340   3.667 -0.2579 -1.5425 -1.8877
41712SOL    HW229593  10.996   6.384   3.737  2.2378  1.8591  0.8273
41713SOL     OW29594   8.959   1.318   8.047 -0.1928  0.2357 -0.1772
41713SOL    HW129595   9.005   1.255   7.992  0.2770  0.2003  0.2462
41713SOL    HW229596   8.886   1.269   8.085 -1.0002  0.4604 -1.3696
41714SOL     OW29597   9.123   0.777   0.287 -0.4294  0.4727  0.0356
41714SOL    HW129598   9.188   0.739   0.346  0.0471 -2.0669 -1.9325
41714SOL    HW229599   9.043   0.782   0.340  0.3121 -0.4471  1.2846
41715SOL     OW29600   9.835   9.195   7.915  0.3658 -0.1429  0.0074
41715SOL    HW129601   9.767   9.202   7.848 -0.0482  3.8647  0.6154
41715SOL    HW229602   9.787   9.180   7.996  0.4460 -0.1803  0.0480
41716SOL     OW29603   0.896   2.191   4.636  0.0055 -0.0034  0.3331
41716SOL    HW129604   0.877   2.262   4.698  2.2683  1.6224 -0.7064
41716SOL    HW229605   0.967   2.142   4.677 -1.2176 -1.4331  0.8152
41717SOL     OW29606   8.470   7.823  10.868  0.1954  0.2080  0.0258
41717SOL    HW129607   8.408   7.753  10.847 -0.6336  0.9103  0.1273
41717SOL    HW229608   8.506   7.799  10.953  1.0057 -0.8417 -0.5720
41718SOL     OW29609   7.891   8.861   1.710  0.6491  0.5147 -0.4106
41718SOL    HW129610   7.945   8.913   1.769 -1.3727  1.5368  0.6551
41718SOL    HW229611   7.862   8.923   1.643  0.8344 -0.0271 -1.0052
41719SOL     OW29612   6.002   6.400  10.398 -0.1027  0.0050  0.0177
41719SOL    HW129613   6.048   6.334  10.449 -2.6535 -1.6161  0.4210
41719SOL    HW229614   5.909   6.385  10.417 -1.1201  0.4762 -3.7183
41720SOL     OW29615   7.409   8.151   0.235 -0.1483  0.5473  0.2402
41720SOL    HW129616   7.335   8.212   0.230 -0.2176  0.4447 -0.0298
41720SOL    HW229617   7.410   8.109   0.149  1.4863  2.0223 -0.5227
41721SOL     OW29618  10.963   6.143   5.918  0.3223 -0.0757  0.5780
41721SOL    HW129619  10.987   6.056   5.886 -1.1345  0.0677 -1.0749
41721SOL    HW229620  10.874   6.132   5.953 -0.3383  0.9445 -0.6946
41722SOL     OW29621   6.178   3.274   1.247 -0.1359 -0.3981 -0.9075
41722SOL    HW129622   6.138   3.272   1.334  3.1295 -0.6436  0.7430
41722SOL    HW229623   6.120   3.219   1.194 -1.9674 -0.7044  1.2078
41723SOL     OW29624   3.243   4.799  10.079  0.1094 -0.8467 -0.1285
41723SOL    HW129625   3.268   4.737  10.147  0.6997 -1.8608 -1.2254
41723SOL    HW229626   3.148   4.792  10.073 -0.0970  0.1716  1.4111
41724SOL     OW29627   1.803   5.630   5.100 -0.0572  0.1053  0.1632
41724SOL    HW129628   1.834   5.587   5.020 -0.6493 -0.7334  0.3633
41724SOL    HW229629   1.708   5.617   5.099 -0.4970  2.7791 -0.5305
41725SOL     OW29630   9.506   6.500   2.407 -0.3931 -0.3126  0.1117
41725SOL    HW129631   9.445   6.562   2.366 -0.4464  0.2888  1.0624
41725SOL    HW229632   9.556   6.553   2.469  1.8962 -0.5812 -1.4135
41726SOL     OW29633   0.774   6.965   5.963 -0.0614 -0.2861 -0.4777
41726SOL    HW129634   0.842   6.921   6.015  0.0963 -0.6060 -0.9500
41726SOL    HW229635   0.809   7.052   5.945  0.0529 -0.3141 -0.3923
41727SOL     OW29636   2.426   0.809   8.968 -0.0730  0.0804  0.2203
41727SOL    HW129637   2.477   0.754   8.909  1.2928 -0.1356  1.5384
41727SOL    HW229638   2.412   0.754   9.045 -2.7930 -0.0564 -0.2563
41728SOL     OW29639   2.196   3.689   3.799  0.5215  0.3038 -0.6079
41728SOL    HW129640   2.264   3.626   3.774  0.8600  0.1209  0.7040
41728SOL    HW229641   2.180   3.672   3.891  0.3613  1.9121 -0.3075
41729SOL     OW29642   9.459   9.540   6.681 -0.2542  0.3827 -0.2317
41729SOL    HW129643   9.402   9.597   6.734 -0.0534 -0.1362  0.5607
41729SOL    HW229644   9.547   9.571   6.699 -0.1489 -0.1157  0.1481
41730SOL     OW29645   1.625   4.744  10.478 -0.4103  0.0488 -0.6474
41730SOL    HW129646   1.665   4.751  10.564 -0.0691 -0.3549 -0.7763
41730SOL    HW229647   1.618   4.835  10.448 -3.5553  0.5604  1.1763
41731SOL     OW29648   8.653   1.458   3.512  0.0774 -0.2678 -0.2075
41731SOL    HW129649   8.657   1.529   3.447  2.1550 -0.2319 -0.0812
41731SOL    HW229650   8.734   1.409   3.499 -0.6108 -1.7095  0.7594
41732SOL     OW29651   7.781   3.059   2.678  0.2381 -0.0284 -0.3277
41732SOL    HW129652   7.741   3.083   2.595  1.5597 -1.0923 -1.3126
41732SOL    HW229653   7.862   3.110   2.682 -0.3414  0.8633  0.8700
41733SOL     OW29654   5.522  10.396   4.122  0.4327  0.3033  0.0457
41733SOL    HW129655   5.445  10.342   4.139 -1.0385  1.8969 -1.2063
41733SOL    HW229656   5.596  10.336   4.132 -1.1120 -2.1875 -1.9894
41734SOL     OW29657   4.552   5.909   7.951 -0.8799 -0.2797 -0.0332
41734SOL    HW129658   4.471   5.861   7.966 -2.7524  1.9737 -1.9371
41734SOL    HW229659   4.544   5.988   8.004  0.0609  0.0100 -0.2939
41735SOL     OW29660   8.416   6.246   1.535  0.4556 -0.0282  0.3773
41735SOL    HW129661   8.342   6.205   1.490 -1.4309 -0.7506  3.7539
41735SOL    HW229662   8.465   6.172   1.571  0.8384  0.5401  1.0370
41736SOL     OW29663   5.942   7.453   3.962 -0.1960  0.0716  0.0359
41736SOL    HW129664   5.864   7.405   3.933 -0.1236 -0.2454  0.3657
41736SOL    HW229665   6.013   7.389   3.958  0.1414  0.4891 -0.7182
41737SOL     OW29666   7.240   7.453   2.474 -0.3265 -0.1728  0.3836
41737SOL    HW129667   7.203   7.464   2.387  0.1629 -1.1857  0.0366
41737SOL    HW229668   7.240   7.541   2.512  0.2314  0.4153 -0.9472
41738SOL     OW29669   1.397   4.234   8.457 -0.0301 -0.1954 -0.1994
41738SOL    HW129670   1.431   4.276   8.536 -1.6489  1.8635 -0.4930
41738SOL    HW229671   1.468   4.242   8.393  0.7804 -0.6322  0.6165
41739SOL     OW29672   5.820   6.453   2.903  0.4209  0.2410 -0.3445
41739SOL    HW129673   5.743   6.449   2.846 -0.0825  2.4244  0.0753
41739SOL    HW229674   5.872   6.377   2.879 -1.2537 -0.5859 -1.5429
41740SOL     OW29675   5.706   6.128   4.074  0.0288  0.9691 -0.0564
41740SOL    HW129676   5.775   6.134   4.140 -0.2609  0.9254  0.2557
41740SOL    HW229677   5.635   6.182   4.109 -0.8128 -0.4602  0.5346
41741SOL     OW29678   8.192   3.423   9.084 -0.2712  0.0555  0.3552
41741SOL    HW129679   8.204   3.330   9.102  0.9176  0.1339 -0.0080
41741SOL    HW229680   8.152   3.426   8.997  1.8864 -0.0686 -0.6910
41742SOL     OW29681   1.565   2.659   1.370 -0.3568  0.1218 -0.3444
41742SOL    HW129682   1.557   2.565   1.385 -0.3454 -0.2506 -2.3275
41742SOL    HW229683   1.476   2.692   1.377 -0.2462  0.1523  1.2575
41743SOL     OW29684   8.689   2.868   8.331  0.1330 -0.5279 -0.4959
41743SOL    HW129685   8.640   2.844   8.410  2.0391  1.8242  1.6017
41743SOL    HW229686   8.738   2.789   8.308  0.8283 -0.8541  1.7934
41744SOL     OW29687   3.363  10.173   7.694 -0.8653 -0.1166 -0.1597
41744SOL    HW129688   3.351  10.082   7.722 -1.8369  0.0790  0.0885
41744SOL    HW229689   3.326  10.225   7.765  0.5417  0.5236  0.1523
41745SOL     OW29690   7.478   7.420   8.569 -0.2418  0.1795 -0.1687
41745SOL    HW129691   7.476   7.341   8.515  0.4393 -1.1275  1.6374
41745SOL    HW229692   7.560   7.464   8.543  0.6342 -0.9971  0.5175
41746SOL     OW29693   7.950   1.239   4.421  0.5529  0.2546 -0.3048
41746SOL    HW129694   7.871   1.241   4.473  1.2671  2.0209  0.7972
41746SOL    HW229695   7.955   1.150   4.388 -0.7123 -0.4929  1.4117
41747SOL     OW29696   1.721   5.546   8.794 -0.1214 -0.5029  0.4538
41747SOL    HW129697   1.640   5.558   8.745 -0.6319 -1.6385  0.9943
41747SOL    HW229698   1.718   5.613   8.863 -0.1559  0.0544 -0.0853
41748SOL     OW29699   9.843   8.005  10.759 -0.4093 -0.7350 -0.4165
41748SOL    HW129700   9.748   7.995  10.744 -0.5550  0.8891 -0.6753
41748SOL    HW229701   9.868   7.923  10.803 -2.2208 -0.5661  1.0722
41749SOL     OW29702   2.649   2.547   6.205  0.0848  0.3494  0.2966
41749SOL    HW129703   2.708   2.473   6.205 -2.5032 -1.9193 -1.4850
41749SOL    HW229704   2.601   2.540   6.288 -1.5184 -1.3153 -0.6841
41750SOL     OW29705   9.872   4.182   9.352  0.1520 -0.3924  0.6519
41750SOL    HW129706   9.928   4.182   9.430  2.4346  1.9042 -0.7847
41750SOL    HW229707   9.933   4.202   9.280 -1.9405 -1.8048 -1.6622
41751SOL     OW29708   6.412   3.041   3.737 -0.4302 -0.3131  0.0913
41751SOL    HW129709   6.346   3.041   3.667 -2.1654 -2.2437  1.5986
41751SOL    HW229710   6.437   2.949   3.745  1.1615  0.1620  0.7554
41752SOL     OW29711  10.152   7.227   6.585 -0.0317  0.0796  0.0541
41752SOL    HW129712  10.181   7.204   6.674 -1.8667 -1.0685  0.4145
41752SOL    HW229713  10.172   7.320   6.577  1.9197 -0.2067  0.9329
41753SOL     OW29714   6.338   3.158   4.609 -0.3756 -0.4928 -0.4547
41753SOL    HW129715   6.322   3.233   4.552 -1.1424  1.4699  2.1491
41753SOL    HW229716   6.434   3.153   4.616 -0.2850  2.4599  1.9104
41754SOL     OW29717   8.237   8.451   7.599 -0.3520  0.3126  0.1087
41754SOL    HW129718   8.302   8.392   7.563 -1.2547 -1.1425  0.7833
41754SOL    HW229719   8.187   8.482   7.523  1.2505  1.6894 -0.4499
41755SOL     OW29720   0.131  10.046   4.049  0.1962 -0.1871 -0.1275
41755SOL    HW129721   0.088   9.961   4.058  2.6373 -1.7112 -1.7240
41755SOL    HW229722   0.094  10.083   3.969  1.2627 -1.1823 -1.1166
41756SOL     OW29723   8.279   1.252   9.688 -0.2697  0.0751 -0.1867
41756SOL    HW129724   8.362   1.208   9.674  0.0756  0.2772  1.0607
41756SOL    HW229725   8.216   1.204   9.633  0.7872  0.4020 -1.7373
41757SOL     OW29726   8.952   5.056  10.720 -0.8480 -0.3403 -1.0966
41757SOL    HW129727   8.925   4.997  10.790 -0.7623 -0.8914 -1.5195
41757SOL    HW229728   9.009   5.120  10.763  0.1009 -1.3221 -0.8585
41758SOL     OW29729   5.365   4.704   2.806 -0.1124  0.2643 -0.1830
41758SOL    HW129730   5.372   4.719   2.712 -0.4042  2.1718  0.0523
41758SOL    HW229731   5.271   4.705   2.824 -0.0288  1.3765  0.2983
41759SOL     OW29732   6.823   8.108   7.326  0.4139  0.0612  0.1012
41759SOL    HW129733   6.740   8.153   7.343  0.9762  1.5476 -0.8283
41759SOL    HW229734   6.889   8.178   7.332  1.4750 -0.8805 -0.2553
41760SOL     OW29735   0.136   9.986   2.392 -0.0999  0.5746  0.3710
41760SOL    HW129736   0.095   9.990   2.305  1.0779  0.2811 -0.2200
41760SOL    HW229737   0.230   9.981   2.374  0.0767 -1.5438  1.6003
41761SOL     OW29738  10.360   6.032   8.102  0.1149  0.0856  0.1136
41761SOL    HW129739  10.362   6.033   8.197 -0.7994  1.0277  0.1315
41761SOL    HW229740  10.424   6.098   8.075 -1.2228  1.4283  0.1260
41762SOL     OW29741  10.080   2.002   7.045  0.0896  0.1016 -0.1264
41762SOL    HW129742  10.051   2.079   7.093 -1.0514  0.8484 -1.9170
41762SOL    HW229743  10.023   1.998   6.969  0.4719 -2.2221 -0.3771
41763SOL     OW29744   8.233   5.676   3.297 -0.0627 -0.0618  0.7320
41763SOL    HW129745   8.237   5.763   3.338  1.2905 -0.3296  1.2281
41763SOL    HW229746   8.319   5.665   3.256 -0.7035 -0.6156 -0.5324
41764SOL     OW29747   7.296   5.515   8.851 -0.0438  0.1874  0.6074
41764SOL    HW129748   7.347   5.463   8.913  0.2434  1.3070  1.3584
41764SOL    HW229749   7.345   5.597   8.843 -0.6140  0.4565 -0.3248
41765SOL     OW29750   8.626   5.979   6.528 -0.0335  0.0135  0.3679
41765SOL    HW129751   8.717   5.988   6.500 -0.5743  0.2041 -1.5053
41765SOL    HW229752   8.631   5.946   6.618  1.8700  0.4063  0.4437
41766SOL     OW29753   2.840   2.349   4.388  0.5723 -0.1894  0.3034
41766SOL    HW129754   2.758   2.397   4.380  0.6807  0.0587  0.6469
41766SOL    HW229755   2.896   2.387   4.320  0.0415 -1.1347 -0.6958
41767SOL     OW29756  10.165   5.387   0.239  0.5140  0.0254  0.1936
41767SOL    HW129757  10.201   5.431   0.317  1.1606 -0.1561 -0.0016
41767SOL    HW229758  10.216   5.307   0.231  1.3062  0.6334 -1.1422
41768SOL     OW29759   7.613   9.168   9.410 -0.4794  0.0556 -0.5691
41768SOL    HW129760   7.644   9.178   9.320 -0.9059 -0.2155 -0.7517
41768SOL    HW229761   7.539   9.229   9.417 -2.0877 -1.7141 -1.2053
41769SOL     OW29762   8.623   4.090   4.385  0.7904 -0.1146  0.4058
41769SOL    HW129763   8.677   4.091   4.306  1.9259 -0.0658  1.1577
41769SOL    HW229764   8.618   4.182   4.412 -1.5096  0.1856 -0.8391
41770SOL     OW29765   3.005   8.566   0.587  0.0665 -0.0757  0.3239
41770SOL    HW129766   3.053   8.551   0.668 -0.3482 -1.1154  0.3857
41770SOL    HW229767   2.928   8.617   0.613  1.2990  1.9777  0.1647
41771SOL     OW29768   6.897   4.512   9.464 -0.5206  0.0645  0.4034
41771SOL    HW129769   6.806   4.511   9.436 -0.3066 -1.1416 -0.3465
41771SOL    HW229770   6.947   4.523   9.383  0.0722 -2.2225  0.3706
41772SOL     OW29771  10.579   5.519  11.052  0.4144  0.2359 -0.0863
41772SOL    HW129772  10.505   5.553  11.003 -0.4230  0.5277  1.3332
41772SOL    HW229773  10.562   5.425  11.061 -0.5226  0.5109  1.3956
41773SOL     OW29774   7.310  10.856   4.667  0.1744 -0.2894  0.0433
41773SOL    HW129775   7.370  10.802   4.718 -0.7716 -1.4726 -0.0444
41773SOL    HW229776   7.365  10.896   4.600  1.0280 -0.5322  0.5770
41774SOL     OW29777   4.476   7.101   8.760 -0.0875  0.0612  0.0064
41774SOL    HW129778   4.402   7.138   8.809 -0.0015  0.4109 -0.1286
41774SOL    HW229779   4.520   7.177   8.722  1.0179 -0.0412  1.0175
41775SOL     OW29780   5.180   2.186  10.520 -0.2830 -0.6282  0.0799
41775SOL    HW129781   5.180   2.170  10.615  0.0449 -1.1964 -0.0120
41775SOL    HW229782   5.094   2.156  10.491 -0.2265 -0.8443  0.1344
41776SOL     OW29783   3.951   8.419   4.486 -0.0586 -0.1665  0.0905
41776SOL    HW129784   3.890   8.358   4.443  0.9247  0.0943 -1.7940
41776SOL    HW229785   3.918   8.505   4.462 -0.2341  0.0112  0.9703
41777SOL     OW29786  10.613   0.395   1.599  0.0002 -0.0307  1.1973
41777SOL    HW129787  10.524   0.359   1.605 -0.7863  1.8916  1.9090
41777SOL    HW229788  10.642   0.401   1.690  0.9675 -0.8209  0.9596
41778SOL     OW29789   3.888   6.981   4.828  0.1074  0.3637 -0.2329
41778SOL    HW129790   3.830   7.046   4.866 -0.4561 -0.0474 -0.3768
41778SOL    HW229791   3.976   7.015   4.843 -0.0169 -0.2413  2.3151
41779SOL     OW29792   6.138   5.972   2.102  0.1124  0.6267  0.5459
41779SOL    HW129793   6.171   5.985   2.013 -1.1823  0.0026 -0.0420
41779SOL    HW229794   6.185   6.038   2.154 -1.2172  3.0671 -1.1148
41780SOL     OW29795   3.884   3.274   6.945 -0.0396  0.1289 -0.8169
41780SOL    HW129796   3.889   3.200   7.005  1.4353 -0.2887 -1.4171
41780SOL    HW229797   3.967   3.321   6.958  0.6116 -0.3377 -2.9657
41781SOL     OW29798   6.244   2.780  10.409  0.1228  0.5721  0.3655
41781SOL    HW129799   6.272   2.856  10.461  1.6558  1.3233 -1.4258
41781SOL    HW229800   6.283   2.795  10.322 -3.7241  0.3128 -1.6094
41782SOL     OW29801  10.294   7.280   8.793 -1.1157 -0.1175 -0.9407
41782SOL    HW129802  10.326   7.254   8.707  1.1302 -0.2426 -0.1126
41782SOL    HW229803  10.315   7.374   8.799  0.6113 -0.5316  0.2019
41783SOL     OW29804   8.197   1.159   5.712  1.1403  0.7463  0.3880
41783SOL    HW129805   8.172   1.209   5.634 -1.4272  1.3357  1.4890
41783SOL    HW229806   8.154   1.074   5.701  1.4540  0.5314  0.7946
41784SOL     OW29807   7.879   8.742   1.151 -0.5180  0.0468  0.1155
41784SOL    HW129808   7.799   8.779   1.190 -0.2701 -0.8319  1.5323
41784SOL    HW229809   7.907   8.674   1.213  1.7916  0.8860  0.1044
41785SOL     OW29810   2.155   3.441   9.780  0.1976 -0.0424  0.0421
41785SOL    HW129811   2.160   3.423   9.686  3.1571  1.8678 -0.3184
41785SOL    HW229812   2.069   3.480   9.793  0.3876  1.3161 -2.2805
41786SOL     OW29813   4.714  10.834   8.401  0.0866  0.2859  0.5462
41786SOL    HW129814   4.757  10.843   8.486 -1.9121 -0.3561  1.6976
41786SOL    HW229815   4.637  10.780   8.419 -0.4665  0.2377 -1.6650
41787SOL     OW29816   8.574   6.100   7.155 -0.3380  0.0073  0.2975
41787SOL    HW129817   8.481   6.117   7.142 -0.8109 -1.9095  0.8666
41787SOL    HW229818   8.586   6.009   7.129  1.5810  0.4664 -0.6299
41788SOL     OW29819   3.944   1.653   7.542  0.3343  0.3736 -0.3704
41788SOL    HW129820   4.012   1.653   7.610  1.0133  1.3133 -1.0319
41788SOL    HW229821   3.988   1.621   7.463 -0.0563  0.7387 -0.7434
41789SOL     OW29822   2.022   2.270  10.236  0.3204  0.4068  0.4166
41789SOL    HW129823   2.073   2.229  10.166  1.2698  1.6056  0.3720
41789SOL    HW229824   2.022   2.206  10.307  1.4938  0.1991  0.2363
41790SOL     OW29825   3.900   5.670   1.512  0.4514  0.0243 -0.0400
41790SOL    HW129826   3.938   5.583   1.499  0.9775  0.2599 -0.0746
41790SOL    HW229827   3.827   5.655   1.572 -0.0807 -0.5934 -0.8223
41791SOL     OW29828   9.387   4.374   2.311  0.2282  0.1353 -0.3893
41791SOL    HW129829   9.452   4.338   2.250  1.4137  0.5805  0.5802
41791SOL    HW229830   9.438   4.401   2.387 -1.3342 -1.3319  1.2586
41792SOL     OW29831   8.029   3.824   1.481  0.2137  0.6615  0.4606
41792SOL    HW129832   8.075   3.907   1.472  0.3498  0.5774  0.3840
41792SOL    HW229833   7.955   3.831   1.421 -0.1393  0.9792  0.9245
41793SOL     OW29834   6.230   8.538  10.597  0.9360 -0.3237 -1.0576
41793SOL    HW129835   6.284   8.507  10.670 -2.0252  0.0146  1.4407
41793SOL    HW229836   6.257   8.630  10.585  0.8324 -0.0973  0.2788
41794SOL     OW29837   7.625   0.925   5.934  0.7663 -0.0034 -0.3430
41794SOL    HW129838   7.618   0.856   5.868 -0.7299 -0.3787  0.1787
41794SOL    HW229839   7.550   0.982   5.918 -0.6115 -0.9943  1.9820
41795SOL     OW29840   6.688   1.968   0.117  0.1487 -0.3244 -0.7305
41795SOL    HW129841   6.747   1.900   0.150 -0.4472 -0.1149  0.8271
41795SOL    HW229842   6.717   1.982   0.027  0.0161 -2.9327 -1.2527
41796SOL     OW29843   4.901   8.181   1.638  0.0457  0.3166  0.1924
41796SOL    HW129844   4.926   8.232   1.715  0.9191  0.1228  0.0461
41796SOL    HW229845   4.891   8.246   1.568  1.6327  0.2673 -0.1131
41797SOL     OW29846   5.635   3.640   1.152 -0.0143 -0.1679 -0.6800
41797SOL    HW129847   5.711   3.695   1.135  0.5076 -0.7750 -0.3556
41797SOL    HW229848   5.627   3.587   1.072  1.0011 -1.3489 -0.0478
41798SOL     OW29849   4.627   1.485   5.493 -0.1139  0.0951 -0.4716
41798SOL    HW129850   4.686   1.560   5.501 -0.5633  0.3607  0.5826
41798SOL    HW229851   4.550   1.510   5.544  0.0365 -1.3819  0.5270
41799SOL     OW29852   5.887   4.820  10.478 -0.8651 -0.0281  0.0004
41799SOL    HW129853   5.821   4.840  10.544  0.5275  0.2474  1.3748
41799SOL    HW229854   5.886   4.896  10.420 -0.9438  0.5215  0.7031
41800SOL     OW29855   8.465   0.666  11.002  0.3588 -0.1021 -0.2105
41800SOL    HW129856   8.477   0.656  10.908 -1.6402 -0.8831 -0.4314
41800SOL    HW229857   8.554   0.665  11.038  1.1238 -0.5189 -2.0129
41801SOL     OW29858   1.719   1.690   1.031  0.1940 -0.0414  0.1234
41801SOL    HW129859   1.686   1.687   0.941  0.0838  0.4797  0.1422
41801SOL    HW229860   1.780   1.616   1.038 -0.1795 -0.3866 -0.2265
41802SOL     OW29861   1.580   8.347   6.062 -0.2233 -0.1630 -0.4099
41802SOL    HW129862   1.658   8.390   6.097 -0.3045  0.8295 -1.3981
41802SOL    HW229863   1.615   8.282   6.001 -0.1635  0.9326 -1.5756
41803SOL     OW29864   4.522   4.045   7.054  0.3424  0.3113  0.6702
41803SOL    HW129865   4.444   3.990   7.061  0.6647 -0.2537  0.0031
41803SOL    HW229866   4.513   4.110   7.123 -1.1693  0.8160  0.0418
41804SOL     OW29867   2.492   0.907  10.307 -0.5214 -0.3505 -0.1527
41804SOL    HW129868   2.429   0.969  10.346  1.1564  1.0861  0.3845
41804SOL    HW229869   2.513   0.848  10.379 -1.1204 -0.7415 -0.2900
41805SOL     OW29870   8.125   1.126   1.300  0.1001 -0.0087  0.8823
41805SOL    HW129871   8.064   1.199   1.313  0.7793  0.8577 -0.5636
41805SOL    HW229872   8.146   1.129   1.207  0.3194 -1.9344  0.8435
41806SOL     OW29873   6.221   9.003  11.055  0.5047 -0.1134  0.1755
41806SOL    HW129874   6.263   8.953  11.124 -0.1651 -1.2854 -0.2510
41806SOL    HW229875   6.135   8.963  11.043 -0.3427  1.5576  0.2737
41807SOL     OW29876   4.907   3.493   6.405 -0.0196 -0.0668  0.4534
41807SOL    HW129877   4.850   3.498   6.481 -0.5491 -0.2533  0.0761
41807SOL    HW229878   4.949   3.407   6.412 -0.4588 -0.2985  0.2639
41808SOL     OW29879   3.181  10.147   9.436  0.0104  0.1141  0.1847
41808SOL    HW129880   3.195  10.166   9.343  3.1945  0.8632  0.6871
41808SOL    HW229881   3.089  10.167   9.451 -0.2657  1.3081 -2.5044
41809SOL     OW29882  10.269   0.782  11.054 -0.1673  0.3815 -0.5550
41809SOL    HW129883  10.354   0.824  11.046  0.5260 -0.5679  1.2869
41809SOL    HW229884  10.268   0.746  11.143 -1.2226 -2.3577 -1.5676
41810SOL     OW29885   6.193   5.242   1.940 -0.1094  0.2953 -0.0368
41810SOL    HW129886   6.268   5.188   1.966 -1.7465 -1.9661  0.2536
41810SOL    HW229887   6.232   5.317   1.895  2.3563 -0.3005  0.9538
41811SOL     OW29888   4.860   3.948   2.431 -0.0684 -0.4102 -0.7605
41811SOL    HW129889   4.863   3.901   2.515  1.5896  2.8984  1.2310
41811SOL    HW229890   4.767   3.956   2.412 -0.5353 -0.5891  1.1979
41812SOL     OW29891   2.858   5.422   5.880 -0.4434 -0.4068 -0.3557
41812SOL    HW129892   2.886   5.463   5.962  0.8989  0.2135 -1.1010
41812SOL    HW229893   2.770   5.388   5.899 -1.2311  1.9917  0.5815
41813SOL     OW29894  11.047   3.429   9.728  0.7059  0.5463  0.1162
41813SOL    HW129895  11.088   3.357   9.775  2.5453  0.4891 -1.4577
41813SOL    HW229896  11.073   3.417   9.637 -2.4983  0.7958 -0.9654
41814SOL     OW29897   2.754   1.616   1.177 -0.7832  0.3125  0.1815
41814SOL    HW129898   2.680   1.555   1.175 -0.4679 -0.0636 -0.3817
41814SOL    HW229899   2.786   1.612   1.267 -0.0583 -1.2352 -0.1104
41815SOL     OW29900   2.932   5.120   4.586  0.3181 -0.1229 -0.0554
41815SOL    HW129901   3.027   5.112   4.577  0.1111 -0.7795 -2.1443
41815SOL    HW229902   2.919   5.197   4.641  2.0452  1.4474 -1.7273
41816SOL     OW29903   5.310   4.597  10.737 -0.0103 -0.1538 -0.4687
41816SOL    HW129904   5.284   4.513  10.699 -0.6756  0.0371 -0.4473
41816SOL    HW229905   5.240   4.618  10.799 -1.3498  1.7515 -2.4786
41817SOL     OW29906   0.583  10.693   9.173 -0.2390  0.0205 -0.4846
41817SOL    HW129907   0.660  10.701   9.229  0.1175  1.1868 -1.1051
41817SOL    HW229908   0.616  10.703   9.084 -1.1430  0.9966 -0.7366
41818SOL     OW29909   4.534   5.647   4.801 -0.1604 -0.1439  0.3387
41818SOL    HW129910   4.450   5.610   4.825 -0.6328  0.6444 -0.0451
41818SOL    HW229911   4.596   5.614   4.866 -0.4281 -2.0670 -0.3417
41819SOL     OW29912   4.978   4.404   7.987  0.1367 -0.2790 -0.5998
41819SOL    HW129913   4.919   4.368   7.921  0.3555 -0.2628 -0.8083
41819SOL    HW229914   4.924   4.417   8.064  0.0698 -1.1354 -0.4895
41820SOL     OW29915  11.063   6.485   3.114 -0.5557  0.1691  0.5460
41820SOL    HW129916  11.007   6.416   3.151 -0.9903 -0.1595 -0.6815
41820SOL    HW229917  11.002   6.543   3.068 -0.0692  0.7833  0.6752
41821SOL     OW29918   0.338  10.337   6.359 -0.2232  0.1505 -0.1039
41821SOL    HW129919   0.309  10.428   6.350  0.3148  0.3484  0.1335
41821SOL    HW229920   0.270  10.296   6.413 -0.3964  0.4482 -0.0912
41822SOL     OW29921   9.594   7.186   3.264 -0.2322 -0.1379 -0.4022
41822SOL    HW129922   9.594   7.239   3.343 -2.1322  1.0131 -1.0892
41822SOL    HW229923   9.599   7.250   3.192  0.9783 -1.1196 -1.2276
41823SOL     OW29924   0.307   6.447  10.800 -0.3912  0.0548  0.1246
41823SOL    HW129925   0.317   6.541  10.788 -1.2713 -0.0995 -2.1655
41823SOL    HW229926   0.213   6.431  10.791 -0.6011 -0.8124  2.8490
41824SOL     OW29927   2.591   4.116   9.248 -0.1748 -0.1038 -0.1319
41824SOL    HW129928   2.587   4.054   9.321 -0.2932 -0.3156 -0.3158
41824SOL    HW229929   2.608   4.201   9.289  0.5025 -0.3411  0.0803
41825SOL     OW29930   4.400   4.016   6.051  0.1061 -0.0819  0.1434
41825SOL    HW129931   4.394   4.108   6.076  0.6446 -0.1642  0.6131
41825SOL    HW229932   4.367   4.013   5.961 -1.2552  0.3307  0.6179
41826SOL     OW29933   8.979   8.059   2.870 -0.0594 -0.2679 -0.1694
41826SOL    HW129934   8.952   7.982   2.921  0.2922 -0.2259  0.0845
41826SOL    HW229935   9.075   8.057   2.873 -0.0503  0.6231  0.5197
41827SOL     OW29936   4.640   3.864   3.674 -0.0322 -0.2706 -0.2584
41827SOL    HW129937   4.567   3.827   3.724 -0.6173  0.8629 -0.2534
41827SOL    HW229938   4.707   3.883   3.740 -0.3942  0.2562 -0.0420
41828SOL     OW29939   6.252   1.970   3.865 -0.0129 -1.0007 -0.2226
41828SOL    HW129940   6.297   2.041   3.819  0.5827  0.3259  2.2344
41828SOL    HW229941   6.322   1.914   3.897 -0.0809  0.0818  2.0485
41829SOL     OW29942  11.027   7.196   7.523  0.1373 -0.4287 -0.9126
41829SOL    HW129943  10.995   7.252   7.594 -0.4399 -2.5262  0.5651
41829SOL    HW229944  11.109   7.160   7.556  0.5985 -0.3434 -1.9223
41830SOL     OW29945   3.402   1.874  10.495  0.0090 -0.5875 -0.2251
41830SOL    HW129946   3.420   1.844  10.405  2.9918 -0.9640  0.3949
41830SOL    HW229947   3.465   1.944  10.510 -1.6551  0.7123  1.0345
41831SOL     OW29948   1.083   4.431   5.596  0.0782 -0.2578  0.2460
41831SOL    HW129949   1.178   4.437   5.604  0.0527  0.1189  0.2583
41831SOL    HW229950   1.068   4.344   5.559  0.3436 -0.8977  1.6005
41832SOL     OW29951   7.647   1.173   9.894 -0.2672  0.1286 -0.3155
41832SOL    HW129952   7.554   1.190   9.902 -0.8863 -1.6271 -2.5698
41832SOL    HW229953   7.668   1.114   9.967 -1.5044 -1.2922 -1.0429
41833SOL     OW29954   1.847   1.130   8.929  0.5161 -0.6897 -0.0464
41833SOL    HW129955   1.847   1.139   8.834 -0.0130  0.6659  0.0526
41833SOL    HW229956   1.827   1.038   8.945  1.6742 -1.1833 -1.2410
41834SOL     OW29957   8.642   4.522   8.009 -0.5592  0.0410 -0.4695
41834SOL    HW129958   8.708   4.581   8.045 -0.1358  0.4147 -1.7985
41834SOL    HW229959   8.689   4.439   7.996 -1.0808 -0.5471  1.1308
41835SOL     OW29960   5.926   6.720   6.373  0.2429  0.1730 -0.2523
41835SOL    HW129961   5.887   6.800   6.337  1.7826  1.3057  0.4807
41835SOL    HW229962   5.912   6.727   6.468 -0.2160 -0.7904 -0.2346
41836SOL     OW29963   2.908   8.421   3.564 -0.5889  0.3905  0.6959
41836SOL    HW129964   2.883   8.329   3.558 -1.0639  0.4814  1.2230
41836SOL    HW229965   2.963   8.436   3.487  1.0413 -0.8166  1.5495
41837SOL     OW29966   1.543   4.278   8.191  0.0632 -0.1345  0.2874
41837SOL    HW129967   1.633   4.308   8.207  0.1023  0.1586 -0.4300
41837SOL    HW229968   1.554   4.189   8.155  0.0853  0.0245 -0.1028
41838SOL     OW29969   3.188   1.621   3.109 -0.2300  0.6379  0.6754
41838SOL    HW129970   3.211   1.703   3.065  1.6889  1.2815  2.6632
41838SOL    HW229971   3.242   1.554   3.066  2.9213  1.5335  2.9061
41839SOL     OW29972   6.239   6.283   6.001 -0.3010  0.1787 -0.5312
41839SOL    HW129973   6.238   6.280   6.096  0.6687  0.2820 -0.5092
41839SOL    HW229974   6.151   6.256   5.975 -0.1594 -1.2576  0.3615
41840SOL     OW29975   5.588   3.017   5.952 -0.2346  0.2409  0.0899
41840SOL    HW129976   5.547   2.947   6.003  0.7096 -0.0617  0.4502
41840SOL    HW229977   5.543   3.097   5.980 -1.1694 -0.1886 -0.1628
41841SOL     OW29978   4.598   1.083  10.984  0.0992  0.2441  0.2586
41841SOL    HW129979   4.622   1.164  11.030 -1.3997  0.8004  0.1077
41841SOL    HW229980   4.607   1.014  11.050  0.9488  0.5762  0.5151
41842SOL     OW29981  10.579  10.410  10.766  0.0657 -0.2168  0.0401
41842SOL    HW129982  10.663  10.364  10.767 -0.3242 -0.9110  1.0616
41842SOL    HW229983  10.570  10.446  10.854 -0.2326  0.7468 -0.3716
41843SOL     OW29984   9.082   6.824   9.366  0.0746 -0.4732  0.1424
41843SOL    HW129985   9.004   6.786   9.405 -0.0600 -0.7661 -0.3957
41843SOL    HW229986   9.136   6.850   9.440  0.0265 -1.4275  0.5281
41844SOL     OW29987   4.599   9.355   2.154 -0.1465  0.6038 -0.0605
41844SOL    HW129988   4.596   9.261   2.175  1.5555  0.5470  0.0289
41844SOL    HW229989   4.592   9.358   2.059 -0.1034  0.3844 -0.0715
41845SOL     OW29990  10.539   7.524   2.344  0.6171  1.4856 -0.1356
41845SOL    HW129991  10.509   7.546   2.256  0.6243  1.9846 -0.0177
41845SOL    HW229992  10.606   7.590   2.364  1.9684  0.2651 -0.4826
41846SOL     OW29993   9.683   9.897   5.664 -0.5690  0.1262  0.2335
41846SOL    HW129994   9.645   9.813   5.639  0.3212 -0.0591 -0.5822
41846SOL    HW229995   9.639   9.961   5.607 -0.5875  0.0873  0.2043
41847SOL     OW29996   9.778   2.499   8.563 -0.1964 -0.7123  0.0613
41847SOL    HW129997   9.847   2.492   8.497 -0.3914  2.0474 -0.5387
41847SOL    HW229998   9.697   2.487   8.514 -0.2447 -1.9626  0.4194
41848SOL     OW29999   9.109   7.259   1.046 -0.3985 -0.3180  0.3019
41848SOL    HW130000   9.104   7.352   1.025  0.5929  0.1277  1.8601
41848SOL    HW230001   9.203   7.242   1.056 -0.6435 -1.2083  1.1927
41849SOL     OW30002   7.734   3.229   5.609 -0.4977  0.2523  0.0128
41849SOL    HW130003   7.817   3.187   5.632 -0.8839 -0.6199 -0.1398
41849SOL    HW230004   7.754   3.322   5.608  0.7225  0.0117 -0.9681
41850SOL     OW30005   4.661   5.447   0.892  0.6576  0.4930  0.5894
41850SOL    HW130006   4.649   5.523   0.949  0.0354  0.3011  0.7254
41850SOL    HW230007   4.643   5.480   0.804  0.3536  0.4954  0.6523
41851SOL     OW30008   9.046   1.692   4.333 -0.0032 -0.2557  0.1136
41851SOL    HW130009   9.090   1.776   4.319  0.9527 -0.3529  2.2033
41851SOL    HW230010   8.962   1.716   4.372  0.5431 -0.2564  1.3369
41852SOL     OW30011   5.212   9.229   5.723  0.1474  0.1505 -1.1992
41852SOL    HW130012   5.177   9.224   5.812 -0.1233 -0.2120 -1.3282
41852SOL    HW230013   5.294   9.279   5.733  0.1217  0.1083 -0.7472
41853SOL     OW30014   1.055   1.038   2.645  0.2962 -0.7738  0.2421
41853SOL    HW130015   1.055   1.009   2.554 -1.7883 -4.1566  1.1375
41853SOL    HW230016   1.138   1.008   2.680 -0.4694 -2.9961  0.3089
41854SOL     OW30017   5.242   5.944   4.138 -0.2505  0.2371  0.3203
41854SOL    HW130018   5.337   5.936   4.139 -0.2452  0.3366  1.7708
41854SOL    HW230019   5.223   6.015   4.199 -1.3765 -1.1312  1.6127
41855SOL     OW30020   7.857   7.449   2.603  0.3484 -0.6312 -0.1971
41855SOL    HW130021   7.771   7.428   2.567  0.3673  0.1498 -0.7320
41855SOL    HW230022   7.876   7.536   2.568 -0.1943  0.7572  2.7306
41856SOL     OW30023   0.397   4.013   6.593  0.3786 -0.7390  0.3804
41856SOL    HW130024   0.458   4.048   6.530  0.1552  2.0461  1.5603
41856SOL    HW230025   0.312   4.017   6.550  0.5724 -1.4958 -0.0891
41857SOL     OW30026   4.124  10.398   9.760 -0.2930 -0.2092 -0.0835
41857SOL    HW130027   4.153  10.429   9.674  1.0415  1.5083  0.9245
41857SOL    HW230028   4.152  10.307   9.763  0.3434 -0.0674 -1.1831
41858SOL     OW30029   0.226   3.568   9.827 -0.6441  0.5978 -0.1320
41858SOL    HW130030   0.147   3.577   9.773 -0.1835 -1.7287 -1.3519
41858SOL    HW230031   0.193   3.543   9.913 -1.2795  1.1727 -0.1937
41859SOL     OW30032  10.978   0.224   2.445  0.6972 -0.3939  0.5958
41859SOL    HW130033  11.045   0.170   2.405  1.4828 -0.3242  1.7748
41859SOL    HW230034  10.898   0.171   2.441  0.8886 -0.6047 -0.5252
41860SOL     OW30035   4.638   6.875  10.391 -0.1224  0.6868 -0.0967
41860SOL    HW130036   4.590   6.814  10.446 -1.3055  0.9771 -0.7708
41860SOL    HW230037   4.655   6.951  10.447 -0.5249  0.6150  0.1208
41861SOL     OW30038  10.422   4.468   1.233  0.1092  0.4322 -0.0642
41861SOL    HW130039  10.361   4.504   1.169  0.7704 -0.0001 -0.9573
41861SOL    HW230040  10.408   4.373   1.228 -0.2817  0.4211  0.9094
41862SOL     OW30041   4.804   0.339   2.365  0.2844 -0.1274 -0.3499
41862SOL    HW130042   4.713   0.327   2.393 -0.0064 -1.1570 -1.6136
41862SOL    HW230043   4.798   0.360   2.272  1.3045  0.9363 -0.1931
41863SOL     OW30044   4.911   9.536   7.406 -0.6206  0.0502 -0.4577
41863SOL    HW130045   5.004   9.546   7.386 -0.0771  0.4995  2.0214
41863SOL    HW230046   4.880   9.472   7.341  1.2008  0.4573 -1.8195
41864SOL     OW30047   9.861   4.835  10.216  0.1403  0.1163  0.1874
41864SOL    HW130048   9.768   4.815  10.231  0.0936 -0.4015 -0.6714
41864SOL    HW230049   9.868   4.929  10.234 -1.3017  0.9496 -2.8178
41865SOL     OW30050   5.776   4.541  10.600 -0.9659  0.1637  0.3864
41865SOL    HW130051   5.723   4.486  10.659 -1.4650  0.6723  0.4171
41865SOL    HW230052   5.730   4.624  10.597 -0.5435  0.3819 -0.1535
41866SOL     OW30053   0.084   7.259   4.157 -0.1500 -0.3751  0.0309
41866SOL    HW130054  -0.007   7.254   4.188 -0.0132 -0.1446  0.4861
41866SOL    HW230055   0.079   7.235   4.065 -0.5028 -1.5545  0.3377
41867SOL     OW30056  10.457   6.146   5.873 -1.0881 -0.0629  0.1590
41867SOL    HW130057  10.481   6.237   5.892 -0.9291 -0.2345  0.7905
41867SOL    HW230058  10.431   6.147   5.780  0.6315  0.2736 -0.3505
41868SOL     OW30059   0.309  10.182   8.384  1.1659 -0.1310 -0.4453
41868SOL    HW130060   0.229  10.139   8.352 -0.9174  2.3597  1.0272
41868SOL    HW230061   0.357  10.112   8.428 -1.2440 -1.3743  0.4019
41869SOL     OW30062   6.700   4.616  10.072  0.3683  0.3323  0.0895
41869SOL    HW130063   6.704   4.676  10.146  0.1495  0.1569  0.2446
41869SOL    HW230064   6.663   4.668  10.001  0.4325  0.4570  0.1464
41870SOL     OW30065  10.397  10.937  10.505  0.1562  0.0906  0.3638
41870SOL    HW130066  10.361  10.855  10.537  1.4209 -1.5755 -2.2017
41870SOL    HW230067  10.492  10.926  10.510  0.4176  2.3383  2.0542
41871SOL     OW30068  10.369   0.833   4.270 -0.1713 -0.1262  0.3081
41871SOL    HW130069  10.388   0.779   4.193  0.3766 -1.8983  1.6252
41871SOL    HW230070  10.443   0.893   4.276  0.9754 -1.5334  0.7500
41872SOL     OW30071   5.324   7.547   3.025  0.4170  0.8058 -1.0487
41872SOL    HW130072   5.291   7.613   2.964 -0.8767 -0.9539 -2.3640
41872SOL    HW230073   5.362   7.480   2.969 -1.3457 -1.1583 -0.0260
41873SOL     OW30074   2.370  10.589   0.689 -0.8405 -0.6657 -0.7229
41873SOL    HW130075   2.360  10.577   0.783  2.3288 -1.2350 -0.3302
41873SOL    HW230076   2.323  10.670   0.670 -0.2421  0.3537  1.6948
41874SOL     OW30077   7.727   7.372   0.619  0.4759  0.0467  0.9201
41874SOL    HW130078   7.819   7.386   0.644  0.5603  0.4880  0.3777
41874SOL    HW230079   7.707   7.283   0.650  1.6567 -0.8038 -0.5775
41875SOL     OW30080   7.131   3.421   9.966  0.3221 -0.0216 -0.4447
41875SOL    HW130081   7.089   3.389   9.887 -0.1159  0.4036 -0.3889
41875SOL    HW230082   7.096   3.366  10.036  0.6483 -0.3445 -0.5336
41876SOL     OW30083   0.450   7.500   3.181  0.3336 -0.3105 -0.0351
41876SOL    HW130084   0.375   7.500   3.240  1.4490 -0.7316  1.4249
41876SOL    HW230085   0.466   7.593   3.163 -0.1674 -0.1901  0.1256
41877SOL     OW30086   0.889   8.736   2.342 -0.4090 -0.2417 -0.4910
41877SOL    HW130087   0.945   8.755   2.417 -2.2427 -0.5929  1.0294
41877SOL    HW230088   0.861   8.646   2.355 -0.0415 -0.6381 -2.1309
41878SOL     OW30089   5.645   3.178   0.048  0.2045 -0.0645  0.4241
41878SOL    HW130090   5.723   3.185  -0.005  0.6433  0.0043  1.0635
41878SOL    HW230091   5.621   3.268   0.069  0.4713 -0.1166  0.9637
41879SOL     OW30092   7.276   1.450   9.497  0.1810  0.3505  0.8737
41879SOL    HW130093   7.342   1.395   9.455  1.2161 -0.4277  3.3427
41879SOL    HW230094   7.317   1.536   9.504 -0.2167  0.6379 -0.1549
41880SOL     OW30095   7.044   2.124   2.417  0.0686  0.1265  0.1215
41880SOL    HW130096   7.028   2.155   2.328 -1.2218 -1.1074 -0.1103
41880SOL    HW230097   6.992   2.044   2.424  1.6764 -0.8835  1.3474
41881SOL     OW30098   9.421   4.145   8.908  0.1585  0.4580 -0.5085
41881SOL    HW130099   9.368   4.102   8.840  0.2423 -1.0636  0.3427
41881SOL    HW230100   9.445   4.074   8.968  0.5556  1.6634  0.8119
41882SOL     OW30101   0.467   4.740  10.453  0.1394 -0.1750  0.4792
41882SOL    HW130102   0.397   4.782  10.403  0.2591 -2.2770 -1.6067
41882SOL    HW230103   0.424   4.667  10.498  0.9834 -1.9837 -1.4547
41883SOL     OW30104   5.946   6.241   7.644  0.4654 -0.4597  0.2529
41883SOL    HW130105   5.896   6.278   7.571  0.7507 -1.3458 -0.4011
41883SOL    HW230106   6.031   6.217   7.606  1.3754  0.8854  1.3092
41884SOL     OW30107   5.673   0.440   5.771  0.2426  0.3870 -0.0362
41884SOL    HW130108   5.689   0.448   5.865  0.0037  0.2976  0.0129
41884SOL    HW230109   5.738   0.497   5.730 -0.8469  1.9144  0.2557
41885SOL     OW30110  10.075   4.275   7.763 -0.2323  0.5063  0.4781
41885SOL    HW130111  10.161   4.262   7.722  0.3099  0.2102  1.6865
41885SOL    HW230112  10.015   4.224   7.708  0.4206  0.3813 -0.1401
41886SOL     OW30113   1.696   6.856   7.928  0.4163  0.0052 -0.0396
41886SOL    HW130114   1.680   6.882   7.837  1.0616  0.9487  0.1063
41886SOL    HW230115   1.609   6.845   7.966  0.0317 -2.8709 -1.4112
41887SOL     OW30116   4.950   5.511   5.868 -0.0008 -0.5754 -0.4781
41887SOL    HW130117   4.936   5.474   5.781 -1.6608 -3.3128  0.8221
41887SOL    HW230118   5.043   5.534   5.870 -0.1736  0.6740 -3.3046
41888SOL     OW30119   0.150   2.640   7.076  0.4910  0.6911  0.0745
41888SOL    HW130120   0.093   2.574   7.116 -1.3521  1.3790 -1.2393
41888SOL    HW230121   0.184   2.598   6.998  0.0815  0.9419 -0.2489
41889SOL     OW30122   4.296   1.725  10.421  0.2646  0.4281  0.5330
41889SOL    HW130123   4.298   1.657  10.353  0.2491  1.3820 -0.4457
41889SOL    HW230124   4.384   1.723  10.459 -0.4068 -1.7596  2.2158
41890SOL     OW30125   0.693   4.281   0.666  0.9743  0.6869 -0.5334
41890SOL    HW130126   0.780   4.251   0.639  1.3713  0.5849  0.7946
41890SOL    HW230127   0.711   4.354   0.726  0.1932 -0.2185  0.8254
41891SOL     OW30128   9.073   9.071   5.578  0.1686  0.7053 -0.1026
41891SOL    HW130129   9.144   9.013   5.604 -1.2214 -0.9154  0.2315
41891SOL    HW230130   9.097   9.101   5.490  0.2622 -1.5110 -0.8930
41892SOL     OW30131   0.320   1.075   4.348  0.1745 -0.8053  0.3744
41892SOL    HW130132   0.236   1.110   4.319  0.1947 -0.1480  1.0957
41892SOL    HW230133   0.298   0.996   4.397  0.1052 -1.6281 -0.9366
41893SOL     OW30134   6.259   5.169   1.355 -0.0131 -0.3497  0.1372
41893SOL    HW130135   6.285   5.100   1.416  0.1279 -0.9226 -0.5580
41893SOL    HW230136   6.342   5.210   1.329  0.0634 -1.0132 -0.7163
41894SOL     OW30137   9.591   4.327   8.825  0.3810  0.1002 -0.2371
41894SOL    HW130138   9.623   4.375   8.902  0.9875 -0.8222  0.1135
41894SOL    HW230139   9.524   4.269   8.860 -0.6339  0.9488 -0.7261
41895SOL     OW30140   3.049   4.035   8.582  0.5980 -0.3893 -0.0734
41895SOL    HW130141   3.092   4.116   8.611 -0.0141 -0.1051  0.0458
41895SOL    HW230142   3.122   3.976   8.560  1.0511  0.0356  0.2635
41896SOL     OW30143   1.470   9.182   6.728  0.5664  0.3464 -0.1647
41896SOL    HW130144   1.418   9.165   6.807 -0.0449 -3.3169 -1.1713
41896SOL    HW230145   1.557   9.206   6.761 -0.0740  0.3198  1.6210
41897SOL     OW30146   4.886  10.917   1.319 -0.5385 -0.2968 -0.1878
41897SOL    HW130147   4.880  10.951   1.229 -0.9041 -0.4777 -0.2330
41897SOL    HW230148   4.900  10.823   1.307 -1.6311 -0.4908 -0.0570
41898SOL     OW30149   6.376   0.497   8.936 -0.5142 -0.1120 -0.0403
41898SOL    HW130150   6.408   0.446   9.010 -0.8914  2.3136  1.9013
41898SOL    HW230151   6.413   0.584   8.949 -3.9973  1.5832 -0.2700
41899SOL     OW30152   4.830   6.976   3.609  0.1501  0.2719 -0.5419
41899SOL    HW130153   4.771   6.924   3.663 -0.6714  2.1012  0.4386
41899SOL    HW230154   4.917   6.957   3.644 -0.0794 -0.7135 -0.4727
41900SOL     OW30155   6.573   8.473   0.275  0.0673  0.4816  0.1323
41900SOL    HW130156   6.497   8.427   0.312  0.7855 -0.5295  0.3800
41900SOL    HW230157   6.557   8.565   0.296 -1.6217  0.4263 -0.7660
41901SOL     OW30158   6.385   5.964   7.628  0.1039 -0.2969  0.0077
41901SOL    HW130159   6.395   5.986   7.535  0.7088 -1.1327 -0.1427
41901SOL    HW230160   6.475   5.948   7.658 -0.2357 -1.8838  0.2479
41902SOL     OW30161   5.744   8.994   7.205  0.2581 -0.1904 -0.2719
41902SOL    HW130162   5.673   8.938   7.175 -0.3640  1.0994 -1.3356
41902SOL    HW230163   5.701   9.073   7.238  1.0312 -0.7645  2.3779
41903SOL     OW30164   2.925   1.107   2.712  0.4882  0.2858 -0.1495
41903SOL    HW130165   2.851   1.159   2.679  0.3769  0.6246  0.6029
41903SOL    HW230166   2.904   1.093   2.805 -0.0694 -2.1260 -0.5937
41904SOL     OW30167  10.801   8.767   8.880 -0.1876  0.7036  0.0786
41904SOL    HW130168  10.742   8.843   8.887 -0.5859  0.3125  1.1754
41904SOL    HW230169  10.873   8.787   8.940  0.1735  0.6222 -0.3238
41905SOL     OW30170   2.289   1.691   4.597  0.0997  0.2695 -0.0824
41905SOL    HW130171   2.283   1.756   4.527 -0.6567  1.8210  1.3467
41905SOL    HW230172   2.353   1.728   4.657 -0.6711 -0.0647  0.9705
41906SOL     OW30173   1.802   1.365   2.414  0.3673 -0.2451  0.1838
41906SOL    HW130174   1.849   1.436   2.369  1.1973 -0.5814  0.4945
41906SOL    HW230175   1.844   1.359   2.500 -0.5446 -0.2697  0.6416
41907SOL     OW30176   7.038   4.609  10.049  0.2648  0.2916  0.1637
41907SOL    HW130177   7.020   4.663  10.126 -0.7244  0.4471 -0.1624
41907SOL    HW230178   6.996   4.657   9.977  0.3772 -0.3285 -0.3182
41908SOL     OW30179  10.198   1.175   1.317  0.0481  0.2156  0.0967
41908SOL    HW130180  10.110   1.152   1.346 -0.1077 -1.1123 -1.3143
41908SOL    HW230181  10.199   1.153   1.224  2.0053 -0.1825  0.1795
41909SOL     OW30182  10.901   5.775   0.930 -0.0633  0.1062  0.0989
41909SOL    HW130183  10.864   5.724   0.858 -0.0092  0.3490 -0.1021
41909SOL    HW230184  10.942   5.850   0.887  1.4148 -0.5871  0.2348
41910SOL     OW30185   5.368   6.644   1.732 -0.7059 -0.1982 -0.4144
41910SOL    HW130186   5.342   6.587   1.805 -1.3463 -1.2074 -1.3879
41910SOL    HW230187   5.290   6.697   1.714 -0.2445  0.7162  0.2223
41911SOL     OW30188   7.349   4.243   9.692  0.2576  0.0222 -0.5758
41911SOL    HW130189   7.353   4.338   9.698 -0.2088  0.0763 -1.0146
41911SOL    HW230190   7.384   4.224   9.605 -1.2030 -0.0734 -1.1735
41912SOL     OW30191   0.908   7.481   8.357  0.2971 -0.3830 -0.1064
41912SOL    HW130192   0.841   7.522   8.412  0.8216  0.7602 -0.2968
41912SOL    HW230193   0.991   7.498   8.402  0.4201 -2.6596  0.6632
41913SOL     OW30194   3.081   5.609   5.084  0.1408  0.5206 -0.0172
41913SOL    HW130195   3.026   5.671   5.037 -1.6431 -1.0294 -0.0460
41913SOL    HW230196   3.107   5.545   5.019 -1.0257 -0.7484  0.7130
41914SOL     OW30197   2.788   3.855   1.936  0.4508 -0.4543 -0.3472
41914SOL    HW130198   2.828   3.854   1.849 -0.5487  0.3477 -0.8351
41914SOL    HW230199   2.716   3.791   1.930 -0.7077  0.8361 -0.6737
41915SOL     OW30200   9.037   9.630   2.190 -0.3808 -0.4488  0.1788
41915SOL    HW130201   9.063   9.547   2.150 -0.2680 -0.6110  0.5790
41915SOL    HW230202   9.024   9.609   2.283  2.7016  0.6187  0.9610
41916SOL     OW30203   2.456   0.095   0.840 -0.6703  0.0930 -0.4807
41916SOL    HW130204   2.371   0.137   0.855 -0.2723  1.4014 -1.7090
41916SOL    HW230205   2.518   0.168   0.832  0.8668 -0.8333  1.8079
41917SOL     OW30206   1.984   4.175   4.106  0.1118 -0.2352 -0.5410
41917SOL    HW130207   1.961   4.088   4.073  0.8804 -0.6362 -0.0625
41917SOL    HW230208   2.038   4.213   4.037 -1.8571  0.6957 -1.6521
41918SOL     OW30209   3.032   2.490   6.095  0.1930  0.4163 -0.0944
41918SOL    HW130210   3.005   2.409   6.138  3.0261  0.0695  1.2879
41918SOL    HW230211   3.083   2.461   6.019  2.5470  0.7156  1.2506
41919SOL     OW30212   2.434   3.378   4.119 -0.2736  0.0177 -0.1369
41919SOL    HW130213   2.412   3.436   4.047  0.9641 -1.1057 -1.4669
41919SOL    HW230214   2.370   3.400   4.187 -1.2451  1.3544 -1.4118
41920SOL     OW30215  10.241  10.354   1.096  0.0662  0.1392 -0.5709
41920SOL    HW130216  10.287  10.358   1.012  0.4571  0.9026 -0.3308
41920SOL    HW230217  10.297  10.300   1.151 -0.8063 -1.4332 -1.1541
41921SOL     OW30218   9.006   6.171   6.012  0.1582  0.2900  0.1574
41921SOL    HW130219   8.993   6.099   6.074 -0.8489  0.1259 -0.2218
41921SOL    HW230220   9.022   6.128   5.928 -1.2796  0.4774 -0.2367
41922SOL     OW30221   4.009   8.550   9.355  0.1041  0.1965  0.6173
41922SOL    HW130222   4.085   8.587   9.401 -1.9251  2.4910  2.3665
41922SOL    HW230223   3.964   8.499   9.422 -0.1710 -0.8006 -0.3003
41923SOL     OW30224   9.091   4.718   0.311  0.0675 -0.3262 -0.0905
41923SOL    HW130225   9.076   4.666   0.390  0.6349 -0.1766  0.1218
41923SOL    HW230226   9.062   4.806   0.334  1.9934  0.1737  0.6217
41924SOL     OW30227   9.302   6.265   0.403 -0.2921 -0.2531  0.3158
41924SOL    HW130228   9.353   6.242   0.325 -0.7259  0.6152 -0.2332
41924SOL    HW230229   9.300   6.361   0.403  0.8004 -0.1844  2.1089
41925SOL     OW30230  10.155   1.276  10.376 -0.1408 -0.6204 -0.0619
41925SOL    HW130231  10.200   1.341  10.430  0.3569 -0.4329 -0.6911
41925SOL    HW230232  10.140   1.321  10.292 -0.9000 -0.9052 -0.0868
41926SOL     OW30233   3.069   6.837   4.501 -0.7903  0.2433 -0.3129
41926SOL    HW130234   3.151   6.878   4.473  1.0907 -4.1273 -2.0989
41926SOL    HW230235   3.004   6.870   4.439 -0.2912  2.9440  0.4474
41927SOL     OW30236   3.154   1.107   6.139 -0.6027 -0.3057 -0.2409
41927SOL    HW130237   3.126   1.087   6.228 -1.4238  2.4817  0.2475
41927SOL    HW230238   3.079   1.084   6.084 -0.5020 -1.0348 -0.0728
41928SOL     OW30239   5.371   3.190   0.414  0.1293  0.0716 -0.1417
41928SOL    HW130240   5.453   3.155   0.380  0.2026 -1.9023  1.8032
41928SOL    HW230241   5.389   3.209   0.506 -0.9698  1.9060 -0.2534
41929SOL     OW30242   0.920   3.227   4.850 -0.0793 -0.3263  0.1513
41929SOL    HW130243   0.969   3.236   4.768 -1.0052  0.0588 -0.3738
41929SOL    HW230244   0.885   3.137   4.847 -0.6984 -0.0802 -0.2212
41930SOL     OW30245   3.476   6.029   4.773  0.2620 -0.1529  0.4160
41930SOL    HW130246   3.563   6.052   4.743  0.3580 -0.5480  0.3787
41930SOL    HW230247   3.448   5.959   4.713  0.1098 -0.3510  0.7146
41931SOL     OW30248   4.349   1.137  10.562 -0.2282 -0.2745 -0.2106
41931SOL    HW130249   4.362   1.232  10.557 -0.8387 -0.1411  0.5506
41931SOL    HW230250   4.398   1.111  10.640  0.1693 -0.6333 -0.5769
41932SOL     OW30251   5.613   1.616   1.781  0.0898  0.4409 -0.5812
41932SOL    HW130252   5.554   1.627   1.856  0.9197  1.0155  0.0038
41932SOL    HW230253   5.662   1.536   1.801  0.2730  0.5644 -0.5346
41933SOL     OW30254  10.949  10.383  10.040 -0.0293 -0.8090  0.7493
41933SOL    HW130255  11.023  10.328  10.013 -1.8385 -2.1521 -1.8848
41933SOL    HW230256  10.985  10.472  10.040  1.8319 -1.5072  0.5152
41934SOL     OW30257   6.907   3.382   7.397 -0.3456 -0.4211 -0.1270
41934SOL    HW130258   6.968   3.379   7.323 -1.0451 -0.3556 -0.7148
41934SOL    HW230259   6.822   3.364   7.359 -0.5506 -1.7781  0.8726
41935SOL     OW30260   8.947   0.588   1.684  0.5296  0.2259 -0.0549
41935SOL    HW130261   8.866   0.624   1.719 -0.1947  0.2511 -1.6795
41935SOL    HW230262   8.988   0.544   1.759 -1.9052 -1.4551  0.4117
41936SOL     OW30263  10.035  10.772  10.753  0.0489 -0.3811  0.0760
41936SOL    HW130264  10.013  10.710  10.683  0.2072  0.2662 -0.5579
41936SOL    HW230265   9.959  10.771  10.811 -0.6530  0.0627 -0.8163
41937SOL     OW30266   2.776   2.413   1.838  0.2670  0.6734 -0.0370
41937SOL    HW130267   2.747   2.488   1.787 -0.1402  1.0279  0.6870
41937SOL    HW230268   2.719   2.341   1.810  0.3257  0.7588 -0.3767
41938SOL     OW30269   2.784   8.311   1.029 -0.0937 -0.3554  0.0527
41938SOL    HW130270   2.780   8.238   1.092 -0.8588 -0.6068 -0.2727
41938SOL    HW230271   2.795   8.388   1.084  5.6828 -0.9476  0.3001
41939SOL     OW30272   0.360   7.933   2.615 -0.9028 -0.1962  0.6935
41939SOL    HW130273   0.354   7.846   2.577  0.9323 -0.5014  1.0074
41939SOL    HW230274   0.417   7.982   2.555 -1.1236  0.4940  1.0304
41940SOL     OW30275   7.782   9.016   6.960  0.1371  0.7003  0.2024
41940SOL    HW130276   7.774   8.947   6.894  0.7872  0.1017  0.7299
41940SOL    HW230277   7.876   9.037   6.961  0.3547 -0.1872  1.7857
41941SOL     OW30278   1.461   2.592   0.715 -0.6912 -0.3859 -0.5886
41941SOL    HW130279   1.409   2.671   0.724 -2.4653 -1.5348 -0.1226
41941SOL    HW230280   1.397   2.521   0.715  0.7958 -1.8036 -1.4423
41942SOL     OW30281   2.130   1.349   3.463  0.6777 -0.2219  0.4594
41942SOL    HW130282   2.111   1.443   3.457 -0.4648 -0.3518  1.5932
41942SOL    HW230283   2.185   1.331   3.387  0.0981  1.1642 -0.3342
41943SOL     OW30284   6.827  10.393   1.725 -0.3505 -0.1135 -0.4464
41943SOL    HW130285   6.818  10.453   1.651 -2.4558 -1.0470 -1.0232
41943SOL    HW230286   6.793  10.442   1.800  2.6136  1.1709  0.2302
41944SOL     OW30287   9.624   3.262   5.106 -0.0128 -0.1816  0.0024
41944SOL    HW130288   9.566   3.317   5.053 -0.5514 -1.1605 -0.4538
41944SOL    HW230289   9.574   3.246   5.187 -0.0309 -0.3365 -0.0390
41945SOL     OW30290   1.535  11.059   8.945 -0.3130  0.4335  0.2420
41945SOL    HW130291   1.483  11.020   8.875  1.0072 -0.1569 -0.4433
41945SOL    HW230292   1.584  10.986   8.983  0.1657  0.9954  0.7302
41946SOL     OW30293  10.387   7.670   0.440 -0.2454 -0.3238  0.4397
41946SOL    HW130294  10.327   7.744   0.431  2.7399  2.2468 -0.2705
41946SOL    HW230295  10.417   7.653   0.351 -0.1167 -1.7706  0.7343
41947SOL     OW30296   3.498  10.149   2.231 -0.0539  0.3520 -0.2605
41947SOL    HW130297   3.559  10.130   2.159 -1.2818 -1.0342 -0.9793
41947SOL    HW230298   3.416  10.170   2.187 -0.5222  0.6016  0.7259
41948SOL     OW30299   0.932   5.118   6.689  0.6239 -0.2017 -0.0570
41948SOL    HW130300   0.926   5.022   6.687 -2.1500 -0.1042 -1.9136
41948SOL    HW230301   0.937   5.139   6.782  0.5149 -2.1339  0.4313
41949SOL     OW30302   8.723   4.770   0.722  0.7807 -1.0083 -0.2631
41949SOL    HW130303   8.638   4.758   0.679  0.0175 -0.7058  1.0733
41949SOL    HW230304   8.781   4.803   0.654 -0.5124 -0.0365 -0.9378
41950SOL     OW30305   4.683   4.846   7.442 -0.5062  0.4506  0.2576
41950SOL    HW130306   4.589   4.862   7.441 -0.3243  1.6475 -0.4890
41950SOL    HW230307   4.713   4.873   7.355  0.5251  0.1349  0.5007
41951SOL     OW30308  10.677   9.419   3.029 -0.0680 -0.2551 -0.3509
41951SOL    HW130309  10.620   9.398   2.955  0.6947 -1.4685 -0.6243
41951SOL    HW230310  10.661   9.349   3.092 -1.3488  1.2148  1.0726
41952SOL     OW30311   2.809   3.454   3.918  0.1063 -0.0497 -0.3144
41952SOL    HW130312   2.735   3.462   3.857  1.0670  1.4539 -1.3323
41952SOL    HW230313   2.850   3.371   3.895 -0.6748 -0.4159 -0.4150
41953SOL     OW30314   1.676   9.596   5.008 -0.4245 -0.3193 -0.3781
41953SOL    HW130315   1.670   9.504   4.982 -0.1330 -0.4093 -0.1368
41953SOL    HW230316   1.678   9.594   5.104 -0.3716 -0.0658 -0.3735
41954SOL     OW30317   3.170   5.723   7.711  0.4119 -0.0832  1.0799
41954SOL    HW130318   3.191   5.630   7.716  1.7366  0.0143 -1.1058
41954SOL    HW230319   3.249   5.767   7.744  0.8011  0.2432 -0.2162
41955SOL     OW30320   8.631   7.671   0.864  0.4231  0.4389  0.0574
41955SOL    HW130321   8.578   7.636   0.937  0.5579  0.3794  0.1284
41955SOL    HW230322   8.610   7.764   0.862  0.0854  0.3607 -0.1095
41956SOL     OW30323   7.237   9.376   7.585 -0.1420 -0.0764 -0.3174
41956SOL    HW130324   7.206   9.447   7.641  1.6722  1.3021 -0.9486
41956SOL    HW230325   7.219   9.407   7.496 -0.4492 -0.9720 -0.5733
41957SOL     OW30326   7.823   1.930   8.272  0.0147  0.3196  0.9454
41957SOL    HW130327   7.766   1.937   8.196  0.1900  0.7938  0.8498
41957SOL    HW230328   7.853   2.020   8.287  1.5815 -0.0701  0.3342
41958SOL     OW30329   2.899   5.434   6.441 -0.2700 -0.1190 -0.4022
41958SOL    HW130330   2.937   5.367   6.497  0.6676  0.3560 -0.4560
41958SOL    HW230331   2.827   5.470   6.492 -0.5584 -0.9088 -0.2304
41959SOL     OW30332   2.012   6.994   8.219 -0.6727 -0.4085  0.4321
41959SOL    HW130333   1.975   7.023   8.136 -0.3242 -0.5283  0.2330
41959SOL    HW230334   1.938   6.995   8.280 -0.8532  0.0202  0.2088
41960SOL     OW30335   5.509   0.342   2.927  0.6209 -0.4821 -0.3620
41960SOL    HW130336   5.437   0.279   2.925  1.8683 -1.9193 -1.7311
41960SOL    HW230337   5.487   0.405   2.858  1.8530 -2.3539 -2.5733
41961SOL     OW30338  10.092   1.688   2.939  0.7795 -1.0656 -0.5395
41961SOL    HW130339  10.119   1.728   3.022  1.6514 -0.7640 -0.9574
41961SOL    HW230340  10.171   1.691   2.884  0.1353 -0.9871 -1.4832
41962SOL     OW30341   7.727   3.082   7.496  0.1174  0.1848  0.0568
41962SOL    HW130342   7.640   3.051   7.520  0.4155  0.0596  1.0150
41962SOL    HW230343   7.744   3.156   7.555  0.1489  1.0355 -0.9870
41963SOL     OW30344   6.540   4.046   6.250 -0.5981 -0.4545  0.1175
41963SOL    HW130345   6.611   4.016   6.194 -0.7310 -0.2843 -0.1460
41963SOL    HW230346   6.563   4.015   6.337 -0.2750 -0.5264  0.0073
41964SOL     OW30347   0.477   6.566   3.687  0.4211 -1.0632  0.5986
41964SOL    HW130348   0.535   6.610   3.750  0.5177 -1.4605  0.7919
41964SOL    HW230349   0.507   6.475   3.687  0.3271 -1.0961  0.0841
41965SOL     OW30350   1.155  10.078   5.271 -0.1084  0.3078 -0.2062
41965SOL    HW130351   1.170  10.170   5.293  1.6534 -0.2645  1.1941
41965SOL    HW230352   1.105  10.043   5.346  0.2249 -0.1312 -0.1825
41966SOL     OW30353   1.382   1.018   1.312 -0.1283  0.5090  0.4573
41966SOL    HW130354   1.304   0.963   1.310 -0.2411  0.6866 -0.5071
41966SOL    HW230355   1.349   1.108   1.314  0.0320  0.6132 -0.8941
41967SOL     OW30356   3.121   9.438   8.310  0.1367 -0.1374 -0.0632
41967SOL    HW130357   3.118   9.474   8.399 -0.5314 -0.0631 -0.1169
41967SOL    HW230358   3.211   9.405   8.302 -0.0227 -0.8820  0.9351
41968SOL     OW30359   0.047   9.098   0.621  0.1239 -0.5973 -0.0183
41968SOL    HW130360   0.108   9.026   0.639 -2.0209 -2.5328 -0.0579
41968SOL    HW230361  -0.032   9.055   0.590 -1.1961  1.8356 -0.2589
41969SOL     OW30362   5.147   5.126   1.867  0.1666 -0.4624  0.1112
41969SOL    HW130363   5.059   5.147   1.899  0.7102 -0.2366  1.5149
41969SOL    HW230364   5.135   5.045   1.817 -1.1004  0.4313 -1.1118
41970SOL     OW30365   0.115   6.854   2.394  0.1259 -0.2642  0.3303
41970SOL    HW130366   0.156   6.900   2.467  0.0097 -2.2107  1.6855
41970SOL    HW230367   0.021   6.861   2.412 -0.0730  1.3420 -1.0103
41971SOL     OW30368   7.534   7.694   0.323 -0.2049 -0.3228 -0.2132
41971SOL    HW130369   7.585   7.775   0.330 -1.4273  0.3984  0.7408
41971SOL    HW230370   7.522   7.665   0.414 -1.2520 -0.6186 -0.4293
41972SOL     OW30371   8.948   6.247   8.561 -0.2941 -0.1553  0.0757
41972SOL    HW130372   8.905   6.162   8.564 -1.5545  0.4885  1.5655
41972SOL    HW230373   8.981   6.254   8.471 -0.7559 -1.9063 -0.2652
41973SOL     OW30374   0.794   3.115   7.641  0.1595 -0.4819  0.1342
41973SOL    HW130375   0.865   3.155   7.692  1.1206  0.3216 -1.7321
41973SOL    HW230376   0.715   3.157   7.674  0.7537  0.1083  0.8554
41974SOL     OW30377   2.757   5.848   0.076 -0.2643 -0.2114  0.2786
41974SOL    HW130378   2.751   5.768   0.023  0.7225 -1.3219  1.7522
41974SOL    HW230379   2.851   5.856   0.096 -0.1575  1.9999 -0.7978
41975SOL     OW30380   8.584   3.120   6.903  0.4514 -0.2856  0.0446
41975SOL    HW130381   8.638   3.044   6.880 -0.0398 -0.4517 -0.5711
41975SOL    HW230382   8.635   3.165   6.971  1.2606 -0.5675 -0.3566
41976SOL     OW30383   4.490   1.093   8.177  0.5393  0.0244 -0.1554
41976SOL    HW130384   4.524   1.015   8.134 -1.2686 -0.1682 -1.3259
41976SOL    HW230385   4.417   1.061   8.230  1.1816  0.6327  1.1649
41977SOL     OW30386   6.063   1.582   4.575 -0.0135  0.3324 -0.4121
41977SOL    HW130387   6.019   1.653   4.528  0.5060 -1.3147 -3.7153
41977SOL    HW230388   6.151   1.581   4.538  0.6360 -0.7127  1.0990
41978SOL     OW30389   7.799   0.189   5.719  0.1774  0.8239  0.5898
41978SOL    HW130390   7.773   0.202   5.627 -0.3092  0.5750  0.6858
41978SOL    HW230391   7.839   0.102   5.720  0.2339  0.8502  0.6018
41979SOL     OW30392   4.340   8.498  10.901  0.4592  0.2553  0.6738
41979SOL    HW130393   4.379   8.554  10.967  1.5254 -0.8130  0.9811
41979SOL    HW230394   4.256   8.471  10.938  0.0718  1.3675  0.6492
41980SOL     OW30395   7.995   8.056   8.079  0.1296  0.0138  0.3649
41980SOL    HW130396   8.054   8.100   8.140  1.1778  0.8024 -1.1561
41980SOL    HW230397   8.049   8.037   8.003 -1.1331 -0.9762 -0.3231
41981SOL     OW30398   9.645   0.410  10.735  0.2934  0.3494 -0.2926
41981SOL    HW130399   9.643   0.323  10.774  2.5649 -0.0486 -0.9298
41981SOL    HW230400   9.638   0.470  10.809 -2.0883 -0.3048  0.0969
41982SOL     OW30401   7.207   4.068   4.429 -0.2223 -0.4638  0.0836
41982SOL    HW130402   7.197   3.979   4.395  0.5307 -0.0227 -1.4206
41982SOL    HW230403   7.297   4.071   4.462  0.6789  0.3974 -2.2095
41983SOL     OW30404   9.365  10.577   5.623  0.2306 -0.2430 -0.4014
41983SOL    HW130405   9.278  10.582   5.584  0.2972  1.8229 -0.3618
41983SOL    HW230406   9.350  10.569   5.717  0.0933 -1.0562 -0.4877
41984SOL     OW30407   7.809  10.514  10.244  0.0887  0.1346  0.0655
41984SOL    HW130408   7.894  10.471  10.240  0.3014  0.6669 -2.4620
41984SOL    HW230409   7.829  10.604  10.271  0.3517  0.2939 -0.6523
41985SOL     OW30410   4.940   1.855   7.445 -0.7372 -0.0994  0.0827
41985SOL    HW130411   5.026   1.883   7.413 -1.4482 -0.2281 -2.1194
41985SOL    HW230412   4.948   1.856   7.540  1.0421  1.9755 -0.0098
41986SOL     OW30413   3.024   9.566   7.613 -0.1745 -0.4106  0.2403
41986SOL    HW130414   3.043   9.524   7.697  1.7145 -0.1093  0.0228
41986SOL    HW230415   3.067   9.651   7.619 -1.8090  0.4868 -0.2716
41987SOL     OW30416   8.324   5.449   3.771  0.3659  0.2042 -0.0229
41987SOL    HW130417   8.383   5.489   3.707 -0.7492 -1.5118 -2.2686
41987SOL    HW230418   8.243   5.434   3.723 -1.3413  0.8367  2.4715
41988SOL     OW30419   4.435   1.975   7.035  0.5488 -0.3608 -0.2810
41988SOL    HW130420   4.397   1.995   7.120  1.5753 -2.5435  0.7600
41988SOL    HW230421   4.360   1.949   6.981  0.0846 -0.6294  0.4844
41989SOL     OW30422   7.991   0.872   7.739 -0.6639 -0.5205 -0.1027
41989SOL    HW130423   8.005   0.957   7.782  1.1452  0.1627 -1.8661
41989SOL    HW230424   8.029   0.808   7.798 -0.3634  0.1179  0.4081
41990SOL     OW30425   4.612  10.315   3.151  0.4899 -0.1365  0.1536
41990SOL    HW130426   4.550  10.388   3.156 -0.5664 -1.0253  0.3332
41990SOL    HW230427   4.558  10.237   3.164  1.6777 -0.9237  0.4672
41991SOL     OW30428   9.096   0.462   8.355 -0.0658  0.0463  0.3776
41991SOL    HW130429   9.021   0.406   8.335  0.9356 -0.4395 -2.5333
41991SOL    HW230430   9.067   0.550   8.332 -1.2839  0.7870  3.9829
41992SOL     OW30431   7.148   9.831   0.417  0.8909 -0.2362 -0.8850
41992SOL    HW130432   7.215   9.877   0.467 -0.7942 -0.1595  1.4561
41992SOL    HW230433   7.183   9.743   0.403  1.7149 -0.0129 -0.2475
41993SOL     OW30434   6.794   5.016   3.359  0.1247  0.0361  0.2149
41993SOL    HW130435   6.806   4.976   3.445 -1.8070  1.0533  1.0385
41993SOL    HW230436   6.701   5.041   3.358 -0.2421 -1.0878 -2.6964
41994SOL     OW30437   3.816   5.359  10.289  0.0619 -0.8232 -0.2662
41994SOL    HW130438   3.836   5.369  10.382  1.6974 -0.9395 -0.5800
41994SOL    HW230439   3.875   5.290  10.258 -1.3488 -1.6957 -1.1392
41995SOL     OW30440   9.587   1.074   3.916 -0.2609  0.0952  0.2632
41995SOL    HW130441   9.494   1.085   3.898 -0.3274  0.4238  0.8138
41995SOL    HW230442   9.626   1.059   3.829 -0.5034  2.1638 -0.2463
41996SOL     OW30443   3.515   9.877   4.536 -0.6960 -0.0292  0.2764
41996SOL    HW130444   3.434   9.828   4.524 -1.0428  0.4308  0.7353
41996SOL    HW230445   3.518   9.898   4.629 -1.3461  2.1626 -0.1548
41997SOL     OW30446   0.724   3.548   5.948  0.1877 -0.0680  0.0210
41997SOL    HW130447   0.714   3.643   5.941 -0.8426 -0.1152  0.7347
41997SOL    HW230448   0.711   3.516   5.858 -1.2417  0.3188  0.0749
41998SOL     OW30449   6.504   5.917   8.278  0.5081 -0.1401 -0.2982
41998SOL    HW130450   6.470   5.829   8.292  0.1211  0.3117  1.9655
41998SOL    HW230451   6.552   5.911   8.195 -2.1995 -1.6450 -1.9327
41999SOL     OW30452   9.588  10.733   8.557  0.5330 -0.6838  0.8114
41999SOL    HW130453   9.622  10.708   8.471 -1.5152 -0.1969 -0.2059
41999SOL    HW230454   9.512  10.788   8.537 -1.3184 -2.3215  2.8796
42000SOL     OW30455   2.610   9.133  10.079  0.0704 -0.0083  0.7096
42000SOL    HW130456   2.620   9.040  10.059 -0.9370  0.4445 -2.2585
42000SOL    HW230457   2.694   9.172  10.055 -0.6114  0.2937 -1.3480
42001SOL     OW30458   2.641   1.723   7.964  0.2522  0.4779  0.4053
42001SOL    HW130459   2.689   1.721   8.048  0.6795 -0.3985  0.1531
42001SOL    HW230460   2.678   1.799   7.918  0.6359  0.4451  0.6500
42002SOL     OW30461  10.863   7.866   6.465  0.0094  0.0444 -0.0283
42002SOL    HW130462  10.860   7.824   6.380 -0.7873  0.1990 -0.0813
42002SOL    HW230463  10.956   7.878   6.482  0.2737 -1.7587  0.0078
42003SOL     OW30464   0.235   8.270   4.437  0.3501 -0.6839  0.0987
42003SOL    HW130465   0.149   8.291   4.403  1.5358  1.5569 -1.7809
42003SOL    HW230466   0.243   8.321   4.518 -0.6275 -2.1627  1.1737
42004SOL     OW30467   1.578   8.905   4.698 -0.1556  0.4391 -0.3330
42004SOL    HW130468   1.562   8.815   4.671  0.5833  0.3485 -0.4782
42004SOL    HW230469   1.517   8.957   4.645 -2.3705 -0.1584  1.5122
42005SOL     OW30470   1.638   0.784   6.319  0.7240  0.0078 -0.1528
42005SOL    HW130471   1.573   0.781   6.389 -0.4742 -0.1044 -1.2373
42005SOL    HW230472   1.721   0.796   6.364 -0.0351  0.0898  1.2760
42006SOL     OW30473   3.988   3.872  10.484  0.5462 -0.2142  0.0572
42006SOL    HW130474   3.952   3.862  10.572  1.6416  1.0737  0.6865
42006SOL    HW230475   4.070   3.824  10.486 -0.3790 -1.9378 -0.9394
42007SOL     OW30476   3.646   7.433   1.007 -0.2168  0.1669 -0.5594
42007SOL    HW130477   3.693   7.492   1.067  0.3686 -1.9781  1.2338
42007SOL    HW230478   3.557   7.466   1.005  0.3019  1.6498 -0.3805
42008SOL     OW30479   4.514   8.597   4.667  0.3700 -0.1602 -0.4484
42008SOL    HW130480   4.550   8.519   4.624  2.3937  0.9558 -0.8801
42008SOL    HW230481   4.575   8.667   4.646  0.2419  0.9416  2.4018
42009SOL     OW30482   4.149  10.947  10.238  0.1746  0.0692  0.2521
42009SOL    HW130483   4.109  11.012  10.295 -1.6720  0.4225 -1.3652
42009SOL    HW230484   4.230  10.989  10.207  1.3800 -0.2469  2.7369
42010SOL     OW30485   4.745   9.849   9.005 -0.0988 -0.7522  0.1493
42010SOL    HW130486   4.728   9.762   8.970 -1.3722 -0.3447 -0.2870
42010SOL    HW230487   4.805   9.889   8.942 -0.6744 -0.7936 -0.4323
42011SOL     OW30488   1.850   4.714   0.817  0.1296 -0.3467 -0.7418
42011SOL    HW130489   1.787   4.643   0.824  0.2128 -0.3785 -0.2641
42011SOL    HW230490   1.824   4.763   0.739  0.2240 -1.0481 -1.2172
42012SOL     OW30491   7.687   7.819   3.391 -0.3862  0.0686 -0.3475
42012SOL    HW130492   7.761   7.770   3.427 -1.1272 -0.2635  0.7542
42012SOL    HW230493   7.620   7.815   3.459 -1.0452  1.2578 -0.9040
42013SOL     OW30494   2.951   5.945   5.682  0.2946 -0.6921 -0.3273
42013SOL    HW130495   3.016   5.984   5.624  0.4324 -0.5029 -0.0508
42013SOL    HW230496   2.989   5.861   5.707  0.6166 -0.4226  0.1314
42014SOL     OW30497   7.990   5.691   7.574 -0.3040  0.0688 -0.4578
42014SOL    HW130498   7.998   5.777   7.533  0.4324 -0.4000 -1.3285
42014SOL    HW230499   8.078   5.672   7.606 -0.0833 -1.0284 -1.6567
42015SOL     OW30500   3.106   3.386   4.087  0.6177 -0.1038 -0.0283
42015SOL    HW130501   3.050   3.325   4.039  0.2206  0.4955 -0.3366
42015SOL    HW230502   3.112   3.349   4.175  0.4960 -0.6559 -0.2507
42016SOL     OW30503   3.991   5.442   8.982  0.0943  0.4346 -0.2227
42016SOL    HW130504   3.980   5.351   9.012 -0.8348  0.4069 -0.6003
42016SOL    HW230505   4.075   5.442   8.937  0.1020 -0.2458 -0.2268
42017SOL     OW30506   0.786   2.895   6.370  0.7562  0.4925 -0.2192
42017SOL    HW130507   0.864   2.946   6.351  1.2588 -0.1134  0.1704
42017SOL    HW230508   0.815   2.804   6.363  0.2621  0.2637  0.6418
42018SOL     OW30509   3.090  10.084   7.590 -0.1503 -0.0916  0.1964
42018SOL    HW130510   3.010  10.107   7.637 -0.8858  0.2250 -1.1333
42018SOL    HW230511   3.145  10.162   7.596  0.2200 -0.4320  1.4068
42019SOL     OW30512  10.301   6.634   6.722  0.5199  0.3124 -0.1246
42019SOL    HW130513  10.231   6.628   6.656 -0.0656  1.6567  0.3461
42019SOL    HW230514  10.374   6.586   6.683 -0.1029  0.3390 -1.3858
42020SOL     OW30515   3.651   4.091   1.796  0.6879 -0.1003  0.5289
42020SOL    HW130516   3.607   4.169   1.830 -1.4348 -1.9053  2.1858
42020SOL    HW230517   3.597   4.062   1.723  0.2338 -1.1666  1.2590
42021SOL     OW30518   7.193   5.322   7.216  0.0126  0.3753  0.3417
42021SOL    HW130519   7.271   5.370   7.190 -0.7416  1.1852 -0.4973
42021SOL    HW230520   7.210   5.296   7.307  1.0764  0.8803  0.3011
42022SOL     OW30521   2.550   9.990   5.871  0.1610  0.0064 -0.5232
42022SOL    HW130522   2.517  10.075   5.840  0.2032  0.5466  0.8670
42022SOL    HW230523   2.481   9.957   5.928  2.0598  1.3346  2.7701
42023SOL     OW30524  10.959   3.971   9.508 -0.3340  0.0610  0.0726
42023SOL    HW130525  10.984   3.920   9.585 -1.8010  1.6095  1.6704
42023SOL    HW230526  10.925   3.906   9.447  0.0359 -1.1229  1.0693
42024SOL     OW30527  10.960   9.583   8.743  0.4716 -0.6843  0.0631
42024SOL    HW130528  10.954   9.675   8.767 -0.9659 -0.8737  0.5175
42024SOL    HW230529  10.882   9.543   8.780 -0.1445 -1.6369 -2.0765
42025SOL     OW30530   5.066   0.047   5.817  0.6281  0.2677  0.5640
42025SOL    HW130531   5.103  -0.041   5.808  0.3935  0.3003 -1.1527
42025SOL    HW230532   5.142   0.105   5.819  0.7709  0.0624  1.2905
42026SOL     OW30533   7.202   5.055   1.528 -0.5580 -0.0100 -0.0634
42026SOL    HW130534   7.173   5.146   1.533 -1.7786 -0.2738 -1.7121
42026SOL    HW230535   7.176   5.026   1.441 -1.7091 -2.4576  1.0153
42027SOL     OW30536   6.889   3.961  10.371 -0.8621  0.0912 -0.6616
42027SOL    HW130537   6.863   3.969  10.462  1.5316 -0.4938  0.1479
42027SOL    HW230538   6.862   4.044  10.331 -1.9183  0.3636  0.5537
42028SOL     OW30539   6.518  11.049   8.220 -0.1678 -0.1061  0.1593
42028SOL    HW130540   6.455  11.120   8.233  0.3783  0.4676 -0.2740
42028SOL    HW230541   6.564  11.041   8.303 -1.6877 -1.4198  0.9222
42029SOL     OW30542  10.283   0.710   2.406 -0.1483 -0.3738 -0.2368
42029SOL    HW130543  10.354   0.654   2.376  1.1787  0.5158  1.1359
42029SOL    HW230544  10.317   0.799   2.399 -0.3267 -0.0323  2.3026
42030SOL     OW30545   4.312   0.424   8.680 -0.6961 -0.0065  0.0001
42030SOL    HW130546   4.227   0.381   8.692 -0.4857 -0.3853  0.1791
42030SOL    HW230547   4.372   0.370   8.731 -0.2300 -0.1307 -0.6616
42031SOL     OW30548   6.514   3.039   8.615  0.0117 -0.2126  0.0396
42031SOL    HW130549   6.423   3.068   8.611 -0.2525 -0.6598  2.0244
42031SOL    HW230550   6.537   3.041   8.708  1.5252 -1.6304 -0.2401
42032SOL     OW30551   1.829   0.584   6.699  0.2542 -0.4237 -0.1363
42032SOL    HW130552   1.904   0.532   6.670 -0.4133 -1.8812  0.6548
42032SOL    HW230553   1.753   0.527   6.683 -0.6039  0.6771 -0.1086
42033SOL     OW30554   3.652   2.567   7.449  0.0297 -0.4479 -0.1353
42033SOL    HW130555   3.738   2.533   7.425  0.8501  0.8619  0.8041
42033SOL    HW230556   3.617   2.605   7.368  0.0718 -1.4744 -0.6526
42034SOL     OW30557   9.386   8.264   8.246  0.7045  0.2413  0.0341
42034SOL    HW130558   9.446   8.234   8.315  1.9683  0.2776 -1.0072
42034SOL    HW230559   9.442   8.274   8.169 -0.4754  1.2579 -0.7215
42035SOL     OW30560   6.263   8.895   5.821 -0.4127 -0.1468  0.2316
42035SOL    HW130561   6.350   8.860   5.804 -0.2413  1.2655 -2.2330
42035SOL    HW230562   6.252   8.964   5.756 -2.9930  0.4073  1.1466
42036SOL     OW30563   4.291   4.176   3.001 -0.3415  0.8027  0.0068
42036SOL    HW130564   4.312   4.108   2.937  1.3864  0.7248  0.5942
42036SOL    HW230565   4.208   4.148   3.040  1.0163 -1.8228  1.2872
42037SOL     OW30566   9.262  10.221   9.496  0.0401 -0.0841  0.2261
42037SOL    HW130567   9.323  10.173   9.440 -0.2567  0.5853 -0.6895
42037SOL    HW230568   9.199  10.155   9.525  0.4956 -0.5382  0.1969
42038SOL     OW30569   5.055   6.042   1.450  0.0440  0.4358 -0.3480
42038SOL    HW130570   4.991   6.054   1.520  0.1310  0.8125 -0.3327
42038SOL    HW230571   5.139   6.038   1.495  0.1822  1.5112 -0.4947
42039SOL     OW30572   2.928   3.588  10.508 -0.1415 -0.3614 -0.0472
42039SOL    HW130573   3.013   3.630  10.500 -0.6418  0.3676 -2.1718
42039SOL    HW230574   2.937   3.528  10.582  0.8753  2.7805  2.6147
42040SOL     OW30575   6.998   7.834  10.173  0.7897 -0.5018 -0.7203
42040SOL    HW130576   6.917   7.810  10.128  1.7053  0.3627 -2.9663
42040SOL    HW230577   6.987   7.927  10.192  1.1662 -0.4265 -0.8697
42041SOL     OW30578   0.613   3.104   4.845  0.7572 -0.4816  0.9041
42041SOL    HW130579   0.566   3.156   4.779 -2.0526 -0.6062  2.6460
42041SOL    HW230580   0.681   3.162   4.877  1.3341  0.0549 -1.1170
42042SOL     OW30581   9.732   7.646   7.302  0.4337  0.3636 -0.6972
42042SOL    HW130582   9.725   7.697   7.382 -0.9969 -0.5552 -0.1971
42042SOL    HW230583   9.652   7.664   7.254  0.4010 -0.5619 -1.0182
42043SOL     OW30584   6.221   4.789   4.556  0.3590  0.3234  0.0755
42043SOL    HW130585   6.286   4.719   4.553 -0.2026 -0.1874 -0.2413
42043SOL    HW230586   6.184   4.785   4.644  0.4202  0.3084  0.1001
42044SOL     OW30587   3.176   6.405   3.989  0.3907 -0.3555  0.1115
42044SOL    HW130588   3.240   6.475   4.002 -0.1695  1.0066 -3.4674
42044SOL    HW230589   3.219   6.344   3.929 -0.3908 -1.3564  0.5288
42045SOL     OW30590   2.657   0.208   0.606  0.5749 -0.5392 -0.1099
42045SOL    HW130591   2.572   0.197   0.564 -0.3554 -0.5131  1.6824
42045SOL    HW230592   2.643   0.276   0.671  1.7200 -1.1752  0.8447
42046SOL     OW30593   6.252   3.444   5.224  0.6230 -0.3150 -0.3644
42046SOL    HW130594   6.320   3.446   5.157  0.5354  1.1511 -0.4393
42046SOL    HW230595   6.170   3.455   5.175  0.5783  1.0177 -0.0196
42047SOL     OW30596  10.417   2.370  10.440 -1.1075 -0.4962 -0.5316
42047SOL    HW130597  10.494   2.401  10.393 -2.2034  1.3290 -1.2004
42047SOL    HW230598  10.358   2.339  10.372 -1.0270 -1.8584 -0.0250
42048SOL     OW30599   4.134  10.792   2.217 -0.4046 -0.0726  0.3686
42048SOL    HW130600   4.066  10.731   2.245 -0.6938  0.2238  0.3136
42048SOL    HW230601   4.198  10.737   2.171 -1.6833 -0.0844 -1.5286
42049SOL     OW30602   1.522  10.920   8.649 -0.4282 -0.0498  0.0135
42049SOL    HW130603   1.578  10.924   8.571 -0.6492 -0.8529 -0.2024
42049SOL    HW230604   1.580  10.888   8.718  0.7516  3.9972  1.1709
42050SOL     OW30605   3.231   5.181   5.220 -0.0721 -0.0884 -0.3975
42050SOL    HW130606   3.283   5.189   5.140  0.0694  0.1443 -0.2832
42050SOL    HW230607   3.293   5.201   5.291  0.3146 -2.1717 -0.0859
42051SOL     OW30608   6.266   2.416   1.407 -0.3984  0.2412  0.7457
42051SOL    HW130609   6.267   2.321   1.419 -1.1282  0.3404  1.6989
42051SOL    HW230610   6.345   2.447   1.451  0.5558 -0.0237 -0.7080
42052SOL     OW30611   8.239   6.087   9.204 -0.2781 -0.0284 -0.1365
42052SOL    HW130612   8.195   6.148   9.263 -1.2001 -0.3167 -0.4994
42052SOL    HW230613   8.236   6.129   9.119 -0.6374 -0.4405 -0.3297
42053SOL     OW30614   9.544   5.264   3.397 -0.7150  0.4166  0.0294
42053SOL    HW130615   9.591   5.191   3.437 -1.7322 -0.2079  0.1100
42053SOL    HW230616   9.489   5.223   3.330 -1.8916  1.0143  0.6105
42054SOL     OW30617   7.848   3.640   1.647  0.5753  0.1680 -0.4641
42054SOL    HW130618   7.899   3.698   1.591  0.8048 -0.8045 -1.3073
42054SOL    HW230619   7.900   3.560   1.652  0.3851  0.1037  0.8650
42055SOL     OW30620   4.165   1.471   4.601 -0.1240  0.4612 -0.0147
42055SOL    HW130621   4.223   1.539   4.568  1.8093 -0.1393  1.9146
42055SOL    HW230622   4.110   1.447   4.526  0.2053  2.9906 -1.1617
42056SOL     OW30623   5.756   9.862   5.950  0.5251 -0.0524  0.4290
42056SOL    HW130624   5.817   9.858   5.876  1.1494 -0.2930  0.9459
42056SOL    HW230625   5.709   9.779   5.946 -0.4126  0.5067 -0.5004
42057SOL     OW30626   9.254   8.987   2.978 -0.3130 -0.6531 -0.5806
42057SOL    HW130627   9.190   9.026   2.919  1.2792  0.4504 -1.6743
42057SOL    HW230628   9.298   8.921   2.925  0.7162 -0.0837 -0.4528
42058SOL     OW30629   9.177   7.708   2.033 -0.1146  0.1475  1.0091
42058SOL    HW130630   9.164   7.773   2.102 -0.9240  0.6830  0.3718
42058SOL    HW230631   9.091   7.668   2.021 -0.3750  1.1394 -0.7298
42059SOL     OW30632   7.775  10.156   6.177 -0.0257  0.7702  0.2385
42059SOL    HW130633   7.750  10.165   6.269  0.3283 -0.5506  0.4916
42059SOL    HW230634   7.839  10.084   6.177 -0.6145  0.2178 -1.1395
42060SOL     OW30635   4.099   9.509   1.474 -0.2474  0.3770  0.5118
42060SOL    HW130636   4.147   9.554   1.404 -1.8152 -1.5223 -1.9778
42060SOL    HW230637   4.159   9.440   1.504 -0.0385  0.3616  0.0710
42061SOL     OW30638   2.144   0.781   0.291 -0.1574  0.8799  0.3595
42061SOL    HW130639   2.060   0.796   0.247 -1.2349 -1.1386  1.5465
42061SOL    HW230640   2.154   0.686   0.290  1.4105  1.0038  1.5380
42062SOL     OW30641   7.140   5.913   9.100  0.5632  0.1815  0.2404
42062SOL    HW130642   7.138   5.975   9.028 -0.3120  1.4227  1.2831
42062SOL    HW230643   7.225   5.929   9.142 -0.3160  1.9189  1.4903
42063SOL     OW30644   8.944   4.994   8.706 -0.1976  0.2712  0.3428
42063SOL    HW130645   8.902   5.032   8.629 -1.5403 -1.1533  0.3007
42063SOL    HW230646   8.973   5.069   8.758 -2.1846  1.3437  0.0033
42064SOL     OW30647   9.029   5.468   8.656 -0.3415  0.7306 -0.2310
42064SOL    HW130648   9.066   5.540   8.708  0.4108 -1.5394  2.6393
42064SOL    HW230649   8.948   5.503   8.621 -0.7667  2.5709  2.2940
42065SOL     OW30650   8.219   5.153   9.760 -0.2298  0.2490 -0.4741
42065SOL    HW130651   8.239   5.213   9.688  0.3442  1.1235  0.3970
42065SOL    HW230652   8.162   5.203   9.819  0.6902  0.1519  0.5315
42066SOL     OW30653   7.669   1.786   7.696  0.3607 -0.2784  0.2979
42066SOL    HW130654   7.632   1.788   7.608  0.2820 -2.2582  0.2336
42066SOL    HW230655   7.675   1.693   7.717  2.3393  0.0859  1.5690
42067SOL     OW30656   7.719   0.436   2.903  0.2272 -0.7169  0.4560
42067SOL    HW130657   7.675   0.487   2.835  0.0308  1.1205  1.8629
42067SOL    HW230658   7.810   0.431   2.874  0.3689  0.9606  0.5348
42068SOL     OW30659   4.928   8.882   5.889 -0.3527 -0.1004 -0.5670
42068SOL    HW130660   4.923   8.790   5.913 -0.6061 -0.4156 -1.7370
42068SOL    HW230661   4.982   8.883   5.810  2.0399  1.0856  0.9670
42069SOL     OW30662   5.028   0.870   8.614 -0.0952  0.2460  0.2844
42069SOL    HW130663   5.062   0.923   8.686  1.0891  1.5922 -1.1881
42069SOL    HW230664   4.934   0.865   8.631  0.2402 -0.2444  2.3673
42070SOL     OW30665   2.998   2.221  10.572 -0.1525 -0.6770  0.2082
42070SOL    HW130666   3.049   2.169  10.511  0.3208  0.6290 -0.5504
42070SOL    HW230667   2.908   2.191  10.559  0.0608 -1.0389 -0.4844
42071SOL     OW30668   7.949   0.546   0.867 -0.4343 -0.4184  0.3374
42071SOL    HW130669   7.878   0.514   0.810 -1.3217  1.9462  0.0100
42071SOL    HW230670   7.905   0.571   0.948  0.5035 -1.5775  1.2520
42072SOL     OW30671   5.801   6.661   7.961  0.6935  0.0686 -0.2576
42072SOL    HW130672   5.759   6.698   7.884 -0.7476 -2.1977 -0.6382
42072SOL    HW230673   5.810   6.568   7.942  1.6448 -0.3149  1.7439
42073SOL     OW30674  10.157   7.777   6.730 -0.3324 -0.4106 -0.1476
42073SOL    HW130675  10.115   7.717   6.669 -1.5904 -0.3659  0.6434
42073SOL    HW230676  10.085   7.826   6.770  0.5964  1.0330 -0.1406
42074SOL     OW30677   0.247   2.312   8.102 -0.0146 -0.6864  0.7488
42074SOL    HW130678   0.328   2.348   8.066 -0.9729  0.1639 -0.6661
42074SOL    HW230679   0.260   2.217   8.099  0.2883 -0.6353 -1.1641
42075SOL     OW30680   4.635   8.316   4.504 -0.0967 -0.0956 -0.6221
42075SOL    HW130681   4.609   8.264   4.580 -0.4028  0.1601 -0.5486
42075SOL    HW230682   4.626   8.257   4.430  1.6541 -0.8143 -0.2988
42076SOL     OW30683   7.095   5.342  10.949 -1.1446 -0.0494  0.3659
42076SOL    HW130684   7.100   5.252  10.981  0.2168 -0.2092 -0.2170
42076SOL    HW230685   7.073   5.333  10.856 -0.7818  0.2058  0.2543
42077SOL     OW30686   5.901   9.127  10.594 -0.1484 -0.3337  0.3356
42077SOL    HW130687   5.926   9.137  10.502 -0.2854 -0.1947  0.3144
42077SOL    HW230688   5.924   9.210  10.635  1.0892 -0.8293  0.6982
42078SOL     OW30689   3.103   8.558   6.572  0.1640  0.1635 -0.8125
42078SOL    HW130690   3.158   8.481   6.586 -2.4555 -1.5967  0.8945
42078SOL    HW230691   3.158   8.620   6.524  3.0481 -1.9825 -0.5082
42079SOL     OW30692   8.347   1.155   8.242 -0.3080 -0.5672  0.4203
42079SOL    HW130693   8.422   1.205   8.273 -0.2738  0.3453 -1.0119
42079SOL    HW230694   8.376   1.064   8.243  1.7363 -0.0842 -2.3111
42080SOL     OW30695   7.855   0.418   5.325  0.4474 -0.6080 -0.5690
42080SOL    HW130696   7.913   0.343   5.313  0.3244 -0.7620 -0.2257
42080SOL    HW230697   7.772   0.390   5.286  0.3104 -0.7721 -0.1694
42081SOL     OW30698   2.951   2.086   6.293  0.5508 -0.1231  0.2274
42081SOL    HW130699   2.938   2.031   6.370 -1.4706  0.5135  0.4024
42081SOL    HW230700   2.933   2.027   6.219  2.4033 -0.7096  0.1797
42082SOL     OW30701   1.563  10.437   1.177  0.4231  0.1460 -0.5393
42082SOL    HW130702   1.489  10.385   1.147  0.1859  0.7201 -0.9805
42082SOL    HW230703   1.628  10.373   1.205 -0.3003 -0.3618 -0.0040
42083SOL     OW30704   0.222   0.337   5.858 -0.1565  0.3314  0.2554
42083SOL    HW130705   0.148   0.390   5.830 -0.2228  0.6809  1.0553
42083SOL    HW230706   0.213   0.332   5.953 -0.2222 -1.2365  0.1815
42084SOL     OW30707   8.475   0.302   0.365 -0.3691  0.1638 -0.7377
42084SOL    HW130708   8.522   0.380   0.394 -0.0065  0.1275 -1.2074
42084SOL    HW230709   8.530   0.228   0.393 -0.2923  0.1095 -1.0286
42085SOL     OW30710   4.722   8.360   0.041  0.0101  0.1831 -0.6362
42085SOL    HW130711   4.652   8.321  -0.012 -0.4610  0.0619  0.0670
42085SOL    HW230712   4.760   8.286   0.089 -0.3655  0.4600  0.1031
42086SOL     OW30713   5.943   0.566   9.323  0.4612 -0.5781  0.1553
42086SOL    HW130714   5.886   0.584   9.398  0.1617 -2.7098  0.5094
42086SOL    HW230715   5.898   0.604   9.248 -0.3627 -0.3696  0.7453
42087SOL     OW30716   9.670   7.801   6.593  0.2822  0.3667 -0.2291
42087SOL    HW130717   9.660   7.707   6.576  2.0317 -0.4503  2.6060
42087SOL    HW230718   9.583   7.829   6.623  0.0608 -0.6788  0.1439
42088SOL     OW30719  10.253   3.058   7.776  0.2088  0.1183 -0.6154
42088SOL    HW130720  10.196   3.036   7.850 -0.2437 -0.2860 -1.0712
42088SOL    HW230721  10.295   3.140   7.801 -0.9873  0.7166 -0.4924
42089SOL     OW30722   9.363   9.945   2.389 -0.3457 -0.1811 -0.2302
42089SOL    HW130723   9.438  10.004   2.386  0.0980 -0.6500  1.1378
42089SOL    HW230724   9.343   9.927   2.297  0.1777  1.2330 -0.6413
42090SOL     OW30725   6.982   3.591   6.054  0.1870 -0.0058 -0.4252
42090SOL    HW130726   7.019   3.550   5.977  2.1354 -0.6462  0.7756
42090SOL    HW230727   7.001   3.685   6.043 -0.0755 -0.0142 -0.9715
42091SOL     OW30728   8.979   0.314   9.432 -0.6511  0.1924 -0.1479
42091SOL    HW130729   8.955   0.225   9.458  0.7475 -0.2717 -0.3404
42091SOL    HW230730   9.022   0.351   9.509 -1.8939  0.9959  0.1892
42092SOL     OW30731   3.566   5.664   4.911  0.3900  0.2535 -0.6455
42092SOL    HW130732   3.638   5.705   4.959  1.2528  1.0518 -2.5191
42092SOL    HW230733   3.518   5.614   4.977  2.7770 -0.4877  0.6450
42093SOL     OW30734   4.381   9.500   6.194  0.0704  0.1209 -0.1841
42093SOL    HW130735   4.320   9.570   6.220  0.9310  0.9367 -0.3085
42093SOL    HW230736   4.467   9.540   6.200  0.4611 -0.2910 -2.3068
42094SOL     OW30737  10.120   3.516   9.051 -0.0766 -0.2192  0.2734
42094SOL    HW130738  10.082   3.450   8.994 -0.8010  0.2964  0.1451
42094SOL    HW230739  10.201   3.542   9.007  0.1266 -0.8869  0.2381
42095SOL     OW30740  10.626   1.501   4.498 -0.0400 -0.4102 -0.0436
42095SOL    HW130741  10.575   1.468   4.572 -1.7188 -1.8214 -1.7008
42095SOL    HW230742  10.682   1.428   4.473 -1.2574 -0.9017 -1.5845
42096SOL     OW30743   7.138   1.565   2.933 -0.1093  0.0488  0.0657
42096SOL    HW130744   7.225   1.594   2.960 -0.2917 -0.3923  1.1706
42096SOL    HW230745   7.118   1.618   2.856  0.3261  1.5712  0.9495
42097SOL     OW30746   6.844   9.671   9.168 -0.2009 -0.3755 -0.1542
42097SOL    HW130747   6.888   9.753   9.186  0.3956 -0.7753  0.2303
42097SOL    HW230748   6.832   9.670   9.073 -0.0086  0.0453 -0.1838
42098SOL     OW30749   4.954   8.291   9.814 -0.2039 -0.2279  0.3164
42098SOL    HW130750   4.947   8.201   9.848 -2.2285 -0.1154  0.3407
42098SOL    HW230751   4.964   8.281   9.720  2.6937 -0.4853  0.5654
42099SOL     OW30752   0.805   0.084   6.311 -0.0919 -0.2500 -0.4638
42099SOL    HW130753   0.780   0.029   6.385  0.6471  0.4658  0.3400
42099SOL    HW230754   0.871   0.033   6.264  1.3689  0.3380  0.8717
42100SOL     OW30755   6.695   4.824   6.281 -0.4038  0.8919  0.3702
42100SOL    HW130756   6.729   4.773   6.355  2.2507  1.5246 -0.3020
42100SOL    HW230757   6.731   4.911   6.293 -2.1886  1.7649 -0.2591
42101SOL     OW30758   2.183  10.873   8.642 -0.0206  0.2149  0.3292
42101SOL    HW130759   2.249  10.913   8.699  0.5432 -1.0563  0.6092
42101SOL    HW230760   2.218  10.884   8.553  2.0946 -2.8586  0.5882
42102SOL     OW30761   9.443  10.973  10.417 -0.7681  0.6497  0.0949
42102SOL    HW130762   9.527  10.965  10.460  0.4551 -3.8124 -2.5279
42102SOL    HW230763   9.432  11.067  10.402  3.1761  1.4821  1.4630
42103SOL     OW30764   0.625   2.169   4.920  0.5179 -0.0347 -0.2111
42103SOL    HW130765   0.699   2.211   4.874  0.2169 -1.4048 -2.0754
42103SOL    HW230766   0.659   2.084   4.946 -0.5368 -0.9355 -1.6557
42104SOL     OW30767   6.926   6.308   1.071 -0.3404 -0.0774  0.1163
42104SOL    HW130768   6.885   6.368   1.009 -0.2739 -1.5228 -1.3694
42104SOL    HW230769   6.932   6.359   1.152 -1.5418  1.4500 -0.6957
42105SOL     OW30770   7.747   7.628   2.067  0.3085 -0.2881 -0.1123
42105SOL    HW130771   7.793   7.699   2.023  0.0750 -0.7406 -1.1131
42105SOL    HW230772   7.717   7.571   1.996 -1.2459 -0.3338  0.5338
42106SOL     OW30773   8.726   1.026   3.756 -0.0941 -0.3506 -0.2177
42106SOL    HW130774   8.740   1.108   3.803  0.5311 -0.9715  0.7246
42106SOL    HW230775   8.709   1.052   3.666 -0.9221  0.8645  0.2592
42107SOL     OW30776   2.436   0.712   1.491  0.1371  0.1437 -0.6002
42107SOL    HW130777   2.427   0.765   1.412  0.8656  0.6846 -0.3343
42107SOL    HW230778   2.502   0.758   1.543 -2.1063  1.1879  1.4870
42108SOL     OW30779   5.771   5.257   3.990  0.2789 -0.6600  0.2529
42108SOL    HW130780   5.786   5.199   4.064 -0.0914  0.2774  1.0904
42108SOL    HW230781   5.708   5.211   3.935 -2.9173  0.4007  2.7175
42109SOL     OW30782  10.149   0.272   0.458 -0.3689  0.3644  0.9563
42109SOL    HW130783  10.094   0.202   0.493 -0.9125 -0.2905 -1.0700
42109SOL    HW230784  10.238   0.249   0.484 -0.7248 -0.1118  1.7942
42110SOL     OW30785   8.707   7.390   1.881  0.1098  0.7019  0.0426
42110SOL    HW130786   8.745   7.401   1.794 -0.4604 -1.0809 -0.4748
42110SOL    HW230787   8.628   7.444   1.881  0.1656  0.7808 -0.5121
42111SOL     OW30788   6.780  10.228   7.572  0.2232 -0.1453 -0.8746
42111SOL    HW130789   6.731  10.274   7.504  0.4784  0.5119 -0.6223
42111SOL    HW230790   6.809  10.297   7.632 -0.0801 -0.7218 -0.0383
42112SOL     OW30791  10.043   0.437  11.057  0.2803 -0.1000  0.2829
42112SOL    HW130792  10.037   0.499  10.985 -1.3460 -0.7800 -0.2078
42112SOL    HW230793   9.955   0.437  11.095  0.1298 -2.3668  0.0341
42113SOL     OW30794   0.153  10.011   3.217 -0.4795  0.5715  0.3366
42113SOL    HW130795   0.121   9.992   3.306 -0.1899  2.1688  0.8201
42113SOL    HW230796   0.242  10.044   3.230 -0.0483 -0.1460 -0.6584
42114SOL     OW30797   2.758   3.028   6.174  0.2745  0.4383  0.2756
42114SOL    HW130798   2.852   3.024   6.161  0.4743 -0.7693  1.8270
42114SOL    HW230799   2.727   2.939   6.155 -0.3086  0.4002  1.3426
42115SOL     OW30800   3.415   8.405   5.542 -0.6185  0.2472  0.1744
42115SOL    HW130801   3.431   8.325   5.591 -1.9838 -0.9897 -1.2679
42115SOL    HW230802   3.502   8.442   5.527  0.0086 -0.7652  1.1868
42116SOL     OW30803   8.332   8.042   5.172 -0.2242 -0.4036  0.3260
42116SOL    HW130804   8.417   8.068   5.209  0.8739 -0.8509 -1.7169
42116SOL    HW230805   8.303   7.970   5.227  0.7776 -0.3329  0.9833
42117SOL     OW30806   1.524  10.553   1.480  0.0693  0.1987  0.1965
42117SOL    HW130807   1.575  10.473   1.494  2.1688  1.6145  1.0508
42117SOL    HW230808   1.482  10.569   1.565 -0.4688 -0.0506 -0.0168
42118SOL     OW30809   5.439   3.755   1.353  0.2410 -0.6609 -0.3454
42118SOL    HW130810   5.507   3.711   1.302 -0.1689  0.7025 -2.1668
42118SOL    HW230811   5.400   3.818   1.292 -1.4376 -0.1356  1.1810
42119SOL     OW30812   9.335   5.555   7.884 -0.5119 -0.5722 -0.2438
42119SOL    HW130813   9.420   5.575   7.844 -0.9293 -1.1474 -1.4535
42119SOL    HW230814   9.347   5.575   7.977  1.2243 -1.4678 -0.2370
42120SOL     OW30815   5.231   6.250   6.367  0.1873 -0.3053  0.2597
42120SOL    HW130816   5.167   6.307   6.324  0.1776 -0.6300 -0.1650
42120SOL    HW230817   5.296   6.310   6.403  1.4047 -0.0767 -2.1219
42121SOL     OW30818   4.282   3.646   0.653  0.1655  0.1301  0.0481
42121SOL    HW130819   4.362   3.603   0.622 -0.4462 -0.3490 -0.9257
42121SOL    HW230820   4.263   3.712   0.586  0.0092  0.5628  0.5171
42122SOL     OW30821   0.452   1.796   7.946  0.2055 -0.2088  0.5276
42122SOL    HW130822   0.390   1.726   7.965  0.9915 -0.4494  2.5093
42122SOL    HW230823   0.533   1.751   7.922 -0.1438  0.0978 -1.3823
42123SOL     OW30824   2.048   7.461   5.769 -0.5678 -0.0689  0.2563
42123SOL    HW130825   1.978   7.497   5.714 -0.2291 -1.7822 -1.3835
42123SOL    HW230826   2.010   7.381   5.807  0.0902 -0.3312  0.3728
42124SOL     OW30827   3.501   9.245   9.610 -0.0321 -0.6858 -0.0218
42124SOL    HW130828   3.534   9.329   9.578  0.5730  0.1141  2.4878
42124SOL    HW230829   3.542   9.180   9.553  2.3401  0.5412  0.1428
42125SOL     OW30830  10.338   2.817   8.430  0.0074  0.2302  0.2502
42125SOL    HW130831  10.356   2.762   8.354 -0.6010 -0.2771  0.4639
42125SOL    HW230832  10.424   2.832   8.469  0.1054 -1.4667  0.7931
42126SOL     OW30833   4.368   6.292   4.975 -0.5139 -0.0232 -0.3422
42126SOL    HW130834   4.445   6.350   4.977  0.2528 -0.9827 -1.0321
42126SOL    HW230835   4.404   6.205   4.958 -1.7401 -0.5403 -0.4011
42127SOL     OW30836   1.438   6.762   1.042 -0.2714 -0.0876 -0.3663
42127SOL    HW130837   1.431   6.829   1.110 -1.7234 -0.4999 -0.0791
42127SOL    HW230838   1.493   6.695   1.080 -0.5120  0.0002  0.1359
42128SOL     OW30839   0.416   6.394   5.299 -0.2691  0.6850  0.2815
42128SOL    HW130840   0.509   6.415   5.284 -0.4291  0.7855 -0.6123
42128SOL    HW230841   0.415   6.299   5.313 -0.2760  0.2476 -2.1205
42129SOL     OW30842   9.878   7.121   3.174 -0.5357 -0.4255 -0.0934
42129SOL    HW130843   9.787   7.125   3.205  0.3290  0.5008  2.5393
42129SOL    HW230844   9.927   7.084   3.247  1.3118 -0.4421 -1.2734
42130SOL     OW30845   3.784   5.722   3.375  0.0817 -0.2488  0.1532
42130SOL    HW130846   3.840   5.792   3.409 -1.2964  0.2577  1.5012
42130SOL    HW230847   3.822   5.642   3.410  1.2618 -0.1348 -0.8151
42131SOL     OW30848   8.428   9.780   3.572  0.2445 -0.5646 -0.3182
42131SOL    HW130849   8.428   9.872   3.596  0.2921 -0.5487 -0.3778
42131SOL    HW230850   8.341   9.765   3.535 -0.2964 -0.8969  1.0331
42132SOL     OW30851   1.578   7.368   9.447  0.4585 -0.1755 -0.0719
42132SOL    HW130852   1.575   7.323   9.363 -0.3218 -2.1058  0.9233
42132SOL    HW230853   1.487   7.382   9.471  0.6767  1.1527  0.0933
42133SOL     OW30854   6.881   5.176   1.502 -0.3735  0.0269 -0.3595
42133SOL    HW130855   6.938   5.247   1.533 -0.1341 -1.0505  1.8850
42133SOL    HW230856   6.931   5.134   1.432  0.5033  0.6422 -0.1225
42134SOL     OW30857  10.112   1.300   2.269  0.0073 -0.0978  0.7572
42134SOL    HW130858  10.128   1.334   2.357  0.0490 -0.5676  0.9360
42134SOL    HW230859  10.177   1.230   2.258 -0.3360 -0.3877  0.5491
42135SOL     OW30860   5.156   0.578   0.967 -0.4925 -1.1105 -0.1863
42135SOL    HW130861   5.145   0.483   0.964  1.1924 -1.3086 -1.3170
42135SOL    HW230862   5.147   0.601   1.060  0.6019 -2.5825  0.3125
42136SOL     OW30863   8.992   6.198   2.672 -0.2196  0.2047 -0.6469
42136SOL    HW130864   9.044   6.137   2.619 -0.8627 -1.8384  0.9488
42136SOL    HW230865   9.043   6.208   2.753 -0.7464  0.8250 -0.3823
42137SOL     OW30866   3.772   2.612   5.849  0.0258 -0.6190  0.0994
42137SOL    HW130867   3.799   2.522   5.869 -0.2706 -0.7212  0.0383
42137SOL    HW230868   3.811   2.631   5.764  1.1708 -0.2356  0.6911
42138SOL     OW30869   1.809  10.819   5.679 -0.0142  0.2479  0.3648
42138SOL    HW130870   1.781  10.901   5.637 -1.9060  0.4157  1.7861
42138SOL    HW230871   1.840  10.846   5.765  0.7793 -0.3920  0.2875
42139SOL     OW30872   2.423   0.232   2.890 -0.4817  0.0292  0.3225
42139SOL    HW130873   2.330   0.255   2.894 -0.6761 -0.5610 -0.4567
42139SOL    HW230874   2.468   0.305   2.932 -1.3790 -0.2221  1.8154
42140SOL     OW30875   0.782   2.762   2.817  0.4315 -0.0716  0.3370
42140SOL    HW130876   0.821   2.802   2.740  1.1960  0.0542  0.7862
42140SOL    HW230877   0.709   2.820   2.841  1.1384  0.7093  0.6107
42141SOL     OW30878   1.375  10.906   3.757  0.2620  0.2810 -0.1783
42141SOL    HW130879   1.467  10.933   3.753  0.7670 -1.2510  0.4031
42141SOL    HW230880   1.371  10.828   3.703 -1.1597  1.4387 -1.8287
42142SOL     OW30881   6.973   2.519  10.267  0.0136  0.2504 -0.1117
42142SOL    HW130882   6.924   2.523  10.185  0.4497  0.7450 -0.3498
42142SOL    HW230883   6.923   2.573  10.328 -0.4244 -0.2888  0.0152
42143SOL     OW30884  11.074   7.607   8.303  0.1500  0.4611  0.1877
42143SOL    HW130885  11.163   7.625   8.273 -0.3256  0.7090 -1.1519
42143SOL    HW230886  11.073   7.512   8.318  0.4169  0.3179 -0.6322
42144SOL     OW30887   2.635   0.019   1.730  0.0158 -0.1771 -0.4428
42144SOL    HW130888   2.712  -0.005   1.781 -0.3937  3.0775  2.0608
42144SOL    HW230889   2.667   0.084   1.667 -0.3932  0.0629 -0.4133
42145SOL     OW30890   9.924   0.468   6.123  0.3264  0.6087  0.2839
42145SOL    HW130891   9.894   0.525   6.194 -0.3730 -0.9823  1.3278
42145SOL    HW230892   9.890   0.509   6.043  0.8447  2.2511  0.8587
42146SOL     OW30893   2.223   2.414   6.879  0.8082  0.7428  0.2591
42146SOL    HW130894   2.169   2.465   6.818 -1.0302 -1.7545 -0.3285
42146SOL    HW230895   2.165   2.391   6.950  1.0353 -1.9355 -0.3337
42147SOL     OW30896   5.438   9.743   6.053 -0.3912  0.0494  0.5128
42147SOL    HW130897   5.373   9.714   6.117  0.0504 -0.7103  0.6337
42147SOL    HW230898   5.513   9.685   6.067 -0.6981 -0.8981 -1.4249
42148SOL     OW30899   4.980   8.171   2.554  0.4602  0.0490 -0.2749
42148SOL    HW130900   4.979   8.117   2.633  0.3217 -2.2478 -1.7465
42148SOL    HW230901   4.891   8.165   2.519  0.6109  0.7408 -0.8049
42149SOL     OW30902   5.673   3.336   0.396  0.0319 -0.3590  0.9804
42149SOL    HW130903   5.646   3.245   0.384 -1.4570  0.2465 -0.6057
42149SOL    HW230904   5.768   3.331   0.404  0.1627 -1.9437 -0.7542
42150SOL     OW30905   5.038   0.592   1.214  0.5918  0.4977 -0.4314
42150SOL    HW130906   4.973   0.647   1.259  0.1131 -0.8658  0.6339
42150SOL    HW230907   5.105   0.576   1.281 -0.1663 -1.6328 -0.1137
42151SOL     OW30908   8.973   9.070   4.673  0.2142  0.5823  0.1842
42151SOL    HW130909   9.019   9.143   4.631  0.5278  0.1231 -0.2802
42151SOL    HW230910   9.040   9.027   4.726 -0.3053  1.5072  1.6682
42152SOL     OW30911   9.088   8.610   1.877 -0.2358 -0.6360 -0.2736
42152SOL    HW130912   9.034   8.687   1.895 -0.6968 -1.2336  1.0477
42152SOL    HW230913   9.025   8.539   1.863  0.1475 -1.4650  1.8398
42153SOL     OW30914   1.848   0.720   5.585 -0.4860 -0.2256  0.3407
42153SOL    HW130915   1.832   0.815   5.583  1.7337  0.3064  2.7490
42153SOL    HW230916   1.917   0.707   5.520 -0.1510 -0.0365  0.6565
42154SOL     OW30917   2.359   9.568  10.250 -0.0179  0.1283 -0.2205
42154SOL    HW130918   2.353   9.499  10.183  0.4663 -0.9914  0.8559
42154SOL    HW230919   2.291   9.631  10.224 -0.5757 -0.8074 -1.1601
42155SOL     OW30920   6.629   7.356   6.951  0.2966 -0.2310 -0.3523
42155SOL    HW130921   6.557   7.419   6.961  0.0498 -0.2718 -1.6452
42155SOL    HW230922   6.592   7.287   6.896  1.8648  0.7028 -2.7312
42156SOL     OW30923   5.338   5.319   5.893 -0.1640  0.3919 -0.4305
42156SOL    HW130924   5.425   5.279   5.898  0.3912  1.5638 -0.4771
42156SOL    HW230925   5.353   5.413   5.906 -1.5874  0.4722  1.1303
42157SOL     OW30926   3.947   7.524   8.451  0.5833  0.5448 -0.0632
42157SOL    HW130927   3.874   7.564   8.403 -0.8351 -0.3807  1.2309
42157SOL    HW230928   3.922   7.432   8.461  2.7993 -0.2629 -1.1556
42158SOL     OW30929   9.943  10.155   2.294  0.2090 -0.3518 -0.0317
42158SOL    HW130930   9.872  10.208   2.257  0.2068 -0.3345 -0.0022
42158SOL    HW230931  10.003  10.143   2.220  0.4066  0.0293  0.0643
42159SOL     OW30932   2.067   1.700  10.402 -0.4060  0.3745  0.8758
42159SOL    HW130933   2.021   1.651  10.470  0.9351 -1.5849  0.4546
42159SOL    HW230934   2.019   1.682  10.322 -0.4055  0.4534  0.8574
42160SOL     OW30935   3.009   4.228   3.600 -0.6071  0.3417 -0.5051
42160SOL    HW130936   2.928   4.193   3.563 -0.7645 -2.3381  1.9975
42160SOL    HW230937   3.076   4.204   3.536 -1.3968 -0.1309 -1.1836
42161SOL     OW30938   6.670   5.203   7.551  0.2640 -0.1137 -0.0595
42161SOL    HW130939   6.715   5.274   7.504 -0.2182 -0.6399 -1.3556
42161SOL    HW230940   6.666   5.131   7.488 -3.2674  0.2121 -0.3976
42162SOL     OW30941   0.604   7.290   4.604  0.1720  0.0943 -0.2471
42162SOL    HW130942   0.585   7.266   4.513 -0.8940 -0.6688  0.1499
42162SOL    HW230943   0.680   7.237   4.627  3.1332  3.2524 -1.8879
42163SOL     OW30944   5.165   7.626  10.831  0.2723  0.1003 -0.2615
42163SOL    HW130945   5.129   7.559  10.773 -1.7825 -0.7622  1.8503
42163SOL    HW230946   5.244   7.587  10.868 -1.6401 -1.9109  2.0217
42164SOL     OW30947   9.985  10.156   5.063 -0.2085  0.1330  0.6038
42164SOL    HW130948   9.914  10.100   5.032 -0.1613 -0.7646  2.0226
42164SOL    HW230949  10.065  10.104   5.047 -0.2301 -0.6637  2.7261
42165SOL     OW30950   8.727   6.955   7.379  0.2182 -0.0310  0.3896
42165SOL    HW130951   8.650   6.906   7.411 -0.1389 -0.2945 -0.8207
42165SOL    HW230952   8.802   6.906   7.414 -0.1336  0.8114  2.4405
42166SOL     OW30953   6.730   4.182   0.400 -0.2678 -0.1495  0.4211
42166SOL    HW130954   6.717   4.253   0.463  0.4377 -0.2958  0.7429
42166SOL    HW230955   6.661   4.119   0.420 -0.3053  0.0028  0.7766
42167SOL     OW30956  10.956   0.636   1.461  0.2994 -0.5317  0.4679
42167SOL    HW130957  10.901   0.564   1.427  0.1263  0.7518 -2.2058
42167SOL    HW230958  10.895   0.692   1.508  0.5523 -2.3720  3.2731
42168SOL     OW30959  10.322   9.933   8.795 -0.2428  0.2539  0.6120
42168SOL    HW130960  10.275   9.948   8.713  0.6760  1.1549  0.2261
42168SOL    HW230961  10.262   9.963   8.863 -0.3413  1.1647  0.1402
42169SOL     OW30962   8.433   7.073   5.748  0.1711  0.1942 -0.0983
42169SOL    HW130963   8.481   7.136   5.802  1.7897 -1.6360  0.7159
42169SOL    HW230964   8.342   7.080   5.777  0.7576  0.3104  1.8378
42170SOL     OW30965   9.331   4.164   3.000 -0.2080  0.0992  0.6693
42170SOL    HW130966   9.326   4.137   3.092  0.3540 -0.9510  0.4002
42170SOL    HW230967   9.245   4.145   2.964  0.0515 -0.9707  0.5912
42171SOL     OW30968   3.225   9.870   0.350  0.0824 -0.3649  0.2834
42171SOL    HW130969   3.220   9.966   0.347 -1.8042 -0.4415 -0.1732
42171SOL    HW230970   3.318   9.852   0.365  0.7599  1.4962 -1.1785
42172SOL     OW30971   5.402   7.781  10.332 -0.6544  0.2041  0.1025
42172SOL    HW130972   5.359   7.867  10.336 -0.7074  0.1857 -0.0597
42172SOL    HW230973   5.493   7.801  10.308 -0.8675  0.1614 -0.8047
42173SOL     OW30974  10.618   0.553  10.027  0.2935  0.1309 -0.0186
42173SOL    HW130975  10.649   0.579  10.114 -0.8122 -0.2430  0.5046
42173SOL    HW230976  10.624   0.458  10.027 -2.6894 -0.1536  0.8771
42174SOL     OW30977   4.757   1.841   9.225 -0.0002 -0.6698 -0.0908
42174SOL    HW130978   4.819   1.912   9.209  0.0832 -0.2137  1.9624
42174SOL    HW230979   4.804   1.781   9.283 -0.3414 -2.0397 -1.1821
42175SOL     OW30980   1.030   6.013   7.773 -0.1133 -0.4098  0.1989
42175SOL    HW130981   1.000   5.947   7.711 -1.1874  0.1817  0.0616
42175SOL    HW230982   0.956   6.073   7.782  0.3655  0.0472  1.3235
42176SOL     OW30983   8.116   4.343   7.481  0.3172  0.3766  0.2006
42176SOL    HW130984   8.070   4.349   7.564 -0.2245  2.7053 -0.1888
42176SOL    HW230985   8.200   4.386   7.496  0.3693  0.4810 -0.3431
42177SOL     OW30986   9.716   2.231   2.598 -0.2558  0.2657  0.4479
42177SOL    HW130987   9.692   2.288   2.671 -1.6824  2.1166 -1.3258
42177SOL    HW230988   9.671   2.270   2.523  1.4825 -1.2959 -1.5009
42178SOL     OW30989   5.096   4.522   6.732 -0.8196  0.4269  0.6081
42178SOL    HW130990   5.175   4.552   6.686 -0.7089 -2.6018 -1.4468
42178SOL    HW230991   5.130   4.474   6.808 -0.4989 -1.7362 -0.8100
42179SOL     OW30992   7.676   5.235   1.228  0.4350  0.3276  0.0591
42179SOL    HW130993   7.678   5.193   1.313 -0.1266  1.6334  0.7409
42179SOL    HW230994   7.586   5.226   1.198  0.1460  1.5242  0.4908
42180SOL     OW30995   6.547   5.986   3.236  0.3772  0.7449  0.1299
42180SOL    HW130996   6.611   5.924   3.201 -0.3324 -0.9467  1.6349
42180SOL    HW230997   6.462   5.946   3.216 -0.0826  0.8274  1.7214
42181SOL     OW30998   4.889  10.052   9.172  0.1590  0.6644  0.7633
42181SOL    HW130999   4.858   9.980   9.117 -0.4851 -0.2147  2.2269
42181SOL    HW231000   4.831  10.125   9.151 -0.4665  0.1599  0.7081
42182SOL     OW31001   8.926   5.401   7.035  0.5881 -0.2822  0.0017
42182SOL    HW131002   8.869   5.447   7.095 -0.5230 -0.8595 -0.5865
42182SOL    HW231003   9.006   5.384   7.086  0.6584  1.4091  0.5171
42183SOL     OW31004   0.741   7.238   0.723 -0.0015 -0.6574 -0.2403
42183SOL    HW131005   0.647   7.240   0.745  0.0324 -0.5674 -0.1027
42183SOL    HW231006   0.744   7.261   0.630  0.0337  1.4696  0.2326
42184SOL     OW31007   3.666   6.230   5.958 -0.5530 -0.0131 -0.0084
42184SOL    HW131008   3.607   6.305   5.969 -1.1297 -0.6522  1.6360
42184SOL    HW231009   3.713   6.224   6.041 -0.2131 -1.2018 -0.2623
42185SOL     OW31010   8.132   9.735   9.088 -0.1714  0.1927 -0.0966
42185SOL    HW131011   8.187   9.740   9.011  0.3524  2.4785  0.3526
42185SOL    HW231012   8.193   9.733   9.162 -0.5614  2.4017  0.3886
42186SOL     OW31013   7.018   7.258   9.770  0.1809 -0.9962 -0.0554
42186SOL    HW131014   7.039   7.186   9.712 -1.5184 -2.2627  0.8055
42186SOL    HW231015   6.934   7.234   9.809  0.6721  0.3510  2.0096
42187SOL     OW31016  10.813   3.801   1.727  0.2443 -0.0466 -1.1517
42187SOL    HW131017  10.753   3.738   1.767  0.1570 -0.7837 -2.3964
42187SOL    HW231018  10.776   3.887   1.749  0.6578 -0.3790  1.0304
42188SOL     OW31019  10.770   6.612   0.491 -0.2153 -0.0084 -0.0486
42188SOL    HW131020  10.829   6.545   0.525 -0.1165 -0.5341 -1.1907
42188SOL    HW231021  10.805   6.695   0.524  0.7215 -0.3776 -0.0878
42189SOL     OW31022   3.849   1.813   2.114  0.2946  0.1276  0.2184
42189SOL    HW131023   3.903   1.790   2.038  1.7586  0.8105  1.0247
42189SOL    HW231024   3.897   1.779   2.189  1.0402  3.0779  1.1987
42190SOL     OW31025  10.800   1.398   5.572 -0.1161  0.2947  0.7218
42190SOL    HW131026  10.706   1.409   5.562 -0.5644 -2.1983  1.5645
42190SOL    HW231027  10.810   1.344   5.651  2.0141  0.3585  0.5632
42191SOL     OW31028   9.426   7.104   8.698  0.3642  0.4623 -0.0504
42191SOL    HW131029   9.469   7.177   8.743  0.2053  0.2529  0.4435
42191SOL    HW231030   9.481   7.087   8.622  1.2223  0.1219  0.6317
42192SOL     OW31031   5.443   1.603   6.644  0.3376 -0.2945  0.3249
42192SOL    HW131032   5.398   1.688   6.641 -1.2886 -1.0575  1.5836
42192SOL    HW231033   5.529   1.623   6.681  0.5365  0.9973 -0.7585
42193SOL     OW31034   4.818   0.034   8.540  0.1263 -0.1300 -0.3166
42193SOL    HW131035   4.854   0.108   8.591 -0.2242  0.3308 -0.7299
42193SOL    HW231036   4.858  -0.043   8.580  0.4036  0.2723  0.2081
42194SOL     OW31037   9.887   2.673   9.243 -0.3040 -0.5087 -0.5017
42194SOL    HW131038   9.933   2.638   9.319  0.0825  0.4174 -0.2941
42194SOL    HW231039   9.845   2.753   9.275  0.9948  0.6564 -1.5660
42195SOL     OW31040   6.941   1.171   9.178  0.4068  0.0878 -0.5759
42195SOL    HW131041   6.971   1.212   9.097  1.4235 -2.6400 -1.7274
42195SOL    HW231042   6.981   1.084   9.177 -1.8965 -1.1371  1.4248
42196SOL     OW31043   4.220   5.876   1.972 -0.5195  0.2232  0.1928
42196SOL    HW131044   4.299   5.912   1.932 -0.2316  0.8433  1.2549
42196SOL    HW231045   4.148   5.910   1.920 -0.1794  1.3062  0.4085
42197SOL     OW31046   3.281   4.324   5.688 -0.0420 -0.0342  0.1714
42197SOL    HW131047   3.231   4.351   5.765  0.4382 -1.2013  0.9179
42197SOL    HW231048   3.344   4.260   5.721  0.3815 -0.3360 -1.1475
42198SOL     OW31049   0.541  11.060   0.882 -0.0222 -0.3202  0.7071
42198SOL    HW131050   0.511  10.985   0.932 -1.2479  0.2793  0.9131
42198SOL    HW231051   0.633  11.041   0.863  0.1031 -1.1772  2.0176
42199SOL     OW31052   5.449   3.161   6.369  0.1952 -0.0529 -0.1690
42199SOL    HW131053   5.420   3.173   6.279 -1.2196  0.6287  0.3410
42199SOL    HW231054   5.369   3.166   6.421  1.0079 -0.1740  1.1554
42200SOL     OW31055   2.454   2.895   7.754 -0.0133  0.2596 -0.1882
42200SOL    HW131056   2.420   2.806   7.737  0.9694  0.1199 -1.5640
42200SOL    HW231057   2.382   2.953   7.728 -0.0380 -0.1023 -0.9783
42201SOL     OW31058   6.703   7.317   7.481 -0.2542 -0.2589  0.0791
42201SOL    HW131059   6.656   7.236   7.501 -2.6571  0.9830 -0.2477
42201SOL    HW231060   6.781   7.288   7.434 -0.2533 -2.4592  1.3045
42202SOL     OW31061   3.235   8.321   6.171 -0.2394  0.2029  0.0238
42202SOL    HW131062   3.296   8.283   6.235 -1.0433 -0.7626  0.2359
42202SOL    HW231063   3.265   8.288   6.087 -0.2343  0.0382  0.0898
42203SOL     OW31064   8.830   1.457   4.296 -0.1487  0.0582  0.1609
42203SOL    HW131065   8.820   1.386   4.233 -1.4414  0.9337 -0.6732
42203SOL    HW231066   8.866   1.529   4.245  0.8337  0.1192  0.9237
42204SOL     OW31067   7.385   5.688   4.148  0.1303  0.4357 -0.6677
42204SOL    HW131068   7.416   5.776   4.168 -0.4137  0.4271  0.2650
42204SOL    HW231069   7.297   5.684   4.184  0.5020 -0.7952  0.1854
42205SOL     OW31070  10.037   4.222   6.263  0.1482 -0.4047 -0.1220
42205SOL    HW131071  10.054   4.299   6.318  0.5327  0.7778 -1.8350
42205SOL    HW231072   9.969   4.251   6.202 -0.9657 -1.9958  0.2998
42206SOL     OW31073   8.225   2.446   2.161 -0.2329  0.4933 -0.0105
42206SOL    HW131074   8.173   2.501   2.220 -0.5375  0.8583 -0.6110
42206SOL    HW231075   8.209   2.482   2.074  1.6510  1.1331 -0.1437
42207SOL     OW31076   8.451   6.731   2.036  0.5387  0.3427 -0.0873
42207SOL    HW131077   8.415   6.816   2.009  0.8124  0.3716 -0.3596
42207SOL    HW231078   8.469   6.685   1.954 -0.2724 -0.2623  0.0635
42208SOL     OW31079   7.441   8.206   7.632  0.2851  0.0396  0.2033
42208SOL    HW131080   7.483   8.291   7.645  1.1881 -0.4918  0.8372
42208SOL    HW231081   7.509   8.151   7.594 -0.6346 -0.0938 -1.3273
42209SOL     OW31082   2.864   1.693   6.654 -0.3711  0.0426 -0.6608
42209SOL    HW131083   2.926   1.626   6.684 -0.7570 -0.2146 -0.4336
42209SOL    HW231084   2.789   1.685   6.713 -1.2381 -0.6283 -1.8120
42210SOL     OW31085   1.952   3.602   6.370  0.5407 -0.9548 -0.1698
42210SOL    HW131086   2.031   3.632   6.415 -0.4123  0.2728  0.7162
42210SOL    HW231087   1.971   3.510   6.350  0.0793 -2.5516  5.1332
42211SOL     OW31088   1.659   5.195   5.163 -0.4729 -0.0268 -0.6435
42211SOL    HW131089   1.705   5.239   5.091  0.8720 -1.0230 -0.4441
42211SOL    HW231090   1.637   5.109   5.127  1.9702 -1.3022  0.6772
42212SOL     OW31091   1.768   2.361   7.674 -0.6243  0.6670  0.3059
42212SOL    HW131092   1.819   2.305   7.733 -1.0881  0.9403  0.9816
42212SOL    HW231093   1.814   2.356   7.591 -2.5933 -3.6526 -0.7855
42213SOL     OW31094   5.023   6.343   6.169 -0.2329  0.0700 -0.4429
42213SOL    HW131095   5.016   6.377   6.080  0.4987 -0.2266 -0.6199
42213SOL    HW231096   4.933   6.318   6.192 -0.6127  1.1586 -0.6811
42214SOL     OW31097   5.129   4.809   8.542  0.0482 -0.1026 -0.0904
42214SOL    HW131098   5.116   4.874   8.611 -0.7190  3.1678 -3.0059
42214SOL    HW231099   5.041   4.776   8.524  0.1528 -0.4259 -0.0234
42215SOL     OW31100  10.148   7.580   6.378  0.2704  0.3111  0.0350
42215SOL    HW131101  10.138   7.514   6.309 -1.4344  0.4176  0.1491
42215SOL    HW231102  10.149   7.529   6.459  0.0083  0.3451  0.0604
42216SOL     OW31103   7.590   6.514   4.766 -0.4402 -0.4422  0.1486
42216SOL    HW131104   7.528   6.494   4.836 -0.8569 -1.0849 -0.3895
42216SOL    HW231105   7.552   6.474   4.688  1.0973 -1.6831 -0.0194
42217SOL     OW31106   8.495   2.254   6.719 -0.4536 -0.3866  0.2196
42217SOL    HW131107   8.497   2.350   6.714 -0.1424 -0.4791 -2.0874
42217SOL    HW231108   8.402   2.233   6.723 -0.6658 -0.0405 -1.8728
42218SOL     OW31109   0.658   5.185   8.974  0.3030 -0.3085  0.1983
42218SOL    HW131110   0.567   5.212   8.984 -0.2203 -1.9712  0.2601
42218SOL    HW231111   0.657   5.125   8.899  1.5125  0.3010 -0.3465
42219SOL     OW31112  10.892   3.961   7.260 -0.3956 -0.4678  0.8167
42219SOL    HW131113  10.955   4.031   7.277 -0.4486 -0.1915 -0.0719
42219SOL    HW231114  10.817   3.982   7.317 -1.1657  1.2347 -0.7139
42220SOL     OW31115   1.381   4.117   6.123 -0.0367 -0.2244 -0.1182
42220SOL    HW131116   1.456   4.145   6.070 -0.6176 -0.9535 -1.3901
42220SOL    HW231117   1.419   4.066   6.194  0.7055 -0.1272 -0.4359
42221SOL     OW31118   6.368  10.851   5.487  0.2097 -0.1128  0.0960
42221SOL    HW131119   6.372  10.893   5.401 -2.8462 -0.9564 -0.5599
42221SOL    HW231120   6.439  10.787   5.486  1.0823  0.8178 -1.2092
42222SOL     OW31121   2.976   4.402   9.939  0.0080 -0.5028  0.4468
42222SOL    HW131122   2.909   4.467   9.919 -1.3827 -1.6385  1.2069
42222SOL    HW231123   2.961   4.379  10.031  1.0333 -1.2570  0.4545
42223SOL     OW31124   1.551  10.456   2.554 -0.3453 -0.3332  0.0104
42223SOL    HW131125   1.624  10.466   2.493  1.2256  0.2919  1.8981
42223SOL    HW231126   1.497  10.533   2.540 -0.5168 -0.6567 -1.2091
42224SOL     OW31127   0.990   1.409   2.325  0.2022 -0.1679 -0.0956
42224SOL    HW131128   0.934   1.353   2.272  0.8035 -1.2150  0.3320
42224SOL    HW231129   0.941   1.424   2.405  0.5362 -1.1570  0.3157
42225SOL     OW31130   0.731   1.056   8.885  0.1443  0.7573  0.7278
42225SOL    HW131131   0.819   1.043   8.921  0.4900  0.3265 -0.2272
42225SOL    HW231132   0.704   1.141   8.918  1.6813  1.7442 -0.4044
42226SOL     OW31133   0.160   3.841   5.615 -0.1108 -0.0847  0.4158
42226SOL    HW131134   0.137   3.896   5.540  1.0611  0.4455  0.4117
42226SOL    HW231135   0.148   3.898   5.691  0.6503  0.0441  0.4510
42227SOL     OW31136   8.984   5.441   4.386 -0.7175 -0.0297 -0.5396
42227SOL    HW131137   8.913   5.480   4.437  0.4750  0.9377  0.4317
42227SOL    HW231138   9.001   5.357   4.429 -1.2592 -0.2765 -0.7880
42228SOL     OW31139   3.315   2.618   3.262 -0.5738 -0.3800 -0.1874
42228SOL    HW131140   3.410   2.628   3.257 -0.7077  1.6344  0.4301
42228SOL    HW231141   3.282   2.707   3.251 -2.3334 -0.8539  0.9993
42229SOL     OW31142   9.848   1.055   2.674  0.1245 -0.4362  0.0571
42229SOL    HW131143   9.827   1.131   2.727 -1.3610 -0.4985 -0.4134
42229SOL    HW231144   9.942   1.064   2.656  0.5772 -0.1669  2.2525
42230SOL     OW31145  10.974   3.039   1.355 -0.1440 -0.1570  0.2851
42230SOL    HW131146  11.006   2.973   1.293  0.3828  2.0889 -2.0435
42230SOL    HW231147  11.053   3.088   1.380 -0.6379  0.2038  1.1741
42231SOL     OW31148   8.239   3.795   8.533  0.4230  0.0844  0.3517
42231SOL    HW131149   8.216   3.702   8.539 -0.1899  0.0946 -1.2232
42231SOL    HW231150   8.332   3.799   8.557  1.2461 -1.3835 -2.1983
42232SOL     OW31151   6.901   1.265   9.668 -0.3459 -0.1658 -0.3561
42232SOL    HW131152   6.955   1.322   9.613  1.8970  0.0889  1.9218
42232SOL    HW231153   6.843   1.220   9.606  0.3893  1.7874 -2.6242
42233SOL     OW31154   4.638   4.078   5.551 -0.2628 -0.1569  0.2772
42233SOL    HW131155   4.627   3.992   5.591 -0.8770 -1.1224 -1.8304
42233SOL    HW231156   4.550   4.117   5.555 -0.3693 -0.3351 -0.2866
42234SOL     OW31157   3.624   6.279   5.167  0.8862 -1.1636  0.3980
42234SOL    HW131158   3.608   6.326   5.085  2.3725  1.0420  1.2696
42234SOL    HW231159   3.716   6.297   5.187  0.4513 -1.2284  2.7905
42235SOL     OW31160   1.006   9.060   4.533  0.3265 -0.2029  0.1626
42235SOL    HW131161   0.912   9.046   4.547  0.3327 -0.4872 -0.0695
42235SOL    HW231162   1.041   8.973   4.514  0.8705 -0.3032  1.5290
42236SOL     OW31163   4.754   2.850   1.822  0.0153 -0.5133  0.2333
42236SOL    HW131164   4.795   2.932   1.793  0.4375 -1.3804 -1.8038
42236SOL    HW231165   4.709   2.873   1.903  3.1061  0.9240  1.7351
42237SOL     OW31166   4.408   1.430   3.063  0.5196  0.0509  0.2043
42237SOL    HW131167   4.473   1.495   3.091 -0.8868  0.8455  1.8480
42237SOL    HW231168   4.458   1.350   3.049  1.8850  0.6796  1.2260
42238SOL     OW31169   9.703   7.005   1.567  0.9055 -1.0225 -0.1559
42238SOL    HW131170   9.777   7.032   1.622 -0.5015 -0.6205  1.6598
42238SOL    HW231171   9.743   6.964   1.490  3.0906 -4.5997  2.5505
42239SOL     OW31172   8.870   7.994   4.316  0.1758 -0.1839 -0.6402
42239SOL    HW131173   8.833   7.945   4.389 -1.0735  0.5364 -0.7491
42239SOL    HW231174   8.915   8.068   4.357 -0.6128  0.2770 -0.5847
42240SOL     OW31175   8.471   9.253   9.016  0.2807 -0.1317  0.1592
42240SOL    HW131176   8.400   9.189   9.026  0.6272 -0.7137 -0.9694
42240SOL    HW231177   8.551   9.201   9.017  0.5303  0.1605 -1.5692
42241SOL     OW31178   3.604   6.232   2.108 -0.0519 -0.5006 -0.1239
42241SOL    HW131179   3.511   6.224   2.126 -0.3787 -1.5297 -2.0280
42241SOL    HW231180   3.643   6.255   2.193 -2.1131  0.8761  0.5258
42242SOL     OW31181   7.404   6.778   1.656 -0.1643  0.7014 -0.4566
42242SOL    HW131182   7.383   6.710   1.592  0.1651 -2.5342  2.5781
42242SOL    HW231183   7.499   6.774   1.666 -0.3636 -0.5217  1.7208
42243SOL     OW31184   3.784   8.976   1.516 -0.2790  0.2565  0.3746
42243SOL    HW131185   3.872   8.964   1.480 -0.8934 -0.1319 -1.0483
42243SOL    HW231186   3.797   8.981   1.611  1.5281  2.4324  0.0946
42244SOL     OW31187   4.782   4.395   9.808 -0.8389 -0.0542 -0.1196
42244SOL    HW131188   4.814   4.396   9.718  1.6638 -0.3738  0.7057
42244SOL    HW231189   4.860   4.386   9.862 -2.0211  2.3206  2.2306
42245SOL     OW31190   9.414   6.030   9.336  0.0459 -0.6760  0.3986
42245SOL    HW131191   9.336   6.075   9.306 -0.1251 -0.5866  0.9580
42245SOL    HW231192   9.451   6.088   9.403  1.1177 -0.2611 -0.5208
42246SOL     OW31193   2.042   6.417   2.196 -0.6736  0.1631  0.3014
42246SOL    HW131194   2.029   6.334   2.241 -2.4623  0.2531  0.0004
42246SOL    HW231195   2.133   6.440   2.215 -0.1653 -1.7894  0.4837
42247SOL     OW31196   5.389   0.399   6.148  0.1832 -0.0755 -0.4637
42247SOL    HW131197   5.402   0.380   6.240  0.3566  1.4798 -0.1371
42247SOL    HW231198   5.295   0.391   6.134 -0.1787  2.0459  0.4572
42248SOL     OW31199   6.176   4.965   0.569 -0.5461  0.0605 -0.0143
42248SOL    HW131200   6.216   5.043   0.607 -0.0710 -0.2640  0.1609
42248SOL    HW231201   6.234   4.939   0.498 -1.3651  0.5884 -0.9006
42249SOL     OW31202   3.137   2.803   4.288 -0.2783 -0.1574  0.6865
42249SOL    HW131203   3.178   2.843   4.212 -3.0767  2.0299  0.1748
42249SOL    HW231204   3.167   2.856   4.362 -2.9435  2.2826  0.1635
42250SOL     OW31205   9.154   5.607   2.706  0.1594  0.4477 -0.4453
42250SOL    HW131206   9.184   5.559   2.784 -0.4700 -0.2452 -0.6243
42250SOL    HW231207   9.233   5.615   2.652  0.4948  0.5147  0.0391
42251SOL     OW31208   9.424   3.492   0.321 -0.2108  0.4035  0.2522
42251SOL    HW131209   9.342   3.441   0.321  0.4891 -0.7817 -0.7207
42251SOL    HW231210   9.395   3.583   0.318 -1.5018  0.0168  0.2180
42252SOL     OW31211   2.672   9.566   8.453 -0.3553  0.4221  0.6238
42252SOL    HW131212   2.659   9.656   8.425 -1.8612  0.2689  0.7746
42252SOL    HW231213   2.767   9.553   8.447 -0.2328  1.6068 -0.6397
42253SOL     OW31214   6.252   6.030   3.554 -0.8179 -0.5239  0.1062
42253SOL    HW131215   6.207   5.952   3.521 -0.4190 -0.8930  0.4287
42253SOL    HW231216   6.301   6.000   3.630 -0.7142  0.0579  0.2788
42254SOL     OW31217   2.448   2.216   9.606  0.6794  0.1174  0.9272
42254SOL    HW131218   2.353   2.226   9.607  0.2972 -2.7058  0.2534
42254SOL    HW231219   2.471   2.198   9.698  0.6736  1.2579  1.1724
42255SOL     OW31220  11.044   1.389   8.578  0.0648  0.7074  0.0698
42255SOL    HW131221  11.069   1.395   8.485  1.1619 -2.8470 -0.0103
42255SOL    HW231222  11.127   1.392   8.625 -0.2563 -0.1339  0.7058
42256SOL     OW31223   2.865   6.244   4.487 -0.0845 -0.0367 -0.6180
42256SOL    HW131224   2.810   6.311   4.447 -0.4945 -0.7724 -1.3010
42256SOL    HW231225   2.955   6.268   4.462  0.0930  1.8371  1.4609
42257SOL     OW31226  10.796   5.477   4.091  0.1074  0.0709 -0.3817
42257SOL    HW131227  10.845   5.550   4.054  1.5799 -1.0691 -0.7914
42257SOL    HW231228  10.779   5.503   4.181  1.5766  0.4758 -0.1982
42258SOL     OW31229   5.405   7.020   5.323  0.4253 -0.3340  0.0213
42258SOL    HW131230   5.484   7.035   5.271 -0.1417  0.1709 -0.7100
42258SOL    HW231231   5.378   6.931   5.300  0.7466 -0.4914  0.2381
42259SOL     OW31232   7.391   8.544   2.656  0.4459 -0.1183 -0.0270
42259SOL    HW131233   7.432   8.595   2.585  1.1088 -0.6675 -0.0483
42259SOL    HW231234   7.437   8.460   2.654 -0.9449 -0.9037 -0.2981
42260SOL     OW31235   7.468   4.123   0.330 -0.0596  0.2377  0.1275
42260SOL    HW131236   7.438   4.052   0.387  0.9750  0.7921  1.4239
42260SOL    HW231237   7.564   4.118   0.334  0.1292 -0.7382 -2.9268
42261SOL     OW31238   3.732   0.307   7.035  0.4835  0.0255 -0.1262
42261SOL    HW131239   3.742   0.402   7.037  0.2789  0.0476 -0.2023
42261SOL    HW231240   3.649   0.290   7.080  0.3478 -0.0938 -0.4183
42262SOL     OW31241   4.015   1.497   8.861  0.1759 -0.4853  0.3282
42262SOL    HW131242   4.052   1.513   8.947  2.0456 -1.6471 -0.2217
42262SOL    HW231243   3.962   1.418   8.871 -1.6219  0.7297  0.9249
42263SOL     OW31244   2.543   5.616   0.350 -0.4762 -0.6156  0.3746
42263SOL    HW131245   2.593   5.534   0.347 -0.1345 -0.3904 -1.3032
42263SOL    HW231246   2.543   5.647   0.259  0.0011  1.6198  1.0795
42264SOL     OW31247   0.975   9.407   6.131  0.1663 -0.0780 -0.0408
42264SOL    HW131248   0.953   9.499   6.144 -2.8519 -0.7225  0.0227
42264SOL    HW231249   1.031   9.407   6.054 -1.7958  1.6572 -1.5934
42265SOL     OW31250   9.241   7.176   8.199 -0.2612 -0.2681 -0.1878
42265SOL    HW131251   9.324   7.145   8.162 -0.6098  1.8208 -3.0346
42265SOL    HW231252   9.257   7.267   8.222 -1.7512  0.2370 -0.9683
42266SOL     OW31253   6.417   5.846   9.604  0.1711 -0.0101 -0.3251
42266SOL    HW131254   6.413   5.800   9.520 -0.5329 -0.5361 -0.0205
42266SOL    HW231255   6.487   5.910   9.593  0.0229  0.0014 -1.3470
42267SOL     OW31256   9.887   6.690   1.067 -0.4048  0.0632 -0.3484
42267SOL    HW131257   9.907   6.606   1.108  0.6074  0.4835  0.0537
42267SOL    HW231258   9.938   6.688   0.985  1.9000  1.3677  0.9386
42268SOL     OW31259   4.560   7.965  10.795 -0.3895 -0.2217  0.3793
42268SOL    HW131260   4.537   8.007  10.712  0.2440  1.8226  1.1657
42268SOL    HW231261   4.480   7.971  10.847 -1.5890 -3.7092 -0.8054
42269SOL     OW31262   6.513   2.658   2.610  0.4690 -0.9494 -0.0791
42269SOL    HW131263   6.444   2.680   2.547 -0.1635 -2.9659 -0.1595
42269SOL    HW231264   6.473   2.593   2.668  1.6155 -0.4927  1.2967
42270SOL     OW31265   0.987  10.743   1.970 -0.0353  0.9609 -0.1373
42270SOL    HW131266   1.005  10.649   1.976 -0.1931  0.9310 -0.1149
42270SOL    HW231267   1.053  10.783   2.026 -0.4295  0.8066  0.4610
42271SOL     OW31268   8.855   1.607   8.032 -0.2747 -0.1741  0.3583
42271SOL    HW131269   8.932   1.551   8.036  0.9728  1.4497 -0.0929
42271SOL    HW231270   8.857   1.657   8.114  1.0268  2.1544 -0.9773
42272SOL     OW31271   5.704   1.535   2.434 -0.1548 -0.3617  0.0103
42272SOL    HW131272   5.674   1.476   2.504 -3.3229  0.5975 -0.3613
42272SOL    HW231273   5.623   1.561   2.389  1.1516  3.4547 -0.4794
42273SOL     OW31274   1.139   2.585   7.783 -0.2878  0.1796 -0.0019
42273SOL    HW131275   1.079   2.511   7.785  0.9867 -0.8739  1.6338
42273SOL    HW231276   1.121   2.633   7.864  0.5071  0.3217  0.0990
42274SOL     OW31277   2.679   7.903   0.105  0.8551 -0.5608  0.4445
42274SOL    HW131278   2.624   7.827   0.087  1.7532 -0.8807 -1.2257
42274SOL    HW231279   2.704   7.894   0.197 -2.0796 -0.2040  1.3602
42275SOL     OW31280   5.066   9.355   0.707 -0.0102 -0.2273 -0.4679
42275SOL    HW131281   5.102   9.422   0.648  3.1283 -1.2432  0.0993
42275SOL    HW231282   5.102   9.378   0.793  0.2475 -2.0028 -0.0643
42276SOL     OW31283   7.969   8.074   7.414  0.2826 -0.4855 -0.4507
42276SOL    HW131284   7.930   7.996   7.375 -0.0941 -0.5198 -0.0214
42276SOL    HW231285   7.944   8.145   7.356  0.9962 -0.7407 -1.0828
42277SOL     OW31286   0.007   8.740   5.211 -0.6387  0.0481  0.9135
42277SOL    HW131287   0.045   8.761   5.297 -1.5517  1.0627  1.0887
42277SOL    HW231288  -0.051   8.666   5.228  1.4278 -1.7621  0.5796
42278SOL     OW31289   4.961   1.526   3.508  0.1089 -0.2022 -0.2043
42278SOL    HW131290   5.032   1.538   3.571  0.9606 -1.9812 -0.7679
42278SOL    HW231291   5.005   1.522   3.423 -0.9987  1.9403 -0.9575
42279SOL     OW31292   2.345   8.282   7.254  0.4416 -0.1063  0.1080
42279SOL    HW131293   2.375   8.197   7.222 -0.2362  0.0376 -0.9665
42279SOL    HW231294   2.250   8.271   7.266  0.3025  0.5817 -0.3317
42280SOL     OW31295   4.516   8.053   2.112 -0.3184  0.4065  0.3803
42280SOL    HW131296   4.534   7.984   2.176  0.0521  0.2039  0.0650
42280SOL    HW231297   4.436   8.023   2.067 -0.1894  0.2061  0.2803
42281SOL     OW31298   0.399   1.888   7.548 -0.3080 -0.4749 -0.2686
42281SOL    HW131299   0.393   1.802   7.507  1.7524 -0.4815 -0.6712
42281SOL    HW231300   0.437   1.944   7.480 -0.2936  0.4029  0.4399
42282SOL     OW31301   1.819   7.535  11.001 -0.5192 -0.0623  0.3245
42282SOL    HW131302   1.781   7.516  11.086 -1.5353 -0.7900 -0.2671
42282SOL    HW231303   1.851   7.451  10.969 -1.6229 -0.1299 -0.6902
42283SOL     OW31304   4.814   1.120   1.334  0.4908 -0.6155 -0.0583
42283SOL    HW131305   4.769   1.039   1.356 -0.1172 -0.1508  0.4368
42283SOL    HW231306   4.754   1.189   1.360  1.1618  0.0078 -0.1219
42284SOL     OW31307   6.841   0.170   6.899 -0.3123 -0.1006 -0.1664
42284SOL    HW131308   6.884   0.207   6.821 -1.4792 -0.2603 -0.9125
42284SOL    HW231309   6.871   0.224   6.971  0.3461  0.4208 -0.8173
42285SOL     OW31310   9.830   2.931   7.900  0.1522  0.0326 -0.3401
42285SOL    HW131311   9.843   2.941   7.805  0.0563  2.1397 -0.1764
42285SOL    HW231312   9.735   2.934   7.912  0.0882 -1.5430 -0.2653
42286SOL     OW31313   0.035   1.491   4.048 -0.7070  0.2168 -0.1410
42286SOL    HW131314   0.100   1.482   3.978  0.0879  0.1934  0.5880
42286SOL    HW231315   0.077   1.452   4.125 -0.7805  2.0165  0.8527
42287SOL     OW31316   6.280   2.086   9.027 -0.3963 -0.2470  0.1037
42287SOL    HW131317   6.307   2.035   9.104 -3.6309 -1.1709  0.7919
42287SOL    HW231318   6.274   2.176   9.058 -1.7602 -0.6267  1.0338
42288SOL     OW31319   8.625   7.500   6.390  0.6794 -0.0290 -0.1064
42288SOL    HW131320   8.653   7.481   6.479  2.1779  1.8810 -0.1238
42288SOL    HW231321   8.694   7.463   6.334 -0.2318 -1.1866 -0.5094
42289SOL     OW31322   0.601   3.916   5.160  0.2282  0.1232 -0.5209
42289SOL    HW131323   0.574   3.891   5.071 -0.1785  0.4757 -0.5024
42289SOL    HW231324   0.616   3.833   5.205  3.1740 -0.0967 -1.6997
42290SOL     OW31325   0.354   1.347   9.002  0.0598  0.5125 -0.6867
42290SOL    HW131326   0.258   1.341   9.005  0.0142  0.7024 -1.4907
42290SOL    HW231327   0.374   1.430   9.046 -0.2397  1.0851 -1.6051
42291SOL     OW31328   3.506   9.853  10.534 -0.1885  0.0506 -0.2859
42291SOL    HW131329   3.586   9.802  10.550 -1.4627 -1.9213  0.2628
42291SOL    HW231330   3.477   9.824  10.447 -1.7312 -1.4374  0.6463
42292SOL     OW31331   5.344   6.251  10.384 -0.4451 -0.2527 -0.1843
42292SOL    HW131332   5.399   6.253  10.462  0.1584  0.6316 -0.6151
42292SOL    HW231333   5.365   6.167  10.343 -0.8497 -0.7748  0.6421
42293SOL     OW31334   0.648   0.144  10.206  0.6525 -0.1283  0.6438
42293SOL    HW131335   0.596   0.074  10.166  3.1149 -2.7368  1.6544
42293SOL    HW231336   0.671   0.202  10.133 -0.9404 -0.6823 -0.3530
42294SOL     OW31337   0.814   3.133  10.810 -0.7177  0.0356 -0.0315
42294SOL    HW131338   0.768   3.055  10.840 -0.6131 -0.2119 -0.5155
42294SOL    HW231339   0.822   3.122  10.716 -0.0807  0.2923 -0.0132
42295SOL     OW31340   8.697   5.355   7.405  0.5047  0.2302 -0.0743
42295SOL    HW131341   8.605   5.362   7.379  0.5730  0.7503 -0.1957
42295SOL    HW231342   8.700   5.392   7.494  0.2877 -1.4482  0.6622
42296SOL     OW31343  11.042   4.683   0.105 -0.1652  0.5975 -0.0661
42296SOL    HW131344  10.950   4.697   0.128 -0.0405  2.1314 -0.3909
42296SOL    HW231345  11.059   4.591   0.128 -1.3954  0.6709  1.2720
42297SOL     OW31346   5.585   7.635   6.473 -0.1983 -0.3508  0.0948
42297SOL    HW131347   5.648   7.670   6.410 -1.2373  1.2955 -0.1009
42297SOL    HW231348   5.546   7.559   6.429  0.0872 -0.0593 -0.6787
42298SOL     OW31349   1.855   5.033   9.681  0.6179 -0.0495 -0.2306
42298SOL    HW131350   1.922   5.028   9.613 -0.8095 -0.0527 -1.7103
42298SOL    HW231351   1.802   5.109   9.656 -1.1256 -1.2328 -0.2821
42299SOL     OW31352   9.457   8.349   3.855 -0.9105  0.1343  0.4560
42299SOL    HW131353   9.412   8.429   3.829  0.2472  0.4189 -0.7890
42299SOL    HW231354   9.517   8.330   3.783 -0.6998 -1.5108  1.0025
42300SOL     OW31355   7.105   0.595   4.257 -0.3426  0.8048  0.1466
42300SOL    HW131356   7.194   0.630   4.256 -0.8389  2.2764 -2.3325
42300SOL    HW231357   7.112   0.508   4.219  0.2758  0.0241  1.9624
42301SOL     OW31358   5.965   6.406  10.706  0.1481  0.2248 -0.0647
42301SOL    HW131359   6.048   6.361  10.692 -0.6729 -0.7506 -2.2258
42301SOL    HW231360   5.912   6.344  10.757 -0.0789 -0.1898 -0.7935
42302SOL     OW31361   9.084   1.037   4.935  0.2688 -0.7921  0.5773
42302SOL    HW131362   9.092   1.090   5.015  0.0989  0.1926 -0.0384
42302SOL    HW231363   8.994   1.054   4.905  0.4986 -0.7567 -0.0915
42303SOL     OW31364  10.506   0.964  10.119  0.4811  0.0264 -0.0162
42303SOL    HW131365  10.571   1.030  10.141  0.4666 -0.2139  0.7527
42303SOL    HW231366  10.430   1.014  10.090  0.7979  0.3184 -0.3577
42304SOL     OW31367   2.863   2.071   1.307 -0.1265 -0.0129 -0.4000
42304SOL    HW131368   2.919   2.116   1.371 -0.4123  1.1349 -0.9377
42304SOL    HW231369   2.784   2.048   1.356  0.2157 -0.3564 -0.0008
42305SOL     OW31370   9.931   5.695   1.673 -0.3484 -0.1872 -0.3989
42305SOL    HW131371  10.005   5.667   1.618 -0.4804  0.0043 -0.6760
42305SOL    HW231372   9.905   5.779   1.636  0.4240  0.6077  0.7897
42306SOL     OW31373   6.503   0.660   9.126  0.2129  0.3090  0.1276
42306SOL    HW131374   6.590   0.699   9.113  0.4236 -0.2004 -0.0137
42306SOL    HW231375   6.521   0.573   9.161 -0.0995 -1.0637 -2.8480
42307SOL     OW31376   6.601   3.597   9.900 -0.1537 -0.0418  0.1527
42307SOL    HW131377   6.664   3.605   9.829  0.2378 -0.8243  0.3980
42307SOL    HW231378   6.638   3.530   9.958 -1.6723 -1.2929 -0.2362
42308SOL     OW31379   8.591  10.782   4.451  0.2975  0.1551  0.1832
42308SOL    HW131380   8.572  10.696   4.412  1.8028  0.3159 -1.0151
42308SOL    HW231381   8.638  10.829   4.382  0.8145  1.4037  1.3467
42309SOL     OW31382   3.808   1.163   2.967  0.2872  0.3230 -0.0176
42309SOL    HW131383   3.726   1.192   2.927 -0.3896  0.2469  1.2558
42309SOL    HW231384   3.827   1.229   3.034  2.2485  1.3233 -1.4632
42310SOL     OW31385   0.605   6.433   3.994  0.3115  0.0023 -0.6026
42310SOL    HW131386   0.576   6.523   4.011  1.2368  0.1482  0.2961
42310SOL    HW231387   0.573   6.383   4.069  3.5145  0.4401  1.2111
42311SOL     OW31388   1.033   4.559   4.540 -0.2011 -0.0611 -0.1056
42311SOL    HW131389   1.054   4.648   4.511  2.0716 -0.4812  0.0224
42311SOL    HW231390   0.977   4.571   4.616 -0.4475  1.2492 -0.4712
42312SOL     OW31391   6.002   9.307   8.296 -0.1295 -0.6532 -0.7366
42312SOL    HW131392   5.985   9.333   8.206 -0.5983  1.6263 -0.0538
42312SOL    HW231393   6.088   9.345   8.316 -1.5650  2.0864  0.8195
42313SOL     OW31394   7.295  10.085   6.485 -0.8075 -0.1749  0.2693
42313SOL    HW131395   7.215  10.050   6.523 -0.3560 -1.3659  0.1604
42313SOL    HW231396   7.346  10.117   6.559 -0.6963 -0.8626  0.4880
42314SOL     OW31397   3.611  11.032   1.039  0.2037  0.1232 -0.0597
42314SOL    HW131398   3.559  11.101   1.080  1.3570 -0.0846  1.8746
42314SOL    HW231399   3.701  11.055   1.059  0.6685 -1.2732 -0.4685
42315SOL     OW31400   3.750   3.209   9.270 -1.2859  0.2267 -0.5317
42315SOL    HW131401   3.691   3.135   9.283  1.0085 -2.0618 -2.2360
42315SOL    HW231402   3.752   3.223   9.176  0.1966  0.8264 -0.4419
42316SOL     OW31403   2.089   9.329   1.208  0.4296 -0.3218 -0.3386
42316SOL    HW131404   2.056   9.241   1.188  0.1535 -0.5030  0.8600
42316SOL    HW231405   2.175   9.332   1.165  1.1547 -1.7674  0.9306
42317SOL     OW31406   3.898   6.731   8.296  0.4091 -0.0215 -0.2412
42317SOL    HW131407   3.849   6.810   8.276  0.9680  0.0227 -1.5265
42317SOL    HW231408   3.978   6.737   8.243  1.2835 -0.6164  0.9645
42318SOL     OW31409   9.447   3.341  10.340  0.4117 -0.2406 -0.6290
42318SOL    HW131410   9.540   3.344  10.362  0.0309  2.1059  1.0440
42318SOL    HW231411   9.439   3.396  10.262  0.3724 -0.0512 -0.4921
42319SOL     OW31412   9.981   2.299   3.798 -0.3239  0.0014 -0.5348
42319SOL    HW131413   9.918   2.340   3.857  1.4567  0.0753  1.3871
42319SOL    HW231414  10.015   2.371   3.745 -0.4615  0.2699 -0.2578
42320SOL     OW31415   2.787   2.956   7.309 -0.2723 -0.6627  0.8830
42320SOL    HW131416   2.733   2.933   7.385 -0.8843 -0.6225  0.4712
42320SOL    HW231417   2.724   2.964   7.237 -0.2680  2.9170  1.0742
42321SOL     OW31418   8.295   5.733   6.993 -0.5032 -0.4554  0.3876
42321SOL    HW131419   8.233   5.806   7.006 -0.4093 -0.3446  0.2039
42321SOL    HW231420   8.261   5.664   7.050 -2.5238 -1.4825 -1.8934
42322SOL     OW31421   8.241   4.825   4.970  0.0981  0.5434  0.0692
42322SOL    HW131422   8.303   4.896   4.982  0.8309  0.0393 -0.6368
42322SOL    HW231423   8.294   4.751   4.940 -1.0360  0.6670 -2.5915
42323SOL     OW31424   8.510   1.501   9.081  0.1719  0.1767  0.3476
42323SOL    HW131425   8.492   1.455   8.999 -1.1105  0.7233  0.2972
42323SOL    HW231426   8.508   1.594   9.057 -0.8400  0.3602  1.1008
42324SOL     OW31427   6.657   3.020   4.879 -0.0548 -0.2250 -0.0900
42324SOL    HW131428   6.748   2.991   4.878 -0.4788 -1.6757  0.7153
42324SOL    HW231429   6.625   2.996   4.966 -1.6065 -1.0421 -0.8492
42325SOL     OW31430   2.344   1.653  10.975  0.0656  0.6455  0.6450
42325SOL    HW131431   2.330   1.566  11.014  0.1058  0.8453  1.1067
42325SOL    HW231432   2.290   1.652  10.896  1.4826 -0.4777 -0.3577
42326SOL     OW31433   6.366   3.719   4.830  0.0650 -0.1275 -0.2235
42326SOL    HW131434   6.349   3.805   4.792 -0.9821 -0.1810  0.0832
42326SOL    HW231435   6.412   3.670   4.762  2.6015  1.3295  0.3303
42327SOL     OW31436   7.528   0.911   8.305  0.2144  0.1404  0.3033
42327SOL    HW131437   7.602   0.852   8.309  0.6163  0.6598  0.7779
42327SOL    HW231438   7.512   0.936   8.397 -0.3611  0.2521  0.1801
42328SOL     OW31439   1.416   6.757   5.177 -0.3023  0.2349  0.1795
42328SOL    HW131440   1.349   6.690   5.159 -0.1418 -0.0457  0.6050
42328SOL    HW231441   1.367   6.838   5.188 -0.3969  0.5102 -1.8406
42329SOL     OW31442   8.606  10.849   6.668 -0.9141  0.2584 -0.1295
42329SOL    HW131443   8.630  10.777   6.726 -0.7373  1.3295  1.1676
42329SOL    HW231444   8.521  10.823   6.632 -1.0130 -0.4414  0.5750
42330SOL     OW31445   6.644   8.584   7.008  0.1906 -0.1951  0.4762
42330SOL    HW131446   6.703   8.608   6.937 -1.3207  0.2288 -0.6671
42330SOL    HW231447   6.642   8.488   7.006  1.3142 -0.2499  0.9609
42331SOL     OW31448   3.991   8.744   3.369  0.3572  0.1251  0.2871
42331SOL    HW131449   3.998   8.835   3.398  1.5215  0.7055 -1.6310
42331SOL    HW231450   3.978   8.750   3.274 -4.5301 -1.6234  0.5842
42332SOL     OW31451   9.071   3.631   0.920  0.0633 -0.8576 -0.3195
42332SOL    HW131452   8.992   3.681   0.900 -0.3466 -1.2736  0.2049
42332SOL    HW231453   9.039   3.542   0.938  0.8763 -1.6114 -2.3258
42333SOL     OW31454   3.728   1.770   1.543 -0.6957  0.1823 -0.1511
42333SOL    HW131455   3.750   1.692   1.492 -0.4819 -0.2528  0.5911
42333SOL    HW231456   3.660   1.742   1.604 -0.1985  0.4063  0.5295
42334SOL     OW31457   6.108  10.368   4.880 -0.0669 -0.2386 -0.5650
42334SOL    HW131458   6.165  10.324   4.816  0.7293  0.2913 -0.2364
42334SOL    HW231459   6.030  10.391   4.830 -0.3708 -1.7169 -0.8305
42335SOL     OW31460   1.331   7.834   5.707  0.0948  0.5383 -0.1913
42335SOL    HW131461   1.249   7.827   5.658 -0.9044 -1.1387  1.5761
42335SOL    HW231462   1.395   7.787   5.653 -0.6114  0.0877 -0.6481
42336SOL     OW31463   6.398   6.416   9.906  0.1195  0.4552 -0.2618
42336SOL    HW131464   6.434   6.435   9.993  0.9322 -0.8669 -0.2803
42336SOL    HW231465   6.421   6.324   9.891  0.3232  0.7695 -2.0298
42337SOL     OW31466   0.596   1.701   9.141  0.0495  0.2618  0.0144
42337SOL    HW131467   0.513   1.729   9.179 -0.0182  0.7059 -0.4368
42337SOL    HW231468   0.578   1.696   9.047  0.7653  1.2238 -0.1825
42338SOL     OW31469   0.348   2.491   3.706 -0.2363  0.2959 -0.1070
42338SOL    HW131470   0.335   2.489   3.801 -0.6519 -0.0156 -0.1670
42338SOL    HW231471   0.265   2.526   3.672 -0.3220 -0.1791 -0.3940
42339SOL     OW31472   6.075   5.052   6.845 -0.6620 -0.6992  0.3093
42339SOL    HW131473   6.028   5.012   6.918  0.0120 -5.1091 -1.3922
42339SOL    HW231474   6.010   5.059   6.776 -0.1224 -1.6798 -0.3215
42340SOL     OW31475   6.903   8.153   3.100 -0.6800  0.5144 -0.3964
42340SOL    HW131476   6.961   8.112   3.163 -0.1013  0.7396 -0.7736
42340SOL    HW231477   6.830   8.092   3.090 -0.2048 -0.0604 -0.3832
42341SOL     OW31478   9.165  10.728   9.742 -0.0321  0.0964  0.4673
42341SOL    HW131479   9.153  10.674   9.820  0.1133 -0.3022  0.2153
42341SOL    HW231480   9.081  10.773   9.731  0.3649  1.1661  1.6021
42342SOL     OW31481   4.025   9.906   1.453 -0.4144  0.8707  0.1987
42342SOL    HW131482   4.087   9.934   1.519 -0.5615 -1.6849  1.5090
42342SOL    HW231483   3.978   9.833   1.492 -2.0085  0.6265 -1.9501
42343SOL     OW31484   3.870   7.901   6.594 -0.5658 -0.2155 -0.0845
42343SOL    HW131485   3.919   7.825   6.562 -2.1171 -1.2987  0.0228
42343SOL    HW231486   3.793   7.906   6.537 -1.5104  0.0363  1.1856
42344SOL     OW31487   6.396   5.937   9.038  0.1440  0.0539 -0.3276
42344SOL    HW131488   6.389   6.010   9.099  1.3470 -0.0851  0.0149
42344SOL    HW231489   6.466   5.882   9.075  0.0086 -0.6925 -1.1546
42345SOL     OW31490   3.553   2.051   7.417  0.1579 -0.4898 -0.0921
42345SOL    HW131491   3.571   2.013   7.331 -0.9201 -0.2392 -0.4532
42345SOL    HW231492   3.458   2.068   7.415  0.0359 -0.9133  1.3207
42346SOL     OW31493  10.930  10.220   3.504  0.2586  0.5389 -0.6882
42346SOL    HW131494  10.967  10.133   3.519 -0.1802  0.4346 -0.1493
42346SOL    HW231495  10.993  10.264   3.447  0.7545  0.0570 -0.5185
42347SOL     OW31496   4.825  10.455   8.609  0.0122 -0.1564 -0.1583
42347SOL    HW131497   4.894  10.521   8.615  2.5651 -2.7536  1.6379
42347SOL    HW231498   4.850  10.401   8.534  0.5712 -1.6802  1.0753
42348SOL     OW31499   7.110   4.906   3.449 -0.2179 -0.3131 -0.4105
42348SOL    HW131500   7.103   4.871   3.537 -2.0784  0.4400 -0.2172
42348SOL    HW231501   7.073   4.837   3.393 -3.8270  1.0873 -0.0353
42349SOL     OW31502   1.076   0.650   6.608  0.1919  0.0790  0.1400
42349SOL    HW131503   1.000   0.702   6.581  0.3555  0.4631  0.4083
42349SOL    HW231504   1.099   0.685   6.694  1.3945  0.7771 -0.4327
42350SOL     OW31505   1.141   4.092  10.109  0.1517  0.0700 -0.4491
42350SOL    HW131506   1.174   4.182  10.100 -0.2201  0.3060  0.4341
42350SOL    HW231507   1.058   4.102  10.156 -0.4313 -0.6473 -1.2932
42351SOL     OW31508   2.124  11.007   2.560  0.0762 -0.4156 -0.0729
42351SOL    HW131509   2.101  10.941   2.625  0.0057  1.1312  1.5232
42351SOL    HW231510   2.117  10.961   2.476 -2.2346 -1.8139  0.8028
42352SOL     OW31511   6.159   9.042   1.497  0.0530 -0.2350  0.4906
42352SOL    HW131512   6.236   9.091   1.466 -1.2532  1.1577 -0.7075
42352SOL    HW231513   6.136   8.986   1.423 -0.8614  0.3404  0.3288
42353SOL     OW31514   8.669   3.451   0.433 -0.2165  0.3666 -0.5508
42353SOL    HW131515   8.702   3.402   0.359 -0.5819  1.8299 -1.7289
42353SOL    HW231516   8.736   3.517   0.451 -1.1288  1.4935 -1.1007
42354SOL     OW31517   4.029   5.341   4.858  0.3906  0.3067 -0.3177
42354SOL    HW131518   3.943   5.299   4.867 -0.9820  2.9365 -0.1058
42354SOL    HW231519   4.058   5.356   4.948 -0.1483  1.6353 -0.3393
42355SOL     OW31520   6.191   6.890   6.188  0.5539  0.4115  0.4433
42355SOL    HW131521   6.161   6.891   6.097 -3.0655 -0.0463  1.4699
42355SOL    HW231522   6.219   6.800   6.204  0.4516  0.2959 -0.0131
42356SOL     OW31523   3.822   0.040   1.637  0.2816 -0.1917  1.2630
42356SOL    HW131524   3.810   0.016   1.545  0.8990 -0.2257  1.1889
42356SOL    HW231525   3.759  -0.015   1.684  0.3661 -0.5975  0.9126
42357SOL     OW31526   7.102   0.568   5.165  0.7037  0.3097 -0.0877
42357SOL    HW131527   7.038   0.560   5.235  0.4750  0.1326 -0.3148
42357SOL    HW231528   7.172   0.508   5.188  1.4364  1.4873  0.8589
42358SOL     OW31529   6.188   1.372   5.118  0.3371 -0.5924 -0.0095
42358SOL    HW131530   6.193   1.335   5.030 -0.0885 -1.1207  0.1837
42358SOL    HW231531   6.101   1.349   5.149  0.4029 -0.2165  0.4689
42359SOL     OW31532   5.454   2.062   0.180 -0.1455  1.1330  0.4096
42359SOL    HW131533   5.515   1.994   0.152 -0.7080  1.1077 -0.8055
42359SOL    HW231534   5.495   2.144   0.153 -0.6369  1.1147 -0.4206
42360SOL     OW31535   8.572   4.057   2.210 -0.0746 -0.0813 -0.4179
42360SOL    HW131536   8.513   4.078   2.283  0.8863 -0.8700  0.6232
42360SOL    HW231537   8.520   4.001   2.152 -1.3618  1.7940 -1.1836
42361SOL     OW31538   0.109   7.516   0.927 -0.5367  0.1871 -0.0671
42361SOL    HW131539   0.174   7.448   0.912  1.2538  1.5959  0.8186
42361SOL    HW231540   0.155   7.598   0.910 -2.5912  1.2213 -1.0448
42362SOL     OW31541   4.964   8.081   3.348  0.3364 -0.0765 -0.0223
42362SOL    HW131542   4.937   8.022   3.419  2.2999 -1.0259  0.0147
42362SOL    HW231543   5.044   8.041   3.313 -0.2872  0.6405 -2.4500
42363SOL     OW31544   1.284   3.961   2.038 -0.4237  0.1193  0.3934
42363SOL    HW131545   1.224   3.977   2.110 -0.9591  1.2335 -0.2782
42363SOL    HW231546   1.351   4.029   2.046 -0.6916  0.4808 -0.3645
42364SOL     OW31547  10.857   6.716   6.356 -1.1451  0.0845 -0.1243
42364SOL    HW131548  10.811   6.793   6.388  0.3989  0.6504  0.8955
42364SOL    HW231549  10.933   6.709   6.414 -0.1611 -1.0026 -1.4823
42365SOL     OW31550   5.770   6.769  10.203 -0.2031 -0.0025 -0.6152
42365SOL    HW131551   5.864   6.788  10.197 -0.1686  0.5522  1.1130
42365SOL    HW231552   5.748   6.732  10.118  1.7529 -0.8809 -0.7957
42366SOL     OW31553   8.843  10.791   9.412 -0.4474  0.0311  0.2317
42366SOL    HW131554   8.838  10.805   9.318  0.2158 -3.1046 -0.3922
42366SOL    HW231555   8.757  10.756   9.436  0.5089 -2.8437 -0.0816
42367SOL     OW31556   3.356   3.159   8.748 -0.2135 -0.1514 -0.8077
42367SOL    HW131557   3.342   3.064   8.748  0.2565 -0.2353  0.0822
42367SOL    HW231558   3.451   3.169   8.752 -0.2021  0.3783 -2.1572
42368SOL     OW31559   5.029   7.721   6.213 -0.1875 -0.3375  0.2453
42368SOL    HW131560   5.092   7.741   6.144 -0.1163  0.5691  0.5522
42368SOL    HW231561   4.992   7.636   6.189 -0.9612  0.4540 -1.4885
42369SOL     OW31562   6.811   8.771   2.693  0.2780  0.6714  0.2984
42369SOL    HW131563   6.874   8.750   2.762 -1.4469 -2.1012  1.1787
42369SOL    HW231564   6.734   8.803   2.740 -0.6991 -0.6806 -0.3053
42370SOL     OW31565   8.138   0.769   6.501 -0.0131  0.8863  0.4400
42370SOL    HW131566   8.211   0.729   6.549 -0.2701  0.5504  0.5485
42370SOL    HW231567   8.063   0.714   6.520  0.5323 -1.5415 -3.2413
42371SOL     OW31568   1.038   0.661   3.437  0.0993 -0.0094  0.4315
42371SOL    HW131569   1.117   0.644   3.386  0.0741  0.1338  0.3460
42371SOL    HW231570   0.974   0.598   3.403  0.8969 -1.9325  2.2112
42372SOL     OW31571   9.748   8.399   2.589 -0.0831  0.2365  0.3122
42372SOL    HW131572   9.810   8.386   2.517 -1.4489 -0.5912 -0.7361
42372SOL    HW231573   9.799   8.448   2.655  1.0515  1.4357 -1.3823
42373SOL     OW31574   3.881   6.469   2.925 -0.3121  0.5184 -0.6548
42373SOL    HW131575   3.862   6.562   2.912 -1.8247  0.6456  1.9537
42373SOL    HW231576   3.974   6.461   2.903  0.6523  3.2808  1.7365
42374SOL     OW31577   6.820   1.132   7.814  0.0092 -0.6274  0.4988
42374SOL    HW131578   6.761   1.176   7.753 -0.6364 -1.7804  0.2487
42374SOL    HW231579   6.891   1.100   7.759  0.5272  0.1654  0.6948
42375SOL     OW31580   6.810   1.825   1.030  0.7427 -0.5604 -0.1816
42375SOL    HW131581   6.830   1.761   0.961 -0.2954 -0.4086 -0.6464
42375SOL    HW231582   6.855   1.792   1.107  0.3940 -1.7545 -0.4640
42376SOL     OW31583   5.493  10.011   5.947 -0.2725  0.3794 -0.4208
42376SOL    HW131584   5.580   9.990   5.982 -0.2109 -0.3584 -0.9816
42376SOL    HW231585   5.443   9.930   5.961 -0.5886  0.4827 -0.9466
42377SOL     OW31586   6.044   1.292   1.064  0.0395  0.7183 -0.0790
42377SOL    HW131587   6.015   1.379   1.090 -0.8162 -0.2362  2.5068
42377SOL    HW231588   6.066   1.248   1.147 -0.5273 -1.8489 -1.1766
42378SOL     OW31589  10.069   2.770   0.387  0.1684 -0.1102  0.7918
42378SOL    HW131590  10.047   2.845   0.332 -0.5937 -0.0706  1.1512
42378SOL    HW231591  10.088   2.699   0.325 -0.4990 -0.0116  0.4723
42379SOL     OW31592   5.258   3.745   7.444 -0.6926 -0.3315  0.1119
42379SOL    HW131593   5.341   3.793   7.453 -0.5055 -0.4271 -0.9583
42379SOL    HW231594   5.233   3.758   7.352 -1.6281 -0.6851  0.3133
42380SOL     OW31595   5.842   1.429   0.751 -0.4462  0.0756 -0.4020
42380SOL    HW131596   5.794   1.380   0.818 -1.6371  1.0635 -0.4900
42380SOL    HW231597   5.925   1.383   0.742 -0.1446  0.0625  1.9213
42381SOL     OW31598   6.971  10.743   0.410  0.0653 -0.5207  0.2090
42381SOL    HW131599   7.059  10.762   0.379 -0.0921  0.0955  0.1207
42381SOL    HW231600   6.980  10.734   0.505  0.0095  0.9443  0.3798
42382SOL     OW31601   0.339   2.028   8.041 -0.5318  0.2185  0.0612
42382SOL    HW131602   0.399   1.961   8.008  0.8506  2.2774 -1.8619
42382SOL    HW231603   0.284   2.051   7.966 -0.3111  1.9107  0.3797
42383SOL     OW31604  10.417   1.524   1.776 -0.4476  0.3735  0.5260
42383SOL    HW131605  10.329   1.511   1.739 -0.9665  0.7564  1.5785
42383SOL    HW231606  10.466   1.446   1.748 -0.9069  0.4909 -0.6569
42384SOL     OW31607   9.725   0.382   3.486  0.2353 -0.1320  0.6939
42384SOL    HW131608   9.689   0.308   3.536  0.9908 -0.3677  0.9008
42384SOL    HW231609   9.803   0.347   3.443  0.8476  0.6403  1.1322
42385SOL     OW31610   3.134   2.549   9.009 -0.1771  0.0767  0.6340
42385SOL    HW131611   3.172   2.462   9.022  0.0324  0.0372 -0.2326
42385SOL    HW231612   3.058   2.550   9.068  0.9492  0.0569  2.1649
42386SOL     OW31613   9.447   7.020   8.987  0.7008  0.2288 -0.2802
42386SOL    HW131614   9.517   7.023   8.922  2.6291 -0.5346  1.6181
42386SOL    HW231615   9.473   7.084   9.053 -1.0983  0.8604 -0.1399
42387SOL     OW31616   4.057   6.102   3.776 -0.1600 -0.3214 -0.1246
42387SOL    HW131617   3.998   6.166   3.738 -1.2463 -1.1065  0.2048
42387SOL    HW231618   4.126   6.155   3.817 -0.8672  0.6189 -0.1191
42388SOL     OW31619   5.882   1.156   1.702  0.3975 -0.2623  0.2060
42388SOL    HW131620   5.921   1.138   1.788  1.7828 -0.0527 -0.3510
42388SOL    HW231621   5.801   1.106   1.702 -0.0931  0.4519  1.9818
42389SOL     OW31622   9.954  10.862   4.778  0.4459 -0.2625 -0.2622
42389SOL    HW131623   9.990  10.933   4.725  2.3850 -0.5974  0.5569
42389SOL    HW231624   9.910  10.906   4.850  0.0611  0.1282 -0.7276
42390SOL     OW31625   4.914   1.826   2.187  0.2590 -0.0569  0.7742
42390SOL    HW131626   4.885   1.734   2.187  0.2653 -0.0634  0.1869
42390SOL    HW231627   5.006   1.822   2.210  0.9562 -0.4534 -1.7464
42391SOL     OW31628   7.266   5.921   3.477 -0.9728  0.2160 -0.5444
42391SOL    HW131629   7.180   5.964   3.478 -0.6797  0.8122 -0.5745
42391SOL    HW231630   7.312   5.960   3.403 -0.0987  1.0741  0.4154
42392SOL     OW31631   0.550   9.594   4.497 -0.0131 -0.1779 -0.2063
42392SOL    HW131632   0.533   9.530   4.428  0.6514  2.0236 -2.5881
42392SOL    HW231633   0.644   9.612   4.490  0.0560  0.1499  1.2826
42393SOL     OW31634   2.079   7.870   5.427 -0.2034 -0.1502  0.1258
42393SOL    HW131635   2.164   7.904   5.403 -1.1389  1.9302 -0.4351
42393SOL    HW231636   2.094   7.824   5.510  1.6326 -0.8468 -0.5437
42394SOL     OW31637   6.620   0.954   2.977  0.2008  0.2389 -0.0143
42394SOL    HW131638   6.620   0.943   3.072  2.8182 -0.1506  0.0350
42394SOL    HW231639   6.643   1.045   2.963 -2.2253  0.8617 -0.3461
42395SOL     OW31640   6.648   7.514   7.259  0.2975 -0.0227  0.4318
42395SOL    HW131641   6.740   7.540   7.250  0.0460  1.2270  1.0847
42395SOL    HW231642   6.649   7.448   7.328  0.6612  0.4299  0.8794
42396SOL     OW31643   5.368   5.206  10.012 -0.4266  0.1961  0.0574
42396SOL    HW131644   5.380   5.128  10.067 -1.3846  0.2084  0.2886
42396SOL    HW231645   5.291   5.187   9.959 -1.4644  1.4860  1.0270
42397SOL     OW31646   7.202   7.320   0.021 -0.5975  0.1071 -0.3390
42397SOL    HW131647   7.259   7.299  -0.053 -1.7869 -1.7449 -0.7783
42397SOL    HW231648   7.126   7.263   0.011 -1.1585  0.3549  1.8838
42398SOL     OW31649   3.673   1.472  10.995  0.0058 -0.7773 -0.4888
42398SOL    HW131650   3.756   1.430  10.974  0.4937 -0.2022  0.2757
42398SOL    HW231651   3.692   1.528  11.070 -0.8854 -0.0196 -0.8123
42399SOL     OW31652   0.626   6.244   2.499  0.7451 -0.0814  0.0660
42399SOL    HW131653   0.686   6.217   2.430 -2.1742 -2.6552 -1.7188
42399SOL    HW231654   0.682   6.256   2.576  3.7124 -0.4242 -1.8670
42400SOL     OW31655   8.216   4.073   6.855 -0.0810  0.0959 -0.2459
42400SOL    HW131656   8.156   4.118   6.915  0.2828  1.3109 -0.7627
42400SOL    HW231657   8.257   4.143   6.806 -0.3408 -0.8771 -1.9098
42401SOL     OW31658   8.773   6.142   1.686 -0.0402  0.3644 -0.2631
42401SOL    HW131659   8.691   6.100   1.660 -0.7159  0.5385  1.4412
42401SOL    HW231660   8.801   6.189   1.608 -1.8997  0.8297 -0.7176
42402SOL     OW31661   3.923   3.072   5.216 -0.1486  0.2769 -0.5183
42402SOL    HW131662   3.836   3.105   5.194  0.6248  0.7757 -3.1699
42402SOL    HW231663   3.953   3.128   5.288 -1.0203  1.7846 -1.2876
42403SOL     OW31664   2.436   7.874   3.525 -1.0097 -0.2061 -0.2188
42403SOL    HW131665   2.383   7.831   3.458 -1.9784 -1.2912  1.1736
42403SOL    HW231666   2.453   7.805   3.590  1.5523  0.2828 -0.2523
42404SOL     OW31667   8.586   8.879   1.491  0.9538 -0.5250 -0.5865
42404SOL    HW131668   8.537   8.856   1.570 -2.7683  1.1753 -2.1643
42404SOL    HW231669   8.643   8.804   1.476 -0.2751 -2.1596  2.1627
42405SOL     OW31670   6.484   2.151   2.172 -0.6905  0.0961 -0.2351
42405SOL    HW131671   6.562   2.173   2.223  0.6135 -0.7362 -1.7314
42405SOL    HW231672   6.433   2.094   2.229  0.1027  0.1799  0.5853
42406SOL     OW31673   4.891   2.550   5.110  0.0663  0.4364  0.6052
42406SOL    HW131674   4.866   2.460   5.090  0.4342  0.4712 -0.0582
42406SOL    HW231675   4.811   2.590   5.144  0.5324 -0.8242  3.4763
42407SOL     OW31676   8.107   1.180   0.493 -0.0457 -0.3487  0.0518
42407SOL    HW131677   8.081   1.205   0.404  1.7898 -0.7439 -0.6473
42407SOL    HW231678   8.187   1.129   0.481 -1.0192 -2.4772  1.7744
42408SOL     OW31679   2.155  10.977   2.257 -0.1298  0.1113 -0.1874
42408SOL    HW131680   2.176  11.062   2.218 -3.3839  0.9658 -0.3450
42408SOL    HW231681   2.065  10.960   2.230 -0.3942 -2.2500  1.8745
42409SOL     OW31682   7.044   3.180  10.106  0.7995  0.6738 -0.1852
42409SOL    HW131683   6.960   3.159  10.147  0.6925  0.5896 -0.4463
42409SOL    HW231684   7.098   3.103  10.119  0.3883  0.1961 -1.1948
42410SOL     OW31685   7.867   1.516  10.052 -0.2891 -0.2372  0.2768
42410SOL    HW131686   7.828   1.459   9.986 -0.7409  2.2821 -1.8123
42410SOL    HW231687   7.927   1.572  10.002 -0.0641  1.2642  2.1345
42411SOL     OW31688  10.604   0.879   5.648 -0.4108 -0.2017  0.0213
42411SOL    HW131689  10.692   0.917   5.646 -0.0716 -0.8806  1.1629
42411SOL    HW231690  10.545   0.953   5.631  0.3579  0.3034 -0.4992
42412SOL     OW31691   6.661   2.202  10.395 -0.0992  0.1903  0.6523
42412SOL    HW131692   6.650   2.205  10.300  0.8876  2.7402  0.5382
42412SOL    HW231693   6.705   2.119  10.411  0.7391  0.2004 -1.2682
42413SOL     OW31694   1.896   4.131   4.463  0.2426 -0.2105 -0.8587
42413SOL    HW131695   1.886   4.211   4.514  0.2380 -0.0757 -1.0726
42413SOL    HW231696   1.819   4.129   4.406 -1.2368 -1.7751  1.0752
42414SOL     OW31697   5.228   3.845   7.150 -0.0471 -0.7717 -0.7409
42414SOL    HW131698   5.195   3.930   7.120  1.0441 -0.6764 -1.7574
42414SOL    HW231699   5.158   3.783   7.128 -1.2615 -0.0379  0.8642
42415SOL     OW31700  10.886   9.610  10.761  0.5021 -0.1563  0.3421
42415SOL    HW131701  10.796   9.603  10.793 -0.0490 -1.8574 -1.3898
42415SOL    HW231702  10.917   9.520  10.755  2.7209  0.4292  1.7911
42416SOL     OW31703   0.728   3.575   2.838 -0.4080 -0.4525 -0.3032
42416SOL    HW131704   0.703   3.545   2.751 -0.3969 -0.9596 -0.1357
42416SOL    HW231705   0.700   3.666   2.841  1.6311  0.2746 -1.6408
42417SOL     OW31706   5.753   9.306   2.324 -0.1154 -0.4563  0.6683
42417SOL    HW131707   5.828   9.270   2.277 -0.8241  1.4074 -2.0777
42417SOL    HW231708   5.777   9.397   2.340 -1.3651 -0.1345  0.7635
42418SOL     OW31709   1.241   7.743   5.965  0.3009 -0.1101  0.2307
42418SOL    HW131710   1.291   7.749   5.883 -1.6289 -0.7766 -1.0736
42418SOL    HW231711   1.232   7.649   5.981 -0.4742 -0.0119  0.4402
42419SOL     OW31712   0.677  10.145   5.370 -0.2261 -0.0675  0.0168
42419SOL    HW131713   0.714  10.154   5.282 -0.0480  1.0039  0.1845
42419SOL    HW231714   0.753  10.140   5.428 -0.2250  3.0596  0.4543
42420SOL     OW31715   1.483   0.690   9.491 -0.6397 -0.2080 -0.1484
42420SOL    HW131716   1.403   0.639   9.480 -0.1275 -0.8736 -0.8686
42420SOL    HW231717   1.495   0.734   9.407  1.2976 -2.4002 -1.1341
42421SOL     OW31718   5.858   6.327   3.856 -0.2989 -0.4110 -0.0906
42421SOL    HW131719   5.887   6.275   3.782  1.3281  1.1291 -0.6068
42421SOL    HW231720   5.939   6.364   3.893 -1.0692 -0.8965  2.3040
42422SOL     OW31721   0.975   5.333   4.804 -0.2441  0.2560 -0.4108
42422SOL    HW131722   0.931   5.409   4.765  0.1495  1.5460  1.4947
42422SOL    HW231723   0.905   5.270   4.821 -0.8598  0.9386 -0.3697
42423SOL     OW31724   2.727   5.757   5.970  0.1775  0.1150 -0.0804
42423SOL    HW131725   2.819   5.748   5.995  0.5040  1.2624 -0.7553
42423SOL    HW231726   2.678   5.731   6.047  1.1090  1.2603  0.9440
42424SOL     OW31727   9.988   9.598   1.863 -0.0478 -0.3399 -0.2437
42424SOL    HW131728   9.899   9.601   1.829  0.2780 -0.9981 -1.2078
42424SOL    HW231729  10.031   9.674   1.825 -0.4244  0.4993  0.9517
42425SOL     OW31730   8.770   6.852   8.675 -0.3399  0.1030  0.9223
42425SOL    HW131731   8.761   6.920   8.608  1.3885 -0.4086  0.1143
42425SOL    HW231732   8.683   6.812   8.680 -0.9312  1.2531  0.1975
42426SOL     OW31733   6.055   2.164   2.392  0.3707  0.3916  0.3674
42426SOL    HW131734   6.072   2.182   2.485 -0.6137  0.8047  0.4775
42426SOL    HW231735   5.994   2.232   2.366 -1.0682 -1.0056 -0.0226
42427SOL     OW31736   4.189   2.818  11.050  0.0239 -0.1783  0.5912
42427SOL    HW131737   4.140   2.870  10.986 -0.7117 -0.6761  0.7331
42427SOL    HW231738   4.129   2.747  11.073  1.0068 -1.1048  0.3860
42428SOL     OW31739   0.178   2.226   0.680 -0.6016 -0.2821 -0.4014
42428SOL    HW131740   0.210   2.307   0.639 -0.5701 -0.3477 -0.5089
42428SOL    HW231741   0.173   2.246   0.773 -2.0221  0.3220 -0.5854
42429SOL     OW31742  10.237   0.194   5.220  0.4024  0.0283  0.1090
42429SOL    HW131743  10.318   0.143   5.218 -1.4345 -3.1748 -1.0955
42429SOL    HW231744  10.215   0.201   5.313  0.9730 -1.0296  0.3353
42430SOL     OW31745   0.231   7.313   2.001 -0.4755 -0.3627 -0.8383
42430SOL    HW131746   0.265   7.257   2.071  4.0719  2.1045 -0.7206
42430SOL    HW231747   0.169   7.371   2.045 -0.0025 -0.8117  0.4743
42431SOL     OW31748   0.293   5.770   7.636 -0.2603 -0.1695  0.5716
42431SOL    HW131749   0.228   5.790   7.569  0.9740  0.7056 -0.3919
42431SOL    HW231750   0.287   5.843   7.698 -0.0790 -0.0086  0.3981
42432SOL     OW31751   1.804   6.391   4.479 -0.5353 -0.2966  0.2168
42432SOL    HW131752   1.821   6.447   4.555 -0.1158  0.3543 -0.3417
42432SOL    HW231753   1.766   6.311   4.516 -0.7305  0.1778  1.0678
42433SOL     OW31754   3.210   0.866  10.044  0.0146 -0.2284  0.0679
42433SOL    HW131755   3.274   0.937  10.053 -0.7861  0.4699  0.4797
42433SOL    HW231756   3.250   0.805   9.983  1.4206 -0.2136  0.9198
42434SOL     OW31757   8.425   8.022   8.401  0.3192  0.1064 -0.0980
42434SOL    HW131758   8.502   7.987   8.446  0.2680  0.4072  0.2258
42434SOL    HW231759   8.414   7.966   8.324  0.5441 -0.2687  0.1446
42435SOL     OW31760   9.277   1.176   1.700 -0.0039 -0.0397 -0.3330
42435SOL    HW131761   9.308   1.122   1.773 -0.2036  0.4820  0.1464
42435SOL    HW231762   9.343   1.163   1.632  0.8605  0.4126  0.3774
42436SOL     OW31763   0.184   3.099   3.387 -0.0299  0.1833 -0.3305
42436SOL    HW131764   0.231   3.148   3.454  0.8522 -0.4241 -0.4962
42436SOL    HW231765   0.245   3.031   3.359 -0.8786 -0.4058 -0.7973
42437SOL     OW31766   0.061   5.088   1.754 -0.4642 -0.7211 -0.0509
42437SOL    HW131767   0.067   5.182   1.735 -0.4126 -0.8193 -0.5296
42437SOL    HW231768   0.044   5.047   1.669  1.0863 -1.2985 -0.1120
42438SOL     OW31769   8.819   4.138   3.667  0.2361  0.5687 -0.2498
42438SOL    HW131770   8.848   4.167   3.753 -0.2684  1.3662 -0.3352
42438SOL    HW231771   8.729   4.171   3.660 -0.0292 -0.2405 -0.7274
42439SOL     OW31772   5.536   0.779   2.666 -0.2045  0.7392  0.4501
42439SOL    HW131773   5.461   0.833   2.687 -1.8716 -1.1122 -0.3499
42439SOL    HW231774   5.514   0.692   2.701  2.0660  0.3893  1.1664
42440SOL     OW31775  10.183   3.476   1.869  0.5710 -0.0387  0.6057
42440SOL    HW131776  10.161   3.396   1.916 -0.7307 -0.7504 -1.1213
42440SOL    HW231777  10.251   3.451   1.807  1.2027  0.5427  1.0467
42441SOL     OW31778   2.245   4.418   0.983 -0.1227  0.0832  0.3925
42441SOL    HW131779   2.330   4.461   0.983 -0.0964  0.0824 -1.0339
42441SOL    HW231780   2.182   4.489   0.995  0.0626  0.0662  1.5986
42442SOL     OW31781   2.450   5.580   1.264 -0.1979  0.2403  0.2952
42442SOL    HW131782   2.384   5.511   1.267  0.0617  0.0038  1.0475
42442SOL    HW231783   2.435   5.630   1.344 -0.2893  0.9768 -0.1727
42443SOL     OW31784   0.518   8.864   5.873 -0.3528 -1.0388 -0.1329
42443SOL    HW131785   0.533   8.770   5.864  1.1032 -0.8407 -0.0261
42443SOL    HW231786   0.606   8.902   5.877 -0.8888  0.1598  1.6248
42444SOL     OW31787   2.867   5.944   5.030 -0.3733 -0.8459 -0.2934
42444SOL    HW131788   2.878   5.867   4.974 -0.4837 -0.4720 -0.8346
42444SOL    HW231789   2.953   5.957   5.070 -0.1333 -0.7835 -0.8159
42445SOL     OW31790   3.038   4.530   5.261 -0.6466 -0.2254  0.1959
42445SOL    HW131791   2.947   4.558   5.256 -1.0460 -0.4253  3.7132
42445SOL    HW231792   3.079   4.594   5.319  0.0023 -3.0357  3.1201
42446SOL     OW31793  10.678   8.456   4.930 -0.2106  0.0989  0.2557
42446SOL    HW131794  10.661   8.460   4.836  2.3683  0.0956 -0.2591
42446SOL    HW231795  10.596   8.422   4.967 -0.5954 -1.9873 -2.2065
42447SOL     OW31796  10.326   5.277   2.354  0.2526 -0.2544 -0.0562
42447SOL    HW131797  10.302   5.195   2.396  0.3361 -0.7961 -1.0531
42447SOL    HW231798  10.249   5.333   2.364 -0.4044 -1.0137 -0.7729
42448SOL     OW31799   7.822   8.192   6.822 -0.0637 -0.1835 -0.6253
42448SOL    HW131800   7.809   8.241   6.903 -2.6225 -1.8252  0.1123
42448SOL    HW231801   7.881   8.121   6.847 -1.9811 -1.5543  0.3415
42449SOL     OW31802   2.292   1.068   9.219  0.3302 -0.7073 -0.2901
42449SOL    HW131803   2.294   1.160   9.193 -3.4526  0.2161  1.9497
42449SOL    HW231804   2.207   1.036   9.187 -0.0685 -2.2978  2.1025
42450SOL     OW31805   5.749   2.358   8.084  0.4921  0.0691 -0.2477
42450SOL    HW131806   5.785   2.446   8.076 -0.5779  0.8271  2.1531
42450SOL    HW231807   5.813   2.312   8.139  1.6886 -1.1398 -2.5013
42451SOL     OW31808   5.647   2.500  10.211  0.0910 -0.2482 -0.2253
42451SOL    HW131809   5.560   2.531  10.185 -0.5838  0.0111  2.0912
42451SOL    HW231810   5.688   2.472  10.130 -1.1229  2.1483 -1.7862
42452SOL     OW31811   4.347   4.322   7.000 -0.2219 -0.1739  0.0222
42452SOL    HW131812   4.363   4.281   7.085  0.3055 -1.8920 -0.8507
42452SOL    HW231813   4.434   4.344   6.967 -0.4320  0.6334 -0.0078
42453SOL     OW31814   0.470   8.034   3.176 -0.6338 -0.3453 -0.5077
42453SOL    HW131815   0.415   7.972   3.128 -3.3398  2.4805 -1.3538
42453SOL    HW231816   0.485   8.105   3.114  0.9308  0.6508  0.9462
42454SOL     OW31817   6.598   5.864   7.295  0.0667  0.5190 -0.6459
42454SOL    HW131818   6.687   5.866   7.260  0.5324 -0.6922  0.3950
42454SOL    HW231819   6.601   5.922   7.371  0.4485 -0.7612  0.3649
42455SOL     OW31820   2.727   0.882   0.113 -0.1620 -0.0354 -0.1494
42455SOL    HW131821   2.655   0.939   0.141 -1.0996 -0.0316 -2.3484
42455SOL    HW231822   2.689   0.829   0.043  2.5315  1.6020 -3.0769
42456SOL     OW31823   5.582   1.979   8.569  0.0042  0.4381  0.0134
42456SOL    HW131824   5.597   2.019   8.654 -0.8477  0.1335  0.3248
42456SOL    HW231825   5.613   1.889   8.578 -0.0553  0.4152 -0.0048
42457SOL     OW31826   5.781   8.741  10.437 -0.3264 -0.0350  0.0282
42457SOL    HW131827   5.859   8.701  10.474 -0.3670  0.4966  0.6892
42457SOL    HW231828   5.727   8.765  10.512 -0.7553  0.3532 -0.3905
42458SOL     OW31829   9.542   2.163   6.942 -0.1939 -0.3641  0.4566
42458SOL    HW131830   9.541   2.068   6.940 -3.0255 -0.4085 -0.7461
42458SOL    HW231831   9.454   2.187   6.972 -0.5099  1.8198 -1.8608
42459SOL     OW31832   9.223   1.131   1.380 -0.2098  0.6794  0.0219
42459SOL    HW131833   9.244   1.224   1.388  1.1737  0.3449  0.4904
42459SOL    HW231834   9.296   1.093   1.332 -0.5440 -0.2514  0.2189
42460SOL     OW31835   9.134   2.338   1.246  0.1364  0.3723 -0.0764
42460SOL    HW131836   9.150   2.248   1.217 -0.8482 -0.1837  1.0433
42460SOL    HW231837   9.104   2.383   1.167  0.7748 -0.2350 -0.6807
42461SOL     OW31838   3.080   6.710   7.605  0.0740 -0.4314 -0.6001
42461SOL    HW131839   3.103   6.682   7.516  0.6454 -0.0583 -0.5746
42461SOL    HW231840   3.101   6.635   7.660 -1.3441 -1.0729 -0.9145
42462SOL     OW31841   7.026   1.337   2.893 -0.0436  0.1843 -0.0477
42462SOL    HW131842   6.951   1.359   2.838  1.1347 -0.1976 -1.8795
42462SOL    HW231843   7.068   1.422   2.910 -0.0253  0.2267 -0.3037
42463SOL     OW31844   7.909   8.365   1.698 -0.3051  0.2517  0.8963
42463SOL    HW131845   7.923   8.454   1.665  0.1744  0.3051  1.2335
42463SOL    HW231846   7.991   8.320   1.678 -0.6585 -0.1975  0.4563
42464SOL     OW31847   3.454   4.570   1.518 -0.9205  0.5231  0.3260
42464SOL    HW131848   3.388   4.506   1.543 -1.0027  0.8623  0.9908
42464SOL    HW231849   3.489   4.603   1.601  0.6110 -0.1840 -0.0033
42465SOL     OW31850   8.423   8.560   3.026  0.3247  0.1628  0.1376
42465SOL    HW131851   8.518   8.549   3.028  0.4552  0.8538 -0.9329
42465SOL    HW231852   8.387   8.471   3.025  0.9941 -0.1082 -0.1320
42466SOL     OW31853   4.734   1.963   0.637 -0.1893 -0.2370  0.1221
42466SOL    HW131854   4.813   1.968   0.692 -0.6798  0.3920  0.7839
42466SOL    HW231855   4.768   1.942   0.549  0.7674  0.4955  0.2904
42467SOL     OW31856   5.869   4.618   4.814 -0.0625  0.2823  0.1289
42467SOL    HW131857   5.779   4.603   4.784  0.1746 -1.4989  0.2191
42467SOL    HW231858   5.863   4.618   4.909 -0.1008  1.2366  0.1406
42468SOL     OW31859   7.115   6.472   6.239  0.7862  0.5438 -0.1098
42468SOL    HW131860   7.071   6.514   6.313 -0.6489  0.1774 -0.7280
42468SOL    HW231861   7.202   6.449   6.273  0.6582  1.6359  1.0195
42469SOL     OW31862   4.872   4.301  10.250  0.0248  0.2401  0.4233
42469SOL    HW131863   4.838   4.259  10.329 -2.5212  1.1755 -0.0466
42469SOL    HW231864   4.870   4.233  10.184 -0.7762  0.1886  0.4828
42470SOL     OW31865  10.415   7.609   4.658 -0.4729  0.5385  0.4034
42470SOL    HW131866  10.452   7.545   4.597 -0.0595 -0.7468  1.9547
42470SOL    HW231867  10.360   7.665   4.603 -0.7103 -1.0394 -1.0351
42471SOL     OW31868   2.152   9.528   0.123  0.3487  0.1995 -0.5023
42471SOL    HW131869   2.136   9.454   0.181 -3.0088  0.8509 -0.3431
42471SOL    HW231870   2.202   9.492   0.050  0.4393 -1.7587  0.4586
42472SOL     OW31871   8.118   9.428   8.258 -0.0412 -0.1466 -0.7465
42472SOL    HW131872   8.047   9.417   8.321 -0.2429 -0.8879 -1.0982
42472SOL    HW231873   8.162   9.508   8.287  0.8631 -1.2967  1.3083
42473SOL     OW31874   9.939   9.418   4.142  0.1112 -0.3653  0.3427
42473SOL    HW131875   9.868   9.482   4.134  0.2454 -0.1106  1.0405
42473SOL    HW231876   9.940   9.371   4.059 -1.1199 -0.6244  0.4602
42474SOL     OW31877   8.040   0.037   3.870  0.5549 -0.4622  0.0994
42474SOL    HW131878   7.976  -0.016   3.918  0.0434 -1.0892 -1.2202
42474SOL    HW231879   8.001   0.049   3.784  1.3469  0.8214 -0.1030
42475SOL     OW31880   0.243   0.444   8.675  0.2458 -0.4559  0.1410
42475SOL    HW131881   0.301   0.432   8.600 -0.5565 -0.2342 -0.5241
42475SOL    HW231882   0.187   0.366   8.676  0.1844 -0.4110  0.4510
42476SOL     OW31883   6.076   6.973   0.610 -0.1217  0.1887  0.0392
42476SOL    HW131884   6.070   7.019   0.694 -0.9442  1.1576 -0.5269
42476SOL    HW231885   6.095   6.882   0.633 -0.6552  0.3800  1.2898
42477SOL     OW31886   3.645   6.316   8.891 -0.5979 -0.0657  0.1253
42477SOL    HW131887   3.692   6.375   8.831 -3.2667  0.9247 -1.1530
42477SOL    HW231888   3.703   6.241   8.901  1.3741  1.2154 -1.0667
42478SOL     OW31889   7.003   9.817   7.577  0.0066 -0.3036  0.2810
42478SOL    HW131890   7.049   9.901   7.579 -0.7527  0.1443  2.6954
42478SOL    HW231891   6.916   9.839   7.541 -0.6024  0.2360  1.9933
42479SOL     OW31892   7.108   2.934  10.189  0.1938  0.1042  0.2522
42479SOL    HW131893   7.100   2.909  10.281  0.5480  0.2557  0.3251
42479SOL    HW231894   7.080   2.856  10.140  0.2773 -0.0721  0.4867
42480SOL     OW31895   4.199   9.532   2.048 -0.1641 -0.2484 -0.5013
42480SOL    HW131896   4.268   9.575   2.099  0.0075 -0.4117 -0.5953
42480SOL    HW231897   4.245   9.465   1.998 -0.6555 -1.7156  0.9332
42481SOL     OW31898  10.689   5.812   3.747 -0.1895 -0.6806 -0.1205
42481SOL    HW131899  10.692   5.825   3.652 -0.5895 -0.8926 -0.1676
42481SOL    HW231900  10.614   5.754   3.760 -0.1173 -0.6751  0.3231
42482SOL     OW31901   7.771   0.412   9.115 -0.5872  0.2405 -0.2888
42482SOL    HW131902   7.856   0.405   9.073 -1.3026 -0.8227 -1.6310
42482SOL    HW231903   7.787   0.389   9.207  0.7248  1.0324 -0.3050
42483SOL     OW31904   0.284  10.639   4.780 -0.3010 -0.8394 -0.3232
42483SOL    HW131905   0.231  10.569   4.817 -1.2199 -0.5013 -0.9253
42483SOL    HW231906   0.295  10.702   4.851 -1.9498 -0.2464 -0.5328
42484SOL     OW31907  10.955   3.287   3.869 -0.5456  0.5475  0.4193
42484SOL    HW131908  10.978   3.230   3.795  0.3094  0.2584  0.8936
42484SOL    HW231909  11.008   3.366   3.855 -2.6282  1.8213 -0.9173
42485SOL     OW31910   1.847   3.745   6.153 -0.4145  0.1508 -0.0910
42485SOL    HW131911   1.766   3.705   6.183 -0.0199 -0.2111  0.5089
42485SOL    HW231912   1.916   3.698   6.199  0.2176 -0.3705 -1.5091
42486SOL     OW31913   6.099   9.956   2.514  0.1525 -0.5487  0.1948
42486SOL    HW131914   6.080   9.870   2.551 -2.7991 -0.0262  0.1014
42486SOL    HW231915   6.124  10.010   2.589 -1.5600 -0.5928  0.8290
42487SOL     OW31916   5.333   7.732   6.637 -0.1335  0.0554  0.1901
42487SOL    HW131917   5.382   7.729   6.554 -0.1827 -2.0368  0.1890
42487SOL    HW231918   5.400   7.728   6.705 -0.1328  1.1688  0.2890
42488SOL     OW31919   1.740   1.461   8.817  0.0579 -0.4307  0.0753
42488SOL    HW131920   1.788   1.393   8.769  0.2703  0.2619 -0.7187
42488SOL    HW231921   1.744   1.433   8.909  1.7950 -0.5277  0.0187
42489SOL     OW31922   3.398   1.488   5.112  0.2808  0.0093  0.0472
42489SOL    HW131923   3.344   1.449   5.043 -1.3560 -0.7071  1.6647
42489SOL    HW231924   3.378   1.581   5.108 -2.0252 -0.3641  1.3293
42490SOL     OW31925   5.667   8.572   9.676  0.1137 -0.7213 -0.0344
42490SOL    HW131926   5.616   8.652   9.662  0.5209 -0.6242 -1.0789
42490SOL    HW231927   5.738   8.578   9.612  0.8899 -1.3108  0.7433
42491SOL     OW31928   4.610   4.943   7.912 -0.3751 -0.2915  0.4679
42491SOL    HW131929   4.664   4.954   7.834 -0.3027  0.5741  0.6326
42491SOL    HW231930   4.597   5.032   7.945  0.1063 -0.6845  1.7914
42492SOL     OW31931   3.844   5.075   4.607  0.4314  0.1494  0.7099
42492SOL    HW131932   3.862   5.006   4.543  1.1269  0.2512  0.7987
42492SOL    HW231933   3.897   5.149   4.579 -1.6239  1.3010 -0.4432
42493SOL     OW31934   8.915   1.289  10.652  0.1353  0.5796 -0.0828
42493SOL    HW131935   8.971   1.229  10.702 -0.8247 -1.2004 -1.0422
42493SOL    HW231936   8.826   1.258  10.669 -0.4816  2.4111  0.2001
42494SOL     OW31937   5.069   3.350   8.650  0.1383 -0.0123  0.2978
42494SOL    HW131938   4.993   3.333   8.594 -0.8851  3.0103  0.6133
42494SOL    HW231939   5.077   3.272   8.705 -1.7779 -1.0317 -0.7911
42495SOL     OW31940  10.325   1.069   8.229  0.4372 -0.5992  0.4787
42495SOL    HW131941  10.355   1.093   8.317  1.1759 -1.4996  0.4830
42495SOL    HW231942  10.230   1.082   8.232  0.7808  3.7942  0.0245
42496SOL     OW31943   8.852   2.785  10.058 -0.4871  0.4022 -0.2466
42496SOL    HW131944   8.917   2.842  10.097 -0.7506  0.0454  0.7394
42496SOL    HW231945   8.901   2.735   9.992  0.6226 -0.9529  1.5067
42497SOL     OW31946   2.165   7.883   5.985 -0.3469  0.0578 -0.1294
42497SOL    HW131947   2.159   7.788   5.978 -1.1305 -0.0516  1.6267
42497SOL    HW231948   2.079   7.915   5.957  0.6852  0.4917 -3.2075
42498SOL     OW31949   5.142   5.676   5.730 -0.1367  0.4366  0.7460
42498SOL    HW131950   5.131   5.732   5.654 -0.3390 -0.1603  0.3244
42498SOL    HW231951   5.155   5.736   5.803  0.8469  0.9981  0.1189
42499SOL     OW31952   2.068   6.119   4.103  0.0495  0.0143  0.2304
42499SOL    HW131953   1.975   6.099   4.095  0.0418 -0.3277  1.1591
42499SOL    HW231954   2.076   6.167   4.185  0.6655  0.2360  0.0488
42500SOL     OW31955   8.676  10.610   6.110  0.1049  0.1831  0.0699
42500SOL    HW131956   8.762  10.590   6.072  0.8005  0.7948  1.2580
42500SOL    HW231957   8.629  10.653   6.039  0.8646  0.0560 -0.5331
42501SOL     OW31958   2.520   4.266   2.870 -0.4645 -0.1141  0.3444
42501SOL    HW131959   2.544   4.230   2.785  0.3759  0.2248  0.4293
42501SOL    HW231960   2.495   4.189   2.922  1.3820 -0.6341  0.5461
42502SOL     OW31961  10.683   2.783   1.527 -0.0895  0.2410  0.1716
42502SOL    HW131962  10.682   2.711   1.464  0.8640  1.8251 -1.7747
42502SOL    HW231963  10.710   2.743   1.609  0.6525 -1.5843 -0.9181
42503SOL     OW31964   4.298   1.005   3.064  0.4200 -0.3826  0.3908
42503SOL    HW131965   4.220   0.951   3.078  0.9606 -1.6165 -1.0472
42503SOL    HW231966   4.263   1.088   3.032 -0.3116 -1.2049 -1.0688
42504SOL     OW31967   3.171   2.726   1.879 -0.1036 -0.4314  0.2025
42504SOL    HW131968   3.134   2.648   1.837 -2.8024  0.6505  0.3656
42504SOL    HW231969   3.216   2.692   1.957 -0.4925 -1.9109 -0.1851
42505SOL     OW31970   2.135  10.174   2.857 -0.7653  0.0998 -0.0277
42505SOL    HW131971   2.202  10.116   2.892 -1.0592  0.5118  1.2781
42505SOL    HW231972   2.147  10.256   2.904  0.1270  1.3895 -2.3792
42506SOL     OW31973   3.960   6.543   6.837 -0.3914 -0.1829 -0.7258
42506SOL    HW131974   3.966   6.448   6.831 -0.5533 -0.4024  1.5841
42506SOL    HW231975   3.878   6.565   6.794 -1.5104 -1.3700  0.6985
42507SOL     OW31976   5.834  10.289   2.178 -0.1421 -0.5609  0.1381
42507SOL    HW131977   5.916  10.240   2.190 -0.4002 -1.2156 -0.7163
42507SOL    HW231978   5.768  10.238   2.224  0.0916  0.5198  1.7513
42508SOL     OW31979   8.927   0.512   3.401 -0.1025  0.1302 -0.0739
42508SOL    HW131980   8.969   0.530   3.485 -0.5962 -0.9006  0.4192
42508SOL    HW231981   8.992   0.461   3.352  0.5731  1.5878 -0.7302
42509SOL     OW31982   7.886   1.790   4.786 -0.8143 -0.1800  0.1829
42509SOL    HW131983   7.871   1.733   4.710 -0.6657  0.5789 -0.4252
42509SOL    HW231984   7.931   1.733   4.849 -1.2784 -0.9246 -0.1352
42510SOL     OW31985   7.973   3.174   0.738 -0.5257 -0.0869 -0.0405
42510SOL    HW131986   8.050   3.229   0.750 -0.2125 -0.4475 -0.3806
42510SOL    HW231987   7.980   3.107   0.805  1.0301 -1.8821 -1.8489
42511SOL     OW31988   6.329   4.867   5.531 -0.1377  0.2052 -0.1436
42511SOL    HW131989   6.267   4.911   5.588 -0.7406 -0.7307 -0.0685
42511SOL    HW231990   6.315   4.907   5.445 -1.1924 -0.3189 -0.2332
42512SOL     OW31991   0.592   4.534   9.800  0.4736 -0.2896  0.4073
42512SOL    HW131992   0.548   4.560   9.719 -1.6888  0.4963  1.7325
42512SOL    HW231993   0.665   4.595   9.808 -0.1289  0.5552 -0.2865
42513SOL     OW31994   7.728   0.926   5.554 -0.3779  0.4859 -0.6023
42513SOL    HW131995   7.663   0.911   5.486 -1.9614  1.0543  0.7349
42513SOL    HW231996   7.768   1.010   5.531  0.5667 -0.2888 -1.9200
42514SOL     OW31997   9.798   0.331   7.935 -0.2488  0.1535 -0.3353
42514SOL    HW131998   9.786   0.321   8.029  0.9226  0.4089 -0.1467
42514SOL    HW231999   9.717   0.298   7.897 -1.0480  0.7635  0.7901
42515SOL     OW32000   6.395   9.631  10.524  0.1731  0.1175  0.5112
42515SOL    HW132001   6.331   9.560  10.533  0.4796 -0.2317 -0.0494
42515SOL    HW232002   6.403   9.645  10.430  1.6747 -0.5445  0.5152
42516SOL     OW32003  10.159   9.633  10.005  0.3514  0.7569  0.9530
42516SOL    HW132004  10.254   9.631   9.997  0.3223  2.4577 -0.4322
42516SOL    HW232005  10.130   9.694   9.937 -1.8923 -1.1272  0.0588
42517SOL     OW32006   0.251   1.913   3.006 -0.3901  0.4960  0.0628
42517SOL    HW132007   0.195   1.851   3.053 -0.5228  1.1819  0.8467
42517SOL    HW232008   0.273   1.979   3.072  0.9269  0.5122 -0.3782
42518SOL     OW32009   9.594   5.817   7.492  0.1897 -0.3738 -0.1879
42518SOL    HW132010   9.526   5.772   7.542 -1.1590  0.5188 -1.1539
42518SOL    HW232011   9.547   5.865   7.424  1.3719  3.1268  1.1947
42519SOL     OW32012  10.961   1.188   8.853  0.4052  0.2646 -0.1004
42519SOL    HW132013  11.042   1.236   8.868  1.0625 -1.5144  2.6861
42519SOL    HW232014  10.896   1.234   8.906  0.3507 -0.2148  0.2498
42520SOL     OW32015   0.034   3.871   2.590 -0.2519 -0.2218  0.4187
42520SOL    HW132016   0.083   3.797   2.626  2.7219  1.3646  0.0417
42520SOL    HW232017   0.054   3.869   2.496 -0.4137  0.8120  0.3517
42521SOL     OW32018   4.733   4.900   6.762 -0.2265  0.1123  0.4541
42521SOL    HW132019   4.750   4.955   6.686 -0.5773 -1.8806 -1.1435
42521SOL    HW232020   4.815   4.853   6.776 -0.3056  0.1460  1.0561
42522SOL     OW32021   1.490   8.174  10.460  0.6992  0.1540  0.4011
42522SOL    HW132022   1.493   8.269  10.470 -1.8967  0.4277 -0.5369
42522SOL    HW232023   1.398   8.155  10.441  1.1430 -2.5644  0.5485
42523SOL     OW32024   5.092   6.650   5.418 -0.0797  0.1806  0.2474
42523SOL    HW132025   5.123   6.572   5.465  0.8138  0.2617 -0.1811
42523SOL    HW232026   5.161   6.715   5.432 -0.2611  0.5174 -0.3706
42524SOL     OW32027   0.764   5.794   7.018 -0.2858  0.1307  0.0066
42524SOL    HW132028   0.799   5.721   7.069  1.0251  0.5852 -0.2099
42524SOL    HW232029   0.785   5.772   6.927 -0.9434  0.2249 -0.1771
42525SOL     OW32030   5.329   0.209   9.162  0.1430  0.3563 -0.2865
42525SOL    HW132031   5.346   0.249   9.248 -3.1350 -1.7009  1.5389
42525SOL    HW232032   5.416   0.184   9.130  1.5346  1.5107  2.2764
42526SOL     OW32033   2.943   9.360   6.599 -0.4066  0.3691  0.3185
42526SOL    HW132034   2.885   9.377   6.525  0.7136 -0.8402 -0.8923
42526SOL    HW232035   3.030   9.386   6.569  0.1281 -0.4723  1.0639
42527SOL     OW32036   2.141   4.737   2.695  0.3723 -0.2226 -0.0543
42527SOL    HW132037   2.054   4.701   2.710  0.9505 -2.3344 -1.3687
42527SOL    HW232038   2.201   4.667   2.720  1.7377  1.1637  0.7672
42528SOL     OW32039   0.976   3.123   3.054  0.1061  0.1458  0.2430
42528SOL    HW132040   0.925   3.161   3.125 -0.2945  0.5156 -0.2346
42528SOL    HW232041   0.935   3.157   2.974 -0.5897 -1.6730 -0.2216
42529SOL     OW32042   9.152   9.545   1.045 -0.4489  0.0653  0.5669
42529SOL    HW132043   9.148   9.628   0.997  0.3608 -0.3760 -0.3149
42529SOL    HW232044   9.062   9.530   1.074 -0.7469  0.9046  0.1277
42530SOL     OW32045   5.428   1.751  10.097  0.7556  0.3463  0.0677
42530SOL    HW132046   5.379   1.694  10.156  0.4707 -0.5560 -1.0161
42530SOL    HW232047   5.362   1.810  10.061  0.2423 -1.3802 -2.0003
42531SOL     OW32048   4.172   5.523   1.732 -0.1970  0.0695 -0.1369
42531SOL    HW132049   4.258   5.567   1.733  0.8164 -1.7535 -1.4063
42531SOL    HW232050   4.146   5.524   1.640 -1.3653  0.2173  0.1809
42532SOL     OW32051   5.592   5.765   5.401  0.5039 -0.3277 -0.1322
42532SOL    HW132052   5.678   5.760   5.361  1.4643  2.0259  1.4432
42532SOL    HW232053   5.565   5.857   5.391 -1.1580 -0.6682  0.6991
42533SOL     OW32054   4.980  10.607   2.546 -0.5726  1.1779 -0.3487
42533SOL    HW132055   4.931  10.683   2.576  0.7420  1.4928  1.0786
42533SOL    HW232056   4.919  10.534   2.554 -0.7891  1.5298  1.5851
42534SOL     OW32057   5.599   9.230   4.861 -0.3548  0.3489  0.5584
42534SOL    HW132058   5.506   9.252   4.855 -0.7112 -0.5705  2.1474
42534SOL    HW232059   5.644   9.310   4.833 -1.5968  0.4854 -1.2083
42535SOL     OW32060   4.671   5.834   5.760 -0.8511  0.3548 -0.1810
42535SOL    HW132061   4.709   5.786   5.686  0.9847 -0.5016  1.2286
42535SOL    HW232062   4.743   5.889   5.791 -2.0613  1.8833  0.0414
42536SOL     OW32063   5.778  10.203   4.955  0.1705 -0.4707  0.1684
42536SOL    HW132064   5.799  10.271   4.891 -1.6111  0.7427  0.8010
42536SOL    HW232065   5.703  10.238   5.004  1.0588 -1.6392  2.4961
42537SOL     OW32066   6.646   0.188   3.771  0.0716 -0.2648  0.4308
42537SOL    HW132067   6.584   0.216   3.703  0.2593 -0.3402  0.2265
42537SOL    HW232068   6.678   0.103   3.740  0.2345 -0.2519  0.5621
42538SOL     OW32069   5.959   4.005   4.245 -0.0350 -0.6693  0.2431
42538SOL    HW132070   5.903   4.062   4.298 -0.0952  1.1758 -1.7007
42538SOL    HW232071   5.898   3.950   4.195 -0.2439  1.4735 -2.0190
42539SOL     OW32072   7.719   9.539   2.608 -0.5907  0.1911 -0.0229
42539SOL    HW132073   7.755   9.491   2.533  0.4150  0.6473  0.1612
42539SOL    HW232074   7.794   9.583   2.648 -0.4278 -2.6368  3.2408
42540SOL     OW32075   8.119   7.444   9.504  0.2989  0.2636 -0.2119
42540SOL    HW132076   8.053   7.449   9.574  0.6150  2.1780  0.0076
42540SOL    HW232077   8.133   7.350   9.491 -0.5117 -0.1593  1.5963
42541SOL     OW32078   9.873   6.969   2.676  0.4028  0.0785  0.3640
42541SOL    HW132079   9.837   7.037   2.732 -0.1271 -0.7499  1.0563
42541SOL    HW232080   9.843   6.887   2.715  0.7716 -0.5499 -0.6220
42542SOL     OW32081   4.263   3.721  10.495  0.6408  0.4633  0.0599
42542SOL    HW132082   4.311   3.638  10.500  0.1547  0.2261  1.2548
42542SOL    HW232083   4.253   3.737  10.402 -1.1350 -1.9700 -0.2620
42543SOL     OW32084  10.270   0.266   4.495  0.0067 -0.6155 -0.0443
42543SOL    HW132085  10.327   0.275   4.571 -2.2337  1.2983  1.5654
42543SOL    HW232086  10.226   0.351   4.489 -1.0880 -1.2787 -2.5192
42544SOL     OW32087   5.114   5.378   8.120 -0.8165  0.5450  0.4600
42544SOL    HW132088   5.028   5.380   8.079 -2.4859 -0.4112  3.5843
42544SOL    HW232089   5.133   5.285   8.133  0.2681  0.7699  0.6649
42545SOL     OW32090   4.694   0.792   8.342 -0.1436  0.7710  0.0787
42545SOL    HW132091   4.776   0.776   8.295  0.7772 -0.6129  2.0182
42545SOL    HW232092   4.655   0.705   8.351 -0.6864  1.1078  1.1443
42546SOL     OW32093   3.999   8.257  10.709 -0.1778 -0.3998  0.8871
42546SOL    HW132094   3.992   8.182  10.768  0.5747 -0.5894  0.7419
42546SOL    HW232095   3.909   8.290  10.702 -0.7267 -1.9482  0.0981
42547SOL     OW32096   5.808   8.169  10.084 -0.8854 -0.6780  0.4459
42547SOL    HW132097   5.754   8.096  10.052  1.4379 -1.2918 -2.5905
42547SOL    HW232098   5.783   8.243  10.029 -2.0246  0.4460  2.3760
42548SOL     OW32099   3.389  10.390  10.449 -0.2796  0.2806  0.1917
42548SOL    HW132100   3.455  10.411  10.383  2.4644 -0.8480  2.3719
42548SOL    HW232101   3.381  10.470  10.501  1.0494 -0.1946  1.1884
42549SOL     OW32102   4.198   4.588   6.139 -0.0915 -0.5068 -0.1140
42549SOL    HW132103   4.156   4.534   6.072 -1.0301  2.8123 -2.4328
42549SOL    HW232104   4.127   4.610   6.199  0.6741 -3.1658  2.0044
42550SOL     OW32105  10.245   0.182   1.076  0.0204  0.6252 -0.3011
42550SOL    HW132106  10.280   0.096   1.055  0.4683  0.3632  1.3821
42550SOL    HW232107  10.287   0.242   1.014 -0.7228 -0.4050 -1.8576
42551SOL     OW32108   0.428   1.866  10.169  0.0994 -0.2830 -0.0892
42551SOL    HW132109   0.412   1.826  10.254 -1.2183  0.2071 -0.0764
42551SOL    HW232110   0.506   1.920  10.182  1.2257 -1.9231  0.1839
42552SOL     OW32111   4.984   4.302   1.632 -0.3002  0.6589 -0.0770
42552SOL    HW132112   4.916   4.341   1.577  0.2742 -0.5391 -1.7161
42552SOL    HW232113   5.062   4.301   1.576  1.0480  1.7712  1.6674
42553SOL     OW32114   2.114  10.724   1.170 -0.2685 -0.0579  0.2221
42553SOL    HW132115   2.127  10.701   1.262 -0.9822  1.2111  0.6732
42553SOL    HW232116   2.069  10.809   1.173  1.7462  1.1379 -1.3089
42554SOL     OW32117   5.608   4.124   5.625  0.4013 -0.6457  0.4826
42554SOL    HW132118   5.541   4.152   5.687  0.4739  1.8476 -0.4338
42554SOL    HW232119   5.566   4.055   5.574 -1.2695  0.3906  0.3710
42555SOL     OW32120   3.916   2.763   5.202  0.1796  0.4207 -1.0596
42555SOL    HW132121   3.894   2.834   5.142  0.4883  0.6544 -0.8997
42555SOL    HW232122   3.995   2.794   5.247 -0.1190  0.3056 -0.4462
42556SOL     OW32123   3.085   0.836   1.159  0.0325  0.3940  0.7720
42556SOL    HW132124   3.142   0.861   1.087 -0.7323  1.0676  0.3767
42556SOL    HW232125   3.111   0.747   1.182  1.0061  0.5765  0.3866
42557SOL     OW32126   3.128   8.462   0.134 -0.2282  0.0576 -0.2158
42557SOL    HW132127   3.100   8.541   0.086  1.0550  0.3893 -0.4530
42557SOL    HW232128   3.080   8.466   0.217 -1.4743  0.1747 -0.9166
42558SOL     OW32129   7.690   6.959   6.417  0.1012  0.4660 -0.1886
42558SOL    HW132130   7.774   6.978   6.458  0.6814 -1.2980 -0.4862
42558SOL    HW232131   7.634   7.033   6.441  1.1200  0.6510  1.7816
42559SOL     OW32132   6.238   2.694   4.298  0.3544 -0.0709 -0.2647
42559SOL    HW132133   6.216   2.627   4.362 -2.3121  0.1504 -0.8154
42559SOL    HW232134   6.268   2.768   4.350  2.6983 -1.3817  0.3855
42560SOL     OW32135   9.300   7.578   2.609  0.5037 -0.1617  0.2515
42560SOL    HW132136   9.257   7.493   2.619  2.3617 -1.1262  0.5275
42560SOL    HW232137   9.393   7.557   2.600  1.0745  1.8733  0.8029
42561SOL     OW32138   4.803   3.803   5.657  0.4491  0.2050  0.3775
42561SOL    HW132139   4.868   3.793   5.726 -0.6337  0.5313  1.4878
42561SOL    HW232140   4.743   3.730   5.670  0.7532 -0.2729 -0.8294
42562SOL     OW32141   0.813   1.084   3.242 -0.2551 -0.0741  0.1162
42562SOL    HW132142   0.885   1.022   3.233  0.0211  0.3831 -0.9750
42562SOL    HW232143   0.774   1.089   3.155  0.3875  2.0627 -0.1042
42563SOL     OW32144   7.528   7.817   1.678  0.0544 -0.5681  0.5370
42563SOL    HW132145   7.451   7.874   1.683 -0.0517 -0.7168  0.6528
42563SOL    HW232146   7.601   7.873   1.704  0.5600  0.5473 -2.7927
42564SOL     OW32147   5.375   8.173   2.573 -0.4069 -0.6686  0.0740
42564SOL    HW132148   5.384   8.078   2.575 -0.0443 -0.7085 -1.8339
42564SOL    HW232149   5.321   8.194   2.650 -1.9445 -2.5780 -0.4212
42565SOL     OW32150   4.589   4.210   2.807 -0.4344  0.4384 -0.0525
42565SOL    HW132151   4.534   4.148   2.855 -0.7766  0.6213 -0.2098
42565SOL    HW232152   4.678   4.177   2.821 -0.6301 -0.2575 -0.3815
42566SOL     OW32153   1.671   2.332   1.141 -0.6224 -0.0436 -0.1363
42566SOL    HW132154   1.603   2.363   1.201  1.0763  0.2068  1.7777
42566SOL    HW232155   1.751   2.374   1.171  0.5874 -1.1333 -1.6453
42567SOL     OW32156   3.248   9.004   2.229  0.0595  0.3903 -0.1021
42567SOL    HW132157   3.336   8.998   2.192  0.2375  0.6656  0.2683
42567SOL    HW232158   3.238   9.097   2.251 -0.1895  0.2969  0.1845
42568SOL     OW32159   6.659   3.070   5.204 -0.4629  0.3855  0.1554
42568SOL    HW132160   6.577   3.066   5.252 -0.9937  0.7066 -0.7182
42568SOL    HW232161   6.726   3.057   5.271 -1.0295  3.3703  1.4260
42569SOL     OW32162   1.191   2.135   9.212  0.0103  0.4669  0.3012
42569SOL    HW132163   1.141   2.188   9.275 -1.1117  0.0829 -0.2372
42569SOL    HW232164   1.146   2.148   9.129 -0.9595 -2.0624  0.3181
42570SOL     OW32165   7.311   0.401   3.102 -0.4566  0.5132 -0.7880
42570SOL    HW132166   7.256   0.403   3.180  0.3222 -2.5140 -0.0161
42570SOL    HW232167   7.393   0.442   3.130 -0.6743  0.7305 -0.4602
42571SOL     OW32168   9.797   6.070  10.592 -0.3671  0.4483 -0.0135
42571SOL    HW132169   9.833   6.128  10.659  0.1561  0.5795 -0.3927
42571SOL    HW232170   9.818   5.982  10.623 -0.6517  0.4850  0.2844
42572SOL     OW32171   8.124   8.130   1.222  0.5562  0.2721  1.1027
42572SOL    HW132172   8.153   8.116   1.132  0.8755  2.8602  0.7192
42572SOL    HW232173   8.152   8.219   1.242 -1.2958  0.4869  3.0836
42573SOL     OW32174   8.955   1.004   4.082 -0.0565 -0.5440 -0.0603
42573SOL    HW132175   8.934   0.913   4.058  0.4500 -0.6201 -0.2278
42573SOL    HW232176   9.018   0.996   4.154 -3.2699 -0.3458  3.0605
42574SOL     OW32177   1.693   4.721   1.241 -0.2216 -0.0200 -0.2619
42574SOL    HW132178   1.660   4.782   1.175  1.4000 -1.2368 -2.3306
42574SOL    HW232179   1.788   4.736   1.242 -0.1706 -0.1319  1.7655
42575SOL     OW32180   4.995   0.570   9.810  0.3859  0.0155  0.0853
42575SOL    HW132181   4.989   0.496   9.748 -0.7046 -1.5546  1.9387
42575SOL    HW232182   4.906   0.578   9.845  0.4744  2.2879 -0.0800
42576SOL     OW32183   5.164   1.987   5.139 -0.3141  0.5697 -0.0657
42576SOL    HW132184   5.154   2.030   5.054  0.3013  0.8287 -0.0102
42576SOL    HW232185   5.242   1.933   5.129  0.3962  1.4406  0.6804
42577SOL     OW32186   5.114   1.335   4.506  0.2022  0.1542  0.0387
42577SOL    HW132187   5.205   1.304   4.503  0.6053  1.3228 -0.3895
42577SOL    HW232188   5.073   1.295   4.429  0.5358  0.1485 -0.1417
42578SOL     OW32189   1.814   7.437   8.140 -0.2354 -0.2191  0.1155
42578SOL    HW132190   1.737   7.387   8.111 -0.8034 -0.0702  1.3011
42578SOL    HW232191   1.813   7.517   8.088 -2.2587  0.8700  1.6818
42579SOL     OW32192   1.073  10.592   0.937 -0.1014  0.5433  0.2209
42579SOL    HW132193   0.998  10.651   0.931 -1.4799 -1.2573 -1.1037
42579SOL    HW232194   1.051  10.519   0.880  2.2758 -0.4956  0.5238
42580SOL     OW32195   1.206   9.167  10.602  0.4490 -0.0077 -0.0158
42580SOL    HW132196   1.224   9.077  10.576  2.5200  0.5985 -0.9779
42580SOL    HW232197   1.258   9.180  10.681 -1.2546 -0.1392  1.1746
42581SOL     OW32198   7.023   3.368   0.310 -0.2683  0.1970 -0.3933
42581SOL    HW132199   7.074   3.436   0.265  0.1516  0.4510  0.4473
42581SOL    HW232200   7.056   3.286   0.273 -0.7022  0.4245 -1.3374
42582SOL     OW32201   0.357   0.108   6.825  0.4144 -0.3151 -0.3410
42582SOL    HW132202   0.281   0.054   6.846  0.0353 -0.1293 -1.2126
42582SOL    HW232203   0.432   0.049   6.834 -0.1125 -1.5163 -2.9372
42583SOL     OW32204   2.287   2.653  10.422 -0.0390 -0.3667  0.1953
42583SOL    HW132205   2.208   2.599  10.414 -0.5295  0.3713 -0.0074
42583SOL    HW232206   2.358   2.594  10.398 -0.6362 -0.7298 -0.7320
42584SOL     OW32207   5.316   1.486   0.842  0.0323 -0.0395  0.0477
42584SOL    HW132208   5.292   1.395   0.828 -1.2840  0.4027 -0.7414
42584SOL    HW232209   5.346   1.490   0.933  1.5776 -1.5314 -0.3536
42585SOL     OW32210   7.452   6.138   9.655 -0.1300 -0.2890  0.1461
42585SOL    HW132211   7.404   6.217   9.680  0.1123  1.0000 -2.9851
42585SOL    HW232212   7.521   6.170   9.597  0.5325 -2.7243 -0.5109
42586SOL     OW32213   9.094   2.232   4.696 -0.4564  0.1900  0.3587
42586SOL    HW132214   9.175   2.197   4.732 -0.9955 -0.0609  1.3632
42586SOL    HW232215   9.082   2.316   4.742  0.0758  1.0363 -0.9795
42587SOL     OW32216   5.304   7.949   3.949  0.2709  0.3239  0.2089
42587SOL    HW132217   5.386   7.906   3.922 -0.2962 -0.0224 -1.0091
42587SOL    HW232218   5.310   7.952   4.045  2.5732  2.0429  0.0942
42588SOL     OW32219   3.630   8.712   8.169  0.1742  0.0670 -0.1618
42588SOL    HW132220   3.721   8.690   8.188 -0.0441 -0.4594  0.3042
42588SOL    HW232221   3.610   8.665   8.088 -0.0905 -0.9552  0.4749
42589SOL     OW32222   3.342   8.012   2.274 -0.2127  0.1124  0.0821
42589SOL    HW132223   3.393   8.015   2.355  0.6344  1.4933 -0.4552
42589SOL    HW232224   3.399   8.051   2.208  0.4426 -3.8150 -2.0074
42590SOL     OW32225   4.359  10.090   3.689 -0.4804 -0.7081  0.2306
42590SOL    HW132226   4.362   9.995   3.675  0.1249 -0.7003  0.2650
42590SOL    HW232227   4.272  10.107   3.724 -0.7495 -1.1946 -0.1970
42591SOL     OW32228   7.447   8.760   0.348 -0.0223  0.3732  0.3161
42591SOL    HW132229   7.528   8.751   0.298 -0.0027 -1.4907  0.6195
42591SOL    HW232230   7.473   8.805   0.429  0.7090 -0.1969  0.4036
42592SOL     OW32231   9.368   0.159   1.005  0.5163  0.0510 -0.6016
42592SOL    HW132232   9.443   0.151   0.947  0.3749  0.7069 -0.8841
42592SOL    HW232233   9.402   0.141   1.092  0.8230 -0.4949 -0.8294
42593SOL     OW32234   5.489   2.359   9.892 -0.3051 -0.2598  0.0536
42593SOL    HW132235   5.497   2.440   9.842 -1.4570 -1.9780 -3.1350
42593SOL    HW232236   5.417   2.376   9.954 -1.5395  0.7269 -1.5741
42594SOL     OW32237   4.252   5.315   1.396  0.3692 -0.1896 -0.3713
42594SOL    HW132238   4.300   5.320   1.479 -0.7663 -1.2093  0.3640
42594SOL    HW232239   4.318   5.338   1.330  1.1921  1.0807  0.8243
42595SOL     OW32240   4.948   4.520   3.786 -0.6693  0.0894  0.1550
42595SOL    HW132241   5.014   4.537   3.853 -0.2950 -0.5501 -0.0450
42595SOL    HW232242   4.952   4.426   3.771  0.0302  0.3671 -1.5663
42596SOL     OW32243   1.486   0.070   1.019  0.7716  0.2952 -1.0197
42596SOL    HW132244   1.403   0.041   0.982 -0.5392  1.5042  0.8376
42596SOL    HW232245   1.484   0.041   1.110  3.5531 -1.8808 -1.4945
42597SOL     OW32246   2.259   5.515   6.948 -0.5598  0.0985 -0.7600
42597SOL    HW132247   2.172   5.526   6.985 -0.4881  0.7210 -0.7730
42597SOL    HW232248   2.319   5.531   7.021 -0.4484 -0.0361 -0.8215
42598SOL     OW32249   3.689  10.003   0.401 -0.4101  0.0465 -0.4489
42598SOL    HW132250   3.630  10.057   0.349 -2.4687 -0.2267  1.4450
42598SOL    HW232251   3.716  10.060   0.473  1.8977  0.2293 -1.3797
42599SOL     OW32252  10.956   4.641   3.051 -0.2549 -0.1400  0.1207
42599SOL    HW132253  10.868   4.604   3.043 -0.5308  0.2722  1.0731
42599SOL    HW232254  10.946   4.711   3.115  0.8420 -0.3580  0.5462
42600SOL     OW32255   0.110   8.613   8.758 -0.0652  0.0079 -0.1489
42600SOL    HW132256   0.049   8.565   8.813 -0.8342  1.1507  0.0437
42600SOL    HW232257   0.150   8.677   8.817  0.1911  0.2668 -0.5984
42601SOL     OW32258   7.903   1.257  10.157 -0.1458 -0.3012  0.0366
42601SOL    HW132259   7.828   1.244  10.099 -0.8803  0.3929  0.8099
42601SOL    HW232260   7.916   1.352  10.161  1.2728 -0.4318 -0.6835
42602SOL     OW32261   9.658   3.999   9.416 -0.0115 -0.3288 -0.3193
42602SOL    HW132262   9.668   3.935   9.345  0.5131 -0.5390 -0.0521
42602SOL    HW232263   9.719   4.069   9.394 -0.5526  0.0766 -0.5872
42603SOL     OW32264   6.625   8.855   0.961  0.2823 -0.0789  0.1633
42603SOL    HW132265   6.647   8.892   1.047 -0.3108  2.3761 -0.6539
42603SOL    HW232266   6.674   8.909   0.899  0.0898 -1.3030 -1.0880
42604SOL     OW32267   4.865   7.293   1.450 -0.4809 -0.3604  0.4040
42604SOL    HW132268   4.856   7.369   1.506 -0.6418  0.9753 -1.3555
42604SOL    HW232269   4.959   7.276   1.446 -0.4079  0.0412  0.4231
42605SOL     OW32270   2.127   5.344  10.893  0.6332 -0.6547  0.3829
42605SOL    HW132271   2.219   5.370  10.891  0.0024  1.8194  0.6547
42605SOL    HW232272   2.107   5.331  10.986  0.4210 -0.0024  0.4334
42606SOL     OW32273   8.875   3.005   0.761 -0.7919  0.2857 -0.3598
42606SOL    HW132274   8.785   2.974   0.747 -0.5721 -0.0173 -1.1772
42606SOL    HW232275   8.913   2.940   0.820 -1.1816  0.5522  0.1928
42607SOL     OW32276   9.612   6.923  10.374  0.6674 -0.4951 -0.3522
42607SOL    HW132277   9.661   6.849  10.409  0.7318 -1.3226 -2.1200
42607SOL    HW232278   9.604   6.905  10.281 -1.1074  0.7077 -0.4782
42608SOL     OW32279   6.229   0.733   9.224  0.0396 -0.3839 -0.3367
42608SOL    HW132280   6.192   0.649   9.251  1.5829  0.2054  4.3891
42608SOL    HW232281   6.317   0.711   9.194 -0.4803 -0.6348 -1.7992
42609SOL     OW32282   4.581   4.534   4.336  0.1360 -0.2359 -0.1843
42609SOL    HW132283   4.657   4.498   4.383 -0.3992  0.3766  1.2186
42609SOL    HW232284   4.575   4.481   4.257  0.9091 -1.5293  0.5749
42610SOL     OW32285   4.721   7.658   4.524  0.2870  0.4779  0.4277
42610SOL    HW132286   4.809   7.660   4.486  0.2953 -1.9940  0.1240
42610SOL    HW232287   4.735   7.654   4.619  0.6787 -2.1653  0.3294
42611SOL     OW32288   7.008   9.075   5.289  0.6316 -0.4912 -0.0577
42611SOL    HW132289   6.978   8.989   5.317 -1.2379 -0.2738 -1.2018
42611SOL    HW232290   7.097   9.061   5.258  1.5071 -1.3824  2.6216
42612SOL     OW32291  10.991   1.828   9.273  0.2063 -0.2505  0.8274
42612SOL    HW132292  10.934   1.905   9.267 -0.5159 -0.8934 -2.0121
42612SOL    HW232293  11.075   1.858   9.238 -0.1219 -0.7450 -0.4295
42613SOL     OW32294   1.665   4.231   3.718  0.0859 -0.1532 -0.3145
42613SOL    HW132295   1.633   4.321   3.731  0.8556 -0.0836  1.3533
42613SOL    HW232296   1.586   4.177   3.723 -0.2747  0.3438 -0.4709
42614SOL     OW32297   8.611   0.725   7.117  0.1503  0.6056  0.2916
42614SOL    HW132298   8.593   0.719   7.211  1.3963 -1.0633  0.4868
42614SOL    HW232299   8.569   0.647   7.079  0.3883  0.7966 -0.3868
42615SOL     OW32300   9.877   0.692   7.161 -0.5173 -0.0927  0.3404
42615SOL    HW132301   9.876   0.664   7.253 -0.6165  0.8340  0.6352
42615SOL    HW232302   9.899   0.785   7.165 -0.6397 -0.0155 -0.5764
42616SOL     OW32303   9.284   4.067   4.827 -0.4342 -0.2156  0.0287
42616SOL    HW132304   9.293   4.037   4.918  3.5273 -2.3783 -0.8522
42616SOL    HW232305   9.293   4.162   4.833  1.2838 -0.4143  1.8685
42617SOL     OW32306   9.825   2.255   1.261  0.3689 -0.0726 -0.2924
42617SOL    HW132307   9.813   2.160   1.255 -0.5847  0.0772 -1.0343
42617SOL    HW232308   9.760   2.283   1.326 -0.8123  0.2953 -1.5720
42618SOL     OW32309   8.213   7.270  10.278  0.4755  0.1610 -0.6506
42618SOL    HW132310   8.295   7.228  10.304  0.0790 -0.4651 -0.3842
42618SOL    HW232311   8.240   7.349  10.231  1.2526  1.0721  1.2043
42619SOL     OW32312   3.047   4.501   7.204  0.2066  0.0595 -0.2373
42619SOL    HW132313   3.103   4.544   7.270  0.5451  0.9248 -1.0602
42619SOL    HW232314   3.036   4.412   7.237  0.8237  0.3101  0.7103
42620SOL     OW32315   0.087   0.845   9.468 -0.5686  0.5899 -0.0066
42620SOL    HW132316   0.134   0.811   9.391 -0.0018 -0.3545  0.7362
42620SOL    HW232317  -0.005   0.844   9.442 -0.3946  0.1665 -0.6361
42621SOL     OW32318   1.317   7.344   7.835 -0.3639 -0.1509  0.2416
42621SOL    HW132319   1.251   7.399   7.877 -0.8612 -0.8219  0.3551
42621SOL    HW232320   1.277   7.315   7.754 -0.0141 -0.1584  0.0692
42622SOL     OW32321   6.346   3.596   9.562  0.0824 -0.3570 -0.0716
42622SOL    HW132322   6.307   3.676   9.596  0.1158 -0.1980 -0.3997
42622SOL    HW232323   6.437   3.619   9.543 -0.1085 -0.2429 -0.9050
42623SOL     OW32324   6.260   4.217   5.727 -0.0701  0.5452 -0.1295
42623SOL    HW132325   6.225   4.286   5.670  1.5360  1.0995 -0.5033
42623SOL    HW232326   6.255   4.137   5.674  0.9296  0.9655 -0.8932
42624SOL     OW32327   4.693   4.505   7.236 -0.1877  0.1134 -0.3858
42624SOL    HW132328   4.681   4.529   7.328 -0.5704 -0.9862 -0.1309
42624SOL    HW232329   4.767   4.558   7.207  0.8764 -0.5554  0.9638
42625SOL     OW32330   8.125  10.861   5.584 -0.0322 -0.1632  0.3627
42625SOL    HW132331   8.192  10.925   5.560 -0.9540  0.5021 -0.5353
42625SOL    HW232332   8.164  10.777   5.562  0.1198  0.2819 -1.2055
42626SOL     OW32333   4.626   2.294   0.822  0.6637 -0.2062 -0.3887
42626SOL    HW132334   4.687   2.366   0.839 -0.1318  0.4453 -0.2193
42626SOL    HW232335   4.585   2.276   0.907  1.2939 -1.2784 -0.3010
42627SOL     OW32336   8.781   9.154   0.520 -0.0263 -0.0297  0.2456
42627SOL    HW132337   8.848   9.171   0.586 -0.0552  1.4107 -0.0648
42627SOL    HW232338   8.830   9.142   0.439 -0.0954  0.2392  0.1629
42628SOL     OW32339   2.547   1.477   1.280 -0.4326  0.0361 -1.1643
42628SOL    HW132340   2.487   1.552   1.279 -0.1656  0.2651 -2.6034
42628SOL    HW232341   2.575   1.469   1.371  0.7123  2.6635 -1.2019
42629SOL     OW32342   5.255   9.656   9.079  0.1854  0.1045  0.2249
42629SOL    HW132343   5.333   9.668   9.025 -1.5280 -1.1921 -2.8106
42629SOL    HW232344   5.210   9.741   9.074 -0.6683 -0.3914 -1.8010
42630SOL     OW32345   8.305   9.233  10.970  0.2976 -0.0771  0.0517
42630SOL    HW132346   8.341   9.168  11.030  0.4819  0.3593  0.4243
42630SOL    HW232347   8.225   9.264  11.014  0.1388 -0.1467 -0.1861
42631SOL     OW32348   4.665   6.528   4.455  0.2843 -0.7914  0.2999
42631SOL    HW132349   4.574   6.544   4.431  0.1602  0.3637  1.4668
42631SOL    HW232350   4.676   6.433   4.447 -1.2659 -1.0479  0.9900
42632SOL     OW32351   9.151   2.610   5.998 -0.4621 -0.0354 -0.0871
42632SOL    HW132352   9.122   2.613   6.090 -0.5028  0.2086 -0.1068
42632SOL    HW232353   9.094   2.672   5.953  0.3478  0.7517 -0.0539
42633SOL     OW32354   9.759   1.003   3.234 -0.9283 -0.2930 -0.3591
42633SOL    HW132355   9.716   1.088   3.231  1.1034  0.8137  0.3946
42633SOL    HW232356   9.809   0.998   3.153  0.5536  0.1690  0.4814
42634SOL     OW32357  10.252   2.953   2.781  0.2018  0.2242  0.2047
42634SOL    HW132358  10.313   2.986   2.716  0.9922 -1.7285 -0.1215
42634SOL    HW232359  10.246   2.859   2.763 -0.7662 -0.1075  1.9720
42635SOL     OW32360   8.723   4.914   3.278  0.5764 -0.3976 -0.0355
42635SOL    HW132361   8.684   4.959   3.203  2.2781 -1.9328 -1.9760
42635SOL    HW232362   8.666   4.839   3.292 -0.1527  0.2813  0.7243
42636SOL     OW32363   7.020   6.273   2.169 -0.2787 -0.2810 -0.9249
42636SOL    HW132364   7.104   6.317   2.182 -1.2920  1.1064  1.5498
42636SOL    HW232365   6.974   6.329   2.106 -0.5033  0.7139  0.0964
42637SOL     OW32366   7.684   3.957   4.601 -0.1905  0.2102  0.0376
42637SOL    HW132367   7.727   3.880   4.564 -0.1127  0.4802 -0.4352
42637SOL    HW232368   7.742   3.985   4.672  1.1939  1.4144 -1.4820
42638SOL     OW32369   9.406  10.199   0.100  0.0162 -0.5858 -0.5186
42638SOL    HW132370   9.379  10.240   0.183 -1.9280  1.1243 -1.9047
42638SOL    HW232371   9.447  10.270   0.051 -1.9582 -0.6108 -2.3331
42639SOL     OW32372  10.024   5.597   5.511 -0.5274  0.3173  0.2734
42639SOL    HW132373   9.952   5.539   5.537  0.7569 -2.2093 -1.3593
42639SOL    HW232374  10.103   5.547   5.530  0.6246  1.0303 -2.1764
42640SOL     OW32375   9.267   3.625   1.097  0.7676  0.5568  0.1449
42640SOL    HW132376   9.281   3.530   1.088  3.0874  0.8536  0.1288
42640SOL    HW232377   9.209   3.647   1.023  1.5926 -0.5822 -0.8955
42641SOL     OW32378   5.116   1.773   1.084  0.0366 -0.3946  0.3306
42641SOL    HW132379   5.118   1.715   1.161  1.1046 -2.1169 -0.9336
42641SOL    HW232380   5.195   1.826   1.093  1.4896 -2.2350 -0.6921
42642SOL     OW32381   9.718   4.812   3.580 -0.3901 -0.2325 -0.1143
42642SOL    HW132382   9.721   4.817   3.675 -2.6814  1.5222 -0.0614
42642SOL    HW232383   9.689   4.723   3.562  1.6548 -1.1329  0.6949
42643SOL     OW32384   2.002  10.680   8.223 -0.4131 -0.1974  0.1022
42643SOL    HW132385   2.081  10.712   8.267 -0.9497  1.4000 -0.0201
42643SOL    HW232386   1.932  10.693   8.287 -0.7094 -0.9133 -0.0642
42644SOL     OW32387   9.846   7.554   8.127  1.2790 -0.4846  0.4662
42644SOL    HW132388   9.823   7.462   8.113  1.9744 -0.7133  0.7927
42644SOL    HW232389   9.918   7.571   8.066 -0.1599  0.4308 -1.0698
42645SOL     OW32390   3.872   9.301   6.193  0.5984 -0.0257 -0.0019
42645SOL    HW132391   3.812   9.226   6.191  0.0952  0.3295  1.1898
42645SOL    HW232392   3.832   9.363   6.254  1.2474  1.0278 -0.5955
42646SOL     OW32393   7.071   3.393   4.495 -0.2571 -0.1310 -0.1769
42646SOL    HW132394   7.113   3.434   4.571 -1.3658  1.0129 -0.1507
42646SOL    HW232395   7.034   3.466   4.446  1.7422 -0.6584 -2.6938
42647SOL     OW32396   2.174   7.846   7.441 -0.1175  0.6945  0.1630
42647SOL    HW132397   2.104   7.910   7.436  0.4363  1.3325  0.4349
42647SOL    HW232398   2.250   7.890   7.402  0.3964  0.3874  0.8008
42648SOL     OW32399   9.350   2.519   4.737 -0.3251  0.3465  0.4517
42648SOL    HW132400   9.284   2.468   4.785  1.1471  0.4027  2.6398
42648SOL    HW232401   9.298   2.581   4.685 -2.2682 -3.6309 -2.9592
42649SOL     OW32402   6.883   3.771   9.499  0.8506  0.3125 -0.0533
42649SOL    HW132403   6.954   3.755   9.437  1.6086 -1.9685  1.2781
42649SOL    HW232404   6.915   3.844   9.553  0.1554  2.3562 -2.2404
42650SOL     OW32405   3.367   7.550   9.183 -0.6244  0.1110  0.7796
42650SOL    HW132406   3.391   7.578   9.271 -0.3548  0.1522  0.6979
42650SOL    HW232407   3.438   7.584   9.128 -0.8860  0.2464  0.5230
42651SOL     OW32408   5.514   7.824   1.577 -0.4034 -0.3867  0.2395
42651SOL    HW132409   5.519   7.886   1.504 -1.0191  0.3255  0.7933
42651SOL    HW232410   5.527   7.738   1.536 -1.4892 -0.0707 -0.8353
42652SOL     OW32411  10.070   3.920   7.057  0.0528  0.1912 -0.3805
42652SOL    HW132412  10.154   3.890   7.024  0.4043 -1.3924  1.7313
42652SOL    HW232413  10.089   3.955   7.145 -1.4126  0.2880 -0.0671
42653SOL     OW32414   1.212  10.592  10.520  0.2128 -0.3169 -0.0678
42653SOL    HW132415   1.209  10.496  10.519  0.0134 -0.3087 -0.5431
42653SOL    HW232416   1.164  10.618  10.441  3.7287  0.0754 -2.2939
42654SOL     OW32417   0.783   8.994   5.812 -0.5272  0.0285  0.3284
42654SOL    HW132418   0.843   9.069   5.808  0.9269 -1.0910  0.3676
42654SOL    HW232419   0.808   8.939   5.738 -2.0039 -0.1325 -0.0778
42655SOL     OW32420   7.886   2.433   6.533 -0.6214  0.1575  0.0419
42655SOL    HW132421   7.907   2.427   6.440  1.2410 -1.0782  0.4838
42655SOL    HW232422   7.903   2.525   6.556 -0.8070  0.3994 -0.7552
42656SOL     OW32423   2.179   9.661   1.381  0.6117 -0.3234 -0.2811
42656SOL    HW132424   2.117   9.588   1.375  0.2562 -0.2588  1.7875
42656SOL    HW232425   2.262   9.624   1.350  0.0941 -1.1563 -0.7094
42657SOL     OW32426   5.045  11.001   2.021  0.0523  0.7169  0.2551
42657SOL    HW132427   4.974  11.064   2.035  0.0948  0.7224  0.4558
42657SOL    HW232428   5.114  11.030   2.081 -0.6948 -0.6967  1.8723
42658SOL     OW32429   3.126   1.654   5.960  0.1969 -0.1292  0.0316
42658SOL    HW132430   3.171   1.605   5.891  0.1312 -0.0387 -0.0775
42658SOL    HW232431   3.134   1.600   6.038  2.9283  1.1018  0.7237
42659SOL     OW32432  10.646   6.510   7.805  0.4118 -0.9632 -0.0507
42659SOL    HW132433  10.681   6.597   7.785  2.4620 -1.4903  0.9475
42659SOL    HW232434  10.651   6.462   7.723  4.5077 -1.7480  0.4504
42660SOL     OW32435   4.106   6.107   9.223  0.2636  0.1434  0.5284
42660SOL    HW132436   4.165   6.079   9.154 -0.3905  0.1185 -0.0293
42660SOL    HW232437   4.131   6.055   9.299  0.6700 -0.1769  0.1760
42661SOL     OW32438   5.021   4.407   8.348  0.1196 -0.5255  0.2313
42661SOL    HW132439   4.951   4.399   8.283 -2.0664 -0.0688  2.4137
42661SOL    HW232440   5.100   4.382   8.300 -1.4723 -0.9803 -2.3742
42662SOL     OW32441   0.607   1.922   7.187  0.3548  0.4863 -0.1925
42662SOL    HW132442   0.553   1.920   7.108 -0.2145 -1.7607  0.2034
42662SOL    HW232443   0.558   1.978   7.248  0.2096  1.2645 -1.0013
42663SOL     OW32444   3.425   7.013   0.100 -0.3200  0.3091  0.3084
42663SOL    HW132445   3.399   6.951   0.032  0.9446  1.5332 -1.4035
42663SOL    HW232446   3.429   7.098   0.055  1.5559  1.0048  1.6232
42664SOL     OW32447  10.776   3.332   8.620 -0.1483 -0.2580  0.0975
42664SOL    HW132448  10.695   3.381   8.610 -0.7789 -0.9480  1.5786
42664SOL    HW232449  10.796   3.336   8.713 -0.4061 -3.0382  0.3646
42665SOL     OW32450   1.825   4.439   4.012  0.6113 -0.6228 -0.4286
42665SOL    HW132451   1.861   4.350   4.013  0.0887 -0.8336  0.0943
42665SOL    HW232452   1.824   4.463   3.919 -0.0324 -1.5013 -0.6686
42666SOL     OW32453  10.463   4.095   4.407 -0.1810  0.1472  0.4505
42666SOL    HW132454  10.505   4.011   4.389  0.6399  0.0285  2.5581
42666SOL    HW232455  10.370   4.078   4.400 -0.0291 -1.0074  1.0072
42667SOL     OW32456   7.153   3.507   6.617  0.0606  0.3446  0.3091
42667SOL    HW132457   7.061   3.489   6.633 -0.4710  1.7107 -1.0352
42667SOL    HW232458   7.196   3.492   6.702 -1.6787  1.5172  1.4559
42668SOL     OW32459   2.739   4.809   5.597 -0.0783 -0.0425  0.6639
42668SOL    HW132460   2.661   4.831   5.547  0.1400 -1.0163 -0.1311
42668SOL    HW232461   2.730   4.716   5.618  0.3381  0.0999  1.5361
42669SOL     OW32462   7.548   7.990   0.422  0.2917  0.0403 -0.2470
42669SOL    HW132463   7.518   8.054   0.357  0.1384  0.4450  0.2184
42669SOL    HW232464   7.474   7.930   0.431 -0.4873  1.1310  1.0216
42670SOL     OW32465   2.354   8.218  10.005 -0.0958 -0.0064 -0.3562
42670SOL    HW132466   2.289   8.153  10.030 -0.8409  0.9822  0.4018
42670SOL    HW232467   2.434   8.168   9.989 -1.2675 -1.3986 -2.3939
42671SOL     OW32468  10.953  10.609   2.583  0.2421  0.8054  0.4663
42671SOL    HW132469  11.040  10.601   2.545 -0.3570 -1.0362 -0.6597
42671SOL    HW232470  10.949  10.540   2.649 -0.7199  0.0610 -0.3239
42672SOL     OW32471   0.640   9.511   2.438 -0.3858  0.3125  0.0612
42672SOL    HW132472   0.603   9.593   2.468 -0.4118  0.8706 -1.4042
42672SOL    HW232473   0.571   9.471   2.385 -0.3768 -0.6613  0.7658
42673SOL     OW32474   3.021   2.717   5.720 -0.1731 -0.9271 -0.6659
42673SOL    HW132475   3.009   2.623   5.710  1.1545 -1.1329 -0.5819
42673SOL    HW232476   2.933   2.753   5.717 -0.9010 -2.3580  1.2254
42674SOL     OW32477   4.171   9.624   5.188  0.5599  0.0589 -0.4484
42674SOL    HW132478   4.172   9.532   5.161 -1.4264 -0.4329  0.9520
42674SOL    HW232479   4.186   9.673   5.107 -2.1631 -1.4204 -2.0062
42675SOL     OW32480   3.525   7.244   3.657  0.5122 -0.2098  0.1461
42675SOL    HW132481   3.574   7.324   3.678  0.1580  0.2708 -0.8048
42675SOL    HW232482   3.548   7.225   3.566 -0.7211 -0.2180 -0.1758
42676SOL     OW32483   9.602   0.489   1.838  0.0478  0.1140  0.8462
42676SOL    HW132484   9.679   0.484   1.896  1.3459  0.4547 -0.7759
42676SOL    HW232485   9.590   0.400   1.806  1.2020  0.4443 -0.6240
42677SOL     OW32486   7.149   4.163   3.132 -0.0337  0.4982 -0.0992
42677SOL    HW132487   7.184   4.150   3.044 -0.3515 -0.4722 -0.1023
42677SOL    HW232488   7.225   4.180   3.187  0.2966 -0.0711 -0.3678
42678SOL     OW32489   6.235   5.344   4.418  1.0699  0.0408 -0.0496
42678SOL    HW132490   6.273   5.431   4.406 -0.4491  1.0457  1.7935
42678SOL    HW232491   6.208   5.342   4.510 -0.0561 -1.9314 -0.3630
42679SOL     OW32492   8.021   9.023   1.129  0.1511  0.5299  0.1726
42679SOL    HW132493   7.958   9.094   1.118 -0.3484  0.4527  2.1939
42679SOL    HW232494   7.976   8.945   1.094  0.0691  0.8838 -0.5337
42680SOL     OW32495   9.917   9.014   5.549  0.3129  0.4833  0.2034
42680SOL    HW132496   9.870   8.932   5.565  0.3226  0.2988 -0.6642
42680SOL    HW232497   9.988   8.989   5.490 -0.3009  1.2833 -0.9101
42681SOL     OW32498   5.171  10.643   4.341  0.2723 -0.2040 -0.5299
42681SOL    HW132499   5.079  10.624   4.320  1.0365 -3.3138 -1.7335
42681SOL    HW232500   5.188  10.728   4.302 -2.2811  0.8585  0.4821
42682SOL     OW32501   3.846   0.999   8.745 -0.2270  0.0965  0.1894
42682SOL    HW132502   3.796   1.027   8.668  0.9180  1.4908 -0.1049
42682SOL    HW232503   3.895   0.923   8.715 -1.8500 -1.0577  0.3794
42683SOL     OW32504   3.102   3.225   0.031  0.7865  0.4062  0.2426
42683SOL    HW132505   3.117   3.307  -0.016  3.6408  0.2807  0.7356
42683SOL    HW232506   3.010   3.228   0.056 -0.0456  1.9016 -2.5664
42684SOL     OW32507   3.868   2.675   1.463  0.5527 -0.4498  0.0609
42684SOL    HW132508   3.798   2.640   1.409  1.6524 -1.4424 -0.7561
42684SOL    HW232509   3.914   2.598   1.497  0.8694  0.1740  1.1099
42685SOL     OW32510   8.688   1.689   7.297  0.4997  0.4029 -0.3359
42685SOL    HW132511   8.634   1.640   7.234  0.9435  0.3952 -0.7161
42685SOL    HW232512   8.743   1.744   7.242 -0.1705  1.5326  0.0923
42686SOL     OW32513   1.124   0.102   5.020  0.2865 -0.0490 -0.5243
42686SOL    HW132514   1.148   0.140   4.936  0.6413 -0.5430 -0.6507
42686SOL    HW232515   1.068   0.168   5.062 -1.5612 -0.5913 -1.9722
42687SOL     OW32516   3.770   3.442   6.745 -0.6821 -0.0610  0.3062
42687SOL    HW132517   3.779   3.523   6.796  3.6622 -0.9399  1.3905
42687SOL    HW232518   3.802   3.373   6.804  0.9305 -1.6992 -2.2784
42688SOL     OW32519   6.590   8.066   6.370  0.2034 -0.0407  0.1338
42688SOL    HW132520   6.559   7.977   6.353  3.4399 -0.8276 -2.8055
42688SOL    HW232521   6.634   8.060   6.455 -2.3385 -0.3016  1.5277
42689SOL     OW32522   6.330  10.406   3.765  0.3683 -0.4654 -0.4550
42689SOL    HW132523   6.378  10.477   3.808 -0.3652  0.7026 -1.4981
42689SOL    HW232524   6.244  10.407   3.807  0.1848 -0.4040 -0.8347
42690SOL     OW32525   2.986   2.924   7.815  0.3176  0.0601  0.2624
42690SOL    HW132526   2.910   2.951   7.867 -0.1351 -0.5242 -0.0805
42690SOL    HW232527   3.055   2.908   7.880 -0.5281 -1.6493  0.8121
42691SOL     OW32528   8.739   6.574   4.778 -0.0105  0.0352  0.3721
42691SOL    HW132529   8.690   6.586   4.859 -1.7101  0.5290 -0.6546
42691SOL    HW232530   8.802   6.505   4.797 -1.9675 -1.5656  1.4451
42692SOL     OW32531   1.543   2.829   5.873  0.3542  0.3050  0.0156
42692SOL    HW132532   1.528   2.741   5.839  0.8404  0.3976 -0.4487
42692SOL    HW232533   1.457   2.857   5.907  0.2790 -0.4764  0.4870
42693SOL     OW32534   3.397  10.872   7.246 -0.7895 -0.0767  0.1622
42693SOL    HW132535   3.363  10.955   7.279 -0.6144 -0.2415  0.7689
42693SOL    HW232536   3.422  10.891   7.155  2.3128  1.4576  1.1752
42694SOL     OW32537   9.611   7.282   1.782  0.2233 -0.1904 -0.0730
42694SOL    HW132538   9.627   7.212   1.845 -0.9811 -1.8453 -1.4815
42694SOL    HW232539   9.590   7.358   1.835  1.1857 -0.9691  1.5250
42695SOL     OW32540   9.586   2.291   3.718  0.4781 -0.0357  0.0324
42695SOL    HW132541   9.635   2.217   3.683 -1.0298 -0.0013 -2.4059
42695SOL    HW232542   9.494   2.265   3.710 -0.0264  0.8726  2.1410
42696SOL     OW32543   7.708   2.177   0.778  0.1115 -0.1083 -0.6110
42696SOL    HW132544   7.718   2.168   0.683 -0.8551  1.7949 -0.9189
42696SOL    HW232545   7.746   2.262   0.799  1.7745 -1.1482  0.9996
42697SOL     OW32546   4.337   7.141   1.435  0.0983 -0.0935  0.5096
42697SOL    HW132547   4.258   7.194   1.426  0.8754  0.9670 -0.3080
42697SOL    HW232548   4.365   7.154   1.525  1.2237  2.3325 -0.1161
42698SOL     OW32549   3.675   3.887   1.361  0.0509  0.1382 -0.3415
42698SOL    HW132550   3.738   3.890   1.433 -1.3030 -0.5503  0.9407
42698SOL    HW232551   3.710   3.822   1.301  1.0027  0.4132 -0.0942
42699SOL     OW32552  10.626   0.142   1.897  0.1055 -0.1293 -0.5764
42699SOL    HW132553  10.678   0.211   1.939  2.0464 -1.5922 -0.4525
42699SOL    HW232554  10.593   0.089   1.970  1.0947 -1.0124 -0.7458
42700SOL     OW32555  10.021   5.199   0.462 -0.1988  0.2815  0.2430
42700SOL    HW132556   9.952   5.198   0.395  0.1072  1.5951 -0.1245
42700SOL    HW232557  10.103   5.205   0.412  0.1733 -0.8206  0.6901
42701SOL     OW32558   8.788   7.649   4.575  0.2669  0.1130  0.5483
42701SOL    HW132559   8.866   7.654   4.631  1.0987 -1.7406 -0.3618
42701SOL    HW232560   8.739   7.574   4.607  1.5806 -2.0396 -2.0689
42702SOL     OW32561  10.303   2.294   1.336 -0.3415  0.6010 -0.2552
42702SOL    HW132562  10.280   2.313   1.245  0.8850  0.7570 -0.5458
42702SOL    HW232563  10.247   2.352   1.388 -0.6040  0.9592 -0.9348
42703SOL     OW32564   5.907  11.012   2.118  0.3821  0.5892  0.3439
42703SOL    HW132565   5.995  11.042   2.095  0.4056  0.1051 -0.2146
42703SOL    HW232566   5.922  10.936   2.174  0.3211  0.2722 -0.0683
42704SOL     OW32567   7.049  10.490   0.204 -0.1013 -0.8683  0.0776
42704SOL    HW132568   7.084  10.486   0.115  0.4131  2.2953 -0.0073
42704SOL    HW232569   7.107  10.434   0.255  0.8824 -1.1323 -1.2595
42705SOL     OW32570   8.029   2.536   4.548  0.4193  0.1370  0.5270
42705SOL    HW132571   8.048   2.464   4.608  0.0734  0.7754  1.4210
42705SOL    HW232572   8.015   2.494   4.463 -0.4592 -0.9152  1.1737
42706SOL     OW32573   4.659   2.360   3.503 -0.2867 -0.0059 -0.4680
42706SOL    HW132574   4.621   2.436   3.547 -0.9100  0.0293 -1.0474
42706SOL    HW232575   4.621   2.285   3.549 -1.2273  0.0269 -1.1583
42707SOL     OW32576   8.250   1.861  10.936  0.1873  0.2426  0.1726
42707SOL    HW132577   8.286   1.861  11.025 -2.0417 -0.4548  1.1288
42707SOL    HW232578   8.199   1.941  10.930  0.9723  0.6889 -0.7873
42708SOL     OW32579   6.932   5.370   1.770  0.1960  0.1327 -0.2472
42708SOL    HW132580   6.962   5.289   1.809  0.0872  0.3150  0.2143
42708SOL    HW232581   7.012   5.412   1.737  0.2210 -0.2860 -0.7321
42709SOL     OW32582   6.820   3.585   0.229 -0.1389 -0.5726 -0.6322
42709SOL    HW132583   6.734   3.589   0.270 -1.2471 -3.3675 -2.3661
42709SOL    HW232584   6.872   3.531   0.289 -0.1886 -0.4409 -0.4713
42710SOL     OW32585   6.017   7.248   1.370 -0.8552  0.4138  0.4316
42710SOL    HW132586   6.017   7.274   1.278  1.2053 -0.2879  0.1854
42710SOL    HW232587   6.050   7.324   1.417  2.3159 -0.5849  0.0371
42711SOL     OW32588   0.627   4.153   1.231  0.1815 -0.0227 -0.2044
42711SOL    HW132589   0.619   4.157   1.136  0.1461  0.1566 -0.1956
42711SOL    HW232590   0.676   4.073   1.249  1.7325  0.8208 -0.4734
42712SOL     OW32591   2.125   9.357   1.966  0.1622 -0.2154  0.5002
42712SOL    HW132592   2.078   9.292   1.914  1.3132 -1.8419  1.4147
42712SOL    HW232593   2.066   9.377   2.039 -0.4343  0.2233 -0.0893
42713SOL     OW32594   2.390  10.223   7.440 -0.3056  0.1000 -0.1041
42713SOL    HW132595   2.390  10.306   7.393 -0.6114 -0.4664 -1.1480
42713SOL    HW232596   2.482  10.207   7.461 -0.0059 -0.1387 -1.4708
42714SOL     OW32597   4.882   9.932   9.436 -0.4298  0.3955 -0.2042
42714SOL    HW132598   4.901   9.961   9.347  0.3736  1.0448  0.1747
42714SOL    HW232599   4.962   9.951   9.485 -1.5818  1.9815  1.1402
42715SOL     OW32600   1.173   0.320   3.469  0.9639 -0.2527  0.3199
42715SOL    HW132601   1.081   0.345   3.472  1.1515  0.7195 -1.1102
42715SOL    HW232602   1.220   0.395   3.505  1.2306 -0.5919  0.6907
42716SOL     OW32603   6.715   6.442   8.126 -0.7981 -0.1540  0.7970
42716SOL    HW132604   6.742   6.365   8.078  0.1445  0.1116  0.8824
42716SOL    HW232605   6.621   6.449   8.111 -0.2850  1.0468 -2.6568
42717SOL     OW32606   7.769   8.253   3.450  0.1541 -0.0241 -0.0123
42717SOL    HW132607   7.753   8.338   3.491  0.4260  0.1575 -0.2801
42717SOL    HW232608   7.689   8.234   3.402  0.6907  0.8664 -1.3265
42718SOL     OW32609   7.819   1.601   5.349  0.4982 -0.4627  0.2501
42718SOL    HW132610   7.818   1.697   5.345  0.5169 -0.4107  1.2213
42718SOL    HW232611   7.852   1.581   5.437 -3.1579 -1.3007  1.5881
42719SOL     OW32612   3.487   3.608   5.603 -0.5812 -0.1788 -0.4167
42719SOL    HW132613   3.555   3.651   5.551  0.8703 -0.6132  1.0329
42719SOL    HW232614   3.474   3.665   5.679  0.5870 -1.6538  0.9756
42720SOL     OW32615   8.699   0.680   0.102  0.0039 -0.5003 -0.4553
42720SOL    HW132616   8.705   0.594   0.142 -0.6030  0.3240  1.5489
42720SOL    HW232617   8.697   0.741   0.176 -0.1739  1.2034 -1.7888
42721SOL     OW32618   2.485   0.671   2.555  0.4170  0.0787 -0.5029
42721SOL    HW132619   2.545   0.632   2.618  0.6438 -0.5219 -1.0809
42721SOL    HW232620   2.476   0.605   2.486  1.2748  1.2706 -1.8062
42722SOL     OW32621   5.137   2.457   6.615  0.2531 -0.2336 -0.0884
42722SOL    HW132622   5.123   2.399   6.689  1.3932  1.0776  1.2173
42722SOL    HW232623   5.088   2.536   6.636 -0.2902 -0.2368 -1.2639
42723SOL     OW32624   6.098   1.983   3.549  0.4122 -0.0397 -0.1476
42723SOL    HW132625   6.071   2.074   3.538  2.0883  0.7736  1.9965
42723SOL    HW232626   6.180   1.976   3.501 -0.0589 -0.6592 -0.8981
42724SOL     OW32627   3.869   4.608   4.537 -0.7465 -0.0483 -0.2756
42724SOL    HW132628   3.904   4.519   4.528  3.6977  1.7137 -3.8884
42724SOL    HW232629   3.822   4.623   4.455 -1.2753  1.0951  0.2174
42725SOL     OW32630   7.128   7.757   2.314 -0.4644 -0.3187 -0.2172
42725SOL    HW132631   7.150   7.675   2.269 -0.7496 -0.3679 -0.2651
42725SOL    HW232632   7.139   7.825   2.247 -0.6798 -0.3685 -0.3026
42726SOL     OW32633   0.676   2.592   7.799  0.5207 -0.1994  0.0340
42726SOL    HW132634   0.724   2.668   7.767 -1.5493  0.3619 -2.0013
42726SOL    HW232635   0.591   2.627   7.826 -0.2311 -1.6829 -0.3175
42727SOL     OW32636   7.852   3.415   8.575  0.5703  0.6250 -0.0891
42727SOL    HW132637   7.780   3.411   8.512  0.3588 -0.5430  0.1968
42727SOL    HW232638   7.868   3.508   8.588 -1.7354  0.9444  0.8082
42728SOL     OW32639   0.852   2.861   9.198 -0.4604  0.0442 -0.1687
42728SOL    HW132640   0.896   2.856   9.113 -0.0226  2.7552 -0.1952
42728SOL    HW232641   0.771   2.908   9.181 -1.5316 -1.4597  0.5631
42729SOL     OW32642   3.788   2.517  10.257 -0.4905  0.3419 -0.3516
42729SOL    HW132643   3.697   2.548  10.255  0.2253  2.9485  1.4525
42729SOL    HW232644   3.826   2.548  10.175 -0.1604  3.3988  0.8251
42730SOL     OW32645   6.628   4.314   0.178  0.2211 -0.2839 -0.2050
42730SOL    HW132646   6.638   4.285   0.268 -1.1509 -0.7869 -0.1871
42730SOL    HW232647   6.550   4.370   0.179  0.7374  0.4718 -0.9072
42731SOL     OW32648   0.435  10.253   0.064 -0.4491  0.0373 -0.6156
42731SOL    HW132649   0.487  10.208   0.130 -2.5003 -0.9046  0.4576
42731SOL    HW232650   0.475  10.340   0.057  1.1801 -0.6069  0.1827
42732SOL     OW32651   8.079   9.348  10.531 -0.4062  0.5722 -0.5201
42732SOL    HW132652   8.150   9.331  10.593 -0.9911  1.3499  0.3891
42732SOL    HW232653   8.081   9.274  10.471  0.5337  0.0832  0.0909
42733SOL     OW32654   3.266   6.458   7.933 -0.0355  0.2801 -0.2325
42733SOL    HW132655   3.276   6.364   7.949 -0.8139 -0.0977 -1.7282
42733SOL    HW232656   3.171   6.471   7.931  0.0426  0.7588 -1.7033
42734SOL     OW32657   4.073  10.537   8.188 -0.4533  0.0604  0.2433
42734SOL    HW132658   4.081  10.614   8.132  1.8853  0.3565  0.9085
42734SOL    HW232659   4.027  10.472   8.133 -0.5605  1.2006 -1.0629
42735SOL     OW32660   7.185   5.075   5.143  0.7365 -0.1696  0.1165
42735SOL    HW132661   7.215   5.072   5.052 -1.3695 -0.4864 -0.6218
42735SOL    HW232662   7.192   5.168   5.167  0.4614  0.0706 -0.6857
42736SOL     OW32663  10.671   1.657   7.702 -0.0163 -0.5572  0.3067
42736SOL    HW132664  10.751   1.690   7.742  0.1661 -0.3776 -0.2023
42736SOL    HW232665  10.636   1.731   7.652 -1.0779 -0.2922  1.3743
42737SOL     OW32666  10.407   0.600   2.636  0.3970  0.4448  0.2234
42737SOL    HW132667  10.486   0.625   2.588  0.6656 -2.3368 -0.9358
42737SOL    HW232668  10.336   0.608   2.571  0.4095 -1.0764 -0.0145
42738SOL     OW32669  10.462   4.559   4.868 -0.5271  0.0298 -0.2472
42738SOL    HW132670  10.523   4.561   4.794  0.8987  1.1253  0.8806
42738SOL    HW232671  10.428   4.648   4.874  1.1448  0.6060  1.7481
42739SOL     OW32672   9.217   6.880   8.690  0.5067 -0.1112  0.0497
42739SOL    HW132673   9.254   6.962   8.721 -0.7725 -0.1882  1.9241
42739SOL    HW232674   9.279   6.813   8.719  0.7018  0.0358 -0.0209
42740SOL     OW32675   8.204  10.819   7.781  0.1396 -0.2950 -0.6945
42740SOL    HW132676   8.143  10.880   7.739 -1.4061 -1.2859  0.0255
42740SOL    HW232677   8.242  10.869   7.854  0.3329  0.3779 -1.2420
42741SOL     OW32678   5.182   2.730   9.293  0.7183  0.2944 -0.2131
42741SOL    HW132679   5.137   2.646   9.302  0.3538  0.3865 -1.0293
42741SOL    HW232680   5.259   2.723   9.350 -0.3234  0.1396  1.2233
42742SOL     OW32681  10.685   0.880   4.731 -0.4640  0.3821 -0.0313
42742SOL    HW132682  10.747   0.827   4.781 -0.4325  0.7022  0.2733
42742SOL    HW232683  10.599   0.848   4.759 -0.4528 -0.7404 -1.1786
42743SOL     OW32684   6.626  10.082   7.769  0.5600 -0.2108  0.3530
42743SOL    HW132685   6.669  10.112   7.689  1.4902  0.1119  0.9610
42743SOL    HW232686   6.666  10.134   7.839 -0.5970 -0.1341  0.9795
42744SOL     OW32687   7.345   3.919   6.466  0.0685  0.2615 -0.1249
42744SOL    HW132688   7.262   3.920   6.419  0.7710  0.2580 -1.4519
42744SOL    HW232689   7.386   3.836   6.438 -0.4148 -0.8555  2.2692
42745SOL     OW32690   3.182   9.630   1.759  0.2473 -0.6604  0.6079
42745SOL    HW132691   3.125   9.553   1.758  1.0419 -1.2624  0.4182
42745SOL    HW232692   3.131   9.698   1.801 -0.3103 -1.4228  1.1757
42746SOL     OW32693   9.863   7.184   3.854 -0.2685 -0.1647 -0.1772
42746SOL    HW132694   9.950   7.222   3.842  0.4825 -0.9321  2.3390
42746SOL    HW232695   9.842   7.201   3.946 -0.9505 -3.5573  0.4072
42747SOL     OW32696   9.469   3.515   9.025  0.0839  0.0776  0.3274
42747SOL    HW132697   9.512   3.433   9.003  0.8106  0.0160  1.8152
42747SOL    HW232698   9.540   3.572   9.055 -0.6155  0.6345  0.9868
42748SOL     OW32699   6.267   4.598   9.016  0.0951 -0.0462  0.5222
42748SOL    HW132700   6.349   4.570   9.056 -0.5324 -2.4606  0.2735
42748SOL    HW232701   6.272   4.564   8.926  0.4515  3.1912 -0.8076
42749SOL     OW32702   3.494   0.852   2.076  0.5462 -0.0316  0.2617
42749SOL    HW132703   3.502   0.927   2.134 -1.0068  0.1531  0.2930
42749SOL    HW232704   3.401   0.828   2.081  0.9556 -1.8218  0.0996
42750SOL     OW32705   5.864   8.373  10.777 -0.3897 -0.7007  0.1557
42750SOL    HW132706   5.831   8.294  10.735  1.3226  0.1158 -2.9766
42750SOL    HW232707   5.927   8.341  10.842  0.7797 -1.9642 -1.5134
42751SOL     OW32708   9.310   7.495  10.627 -0.4022  0.1341 -0.2197
42751SOL    HW132709   9.246   7.434  10.589 -1.5355  1.3243 -0.3099
42751SOL    HW232710   9.392   7.476  10.581 -1.3673  0.4655 -2.1777
42752SOL     OW32711   7.820   4.769   3.987  0.0992  0.0634  0.7245
42752SOL    HW132712   7.793   4.713   4.060  1.6797 -1.5203  0.1605
42752SOL    HW232713   7.879   4.714   3.935  0.6298  1.8254 -0.6305
42753SOL     OW32714   3.400   8.486   0.215 -0.5297 -0.2031  0.2860
42753SOL    HW132715   3.330   8.517   0.157 -0.4988 -0.2102  0.2449
42753SOL    HW232716   3.355   8.451   0.291 -0.5410  1.0189  0.8664
42754SOL     OW32717   1.337   2.241   1.216  0.0468 -0.3925 -0.1993
42754SOL    HW132718   1.272   2.180   1.250  0.5302 -0.2722  0.9851
42754SOL    HW232719   1.320   2.323   1.262  1.9946 -0.7786  1.3649
42755SOL     OW32720   7.004   0.079   3.587 -0.0123  0.2891 -0.1772
42755SOL    HW132721   6.976   0.169   3.569 -0.6472  0.1750  0.2148
42755SOL    HW232722   6.980   0.064   3.678  2.7774  0.6988  0.7319
42756SOL     OW32723   9.691   0.032   3.308  0.7296 -0.3234 -0.4511
42756SOL    HW132724   9.757   0.080   3.259 -1.3066  1.4784 -1.6447
42756SOL    HW232725   9.644  -0.020   3.242 -0.7997  0.6374 -0.1929
42757SOL     OW32726   1.319   4.818   8.827 -0.7237  0.3988  0.5858
42757SOL    HW132727   1.366   4.896   8.857 -1.0202  0.1438  1.7412
42757SOL    HW232728   1.372   4.786   8.753  0.7020  0.3856  1.5560
42758SOL     OW32729   4.761   9.304   4.985  0.1825  0.6351  0.2612
42758SOL    HW132730   4.846   9.345   4.999  0.4903  0.6141 -1.3628
42758SOL    HW232731   4.776   9.211   4.999  0.6522  0.5259 -0.9232
42759SOL     OW32732   7.986   3.051   1.199 -0.0954 -0.4379  0.0916
42759SOL    HW132733   7.984   3.147   1.200 -0.0578 -0.4037 -1.1808
42759SOL    HW232734   8.079   3.029   1.205  0.4512 -0.2005 -4.2906
42760SOL     OW32735   7.978   8.085   1.871  0.6645  0.7271  0.5397
42760SOL    HW132736   8.054   8.060   1.818  0.3354 -1.0081  0.8100
42760SOL    HW232737   8.007   8.162   1.920  1.6619  1.1173 -0.6123
42761SOL     OW32738   5.617   0.103   6.189  0.0904  0.0002 -0.1019
42761SOL    HW132739   5.543   0.111   6.249  1.7361  2.9269  1.8584
42761SOL    HW232740   5.588   0.144   6.108 -1.7704 -2.9048 -1.0375
42762SOL     OW32741   1.653   7.712   7.133  0.4831  0.3317  0.1821
42762SOL    HW132742   1.747   7.718   7.147  0.5046  2.0063 -0.4277
42762SOL    HW232743   1.619   7.798   7.158 -0.8585 -0.1817  0.2188
42763SOL     OW32744   5.178  10.025   3.776 -0.0683 -0.0806  0.4180
42763SOL    HW132745   5.232   9.982   3.710 -1.0583 -0.4514 -0.1743
42763SOL    HW232746   5.157   9.956   3.839 -3.8673 -1.3909 -1.8892
42764SOL     OW32747   6.289   7.330   0.288  0.4566  0.5388  0.6582
42764SOL    HW132748   6.254   7.242   0.278  0.5584  0.4226  1.2920
42764SOL    HW232749   6.230   7.385   0.235  0.5920  0.0515 -0.0079
42765SOL     OW32750   0.305   4.420   5.599 -0.2817  0.0939 -0.5561
42765SOL    HW132751   0.306   4.325   5.591  0.9112  0.0223  0.2865
42765SOL    HW232752   0.270   4.436   5.686  0.8860  0.3648 -0.1196
42766SOL     OW32753   6.269   9.387   4.058 -0.0963 -0.5213 -0.0975
42766SOL    HW132754   6.296   9.350   4.142 -1.2766 -0.8333  0.1550
42766SOL    HW232755   6.348   9.382   4.003  1.0087  0.6349  1.2854
42767SOL     OW32756   6.416   2.639   1.654 -0.1509  0.2160  0.9533
42767SOL    HW132757   6.482   2.576   1.627 -3.2600 -3.0013  0.1477
42767SOL    HW232758   6.437   2.719   1.606  1.7683 -1.3921 -1.0533
42768SOL     OW32759   7.425   3.299   0.251 -0.0062 -0.0844 -0.5484
42768SOL    HW132760   7.515   3.323   0.272 -0.1144 -0.6931  0.7049
42768SOL    HW232761   7.374   3.378   0.269  0.1802  0.0359 -0.5470
42769SOL     OW32762   8.437  10.649   2.775  0.5296 -0.4550  0.4010
42769SOL    HW132763   8.450  10.645   2.870 -2.2725  1.5885  0.9948
42769SOL    HW232764   8.343  10.638   2.763  0.9014 -1.3597 -2.2495
42770SOL     OW32765   7.808   0.152   7.568 -0.1507 -0.1472 -0.1761
42770SOL    HW132766   7.732   0.117   7.614 -0.1949 -0.0807 -0.1983
42770SOL    HW232767   7.823   0.091   7.495 -0.3043 -0.0512 -0.2892
42771SOL     OW32768   1.235   1.875   6.897 -0.2767  0.8494 -0.2131
42771SOL    HW132769   1.249   1.829   6.979  0.4762  1.4583  0.0130
42771SOL    HW232770   1.247   1.808   6.830 -0.4600  0.4424  0.1567
42772SOL     OW32771   9.932   8.289   6.811 -0.3102  0.0976  0.3003
42772SOL    HW132772   9.989   8.252   6.743 -1.0906 -1.4541  0.4475
42772SOL    HW232773   9.992   8.307   6.884  0.1559 -0.5549  0.0919
42773SOL     OW32774   9.361   5.023   6.264  0.4254 -0.1268 -0.0568
42773SOL    HW132775   9.410   5.069   6.333  0.6126  0.0057 -0.2735
42773SOL    HW232776   9.393   5.063   6.183  0.1974 -0.2737 -0.2182
42774SOL     OW32777   9.617   4.798   2.019  0.3033 -0.1729  0.4567
42774SOL    HW132778   9.579   4.886   2.017 -0.7218 -0.5895  0.7990
42774SOL    HW232779   9.647   4.783   1.929  0.3563  0.4612  0.3605
42775SOL     OW32780   3.536   5.080  10.967 -0.5109  0.4665 -0.0874
42775SOL    HW132781   3.563   5.168  10.940  1.6596 -0.2596 -0.4613
42775SOL    HW232782   3.482   5.049  10.895  0.7523  0.6063 -1.1427
42776SOL     OW32783   1.713   0.390   8.326  0.4146  0.1398  0.0646
42776SOL    HW132784   1.710   0.392   8.230  1.2129  2.3399  0.0348
42776SOL    HW232785   1.803   0.361   8.346  0.0836 -0.8503  0.1846
42777SOL     OW32786   9.013   4.581   9.955  0.3288 -0.3184  0.3635
42777SOL    HW132787   9.031   4.656   9.898  1.0945 -0.6210  0.1978
42777SOL    HW232788   9.079   4.516   9.931  1.3874 -0.0580  2.3321
42778SOL     OW32789   4.310   8.398   9.542 -0.1398 -0.2229 -0.6350
42778SOL    HW132790   4.240   8.440   9.592 -0.5317 -0.8763 -0.6321
42778SOL    HW232791   4.324   8.456   9.467 -0.0644  0.3750 -0.1646
42779SOL     OW32792   8.304   4.395   3.320  0.5144  0.2856  0.0459
42779SOL    HW132793   8.252   4.457   3.268  1.1364  0.4467 -0.3867
42779SOL    HW232794   8.273   4.309   3.292  2.0297  0.3115 -1.8837
42780SOL     OW32795   3.767   1.438   4.629  0.3901  0.1473 -0.2006
42780SOL    HW132796   3.732   1.483   4.706 -0.0670 -0.6635  0.0710
42780SOL    HW232797   3.828   1.501   4.591 -0.5239  1.1639 -0.0480
42781SOL     OW32798   8.752   4.325   7.444 -0.2422  0.2340  0.6242
42781SOL    HW132799   8.831   4.377   7.459 -0.7438  0.6915  1.8072
42781SOL    HW232800   8.738   4.278   7.526  0.3413 -2.0549 -0.4874
42782SOL     OW32801   6.430   0.746   8.411  0.0018  0.0727 -0.0239
42782SOL    HW132802   6.414   0.818   8.472  0.8471 -0.3788  0.7730
42782SOL    HW232803   6.460   0.789   8.330  2.8919  0.6324  1.1886
42783SOL     OW32804   8.096   3.636   6.694  0.0498 -1.0045  0.5496
42783SOL    HW132805   8.148   3.714   6.676  0.1977 -1.3468 -0.5798
42783SOL    HW232806   8.037   3.628   6.619  0.7694 -2.5607  0.1032
42784SOL     OW32807   9.525   2.496   8.457 -0.2737 -0.1588  0.7508
42784SOL    HW132808   9.510   2.581   8.415  2.2228  0.7420  1.4845
42784SOL    HW232809   9.458   2.439   8.421 -1.2321  1.8076 -0.7452
42785SOL     OW32810   2.956   4.084   9.754  0.0294  0.0806  0.1764
42785SOL    HW132811   2.884   4.135   9.716 -0.7038 -1.0346 -0.0036
42785SOL    HW232812   2.976   4.018   9.687 -0.5743 -1.2635  1.2622
42786SOL     OW32813   1.219   6.511   4.821  0.4221 -0.3658 -0.2372
42786SOL    HW132814   1.178   6.581   4.872 -0.8869  0.3955 -2.2117
42786SOL    HW232815   1.312   6.534   4.820  0.2180  0.5414  0.3373
42787SOL     OW32816   7.623   0.046   7.758  0.3625  0.3260 -0.2630
42787SOL    HW132817   7.531   0.040   7.734  0.3423  0.3618 -0.1929
42787SOL    HW232818   7.635   0.136   7.785  0.1282  0.0088  0.9339
42788SOL     OW32819   2.359   2.077   1.738  0.3960 -0.0866  0.2573
42788SOL    HW132820   2.353   2.005   1.676 -1.9429  0.1373  0.1516
42788SOL    HW232821   2.270   2.088   1.771  0.9178  2.0339  1.1057
42789SOL     OW32822   2.946   5.035   4.270 -0.3814  0.1858  0.4910
42789SOL    HW132823   2.969   4.952   4.228  0.9324  0.7958 -0.0435
42789SOL    HW232824   2.951   5.018   4.364  2.0361  0.1754  0.4216
42790SOL     OW32825   5.571   3.077   1.763  0.4210 -0.6112  0.3059
42790SOL    HW132826   5.580   3.036   1.849 -0.7648 -0.1690  0.6617
42790SOL    HW232827   5.478   3.097   1.755  0.2124 -2.0597 -1.7667
42791SOL     OW32828   7.719   5.478   0.677  0.2406  0.3438 -0.1516
42791SOL    HW132829   7.708   5.453   0.769  0.6915 -0.2475 -0.2543
42791SOL    HW232830   7.751   5.398   0.634  2.1154  1.1923 -0.4180
42792SOL     OW32831   7.370   4.814   3.932  0.0645 -0.2009  0.1389
42792SOL    HW132832   7.333   4.872   3.866  0.7588 -0.1622 -0.2244
42792SOL    HW232833   7.317   4.734   3.927 -2.4609  1.1675  2.2636
42793SOL     OW32834   3.071   1.583  10.331 -0.3523  0.3506  0.0269
42793SOL    HW132835   3.004   1.556  10.393  0.1297  0.6997  0.7144
42793SOL    HW232836   3.073   1.513  10.265 -1.6127  0.5012 -0.1964
42794SOL     OW32837  10.922   2.021   6.601 -0.4172  0.6676 -0.1857
42794SOL    HW132838  10.963   1.979   6.525 -0.4792  0.6882 -0.2306
42794SOL    HW232839  10.990   2.079   6.635 -0.2799  0.4182 -0.0324
42795SOL     OW32840   6.849   0.470   1.873  0.2361  0.5477  0.2032
42795SOL    HW132841   6.895   0.526   1.810  1.7588 -0.5946  0.2498
42795SOL    HW232842   6.872   0.506   1.958 -0.7445  1.2797  0.1786
42796SOL     OW32843   1.490   7.619   3.481 -0.2379  0.0581 -0.2633
42796SOL    HW132844   1.484   7.524   3.482 -1.7973  0.1083 -1.1324
42796SOL    HW232845   1.439   7.646   3.558  1.0493  0.2028  0.5803
42797SOL     OW32846   8.233   4.049   1.408  0.2535 -0.7118 -0.5607
42797SOL    HW132847   8.314   3.997   1.412  0.2127 -0.8192 -1.0559
42797SOL    HW232848   8.263   4.138   1.388  0.1841 -0.9550 -1.7975
42798SOL     OW32849   9.245   3.785   9.389  0.5084 -0.1026  0.1616
42798SOL    HW132850   9.161   3.779   9.342 -0.5106 -2.3691  2.0449
42798SOL    HW232851   9.306   3.734   9.335  0.5038  0.8803 -0.8054
42799SOL     OW32852   3.144   0.371   7.738  0.0688  0.3344 -0.0427
42799SOL    HW132853   3.049   0.357   7.731  0.2091 -0.9173  0.2190
42799SOL    HW232854   3.169   0.327   7.819  0.5518  2.6599  1.1345
42800SOL     OW32855   6.999   4.082   2.251  0.0858  0.6915  0.2863
42800SOL    HW132856   7.043   4.164   2.276  2.5457 -0.3571 -0.3422
42800SOL    HW232857   7.032   4.017   2.313 -0.3789 -0.2029 -0.3919
42801SOL     OW32858   9.294   6.779   6.253  0.3957  0.0557 -0.2839
42801SOL    HW132859   9.335   6.712   6.308 -1.3274 -0.3017  0.6519
42801SOL    HW232860   9.252   6.838   6.314  2.1986  2.3041 -1.0855
42802SOL     OW32861   0.713   8.800   5.097 -0.2221  0.8121 -0.3806
42802SOL    HW132862   0.755   8.757   5.023 -0.9166 -1.6102  0.5525
42802SOL    HW232863   0.623   8.813   5.069 -0.1830  1.0482 -0.4016
42803SOL     OW32864   2.650   0.697   2.890 -0.6313 -0.2471  0.0854
42803SOL    HW132865   2.728   0.687   2.837 -1.5344 -2.5712 -0.9406
42803SOL    HW232866   2.683   0.716   2.978  1.0576 -0.7218 -0.4068
42804SOL     OW32867   6.321   2.463   6.490  0.2610  0.1121  0.1984
42804SOL    HW132868   6.227   2.479   6.504  0.6609  1.8499  1.2821
42804SOL    HW232869   6.364   2.516   6.557  2.1499  2.0482 -2.3561
42805SOL     OW32870   3.192   2.015   3.440 -0.2398  0.4173 -0.4305
42805SOL    HW132871   3.147   2.050   3.363 -1.5516  2.0327  0.9985
42805SOL    HW232872   3.128   2.024   3.511  1.4283  0.2824  1.1426
42806SOL     OW32873   8.594   5.774   7.322  0.2909  0.7113  0.3990
42806SOL    HW132874   8.643   5.842   7.368  1.2549 -0.8424  1.7382
42806SOL    HW232875   8.543   5.731   7.389  0.5266 -0.5958 -0.2277
42807SOL     OW32876   3.307   3.984   2.415  0.1796 -0.1349 -0.3459
42807SOL    HW132877   3.329   4.013   2.327  0.2017  0.2848 -0.2024
42807SOL    HW232878   3.359   4.040   2.473  0.3424 -0.5607 -0.0705
42808SOL     OW32879   6.171   8.945   1.238  0.8744  0.1241 -0.1676
42808SOL    HW132880   6.228   8.869   1.255  0.2665 -0.1254  0.8495
42808SOL    HW232881   6.192   8.971   1.148  2.5423 -0.0023  0.1462
42809SOL     OW32882   5.716   1.476   5.974 -0.0234 -0.6406  0.1346
42809SOL    HW132883   5.676   1.548   6.024  1.2071  0.2981 -0.1928
42809SOL    HW232884   5.696   1.398   6.025 -1.3754 -0.0843  0.5124
42810SOL     OW32885   8.400   7.225   9.163  0.3642  0.7403 -0.6567
42810SOL    HW132886   8.462   7.213   9.235 -1.7872  1.1688  1.3711
42810SOL    HW232887   8.409   7.145   9.110  1.2170 -0.0997  0.7074
42811SOL     OW32888   4.002   2.032   8.471  0.5189  0.3993  0.8368
42811SOL    HW132889   3.953   2.044   8.553  0.0071 -0.1197  0.6149
42811SOL    HW232890   3.938   2.049   8.402  1.1579  1.6400  0.5376
42812SOL     OW32891   0.223   6.480   1.386 -0.5273 -0.2276  0.0994
42812SOL    HW132892   0.302   6.450   1.342 -0.1625  0.9318 -0.0644
42812SOL    HW232893   0.235   6.455   1.478  0.9309  1.5974  0.4717
42813SOL     OW32894   2.696   5.457   1.564 -0.3329 -0.3063  0.2637
42813SOL    HW132895   2.616   5.422   1.525 -0.1126 -0.6126  0.0778
42813SOL    HW232896   2.738   5.381   1.604 -0.3961 -0.0542  0.8262
42814SOL     OW32897   4.089   1.982   1.126  0.4356  0.0127 -0.3180
42814SOL    HW132898   4.070   1.888   1.135 -0.0001 -0.0725 -1.8739
42814SOL    HW232899   4.090   2.014   1.216  0.2196 -1.4103  0.2287
42815SOL     OW32900   4.144   6.914   3.777 -0.1188 -0.4199  0.0111
42815SOL    HW132901   4.211   6.864   3.824  1.2698  1.6476  0.3656
42815SOL    HW232902   4.092   6.955   3.845  0.4770  0.7787 -0.2343
42816SOL     OW32903   0.146   9.025   6.897  0.6048  0.7359 -0.3039
42816SOL    HW132904   0.114   8.939   6.924  0.3168 -0.2095 -3.3096
42816SOL    HW232905   0.068   9.074   6.872  0.8986  1.3067 -0.1339
42817SOL     OW32906   5.913   1.236  10.596  0.5663  0.6294  0.1576
42817SOL    HW132907   5.873   1.237  10.509  2.0730  0.5319 -0.5526
42817SOL    HW232908   5.845   1.272  10.653  0.3188  2.8209 -1.4019
42818SOL     OW32909   4.046   2.642   8.332 -0.3005 -0.0680  0.2563
42818SOL    HW132910   4.008   2.729   8.346  0.9116  0.2510  1.9547
42818SOL    HW232911   3.972   2.582   8.340 -1.0901  0.7600 -0.5456
42819SOL     OW32912   3.867   7.690   9.365  0.3030 -0.5221  0.1141
42819SOL    HW132913   3.783   7.691   9.410 -0.6234  0.3328 -1.5258
42819SOL    HW232914   3.845   7.672   9.273  1.5411  2.4877 -0.9179
42820SOL     OW32915   9.036   4.352   9.613 -0.0608  0.6465  0.0264
42820SOL    HW132916   9.090   4.388   9.683  0.6917 -0.1854 -0.1115
42820SOL    HW232917   9.085   4.276   9.581 -1.1155  0.1227 -0.3872
42821SOL     OW32918   9.914   3.607   2.783 -0.1932 -0.3368  0.0896
42821SOL    HW132919   9.887   3.530   2.733 -1.0090 -0.1713  0.2631
42821SOL    HW232920   9.833   3.645   2.815  0.3024 -0.3618  1.4353
42822SOL     OW32921   0.713   5.370   3.500 -0.1862 -0.2019 -0.4197
42822SOL    HW132922   0.630   5.373   3.547 -0.0599 -0.7113 -0.1560
42822SOL    HW232923   0.760   5.297   3.540  0.6175  0.4324 -0.1747
42823SOL     OW32924   6.176   9.026   2.730 -0.0813 -0.0907  0.3959
42823SOL    HW132925   6.210   9.068   2.651 -0.4448  0.6099  0.6037
42823SOL    HW232926   6.082   9.043   2.727  0.0309  0.8323  1.4931
42824SOL     OW32927   4.822   9.501   2.196 -0.2804 -0.0836 -0.0361
42824SOL    HW132928   4.752   9.448   2.159  0.1843 -0.6213 -0.1654
42824SOL    HW232929   4.810   9.493   2.291 -1.7063  1.6147 -0.0353
42825SOL     OW32930   0.438  10.899   0.453 -0.0385 -0.0754 -0.9784
42825SOL    HW132931   0.440  10.969   0.388 -0.7577 -0.0204 -0.9502
42825SOL    HW232932   0.365  10.922   0.510  1.3013  0.5223  0.5799
42826SOL     OW32933   9.257   9.432  10.700 -0.5059  0.1258  0.3361
42826SOL    HW132934   9.265   9.524  10.725 -0.8382 -0.0719  1.1926
42826SOL    HW232935   9.284   9.383  10.777 -0.5635 -0.4963 -0.0319
42827SOL     OW32936   9.577   9.475   9.097 -0.2728  0.0543 -0.1854
42827SOL    HW132937   9.586   9.535   9.022  0.5895  1.5308  1.0412
42827SOL    HW232938   9.667   9.460   9.126 -0.5773 -0.7618  0.3550
42828SOL     OW32939   6.514   3.765   8.264 -0.5165  0.0096 -0.0188
42828SOL    HW132940   6.590   3.821   8.278  0.5769 -1.0469 -1.3761
42828SOL    HW232941   6.460   3.779   8.341  1.1349  0.6589  1.0934
42829SOL     OW32942   6.084   1.243   1.538 -0.4311  0.2691  0.2257
42829SOL    HW132943   6.115   1.261   1.626  2.0036  0.5339 -0.6109
42829SOL    HW232944   6.007   1.187   1.550 -0.3619  0.5922  2.4917
42830SOL     OW32945   2.735   3.905   0.202 -0.1526  0.5873 -0.3651
42830SOL    HW132946   2.767   3.826   0.158 -1.6142  0.9558 -2.2322
42830SOL    HW232947   2.658   3.876   0.252  0.3071  0.5431  0.3310
42831SOL     OW32948   8.609   4.366   1.542  0.0870 -0.1950 -0.3160
42831SOL    HW132949   8.650   4.389   1.625 -2.6296  2.0068  0.5747
42831SOL    HW232950   8.682   4.344   1.484  2.2741  0.8522  1.8729
42832SOL     OW32951   3.977   5.004   7.782 -0.6979 -0.3146 -0.3244
42832SOL    HW132952   4.035   4.928   7.777 -0.6702 -0.2287 -2.8848
42832SOL    HW232953   3.914   4.991   7.711 -1.4978  1.4233 -0.0046
42833SOL     OW32954   9.830   5.687   1.930  0.4040 -0.3273 -0.7188
42833SOL    HW132955   9.877   5.713   1.851 -1.7701 -1.5175 -2.5139
42833SOL    HW232956   9.870   5.603   1.955  2.5299  1.0411  0.8087
42834SOL     OW32957   4.469   6.789   9.348  0.1812  0.1431 -0.3796
42834SOL    HW132958   4.489   6.771   9.440  0.8492  2.6062  0.0330
42834SOL    HW232959   4.554   6.784   9.304  0.6946  3.1370  0.0059
42835SOL     OW32960   8.022   8.243   5.463  0.2932  0.4116  0.2336
42835SOL    HW132961   8.031   8.185   5.387 -0.0185 -1.5450  1.6097
42835SOL    HW232962   7.946   8.298   5.442 -0.9608 -1.3716 -0.1571
42836SOL     OW32963   4.654   6.470   6.936  0.5693  0.1724 -0.1878
42836SOL    HW132964   4.715   6.540   6.959  3.5104 -2.2391  0.0492
42836SOL    HW232965   4.668   6.403   7.003 -1.4053 -1.0536 -0.9155
42837SOL     OW32966  11.034   6.692   8.343  0.1024  0.2946 -0.3008
42837SOL    HW132967  11.119   6.708   8.304  0.9283 -1.7116  0.5357
42837SOL    HW232968  11.046   6.711   8.436 -0.5010  0.4715 -0.2540
42838SOL     OW32969   4.378   4.499   3.713  0.1733  0.0111 -0.3388
42838SOL    HW132970   4.385   4.585   3.671  0.8081 -0.5567 -1.4596
42838SOL    HW232971   4.468   4.467   3.716 -0.0850 -0.7132 -0.1642
42839SOL     OW32972   5.498   9.377   7.720  0.6399  0.0834  0.0544
42839SOL    HW132973   5.571   9.396   7.662 -0.6228 -0.1326 -1.6976
42839SOL    HW232974   5.485   9.283   7.713 -0.0106  0.1653  0.0860
42840SOL     OW32975   8.715   9.366   5.965 -0.3102 -0.0433 -0.1593
42840SOL    HW132976   8.707   9.344   5.872  1.5199 -0.4077 -0.2641
42840SOL    HW232977   8.674   9.452   5.973 -0.3369  0.0679 -1.3415
42841SOL     OW32978   2.839  10.280   6.493 -0.3103  0.7475 -0.3681
42841SOL    HW132979   2.782  10.352   6.465  0.1570  0.4275 -2.2985
42841SOL    HW232980   2.927  10.316   6.485 -0.1186  0.2667 -0.4271
42842SOL     OW32981   4.935   5.595   2.889 -0.6273  0.0066  0.5482
42842SOL    HW132982   4.842   5.588   2.866 -0.6327  2.2149 -0.3307
42842SOL    HW232983   4.939   5.666   2.953  0.4830  0.0402  0.4581
42843SOL     OW32984   7.534  11.032   0.974  0.2695 -0.0230  0.6132
42843SOL    HW132985   7.556  10.995   1.059 -1.1993 -0.2110  0.9435
42843SOL    HW232986   7.443  11.059   0.983 -0.4438 -1.5292 -1.4010
42844SOL     OW32987   2.587   5.968  10.221 -0.2793  0.1786 -0.1716
42844SOL    HW132988   2.619   6.046  10.265  1.3992 -1.4754  1.7410
42844SOL    HW232989   2.660   5.940  10.165  0.1667 -1.4000  1.1404
42845SOL     OW32990  10.069   6.717   5.628  0.0550  0.0499 -0.0263
42845SOL    HW132991  10.013   6.735   5.552 -0.9942  2.3830  1.2070
42845SOL    HW232992  10.153   6.755   5.604 -0.8425  2.6744  0.6940
42846SOL     OW32993   8.497   7.220  10.023  0.4699  0.5902 -0.7129
42846SOL    HW132994   8.577   7.191  10.065  0.4628 -0.2659 -1.2602
42846SOL    HW232995   8.450   7.139  10.002 -1.2741  1.0922  0.9765
42847SOL     OW32996   8.315   7.285   9.848  0.6981 -0.6022  0.1494
42847SOL    HW132997   8.388   7.272   9.909  1.0023 -0.9115 -0.2725
42847SOL    HW232998   8.349   7.347   9.784  0.3323 -0.1728  0.3644
42848SOL     OW32999   2.454   1.770   8.247 -0.1537  0.1905 -0.1902
42848SOL    HW133000   2.449   1.840   8.312 -0.5833 -0.5521  0.5894
42848SOL    HW233001   2.547   1.759   8.232  0.0479 -0.6468  1.4422
42849SOL     OW33002   8.486   7.237   2.600  0.0326 -0.2083  0.0807
42849SOL    HW133003   8.494   7.255   2.507  1.3270 -3.2912 -0.4944
42849SOL    HW233004   8.559   7.284   2.640  0.2085  0.1111 -0.6090
42850SOL     OW33005   5.296   8.250   4.220 -0.2740 -0.5034 -0.6307
42850SOL    HW133006   5.234   8.267   4.149  1.6338 -1.2183 -2.5624
42850SOL    HW233007   5.312   8.155   4.216 -1.4081 -0.8845  1.9239
42851SOL     OW33008   3.217   1.353   3.620  0.2648  0.1987  0.0092
42851SOL    HW133009   3.134   1.352   3.668 -0.2239 -1.8056 -0.7699
42851SOL    HW233010   3.225   1.443   3.590 -0.1397  1.1671  2.5301
42852SOL     OW33011   8.035   4.559   5.127  0.0371  0.0359  0.3371
42852SOL    HW133012   8.053   4.526   5.215  0.2137 -3.0857 -0.7561
42852SOL    HW233013   7.946   4.595   5.133 -0.9551 -2.3297  1.3101
42853SOL     OW33014   5.751   9.975   4.834 -0.5674  0.1981 -0.2006
42853SOL    HW133015   5.711  10.016   4.758 -0.9366 -0.2400 -0.2525
42853SOL    HW233016   5.769  10.047   4.894  1.1534  0.7350 -1.3164
42854SOL     OW33017   2.274   5.859   7.288 -0.4248  0.1758 -0.2860
42854SOL    HW133018   2.203   5.878   7.350 -0.4593  1.1274 -0.6003
42854SOL    HW233019   2.269   5.764   7.275 -1.5577  0.2016 -0.1915
42855SOL     OW33020   4.847   7.925   9.514  0.3201  1.2740  0.3880
42855SOL    HW133021   4.858   7.832   9.534 -0.4390  1.0398 -0.2505
42855SOL    HW233022   4.760   7.947   9.546 -0.6837  1.0420 -1.9344
42856SOL     OW33023   1.615   4.444  10.969  0.2409 -0.1327  0.1706
42856SOL    HW133024   1.675   4.370  10.980 -0.9678 -0.8995  2.2184
42856SOL    HW233025   1.528   4.404  10.971 -0.4359  0.9424 -2.8402
42857SOL     OW33026   2.101   9.347   9.191 -0.4882  0.3650  0.2242
42857SOL    HW133027   2.117   9.268   9.140  2.5101  1.3562 -0.5214
42857SOL    HW233028   2.020   9.327   9.240 -0.9103 -2.3677 -1.3642
42858SOL     OW33029   6.581  10.122   3.146 -0.1207 -0.0468 -0.0568
42858SOL    HW133030   6.653  10.095   3.203  0.4926  1.0769 -0.2617
42858SOL    HW233031   6.621  10.133   3.060 -1.0149 -1.6123 -0.7160
42859SOL     OW33032   8.517   3.331   0.879 -0.3934 -0.1482 -0.5498
42859SOL    HW133033   8.492   3.337   0.787 -1.5094 -3.3748 -0.5701
42859SOL    HW233034   8.592   3.389   0.888 -1.1912  1.4077 -3.1080
42860SOL     OW33035   9.651   4.802  11.038 -0.2408 -0.7516 -0.1261
42860SOL    HW133036   9.571   4.749  11.045  0.6689 -2.1418  0.0922
42860SOL    HW233037   9.721   4.744  11.069  0.8181  0.5363 -0.0476
42861SOL     OW33038   3.858   6.250   7.797  0.3667  0.4048  0.7990
42861SOL    HW133039   3.783   6.271   7.853 -0.2178  1.1757 -0.2475
42861SOL    HW233040   3.831   6.170   7.752  1.1635 -0.6802  2.1684
42862SOL     OW33041   2.743   0.430   3.565  0.0415 -0.3351  0.5974
42862SOL    HW133042   2.720   0.349   3.610 -0.8353 -0.7159 -0.4970
42862SOL    HW233043   2.660   0.470   3.543  0.4633  0.9146  1.1628
42863SOL     OW33044   6.512   7.860   3.922  0.1452  0.5005 -0.2503
42863SOL    HW133045   6.606   7.846   3.907 -0.0593  0.4532 -1.5698
42863SOL    HW233046   6.489   7.934   3.866 -0.3661  1.3252  1.0029
42864SOL     OW33047   1.305   3.105   1.314 -0.4662 -0.1909 -0.0267
42864SOL    HW133048   1.326   3.102   1.408 -1.5766 -0.5891  0.2233
42864SOL    HW233049   1.215   3.136   1.311 -1.1275 -2.0127 -0.8332
42865SOL     OW33050   3.893   8.283   7.966  0.8185 -0.5063  0.1306
42865SOL    HW133051   3.936   8.215   8.018 -1.2671 -1.5913  0.5341
42865SOL    HW233052   3.865   8.349   8.030 -1.6110 -1.7683  0.4962
42866SOL     OW33053  10.291   2.015   9.035 -0.1611  0.3235 -0.1913
42866SOL    HW133054  10.258   1.956   9.103 -1.7530  0.1608 -1.0424
42866SOL    HW233055  10.377   2.042   9.066 -0.2222 -0.9011  1.1675
42867SOL     OW33056   6.816   8.333   3.668  0.2589 -0.0012  0.1031
42867SOL    HW133057   6.868   8.329   3.587 -1.3659  0.1140 -0.9873
42867SOL    HW233058   6.732   8.294   3.644 -0.5728  0.8626  1.5079
42868SOL     OW33059   0.579   3.010   6.505 -0.7139 -0.0587 -0.3028
42868SOL    HW133060   0.570   2.941   6.571  0.2739 -0.9416 -1.0668
42868SOL    HW233061   0.647   2.978   6.446  0.2447  1.8805 -0.3129
42869SOL     OW33062  10.790   1.071   6.114  0.2111  0.8659  0.3641
42869SOL    HW133063  10.877   1.075   6.074  0.0747  0.3830  0.0104
42869SOL    HW233064  10.730   1.083   6.041 -0.1094 -2.1160  0.0202
42870SOL     OW33065   0.147   4.864   1.085  0.1973  0.4438 -0.1664
42870SOL    HW133066   0.160   4.906   1.170  2.5913 -0.2900 -0.1140
42870SOL    HW233067   0.126   4.773   1.107 -1.2722  0.7158 -0.3551
42871SOL     OW33068  10.114   7.789   8.943 -0.1803  0.1379  0.4924
42871SOL    HW133069  10.145   7.718   8.999  1.2862 -0.8341 -1.4331
42871SOL    HW233070  10.193   7.835   8.916 -0.9849  1.5686  0.4283
42872SOL     OW33071   9.571   0.260   7.530 -0.0703 -0.3912 -0.3564
42872SOL    HW133072   9.486   0.217   7.529 -0.3077  0.0701 -1.0802
42872SOL    HW233073   9.559   0.338   7.475 -0.2210  1.6994  2.3985
42873SOL     OW33074   2.627   1.770   4.380 -0.1316  0.0809  0.1428
42873SOL    HW133075   2.574   1.696   4.409 -0.0757  0.2881  0.8100
42873SOL    HW233076   2.600   1.786   4.290 -0.2547 -0.6480  0.0500
42874SOL     OW33077   2.556  10.567   6.597 -0.1369 -0.3987 -0.2114
42874SOL    HW133078   2.569  10.559   6.502 -0.1193  0.3662 -0.2798
42874SOL    HW233079   2.487  10.633   6.606  1.3690  1.1612  0.3526
42875SOL     OW33080   9.965   2.827   6.586 -0.1191 -0.4811  0.1758
42875SOL    HW133081  10.020   2.904   6.576 -2.2105  0.9644 -1.0705
42875SOL    HW233082   9.946   2.800   6.496 -0.6038 -1.5745  0.5873
42876SOL     OW33083   4.804   4.772  10.268  0.4269 -0.0219  0.1000
42876SOL    HW133084   4.763   4.757  10.353  1.6292  0.3148  0.7597
42876SOL    HW233085   4.841   4.687  10.244 -0.2253 -0.2108 -0.2850
42877SOL     OW33086   5.976  10.039  10.493 -0.0854 -0.1594  0.8533
42877SOL    HW133087   5.976  10.110  10.429 -0.4694  0.5328  1.5932
42877SOL    HW233088   5.883  10.020  10.507  0.0106 -0.6819  0.7997
42878SOL     OW33089   6.819  10.831   6.227 -1.0854 -0.1539  0.4378
42878SOL    HW133090   6.902  10.791   6.203 -1.1088  0.6041 -1.0148
42878SOL    HW233091   6.756  10.797   6.163 -1.7691 -0.2482  1.1472
42879SOL     OW33092   4.150   6.511   4.128  0.2658  0.4220 -0.1675
42879SOL    HW133093   4.161   6.597   4.169 -1.5827  0.6696 -0.1203
42879SOL    HW233094   4.096   6.461   4.189 -1.7218  0.4689 -1.7690
42880SOL     OW33095   1.420   4.403   6.191  0.1945 -0.3199  0.6391
42880SOL    HW133096   1.358   4.451   6.136  0.5108  0.2804  0.7967
42880SOL    HW233097   1.412   4.312   6.162 -0.1438 -0.1185  0.0759
42881SOL     OW33098   3.165   7.086  10.007 -0.0191 -0.1901  0.3157
42881SOL    HW133099   3.218   7.043   9.939 -2.9165 -1.0342 -1.6636
42881SOL    HW233100   3.152   7.018  10.073  1.5591  0.1425  1.0117
42882SOL     OW33101   5.025   2.313   4.479  0.4205 -0.0280  0.0127
42882SOL    HW133102   5.096   2.368   4.511 -0.2610 -0.0702  1.7131
42882SOL    HW233103   4.947   2.344   4.526 -0.5447 -0.4945 -1.2147
42883SOL     OW33104   3.315   5.025   6.661  0.3016  0.2979  0.3550
42883SOL    HW133105   3.290   5.004   6.571 -2.6252  1.6468  0.7351
42883SOL    HW233106   3.292   5.117   6.671  1.4308  0.4168  2.2432
42884SOL     OW33107   0.356   3.047   1.778 -0.3208 -0.5548  0.1549
42884SOL    HW133108   0.386   3.034   1.688 -1.5945 -1.8782 -0.1211
42884SOL    HW233109   0.436   3.056   1.830  0.4745 -1.6071 -0.8611
42885SOL     OW33110   9.651   3.388   9.547 -0.2577 -0.3121  0.1994
42885SOL    HW133111   9.645   3.319   9.481 -1.2417  0.0335 -0.0875
42885SOL    HW233112   9.719   3.446   9.514 -0.7926 -0.1001 -0.5700
42886SOL     OW33113   0.164  11.004   0.725 -0.4492 -0.0687 -0.8038
42886SOL    HW133114   0.161  11.016   0.630 -1.3962 -0.6194 -0.8529
42886SOL    HW233115   0.089  11.053   0.758 -0.5310 -0.4597 -0.4091
42887SOL     OW33116   6.130   8.199   9.876 -0.5538 -0.0688  0.3619
42887SOL    HW133117   6.175   8.280   9.903  0.3577 -1.0476  1.9437
42887SOL    HW233118   6.037   8.217   9.891 -0.7937  1.8820 -2.6618
42888SOL     OW33119   4.706   7.734   8.794 -0.8103 -0.1606  0.1151
42888SOL    HW133120   4.793   7.709   8.763 -0.6555 -0.7733  1.0047
42888SOL    HW233121   4.721   7.811   8.849 -1.0510  0.7473 -1.0350
42889SOL     OW33122  10.007   4.979   9.462  0.6717 -0.1366 -0.1867
42889SOL    HW133123   9.970   4.925   9.532  2.1851  0.7261  1.3437
42889SOL    HW233124   9.931   5.019   9.420 -0.2499  0.3741  1.8395
42890SOL     OW33125   8.461   2.744   4.345 -0.3406  0.1942  0.4246
42890SOL    HW133126   8.424   2.704   4.267  1.8496 -2.3096  0.5203
42890SOL    HW233127   8.404   2.716   4.417 -1.4251  1.1581 -0.0251
42891SOL     OW33128   1.506  10.708   0.946 -0.2377  0.2115 -0.0672
42891SOL    HW133129   1.501  10.695   1.040 -1.3580 -0.1025 -0.1493
42891SOL    HW233130   1.547  10.629   0.912  2.1283  1.2035  0.3176
42892SOL     OW33131   3.388   6.501   2.306  0.2863  0.1291 -0.2713
42892SOL    HW133132   3.408   6.546   2.388  1.6830  0.1368 -0.5965
42892SOL    HW233133   3.417   6.562   2.238  0.6467 -0.5615 -0.7412
42893SOL     OW33134   5.070   2.033   4.491  0.5706 -0.2719  0.1488
42893SOL    HW133135   5.034   2.120   4.473 -0.6075 -0.7509  0.1045
42893SOL    HW233136   5.059   2.021   4.585 -1.0666 -1.1207 -0.1172
42894SOL     OW33137   5.319   6.228  10.842 -0.5557 -0.0471 -0.1329
42894SOL    HW133138   5.379   6.238  10.769 -1.1401 -1.1122 -0.7788
42894SOL    HW233139   5.305   6.134  10.850 -2.1450  0.1645 -0.0067
42895SOL     OW33140   6.948   6.601   2.219  0.3764 -0.1912 -0.7153
42895SOL    HW133141   7.009   6.636   2.284 -0.6673  1.4677 -0.5955
42895SOL    HW233142   6.983   6.630   2.135 -0.4162  1.1114 -0.6237
42896SOL     OW33143   7.976   4.199   5.673 -0.0465  0.4393 -0.2650
42896SOL    HW133144   7.933   4.136   5.616 -1.0777 -0.7142  1.6711
42896SOL    HW233145   8.067   4.171   5.676 -0.3171 -0.4459 -0.1113
42897SOL     OW33146   5.669   8.788  10.681 -0.6054 -0.0066 -0.7379
42897SOL    HW133147   5.677   8.705  10.729  0.3159  0.7909  0.5455
42897SOL    HW233148   5.577   8.811  10.688 -0.1332  1.4575  3.1915
42898SOL     OW33149   2.319   3.819   1.459  0.0542 -0.1476 -0.0572
42898SOL    HW133150   2.283   3.862   1.381  0.1538 -0.2204 -0.1451
42898SOL    HW233151   2.281   3.866   1.533  0.7845  0.6074 -0.1524
42899SOL     OW33152   8.910   0.326   6.194  0.3191 -0.5644  0.1920
42899SOL    HW133153   8.951   0.243   6.215  0.7681 -0.4706 -0.2941
42899SOL    HW233154   8.941   0.386   6.263 -0.4184 -0.9147  0.8403
42900SOL     OW33155   0.855   5.413   8.196 -0.1638 -0.5002 -0.0470
42900SOL    HW133156   0.928   5.472   8.182 -2.0212  1.6722 -1.1642
42900SOL    HW233157   0.812   5.445   8.275 -1.8598  0.4509 -1.3004
42901SOL     OW33158   1.024   4.952   1.641 -0.0918  0.3612 -0.1013
42901SOL    HW133159   0.940   4.924   1.606  0.4127 -1.5911  0.1176
42901SOL    HW233160   1.088   4.894   1.599  0.9776  0.8070  0.8520
42902SOL     OW33161   7.930   2.180   1.879  0.0356 -0.5325  0.6427
42902SOL    HW133162   7.834   2.177   1.878  0.0572 -1.2964  0.1298
42902SOL    HW233163   7.951   2.272   1.865 -0.6428  0.0963  3.1134
42903SOL     OW33164   4.219   1.788   2.029 -0.3630 -0.0841  0.1504
42903SOL    HW133165   4.215   1.692   2.021  2.6836 -0.3169  0.3008
42903SOL    HW233166   4.260   1.803   2.113  1.3096  1.2542 -0.8514
42904SOL     OW33167   4.279   5.738   8.130 -0.1158  0.1656 -0.1200
42904SOL    HW133168   4.291   5.712   8.039 -0.0010 -0.1438 -0.0173
42904SOL    HW233169   4.217   5.810   8.126  0.4543  0.6487 -0.5145
42905SOL     OW33170   4.782   4.645   7.816  0.7891  0.1967 -0.1187
42905SOL    HW133171   4.809   4.554   7.806  1.1402  0.3527 -0.5710
42905SOL    HW233172   4.748   4.650   7.906  1.0427 -0.3049  0.0048
42906SOL     OW33173   9.262   3.110   9.137  0.5171  0.2069  0.4985
42906SOL    HW133174   9.236   3.201   9.123  0.1872  0.1806  0.8910
42906SOL    HW233175   9.180   3.060   9.131  0.6855 -0.0561  0.3483
42907SOL     OW33176   6.634   3.895   7.176 -0.1258 -0.8097  0.1587
42907SOL    HW133177   6.556   3.859   7.218 -0.9927  0.9024  0.1000
42907SOL    HW233178   6.699   3.898   7.246 -0.4058 -1.3747  0.4535
42908SOL     OW33179   0.297   8.391   0.541  1.0289  0.8244  0.0158
42908SOL    HW133180   0.333   8.304   0.554  0.2464  0.3979 -0.6188
42908SOL    HW233181   0.239   8.404   0.616  0.0534  0.2193 -0.6228
42909SOL     OW33182   2.792   9.757   7.219  0.1622  0.5271  0.5289
42909SOL    HW133183   2.871   9.760   7.272 -0.2014  0.2654  1.0907
42909SOL    HW233184   2.824   9.748   7.129  0.7929  1.4963  0.6412
42910SOL     OW33185   6.716  10.519   1.938 -0.2469  0.3469  0.4100
42910SOL    HW133186   6.629  10.559   1.930 -1.3051 -1.4648  1.8642
42910SOL    HW233187   6.730  10.511   2.032  1.0461 -0.3123  0.1810
42911SOL     OW33188   6.941   7.665  10.767 -0.4765 -0.1129 -0.0688
42911SOL    HW133189   6.894   7.715  10.699 -1.2525 -0.5831  0.1085
42911SOL    HW233190   6.979   7.732  10.824 -0.0196  0.2870 -0.8221
42912SOL     OW33191   2.169  10.443   6.037  0.2330  0.3657  0.4188
42912SOL    HW133192   2.232  10.372   6.026 -0.2038 -0.1550  1.1817
42912SOL    HW233193   2.223  10.521   6.049  0.8459  1.0172 -4.4284
42913SOL     OW33194   0.488   8.688   3.263  0.4898  0.6061 -0.0379
42913SOL    HW133195   0.533   8.669   3.346 -0.5828  3.6371  1.3691
42913SOL    HW233196   0.417   8.624   3.260  2.4458 -1.7252 -0.4003
42914SOL     OW33197   1.586   9.061   3.591 -0.3913  0.4434 -0.7999
42914SOL    HW133198   1.526   8.996   3.553  1.0914 -0.3651 -1.9006
42914SOL    HW233199   1.671   9.039   3.552  0.9905  0.4220  2.0358
42915SOL     OW33200  10.820  10.233   4.196 -0.0763  0.4414 -0.0162
42915SOL    HW133201  10.833  10.193   4.282  2.3132  0.8349 -0.1155
42915SOL    HW233202  10.826  10.161   4.134 -0.3011  0.3564  0.0601
42916SOL     OW33203   7.170   3.126   6.038 -0.8096 -0.0546 -0.1139
42916SOL    HW133204   7.187   3.133   5.944 -1.2142 -1.9872 -0.3725
42916SOL    HW233205   7.200   3.210   6.074  0.6879  0.1802 -1.7612
42917SOL     OW33206   8.835   0.690   6.932 -0.7569 -0.5850  0.7751
42917SOL    HW133207   8.753   0.741   6.932  0.3460  1.2625  0.9750
42917SOL    HW233208   8.857   0.682   6.839 -2.4714 -3.4108  0.4984
42918SOL     OW33209  10.247   0.401   2.077  0.0224 -0.2808 -0.0918
42918SOL    HW133210  10.290   0.436   1.999  2.7613  1.7852  2.1522
42918SOL    HW233211  10.195   0.474   2.111  0.0787 -0.6616  0.8318
42919SOL     OW33212   4.585  10.565   9.125  0.3319  0.0383  0.6662
42919SOL    HW133213   4.656  10.524   9.175  2.3193  1.1079 -1.0951
42919SOL    HW233214   4.612  10.656   9.115  0.1665 -0.1277 -2.3758
42920SOL     OW33215   0.365   7.648   7.900  0.2108  0.0164 -0.2850
42920SOL    HW133216   0.385   7.665   7.992 -1.6338 -1.9453  0.5613
42920SOL    HW233217   0.417   7.571   7.878 -0.9086 -0.8056 -0.1855
42921SOL     OW33218   7.355   4.511   9.620  0.7469 -0.6551  0.0976
42921SOL    HW133219   7.392   4.502   9.532 -0.1360 -0.0188 -0.3615
42921SOL    HW233220   7.343   4.605   9.632 -0.8521 -0.8303  0.1363
42922SOL     OW33221   6.741   9.782  10.866 -0.1891 -0.1783 -0.6710
42922SOL    HW133222   6.698   9.868  10.870  0.9967  0.4869 -1.6179
42922SOL    HW233223   6.820   9.797  10.815 -0.7472 -2.1807 -2.2531
42923SOL     OW33224   8.190   3.536   8.534 -0.6299 -0.1800 -0.4109
42923SOL    HW133225   8.238   3.470   8.583 -1.0326 -1.4269 -1.6286
42923SOL    HW233226   8.103   3.498   8.519 -0.8769  0.6094 -1.1464
42924SOL     OW33227  10.334  10.582   8.183  0.4954 -1.0421 -0.6108
42924SOL    HW133228  10.333  10.650   8.116  0.5979  1.4862  1.7943
42924SOL    HW233229  10.246  10.543   8.178 -1.5797  2.7956  1.1439
42925SOL     OW33230   8.464   2.538   1.200 -0.7319  0.4252  0.4607
42925SOL    HW133231   8.484   2.485   1.123 -0.6786  0.6816  0.2984
42925SOL    HW233232   8.529   2.608   1.199 -0.1628 -0.0715  1.2354
42926SOL     OW33233   1.560   1.060   9.391 -0.0013 -0.2225  0.2552
42926SOL    HW133234   1.469   1.079   9.414  0.2636  0.8370  0.4860
42926SOL    HW233235   1.566   0.964   9.395 -0.7653 -0.2481  1.5229
42927SOL     OW33236   7.586   9.955   1.595 -0.3584 -0.7300  0.2102
42927SOL    HW133237   7.596  10.041   1.555  0.2234 -0.9292 -0.0963
42927SOL    HW233238   7.664   9.945   1.649 -0.0456 -1.3576 -0.3326
42928SOL     OW33239   2.292   7.448   4.999 -0.4924  0.0448 -0.1380
42928SOL    HW133240   2.345   7.527   4.986  0.9187 -0.5940  1.5432
42928SOL    HW233241   2.269   7.449   5.092  0.1147 -1.8670  0.0640
42929SOL     OW33242   3.518   4.864   1.506 -0.0981 -0.5078  0.7769
42929SOL    HW133243   3.465   4.795   1.547 -0.3761 -1.4669 -1.0970
42929SOL    HW233244   3.461   4.941   1.508 -0.9652 -1.1204  0.2034
42930SOL     OW33245   2.307   7.157   0.783 -0.8106 -0.1605 -0.0725
42930SOL    HW133246   2.228   7.208   0.769 -1.3162 -0.9083  0.0073
42930SOL    HW233247   2.338   7.184   0.870 -1.4428 -0.4601  0.2554
42931SOL     OW33248   1.838   6.006   6.680 -0.5124 -0.0002  0.6294
42931SOL    HW133249   1.878   5.921   6.701 -1.0578 -0.0387  1.5766
42931SOL    HW233250   1.881   6.068   6.739 -0.6732  0.2466  0.4892
42932SOL     OW33251   0.314   7.166   2.693 -0.0290 -0.0678 -0.4197
42932SOL    HW133252   0.393   7.191   2.646 -1.2203 -0.4079 -2.7372
42932SOL    HW233253   0.263   7.247   2.698 -0.1903 -0.1796 -0.2698
42933SOL     OW33254   7.789   5.904   7.457 -0.6768  0.2420  0.4062
42933SOL    HW133255   7.852   5.959   7.502 -0.7919 -0.9169  2.0741
42933SOL    HW233256   7.714   5.899   7.517 -1.3127 -0.4318 -0.4154
42934SOL     OW33257  10.575   5.198   8.757  0.4170  0.2630 -0.4162
42934SOL    HW133258  10.611   5.276   8.714 -1.1484  1.1619 -0.1827
42934SOL    HW233259  10.481   5.205   8.744  0.1592 -1.0404  0.5508
42935SOL     OW33260  10.695   6.059  10.974 -0.2092  0.3912  0.0993
42935SOL    HW133261  10.726   6.015  10.894  1.4910  1.5276  0.1047
42935SOL    HW233262  10.609   6.019  10.990 -0.2071 -0.5009 -1.7874
42936SOL     OW33263   4.933   3.206  10.644 -0.3758 -0.4995 -0.0087
42936SOL    HW133264   4.923   3.244  10.731 -0.9964  0.2416 -0.3920
42936SOL    HW233265   5.000   3.139  10.655 -0.0225 -0.0145  0.9163
42937SOL     OW33266   9.523   9.047   7.854  0.2892 -0.1218 -0.8910
42937SOL    HW133267   9.499   9.138   7.833  0.4468 -0.3113 -1.9773
42937SOL    HW233268   9.562   9.052   7.941 -0.4681  0.7233 -0.5770
42938SOL     OW33269   7.555   4.159   2.905  0.0798  0.3437  0.0399
42938SOL    HW133270   7.648   4.158   2.884  0.3078 -1.4452  0.9391
42938SOL    HW233271   7.533   4.067   2.922 -1.6455  0.8379  0.7047
42939SOL     OW33272   7.791   4.837   8.054  0.2766  0.0610 -0.3947
42939SOL    HW133273   7.749   4.764   8.100 -1.0436  0.6812 -0.5764
42939SOL    HW233274   7.721   4.877   8.003  0.9233  1.5780 -0.1559
42940SOL     OW33275   9.735   2.953  10.668 -0.2472  0.6171  0.0663
42940SOL    HW133276   9.791   2.881  10.640  0.6896  1.2982  0.1383
42940SOL    HW233277   9.728   3.010  10.591 -0.8633  0.5206  0.0499
42941SOL     OW33278   3.832   8.524   3.404 -0.3516 -0.6627 -0.3089
42941SOL    HW133279   3.866   8.457   3.345  0.4436 -1.0178  0.5277
42941SOL    HW233280   3.878   8.604   3.381 -0.6902 -0.5897 -0.7489
42942SOL     OW33281   1.603   8.383   9.102 -0.1487 -0.4150  0.4888
42942SOL    HW133282   1.604   8.288   9.094  3.2174 -0.4845 -0.1071
42942SOL    HW233283   1.594   8.415   9.012 -0.1219 -0.2283  0.5506
42943SOL     OW33284   7.059   3.858   8.449  0.8834  0.4454  0.3866
42943SOL    HW133285   7.042   3.878   8.541  1.5325 -0.3129  0.6768
42943SOL    HW233286   7.089   3.941   8.412  3.0445  0.2149  1.4541
42944SOL     OW33287   1.713   2.086   5.847  0.1112  0.1480  0.2356
42944SOL    HW133288   1.695   2.160   5.905 -0.6732 -0.9307  1.4253
42944SOL    HW233289   1.786   2.115   5.793  0.0195  1.6716  0.8737
42945SOL     OW33290   8.430   3.984   7.218  0.3799 -0.7344 -0.5419
42945SOL    HW133291   8.519   3.977   7.252  0.2505  3.0542  1.1087
42945SOL    HW233292   8.376   3.936   7.280  0.9941 -0.6715  0.0544
42946SOL     OW33293   8.851   5.388   2.868  0.5219  0.1059  0.2469
42946SOL    HW133294   8.944   5.381   2.888  0.6106  0.0527 -0.1749
42946SOL    HW233295   8.807   5.378   2.952  1.0131  3.4553  1.0366
42947SOL     OW33296   4.273   6.922  10.004  0.1458 -0.3762 -0.4299
42947SOL    HW133297   4.229   6.848  10.046 -0.3033 -0.5004 -1.1009
42947SOL    HW233298   4.352   6.885   9.966 -0.7913 -0.8410 -2.0234
42948SOL     OW33299   8.660   0.582   5.366 -0.2889  0.3256  0.1582
42948SOL    HW133300   8.648   0.511   5.429  0.8991  0.2153  0.2927
42948SOL    HW233301   8.603   0.652   5.398 -0.4231 -0.0732  0.8156
42949SOL     OW33302   5.152   3.107   3.057  0.0779 -0.2334 -0.1555
42949SOL    HW133303   5.133   3.016   3.080  1.3026  0.1611  2.8983
42949SOL    HW233304   5.077   3.156   3.089  0.3828  0.0334  0.1549
42950SOL     OW33305   7.253   0.267  10.529 -0.1475  0.7578 -0.1178
42950SOL    HW133306   7.178   0.242  10.582 -0.2142  0.0586 -0.5305
42950SOL    HW233307   7.323   0.284  10.592 -0.2345 -0.0335  0.1985
42951SOL     OW33308   7.401   7.240  10.892 -0.0225 -0.2781 -0.5799
42951SOL    HW133309   7.381   7.283  10.809  0.7393 -1.5488 -1.4680
42951SOL    HW233310   7.492   7.211  10.882  0.5064  0.6132  1.1979
42952SOL     OW33311   6.287   1.358   9.348 -0.5229 -0.7149 -0.1371
42952SOL    HW133312   6.255   1.316   9.268 -2.0163 -0.3933  0.2545
42952SOL    HW233313   6.311   1.285   9.405 -1.1776 -0.9972 -0.2117
42953SOL     OW33314   3.956   3.847   6.268  0.0422 -0.0868  0.3682
42953SOL    HW133315   4.045   3.829   6.237  0.3976 -0.8311  1.7552
42953SOL    HW233316   3.945   3.941   6.255  0.3011 -0.2924 -1.6245
42954SOL     OW33317   4.233   5.740   7.562 -0.5562  0.2892 -0.2151
42954SOL    HW133318   4.203   5.661   7.606  1.5941  0.5713  1.9814
42954SOL    HW233319   4.308   5.711   7.510 -1.6416  0.3989 -1.9221
42955SOL     OW33320   5.438   0.026   2.512 -0.8695 -0.2826  0.1033
42955SOL    HW133321   5.344   0.041   2.507 -1.0022 -1.4646 -2.5775
42955SOL    HW233322   5.476   0.114   2.511 -1.9109  0.2250 -2.2874
42956SOL     OW33323   6.505   7.389   3.125  0.1324  0.3282  0.3207
42956SOL    HW133324   6.465   7.320   3.177  0.0263  0.8214  0.9063
42956SOL    HW233325   6.437   7.456   3.117  0.7459  1.0876  1.1534
42957SOL     OW33326   3.233   8.950   1.875  0.7513  0.5824 -0.1218
42957SOL    HW133327   3.143   8.979   1.860  0.2030 -1.3515 -0.8064
42957SOL    HW233328   3.227   8.891   1.951  1.0974 -0.9248 -1.2158
42958SOL     OW33329   0.788   9.798   5.776  0.0008  0.1432 -0.2136
42958SOL    HW133330   0.714   9.739   5.757  0.9980 -0.8641 -1.1719
42958SOL    HW233331   0.768   9.878   5.729 -1.1262  0.3961  0.6628
42959SOL     OW33332   7.325   5.726   2.781  0.1736  0.4527 -0.7848
42959SOL    HW133333   7.252   5.765   2.733  0.2492 -0.3341 -1.5741
42959SOL    HW233334   7.287   5.702   2.866 -0.4507  0.2275 -1.1163
42960SOL     OW33335   9.987   5.652   9.273  0.3757  0.2614 -1.0178
42960SOL    HW133336   9.934   5.662   9.194  2.1120  0.5105 -2.2131
42960SOL    HW233337   9.935   5.692   9.342 -1.8070 -1.1918 -1.7137
42961SOL     OW33338   4.419   1.486   3.545 -0.1362  0.6065 -0.1783
42961SOL    HW133339   4.502   1.522   3.511  0.3884  0.3382  0.7687
42961SOL    HW233340   4.439   1.465   3.636 -0.7225 -1.1576 -0.4302
42962SOL     OW33341   1.063   9.875  10.124  0.3067  0.0975 -0.3420
42962SOL    HW133342   1.088   9.795  10.169  1.1592  0.3477 -0.3595
42962SOL    HW233343   1.013   9.845  10.048  0.5755 -0.4193 -0.3197
42963SOL     OW33344   3.823   9.542   6.825  0.1726 -0.0890 -0.0473
42963SOL    HW133345   3.731   9.556   6.803 -0.0571 -0.7912  0.4383
42963SOL    HW233346   3.847   9.462   6.779  0.8394  0.6193 -0.9795
42964SOL     OW33347   6.454   0.693   5.226  1.0320 -0.6538 -0.2383
42964SOL    HW133348   6.524   0.631   5.207  0.0306 -1.8460 -0.1796
42964SOL    HW233349   6.416   0.662   5.308 -0.1069 -0.5461 -0.7130
42965SOL     OW33350   4.541  10.906   5.253  0.1083  0.2799 -0.8019
42965SOL    HW133351   4.610  10.855   5.295  0.2515 -0.0825 -1.4553
42965SOL    HW233352   4.532  10.984   5.307  0.8478  0.2069 -0.5598
42966SOL     OW33353   1.247   6.478  10.593 -0.0424 -0.2307 -0.5056
42966SOL    HW133354   1.158   6.508  10.612 -0.6784 -1.6501 -1.0879
42966SOL    HW233355   1.289   6.468  10.679 -1.5679 -2.7413  0.0565
42967SOL     OW33356   7.901   1.579   2.303 -0.5658 -0.2592 -0.2858
42967SOL    HW133357   7.949   1.656   2.332  1.3410 -1.7949  0.8930
42967SOL    HW233358   7.853   1.550   2.380  1.2137 -1.9602  0.2802
42968SOL     OW33359   9.512   3.854   8.143  0.2558 -0.6231 -0.3651
42968SOL    HW133360   9.475   3.786   8.199 -1.6267  1.1206  0.6426
42968SOL    HW233361   9.604   3.860   8.171 -0.2017 -0.9695  1.3602
42969SOL     OW33362   8.719   6.971   9.197 -0.0257  0.1534  0.1648
42969SOL    HW133363   8.727   6.882   9.230  1.2479  0.2682  0.2100
42969SOL    HW233364   8.762   6.970   9.112  0.5960  0.8573  0.4537
42970SOL     OW33365  10.228   9.435   9.626 -0.6316 -0.2054 -0.1757
42970SOL    HW133366  10.183   9.416   9.708 -0.0788 -2.0759 -0.2534
42970SOL    HW233367  10.309   9.478   9.652 -0.8920  0.0822  0.1748
42971SOL     OW33368   4.365   8.728   0.934  0.2261 -0.5086 -0.3073
42971SOL    HW133369   4.332   8.811   0.970 -0.4220  0.0855 -2.1591
42971SOL    HW233370   4.460   8.733   0.946  0.2957  0.9461 -1.1866
42972SOL     OW33371   0.571   1.216   0.308  0.2471  0.1062  0.1025
42972SOL    HW133372   0.593   1.267   0.385  2.0729 -1.5641  0.7725
42972SOL    HW233373   0.614   1.131   0.322  0.4401 -0.3498 -2.6148
42973SOL     OW33374  10.744   4.172   9.677 -0.2366  0.2666  0.2935
42973SOL    HW133375  10.747   4.080   9.652 -2.3670 -0.0128  0.8758
42973SOL    HW233376  10.744   4.170   9.773 -0.9211  0.8338  0.3081
42974SOL     OW33377   5.708   9.227   7.894 -0.3094 -0.1291 -0.0183
42974SOL    HW133378   5.623   9.270   7.883 -1.1632 -1.6604  0.1663
42974SOL    HW233379   5.740   9.213   7.805  0.0813  1.0414 -0.0734
42975SOL     OW33380   1.155   1.332   7.343 -0.0452 -0.3717 -0.1518
42975SOL    HW133381   1.218   1.264   7.367  0.4627 -0.0294 -0.5153
42975SOL    HW233382   1.071   1.286   7.339  0.0911 -0.7305  0.8239
42976SOL     OW33383   1.121  10.193   2.872 -0.4336  0.3939  0.8200
42976SOL    HW133384   1.090  10.241   2.795 -1.0787 -1.1616  0.0799
42976SOL    HW233385   1.052  10.129   2.890 -0.4307  0.9015  2.8907
42977SOL     OW33386   3.432   0.425   1.310  0.1604 -0.4192 -0.1754
42977SOL    HW133387   3.400   0.454   1.225  0.7738  2.1342  0.3983
42977SOL    HW233388   3.408   0.495   1.371 -0.2247 -2.1304  1.8009
42978SOL     OW33389   2.085   9.623  10.075  0.1061 -0.3723  0.2157
42978SOL    HW133390   2.001   9.607  10.032  1.0488 -0.4917 -1.6924
42978SOL    HW233391   2.081   9.714  10.103 -0.9893 -0.6316  0.9689
42979SOL     OW33392   5.466   3.010   9.387  0.0185 -0.3525  0.0801
42979SOL    HW133393   5.382   2.979   9.353 -0.5767  1.8931 -0.6742
42979SOL    HW233394   5.530   2.985   9.320 -0.4025 -0.1648 -0.3973
42980SOL     OW33395   7.988   2.173   3.382  0.2465  0.8015  0.5261
42980SOL    HW133396   7.921   2.240   3.399 -1.1917 -0.1670 -0.9854
42980SOL    HW233397   8.071   2.218   3.395 -0.6617  2.0490  2.5319
42981SOL     OW33398  10.594   5.481   8.779 -0.7813 -0.3254 -0.2827
42981SOL    HW133399  10.529   5.525   8.834 -0.2036  0.8324 -0.4927
42981SOL    HW233400  10.578   5.515   8.691  0.4551  0.4212 -0.2429
42982SOL     OW33401   5.335  11.055   0.706  0.6497 -0.3348  0.1571
42982SOL    HW133402   5.244  11.085   0.710  0.8118  0.3537 -0.8973
42982SOL    HW233403   5.387  11.135   0.702  1.2537 -0.7323 -0.1679
42983SOL     OW33404   4.279   5.858   0.066 -0.4966  0.3721  0.0389
42983SOL    HW133405   4.255   5.780   0.115  0.4706  0.3143  0.4513
42983SOL    HW233406   4.368   5.878   0.095  0.6896 -0.4437 -2.6374
42984SOL     OW33407   9.024   5.989   4.419  0.4067  0.2074 -0.5114
42984SOL    HW133408   9.098   5.997   4.480  2.9432 -0.8258 -3.1810
42984SOL    HW233409   9.019   5.896   4.398 -0.8705  0.4226 -1.2919
42985SOL     OW33410   9.444   1.266   4.361  0.7287  0.5491 -0.3253
42985SOL    HW133411   9.531   1.299   4.385  1.8534 -2.4579  0.1444
42985SOL    HW233412   9.420   1.315   4.283  1.9267  2.8413  0.6550
42986SOL     OW33413   0.355   8.607   8.360  0.6827  0.5960  0.0214
42986SOL    HW133414   0.445   8.615   8.329 -0.0014  2.5875 -1.6202
42986SOL    HW233415   0.309   8.563   8.289 -0.1236  1.7878 -0.2159
42987SOL     OW33416   1.934   6.454   0.730  0.4682  0.8240  0.2292
42987SOL    HW133417   1.872   6.381   0.718 -0.0829  1.2422  0.4801
42987SOL    HW233418   1.994   6.423   0.798  1.0160  0.1139 -0.5488
42988SOL     OW33419   1.058   0.405   5.048  0.0477 -0.0925 -0.5106
42988SOL    HW133420   0.978   0.377   5.004  0.5840 -0.3788 -1.3176
42988SOL    HW233421   1.126   0.399   4.981  0.9932 -1.0920  0.5003
42989SOL     OW33422   4.206   3.645   0.001 -0.4497 -0.0410 -0.3808
42989SOL    HW133423   4.269   3.575  -0.017 -0.6889 -0.7593  1.3917
42989SOL    HW233424   4.219   3.708  -0.070  1.0571 -0.9977 -0.9947
42990SOL     OW33425   3.020   4.541   0.468 -0.0621 -0.4448 -0.0041
42990SOL    HW133426   2.949   4.513   0.410  0.7142 -3.2193  0.2684
42990SOL    HW233427   3.065   4.610   0.418 -2.3486  0.7591 -0.5398
42991SOL     OW33428   8.389   8.910   9.536 -0.6475 -0.2035  0.3514
42991SOL    HW133429   8.442   8.839   9.571 -2.4237 -0.5825  2.5501
42991SOL    HW233430   8.365   8.881   9.448  0.3970 -1.3201  0.4042
42992SOL     OW33431   7.452   7.993   0.008 -0.2544  0.1982  0.1679
42992SOL    HW133432   7.533   7.945  -0.010 -0.5417  0.0586 -0.8105
42992SOL    HW233433   7.411   8.005  -0.078 -1.5331 -0.1872  0.6942
42993SOL     OW33434   3.604   6.033   1.928 -0.2106  0.1962 -0.5080
42993SOL    HW133435   3.693   6.031   1.894  0.3303  0.7432  0.7995
42993SOL    HW233436   3.601   6.110   1.985 -1.1390 -0.4957  0.4442
42994SOL     OW33437   6.142   8.482   3.943  0.7626 -0.2760  0.0631
42994SOL    HW133438   6.154   8.574   3.921 -0.4971 -0.6277 -2.4538
42994SOL    HW233439   6.120   8.482   4.036  1.0162  1.9281  0.1722
42995SOL     OW33440  10.369   7.179   7.450 -0.4307 -0.1571  0.0337
42995SOL    HW133441  10.301   7.235   7.487 -0.4740 -0.1961  0.0141
42995SOL    HW233442  10.449   7.204   7.496 -0.2998  0.4541 -0.5264
42996SOL     OW33443   7.722   5.769   6.500 -0.1487 -0.0348 -0.1258
42996SOL    HW133444   7.694   5.860   6.490  0.1402  0.2056  1.1202
42996SOL    HW233445   7.817   5.772   6.490 -0.0354 -0.0387  0.8259
42997SOL     OW33446   9.588   7.275   7.463  0.0564 -0.2763  0.3459
42997SOL    HW133447   9.546   7.308   7.383  0.0442  0.6838  0.7284
42997SOL    HW233448   9.561   7.337   7.531  1.9305  0.2615  0.6465
42998SOL     OW33449   3.722  10.805  10.034  0.2887 -0.3105 -0.0489
42998SOL    HW133450   3.716  10.884  10.087  0.4307  0.6435 -1.3987
42998SOL    HW233451   3.816  10.794  10.018  0.4039 -1.5930  1.3018
42999SOL     OW33452   1.026   5.029  10.489 -1.0192  0.3802  0.0919
42999SOL    HW133453   0.950   5.045  10.546 -1.1671  0.2170 -0.0589
42999SOL    HW233454   0.989   5.021  10.402 -1.0954 -1.9108  0.2864
43000SOL     OW33455   1.055   5.198   8.362  0.1350  0.3269 -0.2916
43000SOL    HW133456   1.094   5.133   8.304  1.2150 -1.2230  2.0308
43000SOL    HW233457   0.962   5.198   8.340  0.6275  0.6322 -2.7129
43001SOL     OW33458   4.365   7.209   6.993 -0.1842  0.2291  0.1231
43001SOL    HW133459   4.366   7.118   7.025  0.5769  0.0457 -0.3860
43001SOL    HW233460   4.285   7.216   6.942 -0.2647 -0.1488  0.1944
43002SOL     OW33461   0.516   9.013   5.354  0.0064 -0.4678  0.2315
43002SOL    HW133462   0.502   9.025   5.448  1.8637  0.8440  0.3945
43002SOL    HW233463   0.530   8.919   5.343 -0.3363 -0.6441  1.2374
43003SOL     OW33464   7.621   5.188   4.101  0.1784  0.3972 -0.1340
43003SOL    HW133465   7.700   5.228   4.065  0.6819  0.4816  1.0219
43003SOL    HW233466   7.629   5.095   4.078  1.0822  0.2393  0.7660
43004SOL     OW33467   7.903   2.696   6.544 -0.0269  0.6365  0.3515
43004SOL    HW133468   7.990   2.731   6.525 -0.2310  0.1868 -1.6907
43004SOL    HW233469   7.848   2.728   6.472 -1.3267  0.0618  1.0468
43005SOL     OW33470   2.603   4.623   0.769  0.9462  0.5434  0.6923
43005SOL    HW133471   2.668   4.677   0.815  1.0646  0.1255  1.0235
43005SOL    HW233472   2.647   4.538   0.758  0.6630  0.4325  0.4134
43006SOL     OW33473   0.911   2.870   8.896 -0.6708 -0.4345 -0.8958
43006SOL    HW133474   0.989   2.861   8.840  0.7875 -1.5398  1.1675
43006SOL    HW233475   0.846   2.814   8.855  0.2623 -1.0410 -1.6084
43007SOL     OW33476   4.493   1.482   1.705  1.0908  0.9590  0.9560
43007SOL    HW133477   4.588   1.472   1.695  0.9527 -0.5246  0.7621
43007SOL    HW233478   4.474   1.443   1.790  0.4590 -0.5651  0.1690
43008SOL     OW33479   7.587   4.118   9.935 -0.9912 -0.2504 -0.3368
43008SOL    HW133480   7.553   4.206   9.916 -2.7266 -0.6112  0.8479
43008SOL    HW233481   7.585   4.113  10.031  1.2268 -0.8143 -0.2693
43009SOL     OW33482   9.934   3.425   7.779  0.0748 -0.3362 -0.5434
43009SOL    HW133483   9.883   3.505   7.771  1.2211  0.6365  1.2474
43009SOL    HW233484   9.875   3.363   7.821  0.3046  0.7952  1.5628
43010SOL     OW33485   1.443   6.360   5.455 -0.2800  0.2038 -0.0242
43010SOL    HW133486   1.460   6.319   5.539 -0.0195  0.2810 -0.0403
43010SOL    HW233487   1.378   6.428   5.474  0.0819  0.4939  0.1840
43011SOL     OW33488   6.405   8.309   2.716 -0.1852  0.2722 -0.6924
43011SOL    HW133489   6.353   8.377   2.760  0.6459  0.7564 -0.4417
43011SOL    HW233490   6.367   8.303   2.629 -0.7609  0.5051 -0.4647
43012SOL     OW33491   7.275   3.785   1.780  0.7033 -0.7990 -0.1313
43012SOL    HW133492   7.369   3.775   1.793  0.3571 -1.7919  2.1596
43012SOL    HW233493   7.236   3.716   1.834 -1.4285  1.9484  2.1159
43013SOL     OW33494   2.013   6.504   2.844  0.2694 -0.6876 -0.2219
43013SOL    HW133495   1.922   6.505   2.812 -1.0984 -0.9887  3.2547
43013SOL    HW233496   2.063   6.468   2.771 -2.0854  0.9667 -2.8777
43014SOL     OW33497   3.781   4.628   0.533 -0.0502 -0.3845  0.7810
43014SOL    HW133498   3.787   4.562   0.602  0.6687  0.2818  1.3697
43014SOL    HW233499   3.687   4.644   0.525 -0.1000  0.8128  2.8889
43015SOL     OW33500   2.304   8.982  10.970  0.3645  0.1182 -0.6358
43015SOL    HW133501   2.336   9.038  11.040 -1.8923  0.6716  0.0086
43015SOL    HW233502   2.332   8.894  10.995 -0.0669  0.3637  0.7779
43016SOL     OW33503   4.119   1.067   1.840  0.2927  0.0108  0.4270
43016SOL    HW133504   4.113   1.051   1.746  0.4520 -0.0411  0.4262
43016SOL    HW233505   4.065   0.999   1.880  1.0366 -0.5870  0.4285
43017SOL     OW33506   8.705   6.636   6.508 -0.5999 -0.6086  0.0797
43017SOL    HW133507   8.753   6.713   6.475  1.4307 -1.7503  0.2142
43017SOL    HW233508   8.729   6.631   6.601 -0.4655 -1.5603  0.0037
43018SOL     OW33509   7.286   7.789   7.582  0.5966 -0.6187 -0.5862
43018SOL    HW133510   7.333   7.867   7.551 -0.1949 -0.1022 -0.5226
43018SOL    HW233511   7.229   7.765   7.509 -1.0042  0.3803  0.2818
43019SOL     OW33512  10.221   7.634   9.697 -0.0739  0.1372  0.4034
43019SOL    HW133513  10.134   7.673   9.690 -0.3366 -0.4876  0.1209
43019SOL    HW233514  10.242   7.606   9.608  0.8677  1.2228  0.2641
43020SOL     OW33515   8.120   9.341   8.960  0.1765  0.0884 -0.0253
43020SOL    HW133516   8.050   9.402   8.984 -0.3208 -0.3883 -0.2425
43020SOL    HW233517   8.191   9.396   8.930 -0.0015  0.5961  0.4641
43021SOL     OW33518   3.712   3.714   6.574  0.4966 -0.1010  0.4208
43021SOL    HW133519   3.657   3.761   6.636 -1.2618 -3.4489  1.6688
43021SOL    HW233520   3.654   3.693   6.501  1.1304 -0.5219  0.0211
43022SOL     OW33521   3.113   3.496   6.543  0.4199 -0.7292  0.0452
43022SOL    HW133522   3.103   3.549   6.464  1.6125 -0.9191 -0.2513
43022SOL    HW233523   3.049   3.426   6.533  0.8255 -0.9743 -0.9546
43023SOL     OW33524   9.563   3.465   3.159 -0.1091 -0.1437 -0.8164
43023SOL    HW133525   9.503   3.421   3.100 -0.6127 -3.9447  2.1101
43023SOL    HW233526   9.648   3.422   3.144  0.0663 -0.1930  0.2155
43024SOL     OW33527   0.134   4.149   1.252 -0.5086  0.3416  0.6661
43024SOL    HW133528   0.089   4.210   1.311 -2.3457 -1.0368  0.7778
43024SOL    HW233529   0.082   4.151   1.172  0.3607  0.1268  0.0924
43025SOL     OW33530   2.969   9.908   0.266  0.3177  0.6913  0.3247
43025SOL    HW133531   3.036   9.944   0.325 -0.5426  0.6489  1.3572
43025SOL    HW233532   2.944   9.981   0.210  0.7895  0.8717  0.3448
43026SOL     OW33533   9.878  10.841   3.180 -0.6413 -0.1256  0.6649
43026SOL    HW133534   9.823  10.917   3.158 -1.1647  0.0021  2.2940
43026SOL    HW233535   9.960  10.857   3.133 -1.4128  0.4801 -0.5508
43027SOL     OW33536   3.844   1.829   8.976  0.0544 -0.2997 -0.5848
43027SOL    HW133537   3.890   1.783   8.906  0.0066 -0.7487 -0.3265
43027SOL    HW233538   3.758   1.850   8.939  0.1887 -0.1493 -0.8089
43028SOL     OW33539  10.863   3.185   9.419  0.3372 -0.1307  0.5986
43028SOL    HW133540  10.830   3.258   9.367 -1.5714 -1.8647 -0.8260
43028SOL    HW233541  10.796   3.172   9.487  0.2433 -1.0245  0.3482
43029SOL     OW33542   5.096   9.508   2.355  0.0778  0.2570 -0.2395
43029SOL    HW133543   5.146   9.509   2.274 -0.7859 -0.5056 -0.7940
43029SOL    HW233544   5.008   9.535   2.330 -0.2974 -0.3637  0.3697
43030SOL     OW33545   2.897   6.223   2.662  0.0028 -0.2577 -0.2547
43030SOL    HW133546   2.858   6.136   2.659 -0.9836  0.1307  0.7868
43030SOL    HW233547   2.823   6.283   2.655  0.6271  0.5087 -0.4915
43031SOL     OW33548   8.941  10.080   2.700  0.0423 -0.0788 -0.3447
43031SOL    HW133549   8.999  10.105   2.627  0.3674 -0.5630 -0.2564
43031SOL    HW233550   8.866  10.139   2.691  0.1392 -0.0409 -0.9943
43032SOL     OW33551   2.511   2.381   2.737  0.6135  0.1748  0.0686
43032SOL    HW133552   2.460   2.363   2.658 -0.3837  1.1557  0.4515
43032SOL    HW233553   2.446   2.381   2.807  1.3719  0.0703  0.7846
43033SOL     OW33554   0.366   7.508  10.261  0.0448 -0.1118  0.3373
43033SOL    HW133555   0.453   7.482  10.292  0.2907  0.1931 -0.0832
43033SOL    HW233556   0.326   7.427  10.230  0.5966 -0.0906 -0.4674
43034SOL     OW33557   0.789  10.309   1.327 -0.5786 -0.2538 -0.1389
43034SOL    HW133558   0.726  10.326   1.398  0.9976  0.9155  1.0757
43034SOL    HW233559   0.852  10.248   1.366 -0.0638 -0.1173 -0.7490
43035SOL     OW33560   6.272   1.249  10.370 -0.0318  0.4096 -0.3869
43035SOL    HW133561   6.206   1.180  10.363  1.8166 -1.4059 -0.6086
43035SOL    HW233562   6.229   1.318  10.421 -1.7033 -1.1902  0.4558
43036SOL     OW33563   9.200   9.830   0.996 -0.0435  0.3643  0.3459
43036SOL    HW133564   9.112   9.864   0.977  0.3025  1.1387  0.0813
43036SOL    HW233565   9.255   9.908   1.000  0.4130 -0.0122  1.7830
43037SOL     OW33566   5.658   0.281   4.505  0.7401 -0.5179  0.1675
43037SOL    HW133567   5.635   0.344   4.574  0.6217 -0.2873 -0.0836
43037SOL    HW233568   5.714   0.331   4.446 -1.0962  0.0141 -1.2182
43038SOL     OW33569   9.633   3.408   8.156  0.0869  0.2665  0.5713
43038SOL    HW133570   9.696   3.337   8.159  1.4266  1.4004  0.6444
43038SOL    HW233571   9.638   3.448   8.243  0.9676  1.7225 -0.0891
43039SOL     OW33572  10.964   4.687   3.432  0.0444 -0.4250  0.3322
43039SOL    HW133573  10.906   4.611   3.435 -1.3094  0.5765  0.6310
43039SOL    HW233574  10.923   4.745   3.367 -0.9292  1.5273  2.5270
43040SOL     OW33575   7.511   8.661  10.210  0.2824  0.6039  0.3947
43040SOL    HW133576   7.524   8.680  10.303  3.5130  0.3334  0.1252
43040SOL    HW233577   7.553   8.576  10.197 -0.6564  0.3465 -1.2001
43041SOL     OW33578   8.914   9.912   0.749  0.0297  0.5012  0.2623
43041SOL    HW133579   8.971   9.970   0.800  1.7249 -1.1808  0.3866
43041SOL    HW233580   8.919   9.946   0.660  0.9748  0.6027  0.3433
43042SOL     OW33581   0.450   3.161   9.522 -0.0098  0.0738 -0.0311
43042SOL    HW133582   0.409   3.181   9.607  2.3936 -1.9598  1.7578
43042SOL    HW233583   0.413   3.076   9.497  2.3412 -1.4078  1.2205
43043SOL     OW33584  10.611   9.216   6.685  0.3582 -0.3870  0.1025
43043SOL    HW133585  10.672   9.164   6.737  2.8294  2.2685  0.1264
43043SOL    HW233586  10.666   9.260   6.620 -2.0399 -0.2190 -1.9865
43044SOL     OW33587   9.566   9.951   7.356 -0.1091 -0.1275 -0.0561
43044SOL    HW133588   9.611   9.867   7.353 -0.6088 -0.6351  3.1152
43044SOL    HW233589   9.636  10.016   7.352  0.4841 -0.7672 -0.2339
43045SOL     OW33590   3.172   9.378   3.814  0.3329 -0.6235  0.0559
43045SOL    HW133591   3.164   9.473   3.801 -0.9223 -0.9065 -1.6310
43045SOL    HW233592   3.153   9.365   3.907  0.7477  0.7867  0.3691
43046SOL     OW33593   3.582   2.534   7.722 -0.0445  0.6780  0.2895
43046SOL    HW133594   3.652   2.472   7.744 -0.0296  0.9127  0.9527
43046SOL    HW233595   3.588   2.545   7.628 -0.3682 -0.7169  0.0816
43047SOL     OW33596   8.806  10.244   4.066 -0.1605  0.0092  0.2359
43047SOL    HW133597   8.748  10.252   3.990  0.0424  0.2508  0.1060
43047SOL    HW233598   8.894  10.245   4.030 -0.0426  0.6665  0.5112
43048SOL     OW33599   1.521   5.837   4.516 -0.0316 -0.4466  0.2551
43048SOL    HW133600   1.499   5.846   4.609 -0.2969  1.9272  0.0314
43048SOL    HW233601   1.474   5.909   4.474  0.1616 -1.4276 -1.7185
43049SOL     OW33602   3.723   2.661   8.797 -0.3761  0.2334 -0.4757
43049SOL    HW133603   3.680   2.595   8.743  0.2073 -3.5778  3.2555
43049SOL    HW233604   3.816   2.654   8.776 -0.3791  0.4883 -0.5919
43050SOL     OW33605   5.978   8.815   2.082  0.2263  0.1414 -0.1851
43050SOL    HW133606   6.049   8.879   2.084  0.4438 -0.1075  0.5531
43050SOL    HW233607   5.954   8.805   2.174 -1.7418  1.2979 -0.5066
43051SOL     OW33608   5.351   3.892   5.053  0.2827  0.0984 -0.2404
43051SOL    HW133609   5.392   3.818   5.099  1.0351  1.1978  0.9194
43051SOL    HW233610   5.421   3.957   5.046 -0.0741  0.3194 -2.1940
43052SOL     OW33611   5.997  10.673   4.064 -0.2129  0.9157 -0.0137
43052SOL    HW133612   5.903  10.693   4.064 -0.4797  0.0615 -2.8295
43052SOL    HW233613   6.033  10.730   3.996  1.0483  0.0949 -0.0587
43053SOL     OW33614   1.132   0.978   5.881  0.0261 -0.4290  1.1277
43053SOL    HW133615   1.112   0.885   5.870  0.4800 -0.4439  0.3310
43053SOL    HW233616   1.192   0.998   5.809 -2.0734  1.0978 -0.3267
43054SOL     OW33617   9.369   3.079   9.590  0.3636  0.3653 -0.6579
43054SOL    HW133618   9.375   3.087   9.495  1.8465 -1.7805 -0.8148
43054SOL    HW233619   9.460   3.087   9.620  0.2389 -1.3966  0.3096
43055SOL     OW33620   6.599   9.970   6.480 -0.2529  0.1629 -0.0270
43055SOL    HW133621   6.614   9.884   6.518 -0.0524  1.3386  2.7377
43055SOL    HW233622   6.686  10.007   6.468 -0.3874  0.8838  1.0929
43056SOL     OW33623   1.084   4.201   4.136 -0.0871 -0.4333 -0.4468
43056SOL    HW133624   1.126   4.231   4.217 -2.1732 -1.2571  1.0584
43056SOL    HW233625   1.114   4.111   4.126 -0.2116 -0.4975 -0.2676
43057SOL     OW33626   1.617   0.088   9.679 -0.4366 -0.0759  0.0837
43057SOL    HW133627   1.620  -0.008   9.680 -2.1748 -0.1470  0.5075
43057SOL    HW233628   1.624   0.113   9.771 -0.1341  0.2154 -0.0159
43058SOL     OW33629   0.261   9.653   7.400  0.7525  0.2591 -0.2808
43058SOL    HW133630   0.168   9.656   7.424  1.1350  1.5953  1.2100
43058SOL    HW233631   0.261   9.640   7.305 -0.9123 -1.3475 -0.1158
43059SOL     OW33632   1.756  10.081   2.700 -0.2788 -0.1118 -0.0647
43059SOL    HW133633   1.760   9.987   2.716  0.6302  0.1789  1.7021
43059SOL    HW233634   1.847  10.106   2.683 -0.3548  0.5924  0.5279
43060SOL     OW33635  10.770   7.991   0.937 -0.1996  0.2841  0.1880
43060SOL    HW133636  10.809   7.914   0.978  0.4954  0.9867  0.8828
43060SOL    HW233637  10.716   7.956   0.866  0.2467 -0.8220  0.3781
43061SOL     OW33638   5.425   3.048   5.666 -0.0041  0.3566  0.2915
43061SOL    HW133639   5.403   2.981   5.601  0.6180 -0.0423  0.4866
43061SOL    HW233640   5.349   3.106   5.667 -1.3464 -1.3210  1.4199
43062SOL     OW33641   9.250   5.506   3.285 -0.1333  0.6764  0.4236
43062SOL    HW133642   9.170   5.470   3.246 -0.0468  0.3445  0.5460
43062SOL    HW233643   9.321   5.455   3.245 -0.0984 -0.3302  1.7024
43063SOL     OW33644   9.876   8.702   5.780  0.2567  0.2548  0.0640
43063SOL    HW133645   9.852   8.632   5.841  0.0415  0.2667 -0.0045
43063SOL    HW233646   9.966   8.683   5.755  0.0820 -0.2048 -0.2381
43064SOL     OW33647   1.057   7.435  10.846 -1.1994 -0.2304 -0.5149
43064SOL    HW133648   0.976   7.475  10.816 -2.8544 -1.0689  2.4740
43064SOL    HW233649   1.058   7.349  10.802 -1.9774 -0.2513 -0.5079
43065SOL     OW33650   7.255   8.045   8.490  0.1216 -0.3144  0.6094
43065SOL    HW133651   7.306   8.031   8.570  1.1708 -0.5193 -0.0727
43065SOL    HW233652   7.274   8.135   8.465  0.4997 -0.5185  0.1315
43066SOL     OW33653   4.311   2.482   8.337 -0.1106 -0.9713  0.3268
43066SOL    HW133654   4.279   2.408   8.388 -1.7732 -0.7357 -0.3040
43066SOL    HW233655   4.251   2.554   8.360 -0.5575 -0.7133 -1.4929
43067SOL     OW33656   9.013   3.357   4.442 -0.0422 -0.6166 -0.0676
43067SOL    HW133657   8.981   3.290   4.502 -1.8862  1.2315  1.1756
43067SOL    HW233658   9.019   3.436   4.496 -1.4451  1.0533 -2.1808
43068SOL     OW33659   8.943   8.727   3.283 -0.6108 -0.5842  0.5212
43068SOL    HW133660   8.848   8.718   3.280 -0.4679 -2.0329 -0.5068
43068SOL    HW233661   8.962   8.797   3.220 -1.0909  1.0914  2.1403
43069SOL     OW33662   7.371   0.891   3.239 -0.2003  1.2169 -0.4090
43069SOL    HW133663   7.344   0.917   3.327  0.8466 -3.4594  1.5815
43069SOL    HW233664   7.291   0.896   3.187 -2.0274 -0.1558  2.0377
43070SOL     OW33665  10.666   5.921   5.917  0.2784 -0.1844  0.5514
43070SOL    HW133666  10.650   5.934   5.824 -0.2919 -1.1440  0.4999
43070SOL    HW233667  10.639   6.004   5.958 -2.2007 -0.7097  0.1495
43071SOL     OW33668   3.924   7.464   4.861  0.0229 -0.2111  0.4071
43071SOL    HW133669   3.997   7.415   4.822 -0.1138 -1.6998  1.8790
43071SOL    HW233670   3.964   7.514   4.932 -0.2022 -0.0467  0.4174
43072SOL     OW33671   9.474   9.282   4.648 -0.8376  0.4469 -0.4967
43072SOL    HW133672   9.545   9.334   4.687  0.2917 -1.9651  0.8636
43072SOL    HW233673   9.481   9.299   4.554  1.3013  0.5849 -0.3609
43073SOL     OW33674   6.457   8.590  10.348  0.1290  0.1597  0.0038
43073SOL    HW133675   6.521   8.614  10.415 -1.1445 -0.0491  1.3252
43073SOL    HW233676   6.422   8.674  10.318  1.1139  0.2848 -0.8489
43074SOL     OW33677   2.257   0.798   9.760 -0.3100  0.5673 -0.2940
43074SOL    HW133678   2.312   0.821   9.684 -1.1808  1.8664 -0.5526
43074SOL    HW233679   2.260   0.702   9.763  3.1818  0.5734  0.6145
43075SOL     OW33680   6.795   2.649   7.937 -0.2609  0.0030 -0.3019
43075SOL    HW133681   6.750   2.716   7.989 -0.4590 -0.5510  0.2457
43075SOL    HW233682   6.883   2.646   7.975 -0.2089  0.0493 -0.4188
43076SOL     OW33683  10.928   6.151   7.952  0.1949 -0.3221 -0.3228
43076SOL    HW133684  10.844   6.195   7.962  1.4532  2.8151 -2.2201
43076SOL    HW233685  10.915   6.091   7.879 -0.7357 -0.9472  0.3327
43077SOL     OW33686   9.684   0.424   5.821 -0.1418  0.0390  0.6541
43077SOL    HW133687   9.729   0.470   5.892 -1.4769  0.4391  1.2673
43077SOL    HW233688   9.676   0.489   5.752  0.2633 -0.0526  0.5174
43078SOL     OW33689   6.597   3.728   2.946  0.5167 -0.2326 -0.0646
43078SOL    HW133690   6.516   3.780   2.946  0.6133 -0.0416  1.3153
43078SOL    HW233691   6.576   3.652   2.892 -0.7029 -0.3206  0.4850
43079SOL     OW33692   9.854  10.003   0.635 -0.2839  0.2399  0.1920
43079SOL    HW133693   9.895   9.952   0.566 -0.6008  0.9107 -0.5123
43079SOL    HW233694   9.854   9.945   0.711 -0.1517 -0.6063 -0.4335
43080SOL     OW33695   5.380   7.003   4.939 -0.0712  0.2839  0.4497
43080SOL    HW133696   5.403   7.096   4.936 -2.4058  0.9046 -1.0546
43080SOL    HW233697   5.442   6.961   4.879 -2.3774  1.8439 -3.3734
43081SOL     OW33698   6.937   9.217   9.657  0.7118 -0.0092  0.0271
43081SOL    HW133699   6.917   9.265   9.738 -0.3765  0.7352 -0.6507
43081SOL    HW233700   6.949   9.126   9.685 -0.6750  0.0483  0.9179
43082SOL     OW33701   3.098   8.540   3.718  0.3094 -0.4515 -0.0910
43082SOL    HW133702   3.028   8.538   3.652 -1.4147  2.3656  1.4383
43082SOL    HW233703   3.140   8.625   3.705 -0.2818  0.3079  2.5692
43083SOL     OW33704   9.717   2.196   1.703 -0.2383 -0.1079 -0.1373
43083SOL    HW133705   9.785   2.134   1.729 -2.6424 -2.7167  0.4298
43083SOL    HW233706   9.659   2.202   1.778 -0.4912  2.3606 -0.4531
43084SOL     OW33707   1.988   8.251   6.832  0.4600 -0.0929  0.4645
43084SOL    HW133708   1.894   8.250   6.847  0.2214 -0.5148 -0.9193
43084SOL    HW233709   2.008   8.164   6.798  1.3608 -0.0117  0.7449
43085SOL     OW33710   7.175   8.612   7.838 -0.1688 -0.0958  0.0929
43085SOL    HW133711   7.168   8.578   7.748 -1.8002 -0.5487  0.3614
43085SOL    HW233712   7.244   8.679   7.833 -0.2444 -0.0959 -1.5054
43086SOL     OW33713   4.571   0.687   5.108  0.4283 -0.1378  0.1114
43086SOL    HW133714   4.666   0.679   5.098  0.3119 -0.6471 -0.7530
43086SOL    HW233715   4.542   0.601   5.140  0.3089  0.1748  0.8600
43087SOL     OW33716   6.496   3.321   5.605 -0.0901  0.6680 -0.2818
43087SOL    HW133717   6.403   3.338   5.595 -0.2858 -0.4232 -0.5028
43087SOL    HW233718   6.504   3.282   5.693  0.3141  1.7018  0.1590
43088SOL     OW33719   9.900   5.624  10.201  0.0110 -0.2368  0.2860
43088SOL    HW133720   9.912   5.666  10.286 -1.7277  1.6580 -0.3215
43088SOL    HW233721   9.811   5.588  10.204  1.0997 -3.2181  0.4269
43089SOL     OW33722   3.919   8.839   2.418 -0.1924  0.7401  0.2307
43089SOL    HW133723   3.912   8.886   2.501 -2.8044 -0.6417  0.8768
43089SOL    HW233724   3.864   8.762   2.428  0.6099 -0.2925 -2.2831
43090SOL     OW33725   1.007   4.632   3.394 -0.1365 -0.2061  0.1107
43090SOL    HW133726   1.096   4.666   3.385  0.5445 -2.1334 -1.2862
43090SOL    HW233727   0.969   4.641   3.306 -0.9469 -0.3698  0.4339
43091SOL     OW33728   2.371   7.311  10.472 -0.3919 -0.7399 -0.0235
43091SOL    HW133729   2.423   7.383  10.435 -0.8578 -1.9986 -3.5336
43091SOL    HW233730   2.283   7.348  10.482 -0.8687 -0.8859 -2.7045
43092SOL     OW33731   1.005   1.847   2.259 -0.1132 -0.4097 -0.3348
43092SOL    HW133732   1.041   1.767   2.297 -2.7934 -1.6133 -0.1066
43092SOL    HW233733   0.980   1.900   2.334  0.4047  0.0442 -0.4792
43093SOL     OW33734   0.217   4.271  10.142 -0.2064 -0.4092 -0.3304
43093SOL    HW133735   0.212   4.358  10.183  0.8110 -1.2232  1.6374
43093SOL    HW233736   0.290   4.228  10.186 -0.7458 -2.3212 -1.2142
43094SOL     OW33737   7.073   3.138   1.404  0.0453  0.3479  0.4231
43094SOL    HW133738   7.014   3.063   1.390 -0.7171  1.2635 -1.5644
43094SOL    HW233739   7.081   3.144   1.499  1.1532 -3.0124  0.6769
43095SOL     OW33740   2.831   2.292   6.186 -0.3756 -0.0969  0.0926
43095SOL    HW133741   2.764   2.235   6.147 -0.0526  0.0305 -0.6750
43095SOL    HW233742   2.883   2.233   6.241 -0.0771 -0.5527 -0.6532
43096SOL     OW33743   4.337  10.466   1.028  0.1114 -0.2678 -0.2698
43096SOL    HW133744   4.293  10.541   1.068 -1.2841 -1.8268  1.2901
43096SOL    HW233745   4.364  10.413   1.103 -0.1505 -1.9707 -1.3443
43097SOL     OW33746  10.614   4.486   0.794  0.0673 -0.1916 -0.4503
43097SOL    HW133747  10.583   4.569   0.830 -1.8612 -0.3031 -1.7076
43097SOL    HW233748  10.708   4.499   0.782 -0.1127  1.6528 -0.2079
43098SOL     OW33749   8.183   0.459   7.024 -0.4896 -0.5353 -0.1182
43098SOL    HW133750   8.128   0.401   7.077 -1.9353  0.3362 -0.5767
43098SOL    HW233751   8.253   0.486   7.082 -1.6193 -0.1783  1.1381
43099SOL     OW33752   1.439   2.115  10.308  0.4469 -0.0765 -0.0456
43099SOL    HW133753   1.394   2.034  10.284  1.7515 -0.8397 -0.0363
43099SOL    HW233754   1.391   2.149  10.383  0.9863 -1.8930  1.1930
43100SOL     OW33755   6.404   5.675   6.900  0.1040  0.0504  0.4791
43100SOL    HW133756   6.473   5.728   6.941  0.3730  1.3757 -1.5528
43100SOL    HW233757   6.400   5.706   6.809 -1.2600 -1.9377 -0.2164
43101SOL     OW33758   5.141   3.787   7.964  0.2453 -0.0603  0.1488
43101SOL    HW133759   5.189   3.740   7.896 -0.7561 -0.2842 -0.4209
43101SOL    HW233760   5.061   3.817   7.921 -0.3543 -0.1000  1.1946
43102SOL     OW33761  11.064   4.142   3.195 -0.1086  0.6656 -0.5149
43102SOL    HW133762  11.115   4.203   3.247  1.8399 -1.4159  0.1732
43102SOL    HW233763  10.976   4.146   3.233  0.4401  1.6391  0.7152
43103SOL     OW33764   6.668   5.567   9.712  0.0105 -0.2242  0.4562
43103SOL    HW133765   6.608   5.577   9.637 -0.1047  2.5330  0.8029
43103SOL    HW233766   6.755   5.582   9.675 -0.1009  1.8328  0.8968
43104SOL     OW33767   9.956  10.641   2.145 -0.2245 -0.1735  0.0300
43104SOL    HW133768   9.968  10.734   2.124 -0.1219 -0.2017 -0.0397
43104SOL    HW233769  10.040  10.614   2.183 -0.3079 -0.1986  0.1959
43105SOL     OW33770   6.036   8.110   4.469  0.8128  0.6181 -0.3074
43105SOL    HW133771   6.013   8.101   4.377  0.4357 -0.2118 -0.1448
43105SOL    HW233772   6.130   8.123   4.470  0.6382  2.0898 -0.8841
43106SOL     OW33773   9.175   4.322   9.075 -0.3749  0.1667 -0.1056
43106SOL    HW133774   9.255   4.313   9.023 -0.3182 -0.4005  0.0651
43106SOL    HW233775   9.165   4.416   9.089 -1.6355  0.5831 -3.0581
43107SOL     OW33776  11.071   4.199   0.621 -0.0302  0.0139  0.0531
43107SOL    HW133777  11.094   4.207   0.528 -1.3586 -1.6904 -0.4761
43107SOL    HW233778  11.150   4.168   0.663  1.0127  2.0956 -0.2118
43108SOL     OW33779   9.727   7.073   6.294 -0.4111  0.6123 -0.2752
43108SOL    HW133780   9.649   7.126   6.274 -0.6225  0.2810 -0.3474
43108SOL    HW233781   9.776   7.125   6.357 -1.6041  0.0220  1.1808
43109SOL     OW33782   6.251   2.349   9.534  0.1498  0.3297 -0.0435
43109SOL    HW133783   6.275   2.262   9.502  0.2685  1.0438 -2.0555
43109SOL    HW233784   6.155   2.352   9.525  0.1219  0.3217  0.2500
43110SOL     OW33785   1.123   6.695   8.641  0.0699 -0.5450  0.6975
43110SOL    HW133786   1.078   6.774   8.612  2.0152  0.7674  1.0711
43110SOL    HW233787   1.057   6.646   8.690 -1.4477  0.3425 -0.3891
43111SOL     OW33788   8.387   5.431   0.458  0.0454 -0.0424  0.5412
43111SOL    HW133789   8.295   5.432   0.430  0.1230  1.8610  0.2624
43111SOL    HW233790   8.436   5.420   0.376  0.1545  2.3014  0.2431
43112SOL     OW33791   8.361   5.214   5.525 -0.0333  0.7819 -0.1305
43112SOL    HW133792   8.378   5.294   5.476 -1.8554  0.8236 -0.7561
43112SOL    HW233793   8.283   5.234   5.577  1.5262  0.5762  2.4586
43113SOL     OW33794   3.153   6.410   7.185  0.2736  0.0540 -0.4786
43113SOL    HW133795   3.153   6.499   7.223  0.3021 -0.0904 -0.1352
43113SOL    HW233796   3.171   6.353   7.260 -0.4465 -0.2993 -0.5642
43114SOL     OW33797  10.931   6.568   8.658 -0.3588 -0.4204  0.1715
43114SOL    HW133798  10.985   6.490   8.642  0.8361  0.2891  0.6122
43114SOL    HW233799  10.931   6.578   8.753 -1.3002 -0.4206  0.1753
43115SOL     OW33800   5.108   8.351   0.311  0.1147  0.0522 -0.0732
43115SOL    HW133801   5.124   8.439   0.276 -0.4452  0.5174  0.8009
43115SOL    HW233802   5.016   8.333   0.290  0.5263 -0.7995 -1.2290
43116SOL     OW33803   9.214   7.823   9.623 -0.3575 -0.3448  0.3324
43116SOL    HW133804   9.264   7.773   9.688 -0.1354 -0.7855 -0.1678
43116SOL    HW233805   9.154   7.759   9.585 -1.1709  0.1348  0.7883
43117SOL     OW33806   3.696   2.932   5.055 -0.0281 -0.3486  0.8323
43117SOL    HW133807   3.669   2.842   5.070 -2.8678  0.0210 -1.2738
43117SOL    HW233808   3.664   2.980   5.131 -0.1518 -0.8169  1.0792
43118SOL     OW33809  10.556   2.145   1.320  0.3777  0.3183  0.6580
43118SOL    HW133810  10.524   2.055   1.325  3.0330 -0.7089  0.3143
43118SOL    HW233811  10.477   2.198   1.334 -1.0551 -2.0228  2.2990
43119SOL     OW33812   0.245   1.596   8.015  0.1367 -0.1451  0.1767
43119SOL    HW133813   0.245   1.505   7.986 -1.0131 -0.7921  2.0508
43119SOL    HW233814   0.152   1.619   8.023  0.3657  0.2677  2.3273
43120SOL     OW33815   9.935   1.499   2.744 -0.8553  0.2171  0.5748
43120SOL    HW133816   9.990   1.557   2.797 -1.7402  1.1080  0.5353
43120SOL    HW233817   9.869   1.556   2.705 -0.9479 -0.6068 -0.5426
43121SOL     OW33818   4.144   0.267  10.521 -0.4347 -0.4085  0.3852
43121SOL    HW133819   4.096   0.196  10.479 -2.0397 -1.0236  3.0269
43121SOL    HW233820   4.110   0.269  10.611 -0.9747  4.1285  0.3164
43122SOL     OW33821   4.254   0.152   5.582 -0.1606 -0.1756 -0.3249
43122SOL    HW133822   4.174   0.102   5.597  0.9349 -1.2999  2.3097
43122SOL    HW233823   4.322   0.086   5.571  0.6975  0.7606 -0.7578
43123SOL     OW33824   9.934  10.199   5.725 -0.1453  0.6184 -0.3319
43123SOL    HW133825   9.883  10.195   5.643  0.7071  0.8566 -0.8869
43123SOL    HW233826   9.873  10.168   5.792 -0.3296 -1.3669 -1.3262
43124SOL     OW33827   9.479   3.469   5.009  0.2243  0.0098 -0.4158
43124SOL    HW133828   9.450   3.475   4.918  1.2444 -1.9163 -0.9308
43124SOL    HW233829   9.428   3.536   5.056 -1.8774 -0.3909 -2.0014
43125SOL     OW33830   9.841   2.486   7.025 -0.2462 -0.1956  0.1657
43125SOL    HW133831   9.858   2.525   6.939 -0.5121 -1.7686 -0.6552
43125SOL    HW233832   9.857   2.556   7.087  2.1568  0.4216 -1.0060
43126SOL     OW33833   1.375   9.878   5.020 -0.5271 -0.2352 -0.4501
43126SOL    HW133834   1.392   9.850   4.930  3.0147 -1.6217  0.4833
43126SOL    HW233835   1.456   9.922   5.047 -0.6574 -1.6377  2.6279
43127SOL     OW33836   8.947   2.009   3.082 -0.4674  0.4235 -0.3484
43127SOL    HW133837   8.881   1.943   3.059 -1.7966  2.0471 -1.4670
43127SOL    HW233838   8.983   2.037   2.999  1.3480 -0.0777  0.2281
43128SOL     OW33839   8.956  10.490   2.425 -0.1284 -0.4447 -0.5530
43128SOL    HW133840   9.005  10.571   2.436 -0.1703 -0.4945  0.0357
43128SOL    HW233841   8.869  10.518   2.396 -0.7239 -0.1333  1.3761
43129SOL     OW33842   2.392   3.824   8.334 -0.5482  0.6509 -0.1259
43129SOL    HW133843   2.454   3.887   8.296  0.1439 -0.3763 -0.7667
43129SOL    HW233844   2.322   3.818   8.268 -1.0746  1.4099  0.3512
43130SOL     OW33845   8.736   6.755   2.891 -0.3245  0.0392 -0.2659
43130SOL    HW133846   8.644   6.731   2.898 -0.2635  0.0936  0.9535
43130SOL    HW233847   8.784   6.680   2.925 -0.0383  0.8976  1.3365
43131SOL     OW33848   3.003   1.145  10.290 -0.7403  0.0708 -0.0792
43131SOL    HW133849   3.055   1.106  10.360 -0.6024  0.7288  0.1943
43131SOL    HW233850   2.938   1.079  10.268 -0.4675 -0.3329  0.3294
43132SOL     OW33851   2.659   1.175   6.555  0.2154  0.2589 -0.5727
43132SOL    HW133852   2.717   1.244   6.586 -0.2612  0.1602  0.6097
43132SOL    HW233853   2.617   1.142   6.635 -1.2866  0.1732 -1.3739
43133SOL     OW33854   1.847   4.857   5.109 -0.2327 -0.3656  0.5150
43133SOL    HW133855   1.828   4.799   5.182  0.5050  0.0766  1.0831
43133SOL    HW233856   1.938   4.884   5.124  0.4151 -1.3770 -1.3338
43134SOL     OW33857   0.499  10.169   2.039 -0.3450 -0.0680  0.1776
43134SOL    HW133858   0.561  10.240   2.025  0.2080 -0.2782  1.4191
43134SOL    HW233859   0.415  10.212   2.051  0.1407  0.5015  1.9437
43135SOL     OW33860   9.037   9.186   0.667  0.2489 -0.1172 -0.0366
43135SOL    HW133861   9.053   9.113   0.726 -5.3977 -1.3435  0.5472
43135SOL    HW233862   9.040   9.147   0.579  0.5796 -0.2270  0.0224
43136SOL     OW33863  11.002   2.491   0.094  0.3546 -0.4228  0.2853
43136SOL    HW133864  11.052   2.562   0.134  2.6831  0.0051 -2.9325
43136SOL    HW233865  10.919   2.532   0.068  0.7216  0.4938  0.5234
43137SOL     OW33866   9.571   1.045   5.809  0.2394  0.2589  0.4932
43137SOL    HW133867   9.527   1.029   5.892  1.1840 -0.8576  0.8125
43137SOL    HW233868   9.659   1.074   5.833  0.7602 -0.7526 -0.0775
43138SOL     OW33869   8.232   4.382  10.407 -0.1731 -0.5529 -0.6138
43138SOL    HW133870   8.197   4.442  10.473 -0.5017 -0.3497 -0.9651
43138SOL    HW233871   8.254   4.302  10.455 -1.2825 -0.7420 -0.4138
43139SOL     OW33872   4.593   5.483   7.459  0.1493  0.1643  0.8765
43139SOL    HW133873   4.533   5.463   7.387  0.0537 -0.1490  1.0428
43139SOL    HW233874   4.632   5.399   7.483  2.9694  0.7426 -1.2355
43140SOL     OW33875   9.636   4.473   3.701 -0.1298  0.4225  0.2668
43140SOL    HW133876   9.680   4.413   3.640 -1.1002 -1.5155  1.3707
43140SOL    HW233877   9.706   4.503   3.760  0.6010  1.4274 -1.0434
43141SOL     OW33878   9.014   5.814   2.810 -0.1333  0.3902 -0.0959
43141SOL    HW133879   9.036   5.722   2.792  1.8025  0.0983  2.9441
43141SOL    HW233880   9.050   5.862   2.736  0.0074 -1.1870 -1.1034
43142SOL     OW33881   3.681   9.000   3.069  0.1662  0.3357  0.6791
43142SOL    HW133882   3.673   9.095   3.062 -0.9234  0.2676  0.8526
43142SOL    HW233883   3.747   8.986   3.137  4.1070  0.9446 -2.5861
43143SOL     OW33884   1.899   2.849   0.607  0.5797  0.2262  0.0824
43143SOL    HW133885   1.858   2.935   0.594  0.0291 -0.1589 -0.7358
43143SOL    HW233886   1.828   2.786   0.597  1.4280 -0.4855 -1.8408
43144SOL     OW33887   2.182   0.743   0.796 -0.0840  0.5393  0.3272
43144SOL    HW133888   2.167   0.784   0.711  0.3679  0.4624  0.2081
43144SOL    HW233889   2.194   0.817   0.856  0.1966  0.5867  0.2122
43145SOL     OW33890   8.972   4.685   4.171 -0.3255  0.1377  0.2027
43145SOL    HW133891   8.924   4.764   4.195 -2.3237 -0.2115 -2.2811
43145SOL    HW233892   9.013   4.707   4.087  1.3280 -0.6344  0.7708
43146SOL     OW33893   9.761   6.386  10.764  0.1529  0.1379  0.4301
43146SOL    HW133894   9.850   6.358  10.742 -0.5517 -0.9438 -1.3492
43146SOL    HW233895   9.726   6.314  10.816 -0.1491 -0.1308 -0.1391
43147SOL     OW33896   3.927   2.579   7.837 -0.2130  0.1359 -0.0668
43147SOL    HW133897   3.916   2.620   7.751  2.5076  0.2628 -0.4343
43147SOL    HW233898   3.903   2.487   7.823 -2.6040  0.7029 -0.1730
43148SOL     OW33899   6.632   1.471  10.944 -0.2752  0.1630  0.1567
43148SOL    HW133900   6.708   1.519  10.912 -1.3516  0.7917 -1.5990
43148SOL    HW233901   6.661   1.380  10.951  1.1575  0.6703  1.4261
43149SOL     OW33902   7.486   6.274   8.744  0.0524  0.2995 -0.2434
43149SOL    HW133903   7.545   6.348   8.757  0.7028 -0.1358 -0.6765
43149SOL    HW233904   7.409   6.313   8.702  1.0407  0.5067 -1.9731
43150SOL     OW33905   5.935   0.823   1.935 -0.2161 -1.0326  0.1843
43150SOL    HW133906   5.907   0.809   1.844 -0.6227 -0.0536  0.1561
43150SOL    HW233907   5.936   0.735   1.973 -0.9208 -1.3522 -0.5137
43151SOL     OW33908  10.612   2.192   0.355  0.1344  0.6803 -0.0133
43151SOL    HW133909  10.529   2.154   0.327  0.5256 -0.8886  0.8289
43151SOL    HW233910  10.658   2.212   0.273 -0.2571 -0.3215 -0.4962
43152SOL     OW33911   5.762   1.043   6.867  0.1751 -0.3387 -0.3024
43152SOL    HW133912   5.694   1.014   6.807  0.3198  1.0213 -1.1795
43152SOL    HW233913   5.734   1.131   6.894  0.1876 -0.8620  1.5292
43153SOL     OW33914   4.184   4.432   7.457  0.2034 -0.2171  0.8060
43153SOL    HW133915   4.277   4.434   7.436 -0.2705  0.1722 -1.5696
43153SOL    HW233916   4.144   4.384   7.384 -1.5406  0.2737  1.3755
43154SOL     OW33917   9.986   0.734   3.100 -0.0386  0.1903  0.0629
43154SOL    HW133918   9.940   0.739   3.016  0.8696  0.7966 -0.4183
43154SOL    HW233919  10.060   0.794   3.090  0.8582 -0.7679  0.8085
43155SOL     OW33920   7.701   3.991  10.861  0.2439 -0.2085  0.4511
43155SOL    HW133921   7.717   3.946  10.944  1.0674 -2.8450 -1.0279
43155SOL    HW233922   7.784   4.035  10.841  0.8030 -1.4318 -0.0103
43156SOL     OW33923   9.812   4.999   1.656  0.4837 -0.2424  0.0586
43156SOL    HW133924   9.886   4.938   1.648 -0.5184 -1.7330  1.4506
43156SOL    HW233925   9.735   4.946   1.634 -0.2586  1.1320 -0.8036
43157SOL     OW33926   1.782  10.052   7.726  0.4802 -0.2155 -0.2549
43157SOL    HW133927   1.688  10.043   7.739  0.1388  1.0469 -1.6054
43157SOL    HW233928   1.821  10.014   7.805 -1.1600 -0.3445  0.5287
43158SOL     OW33929   5.668   4.518   7.818 -0.5041 -0.2019 -0.0051
43158SOL    HW133930   5.625   4.600   7.843 -2.8656 -0.7647 -1.7731
43158SOL    HW233931   5.611   4.450   7.854  1.5098 -1.1504  1.5786
43159SOL     OW33932   6.923   1.287   0.673 -0.1629 -0.1791  0.3874
43159SOL    HW133933   6.829   1.305   0.678 -0.1281  0.5173 -1.0223
43159SOL    HW233934   6.954   1.338   0.598  1.7077  1.0876  1.9291
43160SOL     OW33935  10.806   9.999   3.313 -1.0366  0.2572 -0.3035
43160SOL    HW133936  10.838  10.088   3.303 -1.6125  0.4868 -0.1063
43160SOL    HW233937  10.881   9.950   3.347 -0.9673  0.8458  0.4087
43161SOL     OW33938   9.721   5.495   0.195  0.1819 -0.4788  0.7647
43161SOL    HW133939   9.804   5.521   0.155  0.3675 -0.6736  1.0220
43161SOL    HW233940   9.710   5.404   0.169 -0.8445  0.0280 -0.7863
43162SOL     OW33941   0.158   9.368   8.989  0.6909  0.4154  0.4293
43162SOL    HW133942   0.106   9.362   8.909  1.2845  1.2480 -0.0400
43162SOL    HW233943   0.096   9.396   9.056 -0.5728 -3.4863  1.1054
43163SOL     OW33944   9.731   1.683   6.206  0.2141 -0.4556 -0.4501
43163SOL    HW133945   9.821   1.662   6.233  0.1351 -0.2890 -0.0488
43163SOL    HW233946   9.692   1.724   6.283  0.1142  0.4234 -0.9620
43164SOL     OW33947   3.118   5.473   6.240 -0.1451  0.4129 -0.2562
43164SOL    HW133948   3.167   5.396   6.268  0.6066  0.6753 -0.8099
43164SOL    HW233949   3.036   5.469   6.289  0.8092  0.4658  1.4191
43165SOL     OW33950   6.089  10.424   8.158 -0.7795  0.3388  0.9228
43165SOL    HW133951   6.032  10.500   8.164  0.3901  1.3927 -0.6334
43165SOL    HW233952   6.094  10.390   8.248  0.2875  3.3118  2.0943
43166SOL     OW33953   6.164   6.725   9.775 -0.3353 -0.4742 -0.0887
43166SOL    HW133954   6.227   6.781   9.821 -1.0175  0.3679 -0.1581
43166SOL    HW233955   6.157   6.647   9.830 -0.1655 -0.0384  0.5671
43167SOL     OW33956   8.390   2.989   4.136 -0.3446 -0.2560 -0.5254
43167SOL    HW133957   8.351   2.902   4.135  0.0420 -0.4836  1.3128
43167SOL    HW233958   8.379   3.020   4.226  1.4991  0.6738 -0.5685
43168SOL     OW33959   2.574   5.003   0.870 -0.1533  0.3517 -0.0081
43168SOL    HW133960   2.540   5.080   0.916  0.3840  1.5758 -1.5812
43168SOL    HW233961   2.526   4.929   0.908 -2.9637  1.7600 -0.6056
43169SOL     OW33962   6.781   5.679   6.358 -0.2016  0.2408 -0.0529
43169SOL    HW133963   6.839   5.724   6.420  0.6081 -0.8713  0.0399
43169SOL    HW233964   6.732   5.617   6.413 -0.3806  0.1222 -0.3462
43170SOL     OW33965   2.704   5.773   4.851  0.0064 -0.4266 -0.0112
43170SOL    HW133966   2.660   5.788   4.768 -0.4869 -2.3015 -0.1451
43170SOL    HW233967   2.634   5.745   4.910  0.5709 -0.5198  0.6255
43171SOL     OW33968   9.575   7.285   7.842 -0.4646  0.3581 -0.2700
43171SOL    HW133969   9.540   7.251   7.760  0.5192 -1.6151  0.0441
43171SOL    HW233970   9.667   7.304   7.823 -0.3703  0.4097  0.2243
43172SOL     OW33971   9.222   1.199   8.584  0.2892 -0.1926  0.1015
43172SOL    HW133972   9.174   1.218   8.504 -1.2762 -0.2167  1.0021
43172SOL    HW233973   9.298   1.149   8.555 -0.4579 -0.5539 -1.3180
43173SOL     OW33974   4.931   4.034  10.152 -0.4146  1.1270  0.0318
43173SOL    HW133975   5.003   4.026  10.215  0.8270  1.3484 -1.2974
43173SOL    HW233976   4.929   3.949  10.108  1.0088  2.0089 -1.9106
43174SOL     OW33977   5.175   1.062   6.805 -0.0164 -0.4683  0.1607
43174SOL    HW133978   5.249   1.051   6.745  0.2972 -1.5590  0.7168
43174SOL    HW233979   5.135   0.976   6.810 -0.2290 -0.3256  1.2513
43175SOL     OW33980   5.901   2.174   9.110 -0.3424  0.1139 -1.0878
43175SOL    HW133981   5.955   2.222   9.048  0.1829  0.1823 -0.5867
43175SOL    HW233982   5.951   2.094   9.128 -0.3888  0.1987 -0.5871
43176SOL     OW33983   8.660   2.806   3.249 -0.1126 -0.2165 -0.2201
43176SOL    HW133984   8.665   2.825   3.342 -0.1868  0.2537 -0.3122
43176SOL    HW233985   8.581   2.851   3.219 -1.1090 -1.8584 -0.1599
43177SOL     OW33986   8.214   6.544   6.236  0.0401 -0.0919  0.4321
43177SOL    HW133987   8.167   6.608   6.183  0.4195 -1.4067 -1.5810
43177SOL    HW233988   8.306   6.559   6.216  0.2160 -0.3620  1.0137
43178SOL     OW33989   7.065   0.574   7.591 -0.2705 -0.5997  0.0475
43178SOL    HW133990   7.021   0.571   7.506 -1.1176  0.3771  0.4451
43178SOL    HW233991   7.156   0.594   7.570 -0.3466 -0.9580 -0.6596
43179SOL     OW33992   0.305   9.657   9.734 -0.6300  0.3890  0.3059
43179SOL    HW133993   0.278   9.726   9.796 -0.7752  1.2735 -0.7152
43179SOL    HW233994   0.292   9.696   9.648 -2.3218 -1.4990 -0.3774
43180SOL     OW33995   9.145   6.201   5.363 -0.9511 -0.5537 -0.5155
43180SOL    HW133996   9.056   6.223   5.334 -0.9878 -0.0812 -0.0508
43180SOL    HW233997   9.143   6.106   5.374 -1.7212 -0.4358  0.5342
43181SOL     OW33998   4.533   6.968   8.241  0.6473 -0.1882 -0.1947
43181SOL    HW133999   4.628   6.964   8.235  0.6133  0.8972 -2.0256
43181SOL    HW234000   4.513   7.061   8.252 -0.2189 -0.3611 -0.2135
43182SOL     OW34001   7.501   8.544   7.883  0.2977 -0.4272 -0.3203
43182SOL    HW134002   7.451   8.602   7.941 -0.7966 -0.2147 -1.4136
43182SOL    HW234003   7.462   8.458   7.896  0.6059 -0.5408 -0.1403
43183SOL     OW34004   2.207   5.619   5.574  0.3573  0.2904  0.5051
43183SOL    HW134005   2.268   5.547   5.557  1.1791  1.1824 -0.4643
43183SOL    HW234006   2.205   5.668   5.492 -0.7356  0.9795  0.9238
43184SOL     OW34007   7.798   8.292   6.086  0.3460  0.2301  0.1847
43184SOL    HW134008   7.736   8.358   6.118 -0.4472 -0.7028  0.6146
43184SOL    HW234009   7.746   8.212   6.079  0.9173 -0.0268 -1.7819
43185SOL     OW34010   8.649   9.844   9.330  0.1053  0.3011  0.3203
43185SOL    HW134011   8.656   9.762   9.281  0.1834  0.7538 -0.4448
43185SOL    HW234012   8.656   9.818   9.421 -1.1319 -0.7100  0.1697
43186SOL     OW34013   7.685   6.397   9.131  0.8634 -0.0064  0.3451
43186SOL    HW134014   7.655   6.306   9.133  1.1519 -0.0909  1.0790
43186SOL    HW234015   7.724   6.412   9.217  1.1922  0.6889  0.0864
43187SOL     OW34016   1.176   9.457   5.920 -0.0805 -0.0997  0.1845
43187SOL    HW134017   1.224   9.385   5.879  0.4261  1.1944 -1.5893
43187SOL    HW234018   1.244   9.514   5.955 -0.3875  0.6414 -0.4051
43188SOL     OW34019   3.688   3.664   3.561  0.3123  0.3821  0.1829
43188SOL    HW134020   3.683   3.634   3.471 -0.4965  0.7351  0.1020
43188SOL    HW234021   3.779   3.691   3.572  0.5433 -0.1584 -0.3629
43189SOL     OW34022   8.373   4.746   9.386  0.3519  0.3810 -0.0837
43189SOL    HW134023   8.373   4.704   9.300  1.3661  1.2814 -0.5437
43189SOL    HW234024   8.331   4.682   9.443  0.3974 -0.5782 -1.0789
43190SOL     OW34025   3.012   6.303   5.826 -0.4610 -0.1290  0.6898
43190SOL    HW134026   3.058   6.382   5.798  1.0162  0.0871  3.4066
43190SOL    HW234027   3.051   6.233   5.775 -1.5344  0.7706 -1.4855
43191SOL     OW34028   9.858   8.527   6.023  0.0697 -0.3162 -0.3884
43191SOL    HW134029   9.942   8.533   6.069 -0.2036  1.0197 -0.0388
43191SOL    HW234030   9.798   8.490   6.088  0.3957 -1.4122 -0.6832
43192SOL     OW34031   8.757   5.194   0.705  1.0977  0.2949 -0.1207
43192SOL    HW134032   8.801   5.268   0.665  0.1416  2.6375  2.7616
43192SOL    HW234033   8.664   5.210   0.689  0.8781 -0.3080  0.4956
43193SOL     OW34034   6.468   3.969  10.741 -0.0782 -0.3191  0.4790
43193SOL    HW134035   6.510   4.034  10.796 -0.5141  0.2585  0.1413
43193SOL    HW234036   6.394   3.937  10.794 -0.1813 -0.1501  0.4381
43194SOL     OW34037   5.411   9.899   9.039  0.1511 -0.3560  0.1544
43194SOL    HW134038   5.450   9.975   9.084  1.1324 -0.2463 -0.8432
43194SOL    HW234039   5.317   9.908   9.055  0.5065 -1.3533  3.7867
43195SOL     OW34040   3.954   4.404   9.445 -0.6546  0.0241  0.2886
43195SOL    HW134041   3.953   4.317   9.484 -1.6714  0.7812  2.0839
43195SOL    HW234042   3.905   4.395   9.364  0.6824 -1.4024 -0.4067
43196SOL     OW34043   7.718   9.648  10.297 -0.5236  0.3011 -0.0249
43196SOL    HW134044   7.807   9.615  10.287 -0.0533  1.7922 -1.0958
43196SOL    HW234045   7.729   9.739  10.323 -1.6527  1.2142 -2.4630
43197SOL     OW34046  10.437   0.908   2.415 -0.3886 -0.4276 -0.1395
43197SOL    HW134047  10.478   0.946   2.492  0.3378 -0.4865 -0.4852
43197SOL    HW234048  10.508   0.862   2.370 -0.7614 -0.2809 -0.9109
43198SOL     OW34049   3.024   4.781   1.332 -0.1645 -0.6021  0.3992
43198SOL    HW134050   2.971   4.706   1.303  0.6115 -0.9422 -0.1686
43198SOL    HW234051   3.086   4.795   1.261 -1.3818  1.7019 -0.3346
43199SOL     OW34052   9.004   7.176   0.771  0.2390 -0.0431  0.0227
43199SOL    HW134053   8.966   7.255   0.811  1.2694 -0.7783  2.6274
43199SOL    HW234054   9.090   7.205   0.738  0.6610 -0.0828  1.0668
43200SOL     OW34055  10.040   8.831   8.630 -0.2656 -0.7401 -0.4350
43200SOL    HW134056  10.084   8.893   8.688 -0.5381 -1.4309  0.5265
43200SOL    HW234057  10.037   8.876   8.545 -0.0474  0.3668  0.1219
43201SOL     OW34058   8.548   7.260   8.761 -0.0529 -0.1943  0.0562
43201SOL    HW134059   8.483   7.196   8.791 -0.3112 -0.1676 -0.4468
43201SOL    HW234060   8.627   7.239   8.811 -0.6890  0.3495  1.3648
43202SOL     OW34061   8.631   5.490   6.721  0.1314 -0.3957 -0.5506
43202SOL    HW134062   8.585   5.411   6.694 -0.9341 -0.1124  0.3755
43202SOL    HW234063   8.564   5.558   6.723  0.3993 -0.1274  1.4814
43203SOL     OW34064   7.982   7.165   3.367 -0.0127  0.0066  0.1658
43203SOL    HW134065   7.970   7.240   3.426  2.6990  0.6853 -0.0401
43203SOL    HW234066   8.059   7.187   3.315  0.5308 -2.6807 -0.3194
43204SOL     OW34067  10.767   1.059   9.525  0.1701  0.5671  0.7570
43204SOL    HW134068  10.696   1.098   9.473  1.7585  2.0186 -0.4573
43204SOL    HW234069  10.735   1.062   9.615 -1.9903 -0.4401  0.0847
43205SOL     OW34070   0.204   9.051   5.386 -0.5444 -0.2363  0.0576
43205SOL    HW134071   0.169   8.984   5.445  1.3317 -0.0396  1.5077
43205SOL    HW234072   0.294   9.023   5.369  0.5437  2.1737  1.2606
43206SOL     OW34073   1.281   6.662   0.853  0.4023 -0.2079 -0.2084
43206SOL    HW134074   1.344   6.622   0.794  0.7726  1.1677 -0.7946
43206SOL    HW234075   1.335   6.701   0.923  0.4919  2.7240 -1.7412
43207SOL     OW34076   2.498   4.316   0.312  0.5001  0.1407  0.0831
43207SOL    HW134077   2.500   4.404   0.274 -4.3418  0.5271  0.1419
43207SOL    HW234078   2.490   4.257   0.237  1.0552 -0.0502  0.1663
43208SOL     OW34079  10.923   0.362   6.452  0.6219  0.3763 -0.2389
43208SOL    HW134080  10.995   0.299   6.458  1.1752  0.9544 -0.6077
43208SOL    HW234081  10.844   0.308   6.446  1.1343 -0.3032 -1.2427
43209SOL     OW34082   3.197   3.737   1.019  0.5785 -0.3256  0.0953
43209SOL    HW134083   3.194   3.692   1.103  0.2115 -0.2285  0.1354
43209SOL    HW234084   3.144   3.683   0.961 -0.2764  0.3179  0.2705
43210SOL     OW34085   0.047   2.815   8.290 -0.3030  0.0523  0.4477
43210SOL    HW134086  -0.023   2.833   8.227 -0.1979 -1.2210 -0.0685
43210SOL    HW234087   0.100   2.748   8.248  0.5815  0.1857  1.3158
43211SOL     OW34088   0.840  10.654   8.511 -0.5471  0.2761 -0.2543
43211SOL    HW134089   0.783  10.712   8.562  0.1141 -0.9416  2.0529
43211SOL    HW234090   0.924  10.658   8.557  0.4482 -0.0114 -1.9968
43212SOL     OW34091   7.118   1.176   2.622  0.1812  0.3212  0.4806
43212SOL    HW134092   7.123   1.192   2.716 -0.0331 -3.8426  1.4224
43212SOL    HW234093   7.208   1.190   2.590  0.3093  1.5212  1.3113
43213SOL     OW34094   5.075   0.960   2.286  0.8160 -0.5383  0.1229
43213SOL    HW134095   5.043   0.870   2.290  1.0866 -0.5886  2.1033
43213SOL    HW234096   5.085   0.987   2.378 -1.0411  2.1641 -0.3388
43214SOL     OW34097   4.806   7.656   0.432  0.1179  0.0927  0.8607
43214SOL    HW134098   4.899   7.679   0.436  0.2403 -0.3306  0.5523
43214SOL    HW234099   4.762   7.728   0.478  0.3738  1.5371 -1.0416
43215SOL     OW34100   9.652  10.680   7.959  0.3386 -0.0876 -0.2709
43215SOL    HW134101   9.614  10.735   8.027 -1.5443 -1.5959 -0.0176
43215SOL    HW234102   9.669  10.596   8.002 -1.3234 -1.2180 -1.6919
43216SOL     OW34103   9.441   1.276   5.682 -0.2265 -0.0669  0.5187
43216SOL    HW134104   9.511   1.229   5.727  0.2457  0.3501  0.2306
43216SOL    HW234105   9.439   1.363   5.723 -1.3284 -0.4281  1.2873
43217SOL     OW34106   9.673   0.854   8.508  0.0006  0.0211  0.2436
43217SOL    HW134107   9.698   0.913   8.437  1.3355 -0.7360  0.0489
43217SOL    HW234108   9.756   0.826   8.546 -0.3552 -3.6594 -1.2594
43218SOL     OW34109   1.402   5.892   4.131 -0.3530  0.3874 -0.1484
43218SOL    HW134110   1.467   5.921   4.066  1.3449 -0.7659  0.9477
43218SOL    HW234111   1.322   5.880   4.081  0.4240  1.2577 -1.6844
43219SOL     OW34112   2.173   7.412   8.335  0.1409  0.3572 -0.1320
43219SOL    HW134113   2.083   7.405   8.367  0.6772 -1.4762  1.1315
43219SOL    HW234114   2.216   7.472   8.397  0.2174 -0.1754  0.3391
43220SOL     OW34115   3.662   5.286   2.885  0.0781  0.8965  0.0194
43220SOL    HW134116   3.725   5.258   2.818  0.2219  0.5034  0.3116
43220SOL    HW234117   3.578   5.254   2.853  0.0811  1.0823 -0.1803
43221SOL     OW34118   7.613   1.073   0.988 -0.5456  0.1745  0.0159
43221SOL    HW134119   7.526   1.051   1.020 -0.6713 -0.4654 -0.7275
43221SOL    HW234120   7.603   1.161   0.949 -0.5883  0.5755  0.9091
43222SOL     OW34121   0.056   5.690   2.847 -0.0862  0.2031  0.6458
43222SOL    HW134122   0.036   5.753   2.916  0.8093  1.0708  0.1309
43222SOL    HW234123   0.060   5.742   2.767  1.4417 -0.3649  0.3177
43223SOL     OW34124   6.011   6.568   8.421  0.1667 -0.4416  0.5801
43223SOL    HW134125   6.103   6.541   8.414  0.1067 -0.3925 -0.8162
43223SOL    HW234126   5.989   6.556   8.513  1.5154 -0.6459  0.9011
43224SOL     OW34127   0.179   2.292   9.076 -0.2047 -0.4535 -0.2888
43224SOL    HW134128   0.188   2.383   9.048  0.4026  0.3573  2.2142
43224SOL    HW234129   0.258   2.249   9.043  0.1276  0.2602 -0.4590
43225SOL     OW34130   2.999   9.926   9.139 -0.0484  0.7033  0.5689
43225SOL    HW134131   2.923   9.951   9.192 -0.0750  0.2180  0.7632
43225SOL    HW234132   3.053  10.005   9.136 -0.0502  0.7393  1.3104
43226SOL     OW34133   4.163   0.730   7.250  0.6061 -0.7297  0.2755
43226SOL    HW134134   4.257   0.747   7.246  0.9542 -2.4954 -0.2496
43226SOL    HW234135   4.129   0.766   7.168  0.7405  0.2475  0.6347
43227SOL     OW34136   5.498   8.113  10.584  0.1629  0.3294 -0.1717
43227SOL    HW134137   5.421   8.062  10.557 -0.6167  0.2598  2.0032
43227SOL    HW234138   5.464   8.173  10.651  1.7300  1.3753 -0.2719
43228SOL     OW34139   9.291   4.544   6.213 -0.4475 -0.1608 -0.3966
43228SOL    HW134140   9.317   4.623   6.261  0.4148 -0.8466  0.2831
43228SOL    HW234141   9.243   4.491   6.277 -0.3661 -0.5301 -0.6389
43229SOL     OW34142   7.448   2.109  10.515  0.0648 -0.2740 -0.3108
43229SOL    HW134143   7.426   2.156  10.434  1.5960  1.0813  0.0107
43229SOL    HW234144   7.543   2.097  10.512  0.2460  0.3040  1.5089
43230SOL     OW34145  11.045   4.975   2.332  0.4175 -0.5360 -0.1290
43230SOL    HW134146  11.128   4.954   2.376  0.6178  1.8343  0.7917
43230SOL    HW234147  11.039   4.912   2.260  3.0351 -0.7654 -0.2369
43231SOL     OW34148  10.535   5.667   4.658 -0.4441 -0.3877 -0.4187
43231SOL    HW134149  10.451   5.646   4.698 -0.9790  1.1295 -0.6910
43231SOL    HW234150  10.561   5.750   4.698  1.3362 -1.2097  0.2572
43232SOL     OW34151   5.665   0.603   0.048 -0.0831  0.2697  0.0180
43232SOL    HW134152   5.664   0.582  -0.045 -1.4494 -1.1364  0.3297
43232SOL    HW234153   5.664   0.699   0.051  0.3096  0.3308 -1.4021
43233SOL     OW34154   2.129   7.795   3.544 -0.2866 -0.5357  0.4811
43233SOL    HW134155   2.085   7.711   3.560  1.2100 -1.0918  1.9988
43233SOL    HW234156   2.190   7.777   3.473 -0.5111 -0.5218  0.2837
43234SOL     OW34157   6.480   1.282   6.669  0.2822  0.0525  0.2589
43234SOL    HW134158   6.507   1.216   6.605  0.7257  0.0438  0.4576
43234SOL    HW234159   6.428   1.344   6.617  0.8295  0.1685 -0.1648
43235SOL     OW34160   3.861   6.663   1.541  0.4337  0.1914  0.2088
43235SOL    HW134161   3.855   6.758   1.529  1.4980  0.3364  0.7035
43235SOL    HW234162   3.830   6.648   1.630  1.9926  0.3033  0.7892
43236SOL     OW34163   0.403   9.799   4.608  0.5385 -0.6921  0.4852
43236SOL    HW134164   0.433   9.714   4.575  2.5325 -0.0807  0.5487
43236SOL    HW234165   0.477   9.831   4.661 -0.3929  0.8307  0.9184
43237SOL     OW34166  10.734   4.417  10.172 -0.2689 -0.4046  0.1907
43237SOL    HW134167  10.669   4.376  10.229 -0.9109 -0.0631 -0.2872
43237SOL    HW234168  10.704   4.508  10.163  0.9491  0.1049  0.9660
43238SOL     OW34169   7.934   8.255   7.204  0.0314  0.3487 -0.0435
43238SOL    HW134170   7.999   8.323   7.186  2.4082 -0.8235  3.1571
43238SOL    HW234171   7.984   8.173   7.199 -2.0681 -0.9687 -0.7968
43239SOL     OW34172   7.732   8.405   9.969 -0.0310 -0.1360  0.2140
43239SOL    HW134173   7.720   8.439  10.058 -0.7025  0.3944 -0.0666
43239SOL    HW234174   7.656   8.438   9.921  1.1901  1.0600 -0.9922
43240SOL     OW34175   2.892   2.961   8.352 -0.2397 -0.4858  0.5246
43240SOL    HW134176   2.901   2.868   8.334 -2.6576 -1.0947  2.0272
43240SOL    HW234177   2.806   2.970   8.394  0.2910  2.2939  1.2638
43241SOL     OW34178   9.708   0.195   5.122  0.6229  0.4169 -0.0956
43241SOL    HW134179   9.626   0.226   5.161  0.1488  2.4729 -2.4683
43241SOL    HW234180   9.770   0.266   5.137  1.4559 -0.3365  0.0855
43242SOL     OW34181   1.622   2.651   2.792  0.5627 -0.3809 -0.5003
43242SOL    HW134182   1.696   2.685   2.843  0.6538  0.2671 -1.0495
43242SOL    HW234183   1.613   2.712   2.719 -0.0475 -0.8731 -0.8485
43243SOL     OW34184   5.781  10.496   2.493 -0.2011 -0.9428 -0.1271
43243SOL    HW134185   5.860  10.466   2.539 -0.0175  0.2147  0.3477
43243SOL    HW234186   5.738  10.416   2.465  1.0224 -1.6133 -0.1840
43244SOL     OW34187   0.290  10.176   6.767  0.3139 -0.0689 -0.6765
43244SOL    HW134188   0.294  10.165   6.672 -0.8117 -0.4918 -0.6959
43244SOL    HW234189   0.200  10.152   6.790 -0.0698  2.0449  0.2453
43245SOL     OW34190   4.886   2.131   4.237  0.0172  0.1107 -0.3923
43245SOL    HW134191   4.900   2.190   4.311  1.5368 -0.6523 -0.0393
43245SOL    HW234192   4.974   2.110   4.206 -0.5279 -1.2269 -1.1012
43246SOL     OW34193   0.848   3.081   0.546  0.3349  0.0454 -0.1340
43246SOL    HW134194   0.938   3.109   0.528  0.5713 -1.8999 -2.4350
43246SOL    HW234195   0.854   3.036   0.630  1.5989 -0.3806 -0.4251
43247SOL     OW34196   3.907   2.321   1.827  0.0857 -0.3189  0.1540
43247SOL    HW134197   3.934   2.243   1.876 -2.2137 -1.1818  0.1704
43247SOL    HW234198   3.896   2.389   1.894 -0.6746 -0.8057  0.5340
43248SOL     OW34199   5.285   8.046   6.165  0.0564 -0.3698 -0.2601
43248SOL    HW134200   5.197   8.080   6.178 -0.2612 -1.6756  1.3347
43248SOL    HW234201   5.294   8.037   6.070 -2.0455 -1.4856 -0.4054
43249SOL     OW34202   0.691   3.665  10.734 -0.5155 -0.2920 -0.3790
43249SOL    HW134203   0.667   3.587  10.683 -0.6020 -0.2813 -0.3546
43249SOL    HW234204   0.727   3.631  10.816 -2.4409 -0.3065  0.5139
43250SOL     OW34205   0.743   9.554   9.016  0.3006 -0.1613  0.3653
43250SOL    HW134206   0.817   9.567   9.075  2.0898  0.3169 -1.8448
43250SOL    HW234207   0.742   9.460   9.000  1.3549 -0.0238 -0.6502
43251SOL     OW34208   6.442  10.633   2.166 -0.2567 -0.3272  0.1499
43251SOL    HW134209   6.471  10.620   2.256  1.0791  0.6580 -0.1141
43251SOL    HW234210   6.445  10.546   2.127  0.2865 -0.5725  0.7238
43252SOL     OW34211   5.759   2.951   9.764  0.2733  0.6543  0.3196
43252SOL    HW134212   5.771   2.891   9.690 -0.7205  0.4177  0.3425
43252SOL    HW234213   5.834   3.010   9.758  1.3064 -0.6083  0.3272
43253SOL     OW34214   6.996   8.312   2.362 -0.2013  0.1743  0.1767
43253SOL    HW134215   6.998   8.399   2.401 -1.2428 -0.8081  2.6854
43253SOL    HW234216   6.920   8.314   2.304  1.4974  1.7360 -2.1878
43254SOL     OW34217   2.934   9.210   2.818  0.4798 -0.0406  0.2516
43254SOL    HW134218   3.022   9.185   2.844  1.1869 -0.3930 -2.1526
43254SOL    HW234219   2.945   9.296   2.777  0.1224 -0.8850 -1.7628
43255SOL     OW34220   1.894   0.268   0.975 -0.2943 -0.0050 -0.0206
43255SOL    HW134221   1.807   0.291   0.941  0.6457  0.5610 -2.2368
43255SOL    HW234222   1.938   0.352   0.986  0.8350 -0.3399 -1.5378
43256SOL     OW34223   3.772   4.637  10.464  0.1839 -0.2595 -0.7820
43256SOL    HW134224   3.784   4.550  10.427  0.3183  0.2038 -1.8672
43256SOL    HW234225   3.861   4.670  10.477  0.1359 -0.4133 -0.0559
43257SOL     OW34226  10.193   2.688   5.356  0.1474  0.0877 -0.4833
43257SOL    HW134227  10.170   2.608   5.307 -0.2916 -0.5052  0.6634
43257SOL    HW234228  10.120   2.700   5.417  0.4800  1.0651 -0.2681
43258SOL     OW34229   0.843   7.506  10.712  0.2743  0.6908  0.0856
43258SOL    HW134230   0.809   7.430  10.666 -0.1053 -0.0656  1.5307
43258SOL    HW234231   0.813   7.581  10.661 -3.6700  0.1067  1.2122
43259SOL     OW34232   7.362   4.688   9.215 -0.3846 -0.0727 -1.1655
43259SOL    HW134233   7.338   4.687   9.123  0.7342 -3.5079 -1.5835
43259SOL    HW234234   7.427   4.757   9.222 -2.0918  1.7539 -2.3911
43260SOL     OW34235   8.481   1.723   5.160 -0.3071  0.4710 -0.3284
43260SOL    HW134236   8.523   1.703   5.244 -0.2101  0.0468 -0.4780
43260SOL    HW234237   8.457   1.816   5.168 -1.1076  0.2096  0.5047
43261SOL     OW34238  10.198   1.165   7.618  0.3571 -0.3831 -0.1347
43261SOL    HW134239  10.271   1.212   7.658  2.1942 -3.7569  0.8682
43261SOL    HW234240  10.123   1.183   7.676  1.1207  0.7249  0.5514
43262SOL     OW34241   0.504   6.424   6.173 -0.2416  0.2157 -0.0523
43262SOL    HW134242   0.578   6.425   6.111 -0.1928  0.0141  0.0009
43262SOL    HW234243   0.456   6.505   6.154  0.7972  1.0855  0.8781
43263SOL     OW34244   0.942   6.317   7.725  0.7512  0.3671  0.1268
43263SOL    HW134245   0.869   6.374   7.698  0.5349 -0.0686 -0.2091
43263SOL    HW234246   1.018   6.376   7.726  0.3670  0.8612  0.6370
43264SOL     OW34247   7.478   1.161   8.977 -0.0666  0.2389  0.4994
43264SOL    HW134248   7.545   1.147   8.910  0.4721  0.0783  1.0696
43264SOL    HW234249   7.436   1.244   8.952  1.2317  1.0300  0.8667
43265SOL     OW34250   1.348   4.658   9.191 -0.0655 -0.5364  0.3161
43265SOL    HW134251   1.379   4.675   9.280  0.8205 -1.2037  0.1428
43265SOL    HW234252   1.396   4.721   9.137  0.2539 -0.9070  0.1679
43266SOL     OW34253   3.633   9.105   6.472  0.1134 -0.5066  0.5230
43266SOL    HW134254   3.666   9.161   6.543  0.2600  0.7404 -0.4883
43266SOL    HW234255   3.692   9.122   6.399 -0.5298 -1.1366 -0.1558
43267SOL     OW34256   1.881   1.059   4.808  0.0762 -0.3299 -0.2371
43267SOL    HW134257   1.925   1.138   4.776 -0.6231 -0.1401 -0.7438
43267SOL    HW234258   1.880   1.000   4.733 -0.4260 -0.3747 -0.1992
43268SOL     OW34259   3.315   3.496   8.977 -0.0625 -0.6534  0.0474
43268SOL    HW134260   3.350   3.410   8.957  1.7876 -0.1712  0.9811
43268SOL    HW234261   3.298   3.494   9.071  0.2210  0.0430  0.1235
43269SOL     OW34262   3.107   1.929   9.583  0.3746 -0.6876  0.7156
43269SOL    HW134263   3.160   1.973   9.517  2.8497 -1.9611  1.7241
43269SOL    HW234264   3.038   1.886   9.533  2.7962 -2.5608 -1.3226
43270SOL     OW34265   4.322   7.852  10.261  0.1866 -0.1064 -0.2251
43270SOL    HW134266   4.410   7.840  10.297 -0.0808 -1.6074  0.0051
43270SOL    HW234267   4.332   7.831  10.168  0.4188  1.5426 -0.6017
43271SOL     OW34268   7.758   8.032   7.936  0.5110  0.0738 -0.0130
43271SOL    HW134269   7.805   8.054   7.856  2.5242 -0.8316  0.8516
43271SOL    HW234270   7.822   8.046   8.006 -0.8584 -0.1702  1.3415
43272SOL     OW34271   1.515   5.096   8.160 -0.0537  0.3556  0.5357
43272SOL    HW134272   1.504   5.127   8.250  0.4073 -0.2636  0.8104
43272SOL    HW234273   1.465   5.015   8.157 -1.6329  1.3063 -0.3059
43273SOL     OW34274   5.902   4.090   6.744 -0.2727  0.0162 -0.1990
43273SOL    HW134275   5.855   4.132   6.671  0.1976 -0.1934 -0.6289
43273SOL    HW234276   5.991   4.125   6.738 -0.1653 -0.2060  0.1140
43274SOL     OW34277   5.236   4.779   4.959  0.9919 -0.4454 -0.0452
43274SOL    HW134278   5.219   4.866   4.921 -0.1733 -0.9936 -0.8404
43274SOL    HW234279   5.277   4.730   4.888  2.9473 -0.1691  0.8288
43275SOL     OW34280   6.391   0.503   8.085 -0.0943 -0.7050  0.2046
43275SOL    HW134281   6.471   0.555   8.075 -0.0542 -1.2049 -3.2850
43275SOL    HW234282   6.392   0.474   8.176  2.7752  0.7321  0.7329
43276SOL     OW34283   2.413   2.758  10.006 -0.3520  0.2852  0.4610
43276SOL    HW134284   2.483   2.823   9.999 -0.3964  0.5665  2.3537
43276SOL    HW234285   2.356   2.790  10.075 -0.6035 -1.5531  1.1592
43277SOL     OW34286   8.614   6.587   0.983  0.2867 -0.4622  0.5533
43277SOL    HW134287   8.534   6.615   1.028 -0.4351 -1.4210 -0.0928
43277SOL    HW234288   8.585   6.565   0.894  1.3691 -0.3334  0.1517
43278SOL     OW34289   8.135   1.377   9.310 -0.4138 -0.0371 -0.2146
43278SOL    HW134290   8.157   1.406   9.399 -1.6309 -0.8694  0.3919
43278SOL    HW234291   8.083   1.449   9.274 -0.1545  0.1854 -0.1409
43279SOL     OW34292   5.832   9.600   3.379 -0.3329  0.0134 -0.0286
43279SOL    HW134293   5.742   9.633   3.383 -0.2548  0.1038  1.6132
43279SOL    HW234294   5.827   9.526   3.319 -1.4397  0.2146 -0.2092
43280SOL     OW34295   6.031   3.618   5.879 -0.0893 -0.2097  0.3483
43280SOL    HW134296   5.976   3.666   5.941 -2.6329 -1.2868 -0.9453
43280SOL    HW234297   6.017   3.526   5.900  1.7517 -0.5425  0.3327
43281SOL     OW34298  10.801   7.506  10.212  0.3593 -0.3490  0.0232
43281SOL    HW134299  10.807   7.459  10.129  1.9235  2.8414 -1.8382
43281SOL    HW234300  10.831   7.443  10.278  2.8938 -1.8305 -2.3498
43282SOL     OW34301   4.901   4.570   9.257 -0.3954  0.3607  0.2537
43282SOL    HW134302   4.907   4.626   9.334  0.9557  0.6864 -0.0600
43282SOL    HW234303   4.988   4.575   9.217 -0.8787 -0.3184 -0.9303
43283SOL     OW34304   8.086   0.685   9.917 -0.3474 -0.3962 -0.4371
43283SOL    HW134305   8.043   0.768   9.936  0.6057  0.3487 -1.4151
43283SOL    HW234306   8.151   0.675   9.987 -1.9382 -1.4694  0.9775
43284SOL     OW34307   7.941   6.004   9.121 -0.3330  0.0868 -0.4050
43284SOL    HW134308   7.982   5.976   9.039  0.3815  0.4367 -0.1765
43284SOL    HW234309   8.001   6.069   9.157 -0.8130  0.1915  0.2265
43285SOL     OW34310   4.091  10.833   6.103 -0.1068  0.3318 -0.2239
43285SOL    HW134311   4.101  10.854   6.011 -0.8248  1.4643 -0.0669
43285SOL    HW234312   4.037  10.754   6.104  0.4829 -0.0887 -0.7753
43286SOL     OW34313   2.690   0.288   5.611 -0.0988  0.0502 -0.2855
43286SOL    HW134314   2.677   0.345   5.687 -0.0874  0.7806 -0.8140
43286SOL    HW234315   2.781   0.259   5.618 -0.3914 -0.7094  0.5174
43287SOL     OW34316   6.768   7.848  10.570 -0.0283 -0.3239 -0.3634
43287SOL    HW134317   6.691   7.856  10.515 -0.2125 -1.4619 -0.2809
43287SOL    HW234318   6.796   7.939  10.585  0.0258  0.0228 -2.3070
43288SOL     OW34319  10.735   9.675   7.599 -0.0747  0.0818 -0.3658
43288SOL    HW134320  10.699   9.587   7.602  0.2179 -0.0678 -1.0623
43288SOL    HW234321  10.819   9.669   7.644 -0.9335  0.4546  1.3517
43289SOL     OW34322   7.546   5.777   8.460  0.1510 -0.2241  0.2354
43289SOL    HW134323   7.545   5.814   8.372 -0.2476  0.6647  0.5890
43289SOL    HW234324   7.453   5.767   8.483  0.1477  1.9852  1.4917
43290SOL     OW34325   0.255   4.794   4.595  0.0090 -1.1575  0.3915
43290SOL    HW134326   0.335   4.832   4.631 -0.2495 -1.4124  1.2673
43290SOL    HW234327   0.275   4.777   4.503  0.7320 -0.5999  0.4414
43291SOL     OW34328   6.736   2.711   0.511  0.2502  0.2093  0.4442
43291SOL    HW134329   6.696   2.761   0.440 -0.6284  0.1359  0.8642
43291SOL    HW234330   6.714   2.761   0.590  1.9335  0.7455  0.6065
43292SOL     OW34331   1.342   5.757   0.112  0.5063  0.4463  0.4079
43292SOL    HW134332   1.277   5.770   0.182 -0.1893 -2.5104  0.4523
43292SOL    HW234333   1.426   5.770   0.155  0.0630 -0.6770  1.6820
43293SOL     OW34334   7.058   4.370   1.992 -0.1196 -0.5431  0.3682
43293SOL    HW134335   7.023   4.458   2.002  0.7748 -0.0981 -0.2244
43293SOL    HW234336   7.050   4.351   1.898 -0.0360 -0.9736  0.4442
43294SOL     OW34337   2.644   7.234   0.690  0.2737  0.7673  0.2176
43294SOL    HW134338   2.590   7.269   0.761  0.6388  2.2465 -0.1959
43294SOL    HW234339   2.583   7.180   0.639 -0.3041  0.7391  0.9216
43295SOL     OW34340   7.278   7.858   4.499 -0.2676 -0.0831  0.1369
43295SOL    HW134341   7.330   7.875   4.420  1.3568 -0.7204  1.0336
43295SOL    HW234342   7.200   7.814   4.466  0.1738  0.0470 -1.1699
43296SOL     OW34343   4.014   6.610   3.346  0.9415  0.1868  0.2070
43296SOL    HW134344   4.037   6.656   3.426  2.1813  0.0952 -0.0722
43296SOL    HW234345   3.955   6.669   3.300  0.1416  0.2013  1.2160
43297SOL     OW34346   1.978   7.916   4.281 -0.1425  0.2041 -0.3719
43297SOL    HW134347   2.026   7.956   4.208  1.1035 -0.5085  0.0289
43297SOL    HW234348   1.927   7.846   4.240  0.2906  0.0236 -0.6162
43298SOL     OW34349   3.315   0.327   0.872  0.0286  0.2226 -0.2240
43298SOL    HW134350   3.358   0.248   0.841 -1.7310 -0.8893  0.0480
43298SOL    HW234351   3.322   0.389   0.800  0.5275 -0.5238 -0.8259
43299SOL     OW34352   6.873   6.136  11.011  0.3103  0.0763 -0.5379
43299SOL    HW134353   6.791   6.102  10.975  0.9487  0.4121 -2.4404
43299SOL    HW234354   6.941   6.077  10.978  1.0625  1.1503 -0.9898
43300SOL     OW34355   5.073   8.702   3.453  0.1345  0.5559  0.1665
43300SOL    HW134356   5.138   8.650   3.500 -0.0808 -1.4143 -1.5660
43300SOL    HW234357   5.116   8.786   3.438  2.0355 -0.4252 -0.2418
43301SOL     OW34358   2.768   9.700   8.078 -0.0889 -0.4731 -0.1542
43301SOL    HW134359   2.845   9.688   8.022  0.5668 -0.0505  0.6426
43301SOL    HW234360   2.723   9.777   8.041  0.1960 -0.3585 -0.2624
43302SOL     OW34361  10.870   9.089   2.597 -0.2697  0.2366 -0.4280
43302SOL    HW134362  10.842   9.108   2.507  1.1503 -1.5912 -1.3405
43302SOL    HW234363  10.966   9.086   2.592 -0.1857 -0.3460  1.0405
43303SOL     OW34364  10.036   2.834   6.194 -0.1195 -0.1990 -0.4636
43303SOL    HW134365   9.971   2.903   6.187 -0.3593 -0.5010 -1.2311
43303SOL    HW234366   9.989   2.760   6.234  0.7069  0.8018  2.7087
43304SOL     OW34367   4.820   2.435   9.007 -0.2059 -0.5184 -0.3954
43304SOL    HW134368   4.783   2.474   8.928  1.1924  0.8941 -0.4133
43304SOL    HW234369   4.821   2.341   8.989 -1.3396 -0.3691 -1.4106
43305SOL     OW34370   6.329   2.416   3.885 -0.3110 -0.0039  0.4996
43305SOL    HW134371   6.343   2.442   3.975  0.8864 -0.2384  0.3904
43305SOL    HW234372   6.408   2.442   3.839  0.6178 -2.9379  0.2050
43306SOL     OW34373   8.697   7.003   5.140 -0.7198 -0.8074 -0.2077
43306SOL    HW134374   8.788   6.984   5.165 -1.1719 -0.9750  1.4559
43306SOL    HW234375   8.701   7.089   5.099 -0.2196  1.0245  3.2588
43307SOL     OW34376  10.764   5.127  10.247 -0.6497  0.1222  0.1789
43307SOL    HW134377  10.706   5.199  10.223 -1.7619  0.1176  2.5301
43307SOL    HW234378  10.826   5.166  10.308 -0.5373 -0.6478  0.5699
43308SOL     OW34379  10.141  10.409   1.975 -0.3212 -0.6956  0.1974
43308SOL    HW134380  10.207  10.416   2.044 -1.0031  0.1565  0.7931
43308SOL    HW234381  10.096  10.494   1.977 -0.8127 -0.9213 -0.8258
43309SOL     OW34382   6.711  10.137   8.671  0.7020 -0.5490 -0.2783
43309SOL    HW134383   6.724  10.095   8.586  3.9968 -1.9877  0.7851
43309SOL    HW234384   6.776  10.207   8.673  0.8730 -0.7231  1.1462
43310SOL     OW34385   0.255   2.232   6.056  0.3949  0.2525  0.1220
43310SOL    HW134386   0.170   2.240   6.012  1.3038 -2.1971 -2.3860
43310SOL    HW234387   0.245   2.282   6.136 -4.2564 -1.7626  1.1580
43311SOL     OW34388   8.984   1.982   1.925 -0.2255 -0.4124 -0.1603
43311SOL    HW134389   8.954   1.895   1.898 -0.6321  0.1225 -1.5654
43311SOL    HW234390   9.000   2.028   1.842  2.3074  0.0888  0.4991
43312SOL     OW34391   9.141   3.799   8.749 -0.4206  0.4549  0.4893
43312SOL    HW134392   9.144   3.888   8.783 -0.0381  0.3625  0.6972
43312SOL    HW234393   9.222   3.758   8.780  0.0509  0.4382 -0.7266
43313SOL     OW34394   6.171   7.065   6.386 -0.4800  0.2967 -0.0228
43313SOL    HW134395   6.262   7.059   6.414 -1.1748 -1.4448  2.1313
43313SOL    HW234396   6.169   7.017   6.303  0.6869  1.0455 -0.5033
43314SOL     OW34397   6.245   6.162   8.783  0.4265 -0.0751  0.2172
43314SOL    HW134398   6.284   6.075   8.771  0.0144 -0.1170 -0.9819
43314SOL    HW234399   6.318   6.223   8.766  0.3979 -0.1808 -0.3278
43315SOL     OW34400   1.759   8.102   1.445 -0.1791 -0.0729  0.0036
43315SOL    HW134401   1.844   8.064   1.469  0.2169  0.5794 -0.3264
43315SOL    HW234402   1.695   8.041   1.480  0.3613  0.5380  2.2375
43316SOL     OW34403   8.834   4.118   8.090  0.4130 -0.6110  0.2358
43316SOL    HW134404   8.905   4.148   8.147 -0.9553 -1.0032  2.2449
43316SOL    HW234405   8.822   4.026   8.112 -0.0113 -0.8364 -0.8733
43317SOL     OW34406   7.363   2.659   8.404 -0.4060 -0.2229  0.4637
43317SOL    HW134407   7.400   2.702   8.327 -0.8947  1.5076  1.1397
43317SOL    HW234408   7.428   2.671   8.473 -0.7418 -0.1720  0.7787
43318SOL     OW34409   9.562   4.281   2.555  0.4280 -0.0610 -0.4571
43318SOL    HW134410   9.564   4.376   2.555 -2.5319  0.0981 -1.5083
43318SOL    HW234411   9.528   4.257   2.641  1.5091 -0.2212 -0.0594
43319SOL     OW34412   5.793   7.016   6.818 -0.3789  0.3949 -0.1478
43319SOL    HW134413   5.831   7.002   6.904  0.1463 -0.9743 -0.5769
43319SOL    HW234414   5.784   7.111   6.810  0.5275  0.5872  0.9895
43320SOL     OW34415  10.573   6.884   0.301 -0.2370 -0.2303 -0.6047
43320SOL    HW134416  10.540   6.940   0.231 -0.1958  0.4000 -0.1312
43320SOL    HW234417  10.616   6.812   0.255  1.6078  1.2185 -1.2911
43321SOL     OW34418  10.070   9.880   1.937  0.1252 -0.3067  0.6068
43321SOL    HW134419  10.075   9.975   1.942 -1.1698 -0.0860 -1.2613
43321SOL    HW234420  10.088   9.850   2.026  0.4600  1.6846  1.2478
43322SOL     OW34421   4.337   6.922   7.988  0.1453 -0.0995 -0.1706
43322SOL    HW134422   4.363   6.884   7.904  0.9010 -2.5500  1.0722
43322SOL    HW234423   4.368   6.860   8.053 -0.8914  1.4503  1.9340
43323SOL     OW34424   1.746   1.430  10.615  0.2025  0.1015  0.5803
43323SOL    HW134425   1.726   1.521  10.594 -1.1815 -0.1991  0.4946
43323SOL    HW234426   1.713   1.417  10.704 -0.1406 -0.4526  0.3841
43324SOL     OW34427   8.077   9.753   3.216 -0.0193 -0.0952 -0.0939
43324SOL    HW134428   8.099   9.684   3.152  1.2301 -0.5784  0.8103
43324SOL    HW234429   8.148   9.816   3.207 -0.4429  0.4047  0.0418
43325SOL     OW34430   0.971   0.458   0.997  0.3582  0.5579 -0.3862
43325SOL    HW134431   1.010   0.375   1.025  0.5029  0.1955 -1.5683
43325SOL    HW234432   0.878   0.438   0.986  0.1861  0.8719  0.4420
43326SOL     OW34433  10.418   5.992   7.342 -0.1389 -0.5110  0.2633
43326SOL    HW134434  10.428   5.910   7.295 -2.4491 -1.0319  0.5600
43326SOL    HW234435  10.402   5.966   7.433  0.4521  0.3258  0.6175
43327SOL     OW34436  10.937   5.650   3.735  0.2748  0.7734 -0.0116
43327SOL    HW134437  10.876   5.724   3.743  1.9165  2.3194 -0.9668
43327SOL    HW234438  10.946   5.637   3.641 -0.3009 -0.9714  0.1441
43328SOL     OW34439   2.547   3.353   4.535  0.1147 -0.1745 -0.0169
43328SOL    HW134440   2.575   3.368   4.445 -0.4426 -0.0964 -0.1797
43328SOL    HW234441   2.599   3.414   4.587 -0.6891  0.9279 -0.4559
43329SOL     OW34442   7.466   7.765   3.643  0.3930 -0.4102  0.2218
43329SOL    HW134443   7.419   7.845   3.619  0.2769 -0.5438 -0.0006
43329SOL    HW234444   7.518   7.790   3.719  2.0215  0.4898 -1.1076
43330SOL     OW34445   8.726   8.209  10.760  0.3835 -0.2835 -0.3692
43330SOL    HW134446   8.762   8.178  10.677  1.1088  1.8184 -0.9153
43330SOL    HW234447   8.687   8.294  10.739 -0.5440 -0.2842  1.2072
43331SOL     OW34448   5.934   6.648   0.380  0.0230 -0.4956 -0.0618
43331SOL    HW134449   6.028   6.662   0.396  0.1787 -1.1147 -0.3951
43331SOL    HW234450   5.914   6.701   0.303  0.3031 -1.0481 -0.5210
43332SOL     OW34451   5.864   9.654   4.101 -0.3901 -0.3719 -0.2550
43332SOL    HW134452   5.832   9.612   4.181  0.4852  2.1812  1.5775
43332SOL    HW234453   5.812   9.734   4.093  0.2367 -0.0769 -1.6744
43333SOL     OW34454   6.467   0.287   6.574 -0.3239  0.3603  0.3011
43333SOL    HW134455   6.390   0.231   6.576  1.2593 -1.9711 -0.3188
43333SOL    HW234456   6.532   0.241   6.628  0.9316  1.8247  0.1208
43334SOL     OW34457   2.536  10.117  11.051  0.4893  0.2127 -0.5535
43334SOL    HW134458   2.511  10.044  11.109  0.8106  0.7731  0.3074
43334SOL    HW234459   2.458  10.173  11.049  0.3085 -0.0548 -1.0635
43335SOL     OW34460   7.616   3.252  10.181 -0.1501 -0.5453 -0.1373
43335SOL    HW134461   7.684   3.315  10.155 -0.0645 -0.4214  0.3697
43335SOL    HW234462   7.534   3.297  10.161 -0.0845 -0.5860 -0.5016
43336SOL     OW34463   5.386   9.623   9.972  0.1462 -0.3688 -0.2301
43336SOL    HW134464   5.432   9.616  10.056 -1.7286  0.3440  0.9223
43336SOL    HW234465   5.454   9.645   9.909  1.4152  0.4200  1.3424
43337SOL     OW34466   8.178   6.993   7.233  0.2952  0.5738  0.2910
43337SOL    HW134467   8.260   6.962   7.272 -0.0147 -1.0812 -0.3122
43337SOL    HW234468   8.184   6.966   7.141 -0.4462  1.4442 -0.0288
43338SOL     OW34469   9.359   9.692   6.414  0.4669 -0.6277  0.1351
43338SOL    HW134470   9.312   9.729   6.339 -1.2570 -1.5156  0.7333
43338SOL    HW234471   9.343   9.754   6.485  1.3819 -0.2346  0.0201
43339SOL     OW34472   9.734   1.440   8.439  0.3565 -0.2388  0.8642
43339SOL    HW134473   9.672   1.400   8.378  0.7484  1.3717 -0.6934
43339SOL    HW234474   9.682   1.461   8.516 -0.6949 -0.3039  0.1987
43340SOL     OW34475   1.896   2.605   0.842 -0.0600  0.5081 -0.3161
43340SOL    HW134476   1.924   2.643   0.760  1.3667  1.5406  0.6120
43340SOL    HW234477   1.856   2.677   0.890  1.1768  0.4975  0.7920
43341SOL     OW34478   9.533   4.290   5.992  0.2516  1.0672  0.2995
43341SOL    HW134479   9.455   4.276   6.047 -0.5789  3.4443 -0.1679
43341SOL    HW234480   9.510   4.253   5.907 -0.2308  1.4203  0.2744
43342SOL     OW34481   6.055   0.069   9.990  0.6168 -0.2196 -0.1106
43342SOL    HW134482   5.972   0.091   9.947 -1.7151 -1.5169  3.2625
43342SOL    HW234483   6.078  -0.016   9.953 -1.4493 -1.4133  1.1170
43343SOL     OW34484   5.794   2.752   6.942 -0.0512 -0.2447 -0.4633
43343SOL    HW134485   5.774   2.820   7.006 -2.1211 -1.3613  0.1604
43343SOL    HW234486   5.788   2.796   6.857 -1.4320  0.3624 -0.0754
43344SOL     OW34487   3.298   5.688   5.265  0.1248  0.2554  0.0738
43344SOL    HW134488   3.326   5.780   5.272  1.2206 -0.0924  0.4228
43344SOL    HW234489   3.226   5.690   5.201  1.0250  1.1720 -0.9506
43345SOL     OW34490   0.613   0.021   7.732  0.0136  0.0431 -0.4739
43345SOL    HW134491   0.689  -0.007   7.783  0.3699  0.4188 -0.7840
43345SOL    HW234492   0.604  -0.045   7.664 -0.7157 -0.6825  0.3084
43346SOL     OW34493   1.384   4.958   5.780  0.1700 -0.0888 -0.1512
43346SOL    HW134494   1.399   5.013   5.857  0.2955 -0.7493  0.3044
43346SOL    HW234495   1.468   4.916   5.763 -0.2289 -1.1254  0.3000
43347SOL     OW34496  10.293   8.635   9.747 -0.3280  0.2735  0.5687
43347SOL    HW134497  10.226   8.567   9.735 -1.4159  1.5171 -0.7155
43347SOL    HW234498  10.252   8.715   9.713  2.4964  0.7393 -2.1761
43348SOL     OW34499   1.039   1.306   0.149 -0.3394  0.0100  0.0339
43348SOL    HW134500   1.069   1.272   0.234  0.8909  0.4166 -0.2338
43348SOL    HW234501   0.955   1.347   0.169  0.0382  0.2948  1.1057
43349SOL     OW34502   7.572   8.016   6.835  0.3195 -0.6806 -0.0797
43349SOL    HW134503   7.612   7.929   6.835 -1.1684 -1.4141  1.1730
43349SOL    HW234504   7.644   8.075   6.815  1.6045 -2.0972  0.1602
43350SOL     OW34505   5.604   3.862   2.411 -0.5812  0.1783  0.4136
43350SOL    HW134506   5.693   3.842   2.381 -1.5557 -1.1750 -1.8309
43350SOL    HW234507   5.615   3.891   2.502  2.3092  1.6598 -0.2781
43351SOL     OW34508   5.888   4.703   2.489 -0.2232  0.3006 -0.0586
43351SOL    HW134509   5.841   4.731   2.567 -0.8696 -0.6076 -0.1040
43351SOL    HW234510   5.821   4.701   2.420  0.2524  0.6868 -0.5407
43352SOL     OW34511  10.160  10.231   7.752 -0.0895 -0.1880 -0.0075
43352SOL    HW134512  10.254  10.232   7.737  0.2158  1.4948  1.6664
43352SOL    HW234513  10.132  10.321   7.740 -1.1678 -0.3297  1.1759
43353SOL     OW34514   6.347   2.931   2.797  0.5152 -0.2441 -0.0990
43353SOL    HW134515   6.342   3.023   2.823  0.0271 -0.3031  0.0286
43353SOL    HW234516   6.280   2.922   2.730 -0.8356 -0.9623  1.2871
43354SOL     OW34517   2.896   6.150   7.974  0.2666 -0.3272 -0.8444
43354SOL    HW134518   2.860   6.174   7.889  1.5851 -1.3805 -1.7631
43354SOL    HW234519   2.963   6.084   7.953 -0.6953 -2.0586  1.1710
43355SOL     OW34520   7.822  10.437   3.505 -0.3432  0.1525 -0.0690
43355SOL    HW134521   7.813  10.342   3.512 -0.8784  0.2747  1.4917
43355SOL    HW234522   7.833  10.466   3.596  0.3760  1.5336 -0.5673
43356SOL     OW34523   9.345   8.662   5.070  0.8996 -0.4189 -0.0402
43356SOL    HW134524   9.271   8.609   5.099  0.7752 -0.8737 -1.1502
43356SOL    HW234525   9.419   8.601   5.065  0.8797 -0.3837 -0.8262
43357SOL     OW34526   1.917   2.407   5.841  0.5528 -0.0426 -0.0095
43357SOL    HW134527   1.876   2.469   5.901  1.4216 -0.5499  1.1259
43357SOL    HW234528   2.002   2.447   5.820  0.5957 -0.2613 -0.2634
43358SOL     OW34529   5.390   9.912   3.633  0.5748 -0.1813 -0.5952
43358SOL    HW134530   5.349   9.921   3.547  0.6353  1.5953 -0.4757
43358SOL    HW234531   5.484   9.910   3.614  0.6054  0.5903 -0.5693
43359SOL     OW34532   4.984   7.677   5.791  0.3475 -0.1735  0.2601
43359SOL    HW134533   5.048   7.711   5.728 -0.2622  0.0937 -0.2263
43359SOL    HW234534   4.940   7.606   5.744 -0.3205  0.2273  0.2799
43360SOL     OW34535   2.969   0.430   8.998 -0.2654 -0.1639 -0.1331
43360SOL    HW134536   3.013   0.348   8.976 -2.3477 -1.1064 -1.0766
43360SOL    HW234537   2.932   0.414   9.085  3.7247  1.7794  2.2291
43361SOL     OW34538   1.832   9.832   1.693 -0.1279  0.2446  0.2891
43361SOL    HW134539   1.797   9.912   1.655  0.9725  0.7484  0.3130
43361SOL    HW234540   1.916   9.819   1.649 -0.6606 -1.3792 -0.3438
43362SOL     OW34541   0.311   6.013   6.367  0.1709 -0.4093  0.0948
43362SOL    HW134542   0.335   6.076   6.299 -0.2246 -0.9859 -0.5869
43362SOL    HW234543   0.391   5.962   6.380  0.4305  0.0843  0.5046
43363SOL     OW34544   5.206   5.643   6.640 -0.7761  0.1969  0.5064
43363SOL    HW134545   5.113   5.630   6.624 -1.2934  2.1254  1.6794
43363SOL    HW234546   5.235   5.561   6.681 -1.5830 -0.9716 -1.1254
43364SOL     OW34547   2.768  10.531   0.412 -0.6034  0.2804  0.3840
43364SOL    HW134548   2.829  10.605   0.417 -2.3488  2.0261 -1.6356
43364SOL    HW234549   2.716  10.538   0.492 -0.7845  1.3300  0.1933
43365SOL     OW34550   5.345   2.267   0.786 -0.1408  0.0494  0.3950
43365SOL    HW134551   5.345   2.306   0.873 -0.3722  0.0176  0.4113
43365SOL    HW234552   5.299   2.184   0.797 -3.3359  1.5424 -0.3955
43366SOL     OW34553   1.912   5.272   4.082 -0.4903 -0.6245 -0.3225
43366SOL    HW134554   1.900   5.253   4.175 -3.3259 -0.6589 -0.6205
43366SOL    HW234555   1.884   5.192   4.037  0.9376 -0.6484 -1.2537
43367SOL     OW34556   2.744   0.244   4.599  0.1227  0.2841  0.3977
43367SOL    HW134557   2.832   0.218   4.628 -0.6494 -0.2059  2.5252
43367SOL    HW234558   2.718   0.177   4.537  0.8962 -0.0757  0.4510
43368SOL     OW34559   7.389  10.994  10.784 -0.0524  0.0451 -0.4636
43368SOL    HW134560   7.314  10.942  10.756 -1.2423  1.2737  0.3265
43368SOL    HW234561   7.361  11.036  10.865  2.0176 -0.5793  0.6550
43369SOL     OW34562   3.243   3.520   0.779  0.2663 -0.7184  0.1215
43369SOL    HW134563   3.177   3.472   0.828 -1.3486  0.7587 -0.4992
43369SOL    HW234564   3.255   3.469   0.699 -0.0662 -1.0257  0.2632
43370SOL     OW34565   4.683   9.757   9.381  0.3615  0.5017  0.1532
43370SOL    HW134566   4.744   9.822   9.416 -0.9132  1.4370  0.7182
43370SOL    HW234567   4.721   9.673   9.406  0.4496  1.1010  2.2793
43371SOL     OW34568   5.122  10.931   7.899 -0.5543  0.2957  0.1324
43371SOL    HW134569   5.080  10.991   7.961  0.1530  1.4460 -0.4550
43371SOL    HW234570   5.077  10.947   7.816  0.4268  0.9150 -0.3033
43372SOL     OW34571   7.234  10.755   3.325  0.5036 -0.3487 -0.6546
43372SOL    HW134572   7.185  10.766   3.244 -0.1056 -0.7253 -0.3488
43372SOL    HW234573   7.201  10.824   3.383  0.0668 -0.8270 -0.3252
43373SOL     OW34574   0.608   7.915   7.589  0.2652  0.0787  0.0973
43373SOL    HW134575   0.549   7.902   7.515  0.2788 -0.1367  0.1236
43373SOL    HW234576   0.554   7.898   7.666  0.5918 -1.0661  0.0972
43374SOL     OW34577   4.204   2.453   6.394  0.2950 -0.7748  0.2418
43374SOL    HW134578   4.167   2.398   6.463 -0.1780  0.4915  1.0300
43374SOL    HW234579   4.130   2.469   6.334  0.0548  0.1416  0.7683
43375SOL     OW34580   9.905   4.822   4.107 -0.4058  0.4481 -0.7161
43375SOL    HW134581   9.902   4.844   4.201 -0.5044 -2.3494  0.0208
43375SOL    HW234582   9.974   4.879   4.072 -0.3940  1.5938  1.0494
43376SOL     OW34583   0.580   0.732  10.666  0.1120 -0.2693  0.0893
43376SOL    HW134584   0.521   0.734  10.742 -1.9259  0.0626 -1.4041
43376SOL    HW234585   0.632   0.812  10.675 -1.6493  0.9463  0.0426
43377SOL     OW34586   3.155   2.388   5.841 -0.1091 -0.6063  0.1206
43377SOL    HW134587   3.199   2.313   5.802  1.2697  0.5578 -0.6776
43377SOL    HW234588   3.073   2.396   5.793 -1.5474 -3.0864  1.9387
43378SOL     OW34589   5.784   5.649   2.012 -0.7449  0.1559  0.5146
43378SOL    HW134590   5.855   5.668   1.951 -0.4271  0.2111  0.8979
43378SOL    HW234591   5.805   5.563   2.047 -1.7634 -0.5908 -0.6281
43379SOL     OW34592   7.602   4.637  10.271  0.0780  0.3521  0.6463
43379SOL    HW134593   7.681   4.605  10.228 -0.0665  0.6551  0.1505
43379SOL    HW234594   7.544   4.561  10.274  0.7774 -0.1756  1.9907
43380SOL     OW34595   7.372   1.599   5.013 -0.1189 -0.7709 -0.0511
43380SOL    HW134596   7.383   1.542   4.937 -0.9583 -1.4956  0.3546
43380SOL    HW234597   7.461   1.625   5.036  0.1357 -0.5088 -1.2992
43381SOL     OW34598   6.325   3.295   7.010  0.3691 -0.1400 -0.3798
43381SOL    HW134599   6.338   3.254   6.924 -0.5395 -0.3691 -0.4175
43381SOL    HW234600   6.372   3.240   7.071  0.5371 -0.3049 -0.6582
43382SOL     OW34601   2.222   8.681   0.489 -0.0187 -0.2029 -0.6219
43382SOL    HW134602   2.198   8.682   0.581  0.7997 -0.9053 -0.3783
43382SOL    HW234603   2.258   8.593   0.475  0.1568  0.0016 -1.5251
43383SOL     OW34604   9.021   7.462   9.987 -0.5386 -0.1691  0.2731
43383SOL    HW134605   9.098   7.489  10.036 -0.2822  0.5481 -0.4999
43383SOL    HW234606   8.981   7.393  10.040 -0.4108  0.7475  1.5930
43384SOL     OW34607  10.973   3.080   0.908  0.6117 -0.3389 -0.1791
43384SOL    HW134608  10.978   3.174   0.929  0.4762 -0.5791  0.9739
43384SOL    HW234609  10.899   3.074   0.848 -0.9244  0.0102  1.5898
43385SOL     OW34610   4.653   7.030   4.146  0.4134 -0.8098  0.4143
43385SOL    HW134611   4.610   7.109   4.177 -1.6933 -1.6492 -0.2149
43385SOL    HW234612   4.638   6.966   4.215  1.5589 -0.8627  0.6324
43386SOL     OW34613  10.257  10.305   3.894 -0.8459  0.5252  0.5246
43386SOL    HW134614  10.329  10.242   3.890 -1.1124  0.2625 -0.5948
43386SOL    HW234615  10.294  10.384   3.854 -1.1569  0.3989 -0.0245
43387SOL     OW34616   9.269   8.561  10.336  0.1818 -0.5287  0.0874
43387SOL    HW134617   9.237   8.627  10.398  1.4166 -2.4716  3.0178
43387SOL    HW234618   9.280   8.482  10.389  3.3982 -1.7811 -2.1223
43388SOL     OW34619   7.869   0.085   2.175 -0.6907 -0.4044 -0.1062
43388SOL    HW134620   7.907   0.164   2.214 -0.4826 -0.2705 -0.5721
43388SOL    HW234621   7.862   0.105   2.082  0.1200 -1.2352 -0.3578
43389SOL     OW34622   8.680   5.567   3.259  0.0325 -0.2556 -0.1834
43389SOL    HW134623   8.744   5.495   3.255 -0.8958 -1.2439  1.4785
43389SOL    HW234624   8.726   5.637   3.305  0.1009 -0.7922  0.5906
43390SOL     OW34625   9.684   4.121   9.098  0.6606  0.2398  0.2982
43390SOL    HW134626   9.720   4.208   9.120  0.1123  0.4423  0.4080
43390SOL    HW234627   9.625   4.101   9.171 -0.2688  0.3898 -0.3955
43391SOL     OW34628   9.169   6.259   2.325 -0.1638  0.5789 -0.5657
43391SOL    HW134629   9.139   6.226   2.240  0.4698  0.0217 -0.5838
43391SOL    HW234630   9.175   6.181   2.380  0.2605  0.8176 -0.2666
43392SOL     OW34631   0.587  11.070   5.717  0.0388  0.2693  0.0058
43392SOL    HW134632   0.622  11.147   5.761  0.3091 -0.0230  0.3074
43392SOL    HW234633   0.497  11.063   5.748  0.5105 -0.4776  1.2561
43393SOL     OW34634   7.789   3.063   5.958  0.1831  0.5363 -0.7179
43393SOL    HW134635   7.817   3.078   6.048  1.0845  0.1229 -0.9261
43393SOL    HW234636   7.720   3.128   5.943 -0.7400 -0.1096  0.6195
43394SOL     OW34637   3.803   9.066  10.331 -0.2864 -0.0082 -0.2342
43394SOL    HW134638   3.888   9.048  10.371  0.3650  0.4563 -1.3568
43394SOL    HW234639   3.781   8.985  10.284 -0.8736 -0.4205  0.7209
43395SOL     OW34640   1.536  10.718   7.139  0.3105  1.0356 -0.3095
43395SOL    HW134641   1.465  10.743   7.080  0.0892 -0.2763 -0.6160
43395SOL    HW234642   1.615  10.726   7.085  0.0814 -0.4296 -0.8870
43396SOL     OW34643   4.369   1.451  10.844  0.1564 -0.1835 -0.3425
43396SOL    HW134644   4.343   1.449  10.752 -0.0583 -1.7130 -0.2753
43396SOL    HW234645   4.464   1.466  10.843  0.2139 -0.5944 -0.8235
43397SOL     OW34646  10.108   8.496  10.029  0.5403 -0.1934  0.2553
43397SOL    HW134647  10.026   8.459  10.063 -0.2494  0.9836 -0.3252
43397SOL    HW234648  10.128   8.568  10.088  1.4889 -0.8276  0.7310
43398SOL     OW34649   6.350   8.751  10.866 -0.5339 -0.1344 -0.3245
43398SOL    HW134650   6.295   8.807  10.811  0.1864  1.6819  0.7038
43398SOL    HW234651   6.425   8.806  10.890 -1.2957 -0.3858  3.2772
43399SOL     OW34652   9.522   7.070   5.194 -0.3308  0.4771 -0.0578
43399SOL    HW134653   9.616   7.087   5.183  0.3125 -2.5623 -0.4098
43399SOL    HW234654   9.508   7.072   5.289  0.7584 -1.5164  0.2151
43400SOL     OW34655   2.713   4.754   9.672  0.1072 -0.3448 -0.0595
43400SOL    HW134656   2.647   4.805   9.625  1.7768  1.3754 -0.6594
43400SOL    HW234657   2.794   4.771   9.625  1.7258  0.7987  2.8842
43401SOL     OW34658   7.223   7.029   8.485 -0.0431 -0.2580  0.4033
43401SOL    HW134659   7.129   7.047   8.490  0.0838  0.2349  1.2516
43401SOL    HW234660   7.233   6.972   8.409 -0.6795  1.9266 -1.4273
43402SOL     OW34661   9.543   3.968   2.627  0.2878  0.4829 -0.4497
43402SOL    HW134662   9.563   4.045   2.681  0.1581  1.6481 -1.9843
43402SOL    HW234663   9.465   3.994   2.577 -1.0148 -1.4343  0.4597
43403SOL     OW34664   0.337   6.205   6.150 -0.2057  0.3271 -0.1541
43403SOL    HW134665   0.389   6.141   6.102 -0.9626  1.2621 -2.3525
43403SOL    HW234666   0.401   6.272   6.178  0.0382  0.6191 -1.3596
43404SOL     OW34667   8.937   5.213   8.254  0.0235 -0.1483  0.1095
43404SOL    HW134668   8.984   5.284   8.297  1.3348 -1.8045  1.5580
43404SOL    HW234669   8.926   5.243   8.163  1.1251  1.5954  0.5100
43405SOL     OW34670   0.475   9.737   3.509  0.5387 -0.1943  0.0253
43405SOL    HW134671   0.517   9.700   3.432  0.3055  1.8685 -1.1868
43405SOL    HW234672   0.409   9.672   3.534  2.0813 -1.8951 -0.1310
43406SOL     OW34673  10.672  10.947   7.425  0.1289 -0.3339  0.0339
43406SOL    HW134674  10.662  11.032   7.382 -1.3135 -1.4039 -1.8695
43406SOL    HW234675  10.731  10.898   7.368 -0.7489 -1.3312 -0.0494
43407SOL     OW34676   1.401   8.164   9.919  0.3007 -0.0583  1.0292
43407SOL    HW134677   1.423   8.076   9.950  1.8523  0.4836  1.5771
43407SOL    HW234678   1.464   8.181   9.849 -0.5146  0.3170  0.3724
43408SOL     OW34679   9.311   2.139   6.029  0.3231  0.6938 -0.0810
43408SOL    HW134680   9.398   2.120   5.994 -0.4937 -0.9479 -1.3745
43408SOL    HW234681   9.290   2.226   5.996  2.1101  1.8682  1.6689
43409SOL     OW34682   3.898   2.814   7.102 -0.4921  0.0845  0.0851
43409SOL    HW134683   3.907   2.904   7.134 -0.8933  0.0534  0.2771
43409SOL    HW234684   3.980   2.771   7.129  1.2506  1.2464 -2.8459
43410SOL     OW34685   8.724   5.866   3.218 -0.0500  0.1467  0.0847
43410SOL    HW134686   8.717   5.950   3.263 -1.6081 -0.3306  0.7950
43410SOL    HW234687   8.817   5.858   3.196  0.1298  2.0491 -0.0143
43411SOL     OW34688   6.003  10.876   5.907  0.0501  0.1574 -0.1371
43411SOL    HW134689   6.027  10.868   5.814  0.4560  0.2608 -0.0459
43411SOL    HW234690   6.064  10.817   5.952 -0.8503 -0.7297 -0.0324
43412SOL     OW34691   1.885   0.228   8.712 -0.1961  0.2708 -0.4326
43412SOL    HW134692   1.889   0.133   8.697 -0.8067  0.1054  0.4439
43412SOL    HW234693   1.794   0.246   8.733  0.3593  0.6495  1.9362
43413SOL     OW34694   2.785   2.100   0.399 -0.3925  0.2029 -0.1299
43413SOL    HW134695   2.690   2.100   0.410 -0.6865  1.5447 -2.2183
43413SOL    HW234696   2.800   2.151   0.320  2.0634 -0.3015 -0.0556
43414SOL     OW34697   8.167  10.554   0.613 -0.2997  0.2206  0.5486
43414SOL    HW134698   8.235  10.620   0.603 -1.2185  0.8584 -2.3908
43414SOL    HW234699   8.215  10.471   0.623  1.0419  0.5253 -2.2642
43415SOL     OW34700   3.646   4.552   9.372  0.5954  0.0578  0.1871
43415SOL    HW134701   3.667   4.460   9.354 -2.8019 -0.7759 -0.2221
43415SOL    HW234702   3.551   4.557   9.365  0.7009  3.8697 -0.7698
43416SOL     OW34703   3.150   9.227   5.586  0.8634  0.2398 -0.4930
43416SOL    HW134704   3.236   9.241   5.547  0.5923  1.3329 -0.7444
43416SOL    HW234705   3.089   9.239   5.513  0.4256  0.9594 -0.0310
43417SOL     OW34706   0.041   6.710   8.960 -0.3892  0.4909  0.0793
43417SOL    HW134707  -0.044   6.665   8.963  0.3291 -0.8942  1.8362
43417SOL    HW234708   0.101   6.645   8.923  0.6745 -0.1598  2.6855
43418SOL     OW34709   9.224   6.149   8.551 -0.0478 -0.0361  0.4670
43418SOL    HW134710   9.140   6.185   8.581 -0.1627 -0.5470  0.7861
43418SOL    HW234711   9.219   6.056   8.576 -0.5564 -0.7475 -2.0140
43419SOL     OW34712  10.607   5.100   2.332 -0.1630 -0.6410 -0.2669
43419SOL    HW134713  10.549   5.099   2.255 -0.7611  0.2096  0.1609
43419SOL    HW234714  10.587   5.183   2.376 -0.6762 -1.6170  1.4477
43420SOL     OW34715   0.751   4.768   9.741  0.5603 -0.0319  0.0582
43420SOL    HW134716   0.805   4.847   9.744 -1.7024  1.6431 -1.1371
43420SOL    HW234717   0.667   4.796   9.707 -0.4082 -2.9569 -0.3041
43421SOL     OW34718   0.641  10.406   9.905  0.2842  0.0244  0.4170
43421SOL    HW134719   0.570  10.414   9.842 -0.1393  0.5801  0.9391
43421SOL    HW234720   0.596  10.398   9.990  0.8173 -1.9029  0.5618
43422SOL     OW34721   5.068   5.066   4.510 -0.6677  0.3545 -0.1442
43422SOL    HW134722   5.113   5.134   4.560 -1.4061  1.1636 -0.5495
43422SOL    HW234723   5.038   5.111   4.431  1.8918 -1.2560 -2.1690
43423SOL     OW34724   0.857  10.348   8.510 -0.0229  0.0027  0.3170
43423SOL    HW134725   0.797  10.297   8.566 -0.8249  0.4888 -0.0819
43423SOL    HW234726   0.819  10.435   8.507 -0.6213 -0.2644 -1.8518
43424SOL     OW34727   8.135   9.362   8.593 -0.0830  0.6471 -0.0883
43424SOL    HW134728   8.209   9.422   8.581  0.6226 -0.2819 -0.5032
43424SOL    HW234729   8.174   9.275   8.587 -1.1688  0.1443  0.0066
43425SOL     OW34730   0.631   1.159   4.657  0.0228  0.1440 -0.0200
43425SOL    HW134731   0.584   1.242   4.669  3.1086  1.8855  1.2789
43425SOL    HW234732   0.677   1.169   4.574 -0.0553 -0.5456 -0.1511
43426SOL     OW34733   8.316   0.598   1.785 -0.3154 -0.3056 -0.2586
43426SOL    HW134734   8.300   0.517   1.834  0.4004 -1.5240 -1.9242
43426SOL    HW234735   8.402   0.627   1.814 -1.4247  1.1063  1.8922
43427SOL     OW34736   8.289   3.389   0.402  0.4754  0.0466  0.0416
43427SOL    HW134737   8.272   3.306   0.357  1.7241 -0.1506 -0.1117
43427SOL    HW234738   8.354   3.367   0.469  0.7282  0.8742  0.0821
43428SOL     OW34739   1.090   4.236   6.790  0.2055 -0.1485 -0.1240
43428SOL    HW134740   1.119   4.174   6.857 -3.3255 -2.3692 -0.3982
43428SOL    HW234741   1.121   4.198   6.707 -0.7191 -0.8412 -0.1717
43429SOL     OW34742   5.969   2.931   5.753 -0.6519  0.1023  0.1630
43429SOL    HW134743   6.013   2.899   5.674 -0.0364  1.4080 -0.0662
43429SOL    HW234744   5.876   2.931   5.730 -0.5362 -0.1466 -0.3322
43430SOL     OW34745   6.307   7.015   4.761  0.3993  0.1029 -0.1405
43430SOL    HW134746   6.350   7.099   4.778  1.0275 -0.0677 -0.8314
43430SOL    HW234747   6.227   7.038   4.713  1.3423  0.2323 -1.7227
43431SOL     OW34748   8.496   5.526   7.979  0.4751 -0.4167 -0.4059
43431SOL    HW134749   8.495   5.617   8.008 -1.7946 -0.4015 -0.3733
43431SOL    HW234750   8.587   5.498   7.991  1.5165  2.1507 -1.4843
43432SOL     OW34751   1.568   9.283   7.026 -0.3554  0.4560 -0.0705
43432SOL    HW134752   1.547   9.376   7.015 -1.5748  0.2161  0.1167
43432SOL    HW234753   1.483   9.240   7.032  0.2068 -0.5828  0.6645
43433SOL     OW34754   9.422   5.539  10.116  0.3589 -0.7043  0.0560
43433SOL    HW134755   9.361   5.481  10.070  0.0090 -0.9053  0.7629
43433SOL    HW234756   9.366   5.606  10.155  0.7921  0.4129 -1.1371
43434SOL     OW34757   4.657   8.096   1.749 -0.3107 -0.4417 -0.6440
43434SOL    HW134758   4.718   8.110   1.676 -0.0810  0.4206 -0.2931
43434SOL    HW234759   4.713   8.076   1.823 -0.3543  1.6107 -0.0174
43435SOL     OW34760   8.031  10.899   0.350 -0.0140  0.1860  0.4964
43435SOL    HW134761   8.002  10.988   0.329  0.3066  0.5607  1.5616
43435SOL    HW234762   8.025  10.894   0.446  2.2144 -0.1139  0.6691
43436SOL     OW34763   0.471   6.803   1.165 -0.0826 -0.3195  0.6832
43436SOL    HW134764   0.430   6.748   1.098  1.1859  0.1616 -0.5400
43436SOL    HW234765   0.528   6.862   1.115 -0.0531  0.8973  2.1023
43437SOL     OW34766   0.051  10.742   5.176 -0.0375 -0.1526 -0.4695
43437SOL    HW134767  -0.040  10.721   5.197 -0.3319  0.6901 -0.8483
43437SOL    HW234768   0.069  10.822   5.225  0.0176  0.5093 -1.5229
43438SOL     OW34769  10.883   4.262   1.510 -0.1667 -0.2993  0.4847
43438SOL    HW134770  10.859   4.178   1.472 -0.4103 -0.7553  1.6107
43438SOL    HW234771  10.979   4.262   1.510 -0.1585 -0.0365 -0.6583
43439SOL     OW34772   3.983   7.068   3.260 -0.5249 -0.4466 -0.2877
43439SOL    HW134773   3.927   7.145   3.254 -1.5227 -1.1706 -0.4770
43439SOL    HW234774   4.002   7.060   3.354 -3.3714 -1.9746  0.2729
43440SOL     OW34775   4.410   7.413   2.700 -0.3508 -0.1885 -0.5509
43440SOL    HW134776   4.487   7.464   2.725  0.1510 -0.8602 -0.6888
43440SOL    HW234777   4.339   7.448   2.753 -0.1486  1.0364 -1.0481
43441SOL     OW34778   8.798   5.479   9.600  0.3238 -0.6598  0.1554
43441SOL    HW134779   8.837   5.529   9.672  0.2619  1.2263 -1.0384
43441SOL    HW234780   8.749   5.544   9.550 -0.6370 -2.1500 -0.9239
43442SOL     OW34781   7.416   1.517   8.656 -0.3832 -0.0828 -0.1721
43442SOL    HW134782   7.422   1.587   8.720 -0.5478  1.1338 -1.4277
43442SOL    HW234783   7.330   1.530   8.615 -0.5864 -1.2761 -0.1524
43443SOL     OW34784   3.489   8.501   8.823 -0.0537  0.0602  0.3827
43443SOL    HW134785   3.502   8.513   8.917  0.6128 -1.8330  0.5857
43443SOL    HW234786   3.430   8.425   8.817 -0.9577  0.8141 -0.7293
43444SOL     OW34787   4.151   5.342   2.243  0.1503 -0.9328  0.5417
43444SOL    HW134788   4.129   5.413   2.303  3.1928  0.6111  0.0080
43444SOL    HW234789   4.189   5.274   2.299 -0.9574 -1.3446  0.8177
43445SOL     OW34790  10.676   5.786   3.465  0.0111  0.2794 -0.0890
43445SOL    HW134791  10.722   5.870   3.469 -0.5589  0.6390 -0.7756
43445SOL    HW234792  10.713   5.742   3.388 -1.9294  1.3057 -1.7147
43446SOL     OW34793   9.836   8.738   4.068  0.5904  0.3426 -0.0292
43446SOL    HW134794   9.799   8.678   4.132 -0.3546 -1.0803 -1.7912
43446SOL    HW234795   9.774   8.736   3.995  1.0736  2.6862 -0.5986
43447SOL     OW34796   3.388  10.522   8.652 -0.2097 -0.3950  0.0164
43447SOL    HW134797   3.307  10.471   8.656 -1.2188  0.9961 -1.2773
43447SOL    HW234798   3.383  10.581   8.726 -0.6209 -0.0005 -0.3202
43448SOL     OW34799   5.938   7.644   0.895  0.4375  0.6528 -0.1847
43448SOL    HW134800   5.999   7.572   0.908  0.7500  0.8761 -0.3932
43448SOL    HW234801   5.960   7.679   0.808 -0.0036  0.7169 -0.2724
43449SOL     OW34802   2.630   5.574  10.418  0.0777 -0.3212  0.0851
43449SOL    HW134803   2.613   5.533  10.502 -1.0280 -1.0591 -0.4683
43449SOL    HW234804   2.664   5.661  10.439  2.5688 -1.4765  1.3005
43450SOL     OW34805   5.563   2.435   3.975  0.3626 -0.1257  0.0085
43450SOL    HW134806   5.588   2.411   4.064 -1.3774 -1.0657  0.2992
43450SOL    HW234807   5.596   2.524   3.964  0.9553 -0.1359  1.4580
43451SOL     OW34808   4.015   1.594   5.484 -0.4692  0.2053  0.7713
43451SOL    HW134809   3.953   1.540   5.434 -0.2966  0.6671  0.0500
43451SOL    HW234810   4.083   1.618   5.421 -0.7563  1.6099  0.9588
43452SOL     OW34811   4.901   5.108   2.403  0.1054  0.2708  0.0672
43452SOL    HW134812   4.894   5.069   2.490  0.7639 -1.2085 -0.4983
43452SOL    HW234813   4.812   5.134   2.381 -0.1330  0.3020  1.0181
43453SOL     OW34814   4.515   6.945   9.022  0.2118  0.1096 -0.4263
43453SOL    HW134815   4.531   7.015   8.958 -1.4274 -0.4451 -1.4936
43453SOL    HW234816   4.420   6.942   9.032  0.2675 -1.6206 -0.0407
43454SOL     OW34817   5.053   0.658   3.143 -0.7194  0.1518  0.4737
43454SOL    HW134818   4.984   0.628   3.202 -0.6924  1.4603  1.2262
43454SOL    HW234819   5.079   0.580   3.094 -1.4553 -0.7488  1.4710
43455SOL     OW34820   7.851   4.157   2.865 -0.4262  0.5627 -0.8541
43455SOL    HW134821   7.851   4.228   2.801 -0.6447  0.5619 -0.8557
43455SOL    HW234822   7.914   4.094   2.830 -1.3742  0.0274 -1.6741
43456SOL     OW34823   9.949  10.027   3.199  0.0985 -0.2801 -0.3055
43456SOL    HW134824  10.015  10.096   3.192  1.7813 -1.7323  0.4259
43456SOL    HW234825   9.936  10.015   3.293 -1.2853  0.0235 -0.4385
43457SOL     OW34826   3.399   5.286   5.033  0.2827  0.0484  0.0770
43457SOL    HW134827   3.442   5.367   5.058 -0.2101  0.2891  0.1505
43457SOL    HW234828   3.320   5.313   4.987  1.1852 -0.3773 -1.8117
43458SOL     OW34829   2.137   8.742   0.891  0.2149 -0.5969  0.2012
43458SOL    HW134830   2.168   8.696   0.969  1.0054  0.6921  0.6854
43458SOL    HW234831   2.197   8.714   0.822  0.8793 -0.0805  0.5582
43459SOL     OW34832   2.141   7.400   4.766  0.6592 -0.2149 -0.4417
43459SOL    HW134833   2.205   7.438   4.826  1.9777 -0.5791 -1.5649
43459SOL    HW234834   2.056   7.421   4.805  1.4494 -1.7035  2.3341
43460SOL     OW34835   6.011   9.144   3.404  0.2307  0.3845 -0.5884
43460SOL    HW134836   6.082   9.194   3.443  0.3493 -0.9922  1.1012
43460SOL    HW234837   5.933   9.170   3.453  0.0891 -0.1534 -0.5142
43461SOL     OW34838   5.743   9.241   3.739  0.3503  0.0490  0.3875
43461SOL    HW134839   5.804   9.306   3.703  0.2276 -0.6531 -1.1718
43461SOL    HW234840   5.737   9.174   3.671 -1.2607 -0.4837  1.0140
43462SOL     OW34841   6.661   5.411   9.084 -0.5060  0.2981  0.0179
43462SOL    HW134842   6.713   5.436   9.160 -1.3871  3.7165 -0.3281
43462SOL    HW234843   6.705   5.453   9.010 -2.3730  1.2912 -0.5973
43463SOL     OW34844   4.540  10.679   1.587  0.0670  0.0589 -0.0955
43463SOL    HW134845   4.567  10.714   1.672 -0.8425  0.3578  0.0812
43463SOL    HW234846   4.621  10.645   1.549  0.8463  1.6559  0.0444
43464SOL     OW34847   6.056   5.352   6.994 -0.4250  0.3268  0.1777
43464SOL    HW134848   6.150   5.368   6.983 -0.2871 -0.3413  0.3133
43464SOL    HW234849   6.014   5.410   6.931  0.0500  0.9896  0.4521
43465SOL     OW34850   9.665   2.909   1.890 -0.1245  0.0305  0.2975
43465SOL    HW134851   9.587   2.910   1.833  1.5326  0.1257 -2.1301
43465SOL    HW234852   9.701   2.997   1.882  0.8154 -0.3314  0.5187
43466SOL     OW34853   8.580   2.853   7.890 -0.2497 -0.2084 -0.2378
43466SOL    HW134854   8.522   2.908   7.836  0.2820  1.1269  0.5190
43466SOL    HW234855   8.529   2.773   7.905 -1.5555  0.5753 -0.3212
43467SOL     OW34856   0.811   4.663   8.890 -0.4560  0.2802 -0.5473
43467SOL    HW134857   0.795   4.634   8.979  1.7699 -0.6901 -0.4166
43467SOL    HW234858   0.895   4.709   8.893 -1.7612  3.0027 -1.6145
43468SOL     OW34859  10.138  10.473  10.125 -0.1826  0.0600 -0.0908
43468SOL    HW134860  10.175  10.553  10.162  0.4828 -0.6538  0.8327
43468SOL    HW234861  10.193  10.455  10.048  2.0706 -1.4513  1.7336
43469SOL     OW34862   7.766   3.377   9.819  0.2152  0.1682 -0.2400
43469SOL    HW134863   7.812   3.438   9.761 -1.4777  0.9082 -0.8506
43469SOL    HW234864   7.790   3.291   9.786  1.9421  0.4840  0.0905
43470SOL     OW34865   0.548   1.785   2.975 -0.3086 -0.1421 -0.6256
43470SOL    HW134866   0.526   1.704   3.022 -0.9731  0.2986 -0.1587
43470SOL    HW234867   0.495   1.853   3.018 -0.6696  0.3390 -1.7825
43471SOL     OW34868   0.171   2.565   7.838  0.4329  0.1684 -0.1788
43471SOL    HW134869   0.134   2.634   7.893  0.0683  0.7105 -1.0746
43471SOL    HW234870   0.095   2.519   7.803  0.6628 -0.2867 -0.0827
43472SOL     OW34871   6.973   9.300   7.795  0.1605  0.3495 -0.0298
43472SOL    HW134872   7.018   9.369   7.747  0.4548  0.3087  0.1812
43472SOL    HW234873   6.974   9.330   7.886 -1.7794  1.1792 -0.2279
43473SOL     OW34874   6.331   0.254   6.043 -0.2445 -0.1406  0.7726
43473SOL    HW134875   6.304   0.162   6.038 -0.2850 -0.0731 -0.4408
43473SOL    HW234876   6.313   0.279   6.133 -0.7405 -1.1712  0.9742
43474SOL     OW34877   9.191   5.738   1.840  0.0173  0.5326  0.0284
43474SOL    HW134878   9.184   5.643   1.845 -1.4407  0.5580 -0.7317
43474SOL    HW234879   9.138   5.771   1.913  0.2433  0.7535  0.0938
43475SOL     OW34880   8.255   1.324   3.066  0.2878  0.1025 -0.5249
43475SOL    HW134881   8.205   1.382   3.008  1.2254  0.5205 -0.9383
43475SOL    HW234882   8.251   1.238   3.024  0.7941  0.3612 -1.1175
43476SOL     OW34883  10.529   2.291   2.953 -0.2661 -0.4624 -0.3950
43476SOL    HW134884  10.535   2.232   2.877 -0.1532  0.4224 -1.0823
43476SOL    HW234885  10.607   2.271   3.004 -0.3903 -1.1318 -0.4517
43477SOL     OW34886  10.070   9.962   6.298  0.3088  0.0759 -0.0405
43477SOL    HW134887  10.026   9.932   6.378 -1.6199 -0.8326 -1.3565
43477SOL    HW234888  10.141   9.900   6.285 -0.7841 -1.1959 -0.2222
43478SOL     OW34889   3.656   6.985   8.627  0.7824 -0.2209  0.3395
43478SOL    HW134890   3.715   6.910   8.626  3.2460  1.5874 -1.0101
43478SOL    HW234891   3.685   7.037   8.702 -0.3286 -0.1470  0.7418
43479SOL     OW34892   4.839   5.974   6.400 -0.2869 -0.2245  0.0358
43479SOL    HW134893   4.819   6.015   6.315  0.1951 -2.7269 -1.3828
43479SOL    HW234894   4.754   5.948   6.435 -0.3965 -0.2973 -0.2837
43480SOL     OW34895   9.290   1.531   7.880  0.7683 -0.7384  0.2987
43480SOL    HW134896   9.196   1.514   7.877  0.2249  1.1797  2.7234
43480SOL    HW234897   9.329   1.448   7.908 -0.4076 -1.1219  0.8731
43481SOL     OW34898   5.923   2.554   6.365  0.2888 -0.0983  0.0647
43481SOL    HW134899   5.902   2.591   6.279  1.5286 -0.0145 -0.2143
43481SOL    HW234900   5.892   2.463   6.360  0.7153 -0.2124 -0.6262
43482SOL     OW34901   5.082   4.565   2.560 -0.2778 -0.1915 -0.0772
43482SOL    HW134902   5.052   4.475   2.574 -2.4822  0.1688 -1.8178
43482SOL    HW234903   5.085   4.603   2.648  0.4097 -1.8568  0.6584
43483SOL     OW34904   0.994   2.243   1.148 -0.7706  0.0914  1.1765
43483SOL    HW134905   0.990   2.154   1.111 -1.7397  1.2567 -1.8354
43483SOL    HW234906   1.070   2.241   1.205 -0.8238 -2.6959  1.3231
43484SOL     OW34907   1.719   3.359   1.350  0.6084 -0.0653 -0.2137
43484SOL    HW134908   1.668   3.439   1.360  1.8015  0.8492 -1.2023
43484SOL    HW234909   1.804   3.388   1.316  1.6096 -1.5886  0.8299
43485SOL     OW34910   9.372   8.206   1.627 -0.4352 -0.0525  0.2197
43485SOL    HW134911   9.451   8.193   1.679 -0.3178 -1.1390 -0.2055
43485SOL    HW234912   9.302   8.210   1.692 -0.1836 -0.4532  0.5273
43486SOL     OW34913   9.587   6.131   8.483 -0.1218 -0.5041 -0.2652
43486SOL    HW134914   9.649   6.092   8.422  0.0366  0.2127 -0.5661
43486SOL    HW234915   9.629   6.124   8.569  0.4218  0.0751 -0.4818
43487SOL     OW34916   1.340   7.770  10.929  0.3538  0.3298 -0.2906
43487SOL    HW134917   1.356   7.749  11.021  0.8134  0.0481 -0.4278
43487SOL    HW234918   1.332   7.865  10.927 -1.6561  0.2044  0.3243
43488SOL     OW34919   9.447   8.236  10.222  0.2187 -0.2258 -0.9782
43488SOL    HW134920   9.362   8.272  10.247  0.9437  1.0125 -0.1994
43488SOL    HW234921   9.469   8.175  10.292 -0.8404 -1.9720 -2.1105
43489SOL     OW34922   4.375   8.956   6.158 -0.0695  0.1972 -0.0699
43489SOL    HW134923   4.357   8.897   6.085  0.8524 -0.2432  0.0418
43489SOL    HW234924   4.383   8.898   6.234  1.1679  0.4143 -0.0151
43490SOL     OW34925   4.816   2.545   6.410 -0.2448 -0.5073  0.5187
43490SOL    HW134926   4.733   2.519   6.449  0.1805 -1.0083  1.0979
43490SOL    HW234927   4.833   2.478   6.344 -1.5570  0.9703 -1.4509
43491SOL     OW34928  11.012   7.971   3.186 -0.2936  0.2533  0.1039
43491SOL    HW134929  11.075   8.000   3.120  0.6635 -1.4081  0.2522
43491SOL    HW234930  10.927   7.982   3.143  0.2533  0.0764 -1.0631
43492SOL     OW34931   7.728   3.213   6.716  0.6169  0.2067  0.1528
43492SOL    HW134932   7.702   3.166   6.795  0.5063 -1.2888 -0.7535
43492SOL    HW234933   7.751   3.301   6.748 -0.2928 -0.0816  1.7134
43493SOL     OW34934   8.676   4.183  10.749  0.2266 -0.3037  0.3244
43493SOL    HW134935   8.686   4.115  10.816  0.8979  1.0170  1.6340
43493SOL    HW234936   8.693   4.265  10.796 -1.4141  0.8519 -1.0020
43494SOL     OW34937   3.637   1.157   6.886  0.5608  0.7700 -0.2399
43494SOL    HW134938   3.617   1.068   6.916 -1.8177  1.0717 -0.7186
43494SOL    HW234939   3.728   1.153   6.858  1.2566 -0.8913  1.9247
43495SOL     OW34940   1.843   2.938   1.134  0.5477 -0.4247 -0.1499
43495SOL    HW134941   1.814   2.847   1.136  1.5353 -0.8151 -1.5077
43495SOL    HW234942   1.785   2.980   1.071 -0.1610 -0.0052  0.7708
43496SOL     OW34943   7.009   5.645   9.081 -0.7139  0.8878 -0.3926
43496SOL    HW134944   7.083   5.706   9.087  0.9942 -1.2000  1.1045
43496SOL    HW234945   7.025   5.596   9.000 -0.8732  0.8889 -0.4259
43497SOL     OW34946   2.187   2.503   9.548  0.2780  0.2027 -0.0621
43497SOL    HW134947   2.194   2.409   9.566 -1.7157 -0.0865 -0.5699
43497SOL    HW234948   2.248   2.544   9.610  1.4344 -1.4207 -0.0570
43498SOL     OW34949   0.103   1.338   3.049 -0.2957 -0.3098 -0.4539
43498SOL    HW134950   0.171   1.404   3.058  0.2942 -0.9494 -0.1697
43498SOL    HW234951   0.055   1.341   3.132  1.3264 -1.9700  0.6400
43499SOL     OW34952   5.922   3.072   5.407  0.4452  0.2509 -0.7228
43499SOL    HW134953   6.007   3.114   5.396  0.1171  0.5663 -2.3996
43499SOL    HW234954   5.882   3.117   5.480  2.0620 -0.5229  0.7090
43500SOL     OW34955  10.871   4.854   4.467 -0.0407  0.5132 -0.1823
43500SOL    HW134956  10.848   4.916   4.536 -4.1307 -1.4478  0.4836
43500SOL    HW234957  10.938   4.798   4.506  0.6149  1.8707  0.7015
43501SOL     OW34958   9.109   0.059   0.961  0.3178  0.1189 -0.0925
43501SOL    HW134959   9.139  -0.025   0.924  1.3996  0.5080 -0.1452
43501SOL    HW234960   9.187   0.114   0.961 -0.0148  0.6385  1.3546
43502SOL     OW34961   4.690   5.627   3.196  0.0340 -0.3283 -0.0402
43502SOL    HW134962   4.707   5.588   3.282  0.7450  0.7460  0.3207
43502SOL    HW234963   4.777   5.645   3.160 -0.2006 -1.8529 -1.5259
43503SOL     OW34964   5.530   2.870   0.070 -0.2404 -0.5689 -0.2376
43503SOL    HW134965   5.477   2.840  -0.003 -1.0346 -0.8905  0.4461
43503SOL    HW234966   5.545   2.791   0.123 -1.5454  0.0129  1.0835
43504SOL     OW34967  10.188   7.999   7.284  0.4864 -0.5116 -0.0949
43504SOL    HW134968  10.214   8.091   7.282  2.2717 -0.9376  1.1172
43504SOL    HW234969  10.105   7.999   7.332  0.8665  0.3834  0.5993
43505SOL     OW34970   8.295   9.833   5.588  0.3135  0.2501 -0.0938
43505SOL    HW134971   8.235   9.783   5.644  1.7976 -1.4470  0.0652
43505SOL    HW234972   8.382   9.800   5.610  1.2106  1.7301 -1.2322
43506SOL     OW34973   7.287   0.917   2.793  0.5504  0.3845  0.0883
43506SOL    HW134974   7.375   0.882   2.804  0.1037 -1.2785 -1.2169
43506SOL    HW234975   7.275   0.922   2.698 -1.3338 -1.0711  0.1907
43507SOL     OW34976  10.582  10.018   2.416 -0.3615  0.0295 -0.6606
43507SOL    HW134977  10.552   9.968   2.339 -1.0962  0.7223 -0.8477
43507SOL    HW234978  10.506  10.072   2.439  0.1353  0.4254  0.0555
43508SOL     OW34979   1.452   9.043   2.024  0.2009 -0.7310  0.7356
43508SOL    HW134980   1.403   9.123   2.005 -0.8226 -1.4579  0.2748
43508SOL    HW234981   1.496   9.062   2.107  2.0230  1.2332 -0.5635
43509SOL     OW34982   8.469   8.166   1.926 -1.0029 -0.6699 -0.5379
43509SOL    HW134983   8.545   8.149   1.871 -0.4074  3.9586 -1.5407
43509SOL    HW234984   8.506   8.197   2.009 -1.7816 -0.0303 -0.4154
43510SOL     OW34985   4.817   5.470   0.444  0.6319 -0.1281 -0.3809
43510SOL    HW134986   4.910   5.486   0.424  0.4836  1.5562  0.0978
43510SOL    HW234987   4.771   5.540   0.398 -0.5148 -1.4296 -1.2990
43511SOL     OW34988  10.181   3.395   5.141  0.0094 -0.5289  0.4644
43511SOL    HW134989  10.209   3.387   5.232 -0.8907  0.8863  0.8998
43511SOL    HW234990  10.137   3.480   5.137 -1.4444 -1.2949 -0.8925
43512SOL     OW34991  10.672   7.182   2.662 -0.4071  0.0371 -0.3124
43512SOL    HW134992  10.648   7.143   2.746  1.7893 -0.7623  0.0104
43512SOL    HW234993  10.661   7.276   2.676 -1.6927 -0.1696  0.2866
43513SOL     OW34994   6.429   4.616   4.656 -0.3838  0.0314 -0.1268
43513SOL    HW134995   6.501   4.603   4.594 -0.2895 -1.6402  0.2790
43513SOL    HW234996   6.470   4.610   4.742 -0.6923  1.2207  0.1233
43514SOL     OW34997   1.784   3.948  11.023  0.8143 -0.4750  0.2054
43514SOL    HW134998   1.693   3.964  11.046  0.2026 -1.6100 -1.2769
43514SOL    HW234999   1.782   3.928  10.929  2.3076 -2.6288  0.5746
43515SOL     OW35000   7.187  10.375   7.411 -0.6467 -0.4321 -0.5133
43515SOL    HW135001   7.254  10.311   7.435 -0.5649 -1.0652 -2.2344
43515SOL    HW235002   7.208  10.398   7.320 -0.8192  1.8834 -0.0337
43516SOL     OW35003   6.839   6.869  10.339 -0.2020 -0.2822 -0.4253
43516SOL    HW135004   6.797   6.816  10.270 -1.3715  1.3604 -1.0417
43516SOL    HW235005   6.849   6.956  10.300  1.3955  0.0616  0.6631
43517SOL     OW35006  10.085   1.218   5.537  0.1712 -0.0834  0.5815
43517SOL    HW135007  10.038   1.229   5.454  2.7455 -0.2028 -0.9866
43517SOL    HW235008  10.128   1.133   5.529  0.3867 -0.1426  2.1122
43518SOL     OW35009   3.686   2.038   2.627 -0.5141  0.3826  0.0234
43518SOL    HW135010   3.643   1.980   2.565  1.5941 -0.1908 -0.9903
43518SOL    HW235011   3.758   2.078   2.577 -0.0828  1.5693  1.5130
43519SOL     OW35012   5.737   7.856   3.366 -0.2599  0.2079  0.0388
43519SOL    HW135013   5.720   7.948   3.385  0.4785  0.2470  0.5889
43519SOL    HW235014   5.798   7.829   3.435 -0.2319 -0.6086 -0.2961
43520SOL     OW35015   4.449   6.174  10.922 -0.5659 -0.6194  0.5805
43520SOL    HW135016   4.512   6.168  10.994  0.3324  0.3473 -0.0935
43520SOL    HW235017   4.450   6.088  10.880 -0.4927 -0.9313  1.2146
43521SOL     OW35018   6.931   7.736   3.660  0.6448 -0.2126  0.0283
43521SOL    HW135019   6.910   7.643   3.652 -1.8564  0.3238 -0.3264
43521SOL    HW235020   7.020   7.743   3.625  1.2259 -2.5581  0.8127
43522SOL     OW35021   4.555   8.716   0.552  0.5182 -0.0603 -0.1071
43522SOL    HW135022   4.491   8.677   0.492  1.4024  0.1014 -1.1996
43522SOL    HW235023   4.629   8.655   0.550  0.5867 -0.0246  0.8040
43523SOL     OW35024   0.208   5.217   9.058 -0.4652 -0.3405  0.5702
43523SOL    HW135025   0.158   5.136   9.059 -0.9724 -0.0727  2.7619
43523SOL    HW235026   0.191   5.257   9.143 -0.1921  2.0648 -0.4186
43524SOL     OW35027   5.203   9.231   5.035  0.2070  0.1358 -0.1168
43524SOL    HW135028   5.242   9.173   5.101 -1.8920 -1.4765 -0.2015
43524SOL    HW235029   5.153   9.294   5.086 -1.8653 -1.4392 -0.0628
43525SOL     OW35030  10.546   9.507   9.647 -0.1263  0.3105  0.3657
43525SOL    HW135031  10.527   9.426   9.598 -1.4893  0.7636  0.0940
43525SOL    HW235032  10.641   9.513   9.647 -0.0072 -1.0858  0.0431
43526SOL     OW35033   3.130   6.829   2.799  0.1751  0.2425 -0.4221
43526SOL    HW135034   3.128   6.768   2.725  1.1345 -0.4241  0.0866
43526SOL    HW235035   3.213   6.811   2.843  0.2860  1.6259 -0.0146
43527SOL     OW35036   7.744   7.282   1.161 -0.5127  0.6129 -0.3182
43527SOL    HW135037   7.713   7.206   1.112  0.2142  0.2116 -0.1653
43527SOL    HW235038   7.833   7.297   1.129 -0.1666  0.5772  0.6027
43528SOL     OW35039   8.438   9.550   1.205 -0.0414  0.1240 -0.3171
43528SOL    HW135040   8.427   9.603   1.126 -1.3457  2.7034  1.4561
43528SOL    HW235041   8.384   9.473   1.190 -0.4930  0.7028 -1.8261
43529SOL     OW35042   1.770   0.183   8.991 -0.6863 -0.6273 -0.6056
43529SOL    HW135043   1.708   0.111   8.976 -0.0579 -1.5935  1.0793
43529SOL    HW235044   1.851   0.139   9.018  0.7017  0.6234 -2.5532
43530SOL     OW35045   6.147   7.543   9.629 -0.0068  0.8761  0.8847
43530SOL    HW135046   6.142   7.457   9.587 -2.0771  0.4560  1.8559
43530SOL    HW235047   6.120   7.604   9.561  0.5297  0.6579  0.4692
43531SOL     OW35048   8.474   1.435   2.955  0.4417  0.3162  0.0791
43531SOL    HW135049   8.460   1.341   2.949  0.7930  0.2715 -0.0605
43531SOL    HW235050   8.524   1.457   2.877  2.0427  0.2995  1.0422
43532SOL     OW35051   0.853   2.588   2.027 -0.1419  0.0426 -0.8170
43532SOL    HW135052   0.941   2.621   2.012 -0.2514  0.7653  0.0550
43532SOL    HW235053   0.801   2.666   2.047 -0.7278 -0.4984 -0.1713
43533SOL     OW35054   3.809   6.603   5.942 -0.4925 -0.2188  0.6218
43533SOL    HW135055   3.789   6.664   6.014 -0.7501  1.4927 -0.8240
43533SOL    HW235056   3.726   6.559   5.923 -1.0595  1.1349 -0.2021
43534SOL     OW35057   2.075   4.167   0.903  0.5339 -0.1493 -0.0032
43534SOL    HW135058   2.005   4.227   0.880 -0.3002 -0.7705  0.8020
43534SOL    HW235059   2.136   4.220   0.955  1.0500  0.5668 -1.2887
43535SOL     OW35060   0.800   9.019   8.757 -0.2967 -0.2189 -0.0196
43535SOL    HW135061   0.803   8.966   8.837  2.0497 -0.7581 -0.4065
43535SOL    HW235062   0.835   9.104   8.783 -1.5604  0.3292 -0.0222
43536SOL     OW35063   1.373   4.219   7.023 -0.0614  0.2423  0.1794
43536SOL    HW135064   1.383   4.261   6.938  1.2968  0.1247  0.2598
43536SOL    HW235065   1.462   4.205   7.054 -0.4517 -2.2215  0.4009
43537SOL     OW35066  10.575   9.101   0.195  0.8517 -0.1902  0.4341
43537SOL    HW135067  10.618   9.179   0.162  4.0760 -1.5347  1.1348
43537SOL    HW235068  10.492   9.097   0.147  1.8815  2.0701 -1.7293
43538SOL     OW35069   6.503   3.193   4.273 -0.0195  0.5935  0.1209
43538SOL    HW135070   6.458   3.272   4.304  0.5181  1.7458 -1.8884
43538SOL    HW235071   6.434   3.140   4.233 -0.0155  1.1985 -0.7104
43539SOL     OW35072   7.524   9.067   3.827 -0.0679  1.0935 -0.2775
43539SOL    HW135073   7.457   9.007   3.861  0.0676  0.2108 -1.4913
43539SOL    HW235074   7.517   9.058   3.732  1.1376  1.7158 -0.4363
43540SOL     OW35075   6.137   2.865   3.339 -0.1655 -0.0360 -0.2216
43540SOL    HW135076   6.137   2.795   3.273 -1.8964  0.6184 -0.9758
43540SOL    HW235077   6.092   2.827   3.414 -0.1891 -0.0693 -0.2521
43541SOL     OW35078   9.730   0.297  10.111  0.1245 -0.0326 -0.4346
43541SOL    HW135079   9.779   0.328  10.036 -0.5911  0.3401 -0.7529
43541SOL    HW235080   9.797   0.269  10.174  0.7686  1.3628 -0.4685
43542SOL     OW35081   4.945   2.761   7.178 -0.6354  0.1053  0.6189
43542SOL    HW135082   5.011   2.694   7.189  1.7060  2.4407  1.9960
43542SOL    HW235083   4.864   2.721   7.208  0.9145 -1.6845  2.7173
43543SOL     OW35084  10.580   1.212   3.103 -0.5982 -0.3680  0.4524
43543SOL    HW135085  10.626   1.178   3.180  0.7371 -0.2627 -0.2754
43543SOL    HW235086  10.650   1.236   3.042 -1.6151  0.4766 -0.4058
43544SOL     OW35087   7.318   1.193   3.024  0.3273  0.0274 -0.2653
43544SOL    HW135088   7.282   1.112   3.060 -0.0609 -0.5023 -1.7525
43544SOL    HW235089   7.264   1.210   2.946  1.2145  1.0225 -0.6843
43545SOL     OW35090   2.866   8.019   5.333  0.2943 -0.2176  0.1053
43545SOL    HW135091   2.877   8.101   5.382  0.7951 -0.8742  1.1344
43545SOL    HW235092   2.927   8.026   5.260  2.4099 -0.7615  1.7060
43546SOL     OW35093   1.048   3.354   6.214  0.3888  0.2786  0.1251
43546SOL    HW135094   1.122   3.402   6.252 -0.5250  1.5236  0.3873
43546SOL    HW235095   0.979   3.419   6.205 -0.7326 -0.8868  0.0030
43547SOL     OW35096   0.493   2.083   9.350 -0.3444  0.1725 -0.4907
43547SOL    HW135097   0.420   2.133   9.385  1.2234  1.4106  1.2639
43547SOL    HW235098   0.546   2.147   9.303  0.5192 -0.2992 -0.1900
43548SOL     OW35099   8.752   5.872   3.903  0.4253 -0.3039  0.0451
43548SOL    HW135100   8.832   5.831   3.872 -0.0049 -0.9211 -0.2758
43548SOL    HW235101   8.740   5.948   3.846  1.1499  0.1955  0.5498
43549NA      NA35102   0.929   1.234   8.173  0.2926 -0.1639 -0.0560
43550NA      NA35103   6.750   6.672   3.259  0.4968  0.1806  0.7488
43551NA      NA35104   6.058   7.046   1.401 -0.1076 -0.2285 -0.1617
43552NA      NA35105   8.782   0.640   3.319 -0.4914  0.1164  0.5962
43553NA      NA35106   9.663   1.175   9.492 -0.5327 -0.0427  0.0300
43554NA      NA35107   6.050   9.287   4.008 -0.4090 -0.1984  0.1676
43555NA      NA35108   9.683   2.333   7.000 -0.3024  0.3405 -0.2013
43556NA      NA35109   0.491   1.604   5.877 -0.0573  0.1965 -0.4710
43557NA      NA35110   7.342  10.742   6.673 -0.2591 -0.1895 -0.2847
43558NA      NA35111   0.249   6.790   5.247  0.2060 -0.3857  0.1916
43559NA      NA35112   9.383   0.746   3.934  0.1888 -0.5778  0.2045
43560NA      NA35113   6.452   3.265  10.140 -0.5676  0.1753 -0.0716
43561NA      NA35114   6.284   2.584   6.042 -0.1191 -0.4477 -0.1958
43562NA      NA35115   9.887   0.682   1.474 -0.2995 -0.3487  0.5364
43563NA      NA35116   0.165   0.266   4.589 -0.1840 -0.3282 -0.0313
43564NA      NA35117   1.419   2.492   4.630  0.4365  0.4293 -0.2776
43565NA      NA35118  10.808   8.183   1.050  0.4028 -0.0458  0.4062
43566NA      NA35119   4.079   5.223   9.797  0.1702  0.0148 -0.4289
43567NA      NA35120  10.897   3.137   6.790  0.5027 -0.4197 -0.4404
43568NA      NA35121   5.497   1.702   9.637 -0.1411 -0.0846 -0.0677
43569NA      NA35122   4.080  10.165   5.584 -0.1290 -0.3573 -0.6446
43570NA      NA35123   4.956  10.459   0.093 -0.2396 -0.1239  0.2389
43571NA      NA35124   5.891   1.790   5.597 -0.2216 -0.4868 -0.1458
43572NA      NA35125   3.080   5.040   2.831  0.4076  0.8981  0.1848
43573NA      NA35126   8.655   6.428   0.500 -0.0064 -0.0919 -0.2272
43574NA      NA35127  10.626   4.596   0.100  0.1154 -0.2272  0.0047
43575NA      NA35128   5.742  10.812   2.708  0.2662 -0.4623 -0.0261
43576NA      NA35129   8.177   7.350   2.906  0.1927 -0.2550 -0.1679
43577NA      NA35130   4.362  10.557   9.261 -0.3867  0.2376 -0.1728
43578NA      NA35131   7.205   9.630  10.411  0.5624  0.1661  0.4714
43579NA      NA35132  10.406   3.158   3.064 -0.1488 -0.2132 -0.0857
43580NA      NA35133  10.893   6.648   6.147  0.7668  0.1757  0.3142
43581NA      NA35134   9.719   0.678   4.935 -0.1421 -0.2317  0.3142
43582NA      NA35135   3.462   3.538   0.785  0.3093  0.1791  0.0823
43583NA      NA35136   5.047   4.196   5.779  0.0195  0.3071  0.5758
43584NA      NA35137   3.221  10.196   1.957  0.1532 -0.5483 -0.3561
43585NA      NA35138   1.369   0.564   1.927 -0.7785 -0.4907  0.1284
43586NA      NA35139   1.448   8.215   3.316 -0.1215 -0.1759 -0.3875
43587NA      NA35140   6.284   1.098   8.392 -0.0315  0.0185 -0.0173
43588NA      NA35141   0.368   5.607   7.760  0.0509  0.0765  0.0360
43589NA      NA35142   1.101   3.683   2.758  0.0626  0.7721 -0.2764
43590NA      NA35143  10.981   3.223   8.250  0.1079  0.0607  0.2806
43591NA      NA35144   0.446   1.140   1.028  0.0040  0.0477 -0.5678
43592NA      NA35145   8.116   9.241   8.134 -0.3629  0.0963 -0.2257
43593NA      NA35146  10.919   3.050   1.767  0.1745 -0.1365 -0.1049
43594NA      NA35147   5.854   7.077   7.475 -0.6024 -0.0278 -0.2631
43595NA      NA35148   0.725   1.003   8.682 -0.3652  0.0672 -0.1591
43596NA      NA35149   6.862   3.883   1.598 -0.7886 -0.1749 -0.4787
43597NA      NA35150   7.686   1.850   4.668 -0.2045  0.3855 -0.2056
43598NA      NA35151  10.258   0.853   6.823  0.6003  0.4235  0.5030
43599NA      NA35152   9.503  10.422  10.444 -0.1904  0.6706 -0.2970
43600NA      NA35153   8.012   4.388   7.883 -0.4832 -0.1598 -0.0182
43601NA      NA35154   7.631   8.156   5.043 -0.0187 -0.0153  0.2525
43602NA      NA35155   6.818   2.854   6.036 -0.4470  0.1382  0.2249
43603NA      NA35156   2.319   3.659   6.980 -0.5079 -0.1767 -0.2616
43604NA      NA35157   4.474   4.708   4.328  0.1055 -0.0044  0.4020
43605NA      NA35158   4.514   8.284   4.141 -0.0297  0.0558  0.3964
43606NA      NA35159   2.693   3.073   5.340 -0.6303  0.1307  0.2064
43607NA      NA35160   7.630   5.283   1.644  0.0739  0.0433  0.1145
43608NA      NA35161   6.532   0.668   1.002  0.1935  0.0048  0.1405
43609NA      NA35162   0.121   4.601   5.852 -0.1782  0.7601 -0.4899
43610NA      NA35163   2.261   5.557   4.506 -0.3976 -0.0666  0.0990
43611NA      NA35164   0.214   2.730   6.015  0.2755 -0.2241 -0.2491
43612NA      NA35165  10.832   8.641   8.490  0.0772 -0.0580  0.3135
43613NA      NA35166   6.081   1.542   7.424  0.1875  0.0797 -0.2260
43614NA      NA35167   9.923   9.721   5.960  0.0442 -0.0236 -0.2128
43615NA      NA35168   9.149   4.357   6.679 -0.6740 -0.0428 -0.0362
43616NA      NA35169   1.718   0.082   5.046 -0.2068 -0.3187  0.0544
43617NA      NA35170   0.089   9.002   3.743  0.0993  0.1100 -0.2242
43618NA      NA35171   3.505   1.437   9.062 -0.0201 -0.3301 -0.2479
43619NA      NA35172   5.720   9.855   0.294  0.0723  0.2646  0.3983
43620NA      NA35173   1.169  11.071   8.397  0.3481 -0.2698 -0.3371
43621NA      NA35174   4.376   2.204   9.438 -0.0254 -0.2121  0.0086
43622NA      NA35175   6.567   4.423   6.292 -0.4112 -0.3489 -0.4454
43623NA      NA35176  10.228   9.803   5.088  0.0271  0.4536  0.0008
43624NA      NA35177   5.565   6.488   1.675  0.0315  0.0890  0.0977
43625NA      NA35178   4.141   6.734   2.472 -0.1189  0.2699  0.3665
43626NA      NA35179  10.613   5.015   8.845  0.0994 -0.1720 -0.3472
43627NA      NA35180   2.839  10.678   2.059 -0.6764  0.3811 -0.0397
43628NA      NA35181   8.662   6.126  10.406  0.3303 -0.2017 -0.1074
43629NA      NA35182   2.532   0.420   8.118  0.1214  0.2155 -0.0433
43630NA      NA35183   2.663   1.288   8.155  0.1795  0.2783 -0.0175
43631NA      NA35184   2.387   4.136   4.964  0.5657  0.1146  0.2221
43632NA      NA35185   4.724   0.201   3.456  0.2073  0.1206 -0.0848
43633NA      NA35186   7.714  10.345   5.174 -0.1649  0.0515 -0.0478
43634NA      NA35187   6.881  10.616   0.248 -0.4633  0.6019  0.1731
43635NA      NA35188   2.042   0.433   9.061 -0.5296 -0.0990  0.1593
43636NA      NA35189  10.055   3.660   4.221 -0.0001 -0.4721 -0.1155
43637NA      NA35190   2.005   6.001   6.346  0.3582 -0.2977  0.0257
43638NA      NA35191  10.282   0.157   4.292  0.2852 -0.0386 -0.0436
43639NA      NA35192   8.080   3.601   3.864 -0.0155  0.1846 -0.2739
43640NA      NA35193   4.517   3.643   1.977  0.5245 -0.1832  0.6349
43641NA      NA35194   2.875   3.540   2.870 -0.1283 -0.0281 -0.3181
43642NA      NA35195   1.112   1.739   7.855 -0.2933 -0.3567 -0.3992
43643NA      NA35196   4.224   6.386   3.179  0.0181  0.1240 -0.1788
43644NA      NA35197   0.284   5.066   5.808  0.0119  0.5193 -0.3552
43645NA      NA35198  10.840   5.842   1.128  0.2060 -0.3950 -0.2772
43646NA      NA35199   8.578   6.397   2.866 -0.0725 -0.3352 -0.2854
43647NA      NA35200   5.435   0.973   3.416  0.1917  0.5872  0.2032
43648NA      NA35201   7.301   8.603   0.385  0.3761  0.1473 -0.2907
43649NA      NA35202   4.020   4.287   3.540 -0.7169 -0.0121 -0.1789
43650NA      NA35203   4.667   4.303   4.662  0.2148  0.1372 -0.2979
43651NA      NA35204   0.246  10.666   4.559 -0.0441  0.6540 -0.0770
43652NA      NA35205   6.705   8.927   7.658  0.0984 -0.7324  0.5781
43653NA      NA35206   8.665   7.283   8.094 -0.0396  0.0885 -0.4627
43654NA      NA35207   8.751   5.117   2.283  0.1356 -0.1295 -0.6494
43655NA      NA35208   7.367   3.996   5.069  0.0245  0.3272 -0.0333
43656NA      NA35209   6.390   1.386   9.925  0.4398 -0.2794  0.2320
43657NA      NA35210   1.373   1.309   2.622 -0.1164  0.3372  0.2166
43658NA      NA35211   8.440   1.745   0.610  0.3919 -0.1031 -0.4631
43659NA      NA35212   3.240   8.338   3.728 -0.9251 -0.2326  0.0469
43660NA      NA35213   7.511   2.306  10.565  0.3182 -1.2286 -0.1690
43661NA      NA35214   7.885   8.915   4.027  0.4693  0.0703  0.0601
43662NA      NA35215   7.843   8.234   0.695  0.6211 -0.4750 -0.0441
43663NA      NA35216   6.237   3.916   2.929 -0.3204  0.0371 -0.2591
43664NA      NA35217   9.862   6.771  11.015 -0.0735  0.6597  0.1213
43665NA      NA35218   8.343   4.943   9.756 -0.3344 -0.0243 -0.1533
43666NA      NA35219   9.396   9.460   6.505 -0.1219 -0.1555  0.2739
43667NA      NA35220   3.664   8.437   5.192  0.5090 -0.2879 -0.2152
43668NA      NA35221  10.729   5.128   3.337 -0.3165 -0.5512 -0.2398
43669NA      NA35222   5.198   1.406   6.042  0.2573 -0.1156  0.0619
43670NA      NA35223   1.869   3.144   8.970  0.2774 -0.2428  0.4140
43671NA      NA35224   8.889   8.261   2.887 -0.6021 -0.4094  0.0943
43672NA      NA35225  10.084   7.099   3.521  0.0012 -0.1494  0.1758
43673NA      NA35226   9.126   3.687   3.128 -0.2328  0.0350 -0.0102
43674CL      CL35227   5.064   4.699   8.937 -0.2884  0.2090 -0.1394
43675CL      CL35228   0.878   4.851   2.269 -0.2688 -0.1960  0.0641
43676CL      CL35229   9.933   1.149   6.215  0.1801  0.0204 -0.1179
43677CL      CL35230   8.534   7.322   5.930  0.5493  0.0736 -0.1772
43678CL      CL35231   0.252   9.817   9.447  0.2053 -0.3919 -0.1106
43679CL      CL35232   1.043   0.988   8.916 -0.3516 -0.0709  0.2120
43680CL      CL35233   8.088   0.756   4.313 -0.2221  0.1909 -0.2317
43681CL      CL35234  10.741   1.212   9.135 -0.0583  0.0615 -0.3648
43682CL      CL35235   2.317   7.319   0.327  0.2221 -0.2057 -0.1428
43683CL      CL35236   1.790   9.652   8.522 -0.2911 -0.2713  0.1363
43684CL      CL35237  10.879   8.076   8.036  0.3521 -0.0496  0.1067
43685CL      CL35238   4.309   8.560   2.549 -0.2625  0.1213 -0.2283
43686CL      CL35239   4.554   8.169   9.038 -0.1371  0.0739  0.1595
43687CL      CL35240   0.724   5.120   4.839 -0.5683 -0.0723  0.3669
43688CL      CL35241   4.328   2.663   4.805  0.4278  0.0240 -0.0986
43689CL      CL35242   1.180   3.413   1.596 -0.1393 -0.0470 -0.1795
43690CL      CL35243   7.523   6.006   7.638 -0.2131  0.1184 -0.1174
43691CL      CL35244   9.399   5.571   2.936 -0.3444 -0.1044  0.1619
43692CL      CL35245   4.331   4.742   4.530 -0.1400 -0.4774  0.2333
43693CL      CL35246   5.556   0.315   2.525  0.0524 -0.1524 -0.0814
43694CL      CL35247   1.455  11.058   2.633  0.5442  0.0390 -0.0473
43695CL      CL35248   9.185   6.879   9.680  0.0950 -0.3536 -0.1888
43696CL      CL35249   4.770  10.556  10.730 -0.0454  0.5367  0.1922
43697CL      CL35250   5.343   7.120   1.706  0.2005 -0.0674  0.0753
43698CL      CL35251   6.802   2.529   9.983  0.2741  0.3584  0.4918
43699CL      CL35252   6.735   1.273   4.216  0.3232  0.4069  0.1665
43700CL      CL35253   1.779   1.663   7.595  0.0874 -0.2868  0.0066
43701CL      CL35254   7.154   5.945   6.747  0.0092  0.2230  0.1540
43702CL      CL35255   5.166   5.204   9.544  0.2320  0.3764  0.4009
43703CL      CL35256   5.318   1.895   6.623  0.0605 -0.9148 -0.1994
43704CL      CL35257   0.259   2.373   6.601  0.0626  0.2634 -0.4281
43705CL      CL35258   6.105   8.891   0.437  0.3759 -0.2957 -0.2992
43706CL      CL35259   5.534   9.684  10.237 -0.2134  0.1101 -0.5318
43707CL      CL35260   2.784   9.534  10.210 -0.0271 -0.1977 -0.0009
43708CL      CL35261   2.604   3.931   9.522  0.2731 -0.0022 -0.2183
43709CL      CL35262   7.051  10.259   2.251 -0.0453  0.0020 -0.2338
43710CL      CL35263   5.246   9.375  10.453 -0.5439 -0.1413 -0.2907
43711CL      CL35264   9.284   5.587   8.198  0.0184  0.3623 -0.1324
43712CL      CL35265   4.205   9.319   0.114  0.1671 -0.2406  0.1936
43713CL      CL35266   4.651   9.883   8.475 -0.3557  0.0211  0.0075
43714CL      CL35267  10.011   7.665   3.451 -0.0820 -0.1224 -0.0115
43715CL      CL35268   7.150   0.037   4.074  0.0258 -0.3995  0.1572
43716CL      CL35269   2.079   4.803   8.620 -0.0740  0.1187  0.1001
43717CL      CL35270  10.236   3.907  10.763  0.4606  0.3832 -0.0967
43718CL      CL35271   2.677   5.643   6.529 -0.0221 -0.0491 -0.2169
43719CL      CL35272   3.983   8.483   0.401 -0.1839 -0.1614 -0.3221
43720CL      CL35273   2.019   6.544   1.508 -0.1084 -0.0188 -0.1206
43721CL      CL35274   6.744   8.694   5.615  0.0663  0.2072 -0.0890
43722CL      CL35275   0.311  10.180  10.321 -0.3706  0.1815  0.0566
43723CL      CL35276   7.008   9.405   8.087  0.0179  0.1169  0.2272
43724CL      CL35277   3.588   3.448  10.433  0.1866  0.4070 -0.0089
43725CL      CL35278   6.895   6.013   4.273  0.2606  0.0499  0.3272
43726CL      CL35279   3.977   0.023  10.435  0.2452 -0.0415 -0.0577
43727CL      CL35280   7.360   6.470  10.108  0.0597 -0.5510  0.0426
43728CL      CL35281   4.160   5.967   6.987 -0.5466 -0.7639  0.0980
43729CL      CL35282   0.983   9.325   0.933  0.1910 -0.0452 -0.5070
43730CL      CL35283   2.211   9.291   0.316  0.5089 -0.2180 -0.0893
43731CL      CL35284   6.342   1.579   4.453 -0.6638 -0.0157  0.3951
43732CL      CL35285   8.511   2.762   8.583  0.0584  0.3336  0.1378
43733CL      CL35286   7.088   7.970   3.308 -0.2818 -0.2504  0.0997
43734CL      CL35287   0.663   3.869   2.873  0.1429  0.4236 -0.2503
43735CL      CL35288   6.055  10.903   0.305 -0.2671  0.3549 -0.1403
43736CL      CL35289   5.856   6.657   4.319 -0.0128  0.2201  0.3475
43737CL      CL35290   4.139   4.076   1.429  0.1226  0.1113  0.0964
43738CL      CL35291   6.125   3.588   9.943  0.6659  0.1765  0.3105
43739CL      CL35292   6.249   1.125   0.385 -0.0295 -0.0279 -0.1608
43740CL      CL35293  10.510  10.127   3.940  0.0546 -0.4819 -0.0659
43741CL      CL35294   9.972   4.069   5.917 -0.2261 -0.1619  0.7312
43742CL      CL35295   5.546   6.230  10.624 -0.0639  0.3305  0.2221
43743CL      CL35296   8.461   7.578   1.089  0.3813 -0.2081  0.4653
43744CL      CL35297   4.781   6.339   9.880 -0.0479 -0.0344 -0.0835
43745CL      CL35298   0.594   9.386  10.238  0.0913 -0.1683 -0.0643
43746CL      CL35299  10.783  10.705   5.129 -0.1817  0.2263  0.1066
43747CL      CL35300   8.070   3.233   2.638  0.1966 -0.1941 -0.2123
43748CL      CL35301   0.345   3.955   8.931  0.0148  0.0764  0.1279
43749CL      CL35302   0.018   6.405  10.806 -0.1862  0.0981  0.0196
43750CL      CL35303   5.898   6.689   9.389  0.2221  0.1528  0.2135
43751CL      CL35304   1.885   1.253   8.633  0.2991 -0.0902 -0.2078
43752CL      CL35305   4.385   7.844   9.952 -0.2565 -0.1614  0.1915
43753CL      CL35306   1.447   2.857   0.387  0.1184 -0.0749  0.0135
43754CL      CL35307   1.799   1.384   5.427  0.2855 -0.0091 -0.1996
43755CL      CL35308   2.224   9.896  10.197 -0.1666  0.4378  0.2163
43756CL      CL35309  11.043  10.106   8.327  0.2004  0.0718  0.3559
43757CL      CL35310   3.365  10.609   2.921 -0.1328 -0.3102  0.0116
43758CL      CL35311   1.254   9.886   7.623 -0.2152  0.3102 -0.1470
43759CL      CL35312   2.731   7.362   0.045  0.1271  0.1350 -0.0289
43760CL      CL35313   4.094   8.701   5.341  0.6487  0.3123 -0.1592
43761CL      CL35314   6.928   1.892   9.324  0.0135  0.5109 -0.5244
43762CL      CL35315   1.595   8.240   9.634 -0.4396  0.5334  0.0580
43763CL      CL35316   4.822   2.350   1.257 -0.0868  0.2598  0.2071
43764CL      CL35317   3.025   4.568   3.031  0.0263 -0.4178  0.5136
43765CL      CL35318   2.880   7.023   5.213 -0.1149 -0.7628  0.3076
43766CL      CL35319  10.366  10.399   2.184  0.1239  0.5361 -0.4514
43767CL      CL35320   7.952   2.965   3.865 -0.5223 -0.0513  0.1320
43768CL      CL35321   4.217   3.322   4.855  0.3042  0.1374  0.2763
43769CL      CL35322  10.450   8.169   2.919 -0.1119  0.1136 -0.1471
43770CL      CL35323   2.191   7.801   1.725  0.5323 -0.1512 -0.3222
43771CL      CL35324  10.049   8.796   7.158  0.3550  0.2680  0.2671
43772CL      CL35325   1.215   8.737   7.482 -0.1169 -0.0470  0.2363
43773CL      CL35326   6.341   7.872   4.267  0.1243  0.3966 -0.2828
43774CL      CL35327   6.114   8.034   0.867  0.3327 -0.1788 -0.1124
43775CL      CL35328   7.563   0.799   2.776  0.1434 -0.2489  0.2581
43776CL      CL35329   2.680   1.362   9.543  0.2256 -0.1962 -0.4631
43777CL      CL35330   9.166   5.342  10.855  0.2039  0.1085 -0.2026
43778CL      CL35331   3.714   7.334   2.515  0.0310  0.3646 -0.0045
43779CL      CL35332   2.536   8.085   5.020 -0.2587  0.1689 -0.2620
43780CL      CL35333   2.792   1.902   2.706  0.4202  0.2772 -0.1406
43781CL      CL35334  11.057   9.953   3.484  0.2238  0.1644 -0.0764
43782CL      CL35335   8.078   9.542   6.045  0.2362  0.2600  0.0206
43783CL      CL35336  10.514   3.011   3.260 -0.0557 -0.0425  0.0884
43784CL      CL35337   8.455   8.204   0.797 -0.0809  0.2289  0.1004
43785CL      CL35338  10.917   3.256   1.893  0.0047  0.3085  0.0102
43786CL      CL35339   9.131   3.603   5.553 -0.1308  0.3237 -0.0315
43787CL      CL35340   5.260   1.364   9.377  0.0281 -0.2776  0.3524
43788CL      CL35341   1.460   7.261   8.964 -0.4864 -0.0141 -0.2217
43789CL      CL35342  10.906   9.108   6.853  0.4406 -0.0477 -0.5358
43790CL      CL35343   4.092   0.588   1.273 -0.2528  0.3265  0.4111
43791CL      CL35344  10.045   1.121   7.923 -0.2325  0.3218 -0.1858
43792CL      CL35345   6.814   4.745   0.233 -0.4515 -0.4406  0.0310
43793CL      CL35346  10.850   8.400   7.391 -0.1863  0.0991 -0.2440
43794CL      CL35347   2.684   6.288   1.163  0.2023  0.1618  0.1618
43795CL      CL35348   2.125   9.093   8.999 -0.2392  0.1221  0.1865
43796CL      CL35349   9.117   1.673   7.184 -0.7670  0.4226  0.1273
43797CL      CL35350   3.275  10.364   7.897  0.2859 -0.0908  0.3146
43798CL      CL35351   5.558  10.255   8.995 -0.3345 -0.5130 -0.3047
43799CL      CL35352   1.243   8.680  10.522 -0.2015 -0.4462 -0.0320
43800CL      CL35353   5.306   0.798   7.393 -0.1135  0.0094 -0.1614
43801CL      CL35354   6.879  10.113   6.434  0.3404  0.1364 -0.2202
43802CL      CL35355   4.510   8.657   9.011  0.2837  0.0289 -0.0232
43803CL      CL35356   0.450   5.492   1.158  0.1075  0.2830  0.4859
43804CL      CL35357   1.803   9.526   9.946 -0.4821  0.1238 -0.1350
43805CL      CL35358   5.097   1.155   5.393 -0.1145  0.4158  0.1647
43806CL      CL35359   2.932   5.551   4.453  0.1004  0.3453  0.2386
43807CL      CL35360   4.810   4.450   4.507  0.0375 -0.1448 -0.1449
43808CL      CL35361   5.905   6.927   7.666 -0.2301 -0.4719 -0.3461
43809CL      CL35362   3.094   8.118   5.046  0.0650  0.1100 -0.2243
43810CL      CL35363   2.292   0.069   6.749  0.8214  0.1264  0.3665
43811CL      CL35364   1.549   0.207   2.171  0.0156  0.0469 -0.2094
43812CL      CL35365   7.915   8.928   0.479 -0.7500 -0.2631  0.0355
43813CL      CL35366   5.897  10.535  10.949 -0.4971  0.0759 -0.4224
43814CL      CL35367   5.721   4.183   6.252 -0.1979  0.3629  0.4102
43815CL      CL35368   0.099   8.343   6.136 -0.1142  0.2414  0.4773
43816CL      CL35369   2.052   4.960   4.606  0.5255 -0.1285 -0.1301
43817CL      CL35370   4.963   4.225   3.765  0.0674  0.2635  0.0022
43818CL      CL35371   1.422   5.826   8.423  0.0670  0.3058 -0.1093
43819CL      CL35372   7.702   7.561   8.443  0.4776 -0.1771 -0.0636
43820CL      CL35373   2.263   2.925   4.180 -0.0483  0.0027  0.5802
43821CL      CL35374   9.448   3.032   6.000 -0.1171 -0.1033 -0.0882
43822CL      CL35375   3.717   9.708   2.229  0.0092  0.3285 -0.3754
43823CL      CL35376   1.207   9.569   4.175 -0.0932  0.0722 -0.0658
43824CL      CL35377   9.701   1.648   7.075 -0.0002  0.3995  0.1205
43825CL      CL35378   4.077   5.716   8.614  0.1697 -0.0447  0.4395
43826CL      CL35379   2.293   0.484   9.796  0.0621 -0.3945  0.0098
43827CL      CL35380   6.655   7.184   8.539  0.0951 -0.3026  0.1965
43828CL      CL35381   5.527   6.832   9.113 -0.0800 -0.2970 -0.2256
43829CL      CL35382   2.802   6.194  10.273 -0.3725 -0.0233 -0.0933
43830CL      CL35383   8.991   2.819   0.987  0.0719 -0.0626  0.1859
43831CL      CL35384   0.204   0.890  10.911  0.2210 -0.6006  0.4744
43832CL      CL35385   7.544   1.082   7.581  0.3583 -0.0047  0.0322
43833CL      CL35386   4.100   7.834   8.151  0.2894  0.1313 -0.1990
43834CL      CL35387  10.335   3.624   7.687 -0.2715  0.0794 -0.2549
43835CL      CL35388   1.261   7.016   5.200 -0.2697 -0.0207  0.3804
43836CL      CL35389   6.181   5.437   0.407  0.2313 -0.1889 -0.5042
43837CL      CL35390  10.704   5.815  10.748 -0.1343 -0.3856  0.0633
43838CL      CL35391   3.026   8.993  10.758  0.0673  0.1002 -0.2171
43839CL      CL35392   2.218   7.806  10.708 -0.2931  0.2447  0.1917
43840CL      CL35393   1.492  10.703  10.166  0.3507  0.1157 -0.0812
43841CL      CL35394   0.873   0.287   3.959 -0.0031  0.2365  0.0878
43842CL      CL35395   0.660   2.499   1.580 -0.3623  0.4914 -0.5244
43843CL      CL35396   4.247  10.184   2.024 -0.1957  0.5183  0.0451
43844CL      CL35397   2.005   3.024   5.722 -0.1473  0.0939  0.0799
43845CL      CL35398   6.796   6.514   6.640 -0.0954 -0.2184 -0.1925
43846CL      CL35399   8.319  10.240   8.293  0.0119  0.0690 -0.0030
43847CL      CL35400   6.617   2.186   5.915  0.1290 -0.2824 -0.0441
43848CL      CL35401  10.334   1.035   8.847  0.0952  0.3950 -0.4988
43849CL      CL35402   7.996   5.483   9.054 -0.1163 -0.2039 -0.1568
43850CL      CL35403   5.433   8.845   7.131 -0.2643 -0.2768 -0.1058
43851CL      CL35404   4.360   6.311   0.215 -0.0245 -0.3835  0.4199
43852CL      CL35405   4.783   5.157   1.947 -0.1205  0.2539 -0.1069
43853CL      CL35406   0.536   3.691   0.632 -0.0168 -0.4366  0.5345
43854CL      CL35407   7.515   6.909   7.616 -0.2740 -0.0963 -0.1475
43855CL      CL35408   3.490   1.096   7.744 -0.0272  0.4059  0.5535
43856CL      CL35409   0.045   9.594   2.117 -0.1324 -0.0402 -0.2272
43857CL      CL35410   4.285   7.316   9.669 -0.4099 -0.1504  0.0968
43858CL      CL35411  10.120   6.974   3.318  0.1037  0.2962  0.2969
43859CL      CL35412  10.442   7.172  10.207  0.2069 -0.2599 -0.1164
43860CL      CL35413   3.260   8.148   5.893 -0.2084  0.3931 -0.1645
43861CL      CL35414   3.904   9.293   6.685 -0.0347  0.5444  0.0106
43862CL      CL35415   8.143   7.760   4.065 -0.6136  0.0785  0.3922
43863CL      CL35416   0.896   6.620   8.835 -0.0110 -0.1866 -0.5009
43864CL      CL35417   9.111   0.449   1.247 -0.2672 -0.0070 -0.2215
43865CL      CL35418   7.872   2.187  10.337  0.1156  0.2582  0.5143
43866CL      CL35419   2.995   7.530   8.355  0.0947  0.4368  0.0087
43867CL      CL35420   0.835   7.222   6.878 -0.2926 -0.0234 -0.1953
43868CL      CL35421   5.665   9.279   7.315 -0.0231  0.3134 -0.2193
43869CL      CL35422   8.051   4.563   3.903  0.3519 -0.2615  0.1285
43870CL      CL35423   6.089   4.999   5.678 -0.1732  0.5436 -0.2035
43871CL      CL35424   4.170   6.406   2.946 -0.3057 -0.1512  0.0371
43872CL      CL35425   1.327   8.002   1.121  0.1570  0.5268  0.3950
43873CL      CL35426   3.367   7.395   7.292  0.4572 -0.2674 -0.2355
43874CL      CL35427   4.834  10.646   5.369 -0.4106 -0.0193  0.0805
43875CL      CL35428   3.422   9.633   6.340  0.2193 -0.5430 -0.1647
43876CL      CL35429   5.871   7.238   4.787 -0.0988  0.1662 -0.1914
43877CL      CL35430   3.853  10.636   1.117  0.5085 -0.1195 -0.1230
43878CL      CL35431   6.336   9.270   4.350 -0.1843 -0.1568 -0.2312
43879CL      CL35432   2.123   7.987   7.005 -0.1768 -0.0033 -0.3337
43880CL      CL35433  10.638   9.410   0.120  0.1161  0.1113 -0.0119
43881CL      CL35434   4.706  10.910   9.121  0.1853  0.3924  0.2233
43882CL      CL35435   2.670   8.207   8.794 -0.1385 -0.0081 -0.9966
43883CL      CL35436   4.989   8.848   7.964 -0.0763 -0.1247 -0.1343
43884CL      CL35437   6.259   1.872   5.956  0.1070 -0.1690  0.4836
43885CL      CL35438   0.646   0.470   1.471 -0.0445  0.0170  0.2766
43886CL      CL35439   4.298   6.200   9.867  0.1156 -0.1074  0.3758
43887CL      CL35440  10.280   4.609   0.968  0.0517  0.1545 -0.2167
43888CL      CL35441   3.609  10.523   9.525 -0.0014 -0.2269  0.0771
43889CL      CL35442   4.265   8.067   0.023 -0.0879 -0.2664 -0.2657
43890CL      CL35443   2.522   6.420   8.419  0.3640  0.0284 -0.1379
43891CL      CL35444   5.923   2.202   8.329  0.2095  0.4202  0.3754
43892CL      CL35445   5.419   7.281   8.056 -0.4783 -0.0779 -0.7899
  11.07551  11.07551  11.07551
